mobley_7708038_GMX.gro created by acpype (v: 2023.10.27) on Wed May 20 23:46:16 2026
 8912
    1MOL     C1    1   2.161   2.263   2.150
    1MOL     C2    2   2.215   2.268   2.292
    1MOL     C3    3   2.359   2.221   2.297
    1MOL    BR1    4   2.426   2.234   2.479
    1MOL     H1    5   2.057   2.298   2.148
    1MOL     H2    6   2.219   2.327   2.083
    1MOL     H3    7   2.163   2.161   2.111
    1MOL     H4    8   2.152   2.206   2.357
    1MOL     H5    9   2.208   2.371   2.329
    1MOL     H6   10   2.425   2.282   2.235
    1MOL     H7   11   2.368   2.115   2.268
    2SOL     OW   12   0.230   0.628   0.113
    2SOL    HW1   13   0.137   0.626   0.150
    2SOL    HW2   14   0.231   0.589   0.021
    3SOL     OW   15   0.225   0.275   0.996
    3SOL    HW1   16   0.260   0.258   1.088
    3SOL    HW2   17   0.137   0.230   0.984
    4SOL     OW   18   0.019   0.368   0.647
    4SOL    HW1   19  -0.063   0.411   0.686
    4SOL    HW2   20  -0.009   0.295   0.584
    5SOL     OW   21   0.569   1.275   1.165
    5SOL    HW1   22   0.476   1.268   1.128
    5SOL    HW2   23   0.580   1.364   1.209
    6SOL     OW   24   1.555   1.511   0.703
    6SOL    HW1   25   1.498   1.495   0.784
    6SOL    HW2   26   1.496   1.521   0.623
    7SOL     OW   27   1.135   0.703   0.717
    7SOL    HW1   28   1.192   0.781   0.692
    7SOL    HW2   29   1.075   0.729   0.793
    8SOL     OW   30   1.755   0.607   0.231
    8SOL    HW1   31   1.743   0.594   0.132
    8SOL    HW2   32   1.725   0.526   0.280
    9SOL     OW   33   0.768   1.144   1.023
    9SOL    HW1   34   0.690   1.161   1.083
    9SOL    HW2   35   0.802   1.231   0.987
   10SOL     OW   36   0.850   0.798   1.823
   10SOL    HW1   37   0.846   0.874   1.888
   10SOL    HW2   38   0.872   0.834   1.732
   11SOL     OW   39   0.685   1.012   0.665
   11SOL    HW1   40   0.754   0.996   0.735
   11SOL    HW2   41   0.612   1.069   0.703
   12SOL     OW   42   0.686   1.161   1.803
   12SOL    HW1   43   0.746   1.240   1.817
   12SOL    HW2   44   0.600   1.192   1.762
   13SOL     OW   45   0.335   1.435   1.061
   13SOL    HW1   46   0.257   1.404   1.008
   13SOL    HW2   47   0.393   1.493   1.004
   14SOL     OW   48   1.460   1.505   1.339
   14SOL    HW1   49   1.484   1.599   1.365
   14SOL    HW2   50   1.444   1.451   1.421
   15SOL     OW   51   0.438   0.392   1.499
   15SOL    HW1   52   0.520   0.336   1.508
   15SOL    HW2   53   0.357   0.334   1.503
   16SOL     OW   54   1.603   0.447   0.737
   16SOL    HW1   55   1.529   0.493   0.687
   16SOL    HW2   56   1.654   0.515   0.790
   17SOL     OW   57   0.231   1.713   0.483
   17SOL    HW1   58   0.265   1.790   0.537
   17SOL    HW2   59   0.275   1.713   0.393
   18SOL     OW   60   1.127   1.341   1.690
   18SOL    HW1   61   1.174   1.341   1.778
   18SOL    HW2   62   1.079   1.254   1.679
   19SOL     OW   63   0.230   1.434   0.538
   19SOL    HW1   64   0.204   1.530   0.538
   19SOL    HW2   65   0.159   1.380   0.583
   20SOL     OW   66   0.240   1.091   0.886
   20SOL    HW1   67   0.254   1.007   0.938
   20SOL    HW2   68   0.185   1.155   0.941
   21SOL     OW   69   0.620   1.786   1.439
   21SOL    HW1   70   0.528   1.769   1.474
   21SOL    HW2   71   0.648   1.878   1.465
   22SOL     OW   72   0.606   0.964   0.123
   22SOL    HW1   73   0.613   1.048   0.069
   22SOL    HW2   74   0.652   0.977   0.211
   23SOL     OW   75   1.594   0.114   1.480
   23SOL    HW1   76   1.576   0.181   1.408
   23SOL    HW2   77   1.591   0.160   1.569
   24SOL     OW   78   0.122   0.643   0.563
   24SOL    HW1   79   0.077   0.555   0.580
   24SOL    HW2   80   0.121   0.697   0.647
   25SOL     OW   81   1.842   1.767   0.359
   25SOL    HW1   82   1.896   1.738   0.439
   25SOL    HW2   83   1.872   1.857   0.330
   26SOL     OW   84   0.027   1.596   0.117
   26SOL    HW1   85   0.008   1.500   0.138
   26SOL    HW2   86  -0.006   1.654   0.192
   27SOL     OW   87   1.689   0.922   0.612
   27SOL    HW1   88   1.784   0.893   0.620
   27SOL    HW2   89   1.681   0.987   0.537
   28SOL     OW   90   1.641   1.108   0.432
   28SOL    HW1   91   1.727   1.110   0.380
   28SOL    HW2   92   1.655   1.155   0.520
   29SOL     OW   93   0.113   0.737   1.597
   29SOL    HW1   94   0.201   0.724   1.642
   29SOL    HW2   95   0.100   0.834   1.575
   30SOL     OW   96   0.613   1.365   0.726
   30SOL    HW1   97   0.564   1.278   0.735
   30SOL    HW2   98   0.590   1.408   0.639
   31SOL     OW   99   1.293   1.228   1.423
   31SOL    HW1  100   1.330   1.155   1.365
   31SOL    HW2  101   1.345   1.233   1.508
   32SOL     OW  102   0.809   0.004   0.502
   32SOL    HW1  103   0.849   0.095   0.493
   32SOL    HW2  104   0.709   0.012   0.508
   33SOL     OW  105   0.197   0.976   1.264
   33SOL    HW1  106   0.286   0.931   1.250
   33SOL    HW2  107   0.124   0.911   1.245
   34SOL     OW  108   1.525   0.999   0.190
   34SOL    HW1  109   1.462   0.923   0.203
   34SOL    HW2  110   1.573   1.017   0.276
   35SOL     OW  111   1.187   1.792   1.616
   35SOL    HW1  112   1.211   1.852   1.540
   35SOL    HW2  113   1.194   1.697   1.586
   36SOL     OW  114   0.317   0.251   1.801
   36SOL    HW1  115   0.388   0.322   1.807
   36SOL    HW2  116   0.229   0.290   1.829
   37SOL     OW  117   1.466   1.417   0.953
   37SOL    HW1  118   1.407   1.423   1.033
   37SOL    HW2  119   1.451   1.329   0.907
   38SOL     OW  120   1.667   1.714   0.572
   38SOL    HW1  121   1.626   1.691   0.484
   38SOL    HW2  122   1.649   1.640   0.637
   39SOL     OW  123   0.598   0.729   0.270
   39SOL    HW1  124   0.622   0.798   0.202
   39SOL    HW2  125   0.520   0.762   0.324
   40SOL     OW  126   1.281   0.345   0.944
   40SOL    HW1  127   1.195   0.295   0.931
   40SOL    HW2  128   1.343   0.291   1.000
   41SOL     OW  129   1.576   1.662   0.307
   41SOL    HW1  130   1.665   1.708   0.310
   41SOL    HW2  131   1.555   1.638   0.212
   42SOL     OW  132   0.807   0.605   1.465
   42SOL    HW1  133   0.760   0.602   1.554
   42SOL    HW2  134   0.756   0.550   1.399
   43SOL     OW  135   1.394   0.469   1.674
   43SOL    HW1  136   1.374   0.512   1.762
   43SOL    HW2  137   1.472   0.407   1.683
   44SOL     OW  138   0.973   0.890   1.572
   44SOL    HW1  139   1.019   0.806   1.543
   44SOL    HW2  140   0.917   0.924   1.497
   45SOL     OW  141   0.991   0.410   1.242
   45SOL    HW1  142   0.914   0.444   1.296
   45SOL    HW2  143   0.957   0.359   1.163
   46SOL     OW  144   1.041   0.701   0.429
   46SOL    HW1  145   1.067   0.697   0.525
   46SOL    HW2  146   0.956   0.650   0.415
   47SOL     OW  147   0.076   0.811   0.789
   47SOL    HW1  148   0.175   0.799   0.798
   47SOL    HW2  149   0.052   0.906   0.810
   48SOL     OW  150   0.130   1.821   1.571
   48SOL    HW1  151   0.120   1.806   1.670
   48SOL    HW2  152   0.044   1.857   1.535
   49SOL     OW  153   0.865   0.348   0.195
   49SOL    HW1  154   0.924   0.411   0.146
   49SOL    HW2  155   0.884   0.254   0.166
   50SOL     OW  156   1.719   0.585   1.831
   50SOL    HW1  157   1.693   0.674   1.795
   50SOL    HW2  158   1.717   0.517   1.758
   51SOL     OW  159   1.362   1.144   0.545
   51SOL    HW1  160   1.445   1.115   0.497
   51SOL    HW2  161   1.313   1.211   0.489
   52SOL     OW  162   0.550   0.196   0.885
   52SOL    HW1  163   0.545   0.191   0.985
   52SOL    HW2  164   0.552   0.292   0.856
   53SOL     OW  165   1.008   1.456   0.477
   53SOL    HW1  166   0.962   1.528   0.425
   53SOL    HW2  167   1.004   1.476   0.575
   54SOL     OW  168   0.351   1.801   0.853
   54SOL    HW1  169   0.401   1.715   0.859
   54SOL    HW2  170   0.416   1.878   0.850
   55SOL     OW  171   1.795   1.066   0.873
   55SOL    HW1  172   1.733   1.051   0.797
   55SOL    HW2  173   1.743   1.077   0.958
   56SOL     OW  174   1.227   1.550   1.506
   56SOL    HW1  175   1.233   1.473   1.570
   56SOL    HW2  176   1.175   1.524   1.426
   57SOL     OW  177   0.321   0.943   0.242
   57SOL    HW1  178   0.403   0.982   0.200
   57SOL    HW2  179   0.294   0.861   0.193
   58SOL     OW  180   1.458   0.735   0.728
   58SOL    HW1  181   1.453   0.670   0.803
   58SOL    HW2  182   1.538   0.794   0.741
   59SOL     OW  183   0.461   1.266   1.727
   59SOL    HW1  184   0.411   1.267   1.641
   59SOL    HW2  185   0.398   1.248   1.803
   60SOL     OW  186   1.111   1.776   0.237
   60SOL    HW1  187   1.051   1.714   0.287
   60SOL    HW2  188   1.142   1.732   0.152
   61SOL     OW  189   0.202   0.285   1.498
   61SOL    HW1  190   0.122   0.345   1.485
   61SOL    HW2  191   0.192   0.236   1.584
   62SOL     OW  192   1.632   1.377   0.081
   62SOL    HW1  193   1.600   1.471   0.071
   62SOL    HW2  194   1.556   1.314   0.069
   63SOL     OW  195   0.464   1.743   0.323
   63SOL    HW1  196   0.497   1.782   0.409
   63SOL    HW2  197   0.540   1.736   0.258
   64SOL     OW  198   1.400   0.107   0.426
   64SOL    HW1  199   1.376   0.070   0.336
   64SOL    HW2  200   1.499   0.123   0.430
   65SOL     OW  201   0.249   1.785   1.241
   65SOL    HW1  202   0.306   1.720   1.291
   65SOL    HW2  203   0.233   1.752   1.148
   66SOL     OW  204   0.940   1.698   0.904
   66SOL    HW1  205   1.020   1.641   0.925
   66SOL    HW2  206   0.891   1.658   0.827
   67SOL     OW  207   0.382   0.700   0.480
   67SOL    HW1  208   0.427   0.610   0.477
   67SOL    HW2  209   0.288   0.689   0.513
   68SOL     OW  210   1.547   0.222   1.729
   68SOL    HW1  211   1.542   0.259   1.821
   68SOL    HW2  212   1.475   0.153   1.717
   69SOL     OW  213   0.614   0.122   0.117
   69SOL    HW1  214   0.712   0.100   0.124
   69SOL    HW2  215   0.583   0.105   0.024
   70SOL     OW  216   0.781   0.264   1.749
   70SOL    HW1  217   0.848   0.203   1.792
   70SOL    HW2  218   0.708   0.283   1.814
   71SOL     OW  219   0.888   1.514   1.195
   71SOL    HW1  220   0.865   1.489   1.101
   71SOL    HW2  221   0.949   1.445   1.234
   72SOL     OW  222   1.351   0.590   1.433
   72SOL    HW1  223   1.379   0.547   1.518
   72SOL    HW2  224   1.376   0.686   1.434
   73SOL     OW  225   0.803   1.402   0.924
   73SOL    HW1  226   0.893   1.416   0.882
   73SOL    HW2  227   0.732   1.404   0.853
   74SOL     OW  228   0.922   0.503   0.899
   74SOL    HW1  229   0.897   0.494   0.803
   74SOL    HW2  230   0.970   0.421   0.930
   75SOL     OW  231   0.539   0.064   0.512
   75SOL    HW1  232   0.458   0.065   0.570
   75SOL    HW2  233   0.542   0.147   0.457
   76SOL     OW  234   1.434   1.188   0.041
   76SOL    HW1  235   1.466   1.112   0.098
   76SOL    HW2  236   1.342   1.215   0.071
   77SOL     OW  237   0.297   0.035   0.171
   77SOL    HW1  238   0.346   0.119   0.150
   77SOL    HW2  239   0.359  -0.030   0.216
   78SOL     OW  240   0.935   0.236   0.480
   78SOL    HW1  241   0.887   0.277   0.402
   78SOL    HW2  242   1.034   0.234   0.461
   79SOL     OW  243   1.076   0.683   1.464
   79SOL    HW1  244   0.996   0.622   1.467
   79SOL    HW2  245   1.157   0.630   1.440
   80SOL     OW  246   1.227   1.570   0.793
   80SOL    HW1  247   1.248   1.644   0.728
   80SOL    HW2  248   1.295   1.570   0.866
   81SOL     OW  249   0.459   1.152   0.741
   81SOL    HW1  250   0.388   1.125   0.806
   81SOL    HW2  251   0.433   1.124   0.648
   82SOL     OW  252   1.271   1.797   0.591
   82SOL    HW1  253   1.315   1.861   0.527
   82SOL    HW2  254   1.221   1.849   0.661
   83SOL     OW  255   1.032   0.549   0.016
   83SOL    HW1  256   0.991   0.631  -0.023
   83SOL    HW2  257   1.096   0.575   0.089
   84SOL     OW  258   0.078   0.556   1.386
   84SOL    HW1  259   0.170   0.555   1.345
   84SOL    HW2  260   0.072   0.630   1.453
   85SOL     OW  261   0.561   0.222   1.147
   85SOL    HW1  262   0.599   0.138   1.184
   85SOL    HW2  263   0.473   0.241   1.191
   86SOL     OW  264   0.866   0.454   0.642
   86SOL    HW1  265   0.834   0.526   0.580
   86SOL    HW2  266   0.890   0.373   0.589
   87SOL     OW  267   1.017   0.039   0.753
   87SOL    HW1  268   0.945   0.044   0.684
   87SOL    HW2  269   0.993  -0.030   0.822
   88SOL     OW  270   1.429   1.173   0.867
   88SOL    HW1  271   1.374   1.089   0.860
   88SOL    HW2  272   1.455   1.202   0.775
   89SOL     OW  273   1.466   0.590   0.992
   89SOL    HW1  274   1.436   0.495   0.999
   89SOL    HW2  275   1.539   0.606   1.058
   90SOL     OW  276   1.857   0.833   0.377
   90SOL    HW1  277   1.899   0.769   0.441
   90SOL    HW2  278   1.819   0.782   0.299
   91SOL     OW  279   0.488   1.385   0.174
   91SOL    HW1  280   0.401   1.370   0.221
   91SOL    HW2  281   0.471   1.411   0.079
   92SOL     OW  282   1.664   1.280   0.657
   92SOL    HW1  283   1.763   1.288   0.671
   92SOL    HW2  284   1.619   1.364   0.688
   93SOL     OW  285   1.390   0.575   0.078
   93SOL    HW1  286   1.336   0.554   0.159
   93SOL    HW2  287   1.481   0.534   0.087
   94SOL     OW  288   0.527   0.256   0.328
   94SOL    HW1  289   0.554   0.197   0.253
   94SOL    HW2  290   0.527   0.351   0.297
   95SOL     OW  291   1.754   1.223   1.588
   95SOL    HW1  292   1.845   1.184   1.575
   95SOL    HW2  293   1.762   1.319   1.612
   96SOL     OW  294   1.064   1.347   1.340
   96SOL    HW1  295   0.984   1.324   1.395
   96SOL    HW2  296   1.147   1.321   1.389
   97SOL     OW  297   1.592   1.629   1.625
   97SOL    HW1  298   1.619   1.663   1.535
   97SOL    HW2  299   1.671   1.591   1.671
   98SOL     OW  300   1.111   1.195   1.100
   98SOL    HW1  301   1.071   1.239   1.181
   98SOL    HW2  302   1.070   1.232   1.017
   99SOL     OW  303   1.638   1.099   1.079
   99SOL    HW1  304   1.643   1.180   1.138
   99SOL    HW2  305   1.552   1.101   1.028
  100SOL     OW  306   0.915   0.089   1.402
  100SOL    HW1  307   0.940   0.069   1.307
  100SOL    HW2  308   0.987   0.145   1.444
  101SOL     OW  309   0.980   1.116   1.719
  101SOL    HW1  310   0.881   1.122   1.729
  101SOL    HW2  311   1.003   1.036   1.663
  102SOL     OW  312   0.705   1.050   0.368
  102SOL    HW1  313   0.691   1.057   0.467
  102SOL    HW2  314   0.789   0.999   0.350
  103SOL     OW  315   0.410   0.813   1.251
  103SOL    HW1  316   0.496   0.825   1.301
  103SOL    HW2  317   0.368   0.726   1.278
  104SOL     OW  318   1.274   0.386   1.262
  104SOL    HW1  319   1.295   0.460   1.326
  104SOL    HW2  320   1.185   0.403   1.219
  105SOL     OW  321   0.064   1.564   1.331
  105SOL    HW1  322   0.018   1.646   1.297
  105SOL    HW2  323   0.162   1.583   1.340
  106SOL     OW  324   0.367   1.100   0.501
  106SOL    HW1  325   0.360   1.183   0.445
  106SOL    HW2  326   0.371   1.020   0.441
  107SOL     OW  327   0.566   0.537   0.865
  107SOL    HW1  328   0.578   0.603   0.791
  107SOL    HW2  329   0.612   0.571   0.948
  108SOL     OW  330   1.252   1.348   0.388
  108SOL    HW1  331   1.302   1.425   0.428
  108SOL    HW2  332   1.157   1.350   0.420
  109SOL     OW  333   1.272   1.445   1.142
  109SOL    HW1  334   1.319   1.458   1.229
  109SOL    HW2  335   1.206   1.371   1.151
  110SOL     OW  336   1.582   0.639   0.472
  110SOL    HW1  337   1.551   0.700   0.545
  110SOL    HW2  338   1.632   0.691   0.403
  111SOL     OW  339   0.354   1.510   1.329
  111SOL    HW1  340   0.333   1.466   1.242
  111SOL    HW2  341   0.451   1.536   1.332
  112SOL     OW  342   0.402   0.751   1.598
  112SOL    HW1  343   0.470   0.806   1.551
  112SOL    HW2  344   0.442   0.663   1.625
  113SOL     OW  345   1.587   0.779   1.670
  113SOL    HW1  346   1.495   0.817   1.665
  113SOL    HW2  347   1.647   0.826   1.605
  114SOL     OW  348   1.013   0.105   1.770
  114SOL    HW1  349   1.019   0.190   1.718
  114SOL    HW2  350   1.045   0.029   1.713
  115SOL     OW  351   0.504   0.050   1.740
  115SOL    HW1  352   0.462  -0.007   1.670
  115SOL    HW2  353   0.438   0.119   1.772
  116SOL     OW  354   0.573   0.870   1.029
  116SOL    HW1  355   0.617   0.959   1.020
  116SOL    HW2  356   0.510   0.870   1.106
  117SOL     OW  357   1.360   0.862   1.045
  117SOL    HW1  358   1.285   0.862   0.979
  117SOL    HW2  359   1.397   0.770   1.054
  118SOL     OW  360   1.209   0.525   0.275
  118SOL    HW1  361   1.222   0.441   0.329
  118SOL    HW2  362   1.180   0.599   0.335
  119SOL     OW  363   0.307   0.213   1.231
  119SOL    HW1  364   0.284   0.250   1.321
  119SOL    HW2  365   0.277   0.118   1.225
  120SOL     OW  366   0.037   1.310   1.282
  120SOL    HW1  367   0.090   1.261   1.350
  120SOL    HW2  368   0.059   1.408   1.287
  121SOL     OW  369   0.732   0.634   1.064
  121SOL    HW1  370   0.791   0.608   0.988
  121SOL    HW2  371   0.704   0.730   1.053
  122SOL     OW  372   1.728   0.935   1.854
  122SOL    HW1  373   1.682   0.928   1.765
  122SOL    HW2  374   1.666   0.979   1.920
  123SOL     OW  375   0.307   0.063   0.618
  123SOL    HW1  376   0.296   0.157   0.651
  123SOL    HW2  377   0.302   0.000   0.695
  124SOL     OW  378   1.622   0.367   0.374
  124SOL    HW1  379   1.624   0.291   0.438
  124SOL    HW2  380   1.574   0.444   0.414
  125SOL     OW  381   1.023   0.766   0.966
  125SOL    HW1  382   1.038   0.787   1.062
  125SOL    HW2  383   0.993   0.671   0.957
  126SOL     OW  384   0.980   1.573   1.700
  126SOL    HW1  385   0.960   1.617   1.612
  126SOL    HW2  386   1.019   1.482   1.684
  127SOL     OW  387   1.859   1.518   1.605
  127SOL    HW1  388   1.873   1.545   1.510
  127SOL    HW2  389   1.942   1.540   1.658
  128SOL     OW  390   0.350   0.898   1.804
  128SOL    HW1  391   0.426   0.942   1.852
  128SOL    HW2  392   0.385   0.851   1.722
  129SOL     OW  393   1.540   0.274   0.125
  129SOL    HW1  394   1.479   0.199   0.148
  129SOL    HW2  395   1.562   0.326   0.208
  130SOL     OW  396   1.303   0.838   0.042
  130SOL    HW1  397   1.337   0.745   0.057
  130SOL    HW2  398   1.321   0.865  -0.053
  131SOL     OW  399   1.068   1.333   0.849
  131SOL    HW1  400   1.075   1.249   0.794
  131SOL    HW2  401   1.130   1.402   0.813
  132SOL     OW  402   0.319   0.810   0.949
  132SOL    HW1  403   0.412   0.846   0.954
  132SOL    HW2  404   0.313   0.725   1.001
  133SOL     OW  405   0.339   0.509   1.006
  133SOL    HW1  406   0.287   0.426   0.989
  133SOL    HW2  407   0.416   0.514   0.942
  134SOL     OW  408   1.138   0.380   1.678
  134SOL    HW1  409   1.093   0.443   1.742
  134SOL    HW2  410   1.231   0.411   1.661
  135SOL     OW  411   1.160   0.207   1.477
  135SOL    HW1  412   1.160   0.271   1.554
  135SOL    HW2  413   1.188   0.255   1.394
  136SOL     OW  414   0.008   1.326   0.200
  136SOL    HW1  415  -0.085   1.347   0.169
  136SOL    HW2  416   0.018   1.227   0.213
  137SOL     OW  417   0.088   1.801   0.927
  137SOL    HW1  418   0.046   1.715   0.900
  137SOL    HW2  419   0.182   1.804   0.893
  138SOL     OW  420   0.504   1.568   0.910
  138SOL    HW1  421   0.570   1.642   0.919
  138SOL    HW2  422   0.548   1.489   0.868
  139SOL     OW  423   1.002   0.796   1.238
  139SOL    HW1  424   1.043   0.764   1.324
  139SOL    HW2  425   0.906   0.769   1.235
  140SOL     OW  426   0.040   0.544   1.114
  140SOL    HW1  427   0.125   0.511   1.073
  140SOL    HW2  428   0.053   0.559   1.212
  141SOL     OW  429   0.189   0.520   1.722
  141SOL    HW1  430   0.248   0.480   1.652
  141SOL    HW2  431   0.131   0.591   1.681
  142SOL     OW  432   1.369   0.950   1.660
  142SOL    HW1  433   1.408   1.039   1.680
  142SOL    HW2  434   1.379   0.930   1.563
  143SOL     OW  435   0.815   0.572   0.325
  143SOL    HW1  436   0.822   0.483   0.279
  143SOL    HW2  437   0.721   0.606   0.317
  144SOL     OW  438   1.657   0.604   1.206
  144SOL    HW1  439   1.619   0.535   1.268
  144SOL    HW2  440   1.739   0.568   1.162
  145SOL     OW  441   0.252   1.564   1.744
  145SOL    HW1  442   0.222   1.621   1.820
  145SOL    HW2  443   0.245   1.467   1.770
  146SOL     OW  444   0.671   0.464   1.269
  146SOL    HW1  445   0.637   0.375   1.239
  146SOL    HW2  446   0.697   0.518   1.189
  147SOL     OW  447   0.930   1.678   1.465
  147SOL    HW1  448   0.906   1.660   1.370
  147SOL    HW2  449   0.960   1.772   1.475
  148SOL     OW  450   0.473   0.500   0.191
  148SOL    HW1  451   0.534   0.580   0.195
  148SOL    HW2  452   0.378   0.531   0.198
  149SOL     OW  453   0.159   1.137   1.466
  149SOL    HW1  454   0.181   1.076   1.542
  149SOL    HW2  455   0.169   1.088   1.380
  150SOL     OW  456   1.347   1.059   1.234
  150SOL    HW1  457   1.371   0.996   1.160
  150SOL    HW2  458   1.257   1.099   1.216
  151SOL     OW  459   1.302   0.855   0.309
  151SOL    HW1  460   1.216   0.824   0.351
  151SOL    HW2  461   1.298   0.841   0.210
  152SOL     OW  462   1.759   1.747   1.154
  152SOL    HW1  463   1.820   1.777   1.081
  152SOL    HW2  464   1.721   1.658   1.132
  153SOL     OW  465   1.252   1.731   1.128
  153SOL    HW1  466   1.336   1.736   1.074
  153SOL    HW2  467   1.229   1.635   1.146
  154SOL     OW  468   0.083   1.258   1.022
  154SOL    HW1  469   0.078   1.257   1.122
  154SOL    HW2  470   0.000   1.217   0.984
  155SOL     OW  471   0.688   1.662   1.716
  155SOL    HW1  472   0.632   1.743   1.725
  155SOL    HW2  473   0.740   1.666   1.630
  156SOL     OW  474   0.903   0.086   0.133
  156SOL    HW1  475   0.954   0.087   0.047
  156SOL    HW2  476   0.959   0.044   0.204
  157SOL     OW  477   1.726   0.135   0.523
  157SOL    HW1  478   1.799   0.118   0.456
  157SOL    HW2  479   1.695   0.048   0.561
  158SOL     OW  480   1.388   1.573   0.477
  158SOL    HW1  481   1.455   1.585   0.403
  158SOL    HW2  482   1.348   1.662   0.500
  159SOL     OW  483   0.130   1.794   1.851
  159SOL    HW1  484   0.089   1.720   1.904
  159SOL    HW2  485   0.194   1.845   1.909
  160SOL     OW  486   1.280   0.927   0.672
  160SOL    HW1  487   1.340   0.846   0.674
  160SOL    HW2  488   1.320   0.996   0.612
  161SOL     OW  489   0.830   1.273   1.422
  161SOL    HW1  490   0.825   1.306   1.517
  161SOL    HW2  491   0.744   1.292   1.376
  162SOL     OW  492   0.672   1.616   0.154
  162SOL    HW1  493   0.681   1.626   0.055
  162SOL    HW2  494   0.632   1.527   0.175
  163SOL     OW  495   1.650   1.720   1.394
  163SOL    HW1  496   1.703   1.730   1.310
  163SOL    HW2  497   1.623   1.810   1.428
  164SOL     OW  498   1.841   0.175   0.963
  164SOL    HW1  499   1.880   0.090   0.927
  164SOL    HW2  500   1.743   0.177   0.944
  165SOL     OW  501   0.263   0.326   0.720
  165SOL    HW1  502   0.184   0.377   0.686
  165SOL    HW2  503   0.254   0.311   0.818
  166SOL     OW  504   1.194   1.612   0.031
  166SOL    HW1  505   1.200   1.519   0.068
  166SOL    HW2  506   1.135   1.612  -0.049
  167SOL     OW  507   0.822   1.002   1.372
  167SOL    HW1  508   0.862   1.001   1.280
  167SOL    HW2  509   0.832   1.094   1.412
  168SOL     OW  510   0.916   0.910   0.291
  168SOL    HW1  511   0.979   0.948   0.223
  168SOL    HW2  512   0.956   0.827   0.330
  169SOL     OW  513   1.504   1.607   0.044
  169SOL    HW1  514   1.412   1.644   0.051
  169SOL    HW2  515   1.542   1.627  -0.046
  170SOL     OW  516   0.372   1.288   1.490
  170SOL    HW1  517   0.359   1.381   1.456
  170SOL    HW2  518   0.288   1.236   1.477
  171SOL     OW  519   1.614   1.292   1.289
  171SOL    HW1  520   1.674   1.295   1.369
  171SOL    HW2  521   1.539   1.356   1.302
  172SOL     OW  522   1.039   1.098   0.696
  172SOL    HW1  523   0.969   1.051   0.750
  172SOL    HW2  524   1.098   1.030   0.653
  173SOL     OW  525   1.014   0.236   0.971
  173SOL    HW1  526   1.006   0.200   0.878
  173SOL    HW2  527   1.012   0.160   1.036
  174SOL     OW  528   0.590   1.487   0.491
  174SOL    HW1  529   0.632   1.429   0.421
  174SOL    HW2  530   0.546   1.566   0.447
  175SOL     OW  531   1.709   0.385   1.381
  175SOL    HW1  532   1.782   0.454   1.385
  175SOL    HW2  533   1.737   0.310   1.322
  176SOL     OW  534   0.255   1.348   0.290
  176SOL    HW1  535   0.159   1.349   0.263
  176SOL    HW2  536   0.267   1.401   0.374
  177SOL     OW  537   0.105   1.013   1.726
  177SOL    HW1  538   0.028   0.980   1.780
  177SOL    HW2  539   0.190   0.983   1.768
  178SOL     OW  540   0.672   0.203   1.489
  178SOL    HW1  541   0.762   0.187   1.449
  178SOL    HW2  542   0.680   0.208   1.588
  179SOL     OW  543   0.075   0.345   0.033
  179SOL    HW1  544  -0.017   0.317   0.004
  179SOL    HW2  545   0.106   0.422  -0.023
  180SOL     OW  546   1.440   0.856   1.398
  180SOL    HW1  547   1.383   0.908   1.335
  180SOL    HW2  548   1.536   0.868   1.374
  181SOL     OW  549   0.072   0.166   0.318
  181SOL    HW1  550   0.055   0.249   0.264
  181SOL    HW2  551   0.162   0.129   0.296
  182SOL     OW  552   1.183   1.335   0.119
  182SOL    HW1  553   1.084   1.324   0.121
  182SOL    HW2  554   1.217   1.350   0.212
  183SOL     OW  555   0.613   0.842   1.431
  183SOL    HW1  556   0.669   0.923   1.414
  183SOL    HW2  557   0.672   0.762   1.434
  184SOL     OW  558   1.493   1.767   0.959
  184SOL    HW1  559   1.526   1.831   0.890
  184SOL    HW2  560   1.559   1.761   1.034
  185SOL     OW  561   0.716   0.565   1.708
  185SOL    HW1  562   0.735   0.630   1.782
  185SOL    HW2  563   0.776   0.485   1.717
  186SOL     OW  564   1.450   1.220   1.633
  186SOL    HW1  565   1.441   1.210   1.732
  186SOL    HW2  566   1.546   1.213   1.607
  187SOL     OW  567   0.390   1.741   1.560
  187SOL    HW1  568   0.299   1.782   1.558
  187SOL    HW2  569   0.383   1.647   1.592
  188SOL     OW  570   1.674   0.883   1.254
  188SOL    HW1  571   1.647   0.794   1.217
  188SOL    HW2  572   1.675   0.951   1.181
  189SOL     OW  573   1.225   0.325   0.449
  189SOL    HW1  574   1.290   0.251   0.438
  189SOL    HW2  575   1.245   0.375   0.533
  190SOL     OW  576   0.594   0.745   0.652
  190SOL    HW1  577   0.644   0.830   0.633
  190SOL    HW2  578   0.506   0.747   0.604
  191SOL     OW  579   1.777   0.342   1.642
  191SOL    HW1  580   1.760   0.373   1.548
  191SOL    HW2  581   1.693   0.305   1.680
  192SOL     OW  582   1.730   0.934   1.517
  192SOL    HW1  583   1.768   1.025   1.532
  192SOL    HW2  584   1.722   0.917   1.418
  193SOL     OW  585   0.859   1.374   0.016
  193SOL    HW1  586   0.813   1.389   0.104
  193SOL    HW2  587   0.903   1.459  -0.014
  194SOL     OW  588   0.661   1.790   0.953
  194SOL    HW1  589   0.615   1.878   0.940
  194SOL    HW2  590   0.760   1.802   0.946
  195SOL     OW  591   0.859   0.956   0.861
  195SOL    HW1  592   0.913   0.887   0.909
  195SOL    HW2  593   0.827   1.025   0.927
  196SOL     OW  594   1.083   0.984   0.087
  196SOL    HW1  595   1.060   1.037   0.005
  196SOL    HW2  596   1.164   0.928   0.068
  197SOL     OW  597   1.861   1.569   0.851
  197SOL    HW1  598   1.790   1.557   0.781
  197SOL    HW2  599   1.862   1.490   0.911
  198SOL     OW  600   0.221   1.314   1.844
  198SOL    HW1  601   0.156   1.241   1.823
  198SOL    HW2  602   0.225   1.328   1.942
  199SOL     OW  603   0.079   1.240   0.653
  199SOL    HW1  604   0.078   1.193   0.741
  199SOL    HW2  605   0.161   1.212   0.602
  200SOL     OW  606   0.672   1.391   1.624
  200SOL    HW1  607   0.594   1.341   1.662
  200SOL    HW2  608   0.669   1.486   1.655
  201SOL     OW  609   1.824   0.192   1.227
  201SOL    HW1  610   1.820   0.102   1.271
  201SOL    HW2  611   1.827   0.181   1.128
  202SOL     OW  612   0.428   0.424   0.520
  202SOL    HW1  613   0.458   0.352   0.458
  202SOL    HW2  614   0.389   0.384   0.603
  203SOL     OW  615   1.705   1.487   1.104
  203SOL    HW1  616   1.612   1.462   1.077
  203SOL    HW2  617   1.731   1.437   1.186
  204SOL     OW  618   0.317   0.547   1.280
  204SOL    HW1  619   0.355   0.488   1.352
  204SOL    HW2  620   0.357   0.521   1.192
  205SOL     OW  621   0.812   1.586   0.687
  205SOL    HW1  622   0.844   1.596   0.593
  205SOL    HW2  623   0.733   1.524   0.689
  206SOL     OW  624   1.424   0.214   1.112
  206SOL    HW1  625   1.476   0.149   1.167
  206SOL    HW2  626   1.375   0.277   1.173
  207SOL     OW  627   1.001   0.034   1.154
  207SOL    HW1  628   0.938  -0.038   1.123
  207SOL    HW2  629   1.094  -0.002   1.154
  208SOL     OW  630   0.770   1.330   0.301
  208SOL    HW1  631   0.724   1.243   0.318
  208SOL    HW2  632   0.861   1.327   0.342
  209SOL     OW  633   0.618   1.567   1.284
  209SOL    HW1  634   0.613   1.649   1.341
  209SOL    HW2  635   0.707   1.564   1.239
  210SOL     OW  636   1.352   0.052   0.168
  210SOL    HW1  637   1.387   0.011   0.084
  210SOL    HW2  638   1.262   0.014   0.188
  211SOL     OW  639   1.300   0.453   0.691
  211SOL    HW1  640   1.241   0.533   0.695
  211SOL    HW2  641   1.315   0.418   0.784
  212SOL     OW  642   1.593   0.221   0.882
  212SOL    HW1  643   1.509   0.220   0.936
  212SOL    HW2  644   1.595   0.304   0.826
  213SOL     OW  645   0.039   1.077   0.300
  213SOL    HW1  646   0.138   1.066   0.291
  213SOL    HW2  647  -0.001   0.991   0.332
  214SOL     OW  648   0.875   1.646   0.337
  214SOL    HW1  649   0.798   1.611   0.283
  214SOL    HW2  650   0.843   1.717   0.399
  215SOL     OW  651   0.230   0.628   1.975
  215SOL    HW1  652   0.137   0.626   2.012
  215SOL    HW2  653   0.231   0.589   1.883
  216SOL     OW  654   0.225   0.275   2.858
  216SOL    HW1  655   0.260   0.258   2.950
  216SOL    HW2  656   0.137   0.230   2.846
  217SOL     OW  657   0.019   0.368   2.509
  217SOL    HW1  658  -0.063   0.411   2.548
  217SOL    HW2  659  -0.009   0.295   2.446
  218SOL     OW  660   0.569   1.275   3.027
  218SOL    HW1  661   0.476   1.268   2.990
  218SOL    HW2  662   0.580   1.364   3.071
  219SOL     OW  663   1.555   1.511   2.565
  219SOL    HW1  664   1.498   1.495   2.646
  219SOL    HW2  665   1.496   1.521   2.485
  220SOL     OW  666   1.135   0.703   2.579
  220SOL    HW1  667   1.192   0.781   2.554
  220SOL    HW2  668   1.075   0.729   2.655
  221SOL     OW  669   1.755   0.607   2.093
  221SOL    HW1  670   1.743   0.594   1.994
  221SOL    HW2  671   1.725   0.526   2.142
  222SOL     OW  672   0.768   1.144   2.885
  222SOL    HW1  673   0.690   1.161   2.945
  222SOL    HW2  674   0.802   1.231   2.849
  223SOL     OW  675   0.850   0.798   3.685
  223SOL    HW1  676   0.846   0.874   3.750
  223SOL    HW2  677   0.872   0.834   3.594
  224SOL     OW  678   0.685   1.012   2.527
  224SOL    HW1  679   0.754   0.996   2.597
  224SOL    HW2  680   0.612   1.069   2.565
  225SOL     OW  681   0.686   1.161   3.665
  225SOL    HW1  682   0.746   1.240   3.679
  225SOL    HW2  683   0.600   1.192   3.624
  226SOL     OW  684   0.335   1.435   2.923
  226SOL    HW1  685   0.257   1.404   2.870
  226SOL    HW2  686   0.393   1.493   2.866
  227SOL     OW  687   1.460   1.505   3.201
  227SOL    HW1  688   1.484   1.599   3.227
  227SOL    HW2  689   1.444   1.451   3.283
  228SOL     OW  690   0.438   0.392   3.361
  228SOL    HW1  691   0.520   0.336   3.370
  228SOL    HW2  692   0.357   0.334   3.365
  229SOL     OW  693   1.603   0.447   2.599
  229SOL    HW1  694   1.529   0.493   2.549
  229SOL    HW2  695   1.654   0.515   2.652
  230SOL     OW  696   0.231   1.713   2.345
  230SOL    HW1  697   0.265   1.790   2.399
  230SOL    HW2  698   0.275   1.713   2.255
  231SOL     OW  699   1.127   1.341   3.552
  231SOL    HW1  700   1.174   1.341   3.640
  231SOL    HW2  701   1.079   1.254   3.541
  232SOL     OW  702   0.230   1.434   2.400
  232SOL    HW1  703   0.204   1.530   2.400
  232SOL    HW2  704   0.159   1.380   2.445
  233SOL     OW  705   0.240   1.091   2.748
  233SOL    HW1  706   0.254   1.007   2.800
  233SOL    HW2  707   0.185   1.155   2.803
  234SOL     OW  708   0.620   1.786   3.301
  234SOL    HW1  709   0.528   1.769   3.336
  234SOL    HW2  710   0.648   1.878   3.327
  235SOL     OW  711   0.606   0.964   1.985
  235SOL    HW1  712   0.613   1.048   1.931
  235SOL    HW2  713   0.652   0.977   2.073
  236SOL     OW  714   1.594   0.114   3.342
  236SOL    HW1  715   1.576   0.181   3.270
  236SOL    HW2  716   1.591   0.160   3.431
  237SOL     OW  717   0.122   0.643   2.425
  237SOL    HW1  718   0.077   0.555   2.442
  237SOL    HW2  719   0.121   0.697   2.509
  238SOL     OW  720   1.842   1.767   2.221
  238SOL    HW1  721   1.896   1.738   2.301
  238SOL    HW2  722   1.872   1.857   2.192
  239SOL     OW  723   0.027   1.596   1.979
  239SOL    HW1  724   0.008   1.500   2.000
  239SOL    HW2  725  -0.006   1.654   2.054
  240SOL     OW  726   1.689   0.922   2.474
  240SOL    HW1  727   1.784   0.893   2.482
  240SOL    HW2  728   1.681   0.987   2.399
  241SOL     OW  729   1.641   1.108   2.294
  241SOL    HW1  730   1.727   1.110   2.242
  241SOL    HW2  731   1.655   1.155   2.382
  242SOL     OW  732   0.113   0.737   3.459
  242SOL    HW1  733   0.201   0.724   3.504
  242SOL    HW2  734   0.100   0.834   3.437
  243SOL     OW  735   0.613   1.365   2.588
  243SOL    HW1  736   0.564   1.278   2.597
  243SOL    HW2  737   0.590   1.408   2.501
  244SOL     OW  738   1.293   1.228   3.285
  244SOL    HW1  739   1.330   1.155   3.227
  244SOL    HW2  740   1.345   1.233   3.370
  245SOL     OW  741   0.809   0.004   2.364
  245SOL    HW1  742   0.849   0.095   2.355
  245SOL    HW2  743   0.709   0.012   2.370
  246SOL     OW  744   0.197   0.976   3.126
  246SOL    HW1  745   0.286   0.931   3.112
  246SOL    HW2  746   0.124   0.911   3.107
  247SOL     OW  747   1.525   0.999   2.052
  247SOL    HW1  748   1.462   0.923   2.065
  247SOL    HW2  749   1.573   1.017   2.138
  248SOL     OW  750   1.187   1.792   3.478
  248SOL    HW1  751   1.211   1.852   3.402
  248SOL    HW2  752   1.194   1.697   3.448
  249SOL     OW  753   0.317   0.251   3.663
  249SOL    HW1  754   0.388   0.322   3.669
  249SOL    HW2  755   0.229   0.290   3.691
  250SOL     OW  756   1.466   1.417   2.815
  250SOL    HW1  757   1.407   1.423   2.895
  250SOL    HW2  758   1.451   1.329   2.769
  251SOL     OW  759   1.667   1.714   2.434
  251SOL    HW1  760   1.626   1.691   2.346
  251SOL    HW2  761   1.649   1.640   2.499
  252SOL     OW  762   0.598   0.729   2.132
  252SOL    HW1  763   0.622   0.798   2.064
  252SOL    HW2  764   0.520   0.762   2.186
  253SOL     OW  765   1.281   0.345   2.806
  253SOL    HW1  766   1.195   0.295   2.793
  253SOL    HW2  767   1.343   0.291   2.862
  254SOL     OW  768   1.576   1.662   2.169
  254SOL    HW1  769   1.665   1.708   2.172
  254SOL    HW2  770   1.555   1.638   2.074
  255SOL     OW  771   0.807   0.605   3.327
  255SOL    HW1  772   0.760   0.602   3.416
  255SOL    HW2  773   0.756   0.550   3.261
  256SOL     OW  774   1.394   0.469   3.536
  256SOL    HW1  775   1.374   0.512   3.624
  256SOL    HW2  776   1.472   0.407   3.545
  257SOL     OW  777   0.973   0.890   3.434
  257SOL    HW1  778   1.019   0.806   3.405
  257SOL    HW2  779   0.917   0.924   3.359
  258SOL     OW  780   0.991   0.410   3.104
  258SOL    HW1  781   0.914   0.444   3.158
  258SOL    HW2  782   0.957   0.359   3.025
  259SOL     OW  783   1.041   0.701   2.291
  259SOL    HW1  784   1.067   0.697   2.387
  259SOL    HW2  785   0.956   0.650   2.277
  260SOL     OW  786   0.076   0.811   2.651
  260SOL    HW1  787   0.175   0.799   2.660
  260SOL    HW2  788   0.052   0.906   2.672
  261SOL     OW  789   0.130   1.821   3.433
  261SOL    HW1  790   0.120   1.806   3.532
  261SOL    HW2  791   0.044   1.857   3.397
  262SOL     OW  792   0.865   0.348   2.057
  262SOL    HW1  793   0.924   0.411   2.008
  262SOL    HW2  794   0.884   0.254   2.028
  263SOL     OW  795   1.719   0.585   3.693
  263SOL    HW1  796   1.693   0.674   3.657
  263SOL    HW2  797   1.717   0.517   3.620
  264SOL     OW  798   1.362   1.144   2.407
  264SOL    HW1  799   1.445   1.115   2.359
  264SOL    HW2  800   1.313   1.211   2.351
  265SOL     OW  801   0.550   0.196   2.747
  265SOL    HW1  802   0.545   0.191   2.847
  265SOL    HW2  803   0.552   0.292   2.718
  266SOL     OW  804   1.008   1.456   2.339
  266SOL    HW1  805   0.962   1.528   2.287
  266SOL    HW2  806   1.004   1.476   2.437
  267SOL     OW  807   0.351   1.801   2.715
  267SOL    HW1  808   0.401   1.715   2.721
  267SOL    HW2  809   0.416   1.878   2.712
  268SOL     OW  810   1.795   1.066   2.735
  268SOL    HW1  811   1.733   1.051   2.659
  268SOL    HW2  812   1.743   1.077   2.820
  269SOL     OW  813   1.227   1.550   3.368
  269SOL    HW1  814   1.233   1.473   3.432
  269SOL    HW2  815   1.175   1.524   3.288
  270SOL     OW  816   0.321   0.943   2.104
  270SOL    HW1  817   0.403   0.982   2.062
  270SOL    HW2  818   0.294   0.861   2.055
  271SOL     OW  819   1.458   0.735   2.590
  271SOL    HW1  820   1.453   0.670   2.665
  271SOL    HW2  821   1.538   0.794   2.603
  272SOL     OW  822   0.461   1.266   3.589
  272SOL    HW1  823   0.411   1.267   3.503
  272SOL    HW2  824   0.398   1.248   3.665
  273SOL     OW  825   1.111   1.776   2.099
  273SOL    HW1  826   1.051   1.714   2.149
  273SOL    HW2  827   1.142   1.732   2.014
  274SOL     OW  828   0.202   0.285   3.360
  274SOL    HW1  829   0.122   0.345   3.347
  274SOL    HW2  830   0.192   0.236   3.446
  275SOL     OW  831   1.632   1.377   1.943
  275SOL    HW1  832   1.600   1.471   1.933
  275SOL    HW2  833   1.556   1.314   1.931
  276SOL     OW  834   0.464   1.743   2.185
  276SOL    HW1  835   0.497   1.782   2.271
  276SOL    HW2  836   0.540   1.736   2.120
  277SOL     OW  837   1.400   0.107   2.288
  277SOL    HW1  838   1.376   0.070   2.198
  277SOL    HW2  839   1.499   0.123   2.292
  278SOL     OW  840   0.249   1.785   3.103
  278SOL    HW1  841   0.306   1.720   3.153
  278SOL    HW2  842   0.233   1.752   3.010
  279SOL     OW  843   0.940   1.698   2.766
  279SOL    HW1  844   1.020   1.641   2.787
  279SOL    HW2  845   0.891   1.658   2.689
  280SOL     OW  846   0.382   0.700   2.342
  280SOL    HW1  847   0.427   0.610   2.339
  280SOL    HW2  848   0.288   0.689   2.375
  281SOL     OW  849   1.547   0.222   3.591
  281SOL    HW1  850   1.542   0.259   3.683
  281SOL    HW2  851   1.475   0.153   3.579
  282SOL     OW  852   0.614   0.122   1.979
  282SOL    HW1  853   0.712   0.100   1.986
  282SOL    HW2  854   0.583   0.105   1.886
  283SOL     OW  855   0.781   0.264   3.611
  283SOL    HW1  856   0.848   0.203   3.654
  283SOL    HW2  857   0.708   0.283   3.676
  284SOL     OW  858   0.888   1.514   3.057
  284SOL    HW1  859   0.865   1.489   2.963
  284SOL    HW2  860   0.949   1.445   3.096
  285SOL     OW  861   1.351   0.590   3.295
  285SOL    HW1  862   1.379   0.547   3.380
  285SOL    HW2  863   1.376   0.686   3.296
  286SOL     OW  864   0.803   1.402   2.786
  286SOL    HW1  865   0.893   1.416   2.744
  286SOL    HW2  866   0.732   1.404   2.715
  287SOL     OW  867   0.922   0.503   2.761
  287SOL    HW1  868   0.897   0.494   2.665
  287SOL    HW2  869   0.970   0.421   2.792
  288SOL     OW  870   0.539   0.064   2.374
  288SOL    HW1  871   0.458   0.065   2.432
  288SOL    HW2  872   0.542   0.147   2.319
  289SOL     OW  873   1.434   1.188   1.903
  289SOL    HW1  874   1.466   1.112   1.960
  289SOL    HW2  875   1.342   1.215   1.933
  290SOL     OW  876   0.297   0.035   2.033
  290SOL    HW1  877   0.346   0.119   2.012
  290SOL    HW2  878   0.359  -0.030   2.078
  291SOL     OW  879   0.935   0.236   2.342
  291SOL    HW1  880   0.887   0.277   2.264
  291SOL    HW2  881   1.034   0.234   2.323
  292SOL     OW  882   1.076   0.683   3.326
  292SOL    HW1  883   0.996   0.622   3.329
  292SOL    HW2  884   1.157   0.630   3.302
  293SOL     OW  885   1.227   1.570   2.655
  293SOL    HW1  886   1.248   1.644   2.590
  293SOL    HW2  887   1.295   1.570   2.728
  294SOL     OW  888   0.459   1.152   2.603
  294SOL    HW1  889   0.388   1.125   2.668
  294SOL    HW2  890   0.433   1.124   2.510
  295SOL     OW  891   1.271   1.797   2.453
  295SOL    HW1  892   1.315   1.861   2.389
  295SOL    HW2  893   1.221   1.849   2.523
  296SOL     OW  894   1.032   0.549   1.878
  296SOL    HW1  895   0.991   0.631   1.839
  296SOL    HW2  896   1.096   0.575   1.951
  297SOL     OW  897   0.078   0.556   3.248
  297SOL    HW1  898   0.170   0.555   3.207
  297SOL    HW2  899   0.072   0.630   3.315
  298SOL     OW  900   0.561   0.222   3.009
  298SOL    HW1  901   0.599   0.138   3.046
  298SOL    HW2  902   0.473   0.241   3.053
  299SOL     OW  903   0.866   0.454   2.504
  299SOL    HW1  904   0.834   0.526   2.442
  299SOL    HW2  905   0.890   0.373   2.451
  300SOL     OW  906   1.017   0.039   2.615
  300SOL    HW1  907   0.945   0.044   2.546
  300SOL    HW2  908   0.993  -0.030   2.684
  301SOL     OW  909   1.429   1.173   2.729
  301SOL    HW1  910   1.374   1.089   2.722
  301SOL    HW2  911   1.455   1.202   2.637
  302SOL     OW  912   1.466   0.590   2.854
  302SOL    HW1  913   1.436   0.495   2.861
  302SOL    HW2  914   1.539   0.606   2.920
  303SOL     OW  915   1.857   0.833   2.239
  303SOL    HW1  916   1.899   0.769   2.303
  303SOL    HW2  917   1.819   0.782   2.161
  304SOL     OW  918   0.488   1.385   2.036
  304SOL    HW1  919   0.401   1.370   2.083
  304SOL    HW2  920   0.471   1.411   1.941
  305SOL     OW  921   1.664   1.280   2.519
  305SOL    HW1  922   1.763   1.288   2.533
  305SOL    HW2  923   1.619   1.364   2.550
  306SOL     OW  924   1.390   0.575   1.940
  306SOL    HW1  925   1.336   0.554   2.021
  306SOL    HW2  926   1.481   0.534   1.949
  307SOL     OW  927   0.527   0.256   2.190
  307SOL    HW1  928   0.554   0.197   2.115
  307SOL    HW2  929   0.527   0.351   2.159
  308SOL     OW  930   1.754   1.223   3.450
  308SOL    HW1  931   1.845   1.184   3.437
  308SOL    HW2  932   1.762   1.319   3.474
  309SOL     OW  933   1.064   1.347   3.202
  309SOL    HW1  934   0.984   1.324   3.257
  309SOL    HW2  935   1.147   1.321   3.251
  310SOL     OW  936   1.592   1.629   3.487
  310SOL    HW1  937   1.619   1.663   3.397
  310SOL    HW2  938   1.671   1.591   3.533
  311SOL     OW  939   1.111   1.195   2.962
  311SOL    HW1  940   1.071   1.239   3.043
  311SOL    HW2  941   1.070   1.232   2.879
  312SOL     OW  942   1.638   1.099   2.941
  312SOL    HW1  943   1.643   1.180   3.000
  312SOL    HW2  944   1.552   1.101   2.890
  313SOL     OW  945   0.915   0.089   3.264
  313SOL    HW1  946   0.940   0.069   3.169
  313SOL    HW2  947   0.987   0.145   3.306
  314SOL     OW  948   0.980   1.116   3.581
  314SOL    HW1  949   0.881   1.122   3.591
  314SOL    HW2  950   1.003   1.036   3.525
  315SOL     OW  951   0.705   1.050   2.230
  315SOL    HW1  952   0.691   1.057   2.329
  315SOL    HW2  953   0.789   0.999   2.212
  316SOL     OW  954   0.410   0.813   3.113
  316SOL    HW1  955   0.496   0.825   3.163
  316SOL    HW2  956   0.368   0.726   3.140
  317SOL     OW  957   1.274   0.386   3.124
  317SOL    HW1  958   1.295   0.460   3.188
  317SOL    HW2  959   1.185   0.403   3.081
  318SOL     OW  960   0.064   1.564   3.193
  318SOL    HW1  961   0.018   1.646   3.159
  318SOL    HW2  962   0.162   1.583   3.202
  319SOL     OW  963   0.367   1.100   2.363
  319SOL    HW1  964   0.360   1.183   2.307
  319SOL    HW2  965   0.371   1.020   2.303
  320SOL     OW  966   0.566   0.537   2.727
  320SOL    HW1  967   0.578   0.603   2.653
  320SOL    HW2  968   0.612   0.571   2.810
  321SOL     OW  969   1.252   1.348   2.250
  321SOL    HW1  970   1.302   1.425   2.290
  321SOL    HW2  971   1.157   1.350   2.282
  322SOL     OW  972   1.272   1.445   3.004
  322SOL    HW1  973   1.319   1.458   3.091
  322SOL    HW2  974   1.206   1.371   3.013
  323SOL     OW  975   1.582   0.639   2.334
  323SOL    HW1  976   1.551   0.700   2.407
  323SOL    HW2  977   1.632   0.691   2.265
  324SOL     OW  978   0.354   1.510   3.191
  324SOL    HW1  979   0.333   1.466   3.104
  324SOL    HW2  980   0.451   1.536   3.194
  325SOL     OW  981   0.402   0.751   3.460
  325SOL    HW1  982   0.470   0.806   3.413
  325SOL    HW2  983   0.442   0.663   3.487
  326SOL     OW  984   1.587   0.779   3.532
  326SOL    HW1  985   1.495   0.817   3.527
  326SOL    HW2  986   1.647   0.826   3.467
  327SOL     OW  987   1.013   0.105   3.632
  327SOL    HW1  988   1.019   0.190   3.580
  327SOL    HW2  989   1.045   0.029   3.575
  328SOL     OW  990   0.504   0.050   3.602
  328SOL    HW1  991   0.462  -0.007   3.532
  328SOL    HW2  992   0.438   0.119   3.634
  329SOL     OW  993   0.573   0.870   2.891
  329SOL    HW1  994   0.617   0.959   2.882
  329SOL    HW2  995   0.510   0.870   2.968
  330SOL     OW  996   1.360   0.862   2.907
  330SOL    HW1  997   1.285   0.862   2.841
  330SOL    HW2  998   1.397   0.770   2.916
  331SOL     OW  999   1.209   0.525   2.137
  331SOL    HW1 1000   1.222   0.441   2.191
  331SOL    HW2 1001   1.180   0.599   2.197
  332SOL     OW 1002   0.307   0.213   3.093
  332SOL    HW1 1003   0.284   0.250   3.183
  332SOL    HW2 1004   0.277   0.118   3.087
  333SOL     OW 1005   0.037   1.310   3.144
  333SOL    HW1 1006   0.090   1.261   3.212
  333SOL    HW2 1007   0.059   1.408   3.149
  334SOL     OW 1008   0.732   0.634   2.926
  334SOL    HW1 1009   0.791   0.608   2.850
  334SOL    HW2 1010   0.704   0.730   2.915
  335SOL     OW 1011   1.728   0.935   3.716
  335SOL    HW1 1012   1.682   0.928   3.627
  335SOL    HW2 1013   1.666   0.979   3.782
  336SOL     OW 1014   0.307   0.063   2.480
  336SOL    HW1 1015   0.296   0.157   2.513
  336SOL    HW2 1016   0.302   0.000   2.557
  337SOL     OW 1017   1.622   0.367   2.236
  337SOL    HW1 1018   1.624   0.291   2.300
  337SOL    HW2 1019   1.574   0.444   2.276
  338SOL     OW 1020   1.023   0.766   2.828
  338SOL    HW1 1021   1.038   0.787   2.924
  338SOL    HW2 1022   0.993   0.671   2.819
  339SOL     OW 1023   0.980   1.573   3.562
  339SOL    HW1 1024   0.960   1.617   3.474
  339SOL    HW2 1025   1.019   1.482   3.546
  340SOL     OW 1026   1.859   1.518   3.467
  340SOL    HW1 1027   1.873   1.545   3.372
  340SOL    HW2 1028   1.942   1.540   3.520
  341SOL     OW 1029   0.350   0.898   3.666
  341SOL    HW1 1030   0.426   0.942   3.714
  341SOL    HW2 1031   0.385   0.851   3.584
  342SOL     OW 1032   1.540   0.274   1.987
  342SOL    HW1 1033   1.479   0.199   2.010
  342SOL    HW2 1034   1.562   0.326   2.070
  343SOL     OW 1035   1.303   0.838   1.904
  343SOL    HW1 1036   1.337   0.745   1.919
  343SOL    HW2 1037   1.321   0.865   1.809
  344SOL     OW 1038   1.068   1.333   2.711
  344SOL    HW1 1039   1.075   1.249   2.656
  344SOL    HW2 1040   1.130   1.402   2.675
  345SOL     OW 1041   0.319   0.810   2.811
  345SOL    HW1 1042   0.412   0.846   2.816
  345SOL    HW2 1043   0.313   0.725   2.863
  346SOL     OW 1044   0.339   0.509   2.868
  346SOL    HW1 1045   0.287   0.426   2.851
  346SOL    HW2 1046   0.416   0.514   2.804
  347SOL     OW 1047   1.138   0.380   3.540
  347SOL    HW1 1048   1.093   0.443   3.604
  347SOL    HW2 1049   1.231   0.411   3.523
  348SOL     OW 1050   1.160   0.207   3.339
  348SOL    HW1 1051   1.160   0.271   3.416
  348SOL    HW2 1052   1.188   0.255   3.256
  349SOL     OW 1053   0.008   1.326   2.062
  349SOL    HW1 1054  -0.085   1.347   2.031
  349SOL    HW2 1055   0.018   1.227   2.075
  350SOL     OW 1056   0.088   1.801   2.789
  350SOL    HW1 1057   0.046   1.715   2.762
  350SOL    HW2 1058   0.182   1.804   2.755
  351SOL     OW 1059   0.504   1.568   2.772
  351SOL    HW1 1060   0.570   1.642   2.781
  351SOL    HW2 1061   0.548   1.489   2.730
  352SOL     OW 1062   1.002   0.796   3.100
  352SOL    HW1 1063   1.043   0.764   3.186
  352SOL    HW2 1064   0.906   0.769   3.097
  353SOL     OW 1065   0.040   0.544   2.976
  353SOL    HW1 1066   0.125   0.511   2.935
  353SOL    HW2 1067   0.053   0.559   3.074
  354SOL     OW 1068   0.189   0.520   3.584
  354SOL    HW1 1069   0.248   0.480   3.514
  354SOL    HW2 1070   0.131   0.591   3.543
  355SOL     OW 1071   1.369   0.950   3.522
  355SOL    HW1 1072   1.408   1.039   3.542
  355SOL    HW2 1073   1.379   0.930   3.425
  356SOL     OW 1074   0.815   0.572   2.187
  356SOL    HW1 1075   0.822   0.483   2.141
  356SOL    HW2 1076   0.721   0.606   2.179
  357SOL     OW 1077   1.657   0.604   3.068
  357SOL    HW1 1078   1.619   0.535   3.130
  357SOL    HW2 1079   1.739   0.568   3.024
  358SOL     OW 1080   0.252   1.564   3.606
  358SOL    HW1 1081   0.222   1.621   3.682
  358SOL    HW2 1082   0.245   1.467   3.632
  359SOL     OW 1083   0.671   0.464   3.131
  359SOL    HW1 1084   0.637   0.375   3.101
  359SOL    HW2 1085   0.697   0.518   3.051
  360SOL     OW 1086   0.930   1.678   3.327
  360SOL    HW1 1087   0.906   1.660   3.232
  360SOL    HW2 1088   0.960   1.772   3.337
  361SOL     OW 1089   0.473   0.500   2.053
  361SOL    HW1 1090   0.534   0.580   2.057
  361SOL    HW2 1091   0.378   0.531   2.060
  362SOL     OW 1092   0.159   1.137   3.328
  362SOL    HW1 1093   0.181   1.076   3.404
  362SOL    HW2 1094   0.169   1.088   3.242
  363SOL     OW 1095   1.347   1.059   3.096
  363SOL    HW1 1096   1.371   0.996   3.022
  363SOL    HW2 1097   1.257   1.099   3.078
  364SOL     OW 1098   1.302   0.855   2.171
  364SOL    HW1 1099   1.216   0.824   2.213
  364SOL    HW2 1100   1.298   0.841   2.072
  365SOL     OW 1101   1.759   1.747   3.016
  365SOL    HW1 1102   1.820   1.777   2.943
  365SOL    HW2 1103   1.721   1.658   2.994
  366SOL     OW 1104   1.252   1.731   2.990
  366SOL    HW1 1105   1.336   1.736   2.936
  366SOL    HW2 1106   1.229   1.635   3.008
  367SOL     OW 1107   0.083   1.258   2.884
  367SOL    HW1 1108   0.078   1.257   2.984
  367SOL    HW2 1109   0.000   1.217   2.846
  368SOL     OW 1110   0.688   1.662   3.578
  368SOL    HW1 1111   0.632   1.743   3.587
  368SOL    HW2 1112   0.740   1.666   3.492
  369SOL     OW 1113   1.726   0.135   2.385
  369SOL    HW1 1114   1.799   0.118   2.318
  369SOL    HW2 1115   1.695   0.048   2.423
  370SOL     OW 1116   1.388   1.573   2.339
  370SOL    HW1 1117   1.455   1.585   2.265
  370SOL    HW2 1118   1.348   1.662   2.362
  371SOL     OW 1119   0.130   1.794   3.713
  371SOL    HW1 1120   0.089   1.720   3.766
  371SOL    HW2 1121   0.194   1.845   3.771
  372SOL     OW 1122   1.280   0.927   2.534
  372SOL    HW1 1123   1.340   0.846   2.536
  372SOL    HW2 1124   1.320   0.996   2.474
  373SOL     OW 1125   0.830   1.273   3.284
  373SOL    HW1 1126   0.825   1.306   3.379
  373SOL    HW2 1127   0.744   1.292   3.238
  374SOL     OW 1128   0.672   1.616   2.016
  374SOL    HW1 1129   0.681   1.626   1.917
  374SOL    HW2 1130   0.632   1.527   2.037
  375SOL     OW 1131   1.650   1.720   3.256
  375SOL    HW1 1132   1.703   1.730   3.172
  375SOL    HW2 1133   1.623   1.810   3.290
  376SOL     OW 1134   1.841   0.175   2.825
  376SOL    HW1 1135   1.880   0.090   2.789
  376SOL    HW2 1136   1.743   0.177   2.806
  377SOL     OW 1137   0.263   0.326   2.582
  377SOL    HW1 1138   0.184   0.377   2.548
  377SOL    HW2 1139   0.254   0.311   2.680
  378SOL     OW 1140   1.194   1.612   1.893
  378SOL    HW1 1141   1.200   1.519   1.930
  378SOL    HW2 1142   1.135   1.612   1.813
  379SOL     OW 1143   0.822   1.002   3.234
  379SOL    HW1 1144   0.862   1.001   3.142
  379SOL    HW2 1145   0.832   1.094   3.274
  380SOL     OW 1146   0.916   0.910   2.153
  380SOL    HW1 1147   0.979   0.948   2.085
  380SOL    HW2 1148   0.956   0.827   2.192
  381SOL     OW 1149   1.504   1.607   1.906
  381SOL    HW1 1150   1.412   1.644   1.913
  381SOL    HW2 1151   1.542   1.627   1.816
  382SOL     OW 1152   0.372   1.288   3.352
  382SOL    HW1 1153   0.359   1.381   3.318
  382SOL    HW2 1154   0.288   1.236   3.339
  383SOL     OW 1155   1.614   1.292   3.151
  383SOL    HW1 1156   1.674   1.295   3.231
  383SOL    HW2 1157   1.539   1.356   3.164
  384SOL     OW 1158   1.039   1.098   2.558
  384SOL    HW1 1159   0.969   1.051   2.612
  384SOL    HW2 1160   1.098   1.030   2.515
  385SOL     OW 1161   1.014   0.236   2.833
  385SOL    HW1 1162   1.006   0.200   2.740
  385SOL    HW2 1163   1.012   0.160   2.898
  386SOL     OW 1164   0.590   1.487   2.353
  386SOL    HW1 1165   0.632   1.429   2.283
  386SOL    HW2 1166   0.546   1.566   2.309
  387SOL     OW 1167   1.709   0.385   3.243
  387SOL    HW1 1168   1.782   0.454   3.247
  387SOL    HW2 1169   1.737   0.310   3.184
  388SOL     OW 1170   0.255   1.348   2.152
  388SOL    HW1 1171   0.159   1.349   2.125
  388SOL    HW2 1172   0.267   1.401   2.236
  389SOL     OW 1173   0.105   1.013   3.588
  389SOL    HW1 1174   0.028   0.980   3.642
  389SOL    HW2 1175   0.190   0.983   3.630
  390SOL     OW 1176   0.672   0.203   3.351
  390SOL    HW1 1177   0.762   0.187   3.311
  390SOL    HW2 1178   0.680   0.208   3.450
  391SOL     OW 1179   0.075   0.345   1.895
  391SOL    HW1 1180  -0.017   0.317   1.866
  391SOL    HW2 1181   0.106   0.422   1.839
  392SOL     OW 1182   1.440   0.856   3.260
  392SOL    HW1 1183   1.383   0.908   3.197
  392SOL    HW2 1184   1.536   0.868   3.236
  393SOL     OW 1185   0.072   0.166   2.180
  393SOL    HW1 1186   0.055   0.249   2.126
  393SOL    HW2 1187   0.162   0.129   2.158
  394SOL     OW 1188   1.183   1.335   1.981
  394SOL    HW1 1189   1.084   1.324   1.983
  394SOL    HW2 1190   1.217   1.350   2.074
  395SOL     OW 1191   0.613   0.842   3.293
  395SOL    HW1 1192   0.669   0.923   3.276
  395SOL    HW2 1193   0.672   0.762   3.296
  396SOL     OW 1194   1.493   1.767   2.821
  396SOL    HW1 1195   1.526   1.831   2.752
  396SOL    HW2 1196   1.559   1.761   2.896
  397SOL     OW 1197   0.716   0.565   3.570
  397SOL    HW1 1198   0.735   0.630   3.644
  397SOL    HW2 1199   0.776   0.485   3.579
  398SOL     OW 1200   1.450   1.220   3.495
  398SOL    HW1 1201   1.441   1.210   3.594
  398SOL    HW2 1202   1.546   1.213   3.469
  399SOL     OW 1203   0.390   1.741   3.422
  399SOL    HW1 1204   0.299   1.782   3.420
  399SOL    HW2 1205   0.383   1.647   3.454
  400SOL     OW 1206   1.674   0.883   3.116
  400SOL    HW1 1207   1.647   0.794   3.079
  400SOL    HW2 1208   1.675   0.951   3.043
  401SOL     OW 1209   1.225   0.325   2.311
  401SOL    HW1 1210   1.290   0.251   2.300
  401SOL    HW2 1211   1.245   0.375   2.395
  402SOL     OW 1212   0.594   0.745   2.514
  402SOL    HW1 1213   0.644   0.830   2.495
  402SOL    HW2 1214   0.506   0.747   2.466
  403SOL     OW 1215   1.777   0.342   3.504
  403SOL    HW1 1216   1.760   0.373   3.410
  403SOL    HW2 1217   1.693   0.305   3.542
  404SOL     OW 1218   1.730   0.934   3.379
  404SOL    HW1 1219   1.768   1.025   3.394
  404SOL    HW2 1220   1.722   0.917   3.280
  405SOL     OW 1221   0.859   1.374   1.878
  405SOL    HW1 1222   0.813   1.389   1.966
  405SOL    HW2 1223   0.903   1.459   1.848
  406SOL     OW 1224   0.661   1.790   2.815
  406SOL    HW1 1225   0.615   1.878   2.802
  406SOL    HW2 1226   0.760   1.802   2.808
  407SOL     OW 1227   0.859   0.956   2.723
  407SOL    HW1 1228   0.913   0.887   2.771
  407SOL    HW2 1229   0.827   1.025   2.789
  408SOL     OW 1230   1.083   0.984   1.949
  408SOL    HW1 1231   1.060   1.037   1.867
  408SOL    HW2 1232   1.164   0.928   1.930
  409SOL     OW 1233   1.861   1.569   2.713
  409SOL    HW1 1234   1.790   1.557   2.643
  409SOL    HW2 1235   1.862   1.490   2.773
  410SOL     OW 1236   0.221   1.314   3.706
  410SOL    HW1 1237   0.156   1.241   3.685
  410SOL    HW2 1238   0.225   1.328   3.804
  411SOL     OW 1239   0.079   1.240   2.515
  411SOL    HW1 1240   0.078   1.193   2.603
  411SOL    HW2 1241   0.161   1.212   2.464
  412SOL     OW 1242   0.672   1.391   3.486
  412SOL    HW1 1243   0.594   1.341   3.524
  412SOL    HW2 1244   0.669   1.486   3.517
  413SOL     OW 1245   1.824   0.192   3.089
  413SOL    HW1 1246   1.820   0.102   3.133
  413SOL    HW2 1247   1.827   0.181   2.990
  414SOL     OW 1248   0.428   0.424   2.382
  414SOL    HW1 1249   0.458   0.352   2.320
  414SOL    HW2 1250   0.389   0.384   2.465
  415SOL     OW 1251   1.705   1.487   2.966
  415SOL    HW1 1252   1.612   1.462   2.939
  415SOL    HW2 1253   1.731   1.437   3.048
  416SOL     OW 1254   0.317   0.547   3.142
  416SOL    HW1 1255   0.355   0.488   3.214
  416SOL    HW2 1256   0.357   0.521   3.054
  417SOL     OW 1257   0.812   1.586   2.549
  417SOL    HW1 1258   0.844   1.596   2.455
  417SOL    HW2 1259   0.733   1.524   2.551
  418SOL     OW 1260   1.424   0.214   2.974
  418SOL    HW1 1261   1.476   0.149   3.029
  418SOL    HW2 1262   1.375   0.277   3.035
  419SOL     OW 1263   1.001   0.034   3.016
  419SOL    HW1 1264   0.938  -0.038   2.985
  419SOL    HW2 1265   1.094  -0.002   3.016
  420SOL     OW 1266   0.770   1.330   2.163
  420SOL    HW1 1267   0.724   1.243   2.180
  420SOL    HW2 1268   0.861   1.327   2.204
  421SOL     OW 1269   0.618   1.567   3.146
  421SOL    HW1 1270   0.613   1.649   3.203
  421SOL    HW2 1271   0.707   1.564   3.101
  422SOL     OW 1272   1.352   0.052   2.030
  422SOL    HW1 1273   1.387   0.011   1.946
  422SOL    HW2 1274   1.262   0.014   2.050
  423SOL     OW 1275   1.300   0.453   2.553
  423SOL    HW1 1276   1.241   0.533   2.557
  423SOL    HW2 1277   1.315   0.418   2.646
  424SOL     OW 1278   1.593   0.221   2.744
  424SOL    HW1 1279   1.509   0.220   2.798
  424SOL    HW2 1280   1.595   0.304   2.688
  425SOL     OW 1281   0.039   1.077   2.162
  425SOL    HW1 1282   0.138   1.066   2.153
  425SOL    HW2 1283  -0.001   0.991   2.194
  426SOL     OW 1284   0.875   1.646   2.199
  426SOL    HW1 1285   0.798   1.611   2.145
  426SOL    HW2 1286   0.843   1.717   2.261
  427SOL     OW 1287   0.230   0.628   3.837
  427SOL    HW1 1288   0.137   0.626   3.874
  427SOL    HW2 1289   0.231   0.589   3.745
  428SOL     OW 1290   1.755   0.607   3.955
  428SOL    HW1 1291   1.743   0.594   3.856
  428SOL    HW2 1292   1.725   0.526   4.004
  429SOL     OW 1293   0.685   1.012   4.389
  429SOL    HW1 1294   0.754   0.996   4.459
  429SOL    HW2 1295   0.612   1.069   4.427
  430SOL     OW 1296   1.603   0.447   4.461
  430SOL    HW1 1297   1.529   0.493   4.411
  430SOL    HW2 1298   1.654   0.515   4.514
  431SOL     OW 1299   0.231   1.713   4.207
  431SOL    HW1 1300   0.265   1.790   4.261
  431SOL    HW2 1301   0.275   1.713   4.117
  432SOL     OW 1302   0.230   1.434   4.262
  432SOL    HW1 1303   0.204   1.530   4.262
  432SOL    HW2 1304   0.159   1.380   4.307
  433SOL     OW 1305   0.606   0.964   3.847
  433SOL    HW1 1306   0.613   1.048   3.793
  433SOL    HW2 1307   0.652   0.977   3.935
  434SOL     OW 1308   0.122   0.643   4.287
  434SOL    HW1 1309   0.077   0.555   4.304
  434SOL    HW2 1310   0.121   0.697   4.371
  435SOL     OW 1311   1.842   1.767   4.083
  435SOL    HW1 1312   1.896   1.738   4.163
  435SOL    HW2 1313   1.872   1.857   4.054
  436SOL     OW 1314   0.027   1.596   3.841
  436SOL    HW1 1315   0.008   1.500   3.862
  436SOL    HW2 1316  -0.006   1.654   3.916
  437SOL     OW 1317   1.689   0.922   4.336
  437SOL    HW1 1318   1.784   0.893   4.344
  437SOL    HW2 1319   1.681   0.987   4.261
  438SOL     OW 1320   1.641   1.108   4.156
  438SOL    HW1 1321   1.727   1.110   4.104
  438SOL    HW2 1322   1.655   1.155   4.244
  439SOL     OW 1323   0.613   1.365   4.450
  439SOL    HW1 1324   0.564   1.278   4.459
  439SOL    HW2 1325   0.590   1.408   4.363
  440SOL     OW 1326   0.809   0.004   4.226
  440SOL    HW1 1327   0.849   0.095   4.217
  440SOL    HW2 1328   0.709   0.012   4.232
  441SOL     OW 1329   1.525   0.999   3.914
  441SOL    HW1 1330   1.462   0.923   3.927
  441SOL    HW2 1331   1.573   1.017   4.000
  442SOL     OW 1332   1.667   1.714   4.296
  442SOL    HW1 1333   1.626   1.691   4.208
  442SOL    HW2 1334   1.649   1.640   4.361
  443SOL     OW 1335   0.598   0.729   3.994
  443SOL    HW1 1336   0.622   0.798   3.926
  443SOL    HW2 1337   0.520   0.762   4.048
  444SOL     OW 1338   1.281   0.345   4.668
  444SOL    HW1 1339   1.195   0.295   4.655
  444SOL    HW2 1340   1.343   0.291   4.724
  445SOL     OW 1341   1.576   1.662   4.031
  445SOL    HW1 1342   1.665   1.708   4.034
  445SOL    HW2 1343   1.555   1.638   3.936
  446SOL     OW 1344   1.041   0.701   4.153
  446SOL    HW1 1345   1.067   0.697   4.249
  446SOL    HW2 1346   0.956   0.650   4.139
  447SOL     OW 1347   0.076   0.811   4.513
  447SOL    HW1 1348   0.175   0.799   4.522
  447SOL    HW2 1349   0.052   0.906   4.534
  448SOL     OW 1350   0.865   0.348   3.919
  448SOL    HW1 1351   0.924   0.411   3.870
  448SOL    HW2 1352   0.884   0.254   3.890
  449SOL     OW 1353   1.362   1.144   4.269
  449SOL    HW1 1354   1.445   1.115   4.221
  449SOL    HW2 1355   1.313   1.211   4.213
  450SOL     OW 1356   1.008   1.456   4.201
  450SOL    HW1 1357   0.962   1.528   4.149
  450SOL    HW2 1358   1.004   1.476   4.299
  451SOL     OW 1359   0.351   1.801   4.577
  451SOL    HW1 1360   0.401   1.715   4.583
  451SOL    HW2 1361   0.416   1.878   4.574
  452SOL     OW 1362   1.795   1.066   4.597
  452SOL    HW1 1363   1.733   1.051   4.521
  452SOL    HW2 1364   1.743   1.077   4.682
  453SOL     OW 1365   0.321   0.943   3.966
  453SOL    HW1 1366   0.403   0.982   3.924
  453SOL    HW2 1367   0.294   0.861   3.917
  454SOL     OW 1368   1.111   1.776   3.961
  454SOL    HW1 1369   1.051   1.714   4.011
  454SOL    HW2 1370   1.142   1.732   3.876
  455SOL     OW 1371   1.632   1.377   3.805
  455SOL    HW1 1372   1.600   1.471   3.795
  455SOL    HW2 1373   1.556   1.314   3.793
  456SOL     OW 1374   0.464   1.743   4.047
  456SOL    HW1 1375   0.497   1.782   4.133
  456SOL    HW2 1376   0.540   1.736   3.982
  457SOL     OW 1377   1.400   0.107   4.150
  457SOL    HW1 1378   1.376   0.070   4.060
  457SOL    HW2 1379   1.499   0.123   4.154
  458SOL     OW 1380   0.940   1.698   4.628
  458SOL    HW1 1381   1.020   1.641   4.649
  458SOL    HW2 1382   0.891   1.658   4.551
  459SOL     OW 1383   0.382   0.700   4.204
  459SOL    HW1 1384   0.427   0.610   4.201
  459SOL    HW2 1385   0.288   0.689   4.237
  460SOL     OW 1386   0.614   0.122   3.841
  460SOL    HW1 1387   0.712   0.100   3.848
  460SOL    HW2 1388   0.583   0.105   3.748
  461SOL     OW 1389   0.539   0.064   4.236
  461SOL    HW1 1390   0.458   0.065   4.294
  461SOL    HW2 1391   0.542   0.147   4.181
  462SOL     OW 1392   1.434   1.188   3.765
  462SOL    HW1 1393   1.466   1.112   3.822
  462SOL    HW2 1394   1.342   1.215   3.795
  463SOL     OW 1395   0.297   0.035   3.895
  463SOL    HW1 1396   0.346   0.119   3.874
  463SOL    HW2 1397   0.359  -0.030   3.940
  464SOL     OW 1398   0.935   0.236   4.204
  464SOL    HW1 1399   0.887   0.277   4.126
  464SOL    HW2 1400   1.034   0.234   4.185
  465SOL     OW 1401   0.459   1.152   4.465
  465SOL    HW1 1402   0.388   1.125   4.530
  465SOL    HW2 1403   0.433   1.124   4.372
  466SOL     OW 1404   1.271   1.797   4.315
  466SOL    HW1 1405   1.315   1.861   4.251
  466SOL    HW2 1406   1.221   1.849   4.385
  467SOL     OW 1407   1.032   0.549   3.740
  467SOL    HW1 1408   0.991   0.631   3.701
  467SOL    HW2 1409   1.096   0.575   3.813
  468SOL     OW 1410   0.866   0.454   4.366
  468SOL    HW1 1411   0.834   0.526   4.304
  468SOL    HW2 1412   0.890   0.373   4.313
  469SOL     OW 1413   1.857   0.833   4.101
  469SOL    HW1 1414   1.899   0.769   4.165
  469SOL    HW2 1415   1.819   0.782   4.023
  470SOL     OW 1416   0.488   1.385   3.898
  470SOL    HW1 1417   0.401   1.370   3.945
  470SOL    HW2 1418   0.471   1.411   3.803
  471SOL     OW 1419   1.664   1.280   4.381
  471SOL    HW1 1420   1.763   1.288   4.395
  471SOL    HW2 1421   1.619   1.364   4.412
  472SOL     OW 1422   1.390   0.575   3.802
  472SOL    HW1 1423   1.336   0.554   3.883
  472SOL    HW2 1424   1.481   0.534   3.811
  473SOL     OW 1425   0.527   0.256   4.052
  473SOL    HW1 1426   0.554   0.197   3.977
  473SOL    HW2 1427   0.527   0.351   4.021
  474SOL     OW 1428   1.111   1.195   4.824
  474SOL    HW1 1429   1.071   1.239   4.905
  474SOL    HW2 1430   1.070   1.232   4.741
  475SOL     OW 1431   0.705   1.050   4.092
  475SOL    HW1 1432   0.691   1.057   4.191
  475SOL    HW2 1433   0.789   0.999   4.074
  476SOL     OW 1434   0.367   1.100   4.225
  476SOL    HW1 1435   0.360   1.183   4.169
  476SOL    HW2 1436   0.371   1.020   4.165
  477SOL     OW 1437   1.252   1.348   4.112
  477SOL    HW1 1438   1.302   1.425   4.152
  477SOL    HW2 1439   1.157   1.350   4.144
  478SOL     OW 1440   1.582   0.639   4.196
  478SOL    HW1 1441   1.551   0.700   4.269
  478SOL    HW2 1442   1.632   0.691   4.127
  479SOL     OW 1443   1.209   0.525   3.999
  479SOL    HW1 1444   1.222   0.441   4.053
  479SOL    HW2 1445   1.180   0.599   4.059
  480SOL     OW 1446   0.307   0.063   4.342
  480SOL    HW1 1447   0.296   0.157   4.375
  480SOL    HW2 1448   0.302   0.000   4.419
  481SOL     OW 1449   1.622   0.367   4.098
  481SOL    HW1 1450   1.624   0.291   4.162
  481SOL    HW2 1451   1.574   0.444   4.138
  482SOL     OW 1452   1.540   0.274   3.849
  482SOL    HW1 1453   1.479   0.199   3.872
  482SOL    HW2 1454   1.562   0.326   3.932
  483SOL     OW 1455   1.303   0.838   3.766
  483SOL    HW1 1456   1.337   0.745   3.781
  483SOL    HW2 1457   1.321   0.865   3.671
  484SOL     OW 1458   0.008   1.326   3.924
  484SOL    HW1 1459  -0.085   1.347   3.893
  484SOL    HW2 1460   0.018   1.227   3.937
  485SOL     OW 1461   0.815   0.572   4.049
  485SOL    HW1 1462   0.822   0.483   4.003
  485SOL    HW2 1463   0.721   0.606   4.041
  486SOL     OW 1464   0.473   0.500   3.915
  486SOL    HW1 1465   0.534   0.580   3.919
  486SOL    HW2 1466   0.378   0.531   3.922
  487SOL     OW 1467   1.302   0.855   4.033
  487SOL    HW1 1468   1.216   0.824   4.075
  487SOL    HW2 1469   1.298   0.841   3.934
  488SOL     OW 1470   1.726   0.135   4.247
  488SOL    HW1 1471   1.799   0.118   4.180
  488SOL    HW2 1472   1.695   0.048   4.285
  489SOL     OW 1473   1.388   1.573   4.201
  489SOL    HW1 1474   1.455   1.585   4.127
  489SOL    HW2 1475   1.348   1.662   4.224
  490SOL     OW 1476   0.672   1.616   3.878
  490SOL    HW1 1477   0.681   1.626   3.779
  490SOL    HW2 1478   0.632   1.527   3.899
  491SOL     OW 1479   1.841   0.175   4.687
  491SOL    HW1 1480   1.880   0.090   4.651
  491SOL    HW2 1481   1.743   0.177   4.668
  492SOL     OW 1482   1.194   1.612   3.755
  492SOL    HW1 1483   1.200   1.519   3.792
  492SOL    HW2 1484   1.135   1.612   3.675
  493SOL     OW 1485   0.916   0.910   4.015
  493SOL    HW1 1486   0.979   0.948   3.947
  493SOL    HW2 1487   0.956   0.827   4.054
  494SOL     OW 1488   1.504   1.607   3.768
  494SOL    HW1 1489   1.412   1.644   3.775
  494SOL    HW2 1490   1.542   1.627   3.678
  495SOL     OW 1491   0.590   1.487   4.215
  495SOL    HW1 1492   0.632   1.429   4.145
  495SOL    HW2 1493   0.546   1.566   4.171
  496SOL     OW 1494   0.255   1.348   4.014
  496SOL    HW1 1495   0.159   1.349   3.987
  496SOL    HW2 1496   0.267   1.401   4.098
  497SOL     OW 1497   0.075   0.345   3.757
  497SOL    HW1 1498  -0.017   0.317   3.728
  497SOL    HW2 1499   0.106   0.422   3.701
  498SOL     OW 1500   0.072   0.166   4.042
  498SOL    HW1 1501   0.055   0.249   3.988
  498SOL    HW2 1502   0.162   0.129   4.020
  499SOL     OW 1503   1.183   1.335   3.843
  499SOL    HW1 1504   1.084   1.324   3.845
  499SOL    HW2 1505   1.217   1.350   3.936
  500SOL     OW 1506   1.225   0.325   4.173
  500SOL    HW1 1507   1.290   0.251   4.162
  500SOL    HW2 1508   1.245   0.375   4.257
  501SOL     OW 1509   0.594   0.745   4.376
  501SOL    HW1 1510   0.644   0.830   4.357
  501SOL    HW2 1511   0.506   0.747   4.328
  502SOL     OW 1512   0.859   1.374   3.740
  502SOL    HW1 1513   0.813   1.389   3.828
  502SOL    HW2 1514   0.903   1.459   3.710
  503SOL     OW 1515   0.661   1.790   4.677
  503SOL    HW1 1516   0.615   1.878   4.664
  503SOL    HW2 1517   0.760   1.802   4.670
  504SOL     OW 1518   1.083   0.984   3.811
  504SOL    HW1 1519   1.060   1.037   3.729
  504SOL    HW2 1520   1.164   0.928   3.792
  505SOL     OW 1521   0.079   1.240   4.377
  505SOL    HW1 1522   0.078   1.193   4.465
  505SOL    HW2 1523   0.161   1.212   4.326
  506SOL     OW 1524   0.428   0.424   4.244
  506SOL    HW1 1525   0.458   0.352   4.182
  506SOL    HW2 1526   0.389   0.384   4.327
  507SOL     OW 1527   0.812   1.586   4.411
  507SOL    HW1 1528   0.844   1.596   4.317
  507SOL    HW2 1529   0.733   1.524   4.413
  508SOL     OW 1530   0.770   1.330   4.025
  508SOL    HW1 1531   0.724   1.243   4.042
  508SOL    HW2 1532   0.861   1.327   4.066
  509SOL     OW 1533   1.352   0.052   3.892
  509SOL    HW1 1534   1.387   0.011   3.808
  509SOL    HW2 1535   1.262   0.014   3.912
  510SOL     OW 1536   1.300   0.453   4.415
  510SOL    HW1 1537   1.241   0.533   4.419
  510SOL    HW2 1538   1.315   0.418   4.508
  511SOL     OW 1539   0.039   1.077   4.024
  511SOL    HW1 1540   0.138   1.066   4.015
  511SOL    HW2 1541  -0.001   0.991   4.056
  512SOL     OW 1542   0.875   1.646   4.061
  512SOL    HW1 1543   0.798   1.611   4.007
  512SOL    HW2 1544   0.843   1.717   4.123
  513SOL     OW 1545   0.230   2.490   0.113
  513SOL    HW1 1546   0.137   2.488   0.150
  513SOL    HW2 1547   0.231   2.451   0.021
  514SOL     OW 1548   0.225   2.137   0.996
  514SOL    HW1 1549   0.260   2.120   1.088
  514SOL    HW2 1550   0.137   2.092   0.984
  515SOL     OW 1551   0.019   2.230   0.647
  515SOL    HW1 1552  -0.063   2.273   0.686
  515SOL    HW2 1553  -0.009   2.157   0.584
  516SOL     OW 1554   0.569   3.137   1.165
  516SOL    HW1 1555   0.476   3.130   1.128
  516SOL    HW2 1556   0.580   3.226   1.209
  517SOL     OW 1557   1.555   3.373   0.703
  517SOL    HW1 1558   1.498   3.357   0.784
  517SOL    HW2 1559   1.496   3.383   0.623
  518SOL     OW 1560   1.135   2.565   0.717
  518SOL    HW1 1561   1.192   2.643   0.692
  518SOL    HW2 1562   1.075   2.591   0.793
  519SOL     OW 1563   1.755   2.469   0.231
  519SOL    HW1 1564   1.743   2.456   0.132
  519SOL    HW2 1565   1.725   2.388   0.280
  520SOL     OW 1566   0.768   3.006   1.023
  520SOL    HW1 1567   0.690   3.023   1.083
  520SOL    HW2 1568   0.802   3.093   0.987
  521SOL     OW 1569   0.850   2.660   1.823
  521SOL    HW1 1570   0.846   2.736   1.888
  521SOL    HW2 1571   0.872   2.696   1.732
  522SOL     OW 1572   0.685   2.874   0.665
  522SOL    HW1 1573   0.754   2.858   0.735
  522SOL    HW2 1574   0.612   2.931   0.703
  523SOL     OW 1575   0.686   3.023   1.803
  523SOL    HW1 1576   0.746   3.102   1.817
  523SOL    HW2 1577   0.600   3.054   1.762
  524SOL     OW 1578   0.335   3.297   1.061
  524SOL    HW1 1579   0.257   3.266   1.008
  524SOL    HW2 1580   0.393   3.355   1.004
  525SOL     OW 1581   1.460   3.367   1.339
  525SOL    HW1 1582   1.484   3.461   1.365
  525SOL    HW2 1583   1.444   3.313   1.421
  526SOL     OW 1584   0.438   2.254   1.499
  526SOL    HW1 1585   0.520   2.198   1.508
  526SOL    HW2 1586   0.357   2.196   1.503
  527SOL     OW 1587   1.603   2.309   0.737
  527SOL    HW1 1588   1.529   2.355   0.687
  527SOL    HW2 1589   1.654   2.377   0.790
  528SOL     OW 1590   0.231   3.575   0.483
  528SOL    HW1 1591   0.265   3.652   0.537
  528SOL    HW2 1592   0.275   3.575   0.393
  529SOL     OW 1593   1.127   3.203   1.690
  529SOL    HW1 1594   1.174   3.203   1.778
  529SOL    HW2 1595   1.079   3.116   1.679
  530SOL     OW 1596   0.230   3.296   0.538
  530SOL    HW1 1597   0.204   3.392   0.538
  530SOL    HW2 1598   0.159   3.242   0.583
  531SOL     OW 1599   0.240   2.953   0.886
  531SOL    HW1 1600   0.254   2.869   0.938
  531SOL    HW2 1601   0.185   3.017   0.941
  532SOL     OW 1602   0.620   3.648   1.439
  532SOL    HW1 1603   0.528   3.631   1.474
  532SOL    HW2 1604   0.648   3.740   1.465
  533SOL     OW 1605   0.606   2.826   0.123
  533SOL    HW1 1606   0.613   2.910   0.069
  533SOL    HW2 1607   0.652   2.839   0.211
  534SOL     OW 1608   1.594   1.976   1.480
  534SOL    HW1 1609   1.576   2.043   1.408
  534SOL    HW2 1610   1.591   2.022   1.569
  535SOL     OW 1611   0.122   2.505   0.563
  535SOL    HW1 1612   0.077   2.417   0.580
  535SOL    HW2 1613   0.121   2.559   0.647
  536SOL     OW 1614   1.842   3.629   0.359
  536SOL    HW1 1615   1.896   3.600   0.439
  536SOL    HW2 1616   1.872   3.719   0.330
  537SOL     OW 1617   0.027   3.458   0.117
  537SOL    HW1 1618   0.008   3.362   0.138
  537SOL    HW2 1619  -0.006   3.516   0.192
  538SOL     OW 1620   1.689   2.784   0.612
  538SOL    HW1 1621   1.784   2.755   0.620
  538SOL    HW2 1622   1.681   2.849   0.537
  539SOL     OW 1623   1.641   2.970   0.432
  539SOL    HW1 1624   1.727   2.972   0.380
  539SOL    HW2 1625   1.655   3.017   0.520
  540SOL     OW 1626   0.113   2.599   1.597
  540SOL    HW1 1627   0.201   2.586   1.642
  540SOL    HW2 1628   0.100   2.696   1.575
  541SOL     OW 1629   0.613   3.227   0.726
  541SOL    HW1 1630   0.564   3.140   0.735
  541SOL    HW2 1631   0.590   3.270   0.639
  542SOL     OW 1632   1.293   3.090   1.423
  542SOL    HW1 1633   1.330   3.017   1.365
  542SOL    HW2 1634   1.345   3.095   1.508
  543SOL     OW 1635   0.809   1.866   0.502
  543SOL    HW1 1636   0.849   1.957   0.493
  543SOL    HW2 1637   0.709   1.874   0.508
  544SOL     OW 1638   0.197   2.838   1.264
  544SOL    HW1 1639   0.286   2.793   1.250
  544SOL    HW2 1640   0.124   2.773   1.245
  545SOL     OW 1641   1.525   2.861   0.190
  545SOL    HW1 1642   1.462   2.785   0.203
  545SOL    HW2 1643   1.573   2.879   0.276
  546SOL     OW 1644   1.187   3.654   1.616
  546SOL    HW1 1645   1.211   3.714   1.540
  546SOL    HW2 1646   1.194   3.559   1.586
  547SOL     OW 1647   0.317   2.113   1.801
  547SOL    HW1 1648   0.388   2.184   1.807
  547SOL    HW2 1649   0.229   2.152   1.829
  548SOL     OW 1650   1.466   3.279   0.953
  548SOL    HW1 1651   1.407   3.285   1.033
  548SOL    HW2 1652   1.451   3.191   0.907
  549SOL     OW 1653   1.667   3.576   0.572
  549SOL    HW1 1654   1.626   3.553   0.484
  549SOL    HW2 1655   1.649   3.502   0.637
  550SOL     OW 1656   0.598   2.591   0.270
  550SOL    HW1 1657   0.622   2.660   0.202
  550SOL    HW2 1658   0.520   2.624   0.324
  551SOL     OW 1659   1.281   2.207   0.944
  551SOL    HW1 1660   1.195   2.157   0.931
  551SOL    HW2 1661   1.343   2.153   1.000
  552SOL     OW 1662   1.576   3.524   0.307
  552SOL    HW1 1663   1.665   3.570   0.310
  552SOL    HW2 1664   1.555   3.500   0.212
  553SOL     OW 1665   0.807   2.467   1.465
  553SOL    HW1 1666   0.760   2.464   1.554
  553SOL    HW2 1667   0.756   2.412   1.399
  554SOL     OW 1668   1.394   2.331   1.674
  554SOL    HW1 1669   1.374   2.374   1.762
  554SOL    HW2 1670   1.472   2.269   1.683
  555SOL     OW 1671   0.973   2.752   1.572
  555SOL    HW1 1672   1.019   2.668   1.543
  555SOL    HW2 1673   0.917   2.786   1.497
  556SOL     OW 1674   0.991   2.272   1.242
  556SOL    HW1 1675   0.914   2.306   1.296
  556SOL    HW2 1676   0.957   2.221   1.163
  557SOL     OW 1677   1.041   2.563   0.429
  557SOL    HW1 1678   1.067   2.559   0.525
  557SOL    HW2 1679   0.956   2.512   0.415
  558SOL     OW 1680   0.076   2.673   0.789
  558SOL    HW1 1681   0.175   2.661   0.798
  558SOL    HW2 1682   0.052   2.768   0.810
  559SOL     OW 1683   0.130   3.683   1.571
  559SOL    HW1 1684   0.120   3.668   1.670
  559SOL    HW2 1685   0.044   3.719   1.535
  560SOL     OW 1686   0.865   2.210   0.195
  560SOL    HW1 1687   0.924   2.273   0.146
  560SOL    HW2 1688   0.884   2.116   0.166
  561SOL     OW 1689   1.719   2.447   1.831
  561SOL    HW1 1690   1.693   2.536   1.795
  561SOL    HW2 1691   1.717   2.379   1.758
  562SOL     OW 1692   1.362   3.006   0.545
  562SOL    HW1 1693   1.445   2.977   0.497
  562SOL    HW2 1694   1.313   3.073   0.489
  563SOL     OW 1695   0.550   2.058   0.885
  563SOL    HW1 1696   0.545   2.053   0.985
  563SOL    HW2 1697   0.552   2.154   0.856
  564SOL     OW 1698   1.008   3.318   0.477
  564SOL    HW1 1699   0.962   3.390   0.425
  564SOL    HW2 1700   1.004   3.338   0.575
  565SOL     OW 1701   0.351   3.663   0.853
  565SOL    HW1 1702   0.401   3.577   0.859
  565SOL    HW2 1703   0.416   3.740   0.850
  566SOL     OW 1704   1.795   2.928   0.873
  566SOL    HW1 1705   1.733   2.913   0.797
  566SOL    HW2 1706   1.743   2.939   0.958
  567SOL     OW 1707   1.227   3.412   1.506
  567SOL    HW1 1708   1.233   3.335   1.570
  567SOL    HW2 1709   1.175   3.386   1.426
  568SOL     OW 1710   0.321   2.805   0.242
  568SOL    HW1 1711   0.403   2.844   0.200
  568SOL    HW2 1712   0.294   2.723   0.193
  569SOL     OW 1713   1.458   2.597   0.728
  569SOL    HW1 1714   1.453   2.532   0.803
  569SOL    HW2 1715   1.538   2.656   0.741
  570SOL     OW 1716   0.461   3.128   1.727
  570SOL    HW1 1717   0.411   3.129   1.641
  570SOL    HW2 1718   0.398   3.110   1.803
  571SOL     OW 1719   1.111   3.638   0.237
  571SOL    HW1 1720   1.051   3.576   0.287
  571SOL    HW2 1721   1.142   3.594   0.152
  572SOL     OW 1722   0.202   2.147   1.498
  572SOL    HW1 1723   0.122   2.207   1.485
  572SOL    HW2 1724   0.192   2.098   1.584
  573SOL     OW 1725   1.632   3.239   0.081
  573SOL    HW1 1726   1.600   3.333   0.071
  573SOL    HW2 1727   1.556   3.176   0.069
  574SOL     OW 1728   0.464   3.605   0.323
  574SOL    HW1 1729   0.497   3.644   0.409
  574SOL    HW2 1730   0.540   3.598   0.258
  575SOL     OW 1731   1.400   1.969   0.426
  575SOL    HW1 1732   1.376   1.932   0.336
  575SOL    HW2 1733   1.499   1.985   0.430
  576SOL     OW 1734   0.249   3.647   1.241
  576SOL    HW1 1735   0.306   3.582   1.291
  576SOL    HW2 1736   0.233   3.614   1.148
  577SOL     OW 1737   0.940   3.560   0.904
  577SOL    HW1 1738   1.020   3.503   0.925
  577SOL    HW2 1739   0.891   3.520   0.827
  578SOL     OW 1740   0.382   2.562   0.480
  578SOL    HW1 1741   0.427   2.472   0.477
  578SOL    HW2 1742   0.288   2.551   0.513
  579SOL     OW 1743   1.547   2.084   1.729
  579SOL    HW1 1744   1.542   2.121   1.821
  579SOL    HW2 1745   1.475   2.015   1.717
  580SOL     OW 1746   0.781   2.126   1.749
  580SOL    HW1 1747   0.848   2.065   1.792
  580SOL    HW2 1748   0.708   2.145   1.814
  581SOL     OW 1749   0.888   3.376   1.195
  581SOL    HW1 1750   0.865   3.351   1.101
  581SOL    HW2 1751   0.949   3.307   1.234
  582SOL     OW 1752   1.351   2.452   1.433
  582SOL    HW1 1753   1.379   2.409   1.518
  582SOL    HW2 1754   1.376   2.548   1.434
  583SOL     OW 1755   0.803   3.264   0.924
  583SOL    HW1 1756   0.893   3.278   0.882
  583SOL    HW2 1757   0.732   3.266   0.853
  584SOL     OW 1758   0.922   2.365   0.899
  584SOL    HW1 1759   0.897   2.356   0.803
  584SOL    HW2 1760   0.970   2.283   0.930
  585SOL     OW 1761   0.539   1.926   0.512
  585SOL    HW1 1762   0.458   1.927   0.570
  585SOL    HW2 1763   0.542   2.009   0.457
  586SOL     OW 1764   1.434   3.050   0.041
  586SOL    HW1 1765   1.466   2.974   0.098
  586SOL    HW2 1766   1.342   3.077   0.071
  587SOL     OW 1767   0.935   2.098   0.480
  587SOL    HW1 1768   0.887   2.139   0.402
  587SOL    HW2 1769   1.034   2.096   0.461
  588SOL     OW 1770   1.076   2.545   1.464
  588SOL    HW1 1771   0.996   2.484   1.467
  588SOL    HW2 1772   1.157   2.492   1.440
  589SOL     OW 1773   1.227   3.432   0.793
  589SOL    HW1 1774   1.248   3.506   0.728
  589SOL    HW2 1775   1.295   3.432   0.866
  590SOL     OW 1776   0.459   3.014   0.741
  590SOL    HW1 1777   0.388   2.987   0.806
  590SOL    HW2 1778   0.433   2.986   0.648
  591SOL     OW 1779   1.271   3.659   0.591
  591SOL    HW1 1780   1.315   3.723   0.527
  591SOL    HW2 1781   1.221   3.711   0.661
  592SOL     OW 1782   1.032   2.411   0.016
  592SOL    HW1 1783   0.991   2.493  -0.023
  592SOL    HW2 1784   1.096   2.437   0.089
  593SOL     OW 1785   0.078   2.418   1.386
  593SOL    HW1 1786   0.170   2.417   1.345
  593SOL    HW2 1787   0.072   2.492   1.453
  594SOL     OW 1788   0.561   2.084   1.147
  594SOL    HW1 1789   0.599   2.000   1.184
  594SOL    HW2 1790   0.473   2.103   1.191
  595SOL     OW 1791   0.866   2.316   0.642
  595SOL    HW1 1792   0.834   2.388   0.580
  595SOL    HW2 1793   0.890   2.235   0.589
  596SOL     OW 1794   1.017   1.901   0.753
  596SOL    HW1 1795   0.945   1.906   0.684
  596SOL    HW2 1796   0.993   1.832   0.822
  597SOL     OW 1797   1.429   3.035   0.867
  597SOL    HW1 1798   1.374   2.951   0.860
  597SOL    HW2 1799   1.455   3.064   0.775
  598SOL     OW 1800   1.466   2.452   0.992
  598SOL    HW1 1801   1.436   2.357   0.999
  598SOL    HW2 1802   1.539   2.468   1.058
  599SOL     OW 1803   1.857   2.695   0.377
  599SOL    HW1 1804   1.899   2.631   0.441
  599SOL    HW2 1805   1.819   2.644   0.299
  600SOL     OW 1806   0.488   3.247   0.174
  600SOL    HW1 1807   0.401   3.232   0.221
  600SOL    HW2 1808   0.471   3.273   0.079
  601SOL     OW 1809   1.664   3.142   0.657
  601SOL    HW1 1810   1.763   3.150   0.671
  601SOL    HW2 1811   1.619   3.226   0.688
  602SOL     OW 1812   1.390   2.437   0.078
  602SOL    HW1 1813   1.336   2.416   0.159
  602SOL    HW2 1814   1.481   2.396   0.087
  603SOL     OW 1815   0.527   2.118   0.328
  603SOL    HW1 1816   0.554   2.059   0.253
  603SOL    HW2 1817   0.527   2.213   0.297
  604SOL     OW 1818   1.754   3.085   1.588
  604SOL    HW1 1819   1.845   3.046   1.575
  604SOL    HW2 1820   1.762   3.181   1.612
  605SOL     OW 1821   1.064   3.209   1.340
  605SOL    HW1 1822   0.984   3.186   1.395
  605SOL    HW2 1823   1.147   3.183   1.389
  606SOL     OW 1824   1.592   3.491   1.625
  606SOL    HW1 1825   1.619   3.525   1.535
  606SOL    HW2 1826   1.671   3.453   1.671
  607SOL     OW 1827   1.111   3.057   1.100
  607SOL    HW1 1828   1.071   3.101   1.181
  607SOL    HW2 1829   1.070   3.094   1.017
  608SOL     OW 1830   1.638   2.961   1.079
  608SOL    HW1 1831   1.643   3.042   1.138
  608SOL    HW2 1832   1.552   2.963   1.028
  609SOL     OW 1833   0.915   1.951   1.402
  609SOL    HW1 1834   0.940   1.931   1.307
  609SOL    HW2 1835   0.987   2.007   1.444
  610SOL     OW 1836   0.980   2.978   1.719
  610SOL    HW1 1837   0.881   2.984   1.729
  610SOL    HW2 1838   1.003   2.898   1.663
  611SOL     OW 1839   0.705   2.912   0.368
  611SOL    HW1 1840   0.691   2.919   0.467
  611SOL    HW2 1841   0.789   2.861   0.350
  612SOL     OW 1842   0.410   2.675   1.251
  612SOL    HW1 1843   0.496   2.687   1.301
  612SOL    HW2 1844   0.368   2.588   1.278
  613SOL     OW 1845   1.274   2.248   1.262
  613SOL    HW1 1846   1.295   2.322   1.326
  613SOL    HW2 1847   1.185   2.265   1.219
  614SOL     OW 1848   0.064   3.426   1.331
  614SOL    HW1 1849   0.018   3.508   1.297
  614SOL    HW2 1850   0.162   3.445   1.340
  615SOL     OW 1851   0.367   2.962   0.501
  615SOL    HW1 1852   0.360   3.045   0.445
  615SOL    HW2 1853   0.371   2.882   0.441
  616SOL     OW 1854   0.566   2.399   0.865
  616SOL    HW1 1855   0.578   2.465   0.791
  616SOL    HW2 1856   0.612   2.433   0.948
  617SOL     OW 1857   1.252   3.210   0.388
  617SOL    HW1 1858   1.302   3.287   0.428
  617SOL    HW2 1859   1.157   3.212   0.420
  618SOL     OW 1860   1.272   3.307   1.142
  618SOL    HW1 1861   1.319   3.320   1.229
  618SOL    HW2 1862   1.206   3.233   1.151
  619SOL     OW 1863   1.582   2.501   0.472
  619SOL    HW1 1864   1.551   2.562   0.545
  619SOL    HW2 1865   1.632   2.553   0.403
  620SOL     OW 1866   0.354   3.372   1.329
  620SOL    HW1 1867   0.333   3.328   1.242
  620SOL    HW2 1868   0.451   3.398   1.332
  621SOL     OW 1869   0.402   2.613   1.598
  621SOL    HW1 1870   0.470   2.668   1.551
  621SOL    HW2 1871   0.442   2.525   1.625
  622SOL     OW 1872   1.587   2.641   1.670
  622SOL    HW1 1873   1.495   2.679   1.665
  622SOL    HW2 1874   1.647   2.688   1.605
  623SOL     OW 1875   1.013   1.967   1.770
  623SOL    HW1 1876   1.019   2.052   1.718
  623SOL    HW2 1877   1.045   1.891   1.713
  624SOL     OW 1878   0.504   1.912   1.740
  624SOL    HW1 1879   0.462   1.855   1.670
  624SOL    HW2 1880   0.438   1.981   1.772
  625SOL     OW 1881   0.573   2.732   1.029
  625SOL    HW1 1882   0.617   2.821   1.020
  625SOL    HW2 1883   0.510   2.732   1.106
  626SOL     OW 1884   1.360   2.724   1.045
  626SOL    HW1 1885   1.285   2.724   0.979
  626SOL    HW2 1886   1.397   2.632   1.054
  627SOL     OW 1887   1.209   2.387   0.275
  627SOL    HW1 1888   1.222   2.303   0.329
  627SOL    HW2 1889   1.180   2.461   0.335
  628SOL     OW 1890   0.307   2.075   1.231
  628SOL    HW1 1891   0.284   2.112   1.321
  628SOL    HW2 1892   0.277   1.980   1.225
  629SOL     OW 1893   0.037   3.172   1.282
  629SOL    HW1 1894   0.090   3.123   1.350
  629SOL    HW2 1895   0.059   3.270   1.287
  630SOL     OW 1896   0.732   2.496   1.064
  630SOL    HW1 1897   0.791   2.470   0.988
  630SOL    HW2 1898   0.704   2.592   1.053
  631SOL     OW 1899   1.728   2.797   1.854
  631SOL    HW1 1900   1.682   2.790   1.765
  631SOL    HW2 1901   1.666   2.841   1.920
  632SOL     OW 1902   0.307   1.925   0.618
  632SOL    HW1 1903   0.296   2.019   0.651
  632SOL    HW2 1904   0.302   1.862   0.695
  633SOL     OW 1905   1.622   2.229   0.374
  633SOL    HW1 1906   1.624   2.153   0.438
  633SOL    HW2 1907   1.574   2.306   0.414
  634SOL     OW 1908   1.023   2.628   0.966
  634SOL    HW1 1909   1.038   2.649   1.062
  634SOL    HW2 1910   0.993   2.533   0.957
  635SOL     OW 1911   0.980   3.435   1.700
  635SOL    HW1 1912   0.960   3.479   1.612
  635SOL    HW2 1913   1.019   3.344   1.684
  636SOL     OW 1914   1.859   3.380   1.605
  636SOL    HW1 1915   1.873   3.407   1.510
  636SOL    HW2 1916   1.942   3.402   1.658
  637SOL     OW 1917   0.350   2.760   1.804
  637SOL    HW1 1918   0.426   2.804   1.852
  637SOL    HW2 1919   0.385   2.713   1.722
  638SOL     OW 1920   1.540   2.136   0.125
  638SOL    HW1 1921   1.479   2.061   0.148
  638SOL    HW2 1922   1.562   2.188   0.208
  639SOL     OW 1923   1.303   2.700   0.042
  639SOL    HW1 1924   1.337   2.607   0.057
  639SOL    HW2 1925   1.321   2.727  -0.053
  640SOL     OW 1926   1.068   3.195   0.849
  640SOL    HW1 1927   1.075   3.111   0.794
  640SOL    HW2 1928   1.130   3.264   0.813
  641SOL     OW 1929   0.319   2.672   0.949
  641SOL    HW1 1930   0.412   2.708   0.954
  641SOL    HW2 1931   0.313   2.587   1.001
  642SOL     OW 1932   0.339   2.371   1.006
  642SOL    HW1 1933   0.287   2.288   0.989
  642SOL    HW2 1934   0.416   2.376   0.942
  643SOL     OW 1935   1.138   2.242   1.678
  643SOL    HW1 1936   1.093   2.305   1.742
  643SOL    HW2 1937   1.231   2.273   1.661
  644SOL     OW 1938   1.160   2.069   1.477
  644SOL    HW1 1939   1.160   2.133   1.554
  644SOL    HW2 1940   1.188   2.117   1.394
  645SOL     OW 1941   0.008   3.188   0.200
  645SOL    HW1 1942  -0.085   3.209   0.169
  645SOL    HW2 1943   0.018   3.089   0.213
  646SOL     OW 1944   0.088   3.663   0.927
  646SOL    HW1 1945   0.046   3.577   0.900
  646SOL    HW2 1946   0.182   3.666   0.893
  647SOL     OW 1947   0.504   3.430   0.910
  647SOL    HW1 1948   0.570   3.504   0.919
  647SOL    HW2 1949   0.548   3.351   0.868
  648SOL     OW 1950   1.002   2.658   1.238
  648SOL    HW1 1951   1.043   2.626   1.324
  648SOL    HW2 1952   0.906   2.631   1.235
  649SOL     OW 1953   0.040   2.406   1.114
  649SOL    HW1 1954   0.125   2.373   1.073
  649SOL    HW2 1955   0.053   2.421   1.212
  650SOL     OW 1956   0.189   2.382   1.722
  650SOL    HW1 1957   0.248   2.342   1.652
  650SOL    HW2 1958   0.131   2.453   1.681
  651SOL     OW 1959   1.369   2.812   1.660
  651SOL    HW1 1960   1.408   2.901   1.680
  651SOL    HW2 1961   1.379   2.792   1.563
  652SOL     OW 1962   0.815   2.434   0.325
  652SOL    HW1 1963   0.822   2.345   0.279
  652SOL    HW2 1964   0.721   2.468   0.317
  653SOL     OW 1965   1.657   2.466   1.206
  653SOL    HW1 1966   1.619   2.397   1.268
  653SOL    HW2 1967   1.739   2.430   1.162
  654SOL     OW 1968   0.252   3.426   1.744
  654SOL    HW1 1969   0.222   3.483   1.820
  654SOL    HW2 1970   0.245   3.329   1.770
  655SOL     OW 1971   0.671   2.326   1.269
  655SOL    HW1 1972   0.637   2.237   1.239
  655SOL    HW2 1973   0.697   2.380   1.189
  656SOL     OW 1974   0.930   3.540   1.465
  656SOL    HW1 1975   0.906   3.522   1.370
  656SOL    HW2 1976   0.960   3.634   1.475
  657SOL     OW 1977   0.473   2.362   0.191
  657SOL    HW1 1978   0.534   2.442   0.195
  657SOL    HW2 1979   0.378   2.393   0.198
  658SOL     OW 1980   0.159   2.999   1.466
  658SOL    HW1 1981   0.181   2.938   1.542
  658SOL    HW2 1982   0.169   2.950   1.380
  659SOL     OW 1983   1.347   2.921   1.234
  659SOL    HW1 1984   1.371   2.858   1.160
  659SOL    HW2 1985   1.257   2.961   1.216
  660SOL     OW 1986   1.302   2.717   0.309
  660SOL    HW1 1987   1.216   2.686   0.351
  660SOL    HW2 1988   1.298   2.703   0.210
  661SOL     OW 1989   1.759   3.609   1.154
  661SOL    HW1 1990   1.820   3.639   1.081
  661SOL    HW2 1991   1.721   3.520   1.132
  662SOL     OW 1992   1.252   3.593   1.128
  662SOL    HW1 1993   1.336   3.598   1.074
  662SOL    HW2 1994   1.229   3.497   1.146
  663SOL     OW 1995   0.083   3.120   1.022
  663SOL    HW1 1996   0.078   3.119   1.122
  663SOL    HW2 1997   0.000   3.079   0.984
  664SOL     OW 1998   0.688   3.524   1.716
  664SOL    HW1 1999   0.632   3.605   1.725
  664SOL    HW2 2000   0.740   3.528   1.630
  665SOL     OW 2001   0.903   1.948   0.133
  665SOL    HW1 2002   0.954   1.949   0.047
  665SOL    HW2 2003   0.959   1.906   0.204
  666SOL     OW 2004   1.726   1.997   0.523
  666SOL    HW1 2005   1.799   1.980   0.456
  666SOL    HW2 2006   1.695   1.910   0.561
  667SOL     OW 2007   1.388   3.435   0.477
  667SOL    HW1 2008   1.455   3.447   0.403
  667SOL    HW2 2009   1.348   3.524   0.500
  668SOL     OW 2010   0.130   3.656   1.851
  668SOL    HW1 2011   0.089   3.582   1.904
  668SOL    HW2 2012   0.194   3.707   1.909
  669SOL     OW 2013   1.280   2.789   0.672
  669SOL    HW1 2014   1.340   2.708   0.674
  669SOL    HW2 2015   1.320   2.858   0.612
  670SOL     OW 2016   0.830   3.135   1.422
  670SOL    HW1 2017   0.825   3.168   1.517
  670SOL    HW2 2018   0.744   3.154   1.376
  671SOL     OW 2019   0.672   3.478   0.154
  671SOL    HW1 2020   0.681   3.488   0.055
  671SOL    HW2 2021   0.632   3.389   0.175
  672SOL     OW 2022   1.650   3.582   1.394
  672SOL    HW1 2023   1.703   3.592   1.310
  672SOL    HW2 2024   1.623   3.672   1.428
  673SOL     OW 2025   1.841   2.037   0.963
  673SOL    HW1 2026   1.880   1.952   0.927
  673SOL    HW2 2027   1.743   2.039   0.944
  674SOL     OW 2028   0.263   2.188   0.720
  674SOL    HW1 2029   0.184   2.239   0.686
  674SOL    HW2 2030   0.254   2.173   0.818
  675SOL     OW 2031   1.194   3.474   0.031
  675SOL    HW1 2032   1.200   3.381   0.068
  675SOL    HW2 2033   1.135   3.474  -0.049
  676SOL     OW 2034   0.822   2.864   1.372
  676SOL    HW1 2035   0.862   2.863   1.280
  676SOL    HW2 2036   0.832   2.956   1.412
  677SOL     OW 2037   0.916   2.772   0.291
  677SOL    HW1 2038   0.979   2.810   0.223
  677SOL    HW2 2039   0.956   2.689   0.330
  678SOL     OW 2040   1.504   3.469   0.044
  678SOL    HW1 2041   1.412   3.506   0.051
  678SOL    HW2 2042   1.542   3.489  -0.046
  679SOL     OW 2043   0.372   3.150   1.490
  679SOL    HW1 2044   0.359   3.243   1.456
  679SOL    HW2 2045   0.288   3.098   1.477
  680SOL     OW 2046   1.614   3.154   1.289
  680SOL    HW1 2047   1.674   3.157   1.369
  680SOL    HW2 2048   1.539   3.218   1.302
  681SOL     OW 2049   1.039   2.960   0.696
  681SOL    HW1 2050   0.969   2.913   0.750
  681SOL    HW2 2051   1.098   2.892   0.653
  682SOL     OW 2052   1.014   2.098   0.971
  682SOL    HW1 2053   1.006   2.062   0.878
  682SOL    HW2 2054   1.012   2.022   1.036
  683SOL     OW 2055   0.590   3.349   0.491
  683SOL    HW1 2056   0.632   3.291   0.421
  683SOL    HW2 2057   0.546   3.428   0.447
  684SOL     OW 2058   1.709   2.247   1.381
  684SOL    HW1 2059   1.782   2.316   1.385
  684SOL    HW2 2060   1.737   2.172   1.322
  685SOL     OW 2061   0.255   3.210   0.290
  685SOL    HW1 2062   0.159   3.211   0.263
  685SOL    HW2 2063   0.267   3.263   0.374
  686SOL     OW 2064   0.105   2.875   1.726
  686SOL    HW1 2065   0.028   2.842   1.780
  686SOL    HW2 2066   0.190   2.845   1.768
  687SOL     OW 2067   0.672   2.065   1.489
  687SOL    HW1 2068   0.762   2.049   1.449
  687SOL    HW2 2069   0.680   2.070   1.588
  688SOL     OW 2070   0.075   2.207   0.033
  688SOL    HW1 2071  -0.017   2.179   0.004
  688SOL    HW2 2072   0.106   2.284  -0.023
  689SOL     OW 2073   1.440   2.718   1.398
  689SOL    HW1 2074   1.383   2.770   1.335
  689SOL    HW2 2075   1.536   2.730   1.374
  690SOL     OW 2076   0.072   2.028   0.318
  690SOL    HW1 2077   0.055   2.111   0.264
  690SOL    HW2 2078   0.162   1.991   0.296
  691SOL     OW 2079   1.183   3.197   0.119
  691SOL    HW1 2080   1.084   3.186   0.121
  691SOL    HW2 2081   1.217   3.212   0.212
  692SOL     OW 2082   0.613   2.704   1.431
  692SOL    HW1 2083   0.669   2.785   1.414
  692SOL    HW2 2084   0.672   2.624   1.434
  693SOL     OW 2085   1.493   3.629   0.959
  693SOL    HW1 2086   1.526   3.693   0.890
  693SOL    HW2 2087   1.559   3.623   1.034
  694SOL     OW 2088   0.716   2.427   1.708
  694SOL    HW1 2089   0.735   2.492   1.782
  694SOL    HW2 2090   0.776   2.347   1.717
  695SOL     OW 2091   1.450   3.082   1.633
  695SOL    HW1 2092   1.441   3.072   1.732
  695SOL    HW2 2093   1.546   3.075   1.607
  696SOL     OW 2094   0.390   3.603   1.560
  696SOL    HW1 2095   0.299   3.644   1.558
  696SOL    HW2 2096   0.383   3.509   1.592
  697SOL     OW 2097   1.674   2.745   1.254
  697SOL    HW1 2098   1.647   2.656   1.217
  697SOL    HW2 2099   1.675   2.813   1.181
  698SOL     OW 2100   1.225   2.187   0.449
  698SOL    HW1 2101   1.290   2.113   0.438
  698SOL    HW2 2102   1.245   2.237   0.533
  699SOL     OW 2103   0.594   2.607   0.652
  699SOL    HW1 2104   0.644   2.692   0.633
  699SOL    HW2 2105   0.506   2.609   0.604
  700SOL     OW 2106   1.777   2.204   1.642
  700SOL    HW1 2107   1.760   2.235   1.548
  700SOL    HW2 2108   1.693   2.167   1.680
  701SOL     OW 2109   1.730   2.796   1.517
  701SOL    HW1 2110   1.768   2.887   1.532
  701SOL    HW2 2111   1.722   2.779   1.418
  702SOL     OW 2112   0.859   3.236   0.016
  702SOL    HW1 2113   0.813   3.251   0.104
  702SOL    HW2 2114   0.903   3.321  -0.014
  703SOL     OW 2115   0.661   3.652   0.953
  703SOL    HW1 2116   0.615   3.740   0.940
  703SOL    HW2 2117   0.760   3.664   0.946
  704SOL     OW 2118   0.859   2.818   0.861
  704SOL    HW1 2119   0.913   2.749   0.909
  704SOL    HW2 2120   0.827   2.887   0.927
  705SOL     OW 2121   1.083   2.846   0.087
  705SOL    HW1 2122   1.060   2.899   0.005
  705SOL    HW2 2123   1.164   2.790   0.068
  706SOL     OW 2124   1.861   3.431   0.851
  706SOL    HW1 2125   1.790   3.419   0.781
  706SOL    HW2 2126   1.862   3.352   0.911
  707SOL     OW 2127   0.221   3.176   1.844
  707SOL    HW1 2128   0.156   3.103   1.823
  707SOL    HW2 2129   0.225   3.190   1.942
  708SOL     OW 2130   0.079   3.102   0.653
  708SOL    HW1 2131   0.078   3.055   0.741
  708SOL    HW2 2132   0.161   3.074   0.602
  709SOL     OW 2133   0.672   3.253   1.624
  709SOL    HW1 2134   0.594   3.203   1.662
  709SOL    HW2 2135   0.669   3.348   1.655
  710SOL     OW 2136   1.824   2.054   1.227
  710SOL    HW1 2137   1.820   1.964   1.271
  710SOL    HW2 2138   1.827   2.043   1.128
  711SOL     OW 2139   0.428   2.286   0.520
  711SOL    HW1 2140   0.458   2.214   0.458
  711SOL    HW2 2141   0.389   2.246   0.603
  712SOL     OW 2142   1.705   3.349   1.104
  712SOL    HW1 2143   1.612   3.324   1.077
  712SOL    HW2 2144   1.731   3.299   1.186
  713SOL     OW 2145   0.317   2.409   1.280
  713SOL    HW1 2146   0.355   2.350   1.352
  713SOL    HW2 2147   0.357   2.383   1.192
  714SOL     OW 2148   0.812   3.448   0.687
  714SOL    HW1 2149   0.844   3.458   0.593
  714SOL    HW2 2150   0.733   3.386   0.689
  715SOL     OW 2151   1.424   2.076   1.112
  715SOL    HW1 2152   1.476   2.011   1.167
  715SOL    HW2 2153   1.375   2.139   1.173
  716SOL     OW 2154   1.001   1.896   1.154
  716SOL    HW1 2155   0.938   1.824   1.123
  716SOL    HW2 2156   1.094   1.860   1.154
  717SOL     OW 2157   0.770   3.192   0.301
  717SOL    HW1 2158   0.724   3.105   0.318
  717SOL    HW2 2159   0.861   3.189   0.342
  718SOL     OW 2160   0.618   3.429   1.284
  718SOL    HW1 2161   0.613   3.511   1.341
  718SOL    HW2 2162   0.707   3.426   1.239
  719SOL     OW 2163   1.352   1.914   0.168
  719SOL    HW1 2164   1.387   1.873   0.084
  719SOL    HW2 2165   1.262   1.876   0.188
  720SOL     OW 2166   1.300   2.315   0.691
  720SOL    HW1 2167   1.241   2.395   0.695
  720SOL    HW2 2168   1.315   2.280   0.784
  721SOL     OW 2169   1.593   2.083   0.882
  721SOL    HW1 2170   1.509   2.082   0.936
  721SOL    HW2 2171   1.595   2.166   0.826
  722SOL     OW 2172   0.039   2.939   0.300
  722SOL    HW1 2173   0.138   2.928   0.291
  722SOL    HW2 2174  -0.001   2.853   0.332
  723SOL     OW 2175   0.875   3.508   0.337
  723SOL    HW1 2176   0.798   3.473   0.283
  723SOL    HW2 2177   0.843   3.579   0.399
  724SOL     OW 2178   0.230   2.490   1.975
  724SOL    HW1 2179   0.137   2.488   2.012
  724SOL    HW2 2180   0.231   2.451   1.883
  725SOL     OW 2181   0.225   2.137   2.858
  725SOL    HW1 2182   0.260   2.120   2.950
  725SOL    HW2 2183   0.137   2.092   2.846
  726SOL     OW 2184   0.019   2.230   2.509
  726SOL    HW1 2185  -0.063   2.273   2.548
  726SOL    HW2 2186  -0.009   2.157   2.446
  727SOL     OW 2187   0.569   3.137   3.027
  727SOL    HW1 2188   0.476   3.130   2.990
  727SOL    HW2 2189   0.580   3.226   3.071
  728SOL     OW 2190   1.555   3.373   2.565
  728SOL    HW1 2191   1.498   3.357   2.646
  728SOL    HW2 2192   1.496   3.383   2.485
  729SOL     OW 2193   1.135   2.565   2.579
  729SOL    HW1 2194   1.192   2.643   2.554
  729SOL    HW2 2195   1.075   2.591   2.655
  730SOL     OW 2196   1.755   2.469   2.093
  730SOL    HW1 2197   1.743   2.456   1.994
  730SOL    HW2 2198   1.725   2.388   2.142
  731SOL     OW 2199   0.768   3.006   2.885
  731SOL    HW1 2200   0.690   3.023   2.945
  731SOL    HW2 2201   0.802   3.093   2.849
  732SOL     OW 2202   0.850   2.660   3.685
  732SOL    HW1 2203   0.846   2.736   3.750
  732SOL    HW2 2204   0.872   2.696   3.594
  733SOL     OW 2205   0.685   2.874   2.527
  733SOL    HW1 2206   0.754   2.858   2.597
  733SOL    HW2 2207   0.612   2.931   2.565
  734SOL     OW 2208   0.686   3.023   3.665
  734SOL    HW1 2209   0.746   3.102   3.679
  734SOL    HW2 2210   0.600   3.054   3.624
  735SOL     OW 2211   0.335   3.297   2.923
  735SOL    HW1 2212   0.257   3.266   2.870
  735SOL    HW2 2213   0.393   3.355   2.866
  736SOL     OW 2214   1.460   3.367   3.201
  736SOL    HW1 2215   1.484   3.461   3.227
  736SOL    HW2 2216   1.444   3.313   3.283
  737SOL     OW 2217   0.438   2.254   3.361
  737SOL    HW1 2218   0.520   2.198   3.370
  737SOL    HW2 2219   0.357   2.196   3.365
  738SOL     OW 2220   1.603   2.309   2.599
  738SOL    HW1 2221   1.529   2.355   2.549
  738SOL    HW2 2222   1.654   2.377   2.652
  739SOL     OW 2223   0.231   3.575   2.345
  739SOL    HW1 2224   0.265   3.652   2.399
  739SOL    HW2 2225   0.275   3.575   2.255
  740SOL     OW 2226   1.127   3.203   3.552
  740SOL    HW1 2227   1.174   3.203   3.640
  740SOL    HW2 2228   1.079   3.116   3.541
  741SOL     OW 2229   0.230   3.296   2.400
  741SOL    HW1 2230   0.204   3.392   2.400
  741SOL    HW2 2231   0.159   3.242   2.445
  742SOL     OW 2232   0.240   2.953   2.748
  742SOL    HW1 2233   0.254   2.869   2.800
  742SOL    HW2 2234   0.185   3.017   2.803
  743SOL     OW 2235   0.620   3.648   3.301
  743SOL    HW1 2236   0.528   3.631   3.336
  743SOL    HW2 2237   0.648   3.740   3.327
  744SOL     OW 2238   0.606   2.826   1.985
  744SOL    HW1 2239   0.613   2.910   1.931
  744SOL    HW2 2240   0.652   2.839   2.073
  745SOL     OW 2241   1.594   1.976   3.342
  745SOL    HW1 2242   1.576   2.043   3.270
  745SOL    HW2 2243   1.591   2.022   3.431
  746SOL     OW 2244   0.122   2.505   2.425
  746SOL    HW1 2245   0.077   2.417   2.442
  746SOL    HW2 2246   0.121   2.559   2.509
  747SOL     OW 2247   1.842   3.629   2.221
  747SOL    HW1 2248   1.896   3.600   2.301
  747SOL    HW2 2249   1.872   3.719   2.192
  748SOL     OW 2250   0.027   3.458   1.979
  748SOL    HW1 2251   0.008   3.362   2.000
  748SOL    HW2 2252  -0.006   3.516   2.054
  749SOL     OW 2253   1.689   2.784   2.474
  749SOL    HW1 2254   1.784   2.755   2.482
  749SOL    HW2 2255   1.681   2.849   2.399
  750SOL     OW 2256   1.641   2.970   2.294
  750SOL    HW1 2257   1.727   2.972   2.242
  750SOL    HW2 2258   1.655   3.017   2.382
  751SOL     OW 2259   0.113   2.599   3.459
  751SOL    HW1 2260   0.201   2.586   3.504
  751SOL    HW2 2261   0.100   2.696   3.437
  752SOL     OW 2262   0.613   3.227   2.588
  752SOL    HW1 2263   0.564   3.140   2.597
  752SOL    HW2 2264   0.590   3.270   2.501
  753SOL     OW 2265   1.293   3.090   3.285
  753SOL    HW1 2266   1.330   3.017   3.227
  753SOL    HW2 2267   1.345   3.095   3.370
  754SOL     OW 2268   0.809   1.866   2.364
  754SOL    HW1 2269   0.849   1.957   2.355
  754SOL    HW2 2270   0.709   1.874   2.370
  755SOL     OW 2271   0.197   2.838   3.126
  755SOL    HW1 2272   0.286   2.793   3.112
  755SOL    HW2 2273   0.124   2.773   3.107
  756SOL     OW 2274   1.525   2.861   2.052
  756SOL    HW1 2275   1.462   2.785   2.065
  756SOL    HW2 2276   1.573   2.879   2.138
  757SOL     OW 2277   1.187   3.654   3.478
  757SOL    HW1 2278   1.211   3.714   3.402
  757SOL    HW2 2279   1.194   3.559   3.448
  758SOL     OW 2280   0.317   2.113   3.663
  758SOL    HW1 2281   0.388   2.184   3.669
  758SOL    HW2 2282   0.229   2.152   3.691
  759SOL     OW 2283   1.466   3.279   2.815
  759SOL    HW1 2284   1.407   3.285   2.895
  759SOL    HW2 2285   1.451   3.191   2.769
  760SOL     OW 2286   1.667   3.576   2.434
  760SOL    HW1 2287   1.626   3.553   2.346
  760SOL    HW2 2288   1.649   3.502   2.499
  761SOL     OW 2289   0.598   2.591   2.132
  761SOL    HW1 2290   0.622   2.660   2.064
  761SOL    HW2 2291   0.520   2.624   2.186
  762SOL     OW 2292   1.281   2.207   2.806
  762SOL    HW1 2293   1.195   2.157   2.793
  762SOL    HW2 2294   1.343   2.153   2.862
  763SOL     OW 2295   1.576   3.524   2.169
  763SOL    HW1 2296   1.665   3.570   2.172
  763SOL    HW2 2297   1.555   3.500   2.074
  764SOL     OW 2298   0.807   2.467   3.327
  764SOL    HW1 2299   0.760   2.464   3.416
  764SOL    HW2 2300   0.756   2.412   3.261
  765SOL     OW 2301   1.394   2.331   3.536
  765SOL    HW1 2302   1.374   2.374   3.624
  765SOL    HW2 2303   1.472   2.269   3.545
  766SOL     OW 2304   0.973   2.752   3.434
  766SOL    HW1 2305   1.019   2.668   3.405
  766SOL    HW2 2306   0.917   2.786   3.359
  767SOL     OW 2307   0.991   2.272   3.104
  767SOL    HW1 2308   0.914   2.306   3.158
  767SOL    HW2 2309   0.957   2.221   3.025
  768SOL     OW 2310   1.041   2.563   2.291
  768SOL    HW1 2311   1.067   2.559   2.387
  768SOL    HW2 2312   0.956   2.512   2.277
  769SOL     OW 2313   0.076   2.673   2.651
  769SOL    HW1 2314   0.175   2.661   2.660
  769SOL    HW2 2315   0.052   2.768   2.672
  770SOL     OW 2316   0.130   3.683   3.433
  770SOL    HW1 2317   0.120   3.668   3.532
  770SOL    HW2 2318   0.044   3.719   3.397
  771SOL     OW 2319   0.865   2.210   2.057
  771SOL    HW1 2320   0.924   2.273   2.008
  771SOL    HW2 2321   0.884   2.116   2.028
  772SOL     OW 2322   1.719   2.447   3.693
  772SOL    HW1 2323   1.693   2.536   3.657
  772SOL    HW2 2324   1.717   2.379   3.620
  773SOL     OW 2325   1.362   3.006   2.407
  773SOL    HW1 2326   1.445   2.977   2.359
  773SOL    HW2 2327   1.313   3.073   2.351
  774SOL     OW 2328   0.550   2.058   2.747
  774SOL    HW1 2329   0.545   2.053   2.847
  774SOL    HW2 2330   0.552   2.154   2.718
  775SOL     OW 2331   1.008   3.318   2.339
  775SOL    HW1 2332   0.962   3.390   2.287
  775SOL    HW2 2333   1.004   3.338   2.437
  776SOL     OW 2334   0.351   3.663   2.715
  776SOL    HW1 2335   0.401   3.577   2.721
  776SOL    HW2 2336   0.416   3.740   2.712
  777SOL     OW 2337   1.795   2.928   2.735
  777SOL    HW1 2338   1.733   2.913   2.659
  777SOL    HW2 2339   1.743   2.939   2.820
  778SOL     OW 2340   1.227   3.412   3.368
  778SOL    HW1 2341   1.233   3.335   3.432
  778SOL    HW2 2342   1.175   3.386   3.288
  779SOL     OW 2343   0.321   2.805   2.104
  779SOL    HW1 2344   0.403   2.844   2.062
  779SOL    HW2 2345   0.294   2.723   2.055
  780SOL     OW 2346   1.458   2.597   2.590
  780SOL    HW1 2347   1.453   2.532   2.665
  780SOL    HW2 2348   1.538   2.656   2.603
  781SOL     OW 2349   0.461   3.128   3.589
  781SOL    HW1 2350   0.411   3.129   3.503
  781SOL    HW2 2351   0.398   3.110   3.665
  782SOL     OW 2352   1.111   3.638   2.099
  782SOL    HW1 2353   1.051   3.576   2.149
  782SOL    HW2 2354   1.142   3.594   2.014
  783SOL     OW 2355   0.202   2.147   3.360
  783SOL    HW1 2356   0.122   2.207   3.347
  783SOL    HW2 2357   0.192   2.098   3.446
  784SOL     OW 2358   1.632   3.239   1.943
  784SOL    HW1 2359   1.600   3.333   1.933
  784SOL    HW2 2360   1.556   3.176   1.931
  785SOL     OW 2361   0.464   3.605   2.185
  785SOL    HW1 2362   0.497   3.644   2.271
  785SOL    HW2 2363   0.540   3.598   2.120
  786SOL     OW 2364   1.400   1.969   2.288
  786SOL    HW1 2365   1.376   1.932   2.198
  786SOL    HW2 2366   1.499   1.985   2.292
  787SOL     OW 2367   0.249   3.647   3.103
  787SOL    HW1 2368   0.306   3.582   3.153
  787SOL    HW2 2369   0.233   3.614   3.010
  788SOL     OW 2370   0.940   3.560   2.766
  788SOL    HW1 2371   1.020   3.503   2.787
  788SOL    HW2 2372   0.891   3.520   2.689
  789SOL     OW 2373   0.382   2.562   2.342
  789SOL    HW1 2374   0.427   2.472   2.339
  789SOL    HW2 2375   0.288   2.551   2.375
  790SOL     OW 2376   1.547   2.084   3.591
  790SOL    HW1 2377   1.542   2.121   3.683
  790SOL    HW2 2378   1.475   2.015   3.579
  791SOL     OW 2379   0.614   1.984   1.979
  791SOL    HW1 2380   0.712   1.962   1.986
  791SOL    HW2 2381   0.583   1.967   1.886
  792SOL     OW 2382   0.781   2.126   3.611
  792SOL    HW1 2383   0.848   2.065   3.654
  792SOL    HW2 2384   0.708   2.145   3.676
  793SOL     OW 2385   0.888   3.376   3.057
  793SOL    HW1 2386   0.865   3.351   2.963
  793SOL    HW2 2387   0.949   3.307   3.096
  794SOL     OW 2388   1.351   2.452   3.295
  794SOL    HW1 2389   1.379   2.409   3.380
  794SOL    HW2 2390   1.376   2.548   3.296
  795SOL     OW 2391   0.803   3.264   2.786
  795SOL    HW1 2392   0.893   3.278   2.744
  795SOL    HW2 2393   0.732   3.266   2.715
  796SOL     OW 2394   0.922   2.365   2.761
  796SOL    HW1 2395   0.897   2.356   2.665
  796SOL    HW2 2396   0.970   2.283   2.792
  797SOL     OW 2397   0.539   1.926   2.374
  797SOL    HW1 2398   0.458   1.927   2.432
  797SOL    HW2 2399   0.542   2.009   2.319
  798SOL     OW 2400   1.434   3.050   1.903
  798SOL    HW1 2401   1.466   2.974   1.960
  798SOL    HW2 2402   1.342   3.077   1.933
  799SOL     OW 2403   0.297   1.897   2.033
  799SOL    HW1 2404   0.346   1.981   2.012
  799SOL    HW2 2405   0.359   1.832   2.078
  800SOL     OW 2406   0.935   2.098   2.342
  800SOL    HW1 2407   0.887   2.139   2.264
  800SOL    HW2 2408   1.034   2.096   2.323
  801SOL     OW 2409   1.076   2.545   3.326
  801SOL    HW1 2410   0.996   2.484   3.329
  801SOL    HW2 2411   1.157   2.492   3.302
  802SOL     OW 2412   1.227   3.432   2.655
  802SOL    HW1 2413   1.248   3.506   2.590
  802SOL    HW2 2414   1.295   3.432   2.728
  803SOL     OW 2415   0.459   3.014   2.603
  803SOL    HW1 2416   0.388   2.987   2.668
  803SOL    HW2 2417   0.433   2.986   2.510
  804SOL     OW 2418   1.271   3.659   2.453
  804SOL    HW1 2419   1.315   3.723   2.389
  804SOL    HW2 2420   1.221   3.711   2.523
  805SOL     OW 2421   1.032   2.411   1.878
  805SOL    HW1 2422   0.991   2.493   1.839
  805SOL    HW2 2423   1.096   2.437   1.951
  806SOL     OW 2424   0.078   2.418   3.248
  806SOL    HW1 2425   0.170   2.417   3.207
  806SOL    HW2 2426   0.072   2.492   3.315
  807SOL     OW 2427   0.561   2.084   3.009
  807SOL    HW1 2428   0.599   2.000   3.046
  807SOL    HW2 2429   0.473   2.103   3.053
  808SOL     OW 2430   0.866   2.316   2.504
  808SOL    HW1 2431   0.834   2.388   2.442
  808SOL    HW2 2432   0.890   2.235   2.451
  809SOL     OW 2433   1.017   1.901   2.615
  809SOL    HW1 2434   0.945   1.906   2.546
  809SOL    HW2 2435   0.993   1.832   2.684
  810SOL     OW 2436   1.429   3.035   2.729
  810SOL    HW1 2437   1.374   2.951   2.722
  810SOL    HW2 2438   1.455   3.064   2.637
  811SOL     OW 2439   1.466   2.452   2.854
  811SOL    HW1 2440   1.436   2.357   2.861
  811SOL    HW2 2441   1.539   2.468   2.920
  812SOL     OW 2442   1.857   2.695   2.239
  812SOL    HW1 2443   1.899   2.631   2.303
  812SOL    HW2 2444   1.819   2.644   2.161
  813SOL     OW 2445   0.488   3.247   2.036
  813SOL    HW1 2446   0.401   3.232   2.083
  813SOL    HW2 2447   0.471   3.273   1.941
  814SOL     OW 2448   1.664   3.142   2.519
  814SOL    HW1 2449   1.763   3.150   2.533
  814SOL    HW2 2450   1.619   3.226   2.550
  815SOL     OW 2451   1.390   2.437   1.940
  815SOL    HW1 2452   1.336   2.416   2.021
  815SOL    HW2 2453   1.481   2.396   1.949
  816SOL     OW 2454   0.527   2.118   2.190
  816SOL    HW1 2455   0.554   2.059   2.115
  816SOL    HW2 2456   0.527   2.213   2.159
  817SOL     OW 2457   1.754   3.085   3.450
  817SOL    HW1 2458   1.845   3.046   3.437
  817SOL    HW2 2459   1.762   3.181   3.474
  818SOL     OW 2460   1.064   3.209   3.202
  818SOL    HW1 2461   0.984   3.186   3.257
  818SOL    HW2 2462   1.147   3.183   3.251
  819SOL     OW 2463   1.592   3.491   3.487
  819SOL    HW1 2464   1.619   3.525   3.397
  819SOL    HW2 2465   1.671   3.453   3.533
  820SOL     OW 2466   1.111   3.057   2.962
  820SOL    HW1 2467   1.071   3.101   3.043
  820SOL    HW2 2468   1.070   3.094   2.879
  821SOL     OW 2469   1.638   2.961   2.941
  821SOL    HW1 2470   1.643   3.042   3.000
  821SOL    HW2 2471   1.552   2.963   2.890
  822SOL     OW 2472   0.915   1.951   3.264
  822SOL    HW1 2473   0.940   1.931   3.169
  822SOL    HW2 2474   0.987   2.007   3.306
  823SOL     OW 2475   0.980   2.978   3.581
  823SOL    HW1 2476   0.881   2.984   3.591
  823SOL    HW2 2477   1.003   2.898   3.525
  824SOL     OW 2478   0.705   2.912   2.230
  824SOL    HW1 2479   0.691   2.919   2.329
  824SOL    HW2 2480   0.789   2.861   2.212
  825SOL     OW 2481   0.410   2.675   3.113
  825SOL    HW1 2482   0.496   2.687   3.163
  825SOL    HW2 2483   0.368   2.588   3.140
  826SOL     OW 2484   1.274   2.248   3.124
  826SOL    HW1 2485   1.295   2.322   3.188
  826SOL    HW2 2486   1.185   2.265   3.081
  827SOL     OW 2487   0.064   3.426   3.193
  827SOL    HW1 2488   0.018   3.508   3.159
  827SOL    HW2 2489   0.162   3.445   3.202
  828SOL     OW 2490   0.367   2.962   2.363
  828SOL    HW1 2491   0.360   3.045   2.307
  828SOL    HW2 2492   0.371   2.882   2.303
  829SOL     OW 2493   0.566   2.399   2.727
  829SOL    HW1 2494   0.578   2.465   2.653
  829SOL    HW2 2495   0.612   2.433   2.810
  830SOL     OW 2496   1.252   3.210   2.250
  830SOL    HW1 2497   1.302   3.287   2.290
  830SOL    HW2 2498   1.157   3.212   2.282
  831SOL     OW 2499   1.272   3.307   3.004
  831SOL    HW1 2500   1.319   3.320   3.091
  831SOL    HW2 2501   1.206   3.233   3.013
  832SOL     OW 2502   1.582   2.501   2.334
  832SOL    HW1 2503   1.551   2.562   2.407
  832SOL    HW2 2504   1.632   2.553   2.265
  833SOL     OW 2505   0.354   3.372   3.191
  833SOL    HW1 2506   0.333   3.328   3.104
  833SOL    HW2 2507   0.451   3.398   3.194
  834SOL     OW 2508   0.402   2.613   3.460
  834SOL    HW1 2509   0.470   2.668   3.413
  834SOL    HW2 2510   0.442   2.525   3.487
  835SOL     OW 2511   1.587   2.641   3.532
  835SOL    HW1 2512   1.495   2.679   3.527
  835SOL    HW2 2513   1.647   2.688   3.467
  836SOL     OW 2514   1.013   1.967   3.632
  836SOL    HW1 2515   1.019   2.052   3.580
  836SOL    HW2 2516   1.045   1.891   3.575
  837SOL     OW 2517   0.504   1.912   3.602
  837SOL    HW1 2518   0.462   1.855   3.532
  837SOL    HW2 2519   0.438   1.981   3.634
  838SOL     OW 2520   0.573   2.732   2.891
  838SOL    HW1 2521   0.617   2.821   2.882
  838SOL    HW2 2522   0.510   2.732   2.968
  839SOL     OW 2523   1.360   2.724   2.907
  839SOL    HW1 2524   1.285   2.724   2.841
  839SOL    HW2 2525   1.397   2.632   2.916
  840SOL     OW 2526   1.209   2.387   2.137
  840SOL    HW1 2527   1.222   2.303   2.191
  840SOL    HW2 2528   1.180   2.461   2.197
  841SOL     OW 2529   0.307   2.075   3.093
  841SOL    HW1 2530   0.284   2.112   3.183
  841SOL    HW2 2531   0.277   1.980   3.087
  842SOL     OW 2532   0.037   3.172   3.144
  842SOL    HW1 2533   0.090   3.123   3.212
  842SOL    HW2 2534   0.059   3.270   3.149
  843SOL     OW 2535   0.732   2.496   2.926
  843SOL    HW1 2536   0.791   2.470   2.850
  843SOL    HW2 2537   0.704   2.592   2.915
  844SOL     OW 2538   1.728   2.797   3.716
  844SOL    HW1 2539   1.682   2.790   3.627
  844SOL    HW2 2540   1.666   2.841   3.782
  845SOL     OW 2541   0.307   1.925   2.480
  845SOL    HW1 2542   0.296   2.019   2.513
  845SOL    HW2 2543   0.302   1.862   2.557
  846SOL     OW 2544   1.622   2.229   2.236
  846SOL    HW1 2545   1.624   2.153   2.300
  846SOL    HW2 2546   1.574   2.306   2.276
  847SOL     OW 2547   1.023   2.628   2.828
  847SOL    HW1 2548   1.038   2.649   2.924
  847SOL    HW2 2549   0.993   2.533   2.819
  848SOL     OW 2550   0.980   3.435   3.562
  848SOL    HW1 2551   0.960   3.479   3.474
  848SOL    HW2 2552   1.019   3.344   3.546
  849SOL     OW 2553   1.859   3.380   3.467
  849SOL    HW1 2554   1.873   3.407   3.372
  849SOL    HW2 2555   1.942   3.402   3.520
  850SOL     OW 2556   0.350   2.760   3.666
  850SOL    HW1 2557   0.426   2.804   3.714
  850SOL    HW2 2558   0.385   2.713   3.584
  851SOL     OW 2559   1.540   2.136   1.987
  851SOL    HW1 2560   1.479   2.061   2.010
  851SOL    HW2 2561   1.562   2.188   2.070
  852SOL     OW 2562   1.303   2.700   1.904
  852SOL    HW1 2563   1.337   2.607   1.919
  852SOL    HW2 2564   1.321   2.727   1.809
  853SOL     OW 2565   1.068   3.195   2.711
  853SOL    HW1 2566   1.075   3.111   2.656
  853SOL    HW2 2567   1.130   3.264   2.675
  854SOL     OW 2568   0.319   2.672   2.811
  854SOL    HW1 2569   0.412   2.708   2.816
  854SOL    HW2 2570   0.313   2.587   2.863
  855SOL     OW 2571   0.339   2.371   2.868
  855SOL    HW1 2572   0.287   2.288   2.851
  855SOL    HW2 2573   0.416   2.376   2.804
  856SOL     OW 2574   1.138   2.242   3.540
  856SOL    HW1 2575   1.093   2.305   3.604
  856SOL    HW2 2576   1.231   2.273   3.523
  857SOL     OW 2577   1.160   2.069   3.339
  857SOL    HW1 2578   1.160   2.133   3.416
  857SOL    HW2 2579   1.188   2.117   3.256
  858SOL     OW 2580   0.008   3.188   2.062
  858SOL    HW1 2581  -0.085   3.209   2.031
  858SOL    HW2 2582   0.018   3.089   2.075
  859SOL     OW 2583   0.088   3.663   2.789
  859SOL    HW1 2584   0.046   3.577   2.762
  859SOL    HW2 2585   0.182   3.666   2.755
  860SOL     OW 2586   0.504   3.430   2.772
  860SOL    HW1 2587   0.570   3.504   2.781
  860SOL    HW2 2588   0.548   3.351   2.730
  861SOL     OW 2589   1.002   2.658   3.100
  861SOL    HW1 2590   1.043   2.626   3.186
  861SOL    HW2 2591   0.906   2.631   3.097
  862SOL     OW 2592   0.040   2.406   2.976
  862SOL    HW1 2593   0.125   2.373   2.935
  862SOL    HW2 2594   0.053   2.421   3.074
  863SOL     OW 2595   0.189   2.382   3.584
  863SOL    HW1 2596   0.248   2.342   3.514
  863SOL    HW2 2597   0.131   2.453   3.543
  864SOL     OW 2598   1.369   2.812   3.522
  864SOL    HW1 2599   1.408   2.901   3.542
  864SOL    HW2 2600   1.379   2.792   3.425
  865SOL     OW 2601   0.815   2.434   2.187
  865SOL    HW1 2602   0.822   2.345   2.141
  865SOL    HW2 2603   0.721   2.468   2.179
  866SOL     OW 2604   1.657   2.466   3.068
  866SOL    HW1 2605   1.619   2.397   3.130
  866SOL    HW2 2606   1.739   2.430   3.024
  867SOL     OW 2607   0.252   3.426   3.606
  867SOL    HW1 2608   0.222   3.483   3.682
  867SOL    HW2 2609   0.245   3.329   3.632
  868SOL     OW 2610   0.671   2.326   3.131
  868SOL    HW1 2611   0.637   2.237   3.101
  868SOL    HW2 2612   0.697   2.380   3.051
  869SOL     OW 2613   0.930   3.540   3.327
  869SOL    HW1 2614   0.906   3.522   3.232
  869SOL    HW2 2615   0.960   3.634   3.337
  870SOL     OW 2616   0.473   2.362   2.053
  870SOL    HW1 2617   0.534   2.442   2.057
  870SOL    HW2 2618   0.378   2.393   2.060
  871SOL     OW 2619   0.159   2.999   3.328
  871SOL    HW1 2620   0.181   2.938   3.404
  871SOL    HW2 2621   0.169   2.950   3.242
  872SOL     OW 2622   1.347   2.921   3.096
  872SOL    HW1 2623   1.371   2.858   3.022
  872SOL    HW2 2624   1.257   2.961   3.078
  873SOL     OW 2625   1.302   2.717   2.171
  873SOL    HW1 2626   1.216   2.686   2.213
  873SOL    HW2 2627   1.298   2.703   2.072
  874SOL     OW 2628   1.759   3.609   3.016
  874SOL    HW1 2629   1.820   3.639   2.943
  874SOL    HW2 2630   1.721   3.520   2.994
  875SOL     OW 2631   1.252   3.593   2.990
  875SOL    HW1 2632   1.336   3.598   2.936
  875SOL    HW2 2633   1.229   3.497   3.008
  876SOL     OW 2634   0.083   3.120   2.884
  876SOL    HW1 2635   0.078   3.119   2.984
  876SOL    HW2 2636   0.000   3.079   2.846
  877SOL     OW 2637   0.688   3.524   3.578
  877SOL    HW1 2638   0.632   3.605   3.587
  877SOL    HW2 2639   0.740   3.528   3.492
  878SOL     OW 2640   1.726   1.997   2.385
  878SOL    HW1 2641   1.799   1.980   2.318
  878SOL    HW2 2642   1.695   1.910   2.423
  879SOL     OW 2643   1.388   3.435   2.339
  879SOL    HW1 2644   1.455   3.447   2.265
  879SOL    HW2 2645   1.348   3.524   2.362
  880SOL     OW 2646   0.130   3.656   3.713
  880SOL    HW1 2647   0.089   3.582   3.766
  880SOL    HW2 2648   0.194   3.707   3.771
  881SOL     OW 2649   1.280   2.789   2.534
  881SOL    HW1 2650   1.340   2.708   2.536
  881SOL    HW2 2651   1.320   2.858   2.474
  882SOL     OW 2652   0.830   3.135   3.284
  882SOL    HW1 2653   0.825   3.168   3.379
  882SOL    HW2 2654   0.744   3.154   3.238
  883SOL     OW 2655   0.672   3.478   2.016
  883SOL    HW1 2656   0.681   3.488   1.917
  883SOL    HW2 2657   0.632   3.389   2.037
  884SOL     OW 2658   1.650   3.582   3.256
  884SOL    HW1 2659   1.703   3.592   3.172
  884SOL    HW2 2660   1.623   3.672   3.290
  885SOL     OW 2661   1.841   2.037   2.825
  885SOL    HW1 2662   1.880   1.952   2.789
  885SOL    HW2 2663   1.743   2.039   2.806
  886SOL     OW 2664   0.263   2.188   2.582
  886SOL    HW1 2665   0.184   2.239   2.548
  886SOL    HW2 2666   0.254   2.173   2.680
  887SOL     OW 2667   1.194   3.474   1.893
  887SOL    HW1 2668   1.200   3.381   1.930
  887SOL    HW2 2669   1.135   3.474   1.813
  888SOL     OW 2670   0.822   2.864   3.234
  888SOL    HW1 2671   0.862   2.863   3.142
  888SOL    HW2 2672   0.832   2.956   3.274
  889SOL     OW 2673   0.916   2.772   2.153
  889SOL    HW1 2674   0.979   2.810   2.085
  889SOL    HW2 2675   0.956   2.689   2.192
  890SOL     OW 2676   1.504   3.469   1.906
  890SOL    HW1 2677   1.412   3.506   1.913
  890SOL    HW2 2678   1.542   3.489   1.816
  891SOL     OW 2679   0.372   3.150   3.352
  891SOL    HW1 2680   0.359   3.243   3.318
  891SOL    HW2 2681   0.288   3.098   3.339
  892SOL     OW 2682   1.614   3.154   3.151
  892SOL    HW1 2683   1.674   3.157   3.231
  892SOL    HW2 2684   1.539   3.218   3.164
  893SOL     OW 2685   1.039   2.960   2.558
  893SOL    HW1 2686   0.969   2.913   2.612
  893SOL    HW2 2687   1.098   2.892   2.515
  894SOL     OW 2688   1.014   2.098   2.833
  894SOL    HW1 2689   1.006   2.062   2.740
  894SOL    HW2 2690   1.012   2.022   2.898
  895SOL     OW 2691   0.590   3.349   2.353
  895SOL    HW1 2692   0.632   3.291   2.283
  895SOL    HW2 2693   0.546   3.428   2.309
  896SOL     OW 2694   1.709   2.247   3.243
  896SOL    HW1 2695   1.782   2.316   3.247
  896SOL    HW2 2696   1.737   2.172   3.184
  897SOL     OW 2697   0.255   3.210   2.152
  897SOL    HW1 2698   0.159   3.211   2.125
  897SOL    HW2 2699   0.267   3.263   2.236
  898SOL     OW 2700   0.105   2.875   3.588
  898SOL    HW1 2701   0.028   2.842   3.642
  898SOL    HW2 2702   0.190   2.845   3.630
  899SOL     OW 2703   0.672   2.065   3.351
  899SOL    HW1 2704   0.762   2.049   3.311
  899SOL    HW2 2705   0.680   2.070   3.450
  900SOL     OW 2706   0.075   2.207   1.895
  900SOL    HW1 2707  -0.017   2.179   1.866
  900SOL    HW2 2708   0.106   2.284   1.839
  901SOL     OW 2709   1.440   2.718   3.260
  901SOL    HW1 2710   1.383   2.770   3.197
  901SOL    HW2 2711   1.536   2.730   3.236
  902SOL     OW 2712   0.072   2.028   2.180
  902SOL    HW1 2713   0.055   2.111   2.126
  902SOL    HW2 2714   0.162   1.991   2.158
  903SOL     OW 2715   1.183   3.197   1.981
  903SOL    HW1 2716   1.084   3.186   1.983
  903SOL    HW2 2717   1.217   3.212   2.074
  904SOL     OW 2718   0.613   2.704   3.293
  904SOL    HW1 2719   0.669   2.785   3.276
  904SOL    HW2 2720   0.672   2.624   3.296
  905SOL     OW 2721   1.493   3.629   2.821
  905SOL    HW1 2722   1.526   3.693   2.752
  905SOL    HW2 2723   1.559   3.623   2.896
  906SOL     OW 2724   0.716   2.427   3.570
  906SOL    HW1 2725   0.735   2.492   3.644
  906SOL    HW2 2726   0.776   2.347   3.579
  907SOL     OW 2727   1.450   3.082   3.495
  907SOL    HW1 2728   1.441   3.072   3.594
  907SOL    HW2 2729   1.546   3.075   3.469
  908SOL     OW 2730   0.390   3.603   3.422
  908SOL    HW1 2731   0.299   3.644   3.420
  908SOL    HW2 2732   0.383   3.509   3.454
  909SOL     OW 2733   1.674   2.745   3.116
  909SOL    HW1 2734   1.647   2.656   3.079
  909SOL    HW2 2735   1.675   2.813   3.043
  910SOL     OW 2736   1.225   2.187   2.311
  910SOL    HW1 2737   1.290   2.113   2.300
  910SOL    HW2 2738   1.245   2.237   2.395
  911SOL     OW 2739   0.594   2.607   2.514
  911SOL    HW1 2740   0.644   2.692   2.495
  911SOL    HW2 2741   0.506   2.609   2.466
  912SOL     OW 2742   1.777   2.204   3.504
  912SOL    HW1 2743   1.760   2.235   3.410
  912SOL    HW2 2744   1.693   2.167   3.542
  913SOL     OW 2745   1.730   2.796   3.379
  913SOL    HW1 2746   1.768   2.887   3.394
  913SOL    HW2 2747   1.722   2.779   3.280
  914SOL     OW 2748   0.859   3.236   1.878
  914SOL    HW1 2749   0.813   3.251   1.966
  914SOL    HW2 2750   0.903   3.321   1.848
  915SOL     OW 2751   0.661   3.652   2.815
  915SOL    HW1 2752   0.615   3.740   2.802
  915SOL    HW2 2753   0.760   3.664   2.808
  916SOL     OW 2754   0.859   2.818   2.723
  916SOL    HW1 2755   0.913   2.749   2.771
  916SOL    HW2 2756   0.827   2.887   2.789
  917SOL     OW 2757   1.083   2.846   1.949
  917SOL    HW1 2758   1.060   2.899   1.867
  917SOL    HW2 2759   1.164   2.790   1.930
  918SOL     OW 2760   1.861   3.431   2.713
  918SOL    HW1 2761   1.790   3.419   2.643
  918SOL    HW2 2762   1.862   3.352   2.773
  919SOL     OW 2763   0.221   3.176   3.706
  919SOL    HW1 2764   0.156   3.103   3.685
  919SOL    HW2 2765   0.225   3.190   3.804
  920SOL     OW 2766   0.079   3.102   2.515
  920SOL    HW1 2767   0.078   3.055   2.603
  920SOL    HW2 2768   0.161   3.074   2.464
  921SOL     OW 2769   0.672   3.253   3.486
  921SOL    HW1 2770   0.594   3.203   3.524
  921SOL    HW2 2771   0.669   3.348   3.517
  922SOL     OW 2772   1.824   2.054   3.089
  922SOL    HW1 2773   1.820   1.964   3.133
  922SOL    HW2 2774   1.827   2.043   2.990
  923SOL     OW 2775   0.428   2.286   2.382
  923SOL    HW1 2776   0.458   2.214   2.320
  923SOL    HW2 2777   0.389   2.246   2.465
  924SOL     OW 2778   1.705   3.349   2.966
  924SOL    HW1 2779   1.612   3.324   2.939
  924SOL    HW2 2780   1.731   3.299   3.048
  925SOL     OW 2781   0.317   2.409   3.142
  925SOL    HW1 2782   0.355   2.350   3.214
  925SOL    HW2 2783   0.357   2.383   3.054
  926SOL     OW 2784   0.812   3.448   2.549
  926SOL    HW1 2785   0.844   3.458   2.455
  926SOL    HW2 2786   0.733   3.386   2.551
  927SOL     OW 2787   1.424   2.076   2.974
  927SOL    HW1 2788   1.476   2.011   3.029
  927SOL    HW2 2789   1.375   2.139   3.035
  928SOL     OW 2790   1.001   1.896   3.016
  928SOL    HW1 2791   0.938   1.824   2.985
  928SOL    HW2 2792   1.094   1.860   3.016
  929SOL     OW 2793   0.770   3.192   2.163
  929SOL    HW1 2794   0.724   3.105   2.180
  929SOL    HW2 2795   0.861   3.189   2.204
  930SOL     OW 2796   0.618   3.429   3.146
  930SOL    HW1 2797   0.613   3.511   3.203
  930SOL    HW2 2798   0.707   3.426   3.101
  931SOL     OW 2799   1.352   1.914   2.030
  931SOL    HW1 2800   1.387   1.873   1.946
  931SOL    HW2 2801   1.262   1.876   2.050
  932SOL     OW 2802   1.300   2.315   2.553
  932SOL    HW1 2803   1.241   2.395   2.557
  932SOL    HW2 2804   1.315   2.280   2.646
  933SOL     OW 2805   1.593   2.083   2.744
  933SOL    HW1 2806   1.509   2.082   2.798
  933SOL    HW2 2807   1.595   2.166   2.688
  934SOL     OW 2808   0.039   2.939   2.162
  934SOL    HW1 2809   0.138   2.928   2.153
  934SOL    HW2 2810  -0.001   2.853   2.194
  935SOL     OW 2811   0.875   3.508   2.199
  935SOL    HW1 2812   0.798   3.473   2.145
  935SOL    HW2 2813   0.843   3.579   2.261
  936SOL     OW 2814   0.230   2.490   3.837
  936SOL    HW1 2815   0.137   2.488   3.874
  936SOL    HW2 2816   0.231   2.451   3.745
  937SOL     OW 2817   1.755   2.469   3.955
  937SOL    HW1 2818   1.743   2.456   3.856
  937SOL    HW2 2819   1.725   2.388   4.004
  938SOL     OW 2820   0.685   2.874   4.389
  938SOL    HW1 2821   0.754   2.858   4.459
  938SOL    HW2 2822   0.612   2.931   4.427
  939SOL     OW 2823   1.603   2.309   4.461
  939SOL    HW1 2824   1.529   2.355   4.411
  939SOL    HW2 2825   1.654   2.377   4.514
  940SOL     OW 2826   0.231   3.575   4.207
  940SOL    HW1 2827   0.265   3.652   4.261
  940SOL    HW2 2828   0.275   3.575   4.117
  941SOL     OW 2829   0.230   3.296   4.262
  941SOL    HW1 2830   0.204   3.392   4.262
  941SOL    HW2 2831   0.159   3.242   4.307
  942SOL     OW 2832   0.606   2.826   3.847
  942SOL    HW1 2833   0.613   2.910   3.793
  942SOL    HW2 2834   0.652   2.839   3.935
  943SOL     OW 2835   0.122   2.505   4.287
  943SOL    HW1 2836   0.077   2.417   4.304
  943SOL    HW2 2837   0.121   2.559   4.371
  944SOL     OW 2838   1.842   3.629   4.083
  944SOL    HW1 2839   1.896   3.600   4.163
  944SOL    HW2 2840   1.872   3.719   4.054
  945SOL     OW 2841   0.027   3.458   3.841
  945SOL    HW1 2842   0.008   3.362   3.862
  945SOL    HW2 2843  -0.006   3.516   3.916
  946SOL     OW 2844   1.689   2.784   4.336
  946SOL    HW1 2845   1.784   2.755   4.344
  946SOL    HW2 2846   1.681   2.849   4.261
  947SOL     OW 2847   1.641   2.970   4.156
  947SOL    HW1 2848   1.727   2.972   4.104
  947SOL    HW2 2849   1.655   3.017   4.244
  948SOL     OW 2850   0.613   3.227   4.450
  948SOL    HW1 2851   0.564   3.140   4.459
  948SOL    HW2 2852   0.590   3.270   4.363
  949SOL     OW 2853   0.809   1.866   4.226
  949SOL    HW1 2854   0.849   1.957   4.217
  949SOL    HW2 2855   0.709   1.874   4.232
  950SOL     OW 2856   1.525   2.861   3.914
  950SOL    HW1 2857   1.462   2.785   3.927
  950SOL    HW2 2858   1.573   2.879   4.000
  951SOL     OW 2859   1.667   3.576   4.296
  951SOL    HW1 2860   1.626   3.553   4.208
  951SOL    HW2 2861   1.649   3.502   4.361
  952SOL     OW 2862   0.598   2.591   3.994
  952SOL    HW1 2863   0.622   2.660   3.926
  952SOL    HW2 2864   0.520   2.624   4.048
  953SOL     OW 2865   1.281   2.207   4.668
  953SOL    HW1 2866   1.195   2.157   4.655
  953SOL    HW2 2867   1.343   2.153   4.724
  954SOL     OW 2868   1.576   3.524   4.031
  954SOL    HW1 2869   1.665   3.570   4.034
  954SOL    HW2 2870   1.555   3.500   3.936
  955SOL     OW 2871   1.041   2.563   4.153
  955SOL    HW1 2872   1.067   2.559   4.249
  955SOL    HW2 2873   0.956   2.512   4.139
  956SOL     OW 2874   0.076   2.673   4.513
  956SOL    HW1 2875   0.175   2.661   4.522
  956SOL    HW2 2876   0.052   2.768   4.534
  957SOL     OW 2877   0.865   2.210   3.919
  957SOL    HW1 2878   0.924   2.273   3.870
  957SOL    HW2 2879   0.884   2.116   3.890
  958SOL     OW 2880   1.362   3.006   4.269
  958SOL    HW1 2881   1.445   2.977   4.221
  958SOL    HW2 2882   1.313   3.073   4.213
  959SOL     OW 2883   1.008   3.318   4.201
  959SOL    HW1 2884   0.962   3.390   4.149
  959SOL    HW2 2885   1.004   3.338   4.299
  960SOL     OW 2886   0.351   3.663   4.577
  960SOL    HW1 2887   0.401   3.577   4.583
  960SOL    HW2 2888   0.416   3.740   4.574
  961SOL     OW 2889   1.795   2.928   4.597
  961SOL    HW1 2890   1.733   2.913   4.521
  961SOL    HW2 2891   1.743   2.939   4.682
  962SOL     OW 2892   0.321   2.805   3.966
  962SOL    HW1 2893   0.403   2.844   3.924
  962SOL    HW2 2894   0.294   2.723   3.917
  963SOL     OW 2895   1.111   3.638   3.961
  963SOL    HW1 2896   1.051   3.576   4.011
  963SOL    HW2 2897   1.142   3.594   3.876
  964SOL     OW 2898   1.632   3.239   3.805
  964SOL    HW1 2899   1.600   3.333   3.795
  964SOL    HW2 2900   1.556   3.176   3.793
  965SOL     OW 2901   0.464   3.605   4.047
  965SOL    HW1 2902   0.497   3.644   4.133
  965SOL    HW2 2903   0.540   3.598   3.982
  966SOL     OW 2904   1.400   1.969   4.150
  966SOL    HW1 2905   1.376   1.932   4.060
  966SOL    HW2 2906   1.499   1.985   4.154
  967SOL     OW 2907   0.940   3.560   4.628
  967SOL    HW1 2908   1.020   3.503   4.649
  967SOL    HW2 2909   0.891   3.520   4.551
  968SOL     OW 2910   0.382   2.562   4.204
  968SOL    HW1 2911   0.427   2.472   4.201
  968SOL    HW2 2912   0.288   2.551   4.237
  969SOL     OW 2913   0.614   1.984   3.841
  969SOL    HW1 2914   0.712   1.962   3.848
  969SOL    HW2 2915   0.583   1.967   3.748
  970SOL     OW 2916   0.539   1.926   4.236
  970SOL    HW1 2917   0.458   1.927   4.294
  970SOL    HW2 2918   0.542   2.009   4.181
  971SOL     OW 2919   1.434   3.050   3.765
  971SOL    HW1 2920   1.466   2.974   3.822
  971SOL    HW2 2921   1.342   3.077   3.795
  972SOL     OW 2922   0.297   1.897   3.895
  972SOL    HW1 2923   0.346   1.981   3.874
  972SOL    HW2 2924   0.359   1.832   3.940
  973SOL     OW 2925   0.935   2.098   4.204
  973SOL    HW1 2926   0.887   2.139   4.126
  973SOL    HW2 2927   1.034   2.096   4.185
  974SOL     OW 2928   0.459   3.014   4.465
  974SOL    HW1 2929   0.388   2.987   4.530
  974SOL    HW2 2930   0.433   2.986   4.372
  975SOL     OW 2931   1.271   3.659   4.315
  975SOL    HW1 2932   1.315   3.723   4.251
  975SOL    HW2 2933   1.221   3.711   4.385
  976SOL     OW 2934   1.032   2.411   3.740
  976SOL    HW1 2935   0.991   2.493   3.701
  976SOL    HW2 2936   1.096   2.437   3.813
  977SOL     OW 2937   0.866   2.316   4.366
  977SOL    HW1 2938   0.834   2.388   4.304
  977SOL    HW2 2939   0.890   2.235   4.313
  978SOL     OW 2940   1.857   2.695   4.101
  978SOL    HW1 2941   1.899   2.631   4.165
  978SOL    HW2 2942   1.819   2.644   4.023
  979SOL     OW 2943   0.488   3.247   3.898
  979SOL    HW1 2944   0.401   3.232   3.945
  979SOL    HW2 2945   0.471   3.273   3.803
  980SOL     OW 2946   1.664   3.142   4.381
  980SOL    HW1 2947   1.763   3.150   4.395
  980SOL    HW2 2948   1.619   3.226   4.412
  981SOL     OW 2949   1.390   2.437   3.802
  981SOL    HW1 2950   1.336   2.416   3.883
  981SOL    HW2 2951   1.481   2.396   3.811
  982SOL     OW 2952   0.527   2.118   4.052
  982SOL    HW1 2953   0.554   2.059   3.977
  982SOL    HW2 2954   0.527   2.213   4.021
  983SOL     OW 2955   1.111   3.057   4.824
  983SOL    HW1 2956   1.071   3.101   4.905
  983SOL    HW2 2957   1.070   3.094   4.741
  984SOL     OW 2958   0.705   2.912   4.092
  984SOL    HW1 2959   0.691   2.919   4.191
  984SOL    HW2 2960   0.789   2.861   4.074
  985SOL     OW 2961   0.367   2.962   4.225
  985SOL    HW1 2962   0.360   3.045   4.169
  985SOL    HW2 2963   0.371   2.882   4.165
  986SOL     OW 2964   1.252   3.210   4.112
  986SOL    HW1 2965   1.302   3.287   4.152
  986SOL    HW2 2966   1.157   3.212   4.144
  987SOL     OW 2967   1.582   2.501   4.196
  987SOL    HW1 2968   1.551   2.562   4.269
  987SOL    HW2 2969   1.632   2.553   4.127
  988SOL     OW 2970   1.209   2.387   3.999
  988SOL    HW1 2971   1.222   2.303   4.053
  988SOL    HW2 2972   1.180   2.461   4.059
  989SOL     OW 2973   0.307   1.925   4.342
  989SOL    HW1 2974   0.296   2.019   4.375
  989SOL    HW2 2975   0.302   1.862   4.419
  990SOL     OW 2976   1.622   2.229   4.098
  990SOL    HW1 2977   1.624   2.153   4.162
  990SOL    HW2 2978   1.574   2.306   4.138
  991SOL     OW 2979   1.540   2.136   3.849
  991SOL    HW1 2980   1.479   2.061   3.872
  991SOL    HW2 2981   1.562   2.188   3.932
  992SOL     OW 2982   1.303   2.700   3.766
  992SOL    HW1 2983   1.337   2.607   3.781
  992SOL    HW2 2984   1.321   2.727   3.671
  993SOL     OW 2985   0.008   3.188   3.924
  993SOL    HW1 2986  -0.085   3.209   3.893
  993SOL    HW2 2987   0.018   3.089   3.937
  994SOL     OW 2988   0.815   2.434   4.049
  994SOL    HW1 2989   0.822   2.345   4.003
  994SOL    HW2 2990   0.721   2.468   4.041
  995SOL     OW 2991   0.473   2.362   3.915
  995SOL    HW1 2992   0.534   2.442   3.919
  995SOL    HW2 2993   0.378   2.393   3.922
  996SOL     OW 2994   1.302   2.717   4.033
  996SOL    HW1 2995   1.216   2.686   4.075
  996SOL    HW2 2996   1.298   2.703   3.934
  997SOL     OW 2997   1.726   1.997   4.247
  997SOL    HW1 2998   1.799   1.980   4.180
  997SOL    HW2 2999   1.695   1.910   4.285
  998SOL     OW 3000   1.388   3.435   4.201
  998SOL    HW1 3001   1.455   3.447   4.127
  998SOL    HW2 3002   1.348   3.524   4.224
  999SOL     OW 3003   0.672   3.478   3.878
  999SOL    HW1 3004   0.681   3.488   3.779
  999SOL    HW2 3005   0.632   3.389   3.899
 1000SOL     OW 3006   1.841   2.037   4.687
 1000SOL    HW1 3007   1.880   1.952   4.651
 1000SOL    HW2 3008   1.743   2.039   4.668
 1001SOL     OW 3009   1.194   3.474   3.755
 1001SOL    HW1 3010   1.200   3.381   3.792
 1001SOL    HW2 3011   1.135   3.474   3.675
 1002SOL     OW 3012   0.916   2.772   4.015
 1002SOL    HW1 3013   0.979   2.810   3.947
 1002SOL    HW2 3014   0.956   2.689   4.054
 1003SOL     OW 3015   1.504   3.469   3.768
 1003SOL    HW1 3016   1.412   3.506   3.775
 1003SOL    HW2 3017   1.542   3.489   3.678
 1004SOL     OW 3018   0.590   3.349   4.215
 1004SOL    HW1 3019   0.632   3.291   4.145
 1004SOL    HW2 3020   0.546   3.428   4.171
 1005SOL     OW 3021   0.255   3.210   4.014
 1005SOL    HW1 3022   0.159   3.211   3.987
 1005SOL    HW2 3023   0.267   3.263   4.098
 1006SOL     OW 3024   0.075   2.207   3.757
 1006SOL    HW1 3025  -0.017   2.179   3.728
 1006SOL    HW2 3026   0.106   2.284   3.701
 1007SOL     OW 3027   0.072   2.028   4.042
 1007SOL    HW1 3028   0.055   2.111   3.988
 1007SOL    HW2 3029   0.162   1.991   4.020
 1008SOL     OW 3030   1.183   3.197   3.843
 1008SOL    HW1 3031   1.084   3.186   3.845
 1008SOL    HW2 3032   1.217   3.212   3.936
 1009SOL     OW 3033   1.225   2.187   4.173
 1009SOL    HW1 3034   1.290   2.113   4.162
 1009SOL    HW2 3035   1.245   2.237   4.257
 1010SOL     OW 3036   0.594   2.607   4.376
 1010SOL    HW1 3037   0.644   2.692   4.357
 1010SOL    HW2 3038   0.506   2.609   4.328
 1011SOL     OW 3039   0.859   3.236   3.740
 1011SOL    HW1 3040   0.813   3.251   3.828
 1011SOL    HW2 3041   0.903   3.321   3.710
 1012SOL     OW 3042   0.661   3.652   4.677
 1012SOL    HW1 3043   0.615   3.740   4.664
 1012SOL    HW2 3044   0.760   3.664   4.670
 1013SOL     OW 3045   1.083   2.846   3.811
 1013SOL    HW1 3046   1.060   2.899   3.729
 1013SOL    HW2 3047   1.164   2.790   3.792
 1014SOL     OW 3048   0.079   3.102   4.377
 1014SOL    HW1 3049   0.078   3.055   4.465
 1014SOL    HW2 3050   0.161   3.074   4.326
 1015SOL     OW 3051   0.428   2.286   4.244
 1015SOL    HW1 3052   0.458   2.214   4.182
 1015SOL    HW2 3053   0.389   2.246   4.327
 1016SOL     OW 3054   0.812   3.448   4.411
 1016SOL    HW1 3055   0.844   3.458   4.317
 1016SOL    HW2 3056   0.733   3.386   4.413
 1017SOL     OW 3057   0.770   3.192   4.025
 1017SOL    HW1 3058   0.724   3.105   4.042
 1017SOL    HW2 3059   0.861   3.189   4.066
 1018SOL     OW 3060   1.352   1.914   3.892
 1018SOL    HW1 3061   1.387   1.873   3.808
 1018SOL    HW2 3062   1.262   1.876   3.912
 1019SOL     OW 3063   1.300   2.315   4.415
 1019SOL    HW1 3064   1.241   2.395   4.419
 1019SOL    HW2 3065   1.315   2.280   4.508
 1020SOL     OW 3066   0.039   2.939   4.024
 1020SOL    HW1 3067   0.138   2.928   4.015
 1020SOL    HW2 3068  -0.001   2.853   4.056
 1021SOL     OW 3069   0.875   3.508   4.061
 1021SOL    HW1 3070   0.798   3.473   4.007
 1021SOL    HW2 3071   0.843   3.579   4.123
 1022SOL     OW 3072   0.230   4.352   0.113
 1022SOL    HW1 3073   0.137   4.350   0.150
 1022SOL    HW2 3074   0.231   4.313   0.021
 1023SOL     OW 3075   0.225   3.999   0.996
 1023SOL    HW1 3076   0.260   3.982   1.088
 1023SOL    HW2 3077   0.137   3.954   0.984
 1024SOL     OW 3078   0.019   4.092   0.647
 1024SOL    HW1 3079  -0.063   4.135   0.686
 1024SOL    HW2 3080  -0.009   4.019   0.584
 1025SOL     OW 3081   1.755   4.331   0.231
 1025SOL    HW1 3082   1.743   4.318   0.132
 1025SOL    HW2 3083   1.725   4.250   0.280
 1026SOL     OW 3084   0.685   4.736   0.665
 1026SOL    HW1 3085   0.754   4.720   0.735
 1026SOL    HW2 3086   0.612   4.793   0.703
 1027SOL     OW 3087   0.438   4.116   1.499
 1027SOL    HW1 3088   0.520   4.060   1.508
 1027SOL    HW2 3089   0.357   4.058   1.503
 1028SOL     OW 3090   1.603   4.171   0.737
 1028SOL    HW1 3091   1.529   4.217   0.687
 1028SOL    HW2 3092   1.654   4.239   0.790
 1029SOL     OW 3093   1.594   3.838   1.480
 1029SOL    HW1 3094   1.576   3.905   1.408
 1029SOL    HW2 3095   1.591   3.884   1.569
 1030SOL     OW 3096   0.122   4.367   0.563
 1030SOL    HW1 3097   0.077   4.279   0.580
 1030SOL    HW2 3098   0.121   4.421   0.647
 1031SOL     OW 3099   0.113   4.461   1.597
 1031SOL    HW1 3100   0.201   4.448   1.642
 1031SOL    HW2 3101   0.100   4.558   1.575
 1032SOL     OW 3102   0.809   3.728   0.502
 1032SOL    HW1 3103   0.849   3.819   0.493
 1032SOL    HW2 3104   0.709   3.736   0.508
 1033SOL     OW 3105   0.317   3.975   1.801
 1033SOL    HW1 3106   0.388   4.046   1.807
 1033SOL    HW2 3107   0.229   4.014   1.829
 1034SOL     OW 3108   1.281   4.069   0.944
 1034SOL    HW1 3109   1.195   4.019   0.931
 1034SOL    HW2 3110   1.343   4.015   1.000
 1035SOL     OW 3111   0.807   4.329   1.465
 1035SOL    HW1 3112   0.760   4.326   1.554
 1035SOL    HW2 3113   0.756   4.274   1.399
 1036SOL     OW 3114   1.394   4.193   1.674
 1036SOL    HW1 3115   1.374   4.236   1.762
 1036SOL    HW2 3116   1.472   4.131   1.683
 1037SOL     OW 3117   0.991   4.134   1.242
 1037SOL    HW1 3118   0.914   4.168   1.296
 1037SOL    HW2 3119   0.957   4.083   1.163
 1038SOL     OW 3120   1.041   4.425   0.429
 1038SOL    HW1 3121   1.067   4.421   0.525
 1038SOL    HW2 3122   0.956   4.374   0.415
 1039SOL     OW 3123   0.076   4.535   0.789
 1039SOL    HW1 3124   0.175   4.523   0.798
 1039SOL    HW2 3125   0.052   4.630   0.810
 1040SOL     OW 3126   0.865   4.072   0.195
 1040SOL    HW1 3127   0.924   4.135   0.146
 1040SOL    HW2 3128   0.884   3.978   0.166
 1041SOL     OW 3129   1.719   4.309   1.831
 1041SOL    HW1 3130   1.693   4.398   1.795
 1041SOL    HW2 3131   1.717   4.241   1.758
 1042SOL     OW 3132   0.550   3.920   0.885
 1042SOL    HW1 3133   0.545   3.915   0.985
 1042SOL    HW2 3134   0.552   4.016   0.856
 1043SOL     OW 3135   1.458   4.459   0.728
 1043SOL    HW1 3136   1.453   4.394   0.803
 1043SOL    HW2 3137   1.538   4.518   0.741
 1044SOL     OW 3138   0.202   4.009   1.498
 1044SOL    HW1 3139   0.122   4.069   1.485
 1044SOL    HW2 3140   0.192   3.960   1.584
 1045SOL     OW 3141   1.400   3.831   0.426
 1045SOL    HW1 3142   1.376   3.794   0.336
 1045SOL    HW2 3143   1.499   3.847   0.430
 1046SOL     OW 3144   0.382   4.424   0.480
 1046SOL    HW1 3145   0.427   4.334   0.477
 1046SOL    HW2 3146   0.288   4.413   0.513
 1047SOL     OW 3147   1.547   3.946   1.729
 1047SOL    HW1 3148   1.542   3.983   1.821
 1047SOL    HW2 3149   1.475   3.877   1.717
 1048SOL     OW 3150   0.781   3.988   1.749
 1048SOL    HW1 3151   0.848   3.927   1.792
 1048SOL    HW2 3152   0.708   4.007   1.814
 1049SOL     OW 3153   1.351   4.314   1.433
 1049SOL    HW1 3154   1.379   4.271   1.518
 1049SOL    HW2 3155   1.376   4.410   1.434
 1050SOL     OW 3156   0.922   4.227   0.899
 1050SOL    HW1 3157   0.897   4.218   0.803
 1050SOL    HW2 3158   0.970   4.145   0.930
 1051SOL     OW 3159   0.539   3.788   0.512
 1051SOL    HW1 3160   0.458   3.789   0.570
 1051SOL    HW2 3161   0.542   3.871   0.457
 1052SOL     OW 3162   0.935   3.960   0.480
 1052SOL    HW1 3163   0.887   4.001   0.402
 1052SOL    HW2 3164   1.034   3.958   0.461
 1053SOL     OW 3165   1.076   4.407   1.464
 1053SOL    HW1 3166   0.996   4.346   1.467
 1053SOL    HW2 3167   1.157   4.354   1.440
 1054SOL     OW 3168   1.032   4.273   0.016
 1054SOL    HW1 3169   0.991   4.355  -0.023
 1054SOL    HW2 3170   1.096   4.299   0.089
 1055SOL     OW 3171   0.078   4.280   1.386
 1055SOL    HW1 3172   0.170   4.279   1.345
 1055SOL    HW2 3173   0.072   4.354   1.453
 1056SOL     OW 3174   0.561   3.946   1.147
 1056SOL    HW1 3175   0.599   3.862   1.184
 1056SOL    HW2 3176   0.473   3.965   1.191
 1057SOL     OW 3177   0.866   4.178   0.642
 1057SOL    HW1 3178   0.834   4.250   0.580
 1057SOL    HW2 3179   0.890   4.097   0.589
 1058SOL     OW 3180   1.017   3.763   0.753
 1058SOL    HW1 3181   0.945   3.768   0.684
 1058SOL    HW2 3182   0.993   3.694   0.822
 1059SOL     OW 3183   1.466   4.314   0.992
 1059SOL    HW1 3184   1.436   4.219   0.999
 1059SOL    HW2 3185   1.539   4.330   1.058
 1060SOL     OW 3186   1.390   4.299   0.078
 1060SOL    HW1 3187   1.336   4.278   0.159
 1060SOL    HW2 3188   1.481   4.258   0.087
 1061SOL     OW 3189   0.527   3.980   0.328
 1061SOL    HW1 3190   0.554   3.921   0.253
 1061SOL    HW2 3191   0.527   4.075   0.297
 1062SOL     OW 3192   0.915   3.813   1.402
 1062SOL    HW1 3193   0.940   3.793   1.307
 1062SOL    HW2 3194   0.987   3.869   1.444
 1063SOL     OW 3195   0.410   4.537   1.251
 1063SOL    HW1 3196   0.496   4.549   1.301
 1063SOL    HW2 3197   0.368   4.450   1.278
 1064SOL     OW 3198   1.274   4.110   1.262
 1064SOL    HW1 3199   1.295   4.184   1.326
 1064SOL    HW2 3200   1.185   4.127   1.219
 1065SOL     OW 3201   0.566   4.261   0.865
 1065SOL    HW1 3202   0.578   4.327   0.791
 1065SOL    HW2 3203   0.612   4.295   0.948
 1066SOL     OW 3204   1.582   4.363   0.472
 1066SOL    HW1 3205   1.551   4.424   0.545
 1066SOL    HW2 3206   1.632   4.415   0.403
 1067SOL     OW 3207   1.013   3.829   1.770
 1067SOL    HW1 3208   1.019   3.914   1.718
 1067SOL    HW2 3209   1.045   3.753   1.713
 1068SOL     OW 3210   0.504   3.774   1.740
 1068SOL    HW1 3211   0.462   3.717   1.670
 1068SOL    HW2 3212   0.438   3.843   1.772
 1069SOL     OW 3213   1.209   4.249   0.275
 1069SOL    HW1 3214   1.222   4.165   0.329
 1069SOL    HW2 3215   1.180   4.323   0.335
 1070SOL     OW 3216   0.307   3.937   1.231
 1070SOL    HW1 3217   0.284   3.974   1.321
 1070SOL    HW2 3218   0.277   3.842   1.225
 1071SOL     OW 3219   0.732   4.358   1.064
 1071SOL    HW1 3220   0.791   4.332   0.988
 1071SOL    HW2 3221   0.704   4.454   1.053
 1072SOL     OW 3222   1.728   4.659   1.854
 1072SOL    HW1 3223   1.682   4.652   1.765
 1072SOL    HW2 3224   1.666   4.703   1.920
 1073SOL     OW 3225   0.307   3.787   0.618
 1073SOL    HW1 3226   0.296   3.881   0.651
 1073SOL    HW2 3227   0.302   3.724   0.695
 1074SOL     OW 3228   1.622   4.091   0.374
 1074SOL    HW1 3229   1.624   4.015   0.438
 1074SOL    HW2 3230   1.574   4.168   0.414
 1075SOL     OW 3231   1.540   3.998   0.125
 1075SOL    HW1 3232   1.479   3.923   0.148
 1075SOL    HW2 3233   1.562   4.050   0.208
 1076SOL     OW 3234   0.319   4.534   0.949
 1076SOL    HW1 3235   0.412   4.570   0.954
 1076SOL    HW2 3236   0.313   4.449   1.001
 1077SOL     OW 3237   0.339   4.233   1.006
 1077SOL    HW1 3238   0.287   4.150   0.989
 1077SOL    HW2 3239   0.416   4.238   0.942
 1078SOL     OW 3240   1.138   4.104   1.678
 1078SOL    HW1 3241   1.093   4.167   1.742
 1078SOL    HW2 3242   1.231   4.135   1.661
 1079SOL     OW 3243   1.160   3.931   1.477
 1079SOL    HW1 3244   1.160   3.995   1.554
 1079SOL    HW2 3245   1.188   3.979   1.394
 1080SOL     OW 3246   0.040   4.268   1.114
 1080SOL    HW1 3247   0.125   4.235   1.073
 1080SOL    HW2 3248   0.053   4.283   1.212
 1081SOL     OW 3249   0.189   4.244   1.722
 1081SOL    HW1 3250   0.248   4.204   1.652
 1081SOL    HW2 3251   0.131   4.315   1.681
 1082SOL     OW 3252   0.815   4.296   0.325
 1082SOL    HW1 3253   0.822   4.207   0.279
 1082SOL    HW2 3254   0.721   4.330   0.317
 1083SOL     OW 3255   1.657   4.328   1.206
 1083SOL    HW1 3256   1.619   4.259   1.268
 1083SOL    HW2 3257   1.739   4.292   1.162
 1084SOL     OW 3258   0.671   4.188   1.269
 1084SOL    HW1 3259   0.637   4.099   1.239
 1084SOL    HW2 3260   0.697   4.242   1.189
 1085SOL     OW 3261   0.473   4.224   0.191
 1085SOL    HW1 3262   0.534   4.304   0.195
 1085SOL    HW2 3263   0.378   4.255   0.198
 1086SOL     OW 3264   0.903   3.810   0.133
 1086SOL    HW1 3265   0.954   3.811   0.047
 1086SOL    HW2 3266   0.959   3.768   0.204
 1087SOL     OW 3267   1.726   3.859   0.523
 1087SOL    HW1 3268   1.799   3.842   0.456
 1087SOL    HW2 3269   1.695   3.772   0.561
 1088SOL     OW 3270   1.280   4.651   0.672
 1088SOL    HW1 3271   1.340   4.570   0.674
 1088SOL    HW2 3272   1.320   4.720   0.612
 1089SOL     OW 3273   1.841   3.899   0.963
 1089SOL    HW1 3274   1.880   3.814   0.927
 1089SOL    HW2 3275   1.743   3.901   0.944
 1090SOL     OW 3276   0.263   4.050   0.720
 1090SOL    HW1 3277   0.184   4.101   0.686
 1090SOL    HW2 3278   0.254   4.035   0.818
 1091SOL     OW 3279   1.039   4.822   0.696
 1091SOL    HW1 3280   0.969   4.775   0.750
 1091SOL    HW2 3281   1.098   4.754   0.653
 1092SOL     OW 3282   1.014   3.960   0.971
 1092SOL    HW1 3283   1.006   3.924   0.878
 1092SOL    HW2 3284   1.012   3.884   1.036
 1093SOL     OW 3285   1.709   4.109   1.381
 1093SOL    HW1 3286   1.782   4.178   1.385
 1093SOL    HW2 3287   1.737   4.034   1.322
 1094SOL     OW 3288   0.672   3.927   1.489
 1094SOL    HW1 3289   0.762   3.911   1.449
 1094SOL    HW2 3290   0.680   3.932   1.588
 1095SOL     OW 3291   0.075   4.069   0.033
 1095SOL    HW1 3292  -0.017   4.041   0.004
 1095SOL    HW2 3293   0.106   4.146  -0.023
 1096SOL     OW 3294   0.072   3.890   0.318
 1096SOL    HW1 3295   0.055   3.973   0.264
 1096SOL    HW2 3296   0.162   3.853   0.296
 1097SOL     OW 3297   0.716   4.289   1.708
 1097SOL    HW1 3298   0.735   4.354   1.782
 1097SOL    HW2 3299   0.776   4.209   1.717
 1098SOL     OW 3300   1.225   4.049   0.449
 1098SOL    HW1 3301   1.290   3.975   0.438
 1098SOL    HW2 3302   1.245   4.099   0.533
 1099SOL     OW 3303   1.777   4.066   1.642
 1099SOL    HW1 3304   1.760   4.097   1.548
 1099SOL    HW2 3305   1.693   4.029   1.680
 1100SOL     OW 3306   1.083   4.708   0.087
 1100SOL    HW1 3307   1.060   4.761   0.005
 1100SOL    HW2 3308   1.164   4.652   0.068
 1101SOL     OW 3309   1.824   3.916   1.227
 1101SOL    HW1 3310   1.820   3.826   1.271
 1101SOL    HW2 3311   1.827   3.905   1.128
 1102SOL     OW 3312   0.428   4.148   0.520
 1102SOL    HW1 3313   0.458   4.076   0.458
 1102SOL    HW2 3314   0.389   4.108   0.603
 1103SOL     OW 3315   0.317   4.271   1.280
 1103SOL    HW1 3316   0.355   4.212   1.352
 1103SOL    HW2 3317   0.357   4.245   1.192
 1104SOL     OW 3318   1.424   3.938   1.112
 1104SOL    HW1 3319   1.476   3.873   1.167
 1104SOL    HW2 3320   1.375   4.001   1.173
 1105SOL     OW 3321   1.001   3.758   1.154
 1105SOL    HW1 3322   0.938   3.686   1.123
 1105SOL    HW2 3323   1.094   3.722   1.154
 1106SOL     OW 3324   1.352   3.776   0.168
 1106SOL    HW1 3325   1.387   3.735   0.084
 1106SOL    HW2 3326   1.262   3.738   0.188
 1107SOL     OW 3327   1.300   4.177   0.691
 1107SOL    HW1 3328   1.241   4.257   0.695
 1107SOL    HW2 3329   1.315   4.142   0.784
 1108SOL     OW 3330   1.593   3.945   0.882
 1108SOL    HW1 3331   1.509   3.944   0.936
 1108SOL    HW2 3332   1.595   4.028   0.826
 1109SOL     OW 3333   0.230   4.352   1.975
 1109SOL    HW1 3334   0.137   4.350   2.012
 1109SOL    HW2 3335   0.231   4.313   1.883
 1110SOL     OW 3336   0.225   3.999   2.858
 1110SOL    HW1 3337   0.260   3.982   2.950
 1110SOL    HW2 3338   0.137   3.954   2.846
 1111SOL     OW 3339   0.019   4.092   2.509
 1111SOL    HW1 3340  -0.063   4.135   2.548
 1111SOL    HW2 3341  -0.009   4.019   2.446
 1112SOL     OW 3342   1.755   4.331   2.093
 1112SOL    HW1 3343   1.743   4.318   1.994
 1112SOL    HW2 3344   1.725   4.250   2.142
 1113SOL     OW 3345   0.685   4.736   2.527
 1113SOL    HW1 3346   0.754   4.720   2.597
 1113SOL    HW2 3347   0.612   4.793   2.565
 1114SOL     OW 3348   0.438   4.116   3.361
 1114SOL    HW1 3349   0.520   4.060   3.370
 1114SOL    HW2 3350   0.357   4.058   3.365
 1115SOL     OW 3351   1.603   4.171   2.599
 1115SOL    HW1 3352   1.529   4.217   2.549
 1115SOL    HW2 3353   1.654   4.239   2.652
 1116SOL     OW 3354   1.594   3.838   3.342
 1116SOL    HW1 3355   1.576   3.905   3.270
 1116SOL    HW2 3356   1.591   3.884   3.431
 1117SOL     OW 3357   0.122   4.367   2.425
 1117SOL    HW1 3358   0.077   4.279   2.442
 1117SOL    HW2 3359   0.121   4.421   2.509
 1118SOL     OW 3360   0.113   4.461   3.459
 1118SOL    HW1 3361   0.201   4.448   3.504
 1118SOL    HW2 3362   0.100   4.558   3.437
 1119SOL     OW 3363   0.809   3.728   2.364
 1119SOL    HW1 3364   0.849   3.819   2.355
 1119SOL    HW2 3365   0.709   3.736   2.370
 1120SOL     OW 3366   0.317   3.975   3.663
 1120SOL    HW1 3367   0.388   4.046   3.669
 1120SOL    HW2 3368   0.229   4.014   3.691
 1121SOL     OW 3369   1.281   4.069   2.806
 1121SOL    HW1 3370   1.195   4.019   2.793
 1121SOL    HW2 3371   1.343   4.015   2.862
 1122SOL     OW 3372   0.807   4.329   3.327
 1122SOL    HW1 3373   0.760   4.326   3.416
 1122SOL    HW2 3374   0.756   4.274   3.261
 1123SOL     OW 3375   1.394   4.193   3.536
 1123SOL    HW1 3376   1.374   4.236   3.624
 1123SOL    HW2 3377   1.472   4.131   3.545
 1124SOL     OW 3378   0.991   4.134   3.104
 1124SOL    HW1 3379   0.914   4.168   3.158
 1124SOL    HW2 3380   0.957   4.083   3.025
 1125SOL     OW 3381   1.041   4.425   2.291
 1125SOL    HW1 3382   1.067   4.421   2.387
 1125SOL    HW2 3383   0.956   4.374   2.277
 1126SOL     OW 3384   0.076   4.535   2.651
 1126SOL    HW1 3385   0.175   4.523   2.660
 1126SOL    HW2 3386   0.052   4.630   2.672
 1127SOL     OW 3387   0.865   4.072   2.057
 1127SOL    HW1 3388   0.924   4.135   2.008
 1127SOL    HW2 3389   0.884   3.978   2.028
 1128SOL     OW 3390   1.719   4.309   3.693
 1128SOL    HW1 3391   1.693   4.398   3.657
 1128SOL    HW2 3392   1.717   4.241   3.620
 1129SOL     OW 3393   0.550   3.920   2.747
 1129SOL    HW1 3394   0.545   3.915   2.847
 1129SOL    HW2 3395   0.552   4.016   2.718
 1130SOL     OW 3396   1.458   4.459   2.590
 1130SOL    HW1 3397   1.453   4.394   2.665
 1130SOL    HW2 3398   1.538   4.518   2.603
 1131SOL     OW 3399   0.202   4.009   3.360
 1131SOL    HW1 3400   0.122   4.069   3.347
 1131SOL    HW2 3401   0.192   3.960   3.446
 1132SOL     OW 3402   1.400   3.831   2.288
 1132SOL    HW1 3403   1.376   3.794   2.198
 1132SOL    HW2 3404   1.499   3.847   2.292
 1133SOL     OW 3405   0.382   4.424   2.342
 1133SOL    HW1 3406   0.427   4.334   2.339
 1133SOL    HW2 3407   0.288   4.413   2.375
 1134SOL     OW 3408   1.547   3.946   3.591
 1134SOL    HW1 3409   1.542   3.983   3.683
 1134SOL    HW2 3410   1.475   3.877   3.579
 1135SOL     OW 3411   0.614   3.846   1.979
 1135SOL    HW1 3412   0.712   3.824   1.986
 1135SOL    HW2 3413   0.583   3.829   1.886
 1136SOL     OW 3414   0.781   3.988   3.611
 1136SOL    HW1 3415   0.848   3.927   3.654
 1136SOL    HW2 3416   0.708   4.007   3.676
 1137SOL     OW 3417   1.351   4.314   3.295
 1137SOL    HW1 3418   1.379   4.271   3.380
 1137SOL    HW2 3419   1.376   4.410   3.296
 1138SOL     OW 3420   0.922   4.227   2.761
 1138SOL    HW1 3421   0.897   4.218   2.665
 1138SOL    HW2 3422   0.970   4.145   2.792
 1139SOL     OW 3423   0.539   3.788   2.374
 1139SOL    HW1 3424   0.458   3.789   2.432
 1139SOL    HW2 3425   0.542   3.871   2.319
 1140SOL     OW 3426   0.297   3.759   2.033
 1140SOL    HW1 3427   0.346   3.843   2.012
 1140SOL    HW2 3428   0.359   3.694   2.078
 1141SOL     OW 3429   0.935   3.960   2.342
 1141SOL    HW1 3430   0.887   4.001   2.264
 1141SOL    HW2 3431   1.034   3.958   2.323
 1142SOL     OW 3432   1.076   4.407   3.326
 1142SOL    HW1 3433   0.996   4.346   3.329
 1142SOL    HW2 3434   1.157   4.354   3.302
 1143SOL     OW 3435   1.032   4.273   1.878
 1143SOL    HW1 3436   0.991   4.355   1.839
 1143SOL    HW2 3437   1.096   4.299   1.951
 1144SOL     OW 3438   0.078   4.280   3.248
 1144SOL    HW1 3439   0.170   4.279   3.207
 1144SOL    HW2 3440   0.072   4.354   3.315
 1145SOL     OW 3441   0.561   3.946   3.009
 1145SOL    HW1 3442   0.599   3.862   3.046
 1145SOL    HW2 3443   0.473   3.965   3.053
 1146SOL     OW 3444   0.866   4.178   2.504
 1146SOL    HW1 3445   0.834   4.250   2.442
 1146SOL    HW2 3446   0.890   4.097   2.451
 1147SOL     OW 3447   1.017   3.763   2.615
 1147SOL    HW1 3448   0.945   3.768   2.546
 1147SOL    HW2 3449   0.993   3.694   2.684
 1148SOL     OW 3450   1.466   4.314   2.854
 1148SOL    HW1 3451   1.436   4.219   2.861
 1148SOL    HW2 3452   1.539   4.330   2.920
 1149SOL     OW 3453   1.390   4.299   1.940
 1149SOL    HW1 3454   1.336   4.278   2.021
 1149SOL    HW2 3455   1.481   4.258   1.949
 1150SOL     OW 3456   0.527   3.980   2.190
 1150SOL    HW1 3457   0.554   3.921   2.115
 1150SOL    HW2 3458   0.527   4.075   2.159
 1151SOL     OW 3459   0.915   3.813   3.264
 1151SOL    HW1 3460   0.940   3.793   3.169
 1151SOL    HW2 3461   0.987   3.869   3.306
 1152SOL     OW 3462   0.410   4.537   3.113
 1152SOL    HW1 3463   0.496   4.549   3.163
 1152SOL    HW2 3464   0.368   4.450   3.140
 1153SOL     OW 3465   1.274   4.110   3.124
 1153SOL    HW1 3466   1.295   4.184   3.188
 1153SOL    HW2 3467   1.185   4.127   3.081
 1154SOL     OW 3468   0.566   4.261   2.727
 1154SOL    HW1 3469   0.578   4.327   2.653
 1154SOL    HW2 3470   0.612   4.295   2.810
 1155SOL     OW 3471   1.582   4.363   2.334
 1155SOL    HW1 3472   1.551   4.424   2.407
 1155SOL    HW2 3473   1.632   4.415   2.265
 1156SOL     OW 3474   1.013   3.829   3.632
 1156SOL    HW1 3475   1.019   3.914   3.580
 1156SOL    HW2 3476   1.045   3.753   3.575
 1157SOL     OW 3477   0.504   3.774   3.602
 1157SOL    HW1 3478   0.462   3.717   3.532
 1157SOL    HW2 3479   0.438   3.843   3.634
 1158SOL     OW 3480   1.209   4.249   2.137
 1158SOL    HW1 3481   1.222   4.165   2.191
 1158SOL    HW2 3482   1.180   4.323   2.197
 1159SOL     OW 3483   0.307   3.937   3.093
 1159SOL    HW1 3484   0.284   3.974   3.183
 1159SOL    HW2 3485   0.277   3.842   3.087
 1160SOL     OW 3486   0.732   4.358   2.926
 1160SOL    HW1 3487   0.791   4.332   2.850
 1160SOL    HW2 3488   0.704   4.454   2.915
 1161SOL     OW 3489   1.728   4.659   3.716
 1161SOL    HW1 3490   1.682   4.652   3.627
 1161SOL    HW2 3491   1.666   4.703   3.782
 1162SOL     OW 3492   0.307   3.787   2.480
 1162SOL    HW1 3493   0.296   3.881   2.513
 1162SOL    HW2 3494   0.302   3.724   2.557
 1163SOL     OW 3495   1.622   4.091   2.236
 1163SOL    HW1 3496   1.624   4.015   2.300
 1163SOL    HW2 3497   1.574   4.168   2.276
 1164SOL     OW 3498   1.540   3.998   1.987
 1164SOL    HW1 3499   1.479   3.923   2.010
 1164SOL    HW2 3500   1.562   4.050   2.070
 1165SOL     OW 3501   0.319   4.534   2.811
 1165SOL    HW1 3502   0.412   4.570   2.816
 1165SOL    HW2 3503   0.313   4.449   2.863
 1166SOL     OW 3504   0.339   4.233   2.868
 1166SOL    HW1 3505   0.287   4.150   2.851
 1166SOL    HW2 3506   0.416   4.238   2.804
 1167SOL     OW 3507   1.138   4.104   3.540
 1167SOL    HW1 3508   1.093   4.167   3.604
 1167SOL    HW2 3509   1.231   4.135   3.523
 1168SOL     OW 3510   1.160   3.931   3.339
 1168SOL    HW1 3511   1.160   3.995   3.416
 1168SOL    HW2 3512   1.188   3.979   3.256
 1169SOL     OW 3513   0.040   4.268   2.976
 1169SOL    HW1 3514   0.125   4.235   2.935
 1169SOL    HW2 3515   0.053   4.283   3.074
 1170SOL     OW 3516   0.189   4.244   3.584
 1170SOL    HW1 3517   0.248   4.204   3.514
 1170SOL    HW2 3518   0.131   4.315   3.543
 1171SOL     OW 3519   0.815   4.296   2.187
 1171SOL    HW1 3520   0.822   4.207   2.141
 1171SOL    HW2 3521   0.721   4.330   2.179
 1172SOL     OW 3522   1.657   4.328   3.068
 1172SOL    HW1 3523   1.619   4.259   3.130
 1172SOL    HW2 3524   1.739   4.292   3.024
 1173SOL     OW 3525   0.671   4.188   3.131
 1173SOL    HW1 3526   0.637   4.099   3.101
 1173SOL    HW2 3527   0.697   4.242   3.051
 1174SOL     OW 3528   0.473   4.224   2.053
 1174SOL    HW1 3529   0.534   4.304   2.057
 1174SOL    HW2 3530   0.378   4.255   2.060
 1175SOL     OW 3531   1.726   3.859   2.385
 1175SOL    HW1 3532   1.799   3.842   2.318
 1175SOL    HW2 3533   1.695   3.772   2.423
 1176SOL     OW 3534   1.280   4.651   2.534
 1176SOL    HW1 3535   1.340   4.570   2.536
 1176SOL    HW2 3536   1.320   4.720   2.474
 1177SOL     OW 3537   1.841   3.899   2.825
 1177SOL    HW1 3538   1.880   3.814   2.789
 1177SOL    HW2 3539   1.743   3.901   2.806
 1178SOL     OW 3540   0.263   4.050   2.582
 1178SOL    HW1 3541   0.184   4.101   2.548
 1178SOL    HW2 3542   0.254   4.035   2.680
 1179SOL     OW 3543   0.916   4.634   2.153
 1179SOL    HW1 3544   0.979   4.672   2.085
 1179SOL    HW2 3545   0.956   4.551   2.192
 1180SOL     OW 3546   1.039   4.822   2.558
 1180SOL    HW1 3547   0.969   4.775   2.612
 1180SOL    HW2 3548   1.098   4.754   2.515
 1181SOL     OW 3549   1.014   3.960   2.833
 1181SOL    HW1 3550   1.006   3.924   2.740
 1181SOL    HW2 3551   1.012   3.884   2.898
 1182SOL     OW 3552   1.709   4.109   3.243
 1182SOL    HW1 3553   1.782   4.178   3.247
 1182SOL    HW2 3554   1.737   4.034   3.184
 1183SOL     OW 3555   0.672   3.927   3.351
 1183SOL    HW1 3556   0.762   3.911   3.311
 1183SOL    HW2 3557   0.680   3.932   3.450
 1184SOL     OW 3558   0.075   4.069   1.895
 1184SOL    HW1 3559  -0.017   4.041   1.866
 1184SOL    HW2 3560   0.106   4.146   1.839
 1185SOL     OW 3561   0.072   3.890   2.180
 1185SOL    HW1 3562   0.055   3.973   2.126
 1185SOL    HW2 3563   0.162   3.853   2.158
 1186SOL     OW 3564   0.716   4.289   3.570
 1186SOL    HW1 3565   0.735   4.354   3.644
 1186SOL    HW2 3566   0.776   4.209   3.579
 1187SOL     OW 3567   1.225   4.049   2.311
 1187SOL    HW1 3568   1.290   3.975   2.300
 1187SOL    HW2 3569   1.245   4.099   2.395
 1188SOL     OW 3570   1.777   4.066   3.504
 1188SOL    HW1 3571   1.760   4.097   3.410
 1188SOL    HW2 3572   1.693   4.029   3.542
 1189SOL     OW 3573   1.083   4.708   1.949
 1189SOL    HW1 3574   1.060   4.761   1.867
 1189SOL    HW2 3575   1.164   4.652   1.930
 1190SOL     OW 3576   1.824   3.916   3.089
 1190SOL    HW1 3577   1.820   3.826   3.133
 1190SOL    HW2 3578   1.827   3.905   2.990
 1191SOL     OW 3579   0.428   4.148   2.382
 1191SOL    HW1 3580   0.458   4.076   2.320
 1191SOL    HW2 3581   0.389   4.108   2.465
 1192SOL     OW 3582   0.317   4.271   3.142
 1192SOL    HW1 3583   0.355   4.212   3.214
 1192SOL    HW2 3584   0.357   4.245   3.054
 1193SOL     OW 3585   1.424   3.938   2.974
 1193SOL    HW1 3586   1.476   3.873   3.029
 1193SOL    HW2 3587   1.375   4.001   3.035
 1194SOL     OW 3588   1.001   3.758   3.016
 1194SOL    HW1 3589   0.938   3.686   2.985
 1194SOL    HW2 3590   1.094   3.722   3.016
 1195SOL     OW 3591   1.352   3.776   2.030
 1195SOL    HW1 3592   1.387   3.735   1.946
 1195SOL    HW2 3593   1.262   3.738   2.050
 1196SOL     OW 3594   1.300   4.177   2.553
 1196SOL    HW1 3595   1.241   4.257   2.557
 1196SOL    HW2 3596   1.315   4.142   2.646
 1197SOL     OW 3597   1.593   3.945   2.744
 1197SOL    HW1 3598   1.509   3.944   2.798
 1197SOL    HW2 3599   1.595   4.028   2.688
 1198SOL     OW 3600   0.230   4.352   3.837
 1198SOL    HW1 3601   0.137   4.350   3.874
 1198SOL    HW2 3602   0.231   4.313   3.745
 1199SOL     OW 3603   1.755   4.331   3.955
 1199SOL    HW1 3604   1.743   4.318   3.856
 1199SOL    HW2 3605   1.725   4.250   4.004
 1200SOL     OW 3606   0.685   4.736   4.389
 1200SOL    HW1 3607   0.754   4.720   4.459
 1200SOL    HW2 3608   0.612   4.793   4.427
 1201SOL     OW 3609   1.603   4.171   4.461
 1201SOL    HW1 3610   1.529   4.217   4.411
 1201SOL    HW2 3611   1.654   4.239   4.514
 1202SOL     OW 3612   0.240   4.815   4.610
 1202SOL    HW1 3613   0.254   4.731   4.662
 1202SOL    HW2 3614   0.185   4.879   4.665
 1203SOL     OW 3615   0.122   4.367   4.287
 1203SOL    HW1 3616   0.077   4.279   4.304
 1203SOL    HW2 3617   0.121   4.421   4.371
 1204SOL     OW 3618   0.809   3.728   4.226
 1204SOL    HW1 3619   0.849   3.819   4.217
 1204SOL    HW2 3620   0.709   3.736   4.232
 1205SOL     OW 3621   1.281   4.069   4.668
 1205SOL    HW1 3622   1.195   4.019   4.655
 1205SOL    HW2 3623   1.343   4.015   4.724
 1206SOL     OW 3624   1.041   4.425   4.153
 1206SOL    HW1 3625   1.067   4.421   4.249
 1206SOL    HW2 3626   0.956   4.374   4.139
 1207SOL     OW 3627   0.076   4.535   4.513
 1207SOL    HW1 3628   0.175   4.523   4.522
 1207SOL    HW2 3629   0.052   4.630   4.534
 1208SOL     OW 3630   0.865   4.072   3.919
 1208SOL    HW1 3631   0.924   4.135   3.870
 1208SOL    HW2 3632   0.884   3.978   3.890
 1209SOL     OW 3633   1.400   3.831   4.150
 1209SOL    HW1 3634   1.376   3.794   4.060
 1209SOL    HW2 3635   1.499   3.847   4.154
 1210SOL     OW 3636   0.382   4.424   4.204
 1210SOL    HW1 3637   0.427   4.334   4.201
 1210SOL    HW2 3638   0.288   4.413   4.237
 1211SOL     OW 3639   0.614   3.846   3.841
 1211SOL    HW1 3640   0.712   3.824   3.848
 1211SOL    HW2 3641   0.583   3.829   3.748
 1212SOL     OW 3642   0.539   3.788   4.236
 1212SOL    HW1 3643   0.458   3.789   4.294
 1212SOL    HW2 3644   0.542   3.871   4.181
 1213SOL     OW 3645   0.297   3.759   3.895
 1213SOL    HW1 3646   0.346   3.843   3.874
 1213SOL    HW2 3647   0.359   3.694   3.940
 1214SOL     OW 3648   0.935   3.960   4.204
 1214SOL    HW1 3649   0.887   4.001   4.126
 1214SOL    HW2 3650   1.034   3.958   4.185
 1215SOL     OW 3651   1.032   4.273   3.740
 1215SOL    HW1 3652   0.991   4.355   3.701
 1215SOL    HW2 3653   1.096   4.299   3.813
 1216SOL     OW 3654   0.866   4.178   4.366
 1216SOL    HW1 3655   0.834   4.250   4.304
 1216SOL    HW2 3656   0.890   4.097   4.313
 1217SOL     OW 3657   1.390   4.299   3.802
 1217SOL    HW1 3658   1.336   4.278   3.883
 1217SOL    HW2 3659   1.481   4.258   3.811
 1218SOL     OW 3660   0.527   3.980   4.052
 1218SOL    HW1 3661   0.554   3.921   3.977
 1218SOL    HW2 3662   0.527   4.075   4.021
 1219SOL     OW 3663   1.582   4.363   4.196
 1219SOL    HW1 3664   1.551   4.424   4.269
 1219SOL    HW2 3665   1.632   4.415   4.127
 1220SOL     OW 3666   1.209   4.249   3.999
 1220SOL    HW1 3667   1.222   4.165   4.053
 1220SOL    HW2 3668   1.180   4.323   4.059
 1221SOL     OW 3669   0.307   3.787   4.342
 1221SOL    HW1 3670   0.296   3.881   4.375
 1221SOL    HW2 3671   0.302   3.724   4.419
 1222SOL     OW 3672   1.622   4.091   4.098
 1222SOL    HW1 3673   1.624   4.015   4.162
 1222SOL    HW2 3674   1.574   4.168   4.138
 1223SOL     OW 3675   1.540   3.998   3.849
 1223SOL    HW1 3676   1.479   3.923   3.872
 1223SOL    HW2 3677   1.562   4.050   3.932
 1224SOL     OW 3678   0.815   4.296   4.049
 1224SOL    HW1 3679   0.822   4.207   4.003
 1224SOL    HW2 3680   0.721   4.330   4.041
 1225SOL     OW 3681   0.473   4.224   3.915
 1225SOL    HW1 3682   0.534   4.304   3.919
 1225SOL    HW2 3683   0.378   4.255   3.922
 1226SOL     OW 3684   1.726   3.859   4.247
 1226SOL    HW1 3685   1.799   3.842   4.180
 1226SOL    HW2 3686   1.695   3.772   4.285
 1227SOL     OW 3687   1.280   4.651   4.396
 1227SOL    HW1 3688   1.340   4.570   4.398
 1227SOL    HW2 3689   1.320   4.720   4.336
 1228SOL     OW 3690   1.841   3.899   4.687
 1228SOL    HW1 3691   1.880   3.814   4.651
 1228SOL    HW2 3692   1.743   3.901   4.668
 1229SOL     OW 3693   0.916   4.634   4.015
 1229SOL    HW1 3694   0.979   4.672   3.947
 1229SOL    HW2 3695   0.956   4.551   4.054
 1230SOL     OW 3696   0.075   4.069   3.757
 1230SOL    HW1 3697  -0.017   4.041   3.728
 1230SOL    HW2 3698   0.106   4.146   3.701
 1231SOL     OW 3699   0.072   3.890   4.042
 1231SOL    HW1 3700   0.055   3.973   3.988
 1231SOL    HW2 3701   0.162   3.853   4.020
 1232SOL     OW 3702   1.225   4.049   4.173
 1232SOL    HW1 3703   1.290   3.975   4.162
 1232SOL    HW2 3704   1.245   4.099   4.257
 1233SOL     OW 3705   1.083   4.708   3.811
 1233SOL    HW1 3706   1.060   4.761   3.729
 1233SOL    HW2 3707   1.164   4.652   3.792
 1234SOL     OW 3708   0.428   4.148   4.244
 1234SOL    HW1 3709   0.458   4.076   4.182
 1234SOL    HW2 3710   0.389   4.108   4.327
 1235SOL     OW 3711   1.352   3.776   3.892
 1235SOL    HW1 3712   1.387   3.735   3.808
 1235SOL    HW2 3713   1.262   3.738   3.912
 1236SOL     OW 3714   1.300   4.177   4.415
 1236SOL    HW1 3715   1.241   4.257   4.419
 1236SOL    HW2 3716   1.315   4.142   4.508
 1237SOL     OW 3717   2.092   0.628   0.113
 1237SOL    HW1 3718   1.999   0.626   0.150
 1237SOL    HW2 3719   2.093   0.589   0.021
 1238SOL     OW 3720   2.087   0.275   0.996
 1238SOL    HW1 3721   2.122   0.258   1.088
 1238SOL    HW2 3722   1.999   0.230   0.984
 1239SOL     OW 3723   1.881   0.368   0.647
 1239SOL    HW1 3724   1.799   0.411   0.686
 1239SOL    HW2 3725   1.853   0.295   0.584
 1240SOL     OW 3726   2.431   1.275   1.165
 1240SOL    HW1 3727   2.338   1.268   1.128
 1240SOL    HW2 3728   2.442   1.364   1.209
 1241SOL     OW 3729   3.417   1.511   0.703
 1241SOL    HW1 3730   3.360   1.495   0.784
 1241SOL    HW2 3731   3.358   1.521   0.623
 1242SOL     OW 3732   2.997   0.703   0.717
 1242SOL    HW1 3733   3.054   0.781   0.692
 1242SOL    HW2 3734   2.937   0.729   0.793
 1243SOL     OW 3735   3.617   0.607   0.231
 1243SOL    HW1 3736   3.605   0.594   0.132
 1243SOL    HW2 3737   3.587   0.526   0.280
 1244SOL     OW 3738   2.630   1.144   1.023
 1244SOL    HW1 3739   2.552   1.161   1.083
 1244SOL    HW2 3740   2.664   1.231   0.987
 1245SOL     OW 3741   2.712   0.798   1.823
 1245SOL    HW1 3742   2.708   0.874   1.888
 1245SOL    HW2 3743   2.734   0.834   1.732
 1246SOL     OW 3744   2.547   1.012   0.665
 1246SOL    HW1 3745   2.616   0.996   0.735
 1246SOL    HW2 3746   2.474   1.069   0.703
 1247SOL     OW 3747   2.548   1.161   1.803
 1247SOL    HW1 3748   2.608   1.240   1.817
 1247SOL    HW2 3749   2.462   1.192   1.762
 1248SOL     OW 3750   2.197   1.435   1.061
 1248SOL    HW1 3751   2.119   1.404   1.008
 1248SOL    HW2 3752   2.255   1.493   1.004
 1249SOL     OW 3753   3.322   1.505   1.339
 1249SOL    HW1 3754   3.346   1.599   1.365
 1249SOL    HW2 3755   3.306   1.451   1.421
 1250SOL     OW 3756   2.300   0.392   1.499
 1250SOL    HW1 3757   2.382   0.336   1.508
 1250SOL    HW2 3758   2.219   0.334   1.503
 1251SOL     OW 3759   3.465   0.447   0.737
 1251SOL    HW1 3760   3.391   0.493   0.687
 1251SOL    HW2 3761   3.516   0.515   0.790
 1252SOL     OW 3762   2.093   1.713   0.483
 1252SOL    HW1 3763   2.127   1.790   0.537
 1252SOL    HW2 3764   2.137   1.713   0.393
 1253SOL     OW 3765   2.989   1.341   1.690
 1253SOL    HW1 3766   3.036   1.341   1.778
 1253SOL    HW2 3767   2.941   1.254   1.679
 1254SOL     OW 3768   2.092   1.434   0.538
 1254SOL    HW1 3769   2.066   1.530   0.538
 1254SOL    HW2 3770   2.021   1.380   0.583
 1255SOL     OW 3771   2.102   1.091   0.886
 1255SOL    HW1 3772   2.116   1.007   0.938
 1255SOL    HW2 3773   2.047   1.155   0.941
 1256SOL     OW 3774   2.482   1.786   1.439
 1256SOL    HW1 3775   2.390   1.769   1.474
 1256SOL    HW2 3776   2.510   1.878   1.465
 1257SOL     OW 3777   2.468   0.964   0.123
 1257SOL    HW1 3778   2.475   1.048   0.069
 1257SOL    HW2 3779   2.514   0.977   0.211
 1258SOL     OW 3780   3.456   0.114   1.480
 1258SOL    HW1 3781   3.438   0.181   1.408
 1258SOL    HW2 3782   3.453   0.160   1.569
 1259SOL     OW 3783   1.984   0.643   0.563
 1259SOL    HW1 3784   1.939   0.555   0.580
 1259SOL    HW2 3785   1.983   0.697   0.647
 1260SOL     OW 3786   3.704   1.767   0.359
 1260SOL    HW1 3787   3.758   1.738   0.439
 1260SOL    HW2 3788   3.734   1.857   0.330
 1261SOL     OW 3789   1.889   1.596   0.117
 1261SOL    HW1 3790   1.870   1.500   0.138
 1261SOL    HW2 3791   1.856   1.654   0.192
 1262SOL     OW 3792   3.551   0.922   0.612
 1262SOL    HW1 3793   3.646   0.893   0.620
 1262SOL    HW2 3794   3.543   0.987   0.537
 1263SOL     OW 3795   3.503   1.108   0.432
 1263SOL    HW1 3796   3.589   1.110   0.380
 1263SOL    HW2 3797   3.517   1.155   0.520
 1264SOL     OW 3798   1.975   0.737   1.597
 1264SOL    HW1 3799   2.063   0.724   1.642
 1264SOL    HW2 3800   1.962   0.834   1.575
 1265SOL     OW 3801   2.475   1.365   0.726
 1265SOL    HW1 3802   2.426   1.278   0.735
 1265SOL    HW2 3803   2.452   1.408   0.639
 1266SOL     OW 3804   3.155   1.228   1.423
 1266SOL    HW1 3805   3.192   1.155   1.365
 1266SOL    HW2 3806   3.207   1.233   1.508
 1267SOL     OW 3807   2.671   0.004   0.502
 1267SOL    HW1 3808   2.711   0.095   0.493
 1267SOL    HW2 3809   2.571   0.012   0.508
 1268SOL     OW 3810   2.059   0.976   1.264
 1268SOL    HW1 3811   2.148   0.931   1.250
 1268SOL    HW2 3812   1.986   0.911   1.245
 1269SOL     OW 3813   3.387   0.999   0.190
 1269SOL    HW1 3814   3.324   0.923   0.203
 1269SOL    HW2 3815   3.435   1.017   0.276
 1270SOL     OW 3816   3.049   1.792   1.616
 1270SOL    HW1 3817   3.073   1.852   1.540
 1270SOL    HW2 3818   3.056   1.697   1.586
 1271SOL     OW 3819   2.179   0.251   1.801
 1271SOL    HW1 3820   2.250   0.322   1.807
 1271SOL    HW2 3821   2.091   0.290   1.829
 1272SOL     OW 3822   3.328   1.417   0.953
 1272SOL    HW1 3823   3.269   1.423   1.033
 1272SOL    HW2 3824   3.313   1.329   0.907
 1273SOL     OW 3825   3.529   1.714   0.572
 1273SOL    HW1 3826   3.488   1.691   0.484
 1273SOL    HW2 3827   3.511   1.640   0.637
 1274SOL     OW 3828   2.460   0.729   0.270
 1274SOL    HW1 3829   2.484   0.798   0.202
 1274SOL    HW2 3830   2.382   0.762   0.324
 1275SOL     OW 3831   3.143   0.345   0.944
 1275SOL    HW1 3832   3.057   0.295   0.931
 1275SOL    HW2 3833   3.205   0.291   1.000
 1276SOL     OW 3834   3.438   1.662   0.307
 1276SOL    HW1 3835   3.527   1.708   0.310
 1276SOL    HW2 3836   3.417   1.638   0.212
 1277SOL     OW 3837   2.669   0.605   1.465
 1277SOL    HW1 3838   2.622   0.602   1.554
 1277SOL    HW2 3839   2.618   0.550   1.399
 1278SOL     OW 3840   3.256   0.469   1.674
 1278SOL    HW1 3841   3.236   0.512   1.762
 1278SOL    HW2 3842   3.334   0.407   1.683
 1279SOL     OW 3843   2.835   0.890   1.572
 1279SOL    HW1 3844   2.881   0.806   1.543
 1279SOL    HW2 3845   2.779   0.924   1.497
 1280SOL     OW 3846   2.853   0.410   1.242
 1280SOL    HW1 3847   2.776   0.444   1.296
 1280SOL    HW2 3848   2.819   0.359   1.163
 1281SOL     OW 3849   2.903   0.701   0.429
 1281SOL    HW1 3850   2.929   0.697   0.525
 1281SOL    HW2 3851   2.818   0.650   0.415
 1282SOL     OW 3852   1.938   0.811   0.789
 1282SOL    HW1 3853   2.037   0.799   0.798
 1282SOL    HW2 3854   1.914   0.906   0.810
 1283SOL     OW 3855   1.992   1.821   1.571
 1283SOL    HW1 3856   1.982   1.806   1.670
 1283SOL    HW2 3857   1.906   1.857   1.535
 1284SOL     OW 3858   2.727   0.348   0.195
 1284SOL    HW1 3859   2.786   0.411   0.146
 1284SOL    HW2 3860   2.746   0.254   0.166
 1285SOL     OW 3861   3.581   0.585   1.831
 1285SOL    HW1 3862   3.555   0.674   1.795
 1285SOL    HW2 3863   3.579   0.517   1.758
 1286SOL     OW 3864   3.224   1.144   0.545
 1286SOL    HW1 3865   3.307   1.115   0.497
 1286SOL    HW2 3866   3.175   1.211   0.489
 1287SOL     OW 3867   2.412   0.196   0.885
 1287SOL    HW1 3868   2.407   0.191   0.985
 1287SOL    HW2 3869   2.414   0.292   0.856
 1288SOL     OW 3870   2.870   1.456   0.477
 1288SOL    HW1 3871   2.824   1.528   0.425
 1288SOL    HW2 3872   2.866   1.476   0.575
 1289SOL     OW 3873   2.213   1.801   0.853
 1289SOL    HW1 3874   2.263   1.715   0.859
 1289SOL    HW2 3875   2.278   1.878   0.850
 1290SOL     OW 3876   3.657   1.066   0.873
 1290SOL    HW1 3877   3.595   1.051   0.797
 1290SOL    HW2 3878   3.605   1.077   0.958
 1291SOL     OW 3879   3.089   1.550   1.506
 1291SOL    HW1 3880   3.095   1.473   1.570
 1291SOL    HW2 3881   3.037   1.524   1.426
 1292SOL     OW 3882   2.183   0.943   0.242
 1292SOL    HW1 3883   2.265   0.982   0.200
 1292SOL    HW2 3884   2.156   0.861   0.193
 1293SOL     OW 3885   3.320   0.735   0.728
 1293SOL    HW1 3886   3.315   0.670   0.803
 1293SOL    HW2 3887   3.400   0.794   0.741
 1294SOL     OW 3888   2.323   1.266   1.727
 1294SOL    HW1 3889   2.273   1.267   1.641
 1294SOL    HW2 3890   2.260   1.248   1.803
 1295SOL     OW 3891   2.973   1.776   0.237
 1295SOL    HW1 3892   2.913   1.714   0.287
 1295SOL    HW2 3893   3.004   1.732   0.152
 1296SOL     OW 3894   2.064   0.285   1.498
 1296SOL    HW1 3895   1.984   0.345   1.485
 1296SOL    HW2 3896   2.054   0.236   1.584
 1297SOL     OW 3897   3.494   1.377   0.081
 1297SOL    HW1 3898   3.462   1.471   0.071
 1297SOL    HW2 3899   3.418   1.314   0.069
 1298SOL     OW 3900   2.326   1.743   0.323
 1298SOL    HW1 3901   2.359   1.782   0.409
 1298SOL    HW2 3902   2.402   1.736   0.258
 1299SOL     OW 3903   3.262   0.107   0.426
 1299SOL    HW1 3904   3.238   0.070   0.336
 1299SOL    HW2 3905   3.361   0.123   0.430
 1300SOL     OW 3906   2.111   1.785   1.241
 1300SOL    HW1 3907   2.168   1.720   1.291
 1300SOL    HW2 3908   2.095   1.752   1.148
 1301SOL     OW 3909   2.802   1.698   0.904
 1301SOL    HW1 3910   2.882   1.641   0.925
 1301SOL    HW2 3911   2.753   1.658   0.827
 1302SOL     OW 3912   2.244   0.700   0.480
 1302SOL    HW1 3913   2.289   0.610   0.477
 1302SOL    HW2 3914   2.150   0.689   0.513
 1303SOL     OW 3915   3.409   0.222   1.729
 1303SOL    HW1 3916   3.404   0.259   1.821
 1303SOL    HW2 3917   3.337   0.153   1.717
 1304SOL     OW 3918   2.476   0.122   0.117
 1304SOL    HW1 3919   2.574   0.100   0.124
 1304SOL    HW2 3920   2.445   0.105   0.024
 1305SOL     OW 3921   2.643   0.264   1.749
 1305SOL    HW1 3922   2.710   0.203   1.792
 1305SOL    HW2 3923   2.570   0.283   1.814
 1306SOL     OW 3924   2.750   1.514   1.195
 1306SOL    HW1 3925   2.727   1.489   1.101
 1306SOL    HW2 3926   2.811   1.445   1.234
 1307SOL     OW 3927   3.213   0.590   1.433
 1307SOL    HW1 3928   3.241   0.547   1.518
 1307SOL    HW2 3929   3.238   0.686   1.434
 1308SOL     OW 3930   2.665   1.402   0.924
 1308SOL    HW1 3931   2.755   1.416   0.882
 1308SOL    HW2 3932   2.594   1.404   0.853
 1309SOL     OW 3933   2.784   0.503   0.899
 1309SOL    HW1 3934   2.759   0.494   0.803
 1309SOL    HW2 3935   2.832   0.421   0.930
 1310SOL     OW 3936   2.401   0.064   0.512
 1310SOL    HW1 3937   2.320   0.065   0.570
 1310SOL    HW2 3938   2.404   0.147   0.457
 1311SOL     OW 3939   3.296   1.188   0.041
 1311SOL    HW1 3940   3.328   1.112   0.098
 1311SOL    HW2 3941   3.204   1.215   0.071
 1312SOL     OW 3942   2.159   0.035   0.171
 1312SOL    HW1 3943   2.208   0.119   0.150
 1312SOL    HW2 3944   2.221  -0.030   0.216
 1313SOL     OW 3945   2.797   0.236   0.480
 1313SOL    HW1 3946   2.749   0.277   0.402
 1313SOL    HW2 3947   2.896   0.234   0.461
 1314SOL     OW 3948   2.938   0.683   1.464
 1314SOL    HW1 3949   2.858   0.622   1.467
 1314SOL    HW2 3950   3.019   0.630   1.440
 1315SOL     OW 3951   3.089   1.570   0.793
 1315SOL    HW1 3952   3.110   1.644   0.728
 1315SOL    HW2 3953   3.157   1.570   0.866
 1316SOL     OW 3954   2.321   1.152   0.741
 1316SOL    HW1 3955   2.250   1.125   0.806
 1316SOL    HW2 3956   2.295   1.124   0.648
 1317SOL     OW 3957   3.133   1.797   0.591
 1317SOL    HW1 3958   3.177   1.861   0.527
 1317SOL    HW2 3959   3.083   1.849   0.661
 1318SOL     OW 3960   2.894   0.549   0.016
 1318SOL    HW1 3961   2.853   0.631  -0.023
 1318SOL    HW2 3962   2.958   0.575   0.089
 1319SOL     OW 3963   1.940   0.556   1.386
 1319SOL    HW1 3964   2.032   0.555   1.345
 1319SOL    HW2 3965   1.934   0.630   1.453
 1320SOL     OW 3966   2.423   0.222   1.147
 1320SOL    HW1 3967   2.461   0.138   1.184
 1320SOL    HW2 3968   2.335   0.241   1.191
 1321SOL     OW 3969   2.728   0.454   0.642
 1321SOL    HW1 3970   2.696   0.526   0.580
 1321SOL    HW2 3971   2.752   0.373   0.589
 1322SOL     OW 3972   2.879   0.039   0.753
 1322SOL    HW1 3973   2.807   0.044   0.684
 1322SOL    HW2 3974   2.855  -0.030   0.822
 1323SOL     OW 3975   3.291   1.173   0.867
 1323SOL    HW1 3976   3.236   1.089   0.860
 1323SOL    HW2 3977   3.317   1.202   0.775
 1324SOL     OW 3978   3.328   0.590   0.992
 1324SOL    HW1 3979   3.298   0.495   0.999
 1324SOL    HW2 3980   3.401   0.606   1.058
 1325SOL     OW 3981   3.719   0.833   0.377
 1325SOL    HW1 3982   3.761   0.769   0.441
 1325SOL    HW2 3983   3.681   0.782   0.299
 1326SOL     OW 3984   2.350   1.385   0.174
 1326SOL    HW1 3985   2.263   1.370   0.221
 1326SOL    HW2 3986   2.333   1.411   0.079
 1327SOL     OW 3987   3.526   1.280   0.657
 1327SOL    HW1 3988   3.625   1.288   0.671
 1327SOL    HW2 3989   3.481   1.364   0.688
 1328SOL     OW 3990   3.252   0.575   0.078
 1328SOL    HW1 3991   3.198   0.554   0.159
 1328SOL    HW2 3992   3.343   0.534   0.087
 1329SOL     OW 3993   2.389   0.256   0.328
 1329SOL    HW1 3994   2.416   0.197   0.253
 1329SOL    HW2 3995   2.389   0.351   0.297
 1330SOL     OW 3996   3.616   1.223   1.588
 1330SOL    HW1 3997   3.707   1.184   1.575
 1330SOL    HW2 3998   3.624   1.319   1.612
 1331SOL     OW 3999   2.926   1.347   1.340
 1331SOL    HW1 4000   2.846   1.324   1.395
 1331SOL    HW2 4001   3.009   1.321   1.389
 1332SOL     OW 4002   3.454   1.629   1.625
 1332SOL    HW1 4003   3.481   1.663   1.535
 1332SOL    HW2 4004   3.533   1.591   1.671
 1333SOL     OW 4005   2.973   1.195   1.100
 1333SOL    HW1 4006   2.933   1.239   1.181
 1333SOL    HW2 4007   2.932   1.232   1.017
 1334SOL     OW 4008   3.500   1.099   1.079
 1334SOL    HW1 4009   3.505   1.180   1.138
 1334SOL    HW2 4010   3.414   1.101   1.028
 1335SOL     OW 4011   2.777   0.089   1.402
 1335SOL    HW1 4012   2.802   0.069   1.307
 1335SOL    HW2 4013   2.849   0.145   1.444
 1336SOL     OW 4014   2.842   1.116   1.719
 1336SOL    HW1 4015   2.743   1.122   1.729
 1336SOL    HW2 4016   2.865   1.036   1.663
 1337SOL     OW 4017   2.567   1.050   0.368
 1337SOL    HW1 4018   2.553   1.057   0.467
 1337SOL    HW2 4019   2.651   0.999   0.350
 1338SOL     OW 4020   2.272   0.813   1.251
 1338SOL    HW1 4021   2.358   0.825   1.301
 1338SOL    HW2 4022   2.230   0.726   1.278
 1339SOL     OW 4023   3.136   0.386   1.262
 1339SOL    HW1 4024   3.157   0.460   1.326
 1339SOL    HW2 4025   3.047   0.403   1.219
 1340SOL     OW 4026   1.926   1.564   1.331
 1340SOL    HW1 4027   1.880   1.646   1.297
 1340SOL    HW2 4028   2.024   1.583   1.340
 1341SOL     OW 4029   2.229   1.100   0.501
 1341SOL    HW1 4030   2.222   1.183   0.445
 1341SOL    HW2 4031   2.233   1.020   0.441
 1342SOL     OW 4032   2.428   0.537   0.865
 1342SOL    HW1 4033   2.440   0.603   0.791
 1342SOL    HW2 4034   2.474   0.571   0.948
 1343SOL     OW 4035   3.114   1.348   0.388
 1343SOL    HW1 4036   3.164   1.425   0.428
 1343SOL    HW2 4037   3.019   1.350   0.420
 1344SOL     OW 4038   3.134   1.445   1.142
 1344SOL    HW1 4039   3.181   1.458   1.229
 1344SOL    HW2 4040   3.068   1.371   1.151
 1345SOL     OW 4041   3.444   0.639   0.472
 1345SOL    HW1 4042   3.413   0.700   0.545
 1345SOL    HW2 4043   3.494   0.691   0.403
 1346SOL     OW 4044   2.216   1.510   1.329
 1346SOL    HW1 4045   2.195   1.466   1.242
 1346SOL    HW2 4046   2.313   1.536   1.332
 1347SOL     OW 4047   2.264   0.751   1.598
 1347SOL    HW1 4048   2.332   0.806   1.551
 1347SOL    HW2 4049   2.304   0.663   1.625
 1348SOL     OW 4050   3.449   0.779   1.670
 1348SOL    HW1 4051   3.357   0.817   1.665
 1348SOL    HW2 4052   3.509   0.826   1.605
 1349SOL     OW 4053   2.875   0.105   1.770
 1349SOL    HW1 4054   2.881   0.190   1.718
 1349SOL    HW2 4055   2.907   0.029   1.713
 1350SOL     OW 4056   2.366   0.050   1.740
 1350SOL    HW1 4057   2.324  -0.007   1.670
 1350SOL    HW2 4058   2.300   0.119   1.772
 1351SOL     OW 4059   2.435   0.870   1.029
 1351SOL    HW1 4060   2.479   0.959   1.020
 1351SOL    HW2 4061   2.372   0.870   1.106
 1352SOL     OW 4062   3.222   0.862   1.045
 1352SOL    HW1 4063   3.147   0.862   0.979
 1352SOL    HW2 4064   3.259   0.770   1.054
 1353SOL     OW 4065   3.071   0.525   0.275
 1353SOL    HW1 4066   3.084   0.441   0.329
 1353SOL    HW2 4067   3.042   0.599   0.335
 1354SOL     OW 4068   2.169   0.213   1.231
 1354SOL    HW1 4069   2.146   0.250   1.321
 1354SOL    HW2 4070   2.139   0.118   1.225
 1355SOL     OW 4071   1.899   1.310   1.282
 1355SOL    HW1 4072   1.952   1.261   1.350
 1355SOL    HW2 4073   1.921   1.408   1.287
 1356SOL     OW 4074   2.594   0.634   1.064
 1356SOL    HW1 4075   2.653   0.608   0.988
 1356SOL    HW2 4076   2.566   0.730   1.053
 1357SOL     OW 4077   3.590   0.935   1.854
 1357SOL    HW1 4078   3.544   0.928   1.765
 1357SOL    HW2 4079   3.528   0.979   1.920
 1358SOL     OW 4080   2.169   0.063   0.618
 1358SOL    HW1 4081   2.158   0.157   0.651
 1358SOL    HW2 4082   2.164   0.000   0.695
 1359SOL     OW 4083   3.484   0.367   0.374
 1359SOL    HW1 4084   3.486   0.291   0.438
 1359SOL    HW2 4085   3.436   0.444   0.414
 1360SOL     OW 4086   2.885   0.766   0.966
 1360SOL    HW1 4087   2.900   0.787   1.062
 1360SOL    HW2 4088   2.855   0.671   0.957
 1361SOL     OW 4089   2.842   1.573   1.700
 1361SOL    HW1 4090   2.822   1.617   1.612
 1361SOL    HW2 4091   2.881   1.482   1.684
 1362SOL     OW 4092   3.721   1.518   1.605
 1362SOL    HW1 4093   3.735   1.545   1.510
 1362SOL    HW2 4094   3.804   1.540   1.658
 1363SOL     OW 4095   2.212   0.898   1.804
 1363SOL    HW1 4096   2.288   0.942   1.852
 1363SOL    HW2 4097   2.247   0.851   1.722
 1364SOL     OW 4098   3.402   0.274   0.125
 1364SOL    HW1 4099   3.341   0.199   0.148
 1364SOL    HW2 4100   3.424   0.326   0.208
 1365SOL     OW 4101   3.165   0.838   0.042
 1365SOL    HW1 4102   3.199   0.745   0.057
 1365SOL    HW2 4103   3.183   0.865  -0.053
 1366SOL     OW 4104   2.930   1.333   0.849
 1366SOL    HW1 4105   2.937   1.249   0.794
 1366SOL    HW2 4106   2.992   1.402   0.813
 1367SOL     OW 4107   2.181   0.810   0.949
 1367SOL    HW1 4108   2.274   0.846   0.954
 1367SOL    HW2 4109   2.175   0.725   1.001
 1368SOL     OW 4110   2.201   0.509   1.006
 1368SOL    HW1 4111   2.149   0.426   0.989
 1368SOL    HW2 4112   2.278   0.514   0.942
 1369SOL     OW 4113   3.000   0.380   1.678
 1369SOL    HW1 4114   2.955   0.443   1.742
 1369SOL    HW2 4115   3.093   0.411   1.661
 1370SOL     OW 4116   3.022   0.207   1.477
 1370SOL    HW1 4117   3.022   0.271   1.554
 1370SOL    HW2 4118   3.050   0.255   1.394
 1371SOL     OW 4119   1.870   1.326   0.200
 1371SOL    HW1 4120   1.777   1.347   0.169
 1371SOL    HW2 4121   1.880   1.227   0.213
 1372SOL     OW 4122   1.950   1.801   0.927
 1372SOL    HW1 4123   1.908   1.715   0.900
 1372SOL    HW2 4124   2.044   1.804   0.893
 1373SOL     OW 4125   2.366   1.568   0.910
 1373SOL    HW1 4126   2.432   1.642   0.919
 1373SOL    HW2 4127   2.410   1.489   0.868
 1374SOL     OW 4128   2.864   0.796   1.238
 1374SOL    HW1 4129   2.905   0.764   1.324
 1374SOL    HW2 4130   2.768   0.769   1.235
 1375SOL     OW 4131   1.902   0.544   1.114
 1375SOL    HW1 4132   1.987   0.511   1.073
 1375SOL    HW2 4133   1.915   0.559   1.212
 1376SOL     OW 4134   2.051   0.520   1.722
 1376SOL    HW1 4135   2.110   0.480   1.652
 1376SOL    HW2 4136   1.993   0.591   1.681
 1377SOL     OW 4137   3.231   0.950   1.660
 1377SOL    HW1 4138   3.270   1.039   1.680
 1377SOL    HW2 4139   3.241   0.930   1.563
 1378SOL     OW 4140   2.677   0.572   0.325
 1378SOL    HW1 4141   2.684   0.483   0.279
 1378SOL    HW2 4142   2.583   0.606   0.317
 1379SOL     OW 4143   3.519   0.604   1.206
 1379SOL    HW1 4144   3.481   0.535   1.268
 1379SOL    HW2 4145   3.601   0.568   1.162
 1380SOL     OW 4146   2.114   1.564   1.744
 1380SOL    HW1 4147   2.084   1.621   1.820
 1380SOL    HW2 4148   2.107   1.467   1.770
 1381SOL     OW 4149   2.533   0.464   1.269
 1381SOL    HW1 4150   2.499   0.375   1.239
 1381SOL    HW2 4151   2.559   0.518   1.189
 1382SOL     OW 4152   2.792   1.678   1.465
 1382SOL    HW1 4153   2.768   1.660   1.370
 1382SOL    HW2 4154   2.822   1.772   1.475
 1383SOL     OW 4155   2.335   0.500   0.191
 1383SOL    HW1 4156   2.396   0.580   0.195
 1383SOL    HW2 4157   2.240   0.531   0.198
 1384SOL     OW 4158   2.021   1.137   1.466
 1384SOL    HW1 4159   2.043   1.076   1.542
 1384SOL    HW2 4160   2.031   1.088   1.380
 1385SOL     OW 4161   3.209   1.059   1.234
 1385SOL    HW1 4162   3.233   0.996   1.160
 1385SOL    HW2 4163   3.119   1.099   1.216
 1386SOL     OW 4164   3.164   0.855   0.309
 1386SOL    HW1 4165   3.078   0.824   0.351
 1386SOL    HW2 4166   3.160   0.841   0.210
 1387SOL     OW 4167   3.621   1.747   1.154
 1387SOL    HW1 4168   3.682   1.777   1.081
 1387SOL    HW2 4169   3.583   1.658   1.132
 1388SOL     OW 4170   3.114   1.731   1.128
 1388SOL    HW1 4171   3.198   1.736   1.074
 1388SOL    HW2 4172   3.091   1.635   1.146
 1389SOL     OW 4173   1.945   1.258   1.022
 1389SOL    HW1 4174   1.940   1.257   1.122
 1389SOL    HW2 4175   1.862   1.217   0.984
 1390SOL     OW 4176   2.550   1.662   1.716
 1390SOL    HW1 4177   2.494   1.743   1.725
 1390SOL    HW2 4178   2.602   1.666   1.630
 1391SOL     OW 4179   2.765   0.086   0.133
 1391SOL    HW1 4180   2.816   0.087   0.047
 1391SOL    HW2 4181   2.821   0.044   0.204
 1392SOL     OW 4182   3.588   0.135   0.523
 1392SOL    HW1 4183   3.661   0.118   0.456
 1392SOL    HW2 4184   3.557   0.048   0.561
 1393SOL     OW 4185   3.250   1.573   0.477
 1393SOL    HW1 4186   3.317   1.585   0.403
 1393SOL    HW2 4187   3.210   1.662   0.500
 1394SOL     OW 4188   1.992   1.794   1.851
 1394SOL    HW1 4189   1.951   1.720   1.904
 1394SOL    HW2 4190   2.056   1.845   1.909
 1395SOL     OW 4191   3.142   0.927   0.672
 1395SOL    HW1 4192   3.202   0.846   0.674
 1395SOL    HW2 4193   3.182   0.996   0.612
 1396SOL     OW 4194   2.692   1.273   1.422
 1396SOL    HW1 4195   2.687   1.306   1.517
 1396SOL    HW2 4196   2.606   1.292   1.376
 1397SOL     OW 4197   2.534   1.616   0.154
 1397SOL    HW1 4198   2.543   1.626   0.055
 1397SOL    HW2 4199   2.494   1.527   0.175
 1398SOL     OW 4200   3.512   1.720   1.394
 1398SOL    HW1 4201   3.565   1.730   1.310
 1398SOL    HW2 4202   3.485   1.810   1.428
 1399SOL     OW 4203   3.703   0.175   0.963
 1399SOL    HW1 4204   3.742   0.090   0.927
 1399SOL    HW2 4205   3.605   0.177   0.944
 1400SOL     OW 4206   2.125   0.326   0.720
 1400SOL    HW1 4207   2.046   0.377   0.686
 1400SOL    HW2 4208   2.116   0.311   0.818
 1401SOL     OW 4209   3.056   1.612   0.031
 1401SOL    HW1 4210   3.062   1.519   0.068
 1401SOL    HW2 4211   2.997   1.612  -0.049
 1402SOL     OW 4212   2.684   1.002   1.372
 1402SOL    HW1 4213   2.724   1.001   1.280
 1402SOL    HW2 4214   2.694   1.094   1.412
 1403SOL     OW 4215   2.778   0.910   0.291
 1403SOL    HW1 4216   2.841   0.948   0.223
 1403SOL    HW2 4217   2.818   0.827   0.330
 1404SOL     OW 4218   3.366   1.607   0.044
 1404SOL    HW1 4219   3.274   1.644   0.051
 1404SOL    HW2 4220   3.404   1.627  -0.046
 1405SOL     OW 4221   2.234   1.288   1.490
 1405SOL    HW1 4222   2.221   1.381   1.456
 1405SOL    HW2 4223   2.150   1.236   1.477
 1406SOL     OW 4224   3.476   1.292   1.289
 1406SOL    HW1 4225   3.536   1.295   1.369
 1406SOL    HW2 4226   3.401   1.356   1.302
 1407SOL     OW 4227   2.901   1.098   0.696
 1407SOL    HW1 4228   2.831   1.051   0.750
 1407SOL    HW2 4229   2.960   1.030   0.653
 1408SOL     OW 4230   2.876   0.236   0.971
 1408SOL    HW1 4231   2.868   0.200   0.878
 1408SOL    HW2 4232   2.874   0.160   1.036
 1409SOL     OW 4233   2.452   1.487   0.491
 1409SOL    HW1 4234   2.494   1.429   0.421
 1409SOL    HW2 4235   2.408   1.566   0.447
 1410SOL     OW 4236   3.571   0.385   1.381
 1410SOL    HW1 4237   3.644   0.454   1.385
 1410SOL    HW2 4238   3.599   0.310   1.322
 1411SOL     OW 4239   2.117   1.348   0.290
 1411SOL    HW1 4240   2.021   1.349   0.263
 1411SOL    HW2 4241   2.129   1.401   0.374
 1412SOL     OW 4242   1.967   1.013   1.726
 1412SOL    HW1 4243   1.890   0.980   1.780
 1412SOL    HW2 4244   2.052   0.983   1.768
 1413SOL     OW 4245   2.534   0.203   1.489
 1413SOL    HW1 4246   2.624   0.187   1.449
 1413SOL    HW2 4247   2.542   0.208   1.588
 1414SOL     OW 4248   1.937   0.345   0.033
 1414SOL    HW1 4249   1.845   0.317   0.004
 1414SOL    HW2 4250   1.968   0.422  -0.023
 1415SOL     OW 4251   3.302   0.856   1.398
 1415SOL    HW1 4252   3.245   0.908   1.335
 1415SOL    HW2 4253   3.398   0.868   1.374
 1416SOL     OW 4254   3.045   1.335   0.119
 1416SOL    HW1 4255   2.946   1.324   0.121
 1416SOL    HW2 4256   3.079   1.350   0.212
 1417SOL     OW 4257   2.475   0.842   1.431
 1417SOL    HW1 4258   2.531   0.923   1.414
 1417SOL    HW2 4259   2.534   0.762   1.434
 1418SOL     OW 4260   3.355   1.767   0.959
 1418SOL    HW1 4261   3.388   1.831   0.890
 1418SOL    HW2 4262   3.421   1.761   1.034
 1419SOL     OW 4263   2.578   0.565   1.708
 1419SOL    HW1 4264   2.597   0.630   1.782
 1419SOL    HW2 4265   2.638   0.485   1.717
 1420SOL     OW 4266   3.312   1.220   1.633
 1420SOL    HW1 4267   3.303   1.210   1.732
 1420SOL    HW2 4268   3.408   1.213   1.607
 1421SOL     OW 4269   2.252   1.741   1.560
 1421SOL    HW1 4270   2.161   1.782   1.558
 1421SOL    HW2 4271   2.245   1.647   1.592
 1422SOL     OW 4272   3.536   0.883   1.254
 1422SOL    HW1 4273   3.509   0.794   1.217
 1422SOL    HW2 4274   3.537   0.951   1.181
 1423SOL     OW 4275   3.087   0.325   0.449
 1423SOL    HW1 4276   3.152   0.251   0.438
 1423SOL    HW2 4277   3.107   0.375   0.533
 1424SOL     OW 4278   2.456   0.745   0.652
 1424SOL    HW1 4279   2.506   0.830   0.633
 1424SOL    HW2 4280   2.368   0.747   0.604
 1425SOL     OW 4281   3.639   0.342   1.642
 1425SOL    HW1 4282   3.622   0.373   1.548
 1425SOL    HW2 4283   3.555   0.305   1.680
 1426SOL     OW 4284   3.592   0.934   1.517
 1426SOL    HW1 4285   3.630   1.025   1.532
 1426SOL    HW2 4286   3.584   0.917   1.418
 1427SOL     OW 4287   2.721   1.374   0.016
 1427SOL    HW1 4288   2.675   1.389   0.104
 1427SOL    HW2 4289   2.765   1.459  -0.014
 1428SOL     OW 4290   2.523   1.790   0.953
 1428SOL    HW1 4291   2.477   1.878   0.940
 1428SOL    HW2 4292   2.622   1.802   0.946
 1429SOL     OW 4293   2.721   0.956   0.861
 1429SOL    HW1 4294   2.775   0.887   0.909
 1429SOL    HW2 4295   2.689   1.025   0.927
 1430SOL     OW 4296   2.945   0.984   0.087
 1430SOL    HW1 4297   2.922   1.037   0.005
 1430SOL    HW2 4298   3.026   0.928   0.068
 1431SOL     OW 4299   3.723   1.569   0.851
 1431SOL    HW1 4300   3.652   1.557   0.781
 1431SOL    HW2 4301   3.724   1.490   0.911
 1432SOL     OW 4302   2.083   1.314   1.844
 1432SOL    HW1 4303   2.018   1.241   1.823
 1432SOL    HW2 4304   2.087   1.328   1.942
 1433SOL     OW 4305   1.941   1.240   0.653
 1433SOL    HW1 4306   1.940   1.193   0.741
 1433SOL    HW2 4307   2.023   1.212   0.602
 1434SOL     OW 4308   2.534   1.391   1.624
 1434SOL    HW1 4309   2.456   1.341   1.662
 1434SOL    HW2 4310   2.531   1.486   1.655
 1435SOL     OW 4311   3.686   0.192   1.227
 1435SOL    HW1 4312   3.682   0.102   1.271
 1435SOL    HW2 4313   3.689   0.181   1.128
 1436SOL     OW 4314   2.290   0.424   0.520
 1436SOL    HW1 4315   2.320   0.352   0.458
 1436SOL    HW2 4316   2.251   0.384   0.603
 1437SOL     OW 4317   3.567   1.487   1.104
 1437SOL    HW1 4318   3.474   1.462   1.077
 1437SOL    HW2 4319   3.593   1.437   1.186
 1438SOL     OW 4320   2.179   0.547   1.280
 1438SOL    HW1 4321   2.217   0.488   1.352
 1438SOL    HW2 4322   2.219   0.521   1.192
 1439SOL     OW 4323   2.674   1.586   0.687
 1439SOL    HW1 4324   2.706   1.596   0.593
 1439SOL    HW2 4325   2.595   1.524   0.689
 1440SOL     OW 4326   3.286   0.214   1.112
 1440SOL    HW1 4327   3.338   0.149   1.167
 1440SOL    HW2 4328   3.237   0.277   1.173
 1441SOL     OW 4329   2.863   0.034   1.154
 1441SOL    HW1 4330   2.800  -0.038   1.123
 1441SOL    HW2 4331   2.956  -0.002   1.154
 1442SOL     OW 4332   2.632   1.330   0.301
 1442SOL    HW1 4333   2.586   1.243   0.318
 1442SOL    HW2 4334   2.723   1.327   0.342
 1443SOL     OW 4335   2.480   1.567   1.284
 1443SOL    HW1 4336   2.475   1.649   1.341
 1443SOL    HW2 4337   2.569   1.564   1.239
 1444SOL     OW 4338   3.214   0.052   0.168
 1444SOL    HW1 4339   3.249   0.011   0.084
 1444SOL    HW2 4340   3.124   0.014   0.188
 1445SOL     OW 4341   3.162   0.453   0.691
 1445SOL    HW1 4342   3.103   0.533   0.695
 1445SOL    HW2 4343   3.177   0.418   0.784
 1446SOL     OW 4344   3.455   0.221   0.882
 1446SOL    HW1 4345   3.371   0.220   0.936
 1446SOL    HW2 4346   3.457   0.304   0.826
 1447SOL     OW 4347   1.901   1.077   0.300
 1447SOL    HW1 4348   2.000   1.066   0.291
 1447SOL    HW2 4349   1.861   0.991   0.332
 1448SOL     OW 4350   2.737   1.646   0.337
 1448SOL    HW1 4351   2.660   1.611   0.283
 1448SOL    HW2 4352   2.705   1.717   0.399
 1449SOL     OW 4353   2.092   0.628   1.975
 1449SOL    HW1 4354   1.999   0.626   2.012
 1449SOL    HW2 4355   2.093   0.589   1.883
 1450SOL     OW 4356   2.087   0.275   2.858
 1450SOL    HW1 4357   2.122   0.258   2.950
 1450SOL    HW2 4358   1.999   0.230   2.846
 1451SOL     OW 4359   1.881   0.368   2.509
 1451SOL    HW1 4360   1.799   0.411   2.548
 1451SOL    HW2 4361   1.853   0.295   2.446
 1452SOL     OW 4362   2.431   1.275   3.027
 1452SOL    HW1 4363   2.338   1.268   2.990
 1452SOL    HW2 4364   2.442   1.364   3.071
 1453SOL     OW 4365   3.417   1.511   2.565
 1453SOL    HW1 4366   3.360   1.495   2.646
 1453SOL    HW2 4367   3.358   1.521   2.485
 1454SOL     OW 4368   2.997   0.703   2.579
 1454SOL    HW1 4369   3.054   0.781   2.554
 1454SOL    HW2 4370   2.937   0.729   2.655
 1455SOL     OW 4371   3.617   0.607   2.093
 1455SOL    HW1 4372   3.605   0.594   1.994
 1455SOL    HW2 4373   3.587   0.526   2.142
 1456SOL     OW 4374   2.630   1.144   2.885
 1456SOL    HW1 4375   2.552   1.161   2.945
 1456SOL    HW2 4376   2.664   1.231   2.849
 1457SOL     OW 4377   2.712   0.798   3.685
 1457SOL    HW1 4378   2.708   0.874   3.750
 1457SOL    HW2 4379   2.734   0.834   3.594
 1458SOL     OW 4380   2.547   1.012   2.527
 1458SOL    HW1 4381   2.616   0.996   2.597
 1458SOL    HW2 4382   2.474   1.069   2.565
 1459SOL     OW 4383   2.548   1.161   3.665
 1459SOL    HW1 4384   2.608   1.240   3.679
 1459SOL    HW2 4385   2.462   1.192   3.624
 1460SOL     OW 4386   2.197   1.435   2.923
 1460SOL    HW1 4387   2.119   1.404   2.870
 1460SOL    HW2 4388   2.255   1.493   2.866
 1461SOL     OW 4389   3.322   1.505   3.201
 1461SOL    HW1 4390   3.346   1.599   3.227
 1461SOL    HW2 4391   3.306   1.451   3.283
 1462SOL     OW 4392   2.300   0.392   3.361
 1462SOL    HW1 4393   2.382   0.336   3.370
 1462SOL    HW2 4394   2.219   0.334   3.365
 1463SOL     OW 4395   3.465   0.447   2.599
 1463SOL    HW1 4396   3.391   0.493   2.549
 1463SOL    HW2 4397   3.516   0.515   2.652
 1464SOL     OW 4398   2.093   1.713   2.345
 1464SOL    HW1 4399   2.127   1.790   2.399
 1464SOL    HW2 4400   2.137   1.713   2.255
 1465SOL     OW 4401   2.989   1.341   3.552
 1465SOL    HW1 4402   3.036   1.341   3.640
 1465SOL    HW2 4403   2.941   1.254   3.541
 1466SOL     OW 4404   2.092   1.434   2.400
 1466SOL    HW1 4405   2.066   1.530   2.400
 1466SOL    HW2 4406   2.021   1.380   2.445
 1467SOL     OW 4407   2.102   1.091   2.748
 1467SOL    HW1 4408   2.116   1.007   2.800
 1467SOL    HW2 4409   2.047   1.155   2.803
 1468SOL     OW 4410   2.482   1.786   3.301
 1468SOL    HW1 4411   2.390   1.769   3.336
 1468SOL    HW2 4412   2.510   1.878   3.327
 1469SOL     OW 4413   2.468   0.964   1.985
 1469SOL    HW1 4414   2.475   1.048   1.931
 1469SOL    HW2 4415   2.514   0.977   2.073
 1470SOL     OW 4416   3.456   0.114   3.342
 1470SOL    HW1 4417   3.438   0.181   3.270
 1470SOL    HW2 4418   3.453   0.160   3.431
 1471SOL     OW 4419   1.984   0.643   2.425
 1471SOL    HW1 4420   1.939   0.555   2.442
 1471SOL    HW2 4421   1.983   0.697   2.509
 1472SOL     OW 4422   3.704   1.767   2.221
 1472SOL    HW1 4423   3.758   1.738   2.301
 1472SOL    HW2 4424   3.734   1.857   2.192
 1473SOL     OW 4425   1.889   1.596   1.979
 1473SOL    HW1 4426   1.870   1.500   2.000
 1473SOL    HW2 4427   1.856   1.654   2.054
 1474SOL     OW 4428   3.551   0.922   2.474
 1474SOL    HW1 4429   3.646   0.893   2.482
 1474SOL    HW2 4430   3.543   0.987   2.399
 1475SOL     OW 4431   3.503   1.108   2.294
 1475SOL    HW1 4432   3.589   1.110   2.242
 1475SOL    HW2 4433   3.517   1.155   2.382
 1476SOL     OW 4434   1.975   0.737   3.459
 1476SOL    HW1 4435   2.063   0.724   3.504
 1476SOL    HW2 4436   1.962   0.834   3.437
 1477SOL     OW 4437   2.475   1.365   2.588
 1477SOL    HW1 4438   2.426   1.278   2.597
 1477SOL    HW2 4439   2.452   1.408   2.501
 1478SOL     OW 4440   3.155   1.228   3.285
 1478SOL    HW1 4441   3.192   1.155   3.227
 1478SOL    HW2 4442   3.207   1.233   3.370
 1479SOL     OW 4443   2.671   0.004   2.364
 1479SOL    HW1 4444   2.711   0.095   2.355
 1479SOL    HW2 4445   2.571   0.012   2.370
 1480SOL     OW 4446   2.059   0.976   3.126
 1480SOL    HW1 4447   2.148   0.931   3.112
 1480SOL    HW2 4448   1.986   0.911   3.107
 1481SOL     OW 4449   3.387   0.999   2.052
 1481SOL    HW1 4450   3.324   0.923   2.065
 1481SOL    HW2 4451   3.435   1.017   2.138
 1482SOL     OW 4452   3.049   1.792   3.478
 1482SOL    HW1 4453   3.073   1.852   3.402
 1482SOL    HW2 4454   3.056   1.697   3.448
 1483SOL     OW 4455   2.179   0.251   3.663
 1483SOL    HW1 4456   2.250   0.322   3.669
 1483SOL    HW2 4457   2.091   0.290   3.691
 1484SOL     OW 4458   3.328   1.417   2.815
 1484SOL    HW1 4459   3.269   1.423   2.895
 1484SOL    HW2 4460   3.313   1.329   2.769
 1485SOL     OW 4461   3.529   1.714   2.434
 1485SOL    HW1 4462   3.488   1.691   2.346
 1485SOL    HW2 4463   3.511   1.640   2.499
 1486SOL     OW 4464   2.460   0.729   2.132
 1486SOL    HW1 4465   2.484   0.798   2.064
 1486SOL    HW2 4466   2.382   0.762   2.186
 1487SOL     OW 4467   3.143   0.345   2.806
 1487SOL    HW1 4468   3.057   0.295   2.793
 1487SOL    HW2 4469   3.205   0.291   2.862
 1488SOL     OW 4470   3.438   1.662   2.169
 1488SOL    HW1 4471   3.527   1.708   2.172
 1488SOL    HW2 4472   3.417   1.638   2.074
 1489SOL     OW 4473   2.669   0.605   3.327
 1489SOL    HW1 4474   2.622   0.602   3.416
 1489SOL    HW2 4475   2.618   0.550   3.261
 1490SOL     OW 4476   3.256   0.469   3.536
 1490SOL    HW1 4477   3.236   0.512   3.624
 1490SOL    HW2 4478   3.334   0.407   3.545
 1491SOL     OW 4479   2.835   0.890   3.434
 1491SOL    HW1 4480   2.881   0.806   3.405
 1491SOL    HW2 4481   2.779   0.924   3.359
 1492SOL     OW 4482   2.853   0.410   3.104
 1492SOL    HW1 4483   2.776   0.444   3.158
 1492SOL    HW2 4484   2.819   0.359   3.025
 1493SOL     OW 4485   2.903   0.701   2.291
 1493SOL    HW1 4486   2.929   0.697   2.387
 1493SOL    HW2 4487   2.818   0.650   2.277
 1494SOL     OW 4488   1.938   0.811   2.651
 1494SOL    HW1 4489   2.037   0.799   2.660
 1494SOL    HW2 4490   1.914   0.906   2.672
 1495SOL     OW 4491   1.992   1.821   3.433
 1495SOL    HW1 4492   1.982   1.806   3.532
 1495SOL    HW2 4493   1.906   1.857   3.397
 1496SOL     OW 4494   2.727   0.348   2.057
 1496SOL    HW1 4495   2.786   0.411   2.008
 1496SOL    HW2 4496   2.746   0.254   2.028
 1497SOL     OW 4497   3.581   0.585   3.693
 1497SOL    HW1 4498   3.555   0.674   3.657
 1497SOL    HW2 4499   3.579   0.517   3.620
 1498SOL     OW 4500   3.224   1.144   2.407
 1498SOL    HW1 4501   3.307   1.115   2.359
 1498SOL    HW2 4502   3.175   1.211   2.351
 1499SOL     OW 4503   2.412   0.196   2.747
 1499SOL    HW1 4504   2.407   0.191   2.847
 1499SOL    HW2 4505   2.414   0.292   2.718
 1500SOL     OW 4506   2.870   1.456   2.339
 1500SOL    HW1 4507   2.824   1.528   2.287
 1500SOL    HW2 4508   2.866   1.476   2.437
 1501SOL     OW 4509   2.213   1.801   2.715
 1501SOL    HW1 4510   2.263   1.715   2.721
 1501SOL    HW2 4511   2.278   1.878   2.712
 1502SOL     OW 4512   3.657   1.066   2.735
 1502SOL    HW1 4513   3.595   1.051   2.659
 1502SOL    HW2 4514   3.605   1.077   2.820
 1503SOL     OW 4515   3.089   1.550   3.368
 1503SOL    HW1 4516   3.095   1.473   3.432
 1503SOL    HW2 4517   3.037   1.524   3.288
 1504SOL     OW 4518   2.183   0.943   2.104
 1504SOL    HW1 4519   2.265   0.982   2.062
 1504SOL    HW2 4520   2.156   0.861   2.055
 1505SOL     OW 4521   3.320   0.735   2.590
 1505SOL    HW1 4522   3.315   0.670   2.665
 1505SOL    HW2 4523   3.400   0.794   2.603
 1506SOL     OW 4524   2.323   1.266   3.589
 1506SOL    HW1 4525   2.273   1.267   3.503
 1506SOL    HW2 4526   2.260   1.248   3.665
 1507SOL     OW 4527   2.973   1.776   2.099
 1507SOL    HW1 4528   2.913   1.714   2.149
 1507SOL    HW2 4529   3.004   1.732   2.014
 1508SOL     OW 4530   2.064   0.285   3.360
 1508SOL    HW1 4531   1.984   0.345   3.347
 1508SOL    HW2 4532   2.054   0.236   3.446
 1509SOL     OW 4533   3.494   1.377   1.943
 1509SOL    HW1 4534   3.462   1.471   1.933
 1509SOL    HW2 4535   3.418   1.314   1.931
 1510SOL     OW 4536   2.326   1.743   2.185
 1510SOL    HW1 4537   2.359   1.782   2.271
 1510SOL    HW2 4538   2.402   1.736   2.120
 1511SOL     OW 4539   3.262   0.107   2.288
 1511SOL    HW1 4540   3.238   0.070   2.198
 1511SOL    HW2 4541   3.361   0.123   2.292
 1512SOL     OW 4542   2.111   1.785   3.103
 1512SOL    HW1 4543   2.168   1.720   3.153
 1512SOL    HW2 4544   2.095   1.752   3.010
 1513SOL     OW 4545   2.802   1.698   2.766
 1513SOL    HW1 4546   2.882   1.641   2.787
 1513SOL    HW2 4547   2.753   1.658   2.689
 1514SOL     OW 4548   2.244   0.700   2.342
 1514SOL    HW1 4549   2.289   0.610   2.339
 1514SOL    HW2 4550   2.150   0.689   2.375
 1515SOL     OW 4551   3.409   0.222   3.591
 1515SOL    HW1 4552   3.404   0.259   3.683
 1515SOL    HW2 4553   3.337   0.153   3.579
 1516SOL     OW 4554   2.476   0.122   1.979
 1516SOL    HW1 4555   2.574   0.100   1.986
 1516SOL    HW2 4556   2.445   0.105   1.886
 1517SOL     OW 4557   2.643   0.264   3.611
 1517SOL    HW1 4558   2.710   0.203   3.654
 1517SOL    HW2 4559   2.570   0.283   3.676
 1518SOL     OW 4560   2.750   1.514   3.057
 1518SOL    HW1 4561   2.727   1.489   2.963
 1518SOL    HW2 4562   2.811   1.445   3.096
 1519SOL     OW 4563   3.213   0.590   3.295
 1519SOL    HW1 4564   3.241   0.547   3.380
 1519SOL    HW2 4565   3.238   0.686   3.296
 1520SOL     OW 4566   2.665   1.402   2.786
 1520SOL    HW1 4567   2.755   1.416   2.744
 1520SOL    HW2 4568   2.594   1.404   2.715
 1521SOL     OW 4569   2.784   0.503   2.761
 1521SOL    HW1 4570   2.759   0.494   2.665
 1521SOL    HW2 4571   2.832   0.421   2.792
 1522SOL     OW 4572   2.401   0.064   2.374
 1522SOL    HW1 4573   2.320   0.065   2.432
 1522SOL    HW2 4574   2.404   0.147   2.319
 1523SOL     OW 4575   3.296   1.188   1.903
 1523SOL    HW1 4576   3.328   1.112   1.960
 1523SOL    HW2 4577   3.204   1.215   1.933
 1524SOL     OW 4578   2.159   0.035   2.033
 1524SOL    HW1 4579   2.208   0.119   2.012
 1524SOL    HW2 4580   2.221  -0.030   2.078
 1525SOL     OW 4581   2.797   0.236   2.342
 1525SOL    HW1 4582   2.749   0.277   2.264
 1525SOL    HW2 4583   2.896   0.234   2.323
 1526SOL     OW 4584   2.938   0.683   3.326
 1526SOL    HW1 4585   2.858   0.622   3.329
 1526SOL    HW2 4586   3.019   0.630   3.302
 1527SOL     OW 4587   3.089   1.570   2.655
 1527SOL    HW1 4588   3.110   1.644   2.590
 1527SOL    HW2 4589   3.157   1.570   2.728
 1528SOL     OW 4590   2.321   1.152   2.603
 1528SOL    HW1 4591   2.250   1.125   2.668
 1528SOL    HW2 4592   2.295   1.124   2.510
 1529SOL     OW 4593   3.133   1.797   2.453
 1529SOL    HW1 4594   3.177   1.861   2.389
 1529SOL    HW2 4595   3.083   1.849   2.523
 1530SOL     OW 4596   2.894   0.549   1.878
 1530SOL    HW1 4597   2.853   0.631   1.839
 1530SOL    HW2 4598   2.958   0.575   1.951
 1531SOL     OW 4599   1.940   0.556   3.248
 1531SOL    HW1 4600   2.032   0.555   3.207
 1531SOL    HW2 4601   1.934   0.630   3.315
 1532SOL     OW 4602   2.423   0.222   3.009
 1532SOL    HW1 4603   2.461   0.138   3.046
 1532SOL    HW2 4604   2.335   0.241   3.053
 1533SOL     OW 4605   2.728   0.454   2.504
 1533SOL    HW1 4606   2.696   0.526   2.442
 1533SOL    HW2 4607   2.752   0.373   2.451
 1534SOL     OW 4608   2.879   0.039   2.615
 1534SOL    HW1 4609   2.807   0.044   2.546
 1534SOL    HW2 4610   2.855  -0.030   2.684
 1535SOL     OW 4611   3.291   1.173   2.729
 1535SOL    HW1 4612   3.236   1.089   2.722
 1535SOL    HW2 4613   3.317   1.202   2.637
 1536SOL     OW 4614   3.328   0.590   2.854
 1536SOL    HW1 4615   3.298   0.495   2.861
 1536SOL    HW2 4616   3.401   0.606   2.920
 1537SOL     OW 4617   3.719   0.833   2.239
 1537SOL    HW1 4618   3.761   0.769   2.303
 1537SOL    HW2 4619   3.681   0.782   2.161
 1538SOL     OW 4620   2.350   1.385   2.036
 1538SOL    HW1 4621   2.263   1.370   2.083
 1538SOL    HW2 4622   2.333   1.411   1.941
 1539SOL     OW 4623   3.526   1.280   2.519
 1539SOL    HW1 4624   3.625   1.288   2.533
 1539SOL    HW2 4625   3.481   1.364   2.550
 1540SOL     OW 4626   3.252   0.575   1.940
 1540SOL    HW1 4627   3.198   0.554   2.021
 1540SOL    HW2 4628   3.343   0.534   1.949
 1541SOL     OW 4629   2.389   0.256   2.190
 1541SOL    HW1 4630   2.416   0.197   2.115
 1541SOL    HW2 4631   2.389   0.351   2.159
 1542SOL     OW 4632   3.616   1.223   3.450
 1542SOL    HW1 4633   3.707   1.184   3.437
 1542SOL    HW2 4634   3.624   1.319   3.474
 1543SOL     OW 4635   2.926   1.347   3.202
 1543SOL    HW1 4636   2.846   1.324   3.257
 1543SOL    HW2 4637   3.009   1.321   3.251
 1544SOL     OW 4638   3.454   1.629   3.487
 1544SOL    HW1 4639   3.481   1.663   3.397
 1544SOL    HW2 4640   3.533   1.591   3.533
 1545SOL     OW 4641   2.973   1.195   2.962
 1545SOL    HW1 4642   2.933   1.239   3.043
 1545SOL    HW2 4643   2.932   1.232   2.879
 1546SOL     OW 4644   3.500   1.099   2.941
 1546SOL    HW1 4645   3.505   1.180   3.000
 1546SOL    HW2 4646   3.414   1.101   2.890
 1547SOL     OW 4647   2.777   0.089   3.264
 1547SOL    HW1 4648   2.802   0.069   3.169
 1547SOL    HW2 4649   2.849   0.145   3.306
 1548SOL     OW 4650   2.842   1.116   3.581
 1548SOL    HW1 4651   2.743   1.122   3.591
 1548SOL    HW2 4652   2.865   1.036   3.525
 1549SOL     OW 4653   2.567   1.050   2.230
 1549SOL    HW1 4654   2.553   1.057   2.329
 1549SOL    HW2 4655   2.651   0.999   2.212
 1550SOL     OW 4656   2.272   0.813   3.113
 1550SOL    HW1 4657   2.358   0.825   3.163
 1550SOL    HW2 4658   2.230   0.726   3.140
 1551SOL     OW 4659   3.136   0.386   3.124
 1551SOL    HW1 4660   3.157   0.460   3.188
 1551SOL    HW2 4661   3.047   0.403   3.081
 1552SOL     OW 4662   1.926   1.564   3.193
 1552SOL    HW1 4663   1.880   1.646   3.159
 1552SOL    HW2 4664   2.024   1.583   3.202
 1553SOL     OW 4665   2.229   1.100   2.363
 1553SOL    HW1 4666   2.222   1.183   2.307
 1553SOL    HW2 4667   2.233   1.020   2.303
 1554SOL     OW 4668   2.428   0.537   2.727
 1554SOL    HW1 4669   2.440   0.603   2.653
 1554SOL    HW2 4670   2.474   0.571   2.810
 1555SOL     OW 4671   3.114   1.348   2.250
 1555SOL    HW1 4672   3.164   1.425   2.290
 1555SOL    HW2 4673   3.019   1.350   2.282
 1556SOL     OW 4674   3.134   1.445   3.004
 1556SOL    HW1 4675   3.181   1.458   3.091
 1556SOL    HW2 4676   3.068   1.371   3.013
 1557SOL     OW 4677   3.444   0.639   2.334
 1557SOL    HW1 4678   3.413   0.700   2.407
 1557SOL    HW2 4679   3.494   0.691   2.265
 1558SOL     OW 4680   2.216   1.510   3.191
 1558SOL    HW1 4681   2.195   1.466   3.104
 1558SOL    HW2 4682   2.313   1.536   3.194
 1559SOL     OW 4683   2.264   0.751   3.460
 1559SOL    HW1 4684   2.332   0.806   3.413
 1559SOL    HW2 4685   2.304   0.663   3.487
 1560SOL     OW 4686   3.449   0.779   3.532
 1560SOL    HW1 4687   3.357   0.817   3.527
 1560SOL    HW2 4688   3.509   0.826   3.467
 1561SOL     OW 4689   2.875   0.105   3.632
 1561SOL    HW1 4690   2.881   0.190   3.580
 1561SOL    HW2 4691   2.907   0.029   3.575
 1562SOL     OW 4692   2.366   0.050   3.602
 1562SOL    HW1 4693   2.324  -0.007   3.532
 1562SOL    HW2 4694   2.300   0.119   3.634
 1563SOL     OW 4695   2.435   0.870   2.891
 1563SOL    HW1 4696   2.479   0.959   2.882
 1563SOL    HW2 4697   2.372   0.870   2.968
 1564SOL     OW 4698   3.222   0.862   2.907
 1564SOL    HW1 4699   3.147   0.862   2.841
 1564SOL    HW2 4700   3.259   0.770   2.916
 1565SOL     OW 4701   3.071   0.525   2.137
 1565SOL    HW1 4702   3.084   0.441   2.191
 1565SOL    HW2 4703   3.042   0.599   2.197
 1566SOL     OW 4704   2.169   0.213   3.093
 1566SOL    HW1 4705   2.146   0.250   3.183
 1566SOL    HW2 4706   2.139   0.118   3.087
 1567SOL     OW 4707   1.899   1.310   3.144
 1567SOL    HW1 4708   1.952   1.261   3.212
 1567SOL    HW2 4709   1.921   1.408   3.149
 1568SOL     OW 4710   2.594   0.634   2.926
 1568SOL    HW1 4711   2.653   0.608   2.850
 1568SOL    HW2 4712   2.566   0.730   2.915
 1569SOL     OW 4713   3.590   0.935   3.716
 1569SOL    HW1 4714   3.544   0.928   3.627
 1569SOL    HW2 4715   3.528   0.979   3.782
 1570SOL     OW 4716   2.169   0.063   2.480
 1570SOL    HW1 4717   2.158   0.157   2.513
 1570SOL    HW2 4718   2.164   0.000   2.557
 1571SOL     OW 4719   3.484   0.367   2.236
 1571SOL    HW1 4720   3.486   0.291   2.300
 1571SOL    HW2 4721   3.436   0.444   2.276
 1572SOL     OW 4722   2.885   0.766   2.828
 1572SOL    HW1 4723   2.900   0.787   2.924
 1572SOL    HW2 4724   2.855   0.671   2.819
 1573SOL     OW 4725   2.842   1.573   3.562
 1573SOL    HW1 4726   2.822   1.617   3.474
 1573SOL    HW2 4727   2.881   1.482   3.546
 1574SOL     OW 4728   3.721   1.518   3.467
 1574SOL    HW1 4729   3.735   1.545   3.372
 1574SOL    HW2 4730   3.804   1.540   3.520
 1575SOL     OW 4731   2.212   0.898   3.666
 1575SOL    HW1 4732   2.288   0.942   3.714
 1575SOL    HW2 4733   2.247   0.851   3.584
 1576SOL     OW 4734   3.402   0.274   1.987
 1576SOL    HW1 4735   3.341   0.199   2.010
 1576SOL    HW2 4736   3.424   0.326   2.070
 1577SOL     OW 4737   3.165   0.838   1.904
 1577SOL    HW1 4738   3.199   0.745   1.919
 1577SOL    HW2 4739   3.183   0.865   1.809
 1578SOL     OW 4740   2.930   1.333   2.711
 1578SOL    HW1 4741   2.937   1.249   2.656
 1578SOL    HW2 4742   2.992   1.402   2.675
 1579SOL     OW 4743   2.181   0.810   2.811
 1579SOL    HW1 4744   2.274   0.846   2.816
 1579SOL    HW2 4745   2.175   0.725   2.863
 1580SOL     OW 4746   2.201   0.509   2.868
 1580SOL    HW1 4747   2.149   0.426   2.851
 1580SOL    HW2 4748   2.278   0.514   2.804
 1581SOL     OW 4749   3.000   0.380   3.540
 1581SOL    HW1 4750   2.955   0.443   3.604
 1581SOL    HW2 4751   3.093   0.411   3.523
 1582SOL     OW 4752   3.022   0.207   3.339
 1582SOL    HW1 4753   3.022   0.271   3.416
 1582SOL    HW2 4754   3.050   0.255   3.256
 1583SOL     OW 4755   1.870   1.326   2.062
 1583SOL    HW1 4756   1.777   1.347   2.031
 1583SOL    HW2 4757   1.880   1.227   2.075
 1584SOL     OW 4758   1.950   1.801   2.789
 1584SOL    HW1 4759   1.908   1.715   2.762
 1584SOL    HW2 4760   2.044   1.804   2.755
 1585SOL     OW 4761   2.366   1.568   2.772
 1585SOL    HW1 4762   2.432   1.642   2.781
 1585SOL    HW2 4763   2.410   1.489   2.730
 1586SOL     OW 4764   2.864   0.796   3.100
 1586SOL    HW1 4765   2.905   0.764   3.186
 1586SOL    HW2 4766   2.768   0.769   3.097
 1587SOL     OW 4767   1.902   0.544   2.976
 1587SOL    HW1 4768   1.987   0.511   2.935
 1587SOL    HW2 4769   1.915   0.559   3.074
 1588SOL     OW 4770   2.051   0.520   3.584
 1588SOL    HW1 4771   2.110   0.480   3.514
 1588SOL    HW2 4772   1.993   0.591   3.543
 1589SOL     OW 4773   3.231   0.950   3.522
 1589SOL    HW1 4774   3.270   1.039   3.542
 1589SOL    HW2 4775   3.241   0.930   3.425
 1590SOL     OW 4776   2.677   0.572   2.187
 1590SOL    HW1 4777   2.684   0.483   2.141
 1590SOL    HW2 4778   2.583   0.606   2.179
 1591SOL     OW 4779   3.519   0.604   3.068
 1591SOL    HW1 4780   3.481   0.535   3.130
 1591SOL    HW2 4781   3.601   0.568   3.024
 1592SOL     OW 4782   2.114   1.564   3.606
 1592SOL    HW1 4783   2.084   1.621   3.682
 1592SOL    HW2 4784   2.107   1.467   3.632
 1593SOL     OW 4785   2.533   0.464   3.131
 1593SOL    HW1 4786   2.499   0.375   3.101
 1593SOL    HW2 4787   2.559   0.518   3.051
 1594SOL     OW 4788   2.792   1.678   3.327
 1594SOL    HW1 4789   2.768   1.660   3.232
 1594SOL    HW2 4790   2.822   1.772   3.337
 1595SOL     OW 4791   2.335   0.500   2.053
 1595SOL    HW1 4792   2.396   0.580   2.057
 1595SOL    HW2 4793   2.240   0.531   2.060
 1596SOL     OW 4794   2.021   1.137   3.328
 1596SOL    HW1 4795   2.043   1.076   3.404
 1596SOL    HW2 4796   2.031   1.088   3.242
 1597SOL     OW 4797   3.209   1.059   3.096
 1597SOL    HW1 4798   3.233   0.996   3.022
 1597SOL    HW2 4799   3.119   1.099   3.078
 1598SOL     OW 4800   3.164   0.855   2.171
 1598SOL    HW1 4801   3.078   0.824   2.213
 1598SOL    HW2 4802   3.160   0.841   2.072
 1599SOL     OW 4803   3.621   1.747   3.016
 1599SOL    HW1 4804   3.682   1.777   2.943
 1599SOL    HW2 4805   3.583   1.658   2.994
 1600SOL     OW 4806   3.114   1.731   2.990
 1600SOL    HW1 4807   3.198   1.736   2.936
 1600SOL    HW2 4808   3.091   1.635   3.008
 1601SOL     OW 4809   1.945   1.258   2.884
 1601SOL    HW1 4810   1.940   1.257   2.984
 1601SOL    HW2 4811   1.862   1.217   2.846
 1602SOL     OW 4812   2.550   1.662   3.578
 1602SOL    HW1 4813   2.494   1.743   3.587
 1602SOL    HW2 4814   2.602   1.666   3.492
 1603SOL     OW 4815   3.588   0.135   2.385
 1603SOL    HW1 4816   3.661   0.118   2.318
 1603SOL    HW2 4817   3.557   0.048   2.423
 1604SOL     OW 4818   3.250   1.573   2.339
 1604SOL    HW1 4819   3.317   1.585   2.265
 1604SOL    HW2 4820   3.210   1.662   2.362
 1605SOL     OW 4821   1.992   1.794   3.713
 1605SOL    HW1 4822   1.951   1.720   3.766
 1605SOL    HW2 4823   2.056   1.845   3.771
 1606SOL     OW 4824   3.142   0.927   2.534
 1606SOL    HW1 4825   3.202   0.846   2.536
 1606SOL    HW2 4826   3.182   0.996   2.474
 1607SOL     OW 4827   2.692   1.273   3.284
 1607SOL    HW1 4828   2.687   1.306   3.379
 1607SOL    HW2 4829   2.606   1.292   3.238
 1608SOL     OW 4830   2.534   1.616   2.016
 1608SOL    HW1 4831   2.543   1.626   1.917
 1608SOL    HW2 4832   2.494   1.527   2.037
 1609SOL     OW 4833   3.512   1.720   3.256
 1609SOL    HW1 4834   3.565   1.730   3.172
 1609SOL    HW2 4835   3.485   1.810   3.290
 1610SOL     OW 4836   3.703   0.175   2.825
 1610SOL    HW1 4837   3.742   0.090   2.789
 1610SOL    HW2 4838   3.605   0.177   2.806
 1611SOL     OW 4839   2.125   0.326   2.582
 1611SOL    HW1 4840   2.046   0.377   2.548
 1611SOL    HW2 4841   2.116   0.311   2.680
 1612SOL     OW 4842   3.056   1.612   1.893
 1612SOL    HW1 4843   3.062   1.519   1.930
 1612SOL    HW2 4844   2.997   1.612   1.813
 1613SOL     OW 4845   2.684   1.002   3.234
 1613SOL    HW1 4846   2.724   1.001   3.142
 1613SOL    HW2 4847   2.694   1.094   3.274
 1614SOL     OW 4848   2.778   0.910   2.153
 1614SOL    HW1 4849   2.841   0.948   2.085
 1614SOL    HW2 4850   2.818   0.827   2.192
 1615SOL     OW 4851   3.366   1.607   1.906
 1615SOL    HW1 4852   3.274   1.644   1.913
 1615SOL    HW2 4853   3.404   1.627   1.816
 1616SOL     OW 4854   2.234   1.288   3.352
 1616SOL    HW1 4855   2.221   1.381   3.318
 1616SOL    HW2 4856   2.150   1.236   3.339
 1617SOL     OW 4857   3.476   1.292   3.151
 1617SOL    HW1 4858   3.536   1.295   3.231
 1617SOL    HW2 4859   3.401   1.356   3.164
 1618SOL     OW 4860   2.901   1.098   2.558
 1618SOL    HW1 4861   2.831   1.051   2.612
 1618SOL    HW2 4862   2.960   1.030   2.515
 1619SOL     OW 4863   2.876   0.236   2.833
 1619SOL    HW1 4864   2.868   0.200   2.740
 1619SOL    HW2 4865   2.874   0.160   2.898
 1620SOL     OW 4866   2.452   1.487   2.353
 1620SOL    HW1 4867   2.494   1.429   2.283
 1620SOL    HW2 4868   2.408   1.566   2.309
 1621SOL     OW 4869   3.571   0.385   3.243
 1621SOL    HW1 4870   3.644   0.454   3.247
 1621SOL    HW2 4871   3.599   0.310   3.184
 1622SOL     OW 4872   2.117   1.348   2.152
 1622SOL    HW1 4873   2.021   1.349   2.125
 1622SOL    HW2 4874   2.129   1.401   2.236
 1623SOL     OW 4875   1.967   1.013   3.588
 1623SOL    HW1 4876   1.890   0.980   3.642
 1623SOL    HW2 4877   2.052   0.983   3.630
 1624SOL     OW 4878   2.534   0.203   3.351
 1624SOL    HW1 4879   2.624   0.187   3.311
 1624SOL    HW2 4880   2.542   0.208   3.450
 1625SOL     OW 4881   1.937   0.345   1.895
 1625SOL    HW1 4882   1.845   0.317   1.866
 1625SOL    HW2 4883   1.968   0.422   1.839
 1626SOL     OW 4884   3.302   0.856   3.260
 1626SOL    HW1 4885   3.245   0.908   3.197
 1626SOL    HW2 4886   3.398   0.868   3.236
 1627SOL     OW 4887   1.934   0.166   2.180
 1627SOL    HW1 4888   1.917   0.249   2.126
 1627SOL    HW2 4889   2.024   0.129   2.158
 1628SOL     OW 4890   3.045   1.335   1.981
 1628SOL    HW1 4891   2.946   1.324   1.983
 1628SOL    HW2 4892   3.079   1.350   2.074
 1629SOL     OW 4893   2.475   0.842   3.293
 1629SOL    HW1 4894   2.531   0.923   3.276
 1629SOL    HW2 4895   2.534   0.762   3.296
 1630SOL     OW 4896   3.355   1.767   2.821
 1630SOL    HW1 4897   3.388   1.831   2.752
 1630SOL    HW2 4898   3.421   1.761   2.896
 1631SOL     OW 4899   2.578   0.565   3.570
 1631SOL    HW1 4900   2.597   0.630   3.644
 1631SOL    HW2 4901   2.638   0.485   3.579
 1632SOL     OW 4902   3.312   1.220   3.495
 1632SOL    HW1 4903   3.303   1.210   3.594
 1632SOL    HW2 4904   3.408   1.213   3.469
 1633SOL     OW 4905   2.252   1.741   3.422
 1633SOL    HW1 4906   2.161   1.782   3.420
 1633SOL    HW2 4907   2.245   1.647   3.454
 1634SOL     OW 4908   3.536   0.883   3.116
 1634SOL    HW1 4909   3.509   0.794   3.079
 1634SOL    HW2 4910   3.537   0.951   3.043
 1635SOL     OW 4911   3.087   0.325   2.311
 1635SOL    HW1 4912   3.152   0.251   2.300
 1635SOL    HW2 4913   3.107   0.375   2.395
 1636SOL     OW 4914   2.456   0.745   2.514
 1636SOL    HW1 4915   2.506   0.830   2.495
 1636SOL    HW2 4916   2.368   0.747   2.466
 1637SOL     OW 4917   3.639   0.342   3.504
 1637SOL    HW1 4918   3.622   0.373   3.410
 1637SOL    HW2 4919   3.555   0.305   3.542
 1638SOL     OW 4920   3.592   0.934   3.379
 1638SOL    HW1 4921   3.630   1.025   3.394
 1638SOL    HW2 4922   3.584   0.917   3.280
 1639SOL     OW 4923   2.721   1.374   1.878
 1639SOL    HW1 4924   2.675   1.389   1.966
 1639SOL    HW2 4925   2.765   1.459   1.848
 1640SOL     OW 4926   2.523   1.790   2.815
 1640SOL    HW1 4927   2.477   1.878   2.802
 1640SOL    HW2 4928   2.622   1.802   2.808
 1641SOL     OW 4929   2.721   0.956   2.723
 1641SOL    HW1 4930   2.775   0.887   2.771
 1641SOL    HW2 4931   2.689   1.025   2.789
 1642SOL     OW 4932   2.945   0.984   1.949
 1642SOL    HW1 4933   2.922   1.037   1.867
 1642SOL    HW2 4934   3.026   0.928   1.930
 1643SOL     OW 4935   3.723   1.569   2.713
 1643SOL    HW1 4936   3.652   1.557   2.643
 1643SOL    HW2 4937   3.724   1.490   2.773
 1644SOL     OW 4938   2.083   1.314   3.706
 1644SOL    HW1 4939   2.018   1.241   3.685
 1644SOL    HW2 4940   2.087   1.328   3.804
 1645SOL     OW 4941   1.941   1.240   2.515
 1645SOL    HW1 4942   1.940   1.193   2.603
 1645SOL    HW2 4943   2.023   1.212   2.464
 1646SOL     OW 4944   2.534   1.391   3.486
 1646SOL    HW1 4945   2.456   1.341   3.524
 1646SOL    HW2 4946   2.531   1.486   3.517
 1647SOL     OW 4947   3.686   0.192   3.089
 1647SOL    HW1 4948   3.682   0.102   3.133
 1647SOL    HW2 4949   3.689   0.181   2.990
 1648SOL     OW 4950   2.290   0.424   2.382
 1648SOL    HW1 4951   2.320   0.352   2.320
 1648SOL    HW2 4952   2.251   0.384   2.465
 1649SOL     OW 4953   3.567   1.487   2.966
 1649SOL    HW1 4954   3.474   1.462   2.939
 1649SOL    HW2 4955   3.593   1.437   3.048
 1650SOL     OW 4956   2.179   0.547   3.142
 1650SOL    HW1 4957   2.217   0.488   3.214
 1650SOL    HW2 4958   2.219   0.521   3.054
 1651SOL     OW 4959   2.674   1.586   2.549
 1651SOL    HW1 4960   2.706   1.596   2.455
 1651SOL    HW2 4961   2.595   1.524   2.551
 1652SOL     OW 4962   3.286   0.214   2.974
 1652SOL    HW1 4963   3.338   0.149   3.029
 1652SOL    HW2 4964   3.237   0.277   3.035
 1653SOL     OW 4965   2.863   0.034   3.016
 1653SOL    HW1 4966   2.800  -0.038   2.985
 1653SOL    HW2 4967   2.956  -0.002   3.016
 1654SOL     OW 4968   2.632   1.330   2.163
 1654SOL    HW1 4969   2.586   1.243   2.180
 1654SOL    HW2 4970   2.723   1.327   2.204
 1655SOL     OW 4971   2.480   1.567   3.146
 1655SOL    HW1 4972   2.475   1.649   3.203
 1655SOL    HW2 4973   2.569   1.564   3.101
 1656SOL     OW 4974   3.214   0.052   2.030
 1656SOL    HW1 4975   3.249   0.011   1.946
 1656SOL    HW2 4976   3.124   0.014   2.050
 1657SOL     OW 4977   3.162   0.453   2.553
 1657SOL    HW1 4978   3.103   0.533   2.557
 1657SOL    HW2 4979   3.177   0.418   2.646
 1658SOL     OW 4980   3.455   0.221   2.744
 1658SOL    HW1 4981   3.371   0.220   2.798
 1658SOL    HW2 4982   3.457   0.304   2.688
 1659SOL     OW 4983   1.901   1.077   2.162
 1659SOL    HW1 4984   2.000   1.066   2.153
 1659SOL    HW2 4985   1.861   0.991   2.194
 1660SOL     OW 4986   2.737   1.646   2.199
 1660SOL    HW1 4987   2.660   1.611   2.145
 1660SOL    HW2 4988   2.705   1.717   2.261
 1661SOL     OW 4989   2.092   0.628   3.837
 1661SOL    HW1 4990   1.999   0.626   3.874
 1661SOL    HW2 4991   2.093   0.589   3.745
 1662SOL     OW 4992   2.087   0.275   4.720
 1662SOL    HW1 4993   2.122   0.258   4.812
 1662SOL    HW2 4994   1.999   0.230   4.708
 1663SOL     OW 4995   3.617   0.607   3.955
 1663SOL    HW1 4996   3.605   0.594   3.856
 1663SOL    HW2 4997   3.587   0.526   4.004
 1664SOL     OW 4998   2.547   1.012   4.389
 1664SOL    HW1 4999   2.616   0.996   4.459
 1664SOL    HW2 5000   2.474   1.069   4.427
 1665SOL     OW 5001   3.465   0.447   4.461
 1665SOL    HW1 5002   3.391   0.493   4.411
 1665SOL    HW2 5003   3.516   0.515   4.514
 1666SOL     OW 5004   2.093   1.713   4.207
 1666SOL    HW1 5005   2.127   1.790   4.261
 1666SOL    HW2 5006   2.137   1.713   4.117
 1667SOL     OW 5007   2.092   1.434   4.262
 1667SOL    HW1 5008   2.066   1.530   4.262
 1667SOL    HW2 5009   2.021   1.380   4.307
 1668SOL     OW 5010   2.468   0.964   3.847
 1668SOL    HW1 5011   2.475   1.048   3.793
 1668SOL    HW2 5012   2.514   0.977   3.935
 1669SOL     OW 5013   1.984   0.643   4.287
 1669SOL    HW1 5014   1.939   0.555   4.304
 1669SOL    HW2 5015   1.983   0.697   4.371
 1670SOL     OW 5016   3.704   1.767   4.083
 1670SOL    HW1 5017   3.758   1.738   4.163
 1670SOL    HW2 5018   3.734   1.857   4.054
 1671SOL     OW 5019   1.889   1.596   3.841
 1671SOL    HW1 5020   1.870   1.500   3.862
 1671SOL    HW2 5021   1.856   1.654   3.916
 1672SOL     OW 5022   3.551   0.922   4.336
 1672SOL    HW1 5023   3.646   0.893   4.344
 1672SOL    HW2 5024   3.543   0.987   4.261
 1673SOL     OW 5025   3.503   1.108   4.156
 1673SOL    HW1 5026   3.589   1.110   4.104
 1673SOL    HW2 5027   3.517   1.155   4.244
 1674SOL     OW 5028   2.475   1.365   4.450
 1674SOL    HW1 5029   2.426   1.278   4.459
 1674SOL    HW2 5030   2.452   1.408   4.363
 1675SOL     OW 5031   2.671   0.004   4.226
 1675SOL    HW1 5032   2.711   0.095   4.217
 1675SOL    HW2 5033   2.571   0.012   4.232
 1676SOL     OW 5034   3.387   0.999   3.914
 1676SOL    HW1 5035   3.324   0.923   3.927
 1676SOL    HW2 5036   3.435   1.017   4.000
 1677SOL     OW 5037   3.529   1.714   4.296
 1677SOL    HW1 5038   3.488   1.691   4.208
 1677SOL    HW2 5039   3.511   1.640   4.361
 1678SOL     OW 5040   2.460   0.729   3.994
 1678SOL    HW1 5041   2.484   0.798   3.926
 1678SOL    HW2 5042   2.382   0.762   4.048
 1679SOL     OW 5043   3.143   0.345   4.668
 1679SOL    HW1 5044   3.057   0.295   4.655
 1679SOL    HW2 5045   3.205   0.291   4.724
 1680SOL     OW 5046   3.438   1.662   4.031
 1680SOL    HW1 5047   3.527   1.708   4.034
 1680SOL    HW2 5048   3.417   1.638   3.936
 1681SOL     OW 5049   2.903   0.701   4.153
 1681SOL    HW1 5050   2.929   0.697   4.249
 1681SOL    HW2 5051   2.818   0.650   4.139
 1682SOL     OW 5052   1.938   0.811   4.513
 1682SOL    HW1 5053   2.037   0.799   4.522
 1682SOL    HW2 5054   1.914   0.906   4.534
 1683SOL     OW 5055   2.727   0.348   3.919
 1683SOL    HW1 5056   2.786   0.411   3.870
 1683SOL    HW2 5057   2.746   0.254   3.890
 1684SOL     OW 5058   3.224   1.144   4.269
 1684SOL    HW1 5059   3.307   1.115   4.221
 1684SOL    HW2 5060   3.175   1.211   4.213
 1685SOL     OW 5061   2.870   1.456   4.201
 1685SOL    HW1 5062   2.824   1.528   4.149
 1685SOL    HW2 5063   2.866   1.476   4.299
 1686SOL     OW 5064   2.213   1.801   4.577
 1686SOL    HW1 5065   2.263   1.715   4.583
 1686SOL    HW2 5066   2.278   1.878   4.574
 1687SOL     OW 5067   3.657   1.066   4.597
 1687SOL    HW1 5068   3.595   1.051   4.521
 1687SOL    HW2 5069   3.605   1.077   4.682
 1688SOL     OW 5070   2.183   0.943   3.966
 1688SOL    HW1 5071   2.265   0.982   3.924
 1688SOL    HW2 5072   2.156   0.861   3.917
 1689SOL     OW 5073   2.973   1.776   3.961
 1689SOL    HW1 5074   2.913   1.714   4.011
 1689SOL    HW2 5075   3.004   1.732   3.876
 1690SOL     OW 5076   3.494   1.377   3.805
 1690SOL    HW1 5077   3.462   1.471   3.795
 1690SOL    HW2 5078   3.418   1.314   3.793
 1691SOL     OW 5079   2.326   1.743   4.047
 1691SOL    HW1 5080   2.359   1.782   4.133
 1691SOL    HW2 5081   2.402   1.736   3.982
 1692SOL     OW 5082   3.262   0.107   4.150
 1692SOL    HW1 5083   3.238   0.070   4.060
 1692SOL    HW2 5084   3.361   0.123   4.154
 1693SOL     OW 5085   2.802   1.698   4.628
 1693SOL    HW1 5086   2.882   1.641   4.649
 1693SOL    HW2 5087   2.753   1.658   4.551
 1694SOL     OW 5088   2.244   0.700   4.204
 1694SOL    HW1 5089   2.289   0.610   4.201
 1694SOL    HW2 5090   2.150   0.689   4.237
 1695SOL     OW 5091   2.476   0.122   3.841
 1695SOL    HW1 5092   2.574   0.100   3.848
 1695SOL    HW2 5093   2.445   0.105   3.748
 1696SOL     OW 5094   2.401   0.064   4.236
 1696SOL    HW1 5095   2.320   0.065   4.294
 1696SOL    HW2 5096   2.404   0.147   4.181
 1697SOL     OW 5097   3.296   1.188   3.765
 1697SOL    HW1 5098   3.328   1.112   3.822
 1697SOL    HW2 5099   3.204   1.215   3.795
 1698SOL     OW 5100   2.159   0.035   3.895
 1698SOL    HW1 5101   2.208   0.119   3.874
 1698SOL    HW2 5102   2.221  -0.030   3.940
 1699SOL     OW 5103   2.797   0.236   4.204
 1699SOL    HW1 5104   2.749   0.277   4.126
 1699SOL    HW2 5105   2.896   0.234   4.185
 1700SOL     OW 5106   2.321   1.152   4.465
 1700SOL    HW1 5107   2.250   1.125   4.530
 1700SOL    HW2 5108   2.295   1.124   4.372
 1701SOL     OW 5109   3.133   1.797   4.315
 1701SOL    HW1 5110   3.177   1.861   4.251
 1701SOL    HW2 5111   3.083   1.849   4.385
 1702SOL     OW 5112   2.894   0.549   3.740
 1702SOL    HW1 5113   2.853   0.631   3.701
 1702SOL    HW2 5114   2.958   0.575   3.813
 1703SOL     OW 5115   2.728   0.454   4.366
 1703SOL    HW1 5116   2.696   0.526   4.304
 1703SOL    HW2 5117   2.752   0.373   4.313
 1704SOL     OW 5118   3.719   0.833   4.101
 1704SOL    HW1 5119   3.761   0.769   4.165
 1704SOL    HW2 5120   3.681   0.782   4.023
 1705SOL     OW 5121   2.350   1.385   3.898
 1705SOL    HW1 5122   2.263   1.370   3.945
 1705SOL    HW2 5123   2.333   1.411   3.803
 1706SOL     OW 5124   3.526   1.280   4.381
 1706SOL    HW1 5125   3.625   1.288   4.395
 1706SOL    HW2 5126   3.481   1.364   4.412
 1707SOL     OW 5127   3.252   0.575   3.802
 1707SOL    HW1 5128   3.198   0.554   3.883
 1707SOL    HW2 5129   3.343   0.534   3.811
 1708SOL     OW 5130   2.389   0.256   4.052
 1708SOL    HW1 5131   2.416   0.197   3.977
 1708SOL    HW2 5132   2.389   0.351   4.021
 1709SOL     OW 5133   2.973   1.195   4.824
 1709SOL    HW1 5134   2.933   1.239   4.905
 1709SOL    HW2 5135   2.932   1.232   4.741
 1710SOL     OW 5136   2.567   1.050   4.092
 1710SOL    HW1 5137   2.553   1.057   4.191
 1710SOL    HW2 5138   2.651   0.999   4.074
 1711SOL     OW 5139   2.229   1.100   4.225
 1711SOL    HW1 5140   2.222   1.183   4.169
 1711SOL    HW2 5141   2.233   1.020   4.165
 1712SOL     OW 5142   3.114   1.348   4.112
 1712SOL    HW1 5143   3.164   1.425   4.152
 1712SOL    HW2 5144   3.019   1.350   4.144
 1713SOL     OW 5145   3.444   0.639   4.196
 1713SOL    HW1 5146   3.413   0.700   4.269
 1713SOL    HW2 5147   3.494   0.691   4.127
 1714SOL     OW 5148   3.071   0.525   3.999
 1714SOL    HW1 5149   3.084   0.441   4.053
 1714SOL    HW2 5150   3.042   0.599   4.059
 1715SOL     OW 5151   2.169   0.063   4.342
 1715SOL    HW1 5152   2.158   0.157   4.375
 1715SOL    HW2 5153   2.164   0.000   4.419
 1716SOL     OW 5154   3.484   0.367   4.098
 1716SOL    HW1 5155   3.486   0.291   4.162
 1716SOL    HW2 5156   3.436   0.444   4.138
 1717SOL     OW 5157   3.402   0.274   3.849
 1717SOL    HW1 5158   3.341   0.199   3.872
 1717SOL    HW2 5159   3.424   0.326   3.932
 1718SOL     OW 5160   3.165   0.838   3.766
 1718SOL    HW1 5161   3.199   0.745   3.781
 1718SOL    HW2 5162   3.183   0.865   3.671
 1719SOL     OW 5163   1.870   1.326   3.924
 1719SOL    HW1 5164   1.777   1.347   3.893
 1719SOL    HW2 5165   1.880   1.227   3.937
 1720SOL     OW 5166   2.677   0.572   4.049
 1720SOL    HW1 5167   2.684   0.483   4.003
 1720SOL    HW2 5168   2.583   0.606   4.041
 1721SOL     OW 5169   2.335   0.500   3.915
 1721SOL    HW1 5170   2.396   0.580   3.919
 1721SOL    HW2 5171   2.240   0.531   3.922
 1722SOL     OW 5172   3.164   0.855   4.033
 1722SOL    HW1 5173   3.078   0.824   4.075
 1722SOL    HW2 5174   3.160   0.841   3.934
 1723SOL     OW 5175   3.588   0.135   4.247
 1723SOL    HW1 5176   3.661   0.118   4.180
 1723SOL    HW2 5177   3.557   0.048   4.285
 1724SOL     OW 5178   3.250   1.573   4.201
 1724SOL    HW1 5179   3.317   1.585   4.127
 1724SOL    HW2 5180   3.210   1.662   4.224
 1725SOL     OW 5181   2.534   1.616   3.878
 1725SOL    HW1 5182   2.543   1.626   3.779
 1725SOL    HW2 5183   2.494   1.527   3.899
 1726SOL     OW 5184   3.703   0.175   4.687
 1726SOL    HW1 5185   3.742   0.090   4.651
 1726SOL    HW2 5186   3.605   0.177   4.668
 1727SOL     OW 5187   3.056   1.612   3.755
 1727SOL    HW1 5188   3.062   1.519   3.792
 1727SOL    HW2 5189   2.997   1.612   3.675
 1728SOL     OW 5190   2.778   0.910   4.015
 1728SOL    HW1 5191   2.841   0.948   3.947
 1728SOL    HW2 5192   2.818   0.827   4.054
 1729SOL     OW 5193   3.366   1.607   3.768
 1729SOL    HW1 5194   3.274   1.644   3.775
 1729SOL    HW2 5195   3.404   1.627   3.678
 1730SOL     OW 5196   2.452   1.487   4.215
 1730SOL    HW1 5197   2.494   1.429   4.145
 1730SOL    HW2 5198   2.408   1.566   4.171
 1731SOL     OW 5199   2.117   1.348   4.014
 1731SOL    HW1 5200   2.021   1.349   3.987
 1731SOL    HW2 5201   2.129   1.401   4.098
 1732SOL     OW 5202   1.937   0.345   3.757
 1732SOL    HW1 5203   1.845   0.317   3.728
 1732SOL    HW2 5204   1.968   0.422   3.701
 1733SOL     OW 5205   1.934   0.166   4.042
 1733SOL    HW1 5206   1.917   0.249   3.988
 1733SOL    HW2 5207   2.024   0.129   4.020
 1734SOL     OW 5208   3.045   1.335   3.843
 1734SOL    HW1 5209   2.946   1.324   3.845
 1734SOL    HW2 5210   3.079   1.350   3.936
 1735SOL     OW 5211   3.087   0.325   4.173
 1735SOL    HW1 5212   3.152   0.251   4.162
 1735SOL    HW2 5213   3.107   0.375   4.257
 1736SOL     OW 5214   2.456   0.745   4.376
 1736SOL    HW1 5215   2.506   0.830   4.357
 1736SOL    HW2 5216   2.368   0.747   4.328
 1737SOL     OW 5217   2.721   1.374   3.740
 1737SOL    HW1 5218   2.675   1.389   3.828
 1737SOL    HW2 5219   2.765   1.459   3.710
 1738SOL     OW 5220   2.523   1.790   4.677
 1738SOL    HW1 5221   2.477   1.878   4.664
 1738SOL    HW2 5222   2.622   1.802   4.670
 1739SOL     OW 5223   2.945   0.984   3.811
 1739SOL    HW1 5224   2.922   1.037   3.729
 1739SOL    HW2 5225   3.026   0.928   3.792
 1740SOL     OW 5226   1.941   1.240   4.377
 1740SOL    HW1 5227   1.940   1.193   4.465
 1740SOL    HW2 5228   2.023   1.212   4.326
 1741SOL     OW 5229   2.290   0.424   4.244
 1741SOL    HW1 5230   2.320   0.352   4.182
 1741SOL    HW2 5231   2.251   0.384   4.327
 1742SOL     OW 5232   2.674   1.586   4.411
 1742SOL    HW1 5233   2.706   1.596   4.317
 1742SOL    HW2 5234   2.595   1.524   4.413
 1743SOL     OW 5235   2.632   1.330   4.025
 1743SOL    HW1 5236   2.586   1.243   4.042
 1743SOL    HW2 5237   2.723   1.327   4.066
 1744SOL     OW 5238   3.214   0.052   3.892
 1744SOL    HW1 5239   3.249   0.011   3.808
 1744SOL    HW2 5240   3.124   0.014   3.912
 1745SOL     OW 5241   3.162   0.453   4.415
 1745SOL    HW1 5242   3.103   0.533   4.419
 1745SOL    HW2 5243   3.177   0.418   4.508
 1746SOL     OW 5244   1.901   1.077   4.024
 1746SOL    HW1 5245   2.000   1.066   4.015
 1746SOL    HW2 5246   1.861   0.991   4.056
 1747SOL     OW 5247   2.737   1.646   4.061
 1747SOL    HW1 5248   2.660   1.611   4.007
 1747SOL    HW2 5249   2.705   1.717   4.123
 1748SOL     OW 5250   2.092   2.490   0.113
 1748SOL    HW1 5251   1.999   2.488   0.150
 1748SOL    HW2 5252   2.093   2.451   0.021
 1749SOL     OW 5253   2.087   2.137   0.996
 1749SOL    HW1 5254   2.122   2.120   1.088
 1749SOL    HW2 5255   1.999   2.092   0.984
 1750SOL     OW 5256   1.881   2.230   0.647
 1750SOL    HW1 5257   1.799   2.273   0.686
 1750SOL    HW2 5258   1.853   2.157   0.584
 1751SOL     OW 5259   2.431   3.137   1.165
 1751SOL    HW1 5260   2.338   3.130   1.128
 1751SOL    HW2 5261   2.442   3.226   1.209
 1752SOL     OW 5262   3.417   3.373   0.703
 1752SOL    HW1 5263   3.360   3.357   0.784
 1752SOL    HW2 5264   3.358   3.383   0.623
 1753SOL     OW 5265   2.997   2.565   0.717
 1753SOL    HW1 5266   3.054   2.643   0.692
 1753SOL    HW2 5267   2.937   2.591   0.793
 1754SOL     OW 5268   3.617   2.469   0.231
 1754SOL    HW1 5269   3.605   2.456   0.132
 1754SOL    HW2 5270   3.587   2.388   0.280
 1755SOL     OW 5271   2.630   3.006   1.023
 1755SOL    HW1 5272   2.552   3.023   1.083
 1755SOL    HW2 5273   2.664   3.093   0.987
 1756SOL     OW 5274   2.712   2.660   1.823
 1756SOL    HW1 5275   2.708   2.736   1.888
 1756SOL    HW2 5276   2.734   2.696   1.732
 1757SOL     OW 5277   2.547   2.874   0.665
 1757SOL    HW1 5278   2.616   2.858   0.735
 1757SOL    HW2 5279   2.474   2.931   0.703
 1758SOL     OW 5280   2.548   3.023   1.803
 1758SOL    HW1 5281   2.608   3.102   1.817
 1758SOL    HW2 5282   2.462   3.054   1.762
 1759SOL     OW 5283   2.197   3.297   1.061
 1759SOL    HW1 5284   2.119   3.266   1.008
 1759SOL    HW2 5285   2.255   3.355   1.004
 1760SOL     OW 5286   3.322   3.367   1.339
 1760SOL    HW1 5287   3.346   3.461   1.365
 1760SOL    HW2 5288   3.306   3.313   1.421
 1761SOL     OW 5289   2.300   2.254   1.499
 1761SOL    HW1 5290   2.382   2.198   1.508
 1761SOL    HW2 5291   2.219   2.196   1.503
 1762SOL     OW 5292   3.465   2.309   0.737
 1762SOL    HW1 5293   3.391   2.355   0.687
 1762SOL    HW2 5294   3.516   2.377   0.790
 1763SOL     OW 5295   2.093   3.575   0.483
 1763SOL    HW1 5296   2.127   3.652   0.537
 1763SOL    HW2 5297   2.137   3.575   0.393
 1764SOL     OW 5298   2.989   3.203   1.690
 1764SOL    HW1 5299   3.036   3.203   1.778
 1764SOL    HW2 5300   2.941   3.116   1.679
 1765SOL     OW 5301   2.092   3.296   0.538
 1765SOL    HW1 5302   2.066   3.392   0.538
 1765SOL    HW2 5303   2.021   3.242   0.583
 1766SOL     OW 5304   2.102   2.953   0.886
 1766SOL    HW1 5305   2.116   2.869   0.938
 1766SOL    HW2 5306   2.047   3.017   0.941
 1767SOL     OW 5307   2.482   3.648   1.439
 1767SOL    HW1 5308   2.390   3.631   1.474
 1767SOL    HW2 5309   2.510   3.740   1.465
 1768SOL     OW 5310   2.468   2.826   0.123
 1768SOL    HW1 5311   2.475   2.910   0.069
 1768SOL    HW2 5312   2.514   2.839   0.211
 1769SOL     OW 5313   3.456   1.976   1.480
 1769SOL    HW1 5314   3.438   2.043   1.408
 1769SOL    HW2 5315   3.453   2.022   1.569
 1770SOL     OW 5316   1.984   2.505   0.563
 1770SOL    HW1 5317   1.939   2.417   0.580
 1770SOL    HW2 5318   1.983   2.559   0.647
 1771SOL     OW 5319   3.704   3.629   0.359
 1771SOL    HW1 5320   3.758   3.600   0.439
 1771SOL    HW2 5321   3.734   3.719   0.330
 1772SOL     OW 5322   1.889   3.458   0.117
 1772SOL    HW1 5323   1.870   3.362   0.138
 1772SOL    HW2 5324   1.856   3.516   0.192
 1773SOL     OW 5325   3.551   2.784   0.612
 1773SOL    HW1 5326   3.646   2.755   0.620
 1773SOL    HW2 5327   3.543   2.849   0.537
 1774SOL     OW 5328   3.503   2.970   0.432
 1774SOL    HW1 5329   3.589   2.972   0.380
 1774SOL    HW2 5330   3.517   3.017   0.520
 1775SOL     OW 5331   1.975   2.599   1.597
 1775SOL    HW1 5332   2.063   2.586   1.642
 1775SOL    HW2 5333   1.962   2.696   1.575
 1776SOL     OW 5334   2.475   3.227   0.726
 1776SOL    HW1 5335   2.426   3.140   0.735
 1776SOL    HW2 5336   2.452   3.270   0.639
 1777SOL     OW 5337   3.155   3.090   1.423
 1777SOL    HW1 5338   3.192   3.017   1.365
 1777SOL    HW2 5339   3.207   3.095   1.508
 1778SOL     OW 5340   2.671   1.866   0.502
 1778SOL    HW1 5341   2.711   1.957   0.493
 1778SOL    HW2 5342   2.571   1.874   0.508
 1779SOL     OW 5343   2.059   2.838   1.264
 1779SOL    HW1 5344   2.148   2.793   1.250
 1779SOL    HW2 5345   1.986   2.773   1.245
 1780SOL     OW 5346   3.387   2.861   0.190
 1780SOL    HW1 5347   3.324   2.785   0.203
 1780SOL    HW2 5348   3.435   2.879   0.276
 1781SOL     OW 5349   3.049   3.654   1.616
 1781SOL    HW1 5350   3.073   3.714   1.540
 1781SOL    HW2 5351   3.056   3.559   1.586
 1782SOL     OW 5352   2.179   2.113   1.801
 1782SOL    HW1 5353   2.250   2.184   1.807
 1782SOL    HW2 5354   2.091   2.152   1.829
 1783SOL     OW 5355   3.328   3.279   0.953
 1783SOL    HW1 5356   3.269   3.285   1.033
 1783SOL    HW2 5357   3.313   3.191   0.907
 1784SOL     OW 5358   3.529   3.576   0.572
 1784SOL    HW1 5359   3.488   3.553   0.484
 1784SOL    HW2 5360   3.511   3.502   0.637
 1785SOL     OW 5361   2.460   2.591   0.270
 1785SOL    HW1 5362   2.484   2.660   0.202
 1785SOL    HW2 5363   2.382   2.624   0.324
 1786SOL     OW 5364   3.143   2.207   0.944
 1786SOL    HW1 5365   3.057   2.157   0.931
 1786SOL    HW2 5366   3.205   2.153   1.000
 1787SOL     OW 5367   3.438   3.524   0.307
 1787SOL    HW1 5368   3.527   3.570   0.310
 1787SOL    HW2 5369   3.417   3.500   0.212
 1788SOL     OW 5370   2.669   2.467   1.465
 1788SOL    HW1 5371   2.622   2.464   1.554
 1788SOL    HW2 5372   2.618   2.412   1.399
 1789SOL     OW 5373   3.256   2.331   1.674
 1789SOL    HW1 5374   3.236   2.374   1.762
 1789SOL    HW2 5375   3.334   2.269   1.683
 1790SOL     OW 5376   2.835   2.752   1.572
 1790SOL    HW1 5377   2.881   2.668   1.543
 1790SOL    HW2 5378   2.779   2.786   1.497
 1791SOL     OW 5379   2.853   2.272   1.242
 1791SOL    HW1 5380   2.776   2.306   1.296
 1791SOL    HW2 5381   2.819   2.221   1.163
 1792SOL     OW 5382   2.903   2.563   0.429
 1792SOL    HW1 5383   2.929   2.559   0.525
 1792SOL    HW2 5384   2.818   2.512   0.415
 1793SOL     OW 5385   1.938   2.673   0.789
 1793SOL    HW1 5386   2.037   2.661   0.798
 1793SOL    HW2 5387   1.914   2.768   0.810
 1794SOL     OW 5388   1.992   3.683   1.571
 1794SOL    HW1 5389   1.982   3.668   1.670
 1794SOL    HW2 5390   1.906   3.719   1.535
 1795SOL     OW 5391   2.727   2.210   0.195
 1795SOL    HW1 5392   2.786   2.273   0.146
 1795SOL    HW2 5393   2.746   2.116   0.166
 1796SOL     OW 5394   3.581   2.447   1.831
 1796SOL    HW1 5395   3.555   2.536   1.795
 1796SOL    HW2 5396   3.579   2.379   1.758
 1797SOL     OW 5397   3.224   3.006   0.545
 1797SOL    HW1 5398   3.307   2.977   0.497
 1797SOL    HW2 5399   3.175   3.073   0.489
 1798SOL     OW 5400   2.412   2.058   0.885
 1798SOL    HW1 5401   2.407   2.053   0.985
 1798SOL    HW2 5402   2.414   2.154   0.856
 1799SOL     OW 5403   2.870   3.318   0.477
 1799SOL    HW1 5404   2.824   3.390   0.425
 1799SOL    HW2 5405   2.866   3.338   0.575
 1800SOL     OW 5406   2.213   3.663   0.853
 1800SOL    HW1 5407   2.263   3.577   0.859
 1800SOL    HW2 5408   2.278   3.740   0.850
 1801SOL     OW 5409   3.657   2.928   0.873
 1801SOL    HW1 5410   3.595   2.913   0.797
 1801SOL    HW2 5411   3.605   2.939   0.958
 1802SOL     OW 5412   3.089   3.412   1.506
 1802SOL    HW1 5413   3.095   3.335   1.570
 1802SOL    HW2 5414   3.037   3.386   1.426
 1803SOL     OW 5415   2.183   2.805   0.242
 1803SOL    HW1 5416   2.265   2.844   0.200
 1803SOL    HW2 5417   2.156   2.723   0.193
 1804SOL     OW 5418   3.320   2.597   0.728
 1804SOL    HW1 5419   3.315   2.532   0.803
 1804SOL    HW2 5420   3.400   2.656   0.741
 1805SOL     OW 5421   2.323   3.128   1.727
 1805SOL    HW1 5422   2.273   3.129   1.641
 1805SOL    HW2 5423   2.260   3.110   1.803
 1806SOL     OW 5424   2.973   3.638   0.237
 1806SOL    HW1 5425   2.913   3.576   0.287
 1806SOL    HW2 5426   3.004   3.594   0.152
 1807SOL     OW 5427   2.064   2.147   1.498
 1807SOL    HW1 5428   1.984   2.207   1.485
 1807SOL    HW2 5429   2.054   2.098   1.584
 1808SOL     OW 5430   3.494   3.239   0.081
 1808SOL    HW1 5431   3.462   3.333   0.071
 1808SOL    HW2 5432   3.418   3.176   0.069
 1809SOL     OW 5433   2.326   3.605   0.323
 1809SOL    HW1 5434   2.359   3.644   0.409
 1809SOL    HW2 5435   2.402   3.598   0.258
 1810SOL     OW 5436   3.262   1.969   0.426
 1810SOL    HW1 5437   3.238   1.932   0.336
 1810SOL    HW2 5438   3.361   1.985   0.430
 1811SOL     OW 5439   2.111   3.647   1.241
 1811SOL    HW1 5440   2.168   3.582   1.291
 1811SOL    HW2 5441   2.095   3.614   1.148
 1812SOL     OW 5442   2.802   3.560   0.904
 1812SOL    HW1 5443   2.882   3.503   0.925
 1812SOL    HW2 5444   2.753   3.520   0.827
 1813SOL     OW 5445   2.244   2.562   0.480
 1813SOL    HW1 5446   2.289   2.472   0.477
 1813SOL    HW2 5447   2.150   2.551   0.513
 1814SOL     OW 5448   3.409   2.084   1.729
 1814SOL    HW1 5449   3.404   2.121   1.821
 1814SOL    HW2 5450   3.337   2.015   1.717
 1815SOL     OW 5451   2.643   2.126   1.749
 1815SOL    HW1 5452   2.710   2.065   1.792
 1815SOL    HW2 5453   2.570   2.145   1.814
 1816SOL     OW 5454   2.750   3.376   1.195
 1816SOL    HW1 5455   2.727   3.351   1.101
 1816SOL    HW2 5456   2.811   3.307   1.234
 1817SOL     OW 5457   3.213   2.452   1.433
 1817SOL    HW1 5458   3.241   2.409   1.518
 1817SOL    HW2 5459   3.238   2.548   1.434
 1818SOL     OW 5460   2.665   3.264   0.924
 1818SOL    HW1 5461   2.755   3.278   0.882
 1818SOL    HW2 5462   2.594   3.266   0.853
 1819SOL     OW 5463   2.784   2.365   0.899
 1819SOL    HW1 5464   2.759   2.356   0.803
 1819SOL    HW2 5465   2.832   2.283   0.930
 1820SOL     OW 5466   2.401   1.926   0.512
 1820SOL    HW1 5467   2.320   1.927   0.570
 1820SOL    HW2 5468   2.404   2.009   0.457
 1821SOL     OW 5469   3.296   3.050   0.041
 1821SOL    HW1 5470   3.328   2.974   0.098
 1821SOL    HW2 5471   3.204   3.077   0.071
 1822SOL     OW 5472   2.797   2.098   0.480
 1822SOL    HW1 5473   2.749   2.139   0.402
 1822SOL    HW2 5474   2.896   2.096   0.461
 1823SOL     OW 5475   2.938   2.545   1.464
 1823SOL    HW1 5476   2.858   2.484   1.467
 1823SOL    HW2 5477   3.019   2.492   1.440
 1824SOL     OW 5478   3.089   3.432   0.793
 1824SOL    HW1 5479   3.110   3.506   0.728
 1824SOL    HW2 5480   3.157   3.432   0.866
 1825SOL     OW 5481   2.321   3.014   0.741
 1825SOL    HW1 5482   2.250   2.987   0.806
 1825SOL    HW2 5483   2.295   2.986   0.648
 1826SOL     OW 5484   3.133   3.659   0.591
 1826SOL    HW1 5485   3.177   3.723   0.527
 1826SOL    HW2 5486   3.083   3.711   0.661
 1827SOL     OW 5487   2.894   2.411   0.016
 1827SOL    HW1 5488   2.853   2.493  -0.023
 1827SOL    HW2 5489   2.958   2.437   0.089
 1828SOL     OW 5490   1.940   2.418   1.386
 1828SOL    HW1 5491   2.032   2.417   1.345
 1828SOL    HW2 5492   1.934   2.492   1.453
 1829SOL     OW 5493   2.423   2.084   1.147
 1829SOL    HW1 5494   2.461   2.000   1.184
 1829SOL    HW2 5495   2.335   2.103   1.191
 1830SOL     OW 5496   2.728   2.316   0.642
 1830SOL    HW1 5497   2.696   2.388   0.580
 1830SOL    HW2 5498   2.752   2.235   0.589
 1831SOL     OW 5499   2.879   1.901   0.753
 1831SOL    HW1 5500   2.807   1.906   0.684
 1831SOL    HW2 5501   2.855   1.832   0.822
 1832SOL     OW 5502   3.291   3.035   0.867
 1832SOL    HW1 5503   3.236   2.951   0.860
 1832SOL    HW2 5504   3.317   3.064   0.775
 1833SOL     OW 5505   3.328   2.452   0.992
 1833SOL    HW1 5506   3.298   2.357   0.999
 1833SOL    HW2 5507   3.401   2.468   1.058
 1834SOL     OW 5508   3.719   2.695   0.377
 1834SOL    HW1 5509   3.761   2.631   0.441
 1834SOL    HW2 5510   3.681   2.644   0.299
 1835SOL     OW 5511   2.350   3.247   0.174
 1835SOL    HW1 5512   2.263   3.232   0.221
 1835SOL    HW2 5513   2.333   3.273   0.079
 1836SOL     OW 5514   3.526   3.142   0.657
 1836SOL    HW1 5515   3.625   3.150   0.671
 1836SOL    HW2 5516   3.481   3.226   0.688
 1837SOL     OW 5517   3.252   2.437   0.078
 1837SOL    HW1 5518   3.198   2.416   0.159
 1837SOL    HW2 5519   3.343   2.396   0.087
 1838SOL     OW 5520   2.389   2.118   0.328
 1838SOL    HW1 5521   2.416   2.059   0.253
 1838SOL    HW2 5522   2.389   2.213   0.297
 1839SOL     OW 5523   3.616   3.085   1.588
 1839SOL    HW1 5524   3.707   3.046   1.575
 1839SOL    HW2 5525   3.624   3.181   1.612
 1840SOL     OW 5526   2.926   3.209   1.340
 1840SOL    HW1 5527   2.846   3.186   1.395
 1840SOL    HW2 5528   3.009   3.183   1.389
 1841SOL     OW 5529   3.454   3.491   1.625
 1841SOL    HW1 5530   3.481   3.525   1.535
 1841SOL    HW2 5531   3.533   3.453   1.671
 1842SOL     OW 5532   2.973   3.057   1.100
 1842SOL    HW1 5533   2.933   3.101   1.181
 1842SOL    HW2 5534   2.932   3.094   1.017
 1843SOL     OW 5535   3.500   2.961   1.079
 1843SOL    HW1 5536   3.505   3.042   1.138
 1843SOL    HW2 5537   3.414   2.963   1.028
 1844SOL     OW 5538   2.777   1.951   1.402
 1844SOL    HW1 5539   2.802   1.931   1.307
 1844SOL    HW2 5540   2.849   2.007   1.444
 1845SOL     OW 5541   2.842   2.978   1.719
 1845SOL    HW1 5542   2.743   2.984   1.729
 1845SOL    HW2 5543   2.865   2.898   1.663
 1846SOL     OW 5544   2.567   2.912   0.368
 1846SOL    HW1 5545   2.553   2.919   0.467
 1846SOL    HW2 5546   2.651   2.861   0.350
 1847SOL     OW 5547   2.272   2.675   1.251
 1847SOL    HW1 5548   2.358   2.687   1.301
 1847SOL    HW2 5549   2.230   2.588   1.278
 1848SOL     OW 5550   3.136   2.248   1.262
 1848SOL    HW1 5551   3.157   2.322   1.326
 1848SOL    HW2 5552   3.047   2.265   1.219
 1849SOL     OW 5553   1.926   3.426   1.331
 1849SOL    HW1 5554   1.880   3.508   1.297
 1849SOL    HW2 5555   2.024   3.445   1.340
 1850SOL     OW 5556   2.229   2.962   0.501
 1850SOL    HW1 5557   2.222   3.045   0.445
 1850SOL    HW2 5558   2.233   2.882   0.441
 1851SOL     OW 5559   2.428   2.399   0.865
 1851SOL    HW1 5560   2.440   2.465   0.791
 1851SOL    HW2 5561   2.474   2.433   0.948
 1852SOL     OW 5562   3.114   3.210   0.388
 1852SOL    HW1 5563   3.164   3.287   0.428
 1852SOL    HW2 5564   3.019   3.212   0.420
 1853SOL     OW 5565   3.134   3.307   1.142
 1853SOL    HW1 5566   3.181   3.320   1.229
 1853SOL    HW2 5567   3.068   3.233   1.151
 1854SOL     OW 5568   3.444   2.501   0.472
 1854SOL    HW1 5569   3.413   2.562   0.545
 1854SOL    HW2 5570   3.494   2.553   0.403
 1855SOL     OW 5571   2.216   3.372   1.329
 1855SOL    HW1 5572   2.195   3.328   1.242
 1855SOL    HW2 5573   2.313   3.398   1.332
 1856SOL     OW 5574   2.264   2.613   1.598
 1856SOL    HW1 5575   2.332   2.668   1.551
 1856SOL    HW2 5576   2.304   2.525   1.625
 1857SOL     OW 5577   3.449   2.641   1.670
 1857SOL    HW1 5578   3.357   2.679   1.665
 1857SOL    HW2 5579   3.509   2.688   1.605
 1858SOL     OW 5580   2.875   1.967   1.770
 1858SOL    HW1 5581   2.881   2.052   1.718
 1858SOL    HW2 5582   2.907   1.891   1.713
 1859SOL     OW 5583   2.366   1.912   1.740
 1859SOL    HW1 5584   2.324   1.855   1.670
 1859SOL    HW2 5585   2.300   1.981   1.772
 1860SOL     OW 5586   2.435   2.732   1.029
 1860SOL    HW1 5587   2.479   2.821   1.020
 1860SOL    HW2 5588   2.372   2.732   1.106
 1861SOL     OW 5589   3.222   2.724   1.045
 1861SOL    HW1 5590   3.147   2.724   0.979
 1861SOL    HW2 5591   3.259   2.632   1.054
 1862SOL     OW 5592   3.071   2.387   0.275
 1862SOL    HW1 5593   3.084   2.303   0.329
 1862SOL    HW2 5594   3.042   2.461   0.335
 1863SOL     OW 5595   2.169   2.075   1.231
 1863SOL    HW1 5596   2.146   2.112   1.321
 1863SOL    HW2 5597   2.139   1.980   1.225
 1864SOL     OW 5598   1.899   3.172   1.282
 1864SOL    HW1 5599   1.952   3.123   1.350
 1864SOL    HW2 5600   1.921   3.270   1.287
 1865SOL     OW 5601   2.594   2.496   1.064
 1865SOL    HW1 5602   2.653   2.470   0.988
 1865SOL    HW2 5603   2.566   2.592   1.053
 1866SOL     OW 5604   3.590   2.797   1.854
 1866SOL    HW1 5605   3.544   2.790   1.765
 1866SOL    HW2 5606   3.528   2.841   1.920
 1867SOL     OW 5607   2.169   1.925   0.618
 1867SOL    HW1 5608   2.158   2.019   0.651
 1867SOL    HW2 5609   2.164   1.862   0.695
 1868SOL     OW 5610   3.484   2.229   0.374
 1868SOL    HW1 5611   3.486   2.153   0.438
 1868SOL    HW2 5612   3.436   2.306   0.414
 1869SOL     OW 5613   2.885   2.628   0.966
 1869SOL    HW1 5614   2.900   2.649   1.062
 1869SOL    HW2 5615   2.855   2.533   0.957
 1870SOL     OW 5616   2.842   3.435   1.700
 1870SOL    HW1 5617   2.822   3.479   1.612
 1870SOL    HW2 5618   2.881   3.344   1.684
 1871SOL     OW 5619   3.721   3.380   1.605
 1871SOL    HW1 5620   3.735   3.407   1.510
 1871SOL    HW2 5621   3.804   3.402   1.658
 1872SOL     OW 5622   2.212   2.760   1.804
 1872SOL    HW1 5623   2.288   2.804   1.852
 1872SOL    HW2 5624   2.247   2.713   1.722
 1873SOL     OW 5625   3.402   2.136   0.125
 1873SOL    HW1 5626   3.341   2.061   0.148
 1873SOL    HW2 5627   3.424   2.188   0.208
 1874SOL     OW 5628   3.165   2.700   0.042
 1874SOL    HW1 5629   3.199   2.607   0.057
 1874SOL    HW2 5630   3.183   2.727  -0.053
 1875SOL     OW 5631   2.930   3.195   0.849
 1875SOL    HW1 5632   2.937   3.111   0.794
 1875SOL    HW2 5633   2.992   3.264   0.813
 1876SOL     OW 5634   2.181   2.672   0.949
 1876SOL    HW1 5635   2.274   2.708   0.954
 1876SOL    HW2 5636   2.175   2.587   1.001
 1877SOL     OW 5637   2.201   2.371   1.006
 1877SOL    HW1 5638   2.149   2.288   0.989
 1877SOL    HW2 5639   2.278   2.376   0.942
 1878SOL     OW 5640   3.000   2.242   1.678
 1878SOL    HW1 5641   2.955   2.305   1.742
 1878SOL    HW2 5642   3.093   2.273   1.661
 1879SOL     OW 5643   3.022   2.069   1.477
 1879SOL    HW1 5644   3.022   2.133   1.554
 1879SOL    HW2 5645   3.050   2.117   1.394
 1880SOL     OW 5646   1.870   3.188   0.200
 1880SOL    HW1 5647   1.777   3.209   0.169
 1880SOL    HW2 5648   1.880   3.089   0.213
 1881SOL     OW 5649   1.950   3.663   0.927
 1881SOL    HW1 5650   1.908   3.577   0.900
 1881SOL    HW2 5651   2.044   3.666   0.893
 1882SOL     OW 5652   2.366   3.430   0.910
 1882SOL    HW1 5653   2.432   3.504   0.919
 1882SOL    HW2 5654   2.410   3.351   0.868
 1883SOL     OW 5655   2.864   2.658   1.238
 1883SOL    HW1 5656   2.905   2.626   1.324
 1883SOL    HW2 5657   2.768   2.631   1.235
 1884SOL     OW 5658   1.902   2.406   1.114
 1884SOL    HW1 5659   1.987   2.373   1.073
 1884SOL    HW2 5660   1.915   2.421   1.212
 1885SOL     OW 5661   2.051   2.382   1.722
 1885SOL    HW1 5662   2.110   2.342   1.652
 1885SOL    HW2 5663   1.993   2.453   1.681
 1886SOL     OW 5664   3.231   2.812   1.660
 1886SOL    HW1 5665   3.270   2.901   1.680
 1886SOL    HW2 5666   3.241   2.792   1.563
 1887SOL     OW 5667   2.677   2.434   0.325
 1887SOL    HW1 5668   2.684   2.345   0.279
 1887SOL    HW2 5669   2.583   2.468   0.317
 1888SOL     OW 5670   3.519   2.466   1.206
 1888SOL    HW1 5671   3.481   2.397   1.268
 1888SOL    HW2 5672   3.601   2.430   1.162
 1889SOL     OW 5673   2.114   3.426   1.744
 1889SOL    HW1 5674   2.084   3.483   1.820
 1889SOL    HW2 5675   2.107   3.329   1.770
 1890SOL     OW 5676   2.533   2.326   1.269
 1890SOL    HW1 5677   2.499   2.237   1.239
 1890SOL    HW2 5678   2.559   2.380   1.189
 1891SOL     OW 5679   2.792   3.540   1.465
 1891SOL    HW1 5680   2.768   3.522   1.370
 1891SOL    HW2 5681   2.822   3.634   1.475
 1892SOL     OW 5682   2.335   2.362   0.191
 1892SOL    HW1 5683   2.396   2.442   0.195
 1892SOL    HW2 5684   2.240   2.393   0.198
 1893SOL     OW 5685   2.021   2.999   1.466
 1893SOL    HW1 5686   2.043   2.938   1.542
 1893SOL    HW2 5687   2.031   2.950   1.380
 1894SOL     OW 5688   3.209   2.921   1.234
 1894SOL    HW1 5689   3.233   2.858   1.160
 1894SOL    HW2 5690   3.119   2.961   1.216
 1895SOL     OW 5691   3.164   2.717   0.309
 1895SOL    HW1 5692   3.078   2.686   0.351
 1895SOL    HW2 5693   3.160   2.703   0.210
 1896SOL     OW 5694   3.621   3.609   1.154
 1896SOL    HW1 5695   3.682   3.639   1.081
 1896SOL    HW2 5696   3.583   3.520   1.132
 1897SOL     OW 5697   3.114   3.593   1.128
 1897SOL    HW1 5698   3.198   3.598   1.074
 1897SOL    HW2 5699   3.091   3.497   1.146
 1898SOL     OW 5700   1.945   3.120   1.022
 1898SOL    HW1 5701   1.940   3.119   1.122
 1898SOL    HW2 5702   1.862   3.079   0.984
 1899SOL     OW 5703   2.550   3.524   1.716
 1899SOL    HW1 5704   2.494   3.605   1.725
 1899SOL    HW2 5705   2.602   3.528   1.630
 1900SOL     OW 5706   2.765   1.948   0.133
 1900SOL    HW1 5707   2.816   1.949   0.047
 1900SOL    HW2 5708   2.821   1.906   0.204
 1901SOL     OW 5709   3.588   1.997   0.523
 1901SOL    HW1 5710   3.661   1.980   0.456
 1901SOL    HW2 5711   3.557   1.910   0.561
 1902SOL     OW 5712   3.250   3.435   0.477
 1902SOL    HW1 5713   3.317   3.447   0.403
 1902SOL    HW2 5714   3.210   3.524   0.500
 1903SOL     OW 5715   1.992   3.656   1.851
 1903SOL    HW1 5716   1.951   3.582   1.904
 1903SOL    HW2 5717   2.056   3.707   1.909
 1904SOL     OW 5718   3.142   2.789   0.672
 1904SOL    HW1 5719   3.202   2.708   0.674
 1904SOL    HW2 5720   3.182   2.858   0.612
 1905SOL     OW 5721   2.692   3.135   1.422
 1905SOL    HW1 5722   2.687   3.168   1.517
 1905SOL    HW2 5723   2.606   3.154   1.376
 1906SOL     OW 5724   2.534   3.478   0.154
 1906SOL    HW1 5725   2.543   3.488   0.055
 1906SOL    HW2 5726   2.494   3.389   0.175
 1907SOL     OW 5727   3.512   3.582   1.394
 1907SOL    HW1 5728   3.565   3.592   1.310
 1907SOL    HW2 5729   3.485   3.672   1.428
 1908SOL     OW 5730   3.703   2.037   0.963
 1908SOL    HW1 5731   3.742   1.952   0.927
 1908SOL    HW2 5732   3.605   2.039   0.944
 1909SOL     OW 5733   2.125   2.188   0.720
 1909SOL    HW1 5734   2.046   2.239   0.686
 1909SOL    HW2 5735   2.116   2.173   0.818
 1910SOL     OW 5736   3.056   3.474   0.031
 1910SOL    HW1 5737   3.062   3.381   0.068
 1910SOL    HW2 5738   2.997   3.474  -0.049
 1911SOL     OW 5739   2.684   2.864   1.372
 1911SOL    HW1 5740   2.724   2.863   1.280
 1911SOL    HW2 5741   2.694   2.956   1.412
 1912SOL     OW 5742   2.778   2.772   0.291
 1912SOL    HW1 5743   2.841   2.810   0.223
 1912SOL    HW2 5744   2.818   2.689   0.330
 1913SOL     OW 5745   3.366   3.469   0.044
 1913SOL    HW1 5746   3.274   3.506   0.051
 1913SOL    HW2 5747   3.404   3.489  -0.046
 1914SOL     OW 5748   2.234   3.150   1.490
 1914SOL    HW1 5749   2.221   3.243   1.456
 1914SOL    HW2 5750   2.150   3.098   1.477
 1915SOL     OW 5751   3.476   3.154   1.289
 1915SOL    HW1 5752   3.536   3.157   1.369
 1915SOL    HW2 5753   3.401   3.218   1.302
 1916SOL     OW 5754   2.901   2.960   0.696
 1916SOL    HW1 5755   2.831   2.913   0.750
 1916SOL    HW2 5756   2.960   2.892   0.653
 1917SOL     OW 5757   2.876   2.098   0.971
 1917SOL    HW1 5758   2.868   2.062   0.878
 1917SOL    HW2 5759   2.874   2.022   1.036
 1918SOL     OW 5760   2.452   3.349   0.491
 1918SOL    HW1 5761   2.494   3.291   0.421
 1918SOL    HW2 5762   2.408   3.428   0.447
 1919SOL     OW 5763   3.571   2.247   1.381
 1919SOL    HW1 5764   3.644   2.316   1.385
 1919SOL    HW2 5765   3.599   2.172   1.322
 1920SOL     OW 5766   2.117   3.210   0.290
 1920SOL    HW1 5767   2.021   3.211   0.263
 1920SOL    HW2 5768   2.129   3.263   0.374
 1921SOL     OW 5769   1.967   2.875   1.726
 1921SOL    HW1 5770   1.890   2.842   1.780
 1921SOL    HW2 5771   2.052   2.845   1.768
 1922SOL     OW 5772   2.534   2.065   1.489
 1922SOL    HW1 5773   2.624   2.049   1.449
 1922SOL    HW2 5774   2.542   2.070   1.588
 1923SOL     OW 5775   1.937   2.207   0.033
 1923SOL    HW1 5776   1.845   2.179   0.004
 1923SOL    HW2 5777   1.968   2.284  -0.023
 1924SOL     OW 5778   3.302   2.718   1.398
 1924SOL    HW1 5779   3.245   2.770   1.335
 1924SOL    HW2 5780   3.398   2.730   1.374
 1925SOL     OW 5781   3.045   3.197   0.119
 1925SOL    HW1 5782   2.946   3.186   0.121
 1925SOL    HW2 5783   3.079   3.212   0.212
 1926SOL     OW 5784   2.475   2.704   1.431
 1926SOL    HW1 5785   2.531   2.785   1.414
 1926SOL    HW2 5786   2.534   2.624   1.434
 1927SOL     OW 5787   3.355   3.629   0.959
 1927SOL    HW1 5788   3.388   3.693   0.890
 1927SOL    HW2 5789   3.421   3.623   1.034
 1928SOL     OW 5790   2.578   2.427   1.708
 1928SOL    HW1 5791   2.597   2.492   1.782
 1928SOL    HW2 5792   2.638   2.347   1.717
 1929SOL     OW 5793   3.312   3.082   1.633
 1929SOL    HW1 5794   3.303   3.072   1.732
 1929SOL    HW2 5795   3.408   3.075   1.607
 1930SOL     OW 5796   2.252   3.603   1.560
 1930SOL    HW1 5797   2.161   3.644   1.558
 1930SOL    HW2 5798   2.245   3.509   1.592
 1931SOL     OW 5799   3.536   2.745   1.254
 1931SOL    HW1 5800   3.509   2.656   1.217
 1931SOL    HW2 5801   3.537   2.813   1.181
 1932SOL     OW 5802   3.087   2.187   0.449
 1932SOL    HW1 5803   3.152   2.113   0.438
 1932SOL    HW2 5804   3.107   2.237   0.533
 1933SOL     OW 5805   2.456   2.607   0.652
 1933SOL    HW1 5806   2.506   2.692   0.633
 1933SOL    HW2 5807   2.368   2.609   0.604
 1934SOL     OW 5808   3.639   2.204   1.642
 1934SOL    HW1 5809   3.622   2.235   1.548
 1934SOL    HW2 5810   3.555   2.167   1.680
 1935SOL     OW 5811   3.592   2.796   1.517
 1935SOL    HW1 5812   3.630   2.887   1.532
 1935SOL    HW2 5813   3.584   2.779   1.418
 1936SOL     OW 5814   2.721   3.236   0.016
 1936SOL    HW1 5815   2.675   3.251   0.104
 1936SOL    HW2 5816   2.765   3.321  -0.014
 1937SOL     OW 5817   2.523   3.652   0.953
 1937SOL    HW1 5818   2.477   3.740   0.940
 1937SOL    HW2 5819   2.622   3.664   0.946
 1938SOL     OW 5820   2.721   2.818   0.861
 1938SOL    HW1 5821   2.775   2.749   0.909
 1938SOL    HW2 5822   2.689   2.887   0.927
 1939SOL     OW 5823   2.945   2.846   0.087
 1939SOL    HW1 5824   2.922   2.899   0.005
 1939SOL    HW2 5825   3.026   2.790   0.068
 1940SOL     OW 5826   3.723   3.431   0.851
 1940SOL    HW1 5827   3.652   3.419   0.781
 1940SOL    HW2 5828   3.724   3.352   0.911
 1941SOL     OW 5829   2.083   3.176   1.844
 1941SOL    HW1 5830   2.018   3.103   1.823
 1941SOL    HW2 5831   2.087   3.190   1.942
 1942SOL     OW 5832   1.941   3.102   0.653
 1942SOL    HW1 5833   1.940   3.055   0.741
 1942SOL    HW2 5834   2.023   3.074   0.602
 1943SOL     OW 5835   2.534   3.253   1.624
 1943SOL    HW1 5836   2.456   3.203   1.662
 1943SOL    HW2 5837   2.531   3.348   1.655
 1944SOL     OW 5838   3.686   2.054   1.227
 1944SOL    HW1 5839   3.682   1.964   1.271
 1944SOL    HW2 5840   3.689   2.043   1.128
 1945SOL     OW 5841   2.290   2.286   0.520
 1945SOL    HW1 5842   2.320   2.214   0.458
 1945SOL    HW2 5843   2.251   2.246   0.603
 1946SOL     OW 5844   3.567   3.349   1.104
 1946SOL    HW1 5845   3.474   3.324   1.077
 1946SOL    HW2 5846   3.593   3.299   1.186
 1947SOL     OW 5847   2.179   2.409   1.280
 1947SOL    HW1 5848   2.217   2.350   1.352
 1947SOL    HW2 5849   2.219   2.383   1.192
 1948SOL     OW 5850   2.674   3.448   0.687
 1948SOL    HW1 5851   2.706   3.458   0.593
 1948SOL    HW2 5852   2.595   3.386   0.689
 1949SOL     OW 5853   3.286   2.076   1.112
 1949SOL    HW1 5854   3.338   2.011   1.167
 1949SOL    HW2 5855   3.237   2.139   1.173
 1950SOL     OW 5856   2.863   1.896   1.154
 1950SOL    HW1 5857   2.800   1.824   1.123
 1950SOL    HW2 5858   2.956   1.860   1.154
 1951SOL     OW 5859   2.632   3.192   0.301
 1951SOL    HW1 5860   2.586   3.105   0.318
 1951SOL    HW2 5861   2.723   3.189   0.342
 1952SOL     OW 5862   2.480   3.429   1.284
 1952SOL    HW1 5863   2.475   3.511   1.341
 1952SOL    HW2 5864   2.569   3.426   1.239
 1953SOL     OW 5865   3.214   1.914   0.168
 1953SOL    HW1 5866   3.249   1.873   0.084
 1953SOL    HW2 5867   3.124   1.876   0.188
 1954SOL     OW 5868   3.162   2.315   0.691
 1954SOL    HW1 5869   3.103   2.395   0.695
 1954SOL    HW2 5870   3.177   2.280   0.784
 1955SOL     OW 5871   3.455   2.083   0.882
 1955SOL    HW1 5872   3.371   2.082   0.936
 1955SOL    HW2 5873   3.457   2.166   0.826
 1956SOL     OW 5874   1.901   2.939   0.300
 1956SOL    HW1 5875   2.000   2.928   0.291
 1956SOL    HW2 5876   1.861   2.853   0.332
 1957SOL     OW 5877   2.737   3.508   0.337
 1957SOL    HW1 5878   2.660   3.473   0.283
 1957SOL    HW2 5879   2.705   3.579   0.399
 1958SOL     OW 5880   2.092   2.490   1.975
 1958SOL    HW1 5881   1.999   2.488   2.012
 1958SOL    HW2 5882   2.093   2.451   1.883
 1959SOL     OW 5883   2.087   2.137   2.858
 1959SOL    HW1 5884   2.122   2.120   2.950
 1959SOL    HW2 5885   1.999   2.092   2.846
 1960SOL     OW 5886   1.881   2.230   2.509
 1960SOL    HW1 5887   1.799   2.273   2.548
 1960SOL    HW2 5888   1.853   2.157   2.446
 1961SOL     OW 5889   2.431   3.137   3.027
 1961SOL    HW1 5890   2.338   3.130   2.990
 1961SOL    HW2 5891   2.442   3.226   3.071
 1962SOL     OW 5892   3.417   3.373   2.565
 1962SOL    HW1 5893   3.360   3.357   2.646
 1962SOL    HW2 5894   3.358   3.383   2.485
 1963SOL     OW 5895   2.997   2.565   2.579
 1963SOL    HW1 5896   3.054   2.643   2.554
 1963SOL    HW2 5897   2.937   2.591   2.655
 1964SOL     OW 5898   3.617   2.469   2.093
 1964SOL    HW1 5899   3.605   2.456   1.994
 1964SOL    HW2 5900   3.587   2.388   2.142
 1965SOL     OW 5901   2.630   3.006   2.885
 1965SOL    HW1 5902   2.552   3.023   2.945
 1965SOL    HW2 5903   2.664   3.093   2.849
 1966SOL     OW 5904   2.712   2.660   3.685
 1966SOL    HW1 5905   2.708   2.736   3.750
 1966SOL    HW2 5906   2.734   2.696   3.594
 1967SOL     OW 5907   2.547   2.874   2.527
 1967SOL    HW1 5908   2.616   2.858   2.597
 1967SOL    HW2 5909   2.474   2.931   2.565
 1968SOL     OW 5910   2.548   3.023   3.665
 1968SOL    HW1 5911   2.608   3.102   3.679
 1968SOL    HW2 5912   2.462   3.054   3.624
 1969SOL     OW 5913   2.197   3.297   2.923
 1969SOL    HW1 5914   2.119   3.266   2.870
 1969SOL    HW2 5915   2.255   3.355   2.866
 1970SOL     OW 5916   3.322   3.367   3.201
 1970SOL    HW1 5917   3.346   3.461   3.227
 1970SOL    HW2 5918   3.306   3.313   3.283
 1971SOL     OW 5919   2.300   2.254   3.361
 1971SOL    HW1 5920   2.382   2.198   3.370
 1971SOL    HW2 5921   2.219   2.196   3.365
 1972SOL     OW 5922   3.465   2.309   2.599
 1972SOL    HW1 5923   3.391   2.355   2.549
 1972SOL    HW2 5924   3.516   2.377   2.652
 1973SOL     OW 5925   2.093   3.575   2.345
 1973SOL    HW1 5926   2.127   3.652   2.399
 1973SOL    HW2 5927   2.137   3.575   2.255
 1974SOL     OW 5928   2.989   3.203   3.552
 1974SOL    HW1 5929   3.036   3.203   3.640
 1974SOL    HW2 5930   2.941   3.116   3.541
 1975SOL     OW 5931   2.092   3.296   2.400
 1975SOL    HW1 5932   2.066   3.392   2.400
 1975SOL    HW2 5933   2.021   3.242   2.445
 1976SOL     OW 5934   2.102   2.953   2.748
 1976SOL    HW1 5935   2.116   2.869   2.800
 1976SOL    HW2 5936   2.047   3.017   2.803
 1977SOL     OW 5937   2.482   3.648   3.301
 1977SOL    HW1 5938   2.390   3.631   3.336
 1977SOL    HW2 5939   2.510   3.740   3.327
 1978SOL     OW 5940   2.468   2.826   1.985
 1978SOL    HW1 5941   2.475   2.910   1.931
 1978SOL    HW2 5942   2.514   2.839   2.073
 1979SOL     OW 5943   3.456   1.976   3.342
 1979SOL    HW1 5944   3.438   2.043   3.270
 1979SOL    HW2 5945   3.453   2.022   3.431
 1980SOL     OW 5946   1.984   2.505   2.425
 1980SOL    HW1 5947   1.939   2.417   2.442
 1980SOL    HW2 5948   1.983   2.559   2.509
 1981SOL     OW 5949   3.704   3.629   2.221
 1981SOL    HW1 5950   3.758   3.600   2.301
 1981SOL    HW2 5951   3.734   3.719   2.192
 1982SOL     OW 5952   1.889   3.458   1.979
 1982SOL    HW1 5953   1.870   3.362   2.000
 1982SOL    HW2 5954   1.856   3.516   2.054
 1983SOL     OW 5955   3.551   2.784   2.474
 1983SOL    HW1 5956   3.646   2.755   2.482
 1983SOL    HW2 5957   3.543   2.849   2.399
 1984SOL     OW 5958   3.503   2.970   2.294
 1984SOL    HW1 5959   3.589   2.972   2.242
 1984SOL    HW2 5960   3.517   3.017   2.382
 1985SOL     OW 5961   1.975   2.599   3.459
 1985SOL    HW1 5962   2.063   2.586   3.504
 1985SOL    HW2 5963   1.962   2.696   3.437
 1986SOL     OW 5964   2.475   3.227   2.588
 1986SOL    HW1 5965   2.426   3.140   2.597
 1986SOL    HW2 5966   2.452   3.270   2.501
 1987SOL     OW 5967   3.155   3.090   3.285
 1987SOL    HW1 5968   3.192   3.017   3.227
 1987SOL    HW2 5969   3.207   3.095   3.370
 1988SOL     OW 5970   2.671   1.866   2.364
 1988SOL    HW1 5971   2.711   1.957   2.355
 1988SOL    HW2 5972   2.571   1.874   2.370
 1989SOL     OW 5973   2.059   2.838   3.126
 1989SOL    HW1 5974   2.148   2.793   3.112
 1989SOL    HW2 5975   1.986   2.773   3.107
 1990SOL     OW 5976   3.387   2.861   2.052
 1990SOL    HW1 5977   3.324   2.785   2.065
 1990SOL    HW2 5978   3.435   2.879   2.138
 1991SOL     OW 5979   3.049   3.654   3.478
 1991SOL    HW1 5980   3.073   3.714   3.402
 1991SOL    HW2 5981   3.056   3.559   3.448
 1992SOL     OW 5982   2.179   2.113   3.663
 1992SOL    HW1 5983   2.250   2.184   3.669
 1992SOL    HW2 5984   2.091   2.152   3.691
 1993SOL     OW 5985   3.328   3.279   2.815
 1993SOL    HW1 5986   3.269   3.285   2.895
 1993SOL    HW2 5987   3.313   3.191   2.769
 1994SOL     OW 5988   3.529   3.576   2.434
 1994SOL    HW1 5989   3.488   3.553   2.346
 1994SOL    HW2 5990   3.511   3.502   2.499
 1995SOL     OW 5991   2.460   2.591   2.132
 1995SOL    HW1 5992   2.484   2.660   2.064
 1995SOL    HW2 5993   2.382   2.624   2.186
 1996SOL     OW 5994   3.143   2.207   2.806
 1996SOL    HW1 5995   3.057   2.157   2.793
 1996SOL    HW2 5996   3.205   2.153   2.862
 1997SOL     OW 5997   3.438   3.524   2.169
 1997SOL    HW1 5998   3.527   3.570   2.172
 1997SOL    HW2 5999   3.417   3.500   2.074
 1998SOL     OW 6000   2.669   2.467   3.327
 1998SOL    HW1 6001   2.622   2.464   3.416
 1998SOL    HW2 6002   2.618   2.412   3.261
 1999SOL     OW 6003   3.256   2.331   3.536
 1999SOL    HW1 6004   3.236   2.374   3.624
 1999SOL    HW2 6005   3.334   2.269   3.545
 2000SOL     OW 6006   2.835   2.752   3.434
 2000SOL    HW1 6007   2.881   2.668   3.405
 2000SOL    HW2 6008   2.779   2.786   3.359
 2001SOL     OW 6009   2.853   2.272   3.104
 2001SOL    HW1 6010   2.776   2.306   3.158
 2001SOL    HW2 6011   2.819   2.221   3.025
 2002SOL     OW 6012   2.903   2.563   2.291
 2002SOL    HW1 6013   2.929   2.559   2.387
 2002SOL    HW2 6014   2.818   2.512   2.277
 2003SOL     OW 6015   1.938   2.673   2.651
 2003SOL    HW1 6016   2.037   2.661   2.660
 2003SOL    HW2 6017   1.914   2.768   2.672
 2004SOL     OW 6018   1.992   3.683   3.433
 2004SOL    HW1 6019   1.982   3.668   3.532
 2004SOL    HW2 6020   1.906   3.719   3.397
 2005SOL     OW 6021   2.727   2.210   2.057
 2005SOL    HW1 6022   2.786   2.273   2.008
 2005SOL    HW2 6023   2.746   2.116   2.028
 2006SOL     OW 6024   3.581   2.447   3.693
 2006SOL    HW1 6025   3.555   2.536   3.657
 2006SOL    HW2 6026   3.579   2.379   3.620
 2007SOL     OW 6027   3.224   3.006   2.407
 2007SOL    HW1 6028   3.307   2.977   2.359
 2007SOL    HW2 6029   3.175   3.073   2.351
 2008SOL     OW 6030   2.412   2.058   2.747
 2008SOL    HW1 6031   2.407   2.053   2.847
 2008SOL    HW2 6032   2.414   2.154   2.718
 2009SOL     OW 6033   2.870   3.318   2.339
 2009SOL    HW1 6034   2.824   3.390   2.287
 2009SOL    HW2 6035   2.866   3.338   2.437
 2010SOL     OW 6036   2.213   3.663   2.715
 2010SOL    HW1 6037   2.263   3.577   2.721
 2010SOL    HW2 6038   2.278   3.740   2.712
 2011SOL     OW 6039   3.657   2.928   2.735
 2011SOL    HW1 6040   3.595   2.913   2.659
 2011SOL    HW2 6041   3.605   2.939   2.820
 2012SOL     OW 6042   3.089   3.412   3.368
 2012SOL    HW1 6043   3.095   3.335   3.432
 2012SOL    HW2 6044   3.037   3.386   3.288
 2013SOL     OW 6045   2.183   2.805   2.104
 2013SOL    HW1 6046   2.265   2.844   2.062
 2013SOL    HW2 6047   2.156   2.723   2.055
 2014SOL     OW 6048   3.320   2.597   2.590
 2014SOL    HW1 6049   3.315   2.532   2.665
 2014SOL    HW2 6050   3.400   2.656   2.603
 2015SOL     OW 6051   2.323   3.128   3.589
 2015SOL    HW1 6052   2.273   3.129   3.503
 2015SOL    HW2 6053   2.260   3.110   3.665
 2016SOL     OW 6054   2.973   3.638   2.099
 2016SOL    HW1 6055   2.913   3.576   2.149
 2016SOL    HW2 6056   3.004   3.594   2.014
 2017SOL     OW 6057   2.064   2.147   3.360
 2017SOL    HW1 6058   1.984   2.207   3.347
 2017SOL    HW2 6059   2.054   2.098   3.446
 2018SOL     OW 6060   3.494   3.239   1.943
 2018SOL    HW1 6061   3.462   3.333   1.933
 2018SOL    HW2 6062   3.418   3.176   1.931
 2019SOL     OW 6063   2.326   3.605   2.185
 2019SOL    HW1 6064   2.359   3.644   2.271
 2019SOL    HW2 6065   2.402   3.598   2.120
 2020SOL     OW 6066   3.262   1.969   2.288
 2020SOL    HW1 6067   3.238   1.932   2.198
 2020SOL    HW2 6068   3.361   1.985   2.292
 2021SOL     OW 6069   2.111   3.647   3.103
 2021SOL    HW1 6070   2.168   3.582   3.153
 2021SOL    HW2 6071   2.095   3.614   3.010
 2022SOL     OW 6072   2.802   3.560   2.766
 2022SOL    HW1 6073   2.882   3.503   2.787
 2022SOL    HW2 6074   2.753   3.520   2.689
 2023SOL     OW 6075   3.409   2.084   3.591
 2023SOL    HW1 6076   3.404   2.121   3.683
 2023SOL    HW2 6077   3.337   2.015   3.579
 2024SOL     OW 6078   2.476   1.984   1.979
 2024SOL    HW1 6079   2.574   1.962   1.986
 2024SOL    HW2 6080   2.445   1.967   1.886
 2025SOL     OW 6081   2.643   2.126   3.611
 2025SOL    HW1 6082   2.710   2.065   3.654
 2025SOL    HW2 6083   2.570   2.145   3.676
 2026SOL     OW 6084   2.750   3.376   3.057
 2026SOL    HW1 6085   2.727   3.351   2.963
 2026SOL    HW2 6086   2.811   3.307   3.096
 2027SOL     OW 6087   3.213   2.452   3.295
 2027SOL    HW1 6088   3.241   2.409   3.380
 2027SOL    HW2 6089   3.238   2.548   3.296
 2028SOL     OW 6090   2.665   3.264   2.786
 2028SOL    HW1 6091   2.755   3.278   2.744
 2028SOL    HW2 6092   2.594   3.266   2.715
 2029SOL     OW 6093   2.784   2.365   2.761
 2029SOL    HW1 6094   2.759   2.356   2.665
 2029SOL    HW2 6095   2.832   2.283   2.792
 2030SOL     OW 6096   3.296   3.050   1.903
 2030SOL    HW1 6097   3.328   2.974   1.960
 2030SOL    HW2 6098   3.204   3.077   1.933
 2031SOL     OW 6099   2.159   1.897   2.033
 2031SOL    HW1 6100   2.208   1.981   2.012
 2031SOL    HW2 6101   2.221   1.832   2.078
 2032SOL     OW 6102   2.797   2.098   2.342
 2032SOL    HW1 6103   2.749   2.139   2.264
 2032SOL    HW2 6104   2.896   2.096   2.323
 2033SOL     OW 6105   2.938   2.545   3.326
 2033SOL    HW1 6106   2.858   2.484   3.329
 2033SOL    HW2 6107   3.019   2.492   3.302
 2034SOL     OW 6108   3.089   3.432   2.655
 2034SOL    HW1 6109   3.110   3.506   2.590
 2034SOL    HW2 6110   3.157   3.432   2.728
 2035SOL     OW 6111   2.321   3.014   2.603
 2035SOL    HW1 6112   2.250   2.987   2.668
 2035SOL    HW2 6113   2.295   2.986   2.510
 2036SOL     OW 6114   3.133   3.659   2.453
 2036SOL    HW1 6115   3.177   3.723   2.389
 2036SOL    HW2 6116   3.083   3.711   2.523
 2037SOL     OW 6117   2.894   2.411   1.878
 2037SOL    HW1 6118   2.853   2.493   1.839
 2037SOL    HW2 6119   2.958   2.437   1.951
 2038SOL     OW 6120   1.940   2.418   3.248
 2038SOL    HW1 6121   2.032   2.417   3.207
 2038SOL    HW2 6122   1.934   2.492   3.315
 2039SOL     OW 6123   2.423   2.084   3.009
 2039SOL    HW1 6124   2.461   2.000   3.046
 2039SOL    HW2 6125   2.335   2.103   3.053
 2040SOL     OW 6126   2.728   2.316   2.504
 2040SOL    HW1 6127   2.696   2.388   2.442
 2040SOL    HW2 6128   2.752   2.235   2.451
 2041SOL     OW 6129   2.879   1.901   2.615
 2041SOL    HW1 6130   2.807   1.906   2.546
 2041SOL    HW2 6131   2.855   1.832   2.684
 2042SOL     OW 6132   3.291   3.035   2.729
 2042SOL    HW1 6133   3.236   2.951   2.722
 2042SOL    HW2 6134   3.317   3.064   2.637
 2043SOL     OW 6135   3.328   2.452   2.854
 2043SOL    HW1 6136   3.298   2.357   2.861
 2043SOL    HW2 6137   3.401   2.468   2.920
 2044SOL     OW 6138   3.719   2.695   2.239
 2044SOL    HW1 6139   3.761   2.631   2.303
 2044SOL    HW2 6140   3.681   2.644   2.161
 2045SOL     OW 6141   2.350   3.247   2.036
 2045SOL    HW1 6142   2.263   3.232   2.083
 2045SOL    HW2 6143   2.333   3.273   1.941
 2046SOL     OW 6144   3.526   3.142   2.519
 2046SOL    HW1 6145   3.625   3.150   2.533
 2046SOL    HW2 6146   3.481   3.226   2.550
 2047SOL     OW 6147   3.252   2.437   1.940
 2047SOL    HW1 6148   3.198   2.416   2.021
 2047SOL    HW2 6149   3.343   2.396   1.949
 2048SOL     OW 6150   3.616   3.085   3.450
 2048SOL    HW1 6151   3.707   3.046   3.437
 2048SOL    HW2 6152   3.624   3.181   3.474
 2049SOL     OW 6153   2.926   3.209   3.202
 2049SOL    HW1 6154   2.846   3.186   3.257
 2049SOL    HW2 6155   3.009   3.183   3.251
 2050SOL     OW 6156   3.454   3.491   3.487
 2050SOL    HW1 6157   3.481   3.525   3.397
 2050SOL    HW2 6158   3.533   3.453   3.533
 2051SOL     OW 6159   2.973   3.057   2.962
 2051SOL    HW1 6160   2.933   3.101   3.043
 2051SOL    HW2 6161   2.932   3.094   2.879
 2052SOL     OW 6162   3.500   2.961   2.941
 2052SOL    HW1 6163   3.505   3.042   3.000
 2052SOL    HW2 6164   3.414   2.963   2.890
 2053SOL     OW 6165   2.777   1.951   3.264
 2053SOL    HW1 6166   2.802   1.931   3.169
 2053SOL    HW2 6167   2.849   2.007   3.306
 2054SOL     OW 6168   2.842   2.978   3.581
 2054SOL    HW1 6169   2.743   2.984   3.591
 2054SOL    HW2 6170   2.865   2.898   3.525
 2055SOL     OW 6171   2.567   2.912   2.230
 2055SOL    HW1 6172   2.553   2.919   2.329
 2055SOL    HW2 6173   2.651   2.861   2.212
 2056SOL     OW 6174   2.272   2.675   3.113
 2056SOL    HW1 6175   2.358   2.687   3.163
 2056SOL    HW2 6176   2.230   2.588   3.140
 2057SOL     OW 6177   3.136   2.248   3.124
 2057SOL    HW1 6178   3.157   2.322   3.188
 2057SOL    HW2 6179   3.047   2.265   3.081
 2058SOL     OW 6180   1.926   3.426   3.193
 2058SOL    HW1 6181   1.880   3.508   3.159
 2058SOL    HW2 6182   2.024   3.445   3.202
 2059SOL     OW 6183   2.229   2.962   2.363
 2059SOL    HW1 6184   2.222   3.045   2.307
 2059SOL    HW2 6185   2.233   2.882   2.303
 2060SOL     OW 6186   2.428   2.399   2.727
 2060SOL    HW1 6187   2.440   2.465   2.653
 2060SOL    HW2 6188   2.474   2.433   2.810
 2061SOL     OW 6189   3.114   3.210   2.250
 2061SOL    HW1 6190   3.164   3.287   2.290
 2061SOL    HW2 6191   3.019   3.212   2.282
 2062SOL     OW 6192   3.134   3.307   3.004
 2062SOL    HW1 6193   3.181   3.320   3.091
 2062SOL    HW2 6194   3.068   3.233   3.013
 2063SOL     OW 6195   3.444   2.501   2.334
 2063SOL    HW1 6196   3.413   2.562   2.407
 2063SOL    HW2 6197   3.494   2.553   2.265
 2064SOL     OW 6198   2.216   3.372   3.191
 2064SOL    HW1 6199   2.195   3.328   3.104
 2064SOL    HW2 6200   2.313   3.398   3.194
 2065SOL     OW 6201   2.264   2.613   3.460
 2065SOL    HW1 6202   2.332   2.668   3.413
 2065SOL    HW2 6203   2.304   2.525   3.487
 2066SOL     OW 6204   3.449   2.641   3.532
 2066SOL    HW1 6205   3.357   2.679   3.527
 2066SOL    HW2 6206   3.509   2.688   3.467
 2067SOL     OW 6207   2.875   1.967   3.632
 2067SOL    HW1 6208   2.881   2.052   3.580
 2067SOL    HW2 6209   2.907   1.891   3.575
 2068SOL     OW 6210   2.366   1.912   3.602
 2068SOL    HW1 6211   2.324   1.855   3.532
 2068SOL    HW2 6212   2.300   1.981   3.634
 2069SOL     OW 6213   2.435   2.732   2.891
 2069SOL    HW1 6214   2.479   2.821   2.882
 2069SOL    HW2 6215   2.372   2.732   2.968
 2070SOL     OW 6216   3.222   2.724   2.907
 2070SOL    HW1 6217   3.147   2.724   2.841
 2070SOL    HW2 6218   3.259   2.632   2.916
 2071SOL     OW 6219   3.071   2.387   2.137
 2071SOL    HW1 6220   3.084   2.303   2.191
 2071SOL    HW2 6221   3.042   2.461   2.197
 2072SOL     OW 6222   2.169   2.075   3.093
 2072SOL    HW1 6223   2.146   2.112   3.183
 2072SOL    HW2 6224   2.139   1.980   3.087
 2073SOL     OW 6225   1.899   3.172   3.144
 2073SOL    HW1 6226   1.952   3.123   3.212
 2073SOL    HW2 6227   1.921   3.270   3.149
 2074SOL     OW 6228   2.594   2.496   2.926
 2074SOL    HW1 6229   2.653   2.470   2.850
 2074SOL    HW2 6230   2.566   2.592   2.915
 2075SOL     OW 6231   3.590   2.797   3.716
 2075SOL    HW1 6232   3.544   2.790   3.627
 2075SOL    HW2 6233   3.528   2.841   3.782
 2076SOL     OW 6234   2.169   1.925   2.480
 2076SOL    HW1 6235   2.158   2.019   2.513
 2076SOL    HW2 6236   2.164   1.862   2.557
 2077SOL     OW 6237   3.484   2.229   2.236
 2077SOL    HW1 6238   3.486   2.153   2.300
 2077SOL    HW2 6239   3.436   2.306   2.276
 2078SOL     OW 6240   2.885   2.628   2.828
 2078SOL    HW1 6241   2.900   2.649   2.924
 2078SOL    HW2 6242   2.855   2.533   2.819
 2079SOL     OW 6243   2.842   3.435   3.562
 2079SOL    HW1 6244   2.822   3.479   3.474
 2079SOL    HW2 6245   2.881   3.344   3.546
 2080SOL     OW 6246   3.721   3.380   3.467
 2080SOL    HW1 6247   3.735   3.407   3.372
 2080SOL    HW2 6248   3.804   3.402   3.520
 2081SOL     OW 6249   2.212   2.760   3.666
 2081SOL    HW1 6250   2.288   2.804   3.714
 2081SOL    HW2 6251   2.247   2.713   3.584
 2082SOL     OW 6252   3.402   2.136   1.987
 2082SOL    HW1 6253   3.341   2.061   2.010
 2082SOL    HW2 6254   3.424   2.188   2.070
 2083SOL     OW 6255   3.165   2.700   1.904
 2083SOL    HW1 6256   3.199   2.607   1.919
 2083SOL    HW2 6257   3.183   2.727   1.809
 2084SOL     OW 6258   2.930   3.195   2.711
 2084SOL    HW1 6259   2.937   3.111   2.656
 2084SOL    HW2 6260   2.992   3.264   2.675
 2085SOL     OW 6261   2.181   2.672   2.811
 2085SOL    HW1 6262   2.274   2.708   2.816
 2085SOL    HW2 6263   2.175   2.587   2.863
 2086SOL     OW 6264   2.201   2.371   2.868
 2086SOL    HW1 6265   2.149   2.288   2.851
 2086SOL    HW2 6266   2.278   2.376   2.804
 2087SOL     OW 6267   3.000   2.242   3.540
 2087SOL    HW1 6268   2.955   2.305   3.604
 2087SOL    HW2 6269   3.093   2.273   3.523
 2088SOL     OW 6270   3.022   2.069   3.339
 2088SOL    HW1 6271   3.022   2.133   3.416
 2088SOL    HW2 6272   3.050   2.117   3.256
 2089SOL     OW 6273   1.870   3.188   2.062
 2089SOL    HW1 6274   1.777   3.209   2.031
 2089SOL    HW2 6275   1.880   3.089   2.075
 2090SOL     OW 6276   1.950   3.663   2.789
 2090SOL    HW1 6277   1.908   3.577   2.762
 2090SOL    HW2 6278   2.044   3.666   2.755
 2091SOL     OW 6279   2.366   3.430   2.772
 2091SOL    HW1 6280   2.432   3.504   2.781
 2091SOL    HW2 6281   2.410   3.351   2.730
 2092SOL     OW 6282   2.864   2.658   3.100
 2092SOL    HW1 6283   2.905   2.626   3.186
 2092SOL    HW2 6284   2.768   2.631   3.097
 2093SOL     OW 6285   1.902   2.406   2.976
 2093SOL    HW1 6286   1.987   2.373   2.935
 2093SOL    HW2 6287   1.915   2.421   3.074
 2094SOL     OW 6288   2.051   2.382   3.584
 2094SOL    HW1 6289   2.110   2.342   3.514
 2094SOL    HW2 6290   1.993   2.453   3.543
 2095SOL     OW 6291   3.231   2.812   3.522
 2095SOL    HW1 6292   3.270   2.901   3.542
 2095SOL    HW2 6293   3.241   2.792   3.425
 2096SOL     OW 6294   2.677   2.434   2.187
 2096SOL    HW1 6295   2.684   2.345   2.141
 2096SOL    HW2 6296   2.583   2.468   2.179
 2097SOL     OW 6297   3.519   2.466   3.068
 2097SOL    HW1 6298   3.481   2.397   3.130
 2097SOL    HW2 6299   3.601   2.430   3.024
 2098SOL     OW 6300   2.114   3.426   3.606
 2098SOL    HW1 6301   2.084   3.483   3.682
 2098SOL    HW2 6302   2.107   3.329   3.632
 2099SOL     OW 6303   2.533   2.326   3.131
 2099SOL    HW1 6304   2.499   2.237   3.101
 2099SOL    HW2 6305   2.559   2.380   3.051
 2100SOL     OW 6306   2.792   3.540   3.327
 2100SOL    HW1 6307   2.768   3.522   3.232
 2100SOL    HW2 6308   2.822   3.634   3.337
 2101SOL     OW 6309   2.021   2.999   3.328
 2101SOL    HW1 6310   2.043   2.938   3.404
 2101SOL    HW2 6311   2.031   2.950   3.242
 2102SOL     OW 6312   3.209   2.921   3.096
 2102SOL    HW1 6313   3.233   2.858   3.022
 2102SOL    HW2 6314   3.119   2.961   3.078
 2103SOL     OW 6315   3.164   2.717   2.171
 2103SOL    HW1 6316   3.078   2.686   2.213
 2103SOL    HW2 6317   3.160   2.703   2.072
 2104SOL     OW 6318   3.621   3.609   3.016
 2104SOL    HW1 6319   3.682   3.639   2.943
 2104SOL    HW2 6320   3.583   3.520   2.994
 2105SOL     OW 6321   3.114   3.593   2.990
 2105SOL    HW1 6322   3.198   3.598   2.936
 2105SOL    HW2 6323   3.091   3.497   3.008
 2106SOL     OW 6324   1.945   3.120   2.884
 2106SOL    HW1 6325   1.940   3.119   2.984
 2106SOL    HW2 6326   1.862   3.079   2.846
 2107SOL     OW 6327   2.550   3.524   3.578
 2107SOL    HW1 6328   2.494   3.605   3.587
 2107SOL    HW2 6329   2.602   3.528   3.492
 2108SOL     OW 6330   3.588   1.997   2.385
 2108SOL    HW1 6331   3.661   1.980   2.318
 2108SOL    HW2 6332   3.557   1.910   2.423
 2109SOL     OW 6333   3.250   3.435   2.339
 2109SOL    HW1 6334   3.317   3.447   2.265
 2109SOL    HW2 6335   3.210   3.524   2.362
 2110SOL     OW 6336   1.992   3.656   3.713
 2110SOL    HW1 6337   1.951   3.582   3.766
 2110SOL    HW2 6338   2.056   3.707   3.771
 2111SOL     OW 6339   3.142   2.789   2.534
 2111SOL    HW1 6340   3.202   2.708   2.536
 2111SOL    HW2 6341   3.182   2.858   2.474
 2112SOL     OW 6342   2.692   3.135   3.284
 2112SOL    HW1 6343   2.687   3.168   3.379
 2112SOL    HW2 6344   2.606   3.154   3.238
 2113SOL     OW 6345   2.534   3.478   2.016
 2113SOL    HW1 6346   2.543   3.488   1.917
 2113SOL    HW2 6347   2.494   3.389   2.037
 2114SOL     OW 6348   3.512   3.582   3.256
 2114SOL    HW1 6349   3.565   3.592   3.172
 2114SOL    HW2 6350   3.485   3.672   3.290
 2115SOL     OW 6351   3.703   2.037   2.825
 2115SOL    HW1 6352   3.742   1.952   2.789
 2115SOL    HW2 6353   3.605   2.039   2.806
 2116SOL     OW 6354   2.125   2.188   2.582
 2116SOL    HW1 6355   2.046   2.239   2.548
 2116SOL    HW2 6356   2.116   2.173   2.680
 2117SOL     OW 6357   3.056   3.474   1.893
 2117SOL    HW1 6358   3.062   3.381   1.930
 2117SOL    HW2 6359   2.997   3.474   1.813
 2118SOL     OW 6360   2.684   2.864   3.234
 2118SOL    HW1 6361   2.724   2.863   3.142
 2118SOL    HW2 6362   2.694   2.956   3.274
 2119SOL     OW 6363   2.778   2.772   2.153
 2119SOL    HW1 6364   2.841   2.810   2.085
 2119SOL    HW2 6365   2.818   2.689   2.192
 2120SOL     OW 6366   3.366   3.469   1.906
 2120SOL    HW1 6367   3.274   3.506   1.913
 2120SOL    HW2 6368   3.404   3.489   1.816
 2121SOL     OW 6369   2.234   3.150   3.352
 2121SOL    HW1 6370   2.221   3.243   3.318
 2121SOL    HW2 6371   2.150   3.098   3.339
 2122SOL     OW 6372   3.476   3.154   3.151
 2122SOL    HW1 6373   3.536   3.157   3.231
 2122SOL    HW2 6374   3.401   3.218   3.164
 2123SOL     OW 6375   2.901   2.960   2.558
 2123SOL    HW1 6376   2.831   2.913   2.612
 2123SOL    HW2 6377   2.960   2.892   2.515
 2124SOL     OW 6378   2.876   2.098   2.833
 2124SOL    HW1 6379   2.868   2.062   2.740
 2124SOL    HW2 6380   2.874   2.022   2.898
 2125SOL     OW 6381   2.452   3.349   2.353
 2125SOL    HW1 6382   2.494   3.291   2.283
 2125SOL    HW2 6383   2.408   3.428   2.309
 2126SOL     OW 6384   3.571   2.247   3.243
 2126SOL    HW1 6385   3.644   2.316   3.247
 2126SOL    HW2 6386   3.599   2.172   3.184
 2127SOL     OW 6387   2.117   3.210   2.152
 2127SOL    HW1 6388   2.021   3.211   2.125
 2127SOL    HW2 6389   2.129   3.263   2.236
 2128SOL     OW 6390   1.967   2.875   3.588
 2128SOL    HW1 6391   1.890   2.842   3.642
 2128SOL    HW2 6392   2.052   2.845   3.630
 2129SOL     OW 6393   2.534   2.065   3.351
 2129SOL    HW1 6394   2.624   2.049   3.311
 2129SOL    HW2 6395   2.542   2.070   3.450
 2130SOL     OW 6396   1.937   2.207   1.895
 2130SOL    HW1 6397   1.845   2.179   1.866
 2130SOL    HW2 6398   1.968   2.284   1.839
 2131SOL     OW 6399   3.302   2.718   3.260
 2131SOL    HW1 6400   3.245   2.770   3.197
 2131SOL    HW2 6401   3.398   2.730   3.236
 2132SOL     OW 6402   1.934   2.028   2.180
 2132SOL    HW1 6403   1.917   2.111   2.126
 2132SOL    HW2 6404   2.024   1.991   2.158
 2133SOL     OW 6405   3.045   3.197   1.981
 2133SOL    HW1 6406   2.946   3.186   1.983
 2133SOL    HW2 6407   3.079   3.212   2.074
 2134SOL     OW 6408   2.475   2.704   3.293
 2134SOL    HW1 6409   2.531   2.785   3.276
 2134SOL    HW2 6410   2.534   2.624   3.296
 2135SOL     OW 6411   3.355   3.629   2.821
 2135SOL    HW1 6412   3.388   3.693   2.752
 2135SOL    HW2 6413   3.421   3.623   2.896
 2136SOL     OW 6414   2.578   2.427   3.570
 2136SOL    HW1 6415   2.597   2.492   3.644
 2136SOL    HW2 6416   2.638   2.347   3.579
 2137SOL     OW 6417   3.312   3.082   3.495
 2137SOL    HW1 6418   3.303   3.072   3.594
 2137SOL    HW2 6419   3.408   3.075   3.469
 2138SOL     OW 6420   2.252   3.603   3.422
 2138SOL    HW1 6421   2.161   3.644   3.420
 2138SOL    HW2 6422   2.245   3.509   3.454
 2139SOL     OW 6423   3.536   2.745   3.116
 2139SOL    HW1 6424   3.509   2.656   3.079
 2139SOL    HW2 6425   3.537   2.813   3.043
 2140SOL     OW 6426   3.087   2.187   2.311
 2140SOL    HW1 6427   3.152   2.113   2.300
 2140SOL    HW2 6428   3.107   2.237   2.395
 2141SOL     OW 6429   2.456   2.607   2.514
 2141SOL    HW1 6430   2.506   2.692   2.495
 2141SOL    HW2 6431   2.368   2.609   2.466
 2142SOL     OW 6432   3.639   2.204   3.504
 2142SOL    HW1 6433   3.622   2.235   3.410
 2142SOL    HW2 6434   3.555   2.167   3.542
 2143SOL     OW 6435   3.592   2.796   3.379
 2143SOL    HW1 6436   3.630   2.887   3.394
 2143SOL    HW2 6437   3.584   2.779   3.280
 2144SOL     OW 6438   2.721   3.236   1.878
 2144SOL    HW1 6439   2.675   3.251   1.966
 2144SOL    HW2 6440   2.765   3.321   1.848
 2145SOL     OW 6441   2.523   3.652   2.815
 2145SOL    HW1 6442   2.477   3.740   2.802
 2145SOL    HW2 6443   2.622   3.664   2.808
 2146SOL     OW 6444   2.721   2.818   2.723
 2146SOL    HW1 6445   2.775   2.749   2.771
 2146SOL    HW2 6446   2.689   2.887   2.789
 2147SOL     OW 6447   2.945   2.846   1.949
 2147SOL    HW1 6448   2.922   2.899   1.867
 2147SOL    HW2 6449   3.026   2.790   1.930
 2148SOL     OW 6450   3.723   3.431   2.713
 2148SOL    HW1 6451   3.652   3.419   2.643
 2148SOL    HW2 6452   3.724   3.352   2.773
 2149SOL     OW 6453   2.083   3.176   3.706
 2149SOL    HW1 6454   2.018   3.103   3.685
 2149SOL    HW2 6455   2.087   3.190   3.804
 2150SOL     OW 6456   1.941   3.102   2.515
 2150SOL    HW1 6457   1.940   3.055   2.603
 2150SOL    HW2 6458   2.023   3.074   2.464
 2151SOL     OW 6459   2.534   3.253   3.486
 2151SOL    HW1 6460   2.456   3.203   3.524
 2151SOL    HW2 6461   2.531   3.348   3.517
 2152SOL     OW 6462   3.686   2.054   3.089
 2152SOL    HW1 6463   3.682   1.964   3.133
 2152SOL    HW2 6464   3.689   2.043   2.990
 2153SOL     OW 6465   3.567   3.349   2.966
 2153SOL    HW1 6466   3.474   3.324   2.939
 2153SOL    HW2 6467   3.593   3.299   3.048
 2154SOL     OW 6468   2.179   2.409   3.142
 2154SOL    HW1 6469   2.217   2.350   3.214
 2154SOL    HW2 6470   2.219   2.383   3.054
 2155SOL     OW 6471   2.674   3.448   2.549
 2155SOL    HW1 6472   2.706   3.458   2.455
 2155SOL    HW2 6473   2.595   3.386   2.551
 2156SOL     OW 6474   3.286   2.076   2.974
 2156SOL    HW1 6475   3.338   2.011   3.029
 2156SOL    HW2 6476   3.237   2.139   3.035
 2157SOL     OW 6477   2.863   1.896   3.016
 2157SOL    HW1 6478   2.800   1.824   2.985
 2157SOL    HW2 6479   2.956   1.860   3.016
 2158SOL     OW 6480   2.632   3.192   2.163
 2158SOL    HW1 6481   2.586   3.105   2.180
 2158SOL    HW2 6482   2.723   3.189   2.204
 2159SOL     OW 6483   2.480   3.429   3.146
 2159SOL    HW1 6484   2.475   3.511   3.203
 2159SOL    HW2 6485   2.569   3.426   3.101
 2160SOL     OW 6486   3.214   1.914   2.030
 2160SOL    HW1 6487   3.249   1.873   1.946
 2160SOL    HW2 6488   3.124   1.876   2.050
 2161SOL     OW 6489   3.162   2.315   2.553
 2161SOL    HW1 6490   3.103   2.395   2.557
 2161SOL    HW2 6491   3.177   2.280   2.646
 2162SOL     OW 6492   3.455   2.083   2.744
 2162SOL    HW1 6493   3.371   2.082   2.798
 2162SOL    HW2 6494   3.457   2.166   2.688
 2163SOL     OW 6495   1.901   2.939   2.162
 2163SOL    HW1 6496   2.000   2.928   2.153
 2163SOL    HW2 6497   1.861   2.853   2.194
 2164SOL     OW 6498   2.737   3.508   2.199
 2164SOL    HW1 6499   2.660   3.473   2.145
 2164SOL    HW2 6500   2.705   3.579   2.261
 2165SOL     OW 6501   2.092   2.490   3.837
 2165SOL    HW1 6502   1.999   2.488   3.874
 2165SOL    HW2 6503   2.093   2.451   3.745
 2166SOL     OW 6504   2.087   2.137   4.720
 2166SOL    HW1 6505   2.122   2.120   4.812
 2166SOL    HW2 6506   1.999   2.092   4.708
 2167SOL     OW 6507   3.617   2.469   3.955
 2167SOL    HW1 6508   3.605   2.456   3.856
 2167SOL    HW2 6509   3.587   2.388   4.004
 2168SOL     OW 6510   2.547   2.874   4.389
 2168SOL    HW1 6511   2.616   2.858   4.459
 2168SOL    HW2 6512   2.474   2.931   4.427
 2169SOL     OW 6513   3.465   2.309   4.461
 2169SOL    HW1 6514   3.391   2.355   4.411
 2169SOL    HW2 6515   3.516   2.377   4.514
 2170SOL     OW 6516   2.093   3.575   4.207
 2170SOL    HW1 6517   2.127   3.652   4.261
 2170SOL    HW2 6518   2.137   3.575   4.117
 2171SOL     OW 6519   2.092   3.296   4.262
 2171SOL    HW1 6520   2.066   3.392   4.262
 2171SOL    HW2 6521   2.021   3.242   4.307
 2172SOL     OW 6522   2.468   2.826   3.847
 2172SOL    HW1 6523   2.475   2.910   3.793
 2172SOL    HW2 6524   2.514   2.839   3.935
 2173SOL     OW 6525   1.984   2.505   4.287
 2173SOL    HW1 6526   1.939   2.417   4.304
 2173SOL    HW2 6527   1.983   2.559   4.371
 2174SOL     OW 6528   3.704   3.629   4.083
 2174SOL    HW1 6529   3.758   3.600   4.163
 2174SOL    HW2 6530   3.734   3.719   4.054
 2175SOL     OW 6531   1.889   3.458   3.841
 2175SOL    HW1 6532   1.870   3.362   3.862
 2175SOL    HW2 6533   1.856   3.516   3.916
 2176SOL     OW 6534   3.551   2.784   4.336
 2176SOL    HW1 6535   3.646   2.755   4.344
 2176SOL    HW2 6536   3.543   2.849   4.261
 2177SOL     OW 6537   3.503   2.970   4.156
 2177SOL    HW1 6538   3.589   2.972   4.104
 2177SOL    HW2 6539   3.517   3.017   4.244
 2178SOL     OW 6540   2.475   3.227   4.450
 2178SOL    HW1 6541   2.426   3.140   4.459
 2178SOL    HW2 6542   2.452   3.270   4.363
 2179SOL     OW 6543   2.671   1.866   4.226
 2179SOL    HW1 6544   2.711   1.957   4.217
 2179SOL    HW2 6545   2.571   1.874   4.232
 2180SOL     OW 6546   3.387   2.861   3.914
 2180SOL    HW1 6547   3.324   2.785   3.927
 2180SOL    HW2 6548   3.435   2.879   4.000
 2181SOL     OW 6549   3.529   3.576   4.296
 2181SOL    HW1 6550   3.488   3.553   4.208
 2181SOL    HW2 6551   3.511   3.502   4.361
 2182SOL     OW 6552   2.460   2.591   3.994
 2182SOL    HW1 6553   2.484   2.660   3.926
 2182SOL    HW2 6554   2.382   2.624   4.048
 2183SOL     OW 6555   3.143   2.207   4.668
 2183SOL    HW1 6556   3.057   2.157   4.655
 2183SOL    HW2 6557   3.205   2.153   4.724
 2184SOL     OW 6558   3.438   3.524   4.031
 2184SOL    HW1 6559   3.527   3.570   4.034
 2184SOL    HW2 6560   3.417   3.500   3.936
 2185SOL     OW 6561   2.903   2.563   4.153
 2185SOL    HW1 6562   2.929   2.559   4.249
 2185SOL    HW2 6563   2.818   2.512   4.139
 2186SOL     OW 6564   1.938   2.673   4.513
 2186SOL    HW1 6565   2.037   2.661   4.522
 2186SOL    HW2 6566   1.914   2.768   4.534
 2187SOL     OW 6567   2.727   2.210   3.919
 2187SOL    HW1 6568   2.786   2.273   3.870
 2187SOL    HW2 6569   2.746   2.116   3.890
 2188SOL     OW 6570   3.224   3.006   4.269
 2188SOL    HW1 6571   3.307   2.977   4.221
 2188SOL    HW2 6572   3.175   3.073   4.213
 2189SOL     OW 6573   2.870   3.318   4.201
 2189SOL    HW1 6574   2.824   3.390   4.149
 2189SOL    HW2 6575   2.866   3.338   4.299
 2190SOL     OW 6576   2.213   3.663   4.577
 2190SOL    HW1 6577   2.263   3.577   4.583
 2190SOL    HW2 6578   2.278   3.740   4.574
 2191SOL     OW 6579   3.657   2.928   4.597
 2191SOL    HW1 6580   3.595   2.913   4.521
 2191SOL    HW2 6581   3.605   2.939   4.682
 2192SOL     OW 6582   2.183   2.805   3.966
 2192SOL    HW1 6583   2.265   2.844   3.924
 2192SOL    HW2 6584   2.156   2.723   3.917
 2193SOL     OW 6585   2.973   3.638   3.961
 2193SOL    HW1 6586   2.913   3.576   4.011
 2193SOL    HW2 6587   3.004   3.594   3.876
 2194SOL     OW 6588   3.494   3.239   3.805
 2194SOL    HW1 6589   3.462   3.333   3.795
 2194SOL    HW2 6590   3.418   3.176   3.793
 2195SOL     OW 6591   2.326   3.605   4.047
 2195SOL    HW1 6592   2.359   3.644   4.133
 2195SOL    HW2 6593   2.402   3.598   3.982
 2196SOL     OW 6594   3.262   1.969   4.150
 2196SOL    HW1 6595   3.238   1.932   4.060
 2196SOL    HW2 6596   3.361   1.985   4.154
 2197SOL     OW 6597   2.802   3.560   4.628
 2197SOL    HW1 6598   2.882   3.503   4.649
 2197SOL    HW2 6599   2.753   3.520   4.551
 2198SOL     OW 6600   2.244   2.562   4.204
 2198SOL    HW1 6601   2.289   2.472   4.201
 2198SOL    HW2 6602   2.150   2.551   4.237
 2199SOL     OW 6603   2.476   1.984   3.841
 2199SOL    HW1 6604   2.574   1.962   3.848
 2199SOL    HW2 6605   2.445   1.967   3.748
 2200SOL     OW 6606   2.401   1.926   4.236
 2200SOL    HW1 6607   2.320   1.927   4.294
 2200SOL    HW2 6608   2.404   2.009   4.181
 2201SOL     OW 6609   3.296   3.050   3.765
 2201SOL    HW1 6610   3.328   2.974   3.822
 2201SOL    HW2 6611   3.204   3.077   3.795
 2202SOL     OW 6612   2.159   1.897   3.895
 2202SOL    HW1 6613   2.208   1.981   3.874
 2202SOL    HW2 6614   2.221   1.832   3.940
 2203SOL     OW 6615   2.797   2.098   4.204
 2203SOL    HW1 6616   2.749   2.139   4.126
 2203SOL    HW2 6617   2.896   2.096   4.185
 2204SOL     OW 6618   2.321   3.014   4.465
 2204SOL    HW1 6619   2.250   2.987   4.530
 2204SOL    HW2 6620   2.295   2.986   4.372
 2205SOL     OW 6621   3.133   3.659   4.315
 2205SOL    HW1 6622   3.177   3.723   4.251
 2205SOL    HW2 6623   3.083   3.711   4.385
 2206SOL     OW 6624   2.894   2.411   3.740
 2206SOL    HW1 6625   2.853   2.493   3.701
 2206SOL    HW2 6626   2.958   2.437   3.813
 2207SOL     OW 6627   2.728   2.316   4.366
 2207SOL    HW1 6628   2.696   2.388   4.304
 2207SOL    HW2 6629   2.752   2.235   4.313
 2208SOL     OW 6630   3.719   2.695   4.101
 2208SOL    HW1 6631   3.761   2.631   4.165
 2208SOL    HW2 6632   3.681   2.644   4.023
 2209SOL     OW 6633   2.350   3.247   3.898
 2209SOL    HW1 6634   2.263   3.232   3.945
 2209SOL    HW2 6635   2.333   3.273   3.803
 2210SOL     OW 6636   3.526   3.142   4.381
 2210SOL    HW1 6637   3.625   3.150   4.395
 2210SOL    HW2 6638   3.481   3.226   4.412
 2211SOL     OW 6639   3.252   2.437   3.802
 2211SOL    HW1 6640   3.198   2.416   3.883
 2211SOL    HW2 6641   3.343   2.396   3.811
 2212SOL     OW 6642   2.389   2.118   4.052
 2212SOL    HW1 6643   2.416   2.059   3.977
 2212SOL    HW2 6644   2.389   2.213   4.021
 2213SOL     OW 6645   2.973   3.057   4.824
 2213SOL    HW1 6646   2.933   3.101   4.905
 2213SOL    HW2 6647   2.932   3.094   4.741
 2214SOL     OW 6648   2.567   2.912   4.092
 2214SOL    HW1 6649   2.553   2.919   4.191
 2214SOL    HW2 6650   2.651   2.861   4.074
 2215SOL     OW 6651   2.229   2.962   4.225
 2215SOL    HW1 6652   2.222   3.045   4.169
 2215SOL    HW2 6653   2.233   2.882   4.165
 2216SOL     OW 6654   3.114   3.210   4.112
 2216SOL    HW1 6655   3.164   3.287   4.152
 2216SOL    HW2 6656   3.019   3.212   4.144
 2217SOL     OW 6657   3.444   2.501   4.196
 2217SOL    HW1 6658   3.413   2.562   4.269
 2217SOL    HW2 6659   3.494   2.553   4.127
 2218SOL     OW 6660   3.071   2.387   3.999
 2218SOL    HW1 6661   3.084   2.303   4.053
 2218SOL    HW2 6662   3.042   2.461   4.059
 2219SOL     OW 6663   2.169   1.925   4.342
 2219SOL    HW1 6664   2.158   2.019   4.375
 2219SOL    HW2 6665   2.164   1.862   4.419
 2220SOL     OW 6666   3.484   2.229   4.098
 2220SOL    HW1 6667   3.486   2.153   4.162
 2220SOL    HW2 6668   3.436   2.306   4.138
 2221SOL     OW 6669   3.402   2.136   3.849
 2221SOL    HW1 6670   3.341   2.061   3.872
 2221SOL    HW2 6671   3.424   2.188   3.932
 2222SOL     OW 6672   3.165   2.700   3.766
 2222SOL    HW1 6673   3.199   2.607   3.781
 2222SOL    HW2 6674   3.183   2.727   3.671
 2223SOL     OW 6675   1.870   3.188   3.924
 2223SOL    HW1 6676   1.777   3.209   3.893
 2223SOL    HW2 6677   1.880   3.089   3.937
 2224SOL     OW 6678   2.677   2.434   4.049
 2224SOL    HW1 6679   2.684   2.345   4.003
 2224SOL    HW2 6680   2.583   2.468   4.041
 2225SOL     OW 6681   2.335   2.362   3.915
 2225SOL    HW1 6682   2.396   2.442   3.919
 2225SOL    HW2 6683   2.240   2.393   3.922
 2226SOL     OW 6684   3.164   2.717   4.033
 2226SOL    HW1 6685   3.078   2.686   4.075
 2226SOL    HW2 6686   3.160   2.703   3.934
 2227SOL     OW 6687   3.588   1.997   4.247
 2227SOL    HW1 6688   3.661   1.980   4.180
 2227SOL    HW2 6689   3.557   1.910   4.285
 2228SOL     OW 6690   3.250   3.435   4.201
 2228SOL    HW1 6691   3.317   3.447   4.127
 2228SOL    HW2 6692   3.210   3.524   4.224
 2229SOL     OW 6693   2.534   3.478   3.878
 2229SOL    HW1 6694   2.543   3.488   3.779
 2229SOL    HW2 6695   2.494   3.389   3.899
 2230SOL     OW 6696   3.703   2.037   4.687
 2230SOL    HW1 6697   3.742   1.952   4.651
 2230SOL    HW2 6698   3.605   2.039   4.668
 2231SOL     OW 6699   3.056   3.474   3.755
 2231SOL    HW1 6700   3.062   3.381   3.792
 2231SOL    HW2 6701   2.997   3.474   3.675
 2232SOL     OW 6702   2.778   2.772   4.015
 2232SOL    HW1 6703   2.841   2.810   3.947
 2232SOL    HW2 6704   2.818   2.689   4.054
 2233SOL     OW 6705   3.366   3.469   3.768
 2233SOL    HW1 6706   3.274   3.506   3.775
 2233SOL    HW2 6707   3.404   3.489   3.678
 2234SOL     OW 6708   2.452   3.349   4.215
 2234SOL    HW1 6709   2.494   3.291   4.145
 2234SOL    HW2 6710   2.408   3.428   4.171
 2235SOL     OW 6711   2.117   3.210   4.014
 2235SOL    HW1 6712   2.021   3.211   3.987
 2235SOL    HW2 6713   2.129   3.263   4.098
 2236SOL     OW 6714   1.937   2.207   3.757
 2236SOL    HW1 6715   1.845   2.179   3.728
 2236SOL    HW2 6716   1.968   2.284   3.701
 2237SOL     OW 6717   1.934   2.028   4.042
 2237SOL    HW1 6718   1.917   2.111   3.988
 2237SOL    HW2 6719   2.024   1.991   4.020
 2238SOL     OW 6720   3.045   3.197   3.843
 2238SOL    HW1 6721   2.946   3.186   3.845
 2238SOL    HW2 6722   3.079   3.212   3.936
 2239SOL     OW 6723   3.087   2.187   4.173
 2239SOL    HW1 6724   3.152   2.113   4.162
 2239SOL    HW2 6725   3.107   2.237   4.257
 2240SOL     OW 6726   2.456   2.607   4.376
 2240SOL    HW1 6727   2.506   2.692   4.357
 2240SOL    HW2 6728   2.368   2.609   4.328
 2241SOL     OW 6729   2.721   3.236   3.740
 2241SOL    HW1 6730   2.675   3.251   3.828
 2241SOL    HW2 6731   2.765   3.321   3.710
 2242SOL     OW 6732   2.523   3.652   4.677
 2242SOL    HW1 6733   2.477   3.740   4.664
 2242SOL    HW2 6734   2.622   3.664   4.670
 2243SOL     OW 6735   2.945   2.846   3.811
 2243SOL    HW1 6736   2.922   2.899   3.729
 2243SOL    HW2 6737   3.026   2.790   3.792
 2244SOL     OW 6738   1.941   3.102   4.377
 2244SOL    HW1 6739   1.940   3.055   4.465
 2244SOL    HW2 6740   2.023   3.074   4.326
 2245SOL     OW 6741   2.290   2.286   4.244
 2245SOL    HW1 6742   2.320   2.214   4.182
 2245SOL    HW2 6743   2.251   2.246   4.327
 2246SOL     OW 6744   2.674   3.448   4.411
 2246SOL    HW1 6745   2.706   3.458   4.317
 2246SOL    HW2 6746   2.595   3.386   4.413
 2247SOL     OW 6747   2.632   3.192   4.025
 2247SOL    HW1 6748   2.586   3.105   4.042
 2247SOL    HW2 6749   2.723   3.189   4.066
 2248SOL     OW 6750   3.214   1.914   3.892
 2248SOL    HW1 6751   3.249   1.873   3.808
 2248SOL    HW2 6752   3.124   1.876   3.912
 2249SOL     OW 6753   3.162   2.315   4.415
 2249SOL    HW1 6754   3.103   2.395   4.419
 2249SOL    HW2 6755   3.177   2.280   4.508
 2250SOL     OW 6756   1.901   2.939   4.024
 2250SOL    HW1 6757   2.000   2.928   4.015
 2250SOL    HW2 6758   1.861   2.853   4.056
 2251SOL     OW 6759   2.737   3.508   4.061
 2251SOL    HW1 6760   2.660   3.473   4.007
 2251SOL    HW2 6761   2.705   3.579   4.123
 2252SOL     OW 6762   2.092   4.352   0.113
 2252SOL    HW1 6763   1.999   4.350   0.150
 2252SOL    HW2 6764   2.093   4.313   0.021
 2253SOL     OW 6765   2.087   3.999   0.996
 2253SOL    HW1 6766   2.122   3.982   1.088
 2253SOL    HW2 6767   1.999   3.954   0.984
 2254SOL     OW 6768   1.881   4.092   0.647
 2254SOL    HW1 6769   1.799   4.135   0.686
 2254SOL    HW2 6770   1.853   4.019   0.584
 2255SOL     OW 6771   3.617   4.331   0.231
 2255SOL    HW1 6772   3.605   4.318   0.132
 2255SOL    HW2 6773   3.587   4.250   0.280
 2256SOL     OW 6774   2.547   4.736   0.665
 2256SOL    HW1 6775   2.616   4.720   0.735
 2256SOL    HW2 6776   2.474   4.793   0.703
 2257SOL     OW 6777   2.300   4.116   1.499
 2257SOL    HW1 6778   2.382   4.060   1.508
 2257SOL    HW2 6779   2.219   4.058   1.503
 2258SOL     OW 6780   3.465   4.171   0.737
 2258SOL    HW1 6781   3.391   4.217   0.687
 2258SOL    HW2 6782   3.516   4.239   0.790
 2259SOL     OW 6783   3.456   3.838   1.480
 2259SOL    HW1 6784   3.438   3.905   1.408
 2259SOL    HW2 6785   3.453   3.884   1.569
 2260SOL     OW 6786   1.984   4.367   0.563
 2260SOL    HW1 6787   1.939   4.279   0.580
 2260SOL    HW2 6788   1.983   4.421   0.647
 2261SOL     OW 6789   1.975   4.461   1.597
 2261SOL    HW1 6790   2.063   4.448   1.642
 2261SOL    HW2 6791   1.962   4.558   1.575
 2262SOL     OW 6792   2.671   3.728   0.502
 2262SOL    HW1 6793   2.711   3.819   0.493
 2262SOL    HW2 6794   2.571   3.736   0.508
 2263SOL     OW 6795   2.179   3.975   1.801
 2263SOL    HW1 6796   2.250   4.046   1.807
 2263SOL    HW2 6797   2.091   4.014   1.829
 2264SOL     OW 6798   3.143   4.069   0.944
 2264SOL    HW1 6799   3.057   4.019   0.931
 2264SOL    HW2 6800   3.205   4.015   1.000
 2265SOL     OW 6801   2.669   4.329   1.465
 2265SOL    HW1 6802   2.622   4.326   1.554
 2265SOL    HW2 6803   2.618   4.274   1.399
 2266SOL     OW 6804   3.256   4.193   1.674
 2266SOL    HW1 6805   3.236   4.236   1.762
 2266SOL    HW2 6806   3.334   4.131   1.683
 2267SOL     OW 6807   2.853   4.134   1.242
 2267SOL    HW1 6808   2.776   4.168   1.296
 2267SOL    HW2 6809   2.819   4.083   1.163
 2268SOL     OW 6810   2.903   4.425   0.429
 2268SOL    HW1 6811   2.929   4.421   0.525
 2268SOL    HW2 6812   2.818   4.374   0.415
 2269SOL     OW 6813   2.727   4.072   0.195
 2269SOL    HW1 6814   2.786   4.135   0.146
 2269SOL    HW2 6815   2.746   3.978   0.166
 2270SOL     OW 6816   3.581   4.309   1.831
 2270SOL    HW1 6817   3.555   4.398   1.795
 2270SOL    HW2 6818   3.579   4.241   1.758
 2271SOL     OW 6819   2.412   3.920   0.885
 2271SOL    HW1 6820   2.407   3.915   0.985
 2271SOL    HW2 6821   2.414   4.016   0.856
 2272SOL     OW 6822   3.320   4.459   0.728
 2272SOL    HW1 6823   3.315   4.394   0.803
 2272SOL    HW2 6824   3.400   4.518   0.741
 2273SOL     OW 6825   2.064   4.009   1.498
 2273SOL    HW1 6826   1.984   4.069   1.485
 2273SOL    HW2 6827   2.054   3.960   1.584
 2274SOL     OW 6828   3.262   3.831   0.426
 2274SOL    HW1 6829   3.238   3.794   0.336
 2274SOL    HW2 6830   3.361   3.847   0.430
 2275SOL     OW 6831   2.244   4.424   0.480
 2275SOL    HW1 6832   2.289   4.334   0.477
 2275SOL    HW2 6833   2.150   4.413   0.513
 2276SOL     OW 6834   3.409   3.946   1.729
 2276SOL    HW1 6835   3.404   3.983   1.821
 2276SOL    HW2 6836   3.337   3.877   1.717
 2277SOL     OW 6837   2.643   3.988   1.749
 2277SOL    HW1 6838   2.710   3.927   1.792
 2277SOL    HW2 6839   2.570   4.007   1.814
 2278SOL     OW 6840   3.213   4.314   1.433
 2278SOL    HW1 6841   3.241   4.271   1.518
 2278SOL    HW2 6842   3.238   4.410   1.434
 2279SOL     OW 6843   2.784   4.227   0.899
 2279SOL    HW1 6844   2.759   4.218   0.803
 2279SOL    HW2 6845   2.832   4.145   0.930
 2280SOL     OW 6846   2.401   3.788   0.512
 2280SOL    HW1 6847   2.320   3.789   0.570
 2280SOL    HW2 6848   2.404   3.871   0.457
 2281SOL     OW 6849   2.797   3.960   0.480
 2281SOL    HW1 6850   2.749   4.001   0.402
 2281SOL    HW2 6851   2.896   3.958   0.461
 2282SOL     OW 6852   2.938   4.407   1.464
 2282SOL    HW1 6853   2.858   4.346   1.467
 2282SOL    HW2 6854   3.019   4.354   1.440
 2283SOL     OW 6855   2.894   4.273   0.016
 2283SOL    HW1 6856   2.853   4.355  -0.023
 2283SOL    HW2 6857   2.958   4.299   0.089
 2284SOL     OW 6858   1.940   4.280   1.386
 2284SOL    HW1 6859   2.032   4.279   1.345
 2284SOL    HW2 6860   1.934   4.354   1.453
 2285SOL     OW 6861   2.423   3.946   1.147
 2285SOL    HW1 6862   2.461   3.862   1.184
 2285SOL    HW2 6863   2.335   3.965   1.191
 2286SOL     OW 6864   2.728   4.178   0.642
 2286SOL    HW1 6865   2.696   4.250   0.580
 2286SOL    HW2 6866   2.752   4.097   0.589
 2287SOL     OW 6867   2.879   3.763   0.753
 2287SOL    HW1 6868   2.807   3.768   0.684
 2287SOL    HW2 6869   2.855   3.694   0.822
 2288SOL     OW 6870   3.328   4.314   0.992
 2288SOL    HW1 6871   3.298   4.219   0.999
 2288SOL    HW2 6872   3.401   4.330   1.058
 2289SOL     OW 6873   3.252   4.299   0.078
 2289SOL    HW1 6874   3.198   4.278   0.159
 2289SOL    HW2 6875   3.343   4.258   0.087
 2290SOL     OW 6876   2.389   3.980   0.328
 2290SOL    HW1 6877   2.416   3.921   0.253
 2290SOL    HW2 6878   2.389   4.075   0.297
 2291SOL     OW 6879   2.777   3.813   1.402
 2291SOL    HW1 6880   2.802   3.793   1.307
 2291SOL    HW2 6881   2.849   3.869   1.444
 2292SOL     OW 6882   2.272   4.537   1.251
 2292SOL    HW1 6883   2.358   4.549   1.301
 2292SOL    HW2 6884   2.230   4.450   1.278
 2293SOL     OW 6885   3.136   4.110   1.262
 2293SOL    HW1 6886   3.157   4.184   1.326
 2293SOL    HW2 6887   3.047   4.127   1.219
 2294SOL     OW 6888   2.428   4.261   0.865
 2294SOL    HW1 6889   2.440   4.327   0.791
 2294SOL    HW2 6890   2.474   4.295   0.948
 2295SOL     OW 6891   3.444   4.363   0.472
 2295SOL    HW1 6892   3.413   4.424   0.545
 2295SOL    HW2 6893   3.494   4.415   0.403
 2296SOL     OW 6894   2.875   3.829   1.770
 2296SOL    HW1 6895   2.881   3.914   1.718
 2296SOL    HW2 6896   2.907   3.753   1.713
 2297SOL     OW 6897   2.366   3.774   1.740
 2297SOL    HW1 6898   2.324   3.717   1.670
 2297SOL    HW2 6899   2.300   3.843   1.772
 2298SOL     OW 6900   3.071   4.249   0.275
 2298SOL    HW1 6901   3.084   4.165   0.329
 2298SOL    HW2 6902   3.042   4.323   0.335
 2299SOL     OW 6903   2.169   3.937   1.231
 2299SOL    HW1 6904   2.146   3.974   1.321
 2299SOL    HW2 6905   2.139   3.842   1.225
 2300SOL     OW 6906   2.594   4.358   1.064
 2300SOL    HW1 6907   2.653   4.332   0.988
 2300SOL    HW2 6908   2.566   4.454   1.053
 2301SOL     OW 6909   3.590   4.659   1.854
 2301SOL    HW1 6910   3.544   4.652   1.765
 2301SOL    HW2 6911   3.528   4.703   1.920
 2302SOL     OW 6912   2.169   3.787   0.618
 2302SOL    HW1 6913   2.158   3.881   0.651
 2302SOL    HW2 6914   2.164   3.724   0.695
 2303SOL     OW 6915   3.484   4.091   0.374
 2303SOL    HW1 6916   3.486   4.015   0.438
 2303SOL    HW2 6917   3.436   4.168   0.414
 2304SOL     OW 6918   3.402   3.998   0.125
 2304SOL    HW1 6919   3.341   3.923   0.148
 2304SOL    HW2 6920   3.424   4.050   0.208
 2305SOL     OW 6921   2.181   4.534   0.949
 2305SOL    HW1 6922   2.274   4.570   0.954
 2305SOL    HW2 6923   2.175   4.449   1.001
 2306SOL     OW 6924   2.201   4.233   1.006
 2306SOL    HW1 6925   2.149   4.150   0.989
 2306SOL    HW2 6926   2.278   4.238   0.942
 2307SOL     OW 6927   3.000   4.104   1.678
 2307SOL    HW1 6928   2.955   4.167   1.742
 2307SOL    HW2 6929   3.093   4.135   1.661
 2308SOL     OW 6930   3.022   3.931   1.477
 2308SOL    HW1 6931   3.022   3.995   1.554
 2308SOL    HW2 6932   3.050   3.979   1.394
 2309SOL     OW 6933   1.902   4.268   1.114
 2309SOL    HW1 6934   1.987   4.235   1.073
 2309SOL    HW2 6935   1.915   4.283   1.212
 2310SOL     OW 6936   2.051   4.244   1.722
 2310SOL    HW1 6937   2.110   4.204   1.652
 2310SOL    HW2 6938   1.993   4.315   1.681
 2311SOL     OW 6939   2.677   4.296   0.325
 2311SOL    HW1 6940   2.684   4.207   0.279
 2311SOL    HW2 6941   2.583   4.330   0.317
 2312SOL     OW 6942   3.519   4.328   1.206
 2312SOL    HW1 6943   3.481   4.259   1.268
 2312SOL    HW2 6944   3.601   4.292   1.162
 2313SOL     OW 6945   2.533   4.188   1.269
 2313SOL    HW1 6946   2.499   4.099   1.239
 2313SOL    HW2 6947   2.559   4.242   1.189
 2314SOL     OW 6948   2.335   4.224   0.191
 2314SOL    HW1 6949   2.396   4.304   0.195
 2314SOL    HW2 6950   2.240   4.255   0.198
 2315SOL     OW 6951   2.765   3.810   0.133
 2315SOL    HW1 6952   2.816   3.811   0.047
 2315SOL    HW2 6953   2.821   3.768   0.204
 2316SOL     OW 6954   3.588   3.859   0.523
 2316SOL    HW1 6955   3.661   3.842   0.456
 2316SOL    HW2 6956   3.557   3.772   0.561
 2317SOL     OW 6957   3.142   4.651   0.672
 2317SOL    HW1 6958   3.202   4.570   0.674
 2317SOL    HW2 6959   3.182   4.720   0.612
 2318SOL     OW 6960   3.703   3.899   0.963
 2318SOL    HW1 6961   3.742   3.814   0.927
 2318SOL    HW2 6962   3.605   3.901   0.944
 2319SOL     OW 6963   2.125   4.050   0.720
 2319SOL    HW1 6964   2.046   4.101   0.686
 2319SOL    HW2 6965   2.116   4.035   0.818
 2320SOL     OW 6966   2.901   4.822   0.696
 2320SOL    HW1 6967   2.831   4.775   0.750
 2320SOL    HW2 6968   2.960   4.754   0.653
 2321SOL     OW 6969   2.876   3.960   0.971
 2321SOL    HW1 6970   2.868   3.924   0.878
 2321SOL    HW2 6971   2.874   3.884   1.036
 2322SOL     OW 6972   3.571   4.109   1.381
 2322SOL    HW1 6973   3.644   4.178   1.385
 2322SOL    HW2 6974   3.599   4.034   1.322
 2323SOL     OW 6975   2.534   3.927   1.489
 2323SOL    HW1 6976   2.624   3.911   1.449
 2323SOL    HW2 6977   2.542   3.932   1.588
 2324SOL     OW 6978   1.937   4.069   0.033
 2324SOL    HW1 6979   1.845   4.041   0.004
 2324SOL    HW2 6980   1.968   4.146  -0.023
 2325SOL     OW 6981   2.578   4.289   1.708
 2325SOL    HW1 6982   2.597   4.354   1.782
 2325SOL    HW2 6983   2.638   4.209   1.717
 2326SOL     OW 6984   3.087   4.049   0.449
 2326SOL    HW1 6985   3.152   3.975   0.438
 2326SOL    HW2 6986   3.107   4.099   0.533
 2327SOL     OW 6987   3.639   4.066   1.642
 2327SOL    HW1 6988   3.622   4.097   1.548
 2327SOL    HW2 6989   3.555   4.029   1.680
 2328SOL     OW 6990   2.945   4.708   0.087
 2328SOL    HW1 6991   2.922   4.761   0.005
 2328SOL    HW2 6992   3.026   4.652   0.068
 2329SOL     OW 6993   3.686   3.916   1.227
 2329SOL    HW1 6994   3.682   3.826   1.271
 2329SOL    HW2 6995   3.689   3.905   1.128
 2330SOL     OW 6996   2.290   4.148   0.520
 2330SOL    HW1 6997   2.320   4.076   0.458
 2330SOL    HW2 6998   2.251   4.108   0.603
 2331SOL     OW 6999   2.179   4.271   1.280
 2331SOL    HW1 7000   2.217   4.212   1.352
 2331SOL    HW2 7001   2.219   4.245   1.192
 2332SOL     OW 7002   3.286   3.938   1.112
 2332SOL    HW1 7003   3.338   3.873   1.167
 2332SOL    HW2 7004   3.237   4.001   1.173
 2333SOL     OW 7005   2.863   3.758   1.154
 2333SOL    HW1 7006   2.800   3.686   1.123
 2333SOL    HW2 7007   2.956   3.722   1.154
 2334SOL     OW 7008   3.214   3.776   0.168
 2334SOL    HW1 7009   3.249   3.735   0.084
 2334SOL    HW2 7010   3.124   3.738   0.188
 2335SOL     OW 7011   3.162   4.177   0.691
 2335SOL    HW1 7012   3.103   4.257   0.695
 2335SOL    HW2 7013   3.177   4.142   0.784
 2336SOL     OW 7014   3.455   3.945   0.882
 2336SOL    HW1 7015   3.371   3.944   0.936
 2336SOL    HW2 7016   3.457   4.028   0.826
 2337SOL     OW 7017   2.092   4.352   1.975
 2337SOL    HW1 7018   1.999   4.350   2.012
 2337SOL    HW2 7019   2.093   4.313   1.883
 2338SOL     OW 7020   2.087   3.999   2.858
 2338SOL    HW1 7021   2.122   3.982   2.950
 2338SOL    HW2 7022   1.999   3.954   2.846
 2339SOL     OW 7023   1.881   4.092   2.509
 2339SOL    HW1 7024   1.799   4.135   2.548
 2339SOL    HW2 7025   1.853   4.019   2.446
 2340SOL     OW 7026   3.617   4.331   2.093
 2340SOL    HW1 7027   3.605   4.318   1.994
 2340SOL    HW2 7028   3.587   4.250   2.142
 2341SOL     OW 7029   2.547   4.736   2.527
 2341SOL    HW1 7030   2.616   4.720   2.597
 2341SOL    HW2 7031   2.474   4.793   2.565
 2342SOL     OW 7032   2.300   4.116   3.361
 2342SOL    HW1 7033   2.382   4.060   3.370
 2342SOL    HW2 7034   2.219   4.058   3.365
 2343SOL     OW 7035   3.465   4.171   2.599
 2343SOL    HW1 7036   3.391   4.217   2.549
 2343SOL    HW2 7037   3.516   4.239   2.652
 2344SOL     OW 7038   3.456   3.838   3.342
 2344SOL    HW1 7039   3.438   3.905   3.270
 2344SOL    HW2 7040   3.453   3.884   3.431
 2345SOL     OW 7041   1.984   4.367   2.425
 2345SOL    HW1 7042   1.939   4.279   2.442
 2345SOL    HW2 7043   1.983   4.421   2.509
 2346SOL     OW 7044   1.975   4.461   3.459
 2346SOL    HW1 7045   2.063   4.448   3.504
 2346SOL    HW2 7046   1.962   4.558   3.437
 2347SOL     OW 7047   2.671   3.728   2.364
 2347SOL    HW1 7048   2.711   3.819   2.355
 2347SOL    HW2 7049   2.571   3.736   2.370
 2348SOL     OW 7050   2.179   3.975   3.663
 2348SOL    HW1 7051   2.250   4.046   3.669
 2348SOL    HW2 7052   2.091   4.014   3.691
 2349SOL     OW 7053   3.143   4.069   2.806
 2349SOL    HW1 7054   3.057   4.019   2.793
 2349SOL    HW2 7055   3.205   4.015   2.862
 2350SOL     OW 7056   2.669   4.329   3.327
 2350SOL    HW1 7057   2.622   4.326   3.416
 2350SOL    HW2 7058   2.618   4.274   3.261
 2351SOL     OW 7059   3.256   4.193   3.536
 2351SOL    HW1 7060   3.236   4.236   3.624
 2351SOL    HW2 7061   3.334   4.131   3.545
 2352SOL     OW 7062   2.853   4.134   3.104
 2352SOL    HW1 7063   2.776   4.168   3.158
 2352SOL    HW2 7064   2.819   4.083   3.025
 2353SOL     OW 7065   2.903   4.425   2.291
 2353SOL    HW1 7066   2.929   4.421   2.387
 2353SOL    HW2 7067   2.818   4.374   2.277
 2354SOL     OW 7068   2.727   4.072   2.057
 2354SOL    HW1 7069   2.786   4.135   2.008
 2354SOL    HW2 7070   2.746   3.978   2.028
 2355SOL     OW 7071   3.581   4.309   3.693
 2355SOL    HW1 7072   3.555   4.398   3.657
 2355SOL    HW2 7073   3.579   4.241   3.620
 2356SOL     OW 7074   2.412   3.920   2.747
 2356SOL    HW1 7075   2.407   3.915   2.847
 2356SOL    HW2 7076   2.414   4.016   2.718
 2357SOL     OW 7077   3.320   4.459   2.590
 2357SOL    HW1 7078   3.315   4.394   2.665
 2357SOL    HW2 7079   3.400   4.518   2.603
 2358SOL     OW 7080   2.064   4.009   3.360
 2358SOL    HW1 7081   1.984   4.069   3.347
 2358SOL    HW2 7082   2.054   3.960   3.446
 2359SOL     OW 7083   3.262   3.831   2.288
 2359SOL    HW1 7084   3.238   3.794   2.198
 2359SOL    HW2 7085   3.361   3.847   2.292
 2360SOL     OW 7086   2.244   4.424   2.342
 2360SOL    HW1 7087   2.289   4.334   2.339
 2360SOL    HW2 7088   2.150   4.413   2.375
 2361SOL     OW 7089   3.409   3.946   3.591
 2361SOL    HW1 7090   3.404   3.983   3.683
 2361SOL    HW2 7091   3.337   3.877   3.579
 2362SOL     OW 7092   2.476   3.846   1.979
 2362SOL    HW1 7093   2.574   3.824   1.986
 2362SOL    HW2 7094   2.445   3.829   1.886
 2363SOL     OW 7095   2.643   3.988   3.611
 2363SOL    HW1 7096   2.710   3.927   3.654
 2363SOL    HW2 7097   2.570   4.007   3.676
 2364SOL     OW 7098   3.213   4.314   3.295
 2364SOL    HW1 7099   3.241   4.271   3.380
 2364SOL    HW2 7100   3.238   4.410   3.296
 2365SOL     OW 7101   2.784   4.227   2.761
 2365SOL    HW1 7102   2.759   4.218   2.665
 2365SOL    HW2 7103   2.832   4.145   2.792
 2366SOL     OW 7104   2.401   3.788   2.374
 2366SOL    HW1 7105   2.320   3.789   2.432
 2366SOL    HW2 7106   2.404   3.871   2.319
 2367SOL     OW 7107   2.159   3.759   2.033
 2367SOL    HW1 7108   2.208   3.843   2.012
 2367SOL    HW2 7109   2.221   3.694   2.078
 2368SOL     OW 7110   2.797   3.960   2.342
 2368SOL    HW1 7111   2.749   4.001   2.264
 2368SOL    HW2 7112   2.896   3.958   2.323
 2369SOL     OW 7113   2.938   4.407   3.326
 2369SOL    HW1 7114   2.858   4.346   3.329
 2369SOL    HW2 7115   3.019   4.354   3.302
 2370SOL     OW 7116   2.894   4.273   1.878
 2370SOL    HW1 7117   2.853   4.355   1.839
 2370SOL    HW2 7118   2.958   4.299   1.951
 2371SOL     OW 7119   1.940   4.280   3.248
 2371SOL    HW1 7120   2.032   4.279   3.207
 2371SOL    HW2 7121   1.934   4.354   3.315
 2372SOL     OW 7122   2.423   3.946   3.009
 2372SOL    HW1 7123   2.461   3.862   3.046
 2372SOL    HW2 7124   2.335   3.965   3.053
 2373SOL     OW 7125   2.728   4.178   2.504
 2373SOL    HW1 7126   2.696   4.250   2.442
 2373SOL    HW2 7127   2.752   4.097   2.451
 2374SOL     OW 7128   2.879   3.763   2.615
 2374SOL    HW1 7129   2.807   3.768   2.546
 2374SOL    HW2 7130   2.855   3.694   2.684
 2375SOL     OW 7131   3.328   4.314   2.854
 2375SOL    HW1 7132   3.298   4.219   2.861
 2375SOL    HW2 7133   3.401   4.330   2.920
 2376SOL     OW 7134   3.252   4.299   1.940
 2376SOL    HW1 7135   3.198   4.278   2.021
 2376SOL    HW2 7136   3.343   4.258   1.949
 2377SOL     OW 7137   2.389   3.980   2.190
 2377SOL    HW1 7138   2.416   3.921   2.115
 2377SOL    HW2 7139   2.389   4.075   2.159
 2378SOL     OW 7140   2.777   3.813   3.264
 2378SOL    HW1 7141   2.802   3.793   3.169
 2378SOL    HW2 7142   2.849   3.869   3.306
 2379SOL     OW 7143   2.272   4.537   3.113
 2379SOL    HW1 7144   2.358   4.549   3.163
 2379SOL    HW2 7145   2.230   4.450   3.140
 2380SOL     OW 7146   3.136   4.110   3.124
 2380SOL    HW1 7147   3.157   4.184   3.188
 2380SOL    HW2 7148   3.047   4.127   3.081
 2381SOL     OW 7149   2.428   4.261   2.727
 2381SOL    HW1 7150   2.440   4.327   2.653
 2381SOL    HW2 7151   2.474   4.295   2.810
 2382SOL     OW 7152   3.444   4.363   2.334
 2382SOL    HW1 7153   3.413   4.424   2.407
 2382SOL    HW2 7154   3.494   4.415   2.265
 2383SOL     OW 7155   2.875   3.829   3.632
 2383SOL    HW1 7156   2.881   3.914   3.580
 2383SOL    HW2 7157   2.907   3.753   3.575
 2384SOL     OW 7158   2.366   3.774   3.602
 2384SOL    HW1 7159   2.324   3.717   3.532
 2384SOL    HW2 7160   2.300   3.843   3.634
 2385SOL     OW 7161   3.071   4.249   2.137
 2385SOL    HW1 7162   3.084   4.165   2.191
 2385SOL    HW2 7163   3.042   4.323   2.197
 2386SOL     OW 7164   2.169   3.937   3.093
 2386SOL    HW1 7165   2.146   3.974   3.183
 2386SOL    HW2 7166   2.139   3.842   3.087
 2387SOL     OW 7167   2.594   4.358   2.926
 2387SOL    HW1 7168   2.653   4.332   2.850
 2387SOL    HW2 7169   2.566   4.454   2.915
 2388SOL     OW 7170   3.590   4.659   3.716
 2388SOL    HW1 7171   3.544   4.652   3.627
 2388SOL    HW2 7172   3.528   4.703   3.782
 2389SOL     OW 7173   2.169   3.787   2.480
 2389SOL    HW1 7174   2.158   3.881   2.513
 2389SOL    HW2 7175   2.164   3.724   2.557
 2390SOL     OW 7176   3.484   4.091   2.236
 2390SOL    HW1 7177   3.486   4.015   2.300
 2390SOL    HW2 7178   3.436   4.168   2.276
 2391SOL     OW 7179   3.402   3.998   1.987
 2391SOL    HW1 7180   3.341   3.923   2.010
 2391SOL    HW2 7181   3.424   4.050   2.070
 2392SOL     OW 7182   2.181   4.534   2.811
 2392SOL    HW1 7183   2.274   4.570   2.816
 2392SOL    HW2 7184   2.175   4.449   2.863
 2393SOL     OW 7185   2.201   4.233   2.868
 2393SOL    HW1 7186   2.149   4.150   2.851
 2393SOL    HW2 7187   2.278   4.238   2.804
 2394SOL     OW 7188   3.000   4.104   3.540
 2394SOL    HW1 7189   2.955   4.167   3.604
 2394SOL    HW2 7190   3.093   4.135   3.523
 2395SOL     OW 7191   3.022   3.931   3.339
 2395SOL    HW1 7192   3.022   3.995   3.416
 2395SOL    HW2 7193   3.050   3.979   3.256
 2396SOL     OW 7194   1.902   4.268   2.976
 2396SOL    HW1 7195   1.987   4.235   2.935
 2396SOL    HW2 7196   1.915   4.283   3.074
 2397SOL     OW 7197   2.051   4.244   3.584
 2397SOL    HW1 7198   2.110   4.204   3.514
 2397SOL    HW2 7199   1.993   4.315   3.543
 2398SOL     OW 7200   2.677   4.296   2.187
 2398SOL    HW1 7201   2.684   4.207   2.141
 2398SOL    HW2 7202   2.583   4.330   2.179
 2399SOL     OW 7203   3.519   4.328   3.068
 2399SOL    HW1 7204   3.481   4.259   3.130
 2399SOL    HW2 7205   3.601   4.292   3.024
 2400SOL     OW 7206   2.533   4.188   3.131
 2400SOL    HW1 7207   2.499   4.099   3.101
 2400SOL    HW2 7208   2.559   4.242   3.051
 2401SOL     OW 7209   2.335   4.224   2.053
 2401SOL    HW1 7210   2.396   4.304   2.057
 2401SOL    HW2 7211   2.240   4.255   2.060
 2402SOL     OW 7212   3.588   3.859   2.385
 2402SOL    HW1 7213   3.661   3.842   2.318
 2402SOL    HW2 7214   3.557   3.772   2.423
 2403SOL     OW 7215   3.142   4.651   2.534
 2403SOL    HW1 7216   3.202   4.570   2.536
 2403SOL    HW2 7217   3.182   4.720   2.474
 2404SOL     OW 7218   3.703   3.899   2.825
 2404SOL    HW1 7219   3.742   3.814   2.789
 2404SOL    HW2 7220   3.605   3.901   2.806
 2405SOL     OW 7221   2.125   4.050   2.582
 2405SOL    HW1 7222   2.046   4.101   2.548
 2405SOL    HW2 7223   2.116   4.035   2.680
 2406SOL     OW 7224   2.778   4.634   2.153
 2406SOL    HW1 7225   2.841   4.672   2.085
 2406SOL    HW2 7226   2.818   4.551   2.192
 2407SOL     OW 7227   2.901   4.822   2.558
 2407SOL    HW1 7228   2.831   4.775   2.612
 2407SOL    HW2 7229   2.960   4.754   2.515
 2408SOL     OW 7230   2.876   3.960   2.833
 2408SOL    HW1 7231   2.868   3.924   2.740
 2408SOL    HW2 7232   2.874   3.884   2.898
 2409SOL     OW 7233   3.571   4.109   3.243
 2409SOL    HW1 7234   3.644   4.178   3.247
 2409SOL    HW2 7235   3.599   4.034   3.184
 2410SOL     OW 7236   2.534   3.927   3.351
 2410SOL    HW1 7237   2.624   3.911   3.311
 2410SOL    HW2 7238   2.542   3.932   3.450
 2411SOL     OW 7239   1.937   4.069   1.895
 2411SOL    HW1 7240   1.845   4.041   1.866
 2411SOL    HW2 7241   1.968   4.146   1.839
 2412SOL     OW 7242   1.934   3.890   2.180
 2412SOL    HW1 7243   1.917   3.973   2.126
 2412SOL    HW2 7244   2.024   3.853   2.158
 2413SOL     OW 7245   2.578   4.289   3.570
 2413SOL    HW1 7246   2.597   4.354   3.644
 2413SOL    HW2 7247   2.638   4.209   3.579
 2414SOL     OW 7248   3.087   4.049   2.311
 2414SOL    HW1 7249   3.152   3.975   2.300
 2414SOL    HW2 7250   3.107   4.099   2.395
 2415SOL     OW 7251   3.639   4.066   3.504
 2415SOL    HW1 7252   3.622   4.097   3.410
 2415SOL    HW2 7253   3.555   4.029   3.542
 2416SOL     OW 7254   2.945   4.708   1.949
 2416SOL    HW1 7255   2.922   4.761   1.867
 2416SOL    HW2 7256   3.026   4.652   1.930
 2417SOL     OW 7257   3.686   3.916   3.089
 2417SOL    HW1 7258   3.682   3.826   3.133
 2417SOL    HW2 7259   3.689   3.905   2.990
 2418SOL     OW 7260   2.290   4.148   2.382
 2418SOL    HW1 7261   2.320   4.076   2.320
 2418SOL    HW2 7262   2.251   4.108   2.465
 2419SOL     OW 7263   2.179   4.271   3.142
 2419SOL    HW1 7264   2.217   4.212   3.214
 2419SOL    HW2 7265   2.219   4.245   3.054
 2420SOL     OW 7266   3.286   3.938   2.974
 2420SOL    HW1 7267   3.338   3.873   3.029
 2420SOL    HW2 7268   3.237   4.001   3.035
 2421SOL     OW 7269   2.863   3.758   3.016
 2421SOL    HW1 7270   2.800   3.686   2.985
 2421SOL    HW2 7271   2.956   3.722   3.016
 2422SOL     OW 7272   3.214   3.776   2.030
 2422SOL    HW1 7273   3.249   3.735   1.946
 2422SOL    HW2 7274   3.124   3.738   2.050
 2423SOL     OW 7275   3.162   4.177   2.553
 2423SOL    HW1 7276   3.103   4.257   2.557
 2423SOL    HW2 7277   3.177   4.142   2.646
 2424SOL     OW 7278   3.455   3.945   2.744
 2424SOL    HW1 7279   3.371   3.944   2.798
 2424SOL    HW2 7280   3.457   4.028   2.688
 2425SOL     OW 7281   2.092   4.352   3.837
 2425SOL    HW1 7282   1.999   4.350   3.874
 2425SOL    HW2 7283   2.093   4.313   3.745
 2426SOL     OW 7284   2.087   3.999   4.720
 2426SOL    HW1 7285   2.122   3.982   4.812
 2426SOL    HW2 7286   1.999   3.954   4.708
 2427SOL     OW 7287   3.617   4.331   3.955
 2427SOL    HW1 7288   3.605   4.318   3.856
 2427SOL    HW2 7289   3.587   4.250   4.004
 2428SOL     OW 7290   2.547   4.736   4.389
 2428SOL    HW1 7291   2.616   4.720   4.459
 2428SOL    HW2 7292   2.474   4.793   4.427
 2429SOL     OW 7293   3.465   4.171   4.461
 2429SOL    HW1 7294   3.391   4.217   4.411
 2429SOL    HW2 7295   3.516   4.239   4.514
 2430SOL     OW 7296   1.984   4.367   4.287
 2430SOL    HW1 7297   1.939   4.279   4.304
 2430SOL    HW2 7298   1.983   4.421   4.371
 2431SOL     OW 7299   2.671   3.728   4.226
 2431SOL    HW1 7300   2.711   3.819   4.217
 2431SOL    HW2 7301   2.571   3.736   4.232
 2432SOL     OW 7302   3.143   4.069   4.668
 2432SOL    HW1 7303   3.057   4.019   4.655
 2432SOL    HW2 7304   3.205   4.015   4.724
 2433SOL     OW 7305   2.903   4.425   4.153
 2433SOL    HW1 7306   2.929   4.421   4.249
 2433SOL    HW2 7307   2.818   4.374   4.139
 2434SOL     OW 7308   2.727   4.072   3.919
 2434SOL    HW1 7309   2.786   4.135   3.870
 2434SOL    HW2 7310   2.746   3.978   3.890
 2435SOL     OW 7311   3.262   3.831   4.150
 2435SOL    HW1 7312   3.238   3.794   4.060
 2435SOL    HW2 7313   3.361   3.847   4.154
 2436SOL     OW 7314   2.244   4.424   4.204
 2436SOL    HW1 7315   2.289   4.334   4.201
 2436SOL    HW2 7316   2.150   4.413   4.237
 2437SOL     OW 7317   2.476   3.846   3.841
 2437SOL    HW1 7318   2.574   3.824   3.848
 2437SOL    HW2 7319   2.445   3.829   3.748
 2438SOL     OW 7320   2.401   3.788   4.236
 2438SOL    HW1 7321   2.320   3.789   4.294
 2438SOL    HW2 7322   2.404   3.871   4.181
 2439SOL     OW 7323   2.159   3.759   3.895
 2439SOL    HW1 7324   2.208   3.843   3.874
 2439SOL    HW2 7325   2.221   3.694   3.940
 2440SOL     OW 7326   2.797   3.960   4.204
 2440SOL    HW1 7327   2.749   4.001   4.126
 2440SOL    HW2 7328   2.896   3.958   4.185
 2441SOL     OW 7329   2.894   4.273   3.740
 2441SOL    HW1 7330   2.853   4.355   3.701
 2441SOL    HW2 7331   2.958   4.299   3.813
 2442SOL     OW 7332   2.728   4.178   4.366
 2442SOL    HW1 7333   2.696   4.250   4.304
 2442SOL    HW2 7334   2.752   4.097   4.313
 2443SOL     OW 7335   3.252   4.299   3.802
 2443SOL    HW1 7336   3.198   4.278   3.883
 2443SOL    HW2 7337   3.343   4.258   3.811
 2444SOL     OW 7338   2.389   3.980   4.052
 2444SOL    HW1 7339   2.416   3.921   3.977
 2444SOL    HW2 7340   2.389   4.075   4.021
 2445SOL     OW 7341   3.444   4.363   4.196
 2445SOL    HW1 7342   3.413   4.424   4.269
 2445SOL    HW2 7343   3.494   4.415   4.127
 2446SOL     OW 7344   3.071   4.249   3.999
 2446SOL    HW1 7345   3.084   4.165   4.053
 2446SOL    HW2 7346   3.042   4.323   4.059
 2447SOL     OW 7347   2.169   3.787   4.342
 2447SOL    HW1 7348   2.158   3.881   4.375
 2447SOL    HW2 7349   2.164   3.724   4.419
 2448SOL     OW 7350   3.484   4.091   4.098
 2448SOL    HW1 7351   3.486   4.015   4.162
 2448SOL    HW2 7352   3.436   4.168   4.138
 2449SOL     OW 7353   3.402   3.998   3.849
 2449SOL    HW1 7354   3.341   3.923   3.872
 2449SOL    HW2 7355   3.424   4.050   3.932
 2450SOL     OW 7356   2.677   4.296   4.049
 2450SOL    HW1 7357   2.684   4.207   4.003
 2450SOL    HW2 7358   2.583   4.330   4.041
 2451SOL     OW 7359   2.335   4.224   3.915
 2451SOL    HW1 7360   2.396   4.304   3.919
 2451SOL    HW2 7361   2.240   4.255   3.922
 2452SOL     OW 7362   3.588   3.859   4.247
 2452SOL    HW1 7363   3.661   3.842   4.180
 2452SOL    HW2 7364   3.557   3.772   4.285
 2453SOL     OW 7365   3.142   4.651   4.396
 2453SOL    HW1 7366   3.202   4.570   4.398
 2453SOL    HW2 7367   3.182   4.720   4.336
 2454SOL     OW 7368   3.703   3.899   4.687
 2454SOL    HW1 7369   3.742   3.814   4.651
 2454SOL    HW2 7370   3.605   3.901   4.668
 2455SOL     OW 7371   2.778   4.634   4.015
 2455SOL    HW1 7372   2.841   4.672   3.947
 2455SOL    HW2 7373   2.818   4.551   4.054
 2456SOL     OW 7374   1.937   4.069   3.757
 2456SOL    HW1 7375   1.845   4.041   3.728
 2456SOL    HW2 7376   1.968   4.146   3.701
 2457SOL     OW 7377   1.934   3.890   4.042
 2457SOL    HW1 7378   1.917   3.973   3.988
 2457SOL    HW2 7379   2.024   3.853   4.020
 2458SOL     OW 7380   3.087   4.049   4.173
 2458SOL    HW1 7381   3.152   3.975   4.162
 2458SOL    HW2 7382   3.107   4.099   4.257
 2459SOL     OW 7383   2.945   4.708   3.811
 2459SOL    HW1 7384   2.922   4.761   3.729
 2459SOL    HW2 7385   3.026   4.652   3.792
 2460SOL     OW 7386   2.290   4.148   4.244
 2460SOL    HW1 7387   2.320   4.076   4.182
 2460SOL    HW2 7388   2.251   4.108   4.327
 2461SOL     OW 7389   3.214   3.776   3.892
 2461SOL    HW1 7390   3.249   3.735   3.808
 2461SOL    HW2 7391   3.124   3.738   3.912
 2462SOL     OW 7392   3.162   4.177   4.415
 2462SOL    HW1 7393   3.103   4.257   4.419
 2462SOL    HW2 7394   3.177   4.142   4.508
 2463SOL     OW 7395   3.954   0.628   0.113
 2463SOL    HW1 7396   3.861   0.626   0.150
 2463SOL    HW2 7397   3.955   0.589   0.021
 2464SOL     OW 7398   3.949   0.275   0.996
 2464SOL    HW1 7399   3.984   0.258   1.088
 2464SOL    HW2 7400   3.861   0.230   0.984
 2465SOL     OW 7401   3.743   0.368   0.647
 2465SOL    HW1 7402   3.661   0.411   0.686
 2465SOL    HW2 7403   3.715   0.295   0.584
 2466SOL     OW 7404   4.293   1.275   1.165
 2466SOL    HW1 7405   4.200   1.268   1.128
 2466SOL    HW2 7406   4.304   1.364   1.209
 2467SOL     OW 7407   4.574   0.798   1.823
 2467SOL    HW1 7408   4.570   0.874   1.888
 2467SOL    HW2 7409   4.596   0.834   1.732
 2468SOL     OW 7410   4.409   1.012   0.665
 2468SOL    HW1 7411   4.478   0.996   0.735
 2468SOL    HW2 7412   4.336   1.069   0.703
 2469SOL     OW 7413   4.410   1.161   1.803
 2469SOL    HW1 7414   4.470   1.240   1.817
 2469SOL    HW2 7415   4.324   1.192   1.762
 2470SOL     OW 7416   4.059   1.435   1.061
 2470SOL    HW1 7417   3.981   1.404   1.008
 2470SOL    HW2 7418   4.117   1.493   1.004
 2471SOL     OW 7419   4.162   0.392   1.499
 2471SOL    HW1 7420   4.244   0.336   1.508
 2471SOL    HW2 7421   4.081   0.334   1.503
 2472SOL     OW 7422   3.955   1.713   0.483
 2472SOL    HW1 7423   3.989   1.790   0.537
 2472SOL    HW2 7424   3.999   1.713   0.393
 2473SOL     OW 7425   3.954   1.434   0.538
 2473SOL    HW1 7426   3.928   1.530   0.538
 2473SOL    HW2 7427   3.883   1.380   0.583
 2474SOL     OW 7428   3.964   1.091   0.886
 2474SOL    HW1 7429   3.978   1.007   0.938
 2474SOL    HW2 7430   3.909   1.155   0.941
 2475SOL     OW 7431   4.344   1.786   1.439
 2475SOL    HW1 7432   4.252   1.769   1.474
 2475SOL    HW2 7433   4.372   1.878   1.465
 2476SOL     OW 7434   4.330   0.964   0.123
 2476SOL    HW1 7435   4.337   1.048   0.069
 2476SOL    HW2 7436   4.376   0.977   0.211
 2477SOL     OW 7437   3.846   0.643   0.563
 2477SOL    HW1 7438   3.801   0.555   0.580
 2477SOL    HW2 7439   3.845   0.697   0.647
 2478SOL     OW 7440   3.751   1.596   0.117
 2478SOL    HW1 7441   3.732   1.500   0.138
 2478SOL    HW2 7442   3.718   1.654   0.192
 2479SOL     OW 7443   3.837   0.737   1.597
 2479SOL    HW1 7444   3.925   0.724   1.642
 2479SOL    HW2 7445   3.824   0.834   1.575
 2480SOL     OW 7446   4.337   1.365   0.726
 2480SOL    HW1 7447   4.288   1.278   0.735
 2480SOL    HW2 7448   4.314   1.408   0.639
 2481SOL     OW 7449   4.533   0.004   0.502
 2481SOL    HW1 7450   4.573   0.095   0.493
 2481SOL    HW2 7451   4.433   0.012   0.508
 2482SOL     OW 7452   3.921   0.976   1.264
 2482SOL    HW1 7453   4.010   0.931   1.250
 2482SOL    HW2 7454   3.848   0.911   1.245
 2483SOL     OW 7455   4.041   0.251   1.801
 2483SOL    HW1 7456   4.112   0.322   1.807
 2483SOL    HW2 7457   3.953   0.290   1.829
 2484SOL     OW 7458   4.322   0.729   0.270
 2484SOL    HW1 7459   4.346   0.798   0.202
 2484SOL    HW2 7460   4.244   0.762   0.324
 2485SOL     OW 7461   3.800   0.811   0.789
 2485SOL    HW1 7462   3.899   0.799   0.798
 2485SOL    HW2 7463   3.776   0.906   0.810
 2486SOL     OW 7464   3.854   1.821   1.571
 2486SOL    HW1 7465   3.844   1.806   1.670
 2486SOL    HW2 7466   3.768   1.857   1.535
 2487SOL     OW 7467   4.274   0.196   0.885
 2487SOL    HW1 7468   4.269   0.191   0.985
 2487SOL    HW2 7469   4.276   0.292   0.856
 2488SOL     OW 7470   4.075   1.801   0.853
 2488SOL    HW1 7471   4.125   1.715   0.859
 2488SOL    HW2 7472   4.140   1.878   0.850
 2489SOL     OW 7473   4.045   0.943   0.242
 2489SOL    HW1 7474   4.127   0.982   0.200
 2489SOL    HW2 7475   4.018   0.861   0.193
 2490SOL     OW 7476   4.185   1.266   1.727
 2490SOL    HW1 7477   4.135   1.267   1.641
 2490SOL    HW2 7478   4.122   1.248   1.803
 2491SOL     OW 7479   3.926   0.285   1.498
 2491SOL    HW1 7480   3.846   0.345   1.485
 2491SOL    HW2 7481   3.916   0.236   1.584
 2492SOL     OW 7482   4.188   1.743   0.323
 2492SOL    HW1 7483   4.221   1.782   0.409
 2492SOL    HW2 7484   4.264   1.736   0.258
 2493SOL     OW 7485   3.973   1.785   1.241
 2493SOL    HW1 7486   4.030   1.720   1.291
 2493SOL    HW2 7487   3.957   1.752   1.148
 2494SOL     OW 7488   4.106   0.700   0.480
 2494SOL    HW1 7489   4.151   0.610   0.477
 2494SOL    HW2 7490   4.012   0.689   0.513
 2495SOL     OW 7491   4.338   0.122   0.117
 2495SOL    HW1 7492   4.436   0.100   0.124
 2495SOL    HW2 7493   4.307   0.105   0.024
 2496SOL     OW 7494   4.527   1.402   0.924
 2496SOL    HW1 7495   4.617   1.416   0.882
 2496SOL    HW2 7496   4.456   1.404   0.853
 2497SOL     OW 7497   4.263   0.064   0.512
 2497SOL    HW1 7498   4.182   0.065   0.570
 2497SOL    HW2 7499   4.266   0.147   0.457
 2498SOL     OW 7500   4.021   0.035   0.171
 2498SOL    HW1 7501   4.070   0.119   0.150
 2498SOL    HW2 7502   4.083  -0.030   0.216
 2499SOL     OW 7503   4.800   0.683   1.464
 2499SOL    HW1 7504   4.720   0.622   1.467
 2499SOL    HW2 7505   4.881   0.630   1.440
 2500SOL     OW 7506   4.183   1.152   0.741
 2500SOL    HW1 7507   4.112   1.125   0.806
 2500SOL    HW2 7508   4.157   1.124   0.648
 2501SOL     OW 7509   3.802   0.556   1.386
 2501SOL    HW1 7510   3.894   0.555   1.345
 2501SOL    HW2 7511   3.796   0.630   1.453
 2502SOL     OW 7512   4.285   0.222   1.147
 2502SOL    HW1 7513   4.323   0.138   1.184
 2502SOL    HW2 7514   4.197   0.241   1.191
 2503SOL     OW 7515   4.212   1.385   0.174
 2503SOL    HW1 7516   4.125   1.370   0.221
 2503SOL    HW2 7517   4.195   1.411   0.079
 2504SOL     OW 7518   4.251   0.256   0.328
 2504SOL    HW1 7519   4.278   0.197   0.253
 2504SOL    HW2 7520   4.251   0.351   0.297
 2505SOL     OW 7521   4.134   0.813   1.251
 2505SOL    HW1 7522   4.220   0.825   1.301
 2505SOL    HW2 7523   4.092   0.726   1.278
 2506SOL     OW 7524   3.788   1.564   1.331
 2506SOL    HW1 7525   3.742   1.646   1.297
 2506SOL    HW2 7526   3.886   1.583   1.340
 2507SOL     OW 7527   4.091   1.100   0.501
 2507SOL    HW1 7528   4.084   1.183   0.445
 2507SOL    HW2 7529   4.095   1.020   0.441
 2508SOL     OW 7530   4.290   0.537   0.865
 2508SOL    HW1 7531   4.302   0.603   0.791
 2508SOL    HW2 7532   4.336   0.571   0.948
 2509SOL     OW 7533   4.078   1.510   1.329
 2509SOL    HW1 7534   4.057   1.466   1.242
 2509SOL    HW2 7535   4.175   1.536   1.332
 2510SOL     OW 7536   4.126   0.751   1.598
 2510SOL    HW1 7537   4.194   0.806   1.551
 2510SOL    HW2 7538   4.166   0.663   1.625
 2511SOL     OW 7539   4.228   0.050   1.740
 2511SOL    HW1 7540   4.186  -0.007   1.670
 2511SOL    HW2 7541   4.162   0.119   1.772
 2512SOL     OW 7542   4.297   0.870   1.029
 2512SOL    HW1 7543   4.341   0.959   1.020
 2512SOL    HW2 7544   4.234   0.870   1.106
 2513SOL     OW 7545   4.031   0.213   1.231
 2513SOL    HW1 7546   4.008   0.250   1.321
 2513SOL    HW2 7547   4.001   0.118   1.225
 2514SOL     OW 7548   3.761   1.310   1.282
 2514SOL    HW1 7549   3.814   1.261   1.350
 2514SOL    HW2 7550   3.783   1.408   1.287
 2515SOL     OW 7551   4.031   0.063   0.618
 2515SOL    HW1 7552   4.020   0.157   0.651
 2515SOL    HW2 7553   4.026   0.000   0.695
 2516SOL     OW 7554   4.074   0.898   1.804
 2516SOL    HW1 7555   4.150   0.942   1.852
 2516SOL    HW2 7556   4.109   0.851   1.722
 2517SOL     OW 7557   4.043   0.810   0.949
 2517SOL    HW1 7558   4.136   0.846   0.954
 2517SOL    HW2 7559   4.037   0.725   1.001
 2518SOL     OW 7560   4.063   0.509   1.006
 2518SOL    HW1 7561   4.011   0.426   0.989
 2518SOL    HW2 7562   4.140   0.514   0.942
 2519SOL     OW 7563   3.732   1.326   0.200
 2519SOL    HW1 7564   3.639   1.347   0.169
 2519SOL    HW2 7565   3.742   1.227   0.213
 2520SOL     OW 7566   3.812   1.801   0.927
 2520SOL    HW1 7567   3.770   1.715   0.900
 2520SOL    HW2 7568   3.906   1.804   0.893
 2521SOL     OW 7569   4.228   1.568   0.910
 2521SOL    HW1 7570   4.294   1.642   0.919
 2521SOL    HW2 7571   4.272   1.489   0.868
 2522SOL     OW 7572   3.764   0.544   1.114
 2522SOL    HW1 7573   3.849   0.511   1.073
 2522SOL    HW2 7574   3.777   0.559   1.212
 2523SOL     OW 7575   3.913   0.520   1.722
 2523SOL    HW1 7576   3.972   0.480   1.652
 2523SOL    HW2 7577   3.855   0.591   1.681
 2524SOL     OW 7578   4.539   0.572   0.325
 2524SOL    HW1 7579   4.546   0.483   0.279
 2524SOL    HW2 7580   4.445   0.606   0.317
 2525SOL     OW 7581   3.976   1.564   1.744
 2525SOL    HW1 7582   3.946   1.621   1.820
 2525SOL    HW2 7583   3.969   1.467   1.770
 2526SOL     OW 7584   4.197   0.500   0.191
 2526SOL    HW1 7585   4.258   0.580   0.195
 2526SOL    HW2 7586   4.102   0.531   0.198
 2527SOL     OW 7587   3.883   1.137   1.466
 2527SOL    HW1 7588   3.905   1.076   1.542
 2527SOL    HW2 7589   3.893   1.088   1.380
 2528SOL     OW 7590   3.807   1.258   1.022
 2528SOL    HW1 7591   3.802   1.257   1.122
 2528SOL    HW2 7592   3.724   1.217   0.984
 2529SOL     OW 7593   4.412   1.662   1.716
 2529SOL    HW1 7594   4.356   1.743   1.725
 2529SOL    HW2 7595   4.464   1.666   1.630
 2530SOL     OW 7596   3.854   1.794   1.851
 2530SOL    HW1 7597   3.813   1.720   1.904
 2530SOL    HW2 7598   3.918   1.845   1.909
 2531SOL     OW 7599   3.987   0.326   0.720
 2531SOL    HW1 7600   3.908   0.377   0.686
 2531SOL    HW2 7601   3.978   0.311   0.818
 2532SOL     OW 7602   4.096   1.288   1.490
 2532SOL    HW1 7603   4.083   1.381   1.456
 2532SOL    HW2 7604   4.012   1.236   1.477
 2533SOL     OW 7605   4.314   1.487   0.491
 2533SOL    HW1 7606   4.356   1.429   0.421
 2533SOL    HW2 7607   4.270   1.566   0.447
 2534SOL     OW 7608   3.979   1.348   0.290
 2534SOL    HW1 7609   3.883   1.349   0.263
 2534SOL    HW2 7610   3.991   1.401   0.374
 2535SOL     OW 7611   3.829   1.013   1.726
 2535SOL    HW1 7612   3.752   0.980   1.780
 2535SOL    HW2 7613   3.914   0.983   1.768
 2536SOL     OW 7614   4.396   0.203   1.489
 2536SOL    HW1 7615   4.486   0.187   1.449
 2536SOL    HW2 7616   4.404   0.208   1.588
 2537SOL     OW 7617   3.799   0.345   0.033
 2537SOL    HW1 7618   3.707   0.317   0.004
 2537SOL    HW2 7619   3.830   0.422  -0.023
 2538SOL     OW 7620   4.337   0.842   1.431
 2538SOL    HW1 7621   4.393   0.923   1.414
 2538SOL    HW2 7622   4.396   0.762   1.434
 2539SOL     OW 7623   4.440   0.565   1.708
 2539SOL    HW1 7624   4.459   0.630   1.782
 2539SOL    HW2 7625   4.500   0.485   1.717
 2540SOL     OW 7626   4.114   1.741   1.560
 2540SOL    HW1 7627   4.023   1.782   1.558
 2540SOL    HW2 7628   4.107   1.647   1.592
 2541SOL     OW 7629   4.318   0.745   0.652
 2541SOL    HW1 7630   4.368   0.830   0.633
 2541SOL    HW2 7631   4.230   0.747   0.604
 2542SOL     OW 7632   3.945   1.314   1.844
 2542SOL    HW1 7633   3.880   1.241   1.823
 2542SOL    HW2 7634   3.949   1.328   1.942
 2543SOL     OW 7635   3.803   1.240   0.653
 2543SOL    HW1 7636   3.802   1.193   0.741
 2543SOL    HW2 7637   3.885   1.212   0.602
 2544SOL     OW 7638   4.396   1.391   1.624
 2544SOL    HW1 7639   4.318   1.341   1.662
 2544SOL    HW2 7640   4.393   1.486   1.655
 2545SOL     OW 7641   4.152   0.424   0.520
 2545SOL    HW1 7642   4.182   0.352   0.458
 2545SOL    HW2 7643   4.113   0.384   0.603
 2546SOL     OW 7644   4.041   0.547   1.280
 2546SOL    HW1 7645   4.079   0.488   1.352
 2546SOL    HW2 7646   4.081   0.521   1.192
 2547SOL     OW 7647   4.536   1.586   0.687
 2547SOL    HW1 7648   4.568   1.596   0.593
 2547SOL    HW2 7649   4.457   1.524   0.689
 2548SOL     OW 7650   3.763   1.077   0.300
 2548SOL    HW1 7651   3.862   1.066   0.291
 2548SOL    HW2 7652   3.723   0.991   0.332
 2549SOL     OW 7653   3.954   0.628   1.975
 2549SOL    HW1 7654   3.861   0.626   2.012
 2549SOL    HW2 7655   3.955   0.589   1.883
 2550SOL     OW 7656   3.949   0.275   2.858
 2550SOL    HW1 7657   3.984   0.258   2.950
 2550SOL    HW2 7658   3.861   0.230   2.846
 2551SOL     OW 7659   3.743   0.368   2.509
 2551SOL    HW1 7660   3.661   0.411   2.548
 2551SOL    HW2 7661   3.715   0.295   2.446
 2552SOL     OW 7662   4.293   1.275   3.027
 2552SOL    HW1 7663   4.200   1.268   2.990
 2552SOL    HW2 7664   4.304   1.364   3.071
 2553SOL     OW 7665   4.574   0.798   3.685
 2553SOL    HW1 7666   4.570   0.874   3.750
 2553SOL    HW2 7667   4.596   0.834   3.594
 2554SOL     OW 7668   4.409   1.012   2.527
 2554SOL    HW1 7669   4.478   0.996   2.597
 2554SOL    HW2 7670   4.336   1.069   2.565
 2555SOL     OW 7671   4.410   1.161   3.665
 2555SOL    HW1 7672   4.470   1.240   3.679
 2555SOL    HW2 7673   4.324   1.192   3.624
 2556SOL     OW 7674   4.059   1.435   2.923
 2556SOL    HW1 7675   3.981   1.404   2.870
 2556SOL    HW2 7676   4.117   1.493   2.866
 2557SOL     OW 7677   4.162   0.392   3.361
 2557SOL    HW1 7678   4.244   0.336   3.370
 2557SOL    HW2 7679   4.081   0.334   3.365
 2558SOL     OW 7680   3.955   1.713   2.345
 2558SOL    HW1 7681   3.989   1.790   2.399
 2558SOL    HW2 7682   3.999   1.713   2.255
 2559SOL     OW 7683   3.954   1.434   2.400
 2559SOL    HW1 7684   3.928   1.530   2.400
 2559SOL    HW2 7685   3.883   1.380   2.445
 2560SOL     OW 7686   3.964   1.091   2.748
 2560SOL    HW1 7687   3.978   1.007   2.800
 2560SOL    HW2 7688   3.909   1.155   2.803
 2561SOL     OW 7689   4.344   1.786   3.301
 2561SOL    HW1 7690   4.252   1.769   3.336
 2561SOL    HW2 7691   4.372   1.878   3.327
 2562SOL     OW 7692   4.330   0.964   1.985
 2562SOL    HW1 7693   4.337   1.048   1.931
 2562SOL    HW2 7694   4.376   0.977   2.073
 2563SOL     OW 7695   3.846   0.643   2.425
 2563SOL    HW1 7696   3.801   0.555   2.442
 2563SOL    HW2 7697   3.845   0.697   2.509
 2564SOL     OW 7698   3.751   1.596   1.979
 2564SOL    HW1 7699   3.732   1.500   2.000
 2564SOL    HW2 7700   3.718   1.654   2.054
 2565SOL     OW 7701   3.837   0.737   3.459
 2565SOL    HW1 7702   3.925   0.724   3.504
 2565SOL    HW2 7703   3.824   0.834   3.437
 2566SOL     OW 7704   4.337   1.365   2.588
 2566SOL    HW1 7705   4.288   1.278   2.597
 2566SOL    HW2 7706   4.314   1.408   2.501
 2567SOL     OW 7707   4.533   0.004   2.364
 2567SOL    HW1 7708   4.573   0.095   2.355
 2567SOL    HW2 7709   4.433   0.012   2.370
 2568SOL     OW 7710   3.921   0.976   3.126
 2568SOL    HW1 7711   4.010   0.931   3.112
 2568SOL    HW2 7712   3.848   0.911   3.107
 2569SOL     OW 7713   4.041   0.251   3.663
 2569SOL    HW1 7714   4.112   0.322   3.669
 2569SOL    HW2 7715   3.953   0.290   3.691
 2570SOL     OW 7716   4.322   0.729   2.132
 2570SOL    HW1 7717   4.346   0.798   2.064
 2570SOL    HW2 7718   4.244   0.762   2.186
 2571SOL     OW 7719   3.800   0.811   2.651
 2571SOL    HW1 7720   3.899   0.799   2.660
 2571SOL    HW2 7721   3.776   0.906   2.672
 2572SOL     OW 7722   3.854   1.821   3.433
 2572SOL    HW1 7723   3.844   1.806   3.532
 2572SOL    HW2 7724   3.768   1.857   3.397
 2573SOL     OW 7725   4.274   0.196   2.747
 2573SOL    HW1 7726   4.269   0.191   2.847
 2573SOL    HW2 7727   4.276   0.292   2.718
 2574SOL     OW 7728   4.075   1.801   2.715
 2574SOL    HW1 7729   4.125   1.715   2.721
 2574SOL    HW2 7730   4.140   1.878   2.712
 2575SOL     OW 7731   4.045   0.943   2.104
 2575SOL    HW1 7732   4.127   0.982   2.062
 2575SOL    HW2 7733   4.018   0.861   2.055
 2576SOL     OW 7734   4.185   1.266   3.589
 2576SOL    HW1 7735   4.135   1.267   3.503
 2576SOL    HW2 7736   4.122   1.248   3.665
 2577SOL     OW 7737   3.926   0.285   3.360
 2577SOL    HW1 7738   3.846   0.345   3.347
 2577SOL    HW2 7739   3.916   0.236   3.446
 2578SOL     OW 7740   4.188   1.743   2.185
 2578SOL    HW1 7741   4.221   1.782   2.271
 2578SOL    HW2 7742   4.264   1.736   2.120
 2579SOL     OW 7743   3.973   1.785   3.103
 2579SOL    HW1 7744   4.030   1.720   3.153
 2579SOL    HW2 7745   3.957   1.752   3.010
 2580SOL     OW 7746   4.106   0.700   2.342
 2580SOL    HW1 7747   4.151   0.610   2.339
 2580SOL    HW2 7748   4.012   0.689   2.375
 2581SOL     OW 7749   4.338   0.122   1.979
 2581SOL    HW1 7750   4.436   0.100   1.986
 2581SOL    HW2 7751   4.307   0.105   1.886
 2582SOL     OW 7752   4.527   1.402   2.786
 2582SOL    HW1 7753   4.617   1.416   2.744
 2582SOL    HW2 7754   4.456   1.404   2.715
 2583SOL     OW 7755   4.263   0.064   2.374
 2583SOL    HW1 7756   4.182   0.065   2.432
 2583SOL    HW2 7757   4.266   0.147   2.319
 2584SOL     OW 7758   4.021   0.035   2.033
 2584SOL    HW1 7759   4.070   0.119   2.012
 2584SOL    HW2 7760   4.083  -0.030   2.078
 2585SOL     OW 7761   4.800   0.683   3.326
 2585SOL    HW1 7762   4.720   0.622   3.329
 2585SOL    HW2 7763   4.881   0.630   3.302
 2586SOL     OW 7764   4.183   1.152   2.603
 2586SOL    HW1 7765   4.112   1.125   2.668
 2586SOL    HW2 7766   4.157   1.124   2.510
 2587SOL     OW 7767   3.802   0.556   3.248
 2587SOL    HW1 7768   3.894   0.555   3.207
 2587SOL    HW2 7769   3.796   0.630   3.315
 2588SOL     OW 7770   4.285   0.222   3.009
 2588SOL    HW1 7771   4.323   0.138   3.046
 2588SOL    HW2 7772   4.197   0.241   3.053
 2589SOL     OW 7773   4.212   1.385   2.036
 2589SOL    HW1 7774   4.125   1.370   2.083
 2589SOL    HW2 7775   4.195   1.411   1.941
 2590SOL     OW 7776   4.251   0.256   2.190
 2590SOL    HW1 7777   4.278   0.197   2.115
 2590SOL    HW2 7778   4.251   0.351   2.159
 2591SOL     OW 7779   4.134   0.813   3.113
 2591SOL    HW1 7780   4.220   0.825   3.163
 2591SOL    HW2 7781   4.092   0.726   3.140
 2592SOL     OW 7782   3.788   1.564   3.193
 2592SOL    HW1 7783   3.742   1.646   3.159
 2592SOL    HW2 7784   3.886   1.583   3.202
 2593SOL     OW 7785   4.091   1.100   2.363
 2593SOL    HW1 7786   4.084   1.183   2.307
 2593SOL    HW2 7787   4.095   1.020   2.303
 2594SOL     OW 7788   4.290   0.537   2.727
 2594SOL    HW1 7789   4.302   0.603   2.653
 2594SOL    HW2 7790   4.336   0.571   2.810
 2595SOL     OW 7791   4.078   1.510   3.191
 2595SOL    HW1 7792   4.057   1.466   3.104
 2595SOL    HW2 7793   4.175   1.536   3.194
 2596SOL     OW 7794   4.126   0.751   3.460
 2596SOL    HW1 7795   4.194   0.806   3.413
 2596SOL    HW2 7796   4.166   0.663   3.487
 2597SOL     OW 7797   4.228   0.050   3.602
 2597SOL    HW1 7798   4.186  -0.007   3.532
 2597SOL    HW2 7799   4.162   0.119   3.634
 2598SOL     OW 7800   4.297   0.870   2.891
 2598SOL    HW1 7801   4.341   0.959   2.882
 2598SOL    HW2 7802   4.234   0.870   2.968
 2599SOL     OW 7803   4.031   0.213   3.093
 2599SOL    HW1 7804   4.008   0.250   3.183
 2599SOL    HW2 7805   4.001   0.118   3.087
 2600SOL     OW 7806   3.761   1.310   3.144
 2600SOL    HW1 7807   3.814   1.261   3.212
 2600SOL    HW2 7808   3.783   1.408   3.149
 2601SOL     OW 7809   4.031   0.063   2.480
 2601SOL    HW1 7810   4.020   0.157   2.513
 2601SOL    HW2 7811   4.026   0.000   2.557
 2602SOL     OW 7812   4.074   0.898   3.666
 2602SOL    HW1 7813   4.150   0.942   3.714
 2602SOL    HW2 7814   4.109   0.851   3.584
 2603SOL     OW 7815   4.043   0.810   2.811
 2603SOL    HW1 7816   4.136   0.846   2.816
 2603SOL    HW2 7817   4.037   0.725   2.863
 2604SOL     OW 7818   4.063   0.509   2.868
 2604SOL    HW1 7819   4.011   0.426   2.851
 2604SOL    HW2 7820   4.140   0.514   2.804
 2605SOL     OW 7821   3.732   1.326   2.062
 2605SOL    HW1 7822   3.639   1.347   2.031
 2605SOL    HW2 7823   3.742   1.227   2.075
 2606SOL     OW 7824   3.812   1.801   2.789
 2606SOL    HW1 7825   3.770   1.715   2.762
 2606SOL    HW2 7826   3.906   1.804   2.755
 2607SOL     OW 7827   4.228   1.568   2.772
 2607SOL    HW1 7828   4.294   1.642   2.781
 2607SOL    HW2 7829   4.272   1.489   2.730
 2608SOL     OW 7830   3.764   0.544   2.976
 2608SOL    HW1 7831   3.849   0.511   2.935
 2608SOL    HW2 7832   3.777   0.559   3.074
 2609SOL     OW 7833   3.913   0.520   3.584
 2609SOL    HW1 7834   3.972   0.480   3.514
 2609SOL    HW2 7835   3.855   0.591   3.543
 2610SOL     OW 7836   4.539   0.572   2.187
 2610SOL    HW1 7837   4.546   0.483   2.141
 2610SOL    HW2 7838   4.445   0.606   2.179
 2611SOL     OW 7839   3.976   1.564   3.606
 2611SOL    HW1 7840   3.946   1.621   3.682
 2611SOL    HW2 7841   3.969   1.467   3.632
 2612SOL     OW 7842   4.197   0.500   2.053
 2612SOL    HW1 7843   4.258   0.580   2.057
 2612SOL    HW2 7844   4.102   0.531   2.060
 2613SOL     OW 7845   3.883   1.137   3.328
 2613SOL    HW1 7846   3.905   1.076   3.404
 2613SOL    HW2 7847   3.893   1.088   3.242
 2614SOL     OW 7848   3.807   1.258   2.884
 2614SOL    HW1 7849   3.802   1.257   2.984
 2614SOL    HW2 7850   3.724   1.217   2.846
 2615SOL     OW 7851   4.412   1.662   3.578
 2615SOL    HW1 7852   4.356   1.743   3.587
 2615SOL    HW2 7853   4.464   1.666   3.492
 2616SOL     OW 7854   3.854   1.794   3.713
 2616SOL    HW1 7855   3.813   1.720   3.766
 2616SOL    HW2 7856   3.918   1.845   3.771
 2617SOL     OW 7857   3.987   0.326   2.582
 2617SOL    HW1 7858   3.908   0.377   2.548
 2617SOL    HW2 7859   3.978   0.311   2.680
 2618SOL     OW 7860   4.096   1.288   3.352
 2618SOL    HW1 7861   4.083   1.381   3.318
 2618SOL    HW2 7862   4.012   1.236   3.339
 2619SOL     OW 7863   4.314   1.487   2.353
 2619SOL    HW1 7864   4.356   1.429   2.283
 2619SOL    HW2 7865   4.270   1.566   2.309
 2620SOL     OW 7866   3.979   1.348   2.152
 2620SOL    HW1 7867   3.883   1.349   2.125
 2620SOL    HW2 7868   3.991   1.401   2.236
 2621SOL     OW 7869   3.829   1.013   3.588
 2621SOL    HW1 7870   3.752   0.980   3.642
 2621SOL    HW2 7871   3.914   0.983   3.630
 2622SOL     OW 7872   4.396   0.203   3.351
 2622SOL    HW1 7873   4.486   0.187   3.311
 2622SOL    HW2 7874   4.404   0.208   3.450
 2623SOL     OW 7875   3.799   0.345   1.895
 2623SOL    HW1 7876   3.707   0.317   1.866
 2623SOL    HW2 7877   3.830   0.422   1.839
 2624SOL     OW 7878   3.796   0.166   2.180
 2624SOL    HW1 7879   3.779   0.249   2.126
 2624SOL    HW2 7880   3.886   0.129   2.158
 2625SOL     OW 7881   4.337   0.842   3.293
 2625SOL    HW1 7882   4.393   0.923   3.276
 2625SOL    HW2 7883   4.396   0.762   3.296
 2626SOL     OW 7884   4.440   0.565   3.570
 2626SOL    HW1 7885   4.459   0.630   3.644
 2626SOL    HW2 7886   4.500   0.485   3.579
 2627SOL     OW 7887   4.114   1.741   3.422
 2627SOL    HW1 7888   4.023   1.782   3.420
 2627SOL    HW2 7889   4.107   1.647   3.454
 2628SOL     OW 7890   4.318   0.745   2.514
 2628SOL    HW1 7891   4.368   0.830   2.495
 2628SOL    HW2 7892   4.230   0.747   2.466
 2629SOL     OW 7893   3.945   1.314   3.706
 2629SOL    HW1 7894   3.880   1.241   3.685
 2629SOL    HW2 7895   3.949   1.328   3.804
 2630SOL     OW 7896   3.803   1.240   2.515
 2630SOL    HW1 7897   3.802   1.193   2.603
 2630SOL    HW2 7898   3.885   1.212   2.464
 2631SOL     OW 7899   4.396   1.391   3.486
 2631SOL    HW1 7900   4.318   1.341   3.524
 2631SOL    HW2 7901   4.393   1.486   3.517
 2632SOL     OW 7902   4.152   0.424   2.382
 2632SOL    HW1 7903   4.182   0.352   2.320
 2632SOL    HW2 7904   4.113   0.384   2.465
 2633SOL     OW 7905   4.041   0.547   3.142
 2633SOL    HW1 7906   4.079   0.488   3.214
 2633SOL    HW2 7907   4.081   0.521   3.054
 2634SOL     OW 7908   4.536   1.586   2.549
 2634SOL    HW1 7909   4.568   1.596   2.455
 2634SOL    HW2 7910   4.457   1.524   2.551
 2635SOL     OW 7911   3.763   1.077   2.162
 2635SOL    HW1 7912   3.862   1.066   2.153
 2635SOL    HW2 7913   3.723   0.991   2.194
 2636SOL     OW 7914   3.954   0.628   3.837
 2636SOL    HW1 7915   3.861   0.626   3.874
 2636SOL    HW2 7916   3.955   0.589   3.745
 2637SOL     OW 7917   3.949   0.275   4.720
 2637SOL    HW1 7918   3.984   0.258   4.812
 2637SOL    HW2 7919   3.861   0.230   4.708
 2638SOL     OW 7920   4.409   1.012   4.389
 2638SOL    HW1 7921   4.478   0.996   4.459
 2638SOL    HW2 7922   4.336   1.069   4.427
 2639SOL     OW 7923   3.955   1.713   4.207
 2639SOL    HW1 7924   3.989   1.790   4.261
 2639SOL    HW2 7925   3.999   1.713   4.117
 2640SOL     OW 7926   3.954   1.434   4.262
 2640SOL    HW1 7927   3.928   1.530   4.262
 2640SOL    HW2 7928   3.883   1.380   4.307
 2641SOL     OW 7929   4.330   0.964   3.847
 2641SOL    HW1 7930   4.337   1.048   3.793
 2641SOL    HW2 7931   4.376   0.977   3.935
 2642SOL     OW 7932   3.846   0.643   4.287
 2642SOL    HW1 7933   3.801   0.555   4.304
 2642SOL    HW2 7934   3.845   0.697   4.371
 2643SOL     OW 7935   3.751   1.596   3.841
 2643SOL    HW1 7936   3.732   1.500   3.862
 2643SOL    HW2 7937   3.718   1.654   3.916
 2644SOL     OW 7938   4.337   1.365   4.450
 2644SOL    HW1 7939   4.288   1.278   4.459
 2644SOL    HW2 7940   4.314   1.408   4.363
 2645SOL     OW 7941   4.533   0.004   4.226
 2645SOL    HW1 7942   4.573   0.095   4.217
 2645SOL    HW2 7943   4.433   0.012   4.232
 2646SOL     OW 7944   4.322   0.729   3.994
 2646SOL    HW1 7945   4.346   0.798   3.926
 2646SOL    HW2 7946   4.244   0.762   4.048
 2647SOL     OW 7947   3.800   0.811   4.513
 2647SOL    HW1 7948   3.899   0.799   4.522
 2647SOL    HW2 7949   3.776   0.906   4.534
 2648SOL     OW 7950   4.075   1.801   4.577
 2648SOL    HW1 7951   4.125   1.715   4.583
 2648SOL    HW2 7952   4.140   1.878   4.574
 2649SOL     OW 7953   4.045   0.943   3.966
 2649SOL    HW1 7954   4.127   0.982   3.924
 2649SOL    HW2 7955   4.018   0.861   3.917
 2650SOL     OW 7956   4.188   1.743   4.047
 2650SOL    HW1 7957   4.221   1.782   4.133
 2650SOL    HW2 7958   4.264   1.736   3.982
 2651SOL     OW 7959   4.106   0.700   4.204
 2651SOL    HW1 7960   4.151   0.610   4.201
 2651SOL    HW2 7961   4.012   0.689   4.237
 2652SOL     OW 7962   4.338   0.122   3.841
 2652SOL    HW1 7963   4.436   0.100   3.848
 2652SOL    HW2 7964   4.307   0.105   3.748
 2653SOL     OW 7965   4.263   0.064   4.236
 2653SOL    HW1 7966   4.182   0.065   4.294
 2653SOL    HW2 7967   4.266   0.147   4.181
 2654SOL     OW 7968   4.021   0.035   3.895
 2654SOL    HW1 7969   4.070   0.119   3.874
 2654SOL    HW2 7970   4.083  -0.030   3.940
 2655SOL     OW 7971   4.183   1.152   4.465
 2655SOL    HW1 7972   4.112   1.125   4.530
 2655SOL    HW2 7973   4.157   1.124   4.372
 2656SOL     OW 7974   4.212   1.385   3.898
 2656SOL    HW1 7975   4.125   1.370   3.945
 2656SOL    HW2 7976   4.195   1.411   3.803
 2657SOL     OW 7977   4.251   0.256   4.052
 2657SOL    HW1 7978   4.278   0.197   3.977
 2657SOL    HW2 7979   4.251   0.351   4.021
 2658SOL     OW 7980   4.091   1.100   4.225
 2658SOL    HW1 7981   4.084   1.183   4.169
 2658SOL    HW2 7982   4.095   1.020   4.165
 2659SOL     OW 7983   4.031   0.063   4.342
 2659SOL    HW1 7984   4.020   0.157   4.375
 2659SOL    HW2 7985   4.026   0.000   4.419
 2660SOL     OW 7986   3.732   1.326   3.924
 2660SOL    HW1 7987   3.639   1.347   3.893
 2660SOL    HW2 7988   3.742   1.227   3.937
 2661SOL     OW 7989   4.539   0.572   4.049
 2661SOL    HW1 7990   4.546   0.483   4.003
 2661SOL    HW2 7991   4.445   0.606   4.041
 2662SOL     OW 7992   4.197   0.500   3.915
 2662SOL    HW1 7993   4.258   0.580   3.919
 2662SOL    HW2 7994   4.102   0.531   3.922
 2663SOL     OW 7995   4.763   1.098   4.420
 2663SOL    HW1 7996   4.693   1.051   4.474
 2663SOL    HW2 7997   4.822   1.030   4.377
 2664SOL     OW 7998   4.314   1.487   4.215
 2664SOL    HW1 7999   4.356   1.429   4.145
 2664SOL    HW2 8000   4.270   1.566   4.171
 2665SOL     OW 8001   3.979   1.348   4.014
 2665SOL    HW1 8002   3.883   1.349   3.987
 2665SOL    HW2 8003   3.991   1.401   4.098
 2666SOL     OW 8004   3.799   0.345   3.757
 2666SOL    HW1 8005   3.707   0.317   3.728
 2666SOL    HW2 8006   3.830   0.422   3.701
 2667SOL     OW 8007   3.796   0.166   4.042
 2667SOL    HW1 8008   3.779   0.249   3.988
 2667SOL    HW2 8009   3.886   0.129   4.020
 2668SOL     OW 8010   4.318   0.745   4.376
 2668SOL    HW1 8011   4.368   0.830   4.357
 2668SOL    HW2 8012   4.230   0.747   4.328
 2669SOL     OW 8013   4.385   1.790   4.677
 2669SOL    HW1 8014   4.339   1.878   4.664
 2669SOL    HW2 8015   4.484   1.802   4.670
 2670SOL     OW 8016   3.803   1.240   4.377
 2670SOL    HW1 8017   3.802   1.193   4.465
 2670SOL    HW2 8018   3.885   1.212   4.326
 2671SOL     OW 8019   4.152   0.424   4.244
 2671SOL    HW1 8020   4.182   0.352   4.182
 2671SOL    HW2 8021   4.113   0.384   4.327
 2672SOL     OW 8022   4.536   1.586   4.411
 2672SOL    HW1 8023   4.568   1.596   4.317
 2672SOL    HW2 8024   4.457   1.524   4.413
 2673SOL     OW 8025   3.763   1.077   4.024
 2673SOL    HW1 8026   3.862   1.066   4.015
 2673SOL    HW2 8027   3.723   0.991   4.056
 2674SOL     OW 8028   3.954   2.490   0.113
 2674SOL    HW1 8029   3.861   2.488   0.150
 2674SOL    HW2 8030   3.955   2.451   0.021
 2675SOL     OW 8031   3.949   2.137   0.996
 2675SOL    HW1 8032   3.984   2.120   1.088
 2675SOL    HW2 8033   3.861   2.092   0.984
 2676SOL     OW 8034   3.743   2.230   0.647
 2676SOL    HW1 8035   3.661   2.273   0.686
 2676SOL    HW2 8036   3.715   2.157   0.584
 2677SOL     OW 8037   4.293   3.137   1.165
 2677SOL    HW1 8038   4.200   3.130   1.128
 2677SOL    HW2 8039   4.304   3.226   1.209
 2678SOL     OW 8040   4.574   2.660   1.823
 2678SOL    HW1 8041   4.570   2.736   1.888
 2678SOL    HW2 8042   4.596   2.696   1.732
 2679SOL     OW 8043   4.409   2.874   0.665
 2679SOL    HW1 8044   4.478   2.858   0.735
 2679SOL    HW2 8045   4.336   2.931   0.703
 2680SOL     OW 8046   4.410   3.023   1.803
 2680SOL    HW1 8047   4.470   3.102   1.817
 2680SOL    HW2 8048   4.324   3.054   1.762
 2681SOL     OW 8049   4.059   3.297   1.061
 2681SOL    HW1 8050   3.981   3.266   1.008
 2681SOL    HW2 8051   4.117   3.355   1.004
 2682SOL     OW 8052   4.162   2.254   1.499
 2682SOL    HW1 8053   4.244   2.198   1.508
 2682SOL    HW2 8054   4.081   2.196   1.503
 2683SOL     OW 8055   3.955   3.575   0.483
 2683SOL    HW1 8056   3.989   3.652   0.537
 2683SOL    HW2 8057   3.999   3.575   0.393
 2684SOL     OW 8058   3.954   3.296   0.538
 2684SOL    HW1 8059   3.928   3.392   0.538
 2684SOL    HW2 8060   3.883   3.242   0.583
 2685SOL     OW 8061   3.964   2.953   0.886
 2685SOL    HW1 8062   3.978   2.869   0.938
 2685SOL    HW2 8063   3.909   3.017   0.941
 2686SOL     OW 8064   4.344   3.648   1.439
 2686SOL    HW1 8065   4.252   3.631   1.474
 2686SOL    HW2 8066   4.372   3.740   1.465
 2687SOL     OW 8067   4.330   2.826   0.123
 2687SOL    HW1 8068   4.337   2.910   0.069
 2687SOL    HW2 8069   4.376   2.839   0.211
 2688SOL     OW 8070   3.846   2.505   0.563
 2688SOL    HW1 8071   3.801   2.417   0.580
 2688SOL    HW2 8072   3.845   2.559   0.647
 2689SOL     OW 8073   3.751   3.458   0.117
 2689SOL    HW1 8074   3.732   3.362   0.138
 2689SOL    HW2 8075   3.718   3.516   0.192
 2690SOL     OW 8076   3.837   2.599   1.597
 2690SOL    HW1 8077   3.925   2.586   1.642
 2690SOL    HW2 8078   3.824   2.696   1.575
 2691SOL     OW 8079   4.337   3.227   0.726
 2691SOL    HW1 8080   4.288   3.140   0.735
 2691SOL    HW2 8081   4.314   3.270   0.639
 2692SOL     OW 8082   4.533   1.866   0.502
 2692SOL    HW1 8083   4.573   1.957   0.493
 2692SOL    HW2 8084   4.433   1.874   0.508
 2693SOL     OW 8085   3.921   2.838   1.264
 2693SOL    HW1 8086   4.010   2.793   1.250
 2693SOL    HW2 8087   3.848   2.773   1.245
 2694SOL     OW 8088   4.041   2.113   1.801
 2694SOL    HW1 8089   4.112   2.184   1.807
 2694SOL    HW2 8090   3.953   2.152   1.829
 2695SOL     OW 8091   4.322   2.591   0.270
 2695SOL    HW1 8092   4.346   2.660   0.202
 2695SOL    HW2 8093   4.244   2.624   0.324
 2696SOL     OW 8094   3.800   2.673   0.789
 2696SOL    HW1 8095   3.899   2.661   0.798
 2696SOL    HW2 8096   3.776   2.768   0.810
 2697SOL     OW 8097   3.854   3.683   1.571
 2697SOL    HW1 8098   3.844   3.668   1.670
 2697SOL    HW2 8099   3.768   3.719   1.535
 2698SOL     OW 8100   4.274   2.058   0.885
 2698SOL    HW1 8101   4.269   2.053   0.985
 2698SOL    HW2 8102   4.276   2.154   0.856
 2699SOL     OW 8103   4.075   3.663   0.853
 2699SOL    HW1 8104   4.125   3.577   0.859
 2699SOL    HW2 8105   4.140   3.740   0.850
 2700SOL     OW 8106   4.045   2.805   0.242
 2700SOL    HW1 8107   4.127   2.844   0.200
 2700SOL    HW2 8108   4.018   2.723   0.193
 2701SOL     OW 8109   4.185   3.128   1.727
 2701SOL    HW1 8110   4.135   3.129   1.641
 2701SOL    HW2 8111   4.122   3.110   1.803
 2702SOL     OW 8112   3.926   2.147   1.498
 2702SOL    HW1 8113   3.846   2.207   1.485
 2702SOL    HW2 8114   3.916   2.098   1.584
 2703SOL     OW 8115   4.188   3.605   0.323
 2703SOL    HW1 8116   4.221   3.644   0.409
 2703SOL    HW2 8117   4.264   3.598   0.258
 2704SOL     OW 8118   3.973   3.647   1.241
 2704SOL    HW1 8119   4.030   3.582   1.291
 2704SOL    HW2 8120   3.957   3.614   1.148
 2705SOL     OW 8121   4.106   2.562   0.480
 2705SOL    HW1 8122   4.151   2.472   0.477
 2705SOL    HW2 8123   4.012   2.551   0.513
 2706SOL     OW 8124   4.527   3.264   0.924
 2706SOL    HW1 8125   4.617   3.278   0.882
 2706SOL    HW2 8126   4.456   3.266   0.853
 2707SOL     OW 8127   4.263   1.926   0.512
 2707SOL    HW1 8128   4.182   1.927   0.570
 2707SOL    HW2 8129   4.266   2.009   0.457
 2708SOL     OW 8130   4.800   2.545   1.464
 2708SOL    HW1 8131   4.720   2.484   1.467
 2708SOL    HW2 8132   4.881   2.492   1.440
 2709SOL     OW 8133   4.183   3.014   0.741
 2709SOL    HW1 8134   4.112   2.987   0.806
 2709SOL    HW2 8135   4.157   2.986   0.648
 2710SOL     OW 8136   3.802   2.418   1.386
 2710SOL    HW1 8137   3.894   2.417   1.345
 2710SOL    HW2 8138   3.796   2.492   1.453
 2711SOL     OW 8139   4.285   2.084   1.147
 2711SOL    HW1 8140   4.323   2.000   1.184
 2711SOL    HW2 8141   4.197   2.103   1.191
 2712SOL     OW 8142   4.212   3.247   0.174
 2712SOL    HW1 8143   4.125   3.232   0.221
 2712SOL    HW2 8144   4.195   3.273   0.079
 2713SOL     OW 8145   4.251   2.118   0.328
 2713SOL    HW1 8146   4.278   2.059   0.253
 2713SOL    HW2 8147   4.251   2.213   0.297
 2714SOL     OW 8148   4.134   2.675   1.251
 2714SOL    HW1 8149   4.220   2.687   1.301
 2714SOL    HW2 8150   4.092   2.588   1.278
 2715SOL     OW 8151   3.788   3.426   1.331
 2715SOL    HW1 8152   3.742   3.508   1.297
 2715SOL    HW2 8153   3.886   3.445   1.340
 2716SOL     OW 8154   4.091   2.962   0.501
 2716SOL    HW1 8155   4.084   3.045   0.445
 2716SOL    HW2 8156   4.095   2.882   0.441
 2717SOL     OW 8157   4.290   2.399   0.865
 2717SOL    HW1 8158   4.302   2.465   0.791
 2717SOL    HW2 8159   4.336   2.433   0.948
 2718SOL     OW 8160   4.078   3.372   1.329
 2718SOL    HW1 8161   4.057   3.328   1.242
 2718SOL    HW2 8162   4.175   3.398   1.332
 2719SOL     OW 8163   4.126   2.613   1.598
 2719SOL    HW1 8164   4.194   2.668   1.551
 2719SOL    HW2 8165   4.166   2.525   1.625
 2720SOL     OW 8166   4.228   1.912   1.740
 2720SOL    HW1 8167   4.186   1.855   1.670
 2720SOL    HW2 8168   4.162   1.981   1.772
 2721SOL     OW 8169   4.297   2.732   1.029
 2721SOL    HW1 8170   4.341   2.821   1.020
 2721SOL    HW2 8171   4.234   2.732   1.106
 2722SOL     OW 8172   4.031   2.075   1.231
 2722SOL    HW1 8173   4.008   2.112   1.321
 2722SOL    HW2 8174   4.001   1.980   1.225
 2723SOL     OW 8175   3.761   3.172   1.282
 2723SOL    HW1 8176   3.814   3.123   1.350
 2723SOL    HW2 8177   3.783   3.270   1.287
 2724SOL     OW 8178   4.031   1.925   0.618
 2724SOL    HW1 8179   4.020   2.019   0.651
 2724SOL    HW2 8180   4.026   1.862   0.695
 2725SOL     OW 8181   4.074   2.760   1.804
 2725SOL    HW1 8182   4.150   2.804   1.852
 2725SOL    HW2 8183   4.109   2.713   1.722
 2726SOL     OW 8184   4.043   2.672   0.949
 2726SOL    HW1 8185   4.136   2.708   0.954
 2726SOL    HW2 8186   4.037   2.587   1.001
 2727SOL     OW 8187   4.063   2.371   1.006
 2727SOL    HW1 8188   4.011   2.288   0.989
 2727SOL    HW2 8189   4.140   2.376   0.942
 2728SOL     OW 8190   3.732   3.188   0.200
 2728SOL    HW1 8191   3.639   3.209   0.169
 2728SOL    HW2 8192   3.742   3.089   0.213
 2729SOL     OW 8193   3.812   3.663   0.927
 2729SOL    HW1 8194   3.770   3.577   0.900
 2729SOL    HW2 8195   3.906   3.666   0.893
 2730SOL     OW 8196   4.228   3.430   0.910
 2730SOL    HW1 8197   4.294   3.504   0.919
 2730SOL    HW2 8198   4.272   3.351   0.868
 2731SOL     OW 8199   3.764   2.406   1.114
 2731SOL    HW1 8200   3.849   2.373   1.073
 2731SOL    HW2 8201   3.777   2.421   1.212
 2732SOL     OW 8202   3.913   2.382   1.722
 2732SOL    HW1 8203   3.972   2.342   1.652
 2732SOL    HW2 8204   3.855   2.453   1.681
 2733SOL     OW 8205   4.539   2.434   0.325
 2733SOL    HW1 8206   4.546   2.345   0.279
 2733SOL    HW2 8207   4.445   2.468   0.317
 2734SOL     OW 8208   3.976   3.426   1.744
 2734SOL    HW1 8209   3.946   3.483   1.820
 2734SOL    HW2 8210   3.969   3.329   1.770
 2735SOL     OW 8211   4.197   2.362   0.191
 2735SOL    HW1 8212   4.258   2.442   0.195
 2735SOL    HW2 8213   4.102   2.393   0.198
 2736SOL     OW 8214   3.883   2.999   1.466
 2736SOL    HW1 8215   3.905   2.938   1.542
 2736SOL    HW2 8216   3.893   2.950   1.380
 2737SOL     OW 8217   3.807   3.120   1.022
 2737SOL    HW1 8218   3.802   3.119   1.122
 2737SOL    HW2 8219   3.724   3.079   0.984
 2738SOL     OW 8220   4.412   3.524   1.716
 2738SOL    HW1 8221   4.356   3.605   1.725
 2738SOL    HW2 8222   4.464   3.528   1.630
 2739SOL     OW 8223   3.854   3.656   1.851
 2739SOL    HW1 8224   3.813   3.582   1.904
 2739SOL    HW2 8225   3.918   3.707   1.909
 2740SOL     OW 8226   3.987   2.188   0.720
 2740SOL    HW1 8227   3.908   2.239   0.686
 2740SOL    HW2 8228   3.978   2.173   0.818
 2741SOL     OW 8229   4.096   3.150   1.490
 2741SOL    HW1 8230   4.083   3.243   1.456
 2741SOL    HW2 8231   4.012   3.098   1.477
 2742SOL     OW 8232   4.314   3.349   0.491
 2742SOL    HW1 8233   4.356   3.291   0.421
 2742SOL    HW2 8234   4.270   3.428   0.447
 2743SOL     OW 8235   3.979   3.210   0.290
 2743SOL    HW1 8236   3.883   3.211   0.263
 2743SOL    HW2 8237   3.991   3.263   0.374
 2744SOL     OW 8238   3.829   2.875   1.726
 2744SOL    HW1 8239   3.752   2.842   1.780
 2744SOL    HW2 8240   3.914   2.845   1.768
 2745SOL     OW 8241   4.396   2.065   1.489
 2745SOL    HW1 8242   4.486   2.049   1.449
 2745SOL    HW2 8243   4.404   2.070   1.588
 2746SOL     OW 8244   3.799   2.207   0.033
 2746SOL    HW1 8245   3.707   2.179   0.004
 2746SOL    HW2 8246   3.830   2.284  -0.023
 2747SOL     OW 8247   4.337   2.704   1.431
 2747SOL    HW1 8248   4.393   2.785   1.414
 2747SOL    HW2 8249   4.396   2.624   1.434
 2748SOL     OW 8250   4.440   2.427   1.708
 2748SOL    HW1 8251   4.459   2.492   1.782
 2748SOL    HW2 8252   4.500   2.347   1.717
 2749SOL     OW 8253   4.114   3.603   1.560
 2749SOL    HW1 8254   4.023   3.644   1.558
 2749SOL    HW2 8255   4.107   3.509   1.592
 2750SOL     OW 8256   4.318   2.607   0.652
 2750SOL    HW1 8257   4.368   2.692   0.633
 2750SOL    HW2 8258   4.230   2.609   0.604
 2751SOL     OW 8259   3.945   3.176   1.844
 2751SOL    HW1 8260   3.880   3.103   1.823
 2751SOL    HW2 8261   3.949   3.190   1.942
 2752SOL     OW 8262   3.803   3.102   0.653
 2752SOL    HW1 8263   3.802   3.055   0.741
 2752SOL    HW2 8264   3.885   3.074   0.602
 2753SOL     OW 8265   4.396   3.253   1.624
 2753SOL    HW1 8266   4.318   3.203   1.662
 2753SOL    HW2 8267   4.393   3.348   1.655
 2754SOL     OW 8268   4.152   2.286   0.520
 2754SOL    HW1 8269   4.182   2.214   0.458
 2754SOL    HW2 8270   4.113   2.246   0.603
 2755SOL     OW 8271   4.041   2.409   1.280
 2755SOL    HW1 8272   4.079   2.350   1.352
 2755SOL    HW2 8273   4.081   2.383   1.192
 2756SOL     OW 8274   4.536   3.448   0.687
 2756SOL    HW1 8275   4.568   3.458   0.593
 2756SOL    HW2 8276   4.457   3.386   0.689
 2757SOL     OW 8277   3.763   2.939   0.300
 2757SOL    HW1 8278   3.862   2.928   0.291
 2757SOL    HW2 8279   3.723   2.853   0.332
 2758SOL     OW 8280   3.954   2.490   1.975
 2758SOL    HW1 8281   3.861   2.488   2.012
 2758SOL    HW2 8282   3.955   2.451   1.883
 2759SOL     OW 8283   3.949   2.137   2.858
 2759SOL    HW1 8284   3.984   2.120   2.950
 2759SOL    HW2 8285   3.861   2.092   2.846
 2760SOL     OW 8286   3.743   2.230   2.509
 2760SOL    HW1 8287   3.661   2.273   2.548
 2760SOL    HW2 8288   3.715   2.157   2.446
 2761SOL     OW 8289   4.293   3.137   3.027
 2761SOL    HW1 8290   4.200   3.130   2.990
 2761SOL    HW2 8291   4.304   3.226   3.071
 2762SOL     OW 8292   4.574   2.660   3.685
 2762SOL    HW1 8293   4.570   2.736   3.750
 2762SOL    HW2 8294   4.596   2.696   3.594
 2763SOL     OW 8295   4.409   2.874   2.527
 2763SOL    HW1 8296   4.478   2.858   2.597
 2763SOL    HW2 8297   4.336   2.931   2.565
 2764SOL     OW 8298   4.410   3.023   3.665
 2764SOL    HW1 8299   4.470   3.102   3.679
 2764SOL    HW2 8300   4.324   3.054   3.624
 2765SOL     OW 8301   4.059   3.297   2.923
 2765SOL    HW1 8302   3.981   3.266   2.870
 2765SOL    HW2 8303   4.117   3.355   2.866
 2766SOL     OW 8304   4.162   2.254   3.361
 2766SOL    HW1 8305   4.244   2.198   3.370
 2766SOL    HW2 8306   4.081   2.196   3.365
 2767SOL     OW 8307   3.955   3.575   2.345
 2767SOL    HW1 8308   3.989   3.652   2.399
 2767SOL    HW2 8309   3.999   3.575   2.255
 2768SOL     OW 8310   3.954   3.296   2.400
 2768SOL    HW1 8311   3.928   3.392   2.400
 2768SOL    HW2 8312   3.883   3.242   2.445
 2769SOL     OW 8313   3.964   2.953   2.748
 2769SOL    HW1 8314   3.978   2.869   2.800
 2769SOL    HW2 8315   3.909   3.017   2.803
 2770SOL     OW 8316   4.344   3.648   3.301
 2770SOL    HW1 8317   4.252   3.631   3.336
 2770SOL    HW2 8318   4.372   3.740   3.327
 2771SOL     OW 8319   4.330   2.826   1.985
 2771SOL    HW1 8320   4.337   2.910   1.931
 2771SOL    HW2 8321   4.376   2.839   2.073
 2772SOL     OW 8322   3.846   2.505   2.425
 2772SOL    HW1 8323   3.801   2.417   2.442
 2772SOL    HW2 8324   3.845   2.559   2.509
 2773SOL     OW 8325   3.751   3.458   1.979
 2773SOL    HW1 8326   3.732   3.362   2.000
 2773SOL    HW2 8327   3.718   3.516   2.054
 2774SOL     OW 8328   3.837   2.599   3.459
 2774SOL    HW1 8329   3.925   2.586   3.504
 2774SOL    HW2 8330   3.824   2.696   3.437
 2775SOL     OW 8331   4.337   3.227   2.588
 2775SOL    HW1 8332   4.288   3.140   2.597
 2775SOL    HW2 8333   4.314   3.270   2.501
 2776SOL     OW 8334   4.533   1.866   2.364
 2776SOL    HW1 8335   4.573   1.957   2.355
 2776SOL    HW2 8336   4.433   1.874   2.370
 2777SOL     OW 8337   3.921   2.838   3.126
 2777SOL    HW1 8338   4.010   2.793   3.112
 2777SOL    HW2 8339   3.848   2.773   3.107
 2778SOL     OW 8340   4.041   2.113   3.663
 2778SOL    HW1 8341   4.112   2.184   3.669
 2778SOL    HW2 8342   3.953   2.152   3.691
 2779SOL     OW 8343   4.322   2.591   2.132
 2779SOL    HW1 8344   4.346   2.660   2.064
 2779SOL    HW2 8345   4.244   2.624   2.186
 2780SOL     OW 8346   3.800   2.673   2.651
 2780SOL    HW1 8347   3.899   2.661   2.660
 2780SOL    HW2 8348   3.776   2.768   2.672
 2781SOL     OW 8349   3.854   3.683   3.433
 2781SOL    HW1 8350   3.844   3.668   3.532
 2781SOL    HW2 8351   3.768   3.719   3.397
 2782SOL     OW 8352   4.274   2.058   2.747
 2782SOL    HW1 8353   4.269   2.053   2.847
 2782SOL    HW2 8354   4.276   2.154   2.718
 2783SOL     OW 8355   4.075   3.663   2.715
 2783SOL    HW1 8356   4.125   3.577   2.721
 2783SOL    HW2 8357   4.140   3.740   2.712
 2784SOL     OW 8358   4.045   2.805   2.104
 2784SOL    HW1 8359   4.127   2.844   2.062
 2784SOL    HW2 8360   4.018   2.723   2.055
 2785SOL     OW 8361   4.185   3.128   3.589
 2785SOL    HW1 8362   4.135   3.129   3.503
 2785SOL    HW2 8363   4.122   3.110   3.665
 2786SOL     OW 8364   3.926   2.147   3.360
 2786SOL    HW1 8365   3.846   2.207   3.347
 2786SOL    HW2 8366   3.916   2.098   3.446
 2787SOL     OW 8367   4.188   3.605   2.185
 2787SOL    HW1 8368   4.221   3.644   2.271
 2787SOL    HW2 8369   4.264   3.598   2.120
 2788SOL     OW 8370   3.973   3.647   3.103
 2788SOL    HW1 8371   4.030   3.582   3.153
 2788SOL    HW2 8372   3.957   3.614   3.010
 2789SOL     OW 8373   4.106   2.562   2.342
 2789SOL    HW1 8374   4.151   2.472   2.339
 2789SOL    HW2 8375   4.012   2.551   2.375
 2790SOL     OW 8376   4.338   1.984   1.979
 2790SOL    HW1 8377   4.436   1.962   1.986
 2790SOL    HW2 8378   4.307   1.967   1.886
 2791SOL     OW 8379   4.527   3.264   2.786
 2791SOL    HW1 8380   4.617   3.278   2.744
 2791SOL    HW2 8381   4.456   3.266   2.715
 2792SOL     OW 8382   4.263   1.926   2.374
 2792SOL    HW1 8383   4.182   1.927   2.432
 2792SOL    HW2 8384   4.266   2.009   2.319
 2793SOL     OW 8385   4.021   1.897   2.033
 2793SOL    HW1 8386   4.070   1.981   2.012
 2793SOL    HW2 8387   4.083   1.832   2.078
 2794SOL     OW 8388   4.800   2.545   3.326
 2794SOL    HW1 8389   4.720   2.484   3.329
 2794SOL    HW2 8390   4.881   2.492   3.302
 2795SOL     OW 8391   4.183   3.014   2.603
 2795SOL    HW1 8392   4.112   2.987   2.668
 2795SOL    HW2 8393   4.157   2.986   2.510
 2796SOL     OW 8394   3.802   2.418   3.248
 2796SOL    HW1 8395   3.894   2.417   3.207
 2796SOL    HW2 8396   3.796   2.492   3.315
 2797SOL     OW 8397   4.285   2.084   3.009
 2797SOL    HW1 8398   4.323   2.000   3.046
 2797SOL    HW2 8399   4.197   2.103   3.053
 2798SOL     OW 8400   4.212   3.247   2.036
 2798SOL    HW1 8401   4.125   3.232   2.083
 2798SOL    HW2 8402   4.195   3.273   1.941
 2799SOL     OW 8403   4.251   2.118   2.190
 2799SOL    HW1 8404   4.278   2.059   2.115
 2799SOL    HW2 8405   4.251   2.213   2.159
 2800SOL     OW 8406   4.134   2.675   3.113
 2800SOL    HW1 8407   4.220   2.687   3.163
 2800SOL    HW2 8408   4.092   2.588   3.140
 2801SOL     OW 8409   3.788   3.426   3.193
 2801SOL    HW1 8410   3.742   3.508   3.159
 2801SOL    HW2 8411   3.886   3.445   3.202
 2802SOL     OW 8412   4.091   2.962   2.363
 2802SOL    HW1 8413   4.084   3.045   2.307
 2802SOL    HW2 8414   4.095   2.882   2.303
 2803SOL     OW 8415   4.290   2.399   2.727
 2803SOL    HW1 8416   4.302   2.465   2.653
 2803SOL    HW2 8417   4.336   2.433   2.810
 2804SOL     OW 8418   4.078   3.372   3.191
 2804SOL    HW1 8419   4.057   3.328   3.104
 2804SOL    HW2 8420   4.175   3.398   3.194
 2805SOL     OW 8421   4.126   2.613   3.460
 2805SOL    HW1 8422   4.194   2.668   3.413
 2805SOL    HW2 8423   4.166   2.525   3.487
 2806SOL     OW 8424   4.228   1.912   3.602
 2806SOL    HW1 8425   4.186   1.855   3.532
 2806SOL    HW2 8426   4.162   1.981   3.634
 2807SOL     OW 8427   4.297   2.732   2.891
 2807SOL    HW1 8428   4.341   2.821   2.882
 2807SOL    HW2 8429   4.234   2.732   2.968
 2808SOL     OW 8430   4.031   2.075   3.093
 2808SOL    HW1 8431   4.008   2.112   3.183
 2808SOL    HW2 8432   4.001   1.980   3.087
 2809SOL     OW 8433   3.761   3.172   3.144
 2809SOL    HW1 8434   3.814   3.123   3.212
 2809SOL    HW2 8435   3.783   3.270   3.149
 2810SOL     OW 8436   4.031   1.925   2.480
 2810SOL    HW1 8437   4.020   2.019   2.513
 2810SOL    HW2 8438   4.026   1.862   2.557
 2811SOL     OW 8439   4.074   2.760   3.666
 2811SOL    HW1 8440   4.150   2.804   3.714
 2811SOL    HW2 8441   4.109   2.713   3.584
 2812SOL     OW 8442   4.043   2.672   2.811
 2812SOL    HW1 8443   4.136   2.708   2.816
 2812SOL    HW2 8444   4.037   2.587   2.863
 2813SOL     OW 8445   4.063   2.371   2.868
 2813SOL    HW1 8446   4.011   2.288   2.851
 2813SOL    HW2 8447   4.140   2.376   2.804
 2814SOL     OW 8448   3.732   3.188   2.062
 2814SOL    HW1 8449   3.639   3.209   2.031
 2814SOL    HW2 8450   3.742   3.089   2.075
 2815SOL     OW 8451   3.812   3.663   2.789
 2815SOL    HW1 8452   3.770   3.577   2.762
 2815SOL    HW2 8453   3.906   3.666   2.755
 2816SOL     OW 8454   4.228   3.430   2.772
 2816SOL    HW1 8455   4.294   3.504   2.781
 2816SOL    HW2 8456   4.272   3.351   2.730
 2817SOL     OW 8457   3.764   2.406   2.976
 2817SOL    HW1 8458   3.849   2.373   2.935
 2817SOL    HW2 8459   3.777   2.421   3.074
 2818SOL     OW 8460   3.913   2.382   3.584
 2818SOL    HW1 8461   3.972   2.342   3.514
 2818SOL    HW2 8462   3.855   2.453   3.543
 2819SOL     OW 8463   4.539   2.434   2.187
 2819SOL    HW1 8464   4.546   2.345   2.141
 2819SOL    HW2 8465   4.445   2.468   2.179
 2820SOL     OW 8466   3.976   3.426   3.606
 2820SOL    HW1 8467   3.946   3.483   3.682
 2820SOL    HW2 8468   3.969   3.329   3.632
 2821SOL     OW 8469   4.197   2.362   2.053
 2821SOL    HW1 8470   4.258   2.442   2.057
 2821SOL    HW2 8471   4.102   2.393   2.060
 2822SOL     OW 8472   3.883   2.999   3.328
 2822SOL    HW1 8473   3.905   2.938   3.404
 2822SOL    HW2 8474   3.893   2.950   3.242
 2823SOL     OW 8475   3.807   3.120   2.884
 2823SOL    HW1 8476   3.802   3.119   2.984
 2823SOL    HW2 8477   3.724   3.079   2.846
 2824SOL     OW 8478   4.412   3.524   3.578
 2824SOL    HW1 8479   4.356   3.605   3.587
 2824SOL    HW2 8480   4.464   3.528   3.492
 2825SOL     OW 8481   3.854   3.656   3.713
 2825SOL    HW1 8482   3.813   3.582   3.766
 2825SOL    HW2 8483   3.918   3.707   3.771
 2826SOL     OW 8484   3.987   2.188   2.582
 2826SOL    HW1 8485   3.908   2.239   2.548
 2826SOL    HW2 8486   3.978   2.173   2.680
 2827SOL     OW 8487   4.096   3.150   3.352
 2827SOL    HW1 8488   4.083   3.243   3.318
 2827SOL    HW2 8489   4.012   3.098   3.339
 2828SOL     OW 8490   4.314   3.349   2.353
 2828SOL    HW1 8491   4.356   3.291   2.283
 2828SOL    HW2 8492   4.270   3.428   2.309
 2829SOL     OW 8493   3.979   3.210   2.152
 2829SOL    HW1 8494   3.883   3.211   2.125
 2829SOL    HW2 8495   3.991   3.263   2.236
 2830SOL     OW 8496   3.829   2.875   3.588
 2830SOL    HW1 8497   3.752   2.842   3.642
 2830SOL    HW2 8498   3.914   2.845   3.630
 2831SOL     OW 8499   4.396   2.065   3.351
 2831SOL    HW1 8500   4.486   2.049   3.311
 2831SOL    HW2 8501   4.404   2.070   3.450
 2832SOL     OW 8502   3.799   2.207   1.895
 2832SOL    HW1 8503   3.707   2.179   1.866
 2832SOL    HW2 8504   3.830   2.284   1.839
 2833SOL     OW 8505   3.796   2.028   2.180
 2833SOL    HW1 8506   3.779   2.111   2.126
 2833SOL    HW2 8507   3.886   1.991   2.158
 2834SOL     OW 8508   4.337   2.704   3.293
 2834SOL    HW1 8509   4.393   2.785   3.276
 2834SOL    HW2 8510   4.396   2.624   3.296
 2835SOL     OW 8511   4.440   2.427   3.570
 2835SOL    HW1 8512   4.459   2.492   3.644
 2835SOL    HW2 8513   4.500   2.347   3.579
 2836SOL     OW 8514   4.114   3.603   3.422
 2836SOL    HW1 8515   4.023   3.644   3.420
 2836SOL    HW2 8516   4.107   3.509   3.454
 2837SOL     OW 8517   4.318   2.607   2.514
 2837SOL    HW1 8518   4.368   2.692   2.495
 2837SOL    HW2 8519   4.230   2.609   2.466
 2838SOL     OW 8520   3.945   3.176   3.706
 2838SOL    HW1 8521   3.880   3.103   3.685
 2838SOL    HW2 8522   3.949   3.190   3.804
 2839SOL     OW 8523   3.803   3.102   2.515
 2839SOL    HW1 8524   3.802   3.055   2.603
 2839SOL    HW2 8525   3.885   3.074   2.464
 2840SOL     OW 8526   4.396   3.253   3.486
 2840SOL    HW1 8527   4.318   3.203   3.524
 2840SOL    HW2 8528   4.393   3.348   3.517
 2841SOL     OW 8529   4.152   2.286   2.382
 2841SOL    HW1 8530   4.182   2.214   2.320
 2841SOL    HW2 8531   4.113   2.246   2.465
 2842SOL     OW 8532   4.041   2.409   3.142
 2842SOL    HW1 8533   4.079   2.350   3.214
 2842SOL    HW2 8534   4.081   2.383   3.054
 2843SOL     OW 8535   4.536   3.448   2.549
 2843SOL    HW1 8536   4.568   3.458   2.455
 2843SOL    HW2 8537   4.457   3.386   2.551
 2844SOL     OW 8538   3.763   2.939   2.162
 2844SOL    HW1 8539   3.862   2.928   2.153
 2844SOL    HW2 8540   3.723   2.853   2.194
 2845SOL     OW 8541   3.954   2.490   3.837
 2845SOL    HW1 8542   3.861   2.488   3.874
 2845SOL    HW2 8543   3.955   2.451   3.745
 2846SOL     OW 8544   3.949   2.137   4.720
 2846SOL    HW1 8545   3.984   2.120   4.812
 2846SOL    HW2 8546   3.861   2.092   4.708
 2847SOL     OW 8547   4.409   2.874   4.389
 2847SOL    HW1 8548   4.478   2.858   4.459
 2847SOL    HW2 8549   4.336   2.931   4.427
 2848SOL     OW 8550   3.955   3.575   4.207
 2848SOL    HW1 8551   3.989   3.652   4.261
 2848SOL    HW2 8552   3.999   3.575   4.117
 2849SOL     OW 8553   3.954   3.296   4.262
 2849SOL    HW1 8554   3.928   3.392   4.262
 2849SOL    HW2 8555   3.883   3.242   4.307
 2850SOL     OW 8556   4.330   2.826   3.847
 2850SOL    HW1 8557   4.337   2.910   3.793
 2850SOL    HW2 8558   4.376   2.839   3.935
 2851SOL     OW 8559   3.846   2.505   4.287
 2851SOL    HW1 8560   3.801   2.417   4.304
 2851SOL    HW2 8561   3.845   2.559   4.371
 2852SOL     OW 8562   3.751   3.458   3.841
 2852SOL    HW1 8563   3.732   3.362   3.862
 2852SOL    HW2 8564   3.718   3.516   3.916
 2853SOL     OW 8565   4.337   3.227   4.450
 2853SOL    HW1 8566   4.288   3.140   4.459
 2853SOL    HW2 8567   4.314   3.270   4.363
 2854SOL     OW 8568   4.533   1.866   4.226
 2854SOL    HW1 8569   4.573   1.957   4.217
 2854SOL    HW2 8570   4.433   1.874   4.232
 2855SOL     OW 8571   4.322   2.591   3.994
 2855SOL    HW1 8572   4.346   2.660   3.926
 2855SOL    HW2 8573   4.244   2.624   4.048
 2856SOL     OW 8574   3.800   2.673   4.513
 2856SOL    HW1 8575   3.899   2.661   4.522
 2856SOL    HW2 8576   3.776   2.768   4.534
 2857SOL     OW 8577   4.075   3.663   4.577
 2857SOL    HW1 8578   4.125   3.577   4.583
 2857SOL    HW2 8579   4.140   3.740   4.574
 2858SOL     OW 8580   4.045   2.805   3.966
 2858SOL    HW1 8581   4.127   2.844   3.924
 2858SOL    HW2 8582   4.018   2.723   3.917
 2859SOL     OW 8583   4.188   3.605   4.047
 2859SOL    HW1 8584   4.221   3.644   4.133
 2859SOL    HW2 8585   4.264   3.598   3.982
 2860SOL     OW 8586   4.106   2.562   4.204
 2860SOL    HW1 8587   4.151   2.472   4.201
 2860SOL    HW2 8588   4.012   2.551   4.237
 2861SOL     OW 8589   4.338   1.984   3.841
 2861SOL    HW1 8590   4.436   1.962   3.848
 2861SOL    HW2 8591   4.307   1.967   3.748
 2862SOL     OW 8592   4.263   1.926   4.236
 2862SOL    HW1 8593   4.182   1.927   4.294
 2862SOL    HW2 8594   4.266   2.009   4.181
 2863SOL     OW 8595   4.021   1.897   3.895
 2863SOL    HW1 8596   4.070   1.981   3.874
 2863SOL    HW2 8597   4.083   1.832   3.940
 2864SOL     OW 8598   4.183   3.014   4.465
 2864SOL    HW1 8599   4.112   2.987   4.530
 2864SOL    HW2 8600   4.157   2.986   4.372
 2865SOL     OW 8601   4.212   3.247   3.898
 2865SOL    HW1 8602   4.125   3.232   3.945
 2865SOL    HW2 8603   4.195   3.273   3.803
 2866SOL     OW 8604   4.251   2.118   4.052
 2866SOL    HW1 8605   4.278   2.059   3.977
 2866SOL    HW2 8606   4.251   2.213   4.021
 2867SOL     OW 8607   4.091   2.962   4.225
 2867SOL    HW1 8608   4.084   3.045   4.169
 2867SOL    HW2 8609   4.095   2.882   4.165
 2868SOL     OW 8610   4.031   1.925   4.342
 2868SOL    HW1 8611   4.020   2.019   4.375
 2868SOL    HW2 8612   4.026   1.862   4.419
 2869SOL     OW 8613   3.732   3.188   3.924
 2869SOL    HW1 8614   3.639   3.209   3.893
 2869SOL    HW2 8615   3.742   3.089   3.937
 2870SOL     OW 8616   4.539   2.434   4.049
 2870SOL    HW1 8617   4.546   2.345   4.003
 2870SOL    HW2 8618   4.445   2.468   4.041
 2871SOL     OW 8619   4.197   2.362   3.915
 2871SOL    HW1 8620   4.258   2.442   3.919
 2871SOL    HW2 8621   4.102   2.393   3.922
 2872SOL     OW 8622   4.763   2.960   4.420
 2872SOL    HW1 8623   4.693   2.913   4.474
 2872SOL    HW2 8624   4.822   2.892   4.377
 2873SOL     OW 8625   4.314   3.349   4.215
 2873SOL    HW1 8626   4.356   3.291   4.145
 2873SOL    HW2 8627   4.270   3.428   4.171
 2874SOL     OW 8628   3.979   3.210   4.014
 2874SOL    HW1 8629   3.883   3.211   3.987
 2874SOL    HW2 8630   3.991   3.263   4.098
 2875SOL     OW 8631   3.799   2.207   3.757
 2875SOL    HW1 8632   3.707   2.179   3.728
 2875SOL    HW2 8633   3.830   2.284   3.701
 2876SOL     OW 8634   3.796   2.028   4.042
 2876SOL    HW1 8635   3.779   2.111   3.988
 2876SOL    HW2 8636   3.886   1.991   4.020
 2877SOL     OW 8637   4.318   2.607   4.376
 2877SOL    HW1 8638   4.368   2.692   4.357
 2877SOL    HW2 8639   4.230   2.609   4.328
 2878SOL     OW 8640   4.385   3.652   4.677
 2878SOL    HW1 8641   4.339   3.740   4.664
 2878SOL    HW2 8642   4.484   3.664   4.670
 2879SOL     OW 8643   3.803   3.102   4.377
 2879SOL    HW1 8644   3.802   3.055   4.465
 2879SOL    HW2 8645   3.885   3.074   4.326
 2880SOL     OW 8646   4.152   2.286   4.244
 2880SOL    HW1 8647   4.182   2.214   4.182
 2880SOL    HW2 8648   4.113   2.246   4.327
 2881SOL     OW 8649   4.536   3.448   4.411
 2881SOL    HW1 8650   4.568   3.458   4.317
 2881SOL    HW2 8651   4.457   3.386   4.413
 2882SOL     OW 8652   3.763   2.939   4.024
 2882SOL    HW1 8653   3.862   2.928   4.015
 2882SOL    HW2 8654   3.723   2.853   4.056
 2883SOL     OW 8655   3.954   4.352   0.113
 2883SOL    HW1 8656   3.861   4.350   0.150
 2883SOL    HW2 8657   3.955   4.313   0.021
 2884SOL     OW 8658   3.949   3.999   0.996
 2884SOL    HW1 8659   3.984   3.982   1.088
 2884SOL    HW2 8660   3.861   3.954   0.984
 2885SOL     OW 8661   3.743   4.092   0.647
 2885SOL    HW1 8662   3.661   4.135   0.686
 2885SOL    HW2 8663   3.715   4.019   0.584
 2886SOL     OW 8664   4.574   4.522   1.823
 2886SOL    HW1 8665   4.570   4.598   1.888
 2886SOL    HW2 8666   4.596   4.558   1.732
 2887SOL     OW 8667   4.162   4.116   1.499
 2887SOL    HW1 8668   4.244   4.060   1.508
 2887SOL    HW2 8669   4.081   4.058   1.503
 2888SOL     OW 8670   3.846   4.367   0.563
 2888SOL    HW1 8671   3.801   4.279   0.580
 2888SOL    HW2 8672   3.845   4.421   0.647
 2889SOL     OW 8673   3.837   4.461   1.597
 2889SOL    HW1 8674   3.925   4.448   1.642
 2889SOL    HW2 8675   3.824   4.558   1.575
 2890SOL     OW 8676   4.533   3.728   0.502
 2890SOL    HW1 8677   4.573   3.819   0.493
 2890SOL    HW2 8678   4.433   3.736   0.508
 2891SOL     OW 8679   4.041   3.975   1.801
 2891SOL    HW1 8680   4.112   4.046   1.807
 2891SOL    HW2 8681   3.953   4.014   1.829
 2892SOL     OW 8682   4.274   3.920   0.885
 2892SOL    HW1 8683   4.269   3.915   0.985
 2892SOL    HW2 8684   4.276   4.016   0.856
 2893SOL     OW 8685   3.926   4.009   1.498
 2893SOL    HW1 8686   3.846   4.069   1.485
 2893SOL    HW2 8687   3.916   3.960   1.584
 2894SOL     OW 8688   4.106   4.424   0.480
 2894SOL    HW1 8689   4.151   4.334   0.477
 2894SOL    HW2 8690   4.012   4.413   0.513
 2895SOL     OW 8691   4.263   3.788   0.512
 2895SOL    HW1 8692   4.182   3.789   0.570
 2895SOL    HW2 8693   4.266   3.871   0.457
 2896SOL     OW 8694   4.800   4.407   1.464
 2896SOL    HW1 8695   4.720   4.346   1.467
 2896SOL    HW2 8696   4.881   4.354   1.440
 2897SOL     OW 8697   3.802   4.280   1.386
 2897SOL    HW1 8698   3.894   4.279   1.345
 2897SOL    HW2 8699   3.796   4.354   1.453
 2898SOL     OW 8700   4.285   3.946   1.147
 2898SOL    HW1 8701   4.323   3.862   1.184
 2898SOL    HW2 8702   4.197   3.965   1.191
 2899SOL     OW 8703   4.251   3.980   0.328
 2899SOL    HW1 8704   4.278   3.921   0.253
 2899SOL    HW2 8705   4.251   4.075   0.297
 2900SOL     OW 8706   4.134   4.537   1.251
 2900SOL    HW1 8707   4.220   4.549   1.301
 2900SOL    HW2 8708   4.092   4.450   1.278
 2901SOL     OW 8709   4.290   4.261   0.865
 2901SOL    HW1 8710   4.302   4.327   0.791
 2901SOL    HW2 8711   4.336   4.295   0.948
 2902SOL     OW 8712   4.228   3.774   1.740
 2902SOL    HW1 8713   4.186   3.717   1.670
 2902SOL    HW2 8714   4.162   3.843   1.772
 2903SOL     OW 8715   4.031   3.937   1.231
 2903SOL    HW1 8716   4.008   3.974   1.321
 2903SOL    HW2 8717   4.001   3.842   1.225
 2904SOL     OW 8718   4.031   3.787   0.618
 2904SOL    HW1 8719   4.020   3.881   0.651
 2904SOL    HW2 8720   4.026   3.724   0.695
 2905SOL     OW 8721   4.043   4.534   0.949
 2905SOL    HW1 8722   4.136   4.570   0.954
 2905SOL    HW2 8723   4.037   4.449   1.001
 2906SOL     OW 8724   4.063   4.233   1.006
 2906SOL    HW1 8725   4.011   4.150   0.989
 2906SOL    HW2 8726   4.140   4.238   0.942
 2907SOL     OW 8727   3.764   4.268   1.114
 2907SOL    HW1 8728   3.849   4.235   1.073
 2907SOL    HW2 8729   3.777   4.283   1.212
 2908SOL     OW 8730   3.913   4.244   1.722
 2908SOL    HW1 8731   3.972   4.204   1.652
 2908SOL    HW2 8732   3.855   4.315   1.681
 2909SOL     OW 8733   4.539   4.296   0.325
 2909SOL    HW1 8734   4.546   4.207   0.279
 2909SOL    HW2 8735   4.445   4.330   0.317
 2910SOL     OW 8736   4.197   4.224   0.191
 2910SOL    HW1 8737   4.258   4.304   0.195
 2910SOL    HW2 8738   4.102   4.255   0.198
 2911SOL     OW 8739   3.987   4.050   0.720
 2911SOL    HW1 8740   3.908   4.101   0.686
 2911SOL    HW2 8741   3.978   4.035   0.818
 2912SOL     OW 8742   4.396   3.927   1.489
 2912SOL    HW1 8743   4.486   3.911   1.449
 2912SOL    HW2 8744   4.404   3.932   1.588
 2913SOL     OW 8745   3.799   4.069   0.033
 2913SOL    HW1 8746   3.707   4.041   0.004
 2913SOL    HW2 8747   3.830   4.146  -0.023
 2914SOL     OW 8748   4.440   4.289   1.708
 2914SOL    HW1 8749   4.459   4.354   1.782
 2914SOL    HW2 8750   4.500   4.209   1.717
 2915SOL     OW 8751   4.152   4.148   0.520
 2915SOL    HW1 8752   4.182   4.076   0.458
 2915SOL    HW2 8753   4.113   4.108   0.603
 2916SOL     OW 8754   4.041   4.271   1.280
 2916SOL    HW1 8755   4.079   4.212   1.352
 2916SOL    HW2 8756   4.081   4.245   1.192
 2917SOL     OW 8757   3.954   4.352   1.975
 2917SOL    HW1 8758   3.861   4.350   2.012
 2917SOL    HW2 8759   3.955   4.313   1.883
 2918SOL     OW 8760   3.949   3.999   2.858
 2918SOL    HW1 8761   3.984   3.982   2.950
 2918SOL    HW2 8762   3.861   3.954   2.846
 2919SOL     OW 8763   3.743   4.092   2.509
 2919SOL    HW1 8764   3.661   4.135   2.548
 2919SOL    HW2 8765   3.715   4.019   2.446
 2920SOL     OW 8766   4.574   4.522   3.685
 2920SOL    HW1 8767   4.570   4.598   3.750
 2920SOL    HW2 8768   4.596   4.558   3.594
 2921SOL     OW 8769   4.162   4.116   3.361
 2921SOL    HW1 8770   4.244   4.060   3.370
 2921SOL    HW2 8771   4.081   4.058   3.365
 2922SOL     OW 8772   3.846   4.367   2.425
 2922SOL    HW1 8773   3.801   4.279   2.442
 2922SOL    HW2 8774   3.845   4.421   2.509
 2923SOL     OW 8775   3.837   4.461   3.459
 2923SOL    HW1 8776   3.925   4.448   3.504
 2923SOL    HW2 8777   3.824   4.558   3.437
 2924SOL     OW 8778   4.533   3.728   2.364
 2924SOL    HW1 8779   4.573   3.819   2.355
 2924SOL    HW2 8780   4.433   3.736   2.370
 2925SOL     OW 8781   4.041   3.975   3.663
 2925SOL    HW1 8782   4.112   4.046   3.669
 2925SOL    HW2 8783   3.953   4.014   3.691
 2926SOL     OW 8784   4.274   3.920   2.747
 2926SOL    HW1 8785   4.269   3.915   2.847
 2926SOL    HW2 8786   4.276   4.016   2.718
 2927SOL     OW 8787   3.926   4.009   3.360
 2927SOL    HW1 8788   3.846   4.069   3.347
 2927SOL    HW2 8789   3.916   3.960   3.446
 2928SOL     OW 8790   4.106   4.424   2.342
 2928SOL    HW1 8791   4.151   4.334   2.339
 2928SOL    HW2 8792   4.012   4.413   2.375
 2929SOL     OW 8793   4.338   3.846   1.979
 2929SOL    HW1 8794   4.436   3.824   1.986
 2929SOL    HW2 8795   4.307   3.829   1.886
 2930SOL     OW 8796   4.263   3.788   2.374
 2930SOL    HW1 8797   4.182   3.789   2.432
 2930SOL    HW2 8798   4.266   3.871   2.319
 2931SOL     OW 8799   4.021   3.759   2.033
 2931SOL    HW1 8800   4.070   3.843   2.012
 2931SOL    HW2 8801   4.083   3.694   2.078
 2932SOL     OW 8802   4.800   4.407   3.326
 2932SOL    HW1 8803   4.720   4.346   3.329
 2932SOL    HW2 8804   4.881   4.354   3.302
 2933SOL     OW 8805   3.802   4.280   3.248
 2933SOL    HW1 8806   3.894   4.279   3.207
 2933SOL    HW2 8807   3.796   4.354   3.315
 2934SOL     OW 8808   4.285   3.946   3.009
 2934SOL    HW1 8809   4.323   3.862   3.046
 2934SOL    HW2 8810   4.197   3.965   3.053
 2935SOL     OW 8811   4.251   3.980   2.190
 2935SOL    HW1 8812   4.278   3.921   2.115
 2935SOL    HW2 8813   4.251   4.075   2.159
 2936SOL     OW 8814   4.134   4.537   3.113
 2936SOL    HW1 8815   4.220   4.549   3.163
 2936SOL    HW2 8816   4.092   4.450   3.140
 2937SOL     OW 8817   4.290   4.261   2.727
 2937SOL    HW1 8818   4.302   4.327   2.653
 2937SOL    HW2 8819   4.336   4.295   2.810
 2938SOL     OW 8820   4.228   3.774   3.602
 2938SOL    HW1 8821   4.186   3.717   3.532
 2938SOL    HW2 8822   4.162   3.843   3.634
 2939SOL     OW 8823   4.031   3.937   3.093
 2939SOL    HW1 8824   4.008   3.974   3.183
 2939SOL    HW2 8825   4.001   3.842   3.087
 2940SOL     OW 8826   4.031   3.787   2.480
 2940SOL    HW1 8827   4.020   3.881   2.513
 2940SOL    HW2 8828   4.026   3.724   2.557
 2941SOL     OW 8829   4.043   4.534   2.811
 2941SOL    HW1 8830   4.136   4.570   2.816
 2941SOL    HW2 8831   4.037   4.449   2.863
 2942SOL     OW 8832   4.063   4.233   2.868
 2942SOL    HW1 8833   4.011   4.150   2.851
 2942SOL    HW2 8834   4.140   4.238   2.804
 2943SOL     OW 8835   3.764   4.268   2.976
 2943SOL    HW1 8836   3.849   4.235   2.935
 2943SOL    HW2 8837   3.777   4.283   3.074
 2944SOL     OW 8838   3.913   4.244   3.584
 2944SOL    HW1 8839   3.972   4.204   3.514
 2944SOL    HW2 8840   3.855   4.315   3.543
 2945SOL     OW 8841   4.539   4.296   2.187
 2945SOL    HW1 8842   4.546   4.207   2.141
 2945SOL    HW2 8843   4.445   4.330   2.179
 2946SOL     OW 8844   4.197   4.224   2.053
 2946SOL    HW1 8845   4.258   4.304   2.057
 2946SOL    HW2 8846   4.102   4.255   2.060
 2947SOL     OW 8847   3.987   4.050   2.582
 2947SOL    HW1 8848   3.908   4.101   2.548
 2947SOL    HW2 8849   3.978   4.035   2.680
 2948SOL     OW 8850   4.396   3.927   3.351
 2948SOL    HW1 8851   4.486   3.911   3.311
 2948SOL    HW2 8852   4.404   3.932   3.450
 2949SOL     OW 8853   3.799   4.069   1.895
 2949SOL    HW1 8854   3.707   4.041   1.866
 2949SOL    HW2 8855   3.830   4.146   1.839
 2950SOL     OW 8856   3.796   3.890   2.180
 2950SOL    HW1 8857   3.779   3.973   2.126
 2950SOL    HW2 8858   3.886   3.853   2.158
 2951SOL     OW 8859   4.440   4.289   3.570
 2951SOL    HW1 8860   4.459   4.354   3.644
 2951SOL    HW2 8861   4.500   4.209   3.579
 2952SOL     OW 8862   4.152   4.148   2.382
 2952SOL    HW1 8863   4.182   4.076   2.320
 2952SOL    HW2 8864   4.113   4.108   2.465
 2953SOL     OW 8865   4.041   4.271   3.142
 2953SOL    HW1 8866   4.079   4.212   3.214
 2953SOL    HW2 8867   4.081   4.245   3.054
 2954SOL     OW 8868   3.954   4.352   3.837
 2954SOL    HW1 8869   3.861   4.350   3.874
 2954SOL    HW2 8870   3.955   4.313   3.745
 2955SOL     OW 8871   3.949   3.999   4.720
 2955SOL    HW1 8872   3.984   3.982   4.812
 2955SOL    HW2 8873   3.861   3.954   4.708
 2956SOL     OW 8874   3.846   4.367   4.287
 2956SOL    HW1 8875   3.801   4.279   4.304
 2956SOL    HW2 8876   3.845   4.421   4.371
 2957SOL     OW 8877   4.533   3.728   4.226
 2957SOL    HW1 8878   4.573   3.819   4.217
 2957SOL    HW2 8879   4.433   3.736   4.232
 2958SOL     OW 8880   4.106   4.424   4.204
 2958SOL    HW1 8881   4.151   4.334   4.201
 2958SOL    HW2 8882   4.012   4.413   4.237
 2959SOL     OW 8883   4.338   3.846   3.841
 2959SOL    HW1 8884   4.436   3.824   3.848
 2959SOL    HW2 8885   4.307   3.829   3.748
 2960SOL     OW 8886   4.263   3.788   4.236
 2960SOL    HW1 8887   4.182   3.789   4.294
 2960SOL    HW2 8888   4.266   3.871   4.181
 2961SOL     OW 8889   4.021   3.759   3.895
 2961SOL    HW1 8890   4.070   3.843   3.874
 2961SOL    HW2 8891   4.083   3.694   3.940
 2962SOL     OW 8892   4.251   3.980   4.052
 2962SOL    HW1 8893   4.278   3.921   3.977
 2962SOL    HW2 8894   4.251   4.075   4.021
 2963SOL     OW 8895   4.031   3.787   4.342
 2963SOL    HW1 8896   4.020   3.881   4.375
 2963SOL    HW2 8897   4.026   3.724   4.419
 2964SOL     OW 8898   4.539   4.296   4.049
 2964SOL    HW1 8899   4.546   4.207   4.003
 2964SOL    HW2 8900   4.445   4.330   4.041
 2965SOL     OW 8901   4.197   4.224   3.915
 2965SOL    HW1 8902   4.258   4.304   3.919
 2965SOL    HW2 8903   4.102   4.255   3.922
 2966SOL     OW 8904   3.799   4.069   3.757
 2966SOL    HW1 8905   3.707   4.041   3.728
 2966SOL    HW2 8906   3.830   4.146   3.701
 2967SOL     OW 8907   3.796   3.890   4.042
 2967SOL    HW1 8908   3.779   3.973   3.988
 2967SOL    HW2 8909   3.886   3.853   4.020
 2968SOL     OW 8910   4.152   4.148   4.244
 2968SOL    HW1 8911   4.182   4.076   4.182
 2968SOL    HW2 8912   4.113   4.108   4.327
   4.49982   4.49982   4.49982
