; mobley_8861672_GMX.top created by acpype (v: 2023.10.27) on Wed May 20 23:44:25 2026

[ defaults ]
; nbfunc        comb-rule       gen-pairs       fudgeLJ fudgeQQ
1               2               yes             0.5     0.8333333333

; Include mobley_8861672_GMX.itp topology
#include "mobley_8861672_GMX.itp"

; Ligand position restraints
#ifdef POSRES_LIG
#include "posre_mobley_8861672.itp"
#endif

[ system ]
mobley_8861672 in water

[ molecules ]
; Compound        nmols
 mobley_8861672   1     
SOL              3248
