; mobley_8861672_GMX_OPLS.itp created by acpype (v: 2023.10.27) on Wed May 20 23:44:25 2026

; For OPLS atomtypes manual fine tuning
; AC_at:OPLS_at:OPLScode: Possible_Alternatives (see ffoplsaa.atp and ffoplsaanb.itp)
; ca:CA:opls_145: ['166', '501', '502']
; c3:CT:opls_135: ['136', '137', '149', '157', '158', '206', '209', '210', '223B', '224B', '245', '246', '274', '283', '284', '285', '292', '292B', '293B', '296', '307', '308', '505']
; nb:x:opls_x: []
; ha:HA:opls_146: []
; h4:HA:opls_146: []
; hc:HC:opls_140: []

[ moleculetype ]
;name            nrexcl
 mobley_8861672   3

[ atoms ]
;   nr  type  resi  res  atom  cgnr     charge      mass       ; qtot   bond_type
     1 opls_145     1   MOL    C1    1    -0.255300     12.01100 ; qtot -0.255  CA  
     2 opls_145     1   MOL    C2    2    -0.251300     12.01100 ; qtot -0.507  CA  
     3 opls_145     1   MOL    C3    3     0.403200     12.01100 ; qtot -0.103  CA  
     4 opls_145     1   MOL    C4    4    -0.035300     12.01100 ; qtot -0.139  CA  
     5 opls_145     1   MOL    C5    5     0.414600     12.01100 ; qtot  0.276  CA  
     6 opls_135     1   MOL    C6    6    -0.060800     12.01100 ; qtot  0.215  CT  
     7 opls_135     1   MOL    C7    7    -0.148400     12.01100 ; qtot  0.067  CT  
     8 opls_x     1   MOL    N1    8    -0.674000      0.00000 ; qtot -0.607  x   
     9 opls_146     1   MOL    H1    9     0.142000      1.00800 ; qtot -0.465  HA  
    10 opls_146     1   MOL    H2   10     0.141000      1.00800 ; qtot -0.324  HA  
    11 opls_146     1   MOL    H3   11     0.020100      1.00800 ; qtot -0.304  HA  
    12 opls_140     1   MOL    H4   12     0.049033      1.00800 ; qtot -0.255  HC  
    13 opls_140     1   MOL    H5   13     0.049033      1.00800 ; qtot -0.206  HC  
    14 opls_140     1   MOL    H6   14     0.049033      1.00800 ; qtot -0.157  HC  
    15 opls_140     1   MOL    H7   15     0.052367      1.00800 ; qtot -0.105  HC  
    16 opls_140     1   MOL    H8   16     0.052367      1.00800 ; qtot -0.052  HC  
    17 opls_140     1   MOL    H9   17     0.052367      1.00800 ; qtot  0.000  HC  

[ bonds ]
;   ai     aj funct   r             k
     1      3   1 ;    1.3986e-01    2.9644e+05 ;     C1 - C3         CA - CA    
     1      4   1 ;    1.3986e-01    2.9644e+05 ;     C1 - C4         CA - CA    
     1      9   1 ;    1.0860e-01    3.0183e+05 ;     C1 - H1         CA - HA    
     2      4   1 ;    1.3986e-01    2.9644e+05 ;     C2 - C4         CA - CA    
     2      5   1 ;    1.3986e-01    2.9644e+05 ;     C2 - C5         CA - CA    
     2     10   1 ;    1.0860e-01    3.0183e+05 ;     C2 - H2         CA - HA    
     3      8   1 ;    1.3392e-01    3.2341e+05 ;     C3 - N1         CA - x     
     3     11   1 ;    1.0885e-01    2.9859e+05 ;     C3 - H3         CA - HA    
     4      6   1 ;    1.5147e-01    2.0410e+05 ;     C4 - C6         CA - CT    
     5      7   1 ;    1.5147e-01    2.0410e+05 ;     C5 - C7         CA - CT    
     5      8   1 ;    1.3392e-01    3.2341e+05 ;     C5 - N1         CA - x     
     6     12   1 ;    1.0962e-01    2.8891e+05 ;     C6 - H4         CT - HC    
     6     13   1 ;    1.0962e-01    2.8891e+05 ;     C6 - H5         CT - HC    
     6     14   1 ;    1.0962e-01    2.8891e+05 ;     C6 - H6         CT - HC    
     7     15   1 ;    1.0962e-01    2.8891e+05 ;     C7 - H7         CT - HC    
     7     16   1 ;    1.0962e-01    2.8891e+05 ;     C7 - H8         CT - HC    
     7     17   1 ;    1.0962e-01    2.8891e+05 ;     C7 - H9         CT - HC    

[ pairs ]
;   ai     aj    funct
     1      5      1 ;     C1 - C5    
     1     10      1 ;     C1 - H2    
     1     12      1 ;     C1 - H4    
     1     13      1 ;     C1 - H5    
     1     14      1 ;     C1 - H6    
     2     12      1 ;     C2 - H4    
     2     13      1 ;     C2 - H5    
     2     14      1 ;     C2 - H6    
     2     15      1 ;     C2 - H7    
     2     16      1 ;     C2 - H8    
     2     17      1 ;     C2 - H9    
     3      2      1 ;     C3 - C2    
     3      6      1 ;     C3 - C6    
     3      7      1 ;     C3 - C7    
     4      7      1 ;     C4 - C7    
     4      8      1 ;     C4 - N1    
     4     11      1 ;     C4 - H3    
     5      6      1 ;     C5 - C6    
     5     11      1 ;     C5 - H3    
     6     10      1 ;     C6 - H2    
     7     10      1 ;     C7 - H2    
     8     10      1 ;     N1 - H2    
     8     15      1 ;     N1 - H7    
     8     16      1 ;     N1 - H8    
     8     17      1 ;     N1 - H9    
     9      2      1 ;     H1 - C2    
     9      6      1 ;     H1 - C6    
     9      8      1 ;     H1 - N1    
     9     11      1 ;     H1 - H3    

[ angles ]
;   ai     aj     ak    funct   theta         cth
     1      3      8      1 ;    1.2294e+02    5.7045e+02 ;     C1 - C3   - N1       CA -   CA - x   
     1      3     11      1 ;    1.2032e+02    3.7489e+02 ;     C1 - C3   - H3       CA -   CA - HA  
     1      4      2      1 ;    1.2002e+02    5.3279e+02 ;     C1 - C4   - C2       CA -   CA - CA  
     1      4      6      1 ;    1.2083e+02    5.0827e+02 ;     C1 - C4   - C6       CA -   CA - CT  
     2      4      6      1 ;    1.2083e+02    5.0827e+02 ;     C2 - C4   - C6       CA -   CA - CT  
     2      5      7      1 ;    1.2083e+02    5.0827e+02 ;     C2 - C5   - C7       CA -   CA - CT  
     2      5      8      1 ;    1.2294e+02    5.7045e+02 ;     C2 - C5   - N1       CA -   CA - x   
     3      1      4      1 ;    1.2002e+02    5.3279e+02 ;     C3 - C1   - C4       CA -   CA - CA  
     3      1      9      1 ;    1.1988e+02    3.7572e+02 ;     C3 - C1   - H1       CA -   CA - HA  
     3      8      5      1 ;    1.1724e+02    6.9580e+02 ;     C3 - N1   - C5       CA -    x - CA  
     4      1      9      1 ;    1.1988e+02    3.7572e+02 ;     C4 - C1   - H1       CA -   CA - HA  
     4      2      5      1 ;    1.2002e+02    5.3279e+02 ;     C4 - C2   - C5       CA -   CA - CA  
     4      2     10      1 ;    1.1988e+02    3.7572e+02 ;     C4 - C2   - H2       CA -   CA - HA  
     4      6     12      1 ;    1.1063e+02    3.6493e+02 ;     C4 - C6   - H4       CA -   CT - HC  
     4      6     13      1 ;    1.1063e+02    3.6493e+02 ;     C4 - C6   - H5       CA -   CT - HC  
     4      6     14      1 ;    1.1063e+02    3.6493e+02 ;     C4 - C6   - H6       CA -   CT - HC  
     5      2     10      1 ;    1.1988e+02    3.7572e+02 ;     C5 - C2   - H2       CA -   CA - HA  
     5      7     15      1 ;    1.1063e+02    3.6493e+02 ;     C5 - C7   - H7       CA -   CT - HC  
     5      7     16      1 ;    1.1063e+02    3.6493e+02 ;     C5 - C7   - H8       CA -   CT - HC  
     5      7     17      1 ;    1.1063e+02    3.6493e+02 ;     C5 - C7   - H9       CA -   CT - HC  
     7      5      8      1 ;    1.1664e+02    5.5815e+02 ;     C7 - C5   - N1       CT -   CA - x   
     8      3     11      1 ;    1.1602e+02    4.1924e+02 ;     N1 - C3   - H3        x -   CA - HA  
    12      6     13      1 ;    1.0773e+02    2.9957e+02 ;     H4 - C6   - H5       HC -   CT - HC  
    12      6     14      1 ;    1.0773e+02    2.9957e+02 ;     H4 - C6   - H6       HC -   CT - HC  
    13      6     14      1 ;    1.0773e+02    2.9957e+02 ;     H5 - C6   - H6       HC -   CT - HC  
    15      7     16      1 ;    1.0773e+02    2.9957e+02 ;     H7 - C7   - H8       HC -   CT - HC  
    15      7     17      1 ;    1.0773e+02    2.9957e+02 ;     H7 - C7   - H9       HC -   CT - HC  
    16      7     17      1 ;    1.0773e+02    2.9957e+02 ;     H8 - C7   - H9       HC -   CT - HC  

[ dihedrals ] ; propers
; for gromacs 4.5 or higher, using funct 9
;    i      j      k      l   func   phase     kd      pn
     1      3      8      5      9 ;   180.00  20.08320   2 ;     C1-    C3-    N1-    C5
     1      4      2      5      9 ;   180.00  15.16700   2 ;     C1-    C4-    C2-    C5
     1      4      2     10      9 ;   180.00  15.16700   2 ;     C1-    C4-    C2-    H2
     1      4      6     12      9 ;     0.00   0.00000   0 ;     C1-    C4-    C6-    H4
     1      4      6     13      9 ;     0.00   0.00000   0 ;     C1-    C4-    C6-    H5
     1      4      6     14      9 ;     0.00   0.00000   0 ;     C1-    C4-    C6-    H6
     2      4      6     12      9 ;     0.00   0.00000   0 ;     C2-    C4-    C6-    H4
     2      4      6     13      9 ;     0.00   0.00000   0 ;     C2-    C4-    C6-    H5
     2      4      6     14      9 ;     0.00   0.00000   0 ;     C2-    C4-    C6-    H6
     2      5      7     15      9 ;     0.00   0.00000   0 ;     C2-    C5-    C7-    H7
     2      5      7     16      9 ;     0.00   0.00000   0 ;     C2-    C5-    C7-    H8
     2      5      7     17      9 ;     0.00   0.00000   0 ;     C2-    C5-    C7-    H9
     2      5      8      3      9 ;   180.00  20.08320   2 ;     C2-    C5-    N1-    C3
     3      1      4      2      9 ;   180.00  15.16700   2 ;     C3-    C1-    C4-    C2
     3      1      4      6      9 ;   180.00  15.16700   2 ;     C3-    C1-    C4-    C6
     3      8      5      7      9 ;   180.00  20.08320   2 ;     C3-    N1-    C5-    C7
     4      1      3      8      9 ;   180.00  15.16700   2 ;     C4-    C1-    C3-    N1
     4      1      3     11      9 ;   180.00  15.16700   2 ;     C4-    C1-    C3-    H3
     4      2      5      7      9 ;   180.00  15.16700   2 ;     C4-    C2-    C5-    C7
     4      2      5      8      9 ;   180.00  15.16700   2 ;     C4-    C2-    C5-    N1
     5      2      4      6      9 ;   180.00  15.16700   2 ;     C5-    C2-    C4-    C6
     5      8      3     11      9 ;   180.00  20.08320   2 ;     C5-    N1-    C3-    H3
     6      4      2     10      9 ;   180.00  15.16700   2 ;     C6-    C4-    C2-    H2
     7      5      2     10      9 ;   180.00  15.16700   2 ;     C7-    C5-    C2-    H2
     8      5      2     10      9 ;   180.00  15.16700   2 ;     N1-    C5-    C2-    H2
     8      5      7     15      9 ;     0.00   0.00000   0 ;     N1-    C5-    C7-    H7
     8      5      7     16      9 ;     0.00   0.00000   0 ;     N1-    C5-    C7-    H8
     8      5      7     17      9 ;     0.00   0.00000   0 ;     N1-    C5-    C7-    H9
     9      1      3      8      9 ;   180.00  15.16700   2 ;     H1-    C1-    C3-    N1
     9      1      3     11      9 ;   180.00  15.16700   2 ;     H1-    C1-    C3-    H3
     9      1      4      2      9 ;   180.00  15.16700   2 ;     H1-    C1-    C4-    C2
     9      1      4      6      9 ;   180.00  15.16700   2 ;     H1-    C1-    C4-    C6

[ dihedrals ] ; impropers
; treated as propers in GROMACS to use correct AMBER analytical function
;    i      j      k      l   func   phase     kd      pn
     1      2      4      6      4 ;   180.00   4.60240   2 ;     C1-    C2-    C4-    C6
     1     11      3      8      4 ;   180.00   4.60240   2 ;     C1-    H3-    C3-    N1
     4      5      2     10      4 ;   180.00   4.60240   2 ;     C4-    C5-    C2-    H2
     7      2      5      8      4 ;   180.00   4.60240   2 ;     C7-    C2-    C5-    N1
     9      1      4      3      4 ;   180.00   4.60240   2 ;     H1-    C1-    C4-    C3
