%VERSION  VERSION_STAMP = V0001.000  DATE = 05/20/26  23:44:31                  
%FLAG TITLE                                                                     
%FORMAT(20a4)                                                                   
24_dimethylpyridine                                                             
%FLAG POINTERS                                                                  
%FORMAT(10I8)                                                                   
      17       6       9       8      18      10      25      12       0       0
      78       1       8      10      12       6      10       5       6       0
       0       0       0       0       0       0       0       0      17       0
       0
%FLAG ATOM_NAME                                                                 
%FORMAT(20a4)                                                                   
C1  C2  C3  C4  C5  C6  C7  N1  H1  H2  H3  H4  H5  H6  H7  H8  H9  
%FLAG CHARGE                                                                    
%FORMAT(5E16.8)                                                                 
 -4.65215319E+00 -4.57926399E+00  7.34723136E+00 -6.43247190E-01  7.55496558E+00
 -1.10791584E+00 -2.70418932E+00 -1.22636079E+01  2.58756660E+00  2.56934430E+00
  3.66268230E-01  8.93494036E-01  8.93494036E-01  8.93494036E-01  9.54247184E-01
  9.54247184E-01  9.54247184E-01
%FLAG ATOMIC_NUMBER                                                             
%FORMAT(10I8)                                                                   
       6       6       6       6       6       6       6       7       1       1
       1       1       1       1       1       1       1
%FLAG MASS                                                                      
%FORMAT(5E16.8)                                                                 
  1.20100000E+01  1.20100000E+01  1.20100000E+01  1.20100000E+01  1.20100000E+01
  1.20100000E+01  1.20100000E+01  1.40100000E+01  1.00800000E+00  1.00800000E+00
  1.00800000E+00  1.00800000E+00  1.00800000E+00  1.00800000E+00  1.00800000E+00
  1.00800000E+00  1.00800000E+00
%FLAG ATOM_TYPE_INDEX                                                           
%FORMAT(10I8)                                                                   
       1       1       1       1       1       2       2       3       4       4
       5       6       6       6       6       6       6
%FLAG NUMBER_EXCLUDED_ATOMS                                                     
%FORMAT(10I8)                                                                   
      12      14       7      10       8       5       5       6       1       1
       1       2       1       1       2       1       1
%FLAG NONBONDED_PARM_INDEX                                                      
%FORMAT(10I8)                                                                   
       1       2       4       7      11      16       2       3       5       8
      12      17       4       5       6       9      13      18       7       8
       9      10      14      19      11      12      13      14      15      20
      16      17      18      19      20      21
%FLAG RESIDUE_LABEL                                                             
%FORMAT(20a4)                                                                   
MOL 
%FLAG RESIDUE_POINTER                                                           
%FORMAT(10I8)                                                                   
       1
%FLAG BOND_FORCE_CONSTANT                                                       
%FORMAT(5E16.8)                                                                 
  3.54250000E+02  3.60690000E+02  3.86490000E+02  3.56820000E+02  2.43910000E+02
  3.45250000E+02
%FLAG BOND_EQUIL_VALUE                                                          
%FORMAT(5E16.8)                                                                 
  1.39860000E+00  1.08600000E+00  1.33920000E+00  1.08850000E+00  1.51470000E+00
  1.09620000E+00
%FLAG ANGLE_FORCE_CONSTANT                                                      
%FORMAT(5E16.8)                                                                 
  6.81700000E+01  4.48000000E+01  6.36700000E+01  6.07400000E+01  4.49000000E+01
  8.31500000E+01  4.36100000E+01  6.67000000E+01  5.01000000E+01  3.58000000E+01
%FLAG ANGLE_EQUIL_VALUE                                                         
%FORMAT(5E16.8)                                                                 
  2.14570870E+00  2.09998106E+00  2.09474507E+00  2.10888224E+00  2.09230160E+00
  2.04622489E+00  1.93085858E+00  2.03575291E+00  2.02493187E+00  1.88024401E+00
%FLAG DIHEDRAL_FORCE_CONSTANT                                                   
%FORMAT(5E16.8)                                                                 
  4.80000000E+00  3.62500000E+00  0.00000000E+00  0.00000000E+00  1.10000000E+00
%FLAG DIHEDRAL_PERIODICITY                                                      
%FORMAT(5E16.8)                                                                 
  2.00000000E+00  2.00000000E+00  1.00000000E+00  2.00000000E+00  2.00000000E+00
%FLAG DIHEDRAL_PHASE                                                            
%FORMAT(5E16.8)                                                                 
  3.14159400E+00  3.14159400E+00  0.00000000E+00  0.00000000E+00  3.14159400E+00
%FLAG SCEE_SCALE_FACTOR                                                         
%FORMAT(5E16.8)                                                                 
  1.20000000E+00  1.20000000E+00  1.20000000E+00  1.20000000E+00  0.00000000E+00
%FLAG SCNB_SCALE_FACTOR                                                         
%FORMAT(5E16.8)                                                                 
  2.00000000E+00  2.00000000E+00  2.00000000E+00  2.00000000E+00  0.00000000E+00
%FLAG SOLTY                                                                     
%FORMAT(5E16.8)                                                                 
  0.00000000E+00  0.00000000E+00  0.00000000E+00  0.00000000E+00  0.00000000E+00
  0.00000000E+00
%FLAG LENNARD_JONES_ACOEF                                                       
%FORMAT(5E16.8)                                                                 
  6.96551276E+05  8.43969952E+05  1.02073671E+06  7.69642101E+05  9.31115275E+05
  8.49322032E+05  7.52549148E+04  9.27554496E+04  8.43518904E+04  6.90855956E+03
  6.27751680E+04  7.75673747E+04  7.05112106E+04  5.62610481E+03  4.56536476E+03
  8.12662403E+04  1.00235148E+05  9.11435380E+04  7.41026906E+03  6.02863188E+03
  7.94617769E+03
%FLAG LENNARD_JONES_BCOEF                                                       
%FORMAT(5E16.8)                                                                 
  5.24668528E+02  5.90251928E+02  6.63431737E+02  5.44830041E+02  6.12468585E+02
  5.65406768E+02  1.09570372E+02  1.24325688E+02  1.14599119E+02  2.10929191E+01
  1.00073628E+02  1.13692208E+02  1.04776275E+02  1.90347353E+01  1.71467049E+01
  1.21392023E+02  1.37787728E+02  1.27000718E+02  2.32899892E+01  2.10068861E+01
  2.57122925E+01
%FLAG BONDS_INC_HYDROGEN                                                        
%FORMAT(10I8)                                                                   
       0      24       2       3      27       2       6      30       4      15
      33       6      15      36       6      15      39       6      18      42
       6      18      45       6      18      48       6
%FLAG BONDS_WITHOUT_HYDROGEN                                                    
%FORMAT(10I8)                                                                   
       0       6       1       0       9       1       3       9       1       3
      12       1       6      21       3       9      15       5      12      18
       5      12      21       3
%FLAG ANGLES_INC_HYDROGEN                                                       
%FORMAT(10I8)                                                                   
       0       6      30       2       6       0      24       5       9       0
      24       5       9       3      27       5       9      15      33       7
       9      15      36       7       9      15      39       7      12       3
      27       5      12      18      42       7      12      18      45       7
      12      18      48       7      21       6      30       9      33      15
      36      10      33      15      39      10      36      15      39      10
      42      18      45      10      42      18      48      10      45      18
      48      10
%FLAG ANGLES_WITHOUT_HYDROGEN                                                   
%FORMAT(10I8)                                                                   
       0       6      21       1       0       9       3       3       0       9
      15       4       3       9      15       4       3      12      18       4
       3      12      21       1       6       0       9       3       6      21
      12       6       9       3      12       3      18      12      21       8
%FLAG DIHEDRALS_INC_HYDROGEN                                                    
%FORMAT(10I8)                                                                   
       0       9       3      27       2       0       9      15      33       3
       0       9      15      36       3       0       9      15      39       3
      24       0       9       3       2       3       9      15      33       3
       3       9      15      36       3       3       9      15      39       3
       3      12      18      42       3       3      12      18      45       3
       3      12      18      48       3       9       0       6      30       2
      12      21       6      30       1      24       0       9      15       2
      15       9       3      27       2      18      12       3      27       2
      24       0       6      21       2      21      12       3      27       2
      21      12      18      42       4      21      12      18      45       4
      21      12      18      48       4      24       0       6      30       2
      24       0      -9      -6       5       9      12      -3     -27       5
       0      30      -6     -21       5
%FLAG DIHEDRALS_WITHOUT_HYDROGEN                                                
%FORMAT(10I8)                                                                   
       0       6      21      12       1       0       9      -3      12       2
       6       0       9       3       2       3      12     -21       6       1
       6       0       9      15       2       6      21      12      18       1
       9       0       6      21       2       9       3      12      18       2
       9       3     -12      21       2      12       3       9      15       2
       0       3      -9     -15       5      18       3     -12     -21       5
%FLAG EXCLUDED_ATOMS_LIST                                                       
%FORMAT(10I8)                                                                   
       2       3       4       5       6       8       9      10      11      12
      13      14       3       4       5       6       7       8       9      10
      12      13      14      15      16      17       4       5       6       7
       8       9      11       5       6       7       8       9      10      11
      12      13      14       6       7       8      10      11      15      16
      17       9      10      12      13      14       8      10      15      16
      17       9      10      11      15      16      17      11       0       0
      13      14      14       0      16      17      17       0
%FLAG HBOND_ACOEF                                                               
%FORMAT(5E16.8)                                                                 

%FLAG HBOND_BCOEF                                                               
%FORMAT(5E16.8)                                                                 

%FLAG HBCUT                                                                     
%FORMAT(5E16.8)                                                                 

%FLAG AMBER_ATOM_TYPE                                                           
%FORMAT(20a4)                                                                   
ca  ca  ca  ca  ca  c3  c3  nb  ha  ha  h4  hc  hc  hc  hc  hc  hc  
%FLAG TREE_CHAIN_CLASSIFICATION                                                 
%FORMAT(20a4)                                                                   
BLA BLA BLA BLA BLA BLA BLA BLA BLA BLA BLA BLA BLA BLA BLA BLA BLA 
%FLAG JOIN_ARRAY                                                                
%FORMAT(10I8)                                                                   
       0       0       0       0       0       0       0       0       0       0
       0       0       0       0       0       0       0
%FLAG IROTAT                                                                    
%FORMAT(10I8)                                                                   
       0       0       0       0       0       0       0       0       0       0
       0       0       0       0       0       0       0
%FLAG RADIUS_SET                                                                
%FORMAT(1a80)                                                                   
modified Bondi radii (mbondi)                                                   
%FLAG RADII                                                                     
%FORMAT(5E16.8)                                                                 
  1.70000000E+00  1.70000000E+00  1.70000000E+00  1.70000000E+00  1.70000000E+00
  1.70000000E+00  1.70000000E+00  1.55000000E+00  1.30000000E+00  1.30000000E+00
  1.30000000E+00  1.30000000E+00  1.30000000E+00  1.30000000E+00  1.30000000E+00
  1.30000000E+00  1.30000000E+00
%FLAG SCREEN                                                                    
%FORMAT(5E16.8)                                                                 
  7.20000000E-01  7.20000000E-01  7.20000000E-01  7.20000000E-01  7.20000000E-01
  7.20000000E-01  7.20000000E-01  7.90000000E-01  8.50000000E-01  8.50000000E-01
  8.50000000E-01  8.50000000E-01  8.50000000E-01  8.50000000E-01  8.50000000E-01
  8.50000000E-01  8.50000000E-01
%FLAG IPOL                                                                      
%FORMAT(1I8)                                                                    
       0
