24_dimethylpyridine
    17
   0.1830000  -0.3460000   1.0110000   1.5260000  -0.4070000   3.0050000
  -0.7040000  -1.2000000   1.6470000   1.3170000   0.0530000   1.7100000
   0.5790000  -1.2580000   3.5520000   2.3040000   0.9710000   1.0720000
   0.7710000  -1.7700000   4.9400000  -0.5340000  -1.6670000   2.9040000
  -0.0080000  -0.0050000  -0.0010000   2.4040000  -0.1080000   3.5690000
  -1.6030000  -1.5400000   1.1450000   3.3260000   0.6050000   1.2330000
   2.1310000   1.0550000  -0.0090000   2.2300000   1.9860000   1.4850000
   1.5740000  -1.2180000   5.4430000  -0.1470000  -1.6670000   5.5330000
   1.0300000  -2.8370000   4.9380000
