mobley_8861672_GMX.gro created by acpype (v: 2023.10.27) on Wed May 20 23:44:25 2026
 17
    1  MOL   C1    1   0.018  -0.035   0.101
    1  MOL   C2    2   0.153  -0.041   0.300
    1  MOL   C3    3  -0.070  -0.120   0.165
    1  MOL   C4    4   0.132   0.005   0.171
    1  MOL   C5    5   0.058  -0.126   0.355
    1  MOL   C6    6   0.230   0.097   0.107
    1  MOL   C7    7   0.077  -0.177   0.494
    1  MOL   N1    8  -0.053  -0.167   0.290
    1  MOL   H1    9  -0.001  -0.001  -0.000
    1  MOL   H2   10   0.240  -0.011   0.357
    1  MOL   H3   11  -0.160  -0.154   0.115
    1  MOL   H4   12   0.333   0.060   0.123
    1  MOL   H5   13   0.213   0.105  -0.001
    1  MOL   H6   14   0.223   0.199   0.149
    1  MOL   H7   15   0.157  -0.122   0.544
    1  MOL   H8   16  -0.015  -0.167   0.553
    1  MOL   H9   17   0.103  -0.284   0.494
    9.85800     9.64600    11.08400
