mobley_4689084_GMX.gro created by acpype (v: 2023.10.27) on Wed May 20 23:44:07 2026
 20
    1  MOL   C1    1   0.150   0.000   0.000
    1  MOL   C2    2   0.308  -0.007  -0.293
    1  MOL   C3    3   0.000   0.000   0.000
    1  MOL   C4    4   0.346  -0.141  -0.350
    1  MOL   C5    5   0.339   0.145  -0.007
    1  MOL   C6    6   0.387   0.165  -0.150
    1  MOL   O1    7   0.219  -0.098  -0.001
    1  MOL   O2    8   0.204   0.047  -0.310
    1  MOL   O3    9   0.198   0.124   0.000
    1  MOL   O4   10   0.406   0.043  -0.219
    1  MOL   H1   11  -0.034   0.037  -0.096
    1  MOL   H2   12  -0.038   0.066   0.077
    1  MOL   H3   13  -0.036  -0.101   0.015
    1  MOL   H4   14   0.444  -0.136  -0.397
    1  MOL   H5   15   0.351  -0.213  -0.269
    1  MOL   H6   16   0.271  -0.172  -0.422
    1  MOL   H7   17   0.391   0.063   0.040
    1  MOL   H8   18   0.356   0.236   0.048
    1  MOL   H9   19   0.318   0.229  -0.205
    1  MOL  H10   20   0.484   0.211  -0.147
   10.44000     8.97200     9.97600
