; mobley_4689084_GMX_OPLS.itp created by acpype (v: 2023.10.27) on Wed May 20 23:44:07 2026

; For OPLS atomtypes manual fine tuning
; AC_at:OPLS_at:OPLScode: Possible_Alternatives (see ffoplsaa.atp and ffoplsaanb.itp)
; c:C:opls_235: ['271']
; c3:CT:opls_135: ['136', '137', '149', '157', '158', '206', '209', '210', '223B', '224B', '245', '246', '274', '283', '284', '285', '292', '292B', '293B', '296', '307', '308', '505']
; o:O:opls_236: ['272']
; os:x:opls_x: []
; hc:HC:opls_140: []
; h1:HC:opls_140: []

[ moleculetype ]
;name            nrexcl
 mobley_4689084   3

[ atoms ]
;   nr  type  resi  res  atom  cgnr     charge      mass       ; qtot   bond_type
     1 opls_235     1   MOL    C1    1     0.643100     12.01100 ; qtot  0.643  C   
     2 opls_235     1   MOL    C2    2     0.643100     12.01100 ; qtot  1.286  C   
     3 opls_135     1   MOL    C3    3    -0.150100     12.01100 ; qtot  1.136  CT  
     4 opls_135     1   MOL    C4    4    -0.150100     12.01100 ; qtot  0.986  CT  
     5 opls_135     1   MOL    C5    5     0.108400     12.01100 ; qtot  1.094  CT  
     6 opls_135     1   MOL    C6    6     0.108400     12.01100 ; qtot  1.203  CT  
     7 opls_236     1   MOL    O1    7    -0.548000     15.99940 ; qtot  0.655  O   
     8 opls_236     1   MOL    O2    8    -0.548000     15.99940 ; qtot  0.107  O   
     9 opls_x     1   MOL    O3    9    -0.443900      0.00000 ; qtot -0.337  x   
    10 opls_x     1   MOL    O4   10    -0.443900      0.00000 ; qtot -0.781  x   
    11 opls_140     1   MOL    H1   11     0.077700      1.00800 ; qtot -0.703  HC  
    12 opls_140     1   MOL    H2   12     0.077700      1.00800 ; qtot -0.626  HC  
    13 opls_140     1   MOL    H3   13     0.077700      1.00800 ; qtot -0.548  HC  
    14 opls_140     1   MOL    H4   14     0.077700      1.00800 ; qtot -0.470  HC  
    15 opls_140     1   MOL    H5   15     0.077700      1.00800 ; qtot -0.392  HC  
    16 opls_140     1   MOL    H6   16     0.077700      1.00800 ; qtot -0.315  HC  
    17 opls_140     1   MOL    H7   17     0.078700      1.00800 ; qtot -0.236  HC  
    18 opls_140     1   MOL    H8   18     0.078700      1.00800 ; qtot -0.157  HC  
    19 opls_140     1   MOL    H9   19     0.078700      1.00800 ; qtot -0.079  HC  
    20 opls_140     1   MOL   H10   20     0.078700      1.00800 ; qtot  0.000  HC  

[ bonds ]
;   ai     aj funct   r             k
     1      3   1 ;    1.5270e-01    1.9652e+05 ;     C1 - C3          C - CT    
     1      7   1 ;    1.2190e-01    4.9421e+05 ;     C1 - O1          C - O     
     1      9   1 ;    1.3621e-01    2.9398e+05 ;     C1 - O3          C - x     
     2      4   1 ;    1.5270e-01    1.9652e+05 ;     C2 - C4          C - CT    
     2      8   1 ;    1.2190e-01    4.9421e+05 ;     C2 - O2          C - O     
     2     10   1 ;    1.3621e-01    2.9398e+05 ;     C2 - O4          C - x     
     3     11   1 ;    1.0962e-01    2.8891e+05 ;     C3 - H1         CT - HC    
     3     12   1 ;    1.0962e-01    2.8891e+05 ;     C3 - H2         CT - HC    
     3     13   1 ;    1.0962e-01    2.8891e+05 ;     C3 - H3         CT - HC    
     4     14   1 ;    1.0962e-01    2.8891e+05 ;     C4 - H4         CT - HC    
     4     15   1 ;    1.0962e-01    2.8891e+05 ;     C4 - H5         CT - HC    
     4     16   1 ;    1.0962e-01    2.8891e+05 ;     C4 - H6         CT - HC    
     5      6   1 ;    1.5354e-01    1.9154e+05 ;     C5 - C6         CT - CT    
     5      9   1 ;    1.4273e-01    2.3620e+05 ;     C5 - O3         CT - x     
     5     17   1 ;    1.0969e-01    2.8804e+05 ;     C5 - H7         CT - HC    
     5     18   1 ;    1.0969e-01    2.8804e+05 ;     C5 - H8         CT - HC    
     6     10   1 ;    1.4273e-01    2.3620e+05 ;     C6 - O4         CT - x     
     6     19   1 ;    1.0969e-01    2.8804e+05 ;     C6 - H9         CT - HC    
     6     20   1 ;    1.0969e-01    2.8804e+05 ;     C6 - H10        CT - HC    

[ pairs ]
;   ai     aj    funct
     1      6      1 ;     C1 - C6    
     1     17      1 ;     C1 - H7    
     1     18      1 ;     C1 - H8    
     2      5      1 ;     C2 - C5    
     2     19      1 ;     C2 - H9    
     2     20      1 ;     C2 - H10   
     3      5      1 ;     C3 - C5    
     4      6      1 ;     C4 - C6    
     6      8      1 ;     C6 - O2    
     7      5      1 ;     O1 - C5    
     7     11      1 ;     O1 - H1    
     7     12      1 ;     O1 - H2    
     7     13      1 ;     O1 - H3    
     8     14      1 ;     O2 - H4    
     8     15      1 ;     O2 - H5    
     8     16      1 ;     O2 - H6    
     9     10      1 ;     O3 - O4    
     9     11      1 ;     O3 - H1    
     9     12      1 ;     O3 - H2    
     9     13      1 ;     O3 - H3    
     9     19      1 ;     O3 - H9    
     9     20      1 ;     O3 - H10   
    10     14      1 ;     O4 - H4    
    10     15      1 ;     O4 - H5    
    10     16      1 ;     O4 - H6    
    10     17      1 ;     O4 - H7    
    10     18      1 ;     O4 - H8    
    17     19      1 ;     H7 - H9    
    17     20      1 ;     H7 - H10   
    18     19      1 ;     H8 - H9    
    18     20      1 ;     H8 - H10   

[ angles ]
;   ai     aj     ak    funct   theta         cth
     1      3     11      1 ;    1.0895e+02    3.6510e+02 ;     C1 - C3   - H1        C -   CT - HC  
     1      3     12      1 ;    1.0895e+02    3.6510e+02 ;     C1 - C3   - H2        C -   CT - HC  
     1      3     13      1 ;    1.0895e+02    3.6510e+02 ;     C1 - C3   - H3        C -   CT - HC  
     1      9      5      1 ;    1.1582e+02    7.4835e+02 ;     C1 - O3   - C5        C -    x - CT  
     2      4     14      1 ;    1.0895e+02    3.6510e+02 ;     C2 - C4   - H4        C -   CT - HC  
     2      4     15      1 ;    1.0895e+02    3.6510e+02 ;     C2 - C4   - H5        C -   CT - HC  
     2      4     16      1 ;    1.0895e+02    3.6510e+02 ;     C2 - C4   - H6        C -   CT - HC  
     2     10      6      1 ;    1.1582e+02    7.4835e+02 ;     C2 - O4   - C6        C -    x - CT  
     3      1      7      1 ;    1.2290e+02    6.3973e+02 ;     C3 - C1   - O1       CT -    C - O   
     3      1      9      1 ;    1.1080e+02    6.5245e+02 ;     C3 - C1   - O3       CT -    C - x   
     4      2      8      1 ;    1.2290e+02    6.3973e+02 ;     C4 - C2   - O2       CT -    C - O   
     4      2     10      1 ;    1.1080e+02    6.5245e+02 ;     C4 - C2   - O4       CT -    C - x   
     5      6     10      1 ;    1.0762e+02    6.4802e+02 ;     C5 - C6   - O4       CT -   CT - x   
     5      6     19      1 ;    1.0959e+02    3.6217e+02 ;     C5 - C6   - H9       CT -   CT - HC  
     5      6     20      1 ;    1.0959e+02    3.6217e+02 ;     C5 - C6   - H10      CT -   CT - HC  
     6      5      9      1 ;    1.0762e+02    6.4802e+02 ;     C6 - C5   - O3       CT -   CT - x   
     6      5     17      1 ;    1.0959e+02    3.6217e+02 ;     C6 - C5   - H7       CT -   CT - HC  
     6      5     18      1 ;    1.0959e+02    3.6217e+02 ;     C6 - C5   - H8       CT -   CT - HC  
     7      1      9      1 ;    1.2320e+02    8.4734e+02 ;     O1 - C1   - O3        O -    C - x   
     8      2     10      1 ;    1.2320e+02    8.4734e+02 ;     O2 - C2   - O4        O -    C - x   
     9      5     17      1 ;    1.1034e+02    4.7028e+02 ;     O3 - C5   - H7        x -   CT - HC  
     9      5     18      1 ;    1.1034e+02    4.7028e+02 ;     O3 - C5   - H8        x -   CT - HC  
    10      6     19      1 ;    1.1034e+02    4.7028e+02 ;     O4 - C6   - H9        x -   CT - HC  
    10      6     20      1 ;    1.1034e+02    4.7028e+02 ;     O4 - C6   - H10       x -   CT - HC  
    11      3     12      1 ;    1.0773e+02    2.9957e+02 ;     H1 - C3   - H2       HC -   CT - HC  
    11      3     13      1 ;    1.0773e+02    2.9957e+02 ;     H1 - C3   - H3       HC -   CT - HC  
    12      3     13      1 ;    1.0773e+02    2.9957e+02 ;     H2 - C3   - H3       HC -   CT - HC  
    14      4     15      1 ;    1.0773e+02    2.9957e+02 ;     H4 - C4   - H5       HC -   CT - HC  
    14      4     16      1 ;    1.0773e+02    2.9957e+02 ;     H4 - C4   - H6       HC -   CT - HC  
    15      4     16      1 ;    1.0773e+02    2.9957e+02 ;     H5 - C4   - H6       HC -   CT - HC  
    17      5     18      1 ;    1.0855e+02    2.9824e+02 ;     H7 - C5   - H8       HC -   CT - HC  
    19      6     20      1 ;    1.0855e+02    2.9824e+02 ;     H9 - C6   - H10      HC -   CT - HC  

[ dihedrals ] ; propers
; for gromacs 4.5 or higher, using funct 9
;    i      j      k      l   func   phase     kd      pn
     1      9      5      6      9 ;     0.00   1.60247   3 ;     C1-    O3-    C5-    C6
     1      9      5      6      9 ;   180.00   3.34720   1 ;     C1-    O3-    C5-    C6
     1      9      5     17      9 ;     0.00   1.60387   3 ;     C1-    O3-    C5-    H7
     1      9      5     18      9 ;     0.00   1.60387   3 ;     C1-    O3-    C5-    H8
     2     10      6      5      9 ;     0.00   1.60247   3 ;     C2-    O4-    C6-    C5
     2     10      6      5      9 ;   180.00   3.34720   1 ;     C2-    O4-    C6-    C5
     2     10      6     19      9 ;     0.00   1.60387   3 ;     C2-    O4-    C6-    H9
     2     10      6     20      9 ;     0.00   1.60387   3 ;     C2-    O4-    C6-   H10
     3      1      9      5      9 ;     0.00   3.13800   3 ;     C3-    C1-    O3-    C5
     3      1      9      5      9 ;   180.00   7.90776   1 ;     C3-    C1-    O3-    C5
     3      1      9      5      9 ;   180.00  13.76536   2 ;     C3-    C1-    O3-    C5
     4      2     10      6      9 ;     0.00   3.13800   3 ;     C4-    C2-    O4-    C6
     4      2     10      6      9 ;   180.00   7.90776   1 ;     C4-    C2-    O4-    C6
     4      2     10      6      9 ;   180.00  13.76536   2 ;     C4-    C2-    O4-    C6
     6     10      2      8      9 ;   180.00   5.85760   1 ;     C6-    O4-    C2-    O2
     6     10      2      8      9 ;   180.00  11.29680   2 ;     C6-    O4-    C2-    O2
     7      1      3     11      9 ;     0.00  16.86152   1 ;     O1-    C1-    C3-    H1
     7      1      3     11      9 ;   180.00  15.31344   2 ;     O1-    C1-    C3-    H1
     7      1      3     12      9 ;     0.00  16.86152   1 ;     O1-    C1-    C3-    H2
     7      1      3     12      9 ;   180.00  15.31344   2 ;     O1-    C1-    C3-    H2
     7      1      3     13      9 ;     0.00  16.86152   1 ;     O1-    C1-    C3-    H3
     7      1      3     13      9 ;   180.00  15.31344   2 ;     O1-    C1-    C3-    H3
     7      1      9      5      9 ;   180.00   5.85760   1 ;     O1-    C1-    O3-    C5
     7      1      9      5      9 ;   180.00  11.29680   2 ;     O1-    C1-    O3-    C5
     8      2      4     14      9 ;     0.00  16.86152   1 ;     O2-    C2-    C4-    H4
     8      2      4     14      9 ;   180.00  15.31344   2 ;     O2-    C2-    C4-    H4
     8      2      4     15      9 ;     0.00  16.86152   1 ;     O2-    C2-    C4-    H5
     8      2      4     15      9 ;   180.00  15.31344   2 ;     O2-    C2-    C4-    H5
     8      2      4     16      9 ;     0.00  16.86152   1 ;     O2-    C2-    C4-    H6
     8      2      4     16      9 ;   180.00  15.31344   2 ;     O2-    C2-    C4-    H6
     9      1      3     11      9 ;   180.00   0.00000   2 ;     O3-    C1-    C3-    H1
     9      1      3     12      9 ;   180.00   0.00000   2 ;     O3-    C1-    C3-    H2
     9      1      3     13      9 ;   180.00   0.00000   2 ;     O3-    C1-    C3-    H3
     9      5      6     10      9 ;     0.00   0.75312   1 ;     O3-    C5-    C6-    O4
     9      5      6     10      9 ;     0.00   2.09200   3 ;     O3-    C5-    C6-    O4
     9      5      6     10      9 ;     0.00   3.76560   2 ;     O3-    C5-    C6-    O4
     9      5      6     19      9 ;     0.00   0.00000   0 ;     O3-    C5-    C6-    H9
     9      5      6     19      9 ;     0.00   1.04600   1 ;     O3-    C5-    C6-    H9
     9      5      6     20      9 ;     0.00   0.00000   0 ;     O3-    C5-    C6-   H10
     9      5      6     20      9 ;     0.00   1.04600   1 ;     O3-    C5-    C6-   H10
    10      2      4     14      9 ;   180.00   0.00000   2 ;     O4-    C2-    C4-    H4
    10      2      4     15      9 ;   180.00   0.00000   2 ;     O4-    C2-    C4-    H5
    10      2      4     16      9 ;   180.00   0.00000   2 ;     O4-    C2-    C4-    H6
    10      6      5     17      9 ;     0.00   0.00000   0 ;     O4-    C6-    C5-    H7
    10      6      5     17      9 ;     0.00   1.04600   1 ;     O4-    C6-    C5-    H7
    10      6      5     18      9 ;     0.00   0.00000   0 ;     O4-    C6-    C5-    H8
    10      6      5     18      9 ;     0.00   1.04600   1 ;     O4-    C6-    C5-    H8
    17      5      6     19      9 ;     0.00   0.65084   3 ;     H7-    C5-    C6-    H9
    17      5      6     20      9 ;     0.00   0.65084   3 ;     H7-    C5-    C6-   H10
    18      5      6     19      9 ;     0.00   0.65084   3 ;     H8-    C5-    C6-    H9
    18      5      6     20      9 ;     0.00   0.65084   3 ;     H8-    C5-    C6-   H10

[ dihedrals ] ; impropers
; treated as propers in GROMACS to use correct AMBER analytical function
;    i      j      k      l   func   phase     kd      pn
     4      8      2     10      4 ;   180.00   4.60240   2 ;     C4-    O2-    C2-    O4
     9      1      7      3      4 ;   180.00   4.60240   2 ;     O3-    C1-    O1-    C3
