; mobley_4689084_GMX_OPLS.top created by acpype (v: 2023.10.27) on Wed May 20 23:44:07 2026

; Include forcefield parameters
#include "ffoplsaa.itp"

; Include mobley_4689084_GMX.itp topology
#include "mobley_4689084_GMX.itp"

; Ligand position restraints
#ifdef POSRES_LIG
#include "posre_mobley_4689084.itp"
#endif

[ system ]
 mobley_4689084

[ molecules ]
; Compound        nmols
 mobley_4689084   1     
