etgd.xyz
    20
   1.5000000   0.0000000   0.0000000   3.0800000  -0.0740000  -2.9300000
   0.0000000   0.0000000   0.0000000   3.4590000  -1.4090000  -3.5020000
   3.3850000   1.4490000  -0.0740000   3.8650000   1.6530000  -1.4970000
   2.1850000  -0.9750000  -0.0080000   2.0370000   0.4740000  -3.1050000
   1.9840000   1.2370000   0.0000000   4.0580000   0.4280000  -2.1850000
  -0.3410000   0.3740000  -0.9590000  -0.3760000   0.6590000   0.7720000
  -0.3610000  -1.0060000   0.1510000   4.4350000  -1.3550000  -3.9690000
   3.5140000  -2.1250000  -2.6890000   2.7120000  -1.7210000  -4.2160000
   3.9120000   0.6310000   0.3960000   3.5580000   2.3610000   0.4820000
   3.1830000   2.2860000  -2.0460000   4.8440000   2.1140000  -1.4660000
