SAMPL4_002
    34
  -1.4380000  -3.4940000  -1.9890000  -0.2940000  -2.8050000  -1.9010000
   1.3300000  -1.1850000   1.8660000   0.7350000  -1.7880000   2.9120000
   1.0880000  -1.2560000  -3.7880000   0.8440000  -1.3390000   4.3420000
  -0.1070000  -3.0190000   2.7070000   2.3970000  -0.8320000  -4.3820000
  -1.2400000  -0.4710000  -2.4130000   1.2590000  -1.5830000   0.4170000
   0.0760000  -0.9050000  -0.2820000  -0.1290000  -1.3050000  -1.7630000
   0.1880000  -1.7890000  -4.4230000   1.0770000  -0.9510000  -2.4620000
  -1.4630000  -4.5720000  -2.0860000  -2.3900000  -2.9730000  -1.9620000
   0.6300000  -3.3810000  -1.9330000   1.9540000  -0.3130000   2.0600000
   0.0450000  -0.6270000   4.5750000   1.8060000  -0.8420000   4.5080000
   0.7570000  -2.1550000   5.0620000   0.5130000  -3.9180000   2.7880000
  -0.9110000  -3.1030000   3.4460000  -0.5680000  -3.0020000   1.7140000
   2.3250000   0.1970000  -4.7440000   2.6710000  -1.5080000  -5.1960000
   3.1750000  -0.8780000  -3.6150000  -1.0500000   0.6000000  -2.2710000
  -1.3370000  -0.6600000  -3.4860000  -2.2080000  -0.6700000  -1.9390000
   2.2010000  -1.2800000  -0.0540000   1.2070000  -2.6700000   0.3070000
   0.1920000   0.1870000  -0.2220000  -0.8470000  -1.1170000   0.2770000
