; mobley_6935906_GMX.itp created by acpype (v: 2023.10.27) on Wed May 20 23:45:15 2026

[ atomtypes ]
;name   bond_type     mass     charge   ptype   sigma         epsilon       Amb
 c2       c2          0.00000  0.00000   A     3.31521e-01   4.13379e-01 ; 1.86  0.0988
 c        c           0.00000  0.00000   A     3.31521e-01   4.13379e-01 ; 1.86  0.0988
 c3       c3          0.00000  0.00000   A     3.39771e-01   4.51035e-01 ; 1.91  0.1078
 o        o           0.00000  0.00000   A     3.04812e-01   6.12119e-01 ; 1.71  0.1463
 os       os          0.00000  0.00000   A     3.15610e-01   3.03758e-01 ; 1.77  0.0726
 ha       ha          0.00000  0.00000   A     2.62548e-01   6.73624e-02 ; 1.47  0.0161
 hc       hc          0.00000  0.00000   A     2.60018e-01   8.70272e-02 ; 1.46  0.0208

[ moleculetype ]
;name            nrexcl
 mobley_6935906   3

[ atoms ]
;   nr  type  resi  res  atom  cgnr     charge      mass       ; qtot   bond_type
     1   c2     1   MOL    C1    1    -0.212000     12.01000 ; qtot -0.212
     2   c2     1   MOL    C2    2    -0.172200     12.01000 ; qtot -0.384
     3   c2     1   MOL    C3    3    -0.176200     12.01000 ; qtot -0.560
     4   c2     1   MOL    C4    4    -0.124400     12.01000 ; qtot -0.685
     5    c     1   MOL    C5    5     0.640101     12.01000 ; qtot -0.045
     6   c3     1   MOL    C6    6    -0.057400     12.01000 ; qtot -0.102
     7   c3     1   MOL    C7    7    -0.057400     12.01000 ; qtot -0.159
     8   c3     1   MOL    C8    8    -0.153100     12.01000 ; qtot -0.313
     9   c3     1   MOL    C9    9    -0.119100     12.01000 ; qtot -0.432
    10   c3     1   MOL   C10   10    -0.045200     12.01000 ; qtot -0.477
    11   c3     1   MOL   C11   11    -0.064400     12.01000 ; qtot -0.541
    12   c3     1   MOL   C12   12     0.203000     12.01000 ; qtot -0.338
    13    o     1   MOL    O1   13    -0.545000     16.00000 ; qtot -0.883
    14   os     1   MOL    O2   14    -0.444900     16.00000 ; qtot -1.328
    15   ha     1   MOL    H1   15     0.113500      1.00800 ; qtot -1.215
    16   ha     1   MOL    H2   16     0.113500      1.00800 ; qtot -1.101
    17   ha     1   MOL    H3   17     0.138000      1.00800 ; qtot -0.963
    18   ha     1   MOL    H4   18     0.120000      1.00800 ; qtot -0.843
    19   hc     1   MOL    H5   19     0.040033      1.00800 ; qtot -0.803
    20   hc     1   MOL    H6   20     0.040033      1.00800 ; qtot -0.763
    21   hc     1   MOL    H7   21     0.040033      1.00800 ; qtot -0.723
    22   hc     1   MOL    H8   22     0.040033      1.00800 ; qtot -0.683
    23   hc     1   MOL    H9   23     0.040033      1.00800 ; qtot -0.643
    24   hc     1   MOL   H10   24     0.040033      1.00800 ; qtot -0.603
    25   hc     1   MOL   H11   25     0.074367      1.00800 ; qtot -0.529
    26   hc     1   MOL   H12   26     0.074367      1.00800 ; qtot -0.454
    27   hc     1   MOL   H13   27     0.074367      1.00800 ; qtot -0.380
    28   hc     1   MOL   H14   28     0.053700      1.00800 ; qtot -0.326
    29   hc     1   MOL   H15   29     0.053700      1.00800 ; qtot -0.273
    30   hc     1   MOL   H16   30     0.053700      1.00800 ; qtot -0.219
    31   hc     1   MOL   H17   31     0.056700      1.00800 ; qtot -0.162
    32   hc     1   MOL   H18   32     0.056700      1.00800 ; qtot -0.105
    33   hc     1   MOL   H19   33     0.052700      1.00800 ; qtot -0.053
    34   hc     1   MOL   H20   34     0.052700      1.00800 ; qtot -0.000

[ bonds ]
;   ai     aj funct   r             k
     1      2   1    1.3379e-01    3.6484e+05 ;     C1 - C2    
     1     15   1    1.0882e-01    2.9898e+05 ;     C1 - H1    
     1     16   1    1.0882e-01    2.9898e+05 ;     C1 - H2    
     2     12   1    1.5088e-01    2.0786e+05 ;     C2 - C12   
     2     17   1    1.0882e-01    2.9898e+05 ;     C2 - H3    
     3      4   1    1.3379e-01    3.6484e+05 ;     C3 - C4    
     3     10   1    1.5088e-01    2.0786e+05 ;     C3 - C10   
     3     18   1    1.0882e-01    2.9898e+05 ;     C3 - H4    
     4      6   1    1.5088e-01    2.0786e+05 ;     C4 - C6    
     4      7   1    1.5088e-01    2.0786e+05 ;     C4 - C7    
     5      8   1    1.5270e-01    1.9652e+05 ;     C5 - C8    
     5     13   1    1.2190e-01    4.9421e+05 ;     C5 - O1    
     5     14   1    1.3621e-01    2.9398e+05 ;     C5 - O2    
     6     19   1    1.0962e-01    2.8891e+05 ;     C6 - H5    
     6     20   1    1.0962e-01    2.8891e+05 ;     C6 - H6    
     6     21   1    1.0962e-01    2.8891e+05 ;     C6 - H7    
     7     22   1    1.0962e-01    2.8891e+05 ;     C7 - H8    
     7     23   1    1.0962e-01    2.8891e+05 ;     C7 - H9    
     7     24   1    1.0962e-01    2.8891e+05 ;     C7 - H10   
     8     25   1    1.0962e-01    2.8891e+05 ;     C8 - H11   
     8     26   1    1.0962e-01    2.8891e+05 ;     C8 - H12   
     8     27   1    1.0962e-01    2.8891e+05 ;     C8 - H13   
     9     12   1    1.5354e-01    1.9154e+05 ;     C9 - C12   
     9     28   1    1.0962e-01    2.8891e+05 ;     C9 - H14   
     9     29   1    1.0962e-01    2.8891e+05 ;     C9 - H15   
     9     30   1    1.0962e-01    2.8891e+05 ;     C9 - H16   
    10     11   1    1.5354e-01    1.9154e+05 ;    C10 - C11   
    10     31   1    1.0962e-01    2.8891e+05 ;    C10 - H17   
    10     32   1    1.0962e-01    2.8891e+05 ;    C10 - H18   
    11     12   1    1.5354e-01    1.9154e+05 ;    C11 - C12   
    11     33   1    1.0962e-01    2.8891e+05 ;    C11 - H19   
    11     34   1    1.0962e-01    2.8891e+05 ;    C11 - H20   
    12     14   1    1.4273e-01    2.3620e+05 ;    C12 - O2    

[ pairs ]
;   ai     aj    funct
     1      9      1 ;     C1 - C9    
     1     11      1 ;     C1 - C11   
     1     14      1 ;     C1 - O2    
     2      5      1 ;     C2 - C5    
     2     10      1 ;     C2 - C10   
     2     28      1 ;     C2 - H14   
     2     29      1 ;     C2 - H15   
     2     30      1 ;     C2 - H16   
     2     33      1 ;     C2 - H19   
     2     34      1 ;     C2 - H20   
     3     12      1 ;     C3 - C12   
     3     19      1 ;     C3 - H5    
     3     20      1 ;     C3 - H6    
     3     21      1 ;     C3 - H7    
     3     22      1 ;     C3 - H8    
     3     23      1 ;     C3 - H9    
     3     24      1 ;     C3 - H10   
     3     33      1 ;     C3 - H19   
     3     34      1 ;     C3 - H20   
     4     11      1 ;     C4 - C11   
     4     31      1 ;     C4 - H17   
     4     32      1 ;     C4 - H18   
     5      9      1 ;     C5 - C9    
     5     11      1 ;     C5 - C11   
     6     10      1 ;     C6 - C10   
     6     18      1 ;     C6 - H4    
     6     22      1 ;     C6 - H8    
     6     23      1 ;     C6 - H9    
     6     24      1 ;     C6 - H10   
     7     10      1 ;     C7 - C10   
     7     18      1 ;     C7 - H4    
     7     19      1 ;     C7 - H5    
     7     20      1 ;     C7 - H6    
     7     21      1 ;     C7 - H7    
     8     12      1 ;     C8 - C12   
     9     10      1 ;     C9 - C10   
     9     17      1 ;     C9 - H3    
     9     33      1 ;     C9 - H19   
     9     34      1 ;     C9 - H20   
    10     14      1 ;    C10 - O2    
    11     17      1 ;    C11 - H3    
    11     18      1 ;    C11 - H4    
    11     28      1 ;    C11 - H14   
    11     29      1 ;    C11 - H15   
    11     30      1 ;    C11 - H16   
    12     13      1 ;    C12 - O1    
    12     31      1 ;    C12 - H17   
    12     32      1 ;    C12 - H18   
    13     25      1 ;     O1 - H11   
    13     26      1 ;     O1 - H12   
    13     27      1 ;     O1 - H13   
    14     17      1 ;     O2 - H3    
    14     25      1 ;     O2 - H11   
    14     26      1 ;     O2 - H12   
    14     27      1 ;     O2 - H13   
    14     28      1 ;     O2 - H14   
    14     29      1 ;     O2 - H15   
    14     30      1 ;     O2 - H16   
    14     33      1 ;     O2 - H19   
    14     34      1 ;     O2 - H20   
    15     12      1 ;     H1 - C12   
    15     17      1 ;     H1 - H3    
    16     12      1 ;     H2 - C12   
    16     17      1 ;     H2 - H3    
    18     31      1 ;     H4 - H17   
    18     32      1 ;     H4 - H18   
    31     33      1 ;    H17 - H19   
    31     34      1 ;    H17 - H20   
    32     33      1 ;    H18 - H19   
    32     34      1 ;    H18 - H20   

[ angles ]
;   ai     aj     ak    funct   theta         cth
     1      2     12      1    1.2495e+02    5.0944e+02 ;     C1 - C2     - C12   
     1      2     17      1    1.2039e+02    3.8802e+02 ;     C1 - C2     - H3    
     2      1     15      1    1.2039e+02    3.8802e+02 ;     C2 - C1     - H1    
     2      1     16      1    1.2039e+02    3.8802e+02 ;     C2 - C1     - H2    
     2     12      9      1    1.1258e+02    5.0543e+02 ;     C2 - C12    - C9    
     2     12     11      1    1.1258e+02    5.0543e+02 ;     C2 - C12    - C11   
     2     12     14      1    1.0821e+02    6.5287e+02 ;     C2 - C12    - O2    
     3      4      6      1    1.2495e+02    5.0944e+02 ;     C3 - C4     - C6    
     3      4      7      1    1.2495e+02    5.0944e+02 ;     C3 - C4     - C7    
     3     10     11      1    1.1258e+02    5.0543e+02 ;     C3 - C10    - C11   
     3     10     31      1    1.1065e+02    3.6618e+02 ;     C3 - C10    - H17   
     3     10     32      1    1.1065e+02    3.6618e+02 ;     C3 - C10    - H18   
     4      3     10      1    1.2495e+02    5.0944e+02 ;     C4 - C3     - C10   
     4      3     18      1    1.2039e+02    3.8802e+02 ;     C4 - C3     - H4    
     4      6     19      1    1.1065e+02    3.6618e+02 ;     C4 - C6     - H5    
     4      6     20      1    1.1065e+02    3.6618e+02 ;     C4 - C6     - H6    
     4      6     21      1    1.1065e+02    3.6618e+02 ;     C4 - C6     - H7    
     4      7     22      1    1.1065e+02    3.6618e+02 ;     C4 - C7     - H8    
     4      7     23      1    1.1065e+02    3.6618e+02 ;     C4 - C7     - H9    
     4      7     24      1    1.1065e+02    3.6618e+02 ;     C4 - C7     - H10   
     5      8     25      1    1.0895e+02    3.6510e+02 ;     C5 - C8     - H11   
     5      8     26      1    1.0895e+02    3.6510e+02 ;     C5 - C8     - H12   
     5      8     27      1    1.0895e+02    3.6510e+02 ;     C5 - C8     - H13   
     5     14     12      1    1.1582e+02    7.4835e+02 ;     C5 - O2     - C12   
     6      4      7      1    1.1501e+02    5.0459e+02 ;     C6 - C4     - C7    
     8      5     13      1    1.2290e+02    6.3973e+02 ;     C8 - C5     - O1    
     8      5     14      1    1.1080e+02    6.5245e+02 ;     C8 - C5     - O2    
     9     12     11      1    1.1263e+02    5.0099e+02 ;     C9 - C12    - C11   
     9     12     14      1    1.0762e+02    6.4802e+02 ;     C9 - C12    - O2    
    10      3     18      1    1.1505e+02    3.5941e+02 ;    C10 - C3     - H4    
    10     11     12      1    1.1263e+02    5.0099e+02 ;    C10 - C11    - C12   
    10     11     33      1    1.0968e+02    3.6208e+02 ;    C10 - C11    - H19   
    10     11     34      1    1.0968e+02    3.6208e+02 ;    C10 - C11    - H20   
    11     10     31      1    1.0968e+02    3.6208e+02 ;    C11 - C10    - H17   
    11     10     32      1    1.0968e+02    3.6208e+02 ;    C11 - C10    - H18   
    11     12     14      1    1.0762e+02    6.4802e+02 ;    C11 - C12    - O2    
    12      2     17      1    1.1505e+02    3.5941e+02 ;    C12 - C2     - H3    
    12      9     28      1    1.0968e+02    3.6208e+02 ;    C12 - C9     - H14   
    12      9     29      1    1.0968e+02    3.6208e+02 ;    C12 - C9     - H15   
    12      9     30      1    1.0968e+02    3.6208e+02 ;    C12 - C9     - H16   
    12     11     33      1    1.0968e+02    3.6208e+02 ;    C12 - C11    - H19   
    12     11     34      1    1.0968e+02    3.6208e+02 ;    C12 - C11    - H20   
    13      5     14      1    1.2320e+02    8.4734e+02 ;     O1 - C5     - O2    
    15      1     16      1    1.1666e+02    2.9003e+02 ;     H1 - C1     - H2    
    19      6     20      1    1.0773e+02    2.9957e+02 ;     H5 - C6     - H6    
    19      6     21      1    1.0773e+02    2.9957e+02 ;     H5 - C6     - H7    
    20      6     21      1    1.0773e+02    2.9957e+02 ;     H6 - C6     - H7    
    22      7     23      1    1.0773e+02    2.9957e+02 ;     H8 - C7     - H9    
    22      7     24      1    1.0773e+02    2.9957e+02 ;     H8 - C7     - H10   
    23      7     24      1    1.0773e+02    2.9957e+02 ;     H9 - C7     - H10   
    25      8     26      1    1.0773e+02    2.9957e+02 ;    H11 - C8     - H12   
    25      8     27      1    1.0773e+02    2.9957e+02 ;    H11 - C8     - H13   
    26      8     27      1    1.0773e+02    2.9957e+02 ;    H12 - C8     - H13   
    28      9     29      1    1.0773e+02    2.9957e+02 ;    H14 - C9     - H15   
    28      9     30      1    1.0773e+02    2.9957e+02 ;    H14 - C9     - H16   
    29      9     30      1    1.0773e+02    2.9957e+02 ;    H15 - C9     - H16   
    31     10     32      1    1.0773e+02    2.9957e+02 ;    H17 - C10    - H18   
    33     11     34      1    1.0773e+02    2.9957e+02 ;    H19 - C11    - H20   

[ dihedrals ] ; propers
; for gromacs 4.5 or higher, using funct 9
;    i      j      k      l   func   phase     kd      pn
     1      2     12      9      9     0.00   0.00000   0 ;     C1-    C2-   C12-    C9
     1      2     12     11      9     0.00   0.00000   0 ;     C1-    C2-   C12-   C11
     1      2     12     14      9     0.00   0.00000   0 ;     C1-    C2-   C12-    O2
     2     12      9     28      9     0.00   0.65084   3 ;     C2-   C12-    C9-   H14
     2     12      9     29      9     0.00   0.65084   3 ;     C2-   C12-    C9-   H15
     2     12      9     30      9     0.00   0.65084   3 ;     C2-   C12-    C9-   H16
     2     12     11     10      9     0.00   0.65084   3 ;     C2-   C12-   C11-   C10
     2     12     11     33      9     0.00   0.65084   3 ;     C2-   C12-   C11-   H19
     2     12     11     34      9     0.00   0.65084   3 ;     C2-   C12-   C11-   H20
     2     12     14      5      9     0.00   1.60387   3 ;     C2-   C12-    O2-    C5
     3      4      6     19      9   180.00   1.08784   3 ;     C3-    C4-    C6-    H5
     3      4      6     20      9   180.00   1.08784   3 ;     C3-    C4-    C6-    H6
     3      4      6     21      9   180.00   1.08784   3 ;     C3-    C4-    C6-    H7
     3      4      7     22      9   180.00   1.08784   3 ;     C3-    C4-    C7-    H8
     3      4      7     23      9   180.00   1.08784   3 ;     C3-    C4-    C7-    H9
     3      4      7     24      9   180.00   1.08784   3 ;     C3-    C4-    C7-   H10
     3     10     11     12      9     0.00   0.65084   3 ;     C3-   C10-   C11-   C12
     3     10     11     33      9     0.00   0.65084   3 ;     C3-   C10-   C11-   H19
     3     10     11     34      9     0.00   0.65084   3 ;     C3-   C10-   C11-   H20
     4      3     10     11      9     0.00   0.00000   0 ;     C4-    C3-   C10-   C11
     4      3     10     31      9   180.00   1.08784   3 ;     C4-    C3-   C10-   H17
     4      3     10     32      9   180.00   1.08784   3 ;     C4-    C3-   C10-   H18
     5     14     12      9      9     0.00   1.60247   3 ;     C5-    O2-   C12-    C9
     5     14     12      9      9   180.00   3.34720   1 ;     C5-    O2-   C12-    C9
     5     14     12     11      9     0.00   1.60247   3 ;     C5-    O2-   C12-   C11
     5     14     12     11      9   180.00   3.34720   1 ;     C5-    O2-   C12-   C11
     6      4      3     10      9     0.00   0.62760   1 ;     C6-    C4-    C3-   C10
     6      4      3     10      9   180.00   5.56472   3 ;     C6-    C4-    C3-   C10
     6      4      3     10      9   180.00  24.18352   2 ;     C6-    C4-    C3-   C10
     6      4      3     18      9   180.00  27.82360   2 ;     C6-    C4-    C3-    H4
     6      4      7     22      9     0.00   0.62760   3 ;     C6-    C4-    C7-    H8
     6      4      7     23      9     0.00   0.62760   3 ;     C6-    C4-    C7-    H9
     6      4      7     24      9     0.00   0.62760   3 ;     C6-    C4-    C7-   H10
     7      4      3     10      9     0.00   0.62760   1 ;     C7-    C4-    C3-   C10
     7      4      3     10      9   180.00   5.56472   3 ;     C7-    C4-    C3-   C10
     7      4      3     10      9   180.00  24.18352   2 ;     C7-    C4-    C3-   C10
     7      4      3     18      9   180.00  27.82360   2 ;     C7-    C4-    C3-    H4
     7      4      6     19      9     0.00   0.62760   3 ;     C7-    C4-    C6-    H5
     7      4      6     20      9     0.00   0.62760   3 ;     C7-    C4-    C6-    H6
     7      4      6     21      9     0.00   0.62760   3 ;     C7-    C4-    C6-    H7
     8      5     14     12      9     0.00   3.13800   3 ;     C8-    C5-    O2-   C12
     8      5     14     12      9   180.00   7.90776   1 ;     C8-    C5-    O2-   C12
     8      5     14     12      9   180.00  13.76536   2 ;     C8-    C5-    O2-   C12
     9     12      2     17      9     0.00   0.00000   0 ;     C9-   C12-    C2-    H3
     9     12     11     10      9     0.00   2.17568   3 ;     C9-   C12-   C11-   C10
     9     12     11     33      9     0.00   0.54392   3 ;     C9-   C12-   C11-   H19
     9     12     11     34      9     0.00   0.54392   3 ;     C9-   C12-   C11-   H20
    10     11     12     14      9     0.00   0.65084   3 ;    C10-   C11-   C12-    O2
    11     10      3     18      9     0.00   0.00000   0 ;    C11-   C10-    C3-    H4
    11     12      2     17      9     0.00   0.00000   0 ;    C11-   C12-    C2-    H3
    11     12      9     28      9     0.00   0.54392   3 ;    C11-   C12-    C9-   H14
    11     12      9     29      9     0.00   0.54392   3 ;    C11-   C12-    C9-   H15
    11     12      9     30      9     0.00   0.54392   3 ;    C11-   C12-    C9-   H16
    12     11     10     31      9     0.00   0.54392   3 ;    C12-   C11-   C10-   H17
    12     11     10     32      9     0.00   0.54392   3 ;    C12-   C11-   C10-   H18
    12     14      5     13      9   180.00   5.85760   1 ;    C12-    O2-    C5-    O1
    12     14      5     13      9   180.00  11.29680   2 ;    C12-    O2-    C5-    O1
    13      5      8     25      9     0.00  16.86152   1 ;     O1-    C5-    C8-   H11
    13      5      8     25      9   180.00  15.31344   2 ;     O1-    C5-    C8-   H11
    13      5      8     26      9     0.00  16.86152   1 ;     O1-    C5-    C8-   H12
    13      5      8     26      9   180.00  15.31344   2 ;     O1-    C5-    C8-   H12
    13      5      8     27      9     0.00  16.86152   1 ;     O1-    C5-    C8-   H13
    13      5      8     27      9   180.00  15.31344   2 ;     O1-    C5-    C8-   H13
    14      5      8     25      9   180.00   0.00000   2 ;     O2-    C5-    C8-   H11
    14      5      8     26      9   180.00   0.00000   2 ;     O2-    C5-    C8-   H12
    14      5      8     27      9   180.00   0.00000   2 ;     O2-    C5-    C8-   H13
    14     12      2     17      9     0.00   0.00000   0 ;     O2-   C12-    C2-    H3
    14     12      9     28      9     0.00   0.00000   0 ;     O2-   C12-    C9-   H14
    14     12      9     28      9     0.00   1.04600   1 ;     O2-   C12-    C9-   H14
    14     12      9     29      9     0.00   0.00000   0 ;     O2-   C12-    C9-   H15
    14     12      9     29      9     0.00   1.04600   1 ;     O2-   C12-    C9-   H15
    14     12      9     30      9     0.00   0.00000   0 ;     O2-   C12-    C9-   H16
    14     12      9     30      9     0.00   1.04600   1 ;     O2-   C12-    C9-   H16
    14     12     11     33      9     0.00   0.00000   0 ;     O2-   C12-   C11-   H19
    14     12     11     33      9     0.00   1.04600   1 ;     O2-   C12-   C11-   H19
    14     12     11     34      9     0.00   0.00000   0 ;     O2-   C12-   C11-   H20
    14     12     11     34      9     0.00   1.04600   1 ;     O2-   C12-   C11-   H20
    15      1      2     12      9   180.00  27.82360   2 ;     H1-    C1-    C2-   C12
    15      1      2     17      9   180.00  27.82360   2 ;     H1-    C1-    C2-    H3
    16      1      2     12      9   180.00  27.82360   2 ;     H2-    C1-    C2-   C12
    16      1      2     17      9   180.00  27.82360   2 ;     H2-    C1-    C2-    H3
    18      3     10     31      9     0.00   0.00000   0 ;     H4-    C3-   C10-   H17
    18      3     10     32      9     0.00   0.00000   0 ;     H4-    C3-   C10-   H18
    31     10     11     33      9     0.00   0.50208   3 ;    H17-   C10-   C11-   H19
    31     10     11     34      9     0.00   0.50208   3 ;    H17-   C10-   C11-   H20
    32     10     11     33      9     0.00   0.50208   3 ;    H18-   C10-   C11-   H19
    32     10     11     34      9     0.00   0.50208   3 ;    H18-   C10-   C11-   H20

[ dihedrals ] ; impropers
; treated as propers in GROMACS to use correct AMBER analytical function
;    i      j      k      l   func   phase     kd      pn
     1     12      2     17      4   180.00   4.60240   2 ;     C1-   C12-    C2-    H3
     3      6      4      7      4   180.00   4.60240   2 ;     C3-    C6-    C4-    C7
     4     10      3     18      4   180.00   4.60240   2 ;     C4-   C10-    C3-    H4
     8     13      5     14      4   180.00   4.60240   2 ;     C8-    O1-    C5-    O2
    16      1     15      2      4   180.00   4.60240   2 ;     H2-    C1-    H1-    C2
