; mobley_6935906_GMX_OPLS.itp created by acpype (v: 2023.10.27) on Wed May 20 23:45:15 2026

; For OPLS atomtypes manual fine tuning
; AC_at:OPLS_at:OPLScode: Possible_Alternatives (see ffoplsaa.atp and ffoplsaanb.itp)
; c2:CR:opls_509: ['510']
; c:C:opls_235: ['271']
; c3:CT:opls_135: ['136', '137', '149', '157', '158', '206', '209', '210', '223B', '224B', '245', '246', '274', '283', '284', '285', '292', '292B', '293B', '296', '307', '308', '505']
; o:O:opls_236: ['272']
; os:x:opls_x: []
; ha:HA:opls_146: []
; hc:HC:opls_140: []

[ moleculetype ]
;name            nrexcl
 mobley_6935906   3

[ atoms ]
;   nr  type  resi  res  atom  cgnr     charge      mass       ; qtot   bond_type
     1 opls_509     1   MOL    C1    1    -0.212000     12.01100 ; qtot -0.212  CR  
     2 opls_509     1   MOL    C2    2    -0.172200     12.01100 ; qtot -0.384  CR  
     3 opls_509     1   MOL    C3    3    -0.176200     12.01100 ; qtot -0.560  CR  
     4 opls_509     1   MOL    C4    4    -0.124400     12.01100 ; qtot -0.685  CR  
     5 opls_235     1   MOL    C5    5     0.640101     12.01100 ; qtot -0.045  C   
     6 opls_135     1   MOL    C6    6    -0.057400     12.01100 ; qtot -0.102  CT  
     7 opls_135     1   MOL    C7    7    -0.057400     12.01100 ; qtot -0.159  CT  
     8 opls_135     1   MOL    C8    8    -0.153100     12.01100 ; qtot -0.313  CT  
     9 opls_135     1   MOL    C9    9    -0.119100     12.01100 ; qtot -0.432  CT  
    10 opls_135     1   MOL   C10   10    -0.045200     12.01100 ; qtot -0.477  CT  
    11 opls_135     1   MOL   C11   11    -0.064400     12.01100 ; qtot -0.541  CT  
    12 opls_135     1   MOL   C12   12     0.203000     12.01100 ; qtot -0.338  CT  
    13 opls_236     1   MOL    O1   13    -0.545000     15.99940 ; qtot -0.883  O   
    14 opls_x     1   MOL    O2   14    -0.444900      0.00000 ; qtot -1.328  x   
    15 opls_146     1   MOL    H1   15     0.113500      1.00800 ; qtot -1.215  HA  
    16 opls_146     1   MOL    H2   16     0.113500      1.00800 ; qtot -1.101  HA  
    17 opls_146     1   MOL    H3   17     0.138000      1.00800 ; qtot -0.963  HA  
    18 opls_146     1   MOL    H4   18     0.120000      1.00800 ; qtot -0.843  HA  
    19 opls_140     1   MOL    H5   19     0.040033      1.00800 ; qtot -0.803  HC  
    20 opls_140     1   MOL    H6   20     0.040033      1.00800 ; qtot -0.763  HC  
    21 opls_140     1   MOL    H7   21     0.040033      1.00800 ; qtot -0.723  HC  
    22 opls_140     1   MOL    H8   22     0.040033      1.00800 ; qtot -0.683  HC  
    23 opls_140     1   MOL    H9   23     0.040033      1.00800 ; qtot -0.643  HC  
    24 opls_140     1   MOL   H10   24     0.040033      1.00800 ; qtot -0.603  HC  
    25 opls_140     1   MOL   H11   25     0.074367      1.00800 ; qtot -0.529  HC  
    26 opls_140     1   MOL   H12   26     0.074367      1.00800 ; qtot -0.454  HC  
    27 opls_140     1   MOL   H13   27     0.074367      1.00800 ; qtot -0.380  HC  
    28 opls_140     1   MOL   H14   28     0.053700      1.00800 ; qtot -0.326  HC  
    29 opls_140     1   MOL   H15   29     0.053700      1.00800 ; qtot -0.273  HC  
    30 opls_140     1   MOL   H16   30     0.053700      1.00800 ; qtot -0.219  HC  
    31 opls_140     1   MOL   H17   31     0.056700      1.00800 ; qtot -0.162  HC  
    32 opls_140     1   MOL   H18   32     0.056700      1.00800 ; qtot -0.105  HC  
    33 opls_140     1   MOL   H19   33     0.052700      1.00800 ; qtot -0.053  HC  
    34 opls_140     1   MOL   H20   34     0.052700      1.00800 ; qtot -0.000  HC  

[ bonds ]
;   ai     aj funct   r             k
     1      2   1 ;    1.3379e-01    3.6484e+05 ;     C1 - C2         CR - CR    
     1     15   1 ;    1.0882e-01    2.9898e+05 ;     C1 - H1         CR - HA    
     1     16   1 ;    1.0882e-01    2.9898e+05 ;     C1 - H2         CR - HA    
     2     12   1 ;    1.5088e-01    2.0786e+05 ;     C2 - C12        CR - CT    
     2     17   1 ;    1.0882e-01    2.9898e+05 ;     C2 - H3         CR - HA    
     3      4   1 ;    1.3379e-01    3.6484e+05 ;     C3 - C4         CR - CR    
     3     10   1 ;    1.5088e-01    2.0786e+05 ;     C3 - C10        CR - CT    
     3     18   1 ;    1.0882e-01    2.9898e+05 ;     C3 - H4         CR - HA    
     4      6   1 ;    1.5088e-01    2.0786e+05 ;     C4 - C6         CR - CT    
     4      7   1 ;    1.5088e-01    2.0786e+05 ;     C4 - C7         CR - CT    
     5      8   1 ;    1.5270e-01    1.9652e+05 ;     C5 - C8          C - CT    
     5     13   1 ;    1.2190e-01    4.9421e+05 ;     C5 - O1          C - O     
     5     14   1 ;    1.3621e-01    2.9398e+05 ;     C5 - O2          C - x     
     6     19   1 ;    1.0962e-01    2.8891e+05 ;     C6 - H5         CT - HC    
     6     20   1 ;    1.0962e-01    2.8891e+05 ;     C6 - H6         CT - HC    
     6     21   1 ;    1.0962e-01    2.8891e+05 ;     C6 - H7         CT - HC    
     7     22   1 ;    1.0962e-01    2.8891e+05 ;     C7 - H8         CT - HC    
     7     23   1 ;    1.0962e-01    2.8891e+05 ;     C7 - H9         CT - HC    
     7     24   1 ;    1.0962e-01    2.8891e+05 ;     C7 - H10        CT - HC    
     8     25   1 ;    1.0962e-01    2.8891e+05 ;     C8 - H11        CT - HC    
     8     26   1 ;    1.0962e-01    2.8891e+05 ;     C8 - H12        CT - HC    
     8     27   1 ;    1.0962e-01    2.8891e+05 ;     C8 - H13        CT - HC    
     9     12   1 ;    1.5354e-01    1.9154e+05 ;     C9 - C12        CT - CT    
     9     28   1 ;    1.0962e-01    2.8891e+05 ;     C9 - H14        CT - HC    
     9     29   1 ;    1.0962e-01    2.8891e+05 ;     C9 - H15        CT - HC    
     9     30   1 ;    1.0962e-01    2.8891e+05 ;     C9 - H16        CT - HC    
    10     11   1 ;    1.5354e-01    1.9154e+05 ;    C10 - C11        CT - CT    
    10     31   1 ;    1.0962e-01    2.8891e+05 ;    C10 - H17        CT - HC    
    10     32   1 ;    1.0962e-01    2.8891e+05 ;    C10 - H18        CT - HC    
    11     12   1 ;    1.5354e-01    1.9154e+05 ;    C11 - C12        CT - CT    
    11     33   1 ;    1.0962e-01    2.8891e+05 ;    C11 - H19        CT - HC    
    11     34   1 ;    1.0962e-01    2.8891e+05 ;    C11 - H20        CT - HC    
    12     14   1 ;    1.4273e-01    2.3620e+05 ;    C12 - O2         CT - x     

[ pairs ]
;   ai     aj    funct
     1      9      1 ;     C1 - C9    
     1     11      1 ;     C1 - C11   
     1     14      1 ;     C1 - O2    
     2      5      1 ;     C2 - C5    
     2     10      1 ;     C2 - C10   
     2     28      1 ;     C2 - H14   
     2     29      1 ;     C2 - H15   
     2     30      1 ;     C2 - H16   
     2     33      1 ;     C2 - H19   
     2     34      1 ;     C2 - H20   
     3     12      1 ;     C3 - C12   
     3     19      1 ;     C3 - H5    
     3     20      1 ;     C3 - H6    
     3     21      1 ;     C3 - H7    
     3     22      1 ;     C3 - H8    
     3     23      1 ;     C3 - H9    
     3     24      1 ;     C3 - H10   
     3     33      1 ;     C3 - H19   
     3     34      1 ;     C3 - H20   
     4     11      1 ;     C4 - C11   
     4     31      1 ;     C4 - H17   
     4     32      1 ;     C4 - H18   
     5      9      1 ;     C5 - C9    
     5     11      1 ;     C5 - C11   
     6     10      1 ;     C6 - C10   
     6     18      1 ;     C6 - H4    
     6     22      1 ;     C6 - H8    
     6     23      1 ;     C6 - H9    
     6     24      1 ;     C6 - H10   
     7     10      1 ;     C7 - C10   
     7     18      1 ;     C7 - H4    
     7     19      1 ;     C7 - H5    
     7     20      1 ;     C7 - H6    
     7     21      1 ;     C7 - H7    
     8     12      1 ;     C8 - C12   
     9     10      1 ;     C9 - C10   
     9     17      1 ;     C9 - H3    
     9     33      1 ;     C9 - H19   
     9     34      1 ;     C9 - H20   
    10     14      1 ;    C10 - O2    
    11     17      1 ;    C11 - H3    
    11     18      1 ;    C11 - H4    
    11     28      1 ;    C11 - H14   
    11     29      1 ;    C11 - H15   
    11     30      1 ;    C11 - H16   
    12     13      1 ;    C12 - O1    
    12     31      1 ;    C12 - H17   
    12     32      1 ;    C12 - H18   
    13     25      1 ;     O1 - H11   
    13     26      1 ;     O1 - H12   
    13     27      1 ;     O1 - H13   
    14     17      1 ;     O2 - H3    
    14     25      1 ;     O2 - H11   
    14     26      1 ;     O2 - H12   
    14     27      1 ;     O2 - H13   
    14     28      1 ;     O2 - H14   
    14     29      1 ;     O2 - H15   
    14     30      1 ;     O2 - H16   
    14     33      1 ;     O2 - H19   
    14     34      1 ;     O2 - H20   
    15     12      1 ;     H1 - C12   
    15     17      1 ;     H1 - H3    
    16     12      1 ;     H2 - C12   
    16     17      1 ;     H2 - H3    
    18     31      1 ;     H4 - H17   
    18     32      1 ;     H4 - H18   
    31     33      1 ;    H17 - H19   
    31     34      1 ;    H17 - H20   
    32     33      1 ;    H18 - H19   
    32     34      1 ;    H18 - H20   

[ angles ]
;   ai     aj     ak    funct   theta         cth
     1      2     12      1 ;    1.2495e+02    5.0944e+02 ;     C1 - C2   - C12      CR -   CR - CT  
     1      2     17      1 ;    1.2039e+02    3.8802e+02 ;     C1 - C2   - H3       CR -   CR - HA  
     2      1     15      1 ;    1.2039e+02    3.8802e+02 ;     C2 - C1   - H1       CR -   CR - HA  
     2      1     16      1 ;    1.2039e+02    3.8802e+02 ;     C2 - C1   - H2       CR -   CR - HA  
     2     12      9      1 ;    1.1258e+02    5.0543e+02 ;     C2 - C12  - C9       CR -   CT - CT  
     2     12     11      1 ;    1.1258e+02    5.0543e+02 ;     C2 - C12  - C11      CR -   CT - CT  
     2     12     14      1 ;    1.0821e+02    6.5287e+02 ;     C2 - C12  - O2       CR -   CT - x   
     3      4      6      1 ;    1.2495e+02    5.0944e+02 ;     C3 - C4   - C6       CR -   CR - CT  
     3      4      7      1 ;    1.2495e+02    5.0944e+02 ;     C3 - C4   - C7       CR -   CR - CT  
     3     10     11      1 ;    1.1258e+02    5.0543e+02 ;     C3 - C10  - C11      CR -   CT - CT  
     3     10     31      1 ;    1.1065e+02    3.6618e+02 ;     C3 - C10  - H17      CR -   CT - HC  
     3     10     32      1 ;    1.1065e+02    3.6618e+02 ;     C3 - C10  - H18      CR -   CT - HC  
     4      3     10      1 ;    1.2495e+02    5.0944e+02 ;     C4 - C3   - C10      CR -   CR - CT  
     4      3     18      1 ;    1.2039e+02    3.8802e+02 ;     C4 - C3   - H4       CR -   CR - HA  
     4      6     19      1 ;    1.1065e+02    3.6618e+02 ;     C4 - C6   - H5       CR -   CT - HC  
     4      6     20      1 ;    1.1065e+02    3.6618e+02 ;     C4 - C6   - H6       CR -   CT - HC  
     4      6     21      1 ;    1.1065e+02    3.6618e+02 ;     C4 - C6   - H7       CR -   CT - HC  
     4      7     22      1 ;    1.1065e+02    3.6618e+02 ;     C4 - C7   - H8       CR -   CT - HC  
     4      7     23      1 ;    1.1065e+02    3.6618e+02 ;     C4 - C7   - H9       CR -   CT - HC  
     4      7     24      1 ;    1.1065e+02    3.6618e+02 ;     C4 - C7   - H10      CR -   CT - HC  
     5      8     25      1 ;    1.0895e+02    3.6510e+02 ;     C5 - C8   - H11       C -   CT - HC  
     5      8     26      1 ;    1.0895e+02    3.6510e+02 ;     C5 - C8   - H12       C -   CT - HC  
     5      8     27      1 ;    1.0895e+02    3.6510e+02 ;     C5 - C8   - H13       C -   CT - HC  
     5     14     12      1 ;    1.1582e+02    7.4835e+02 ;     C5 - O2   - C12       C -    x - CT  
     6      4      7      1 ;    1.1501e+02    5.0459e+02 ;     C6 - C4   - C7       CT -   CR - CT  
     8      5     13      1 ;    1.2290e+02    6.3973e+02 ;     C8 - C5   - O1       CT -    C - O   
     8      5     14      1 ;    1.1080e+02    6.5245e+02 ;     C8 - C5   - O2       CT -    C - x   
     9     12     11      1 ;    1.1263e+02    5.0099e+02 ;     C9 - C12  - C11      CT -   CT - CT  
     9     12     14      1 ;    1.0762e+02    6.4802e+02 ;     C9 - C12  - O2       CT -   CT - x   
    10      3     18      1 ;    1.1505e+02    3.5941e+02 ;    C10 - C3   - H4       CT -   CR - HA  
    10     11     12      1 ;    1.1263e+02    5.0099e+02 ;    C10 - C11  - C12      CT -   CT - CT  
    10     11     33      1 ;    1.0968e+02    3.6208e+02 ;    C10 - C11  - H19      CT -   CT - HC  
    10     11     34      1 ;    1.0968e+02    3.6208e+02 ;    C10 - C11  - H20      CT -   CT - HC  
    11     10     31      1 ;    1.0968e+02    3.6208e+02 ;    C11 - C10  - H17      CT -   CT - HC  
    11     10     32      1 ;    1.0968e+02    3.6208e+02 ;    C11 - C10  - H18      CT -   CT - HC  
    11     12     14      1 ;    1.0762e+02    6.4802e+02 ;    C11 - C12  - O2       CT -   CT - x   
    12      2     17      1 ;    1.1505e+02    3.5941e+02 ;    C12 - C2   - H3       CT -   CR - HA  
    12      9     28      1 ;    1.0968e+02    3.6208e+02 ;    C12 - C9   - H14      CT -   CT - HC  
    12      9     29      1 ;    1.0968e+02    3.6208e+02 ;    C12 - C9   - H15      CT -   CT - HC  
    12      9     30      1 ;    1.0968e+02    3.6208e+02 ;    C12 - C9   - H16      CT -   CT - HC  
    12     11     33      1 ;    1.0968e+02    3.6208e+02 ;    C12 - C11  - H19      CT -   CT - HC  
    12     11     34      1 ;    1.0968e+02    3.6208e+02 ;    C12 - C11  - H20      CT -   CT - HC  
    13      5     14      1 ;    1.2320e+02    8.4734e+02 ;     O1 - C5   - O2        O -    C - x   
    15      1     16      1 ;    1.1666e+02    2.9003e+02 ;     H1 - C1   - H2       HA -   CR - HA  
    19      6     20      1 ;    1.0773e+02    2.9957e+02 ;     H5 - C6   - H6       HC -   CT - HC  
    19      6     21      1 ;    1.0773e+02    2.9957e+02 ;     H5 - C6   - H7       HC -   CT - HC  
    20      6     21      1 ;    1.0773e+02    2.9957e+02 ;     H6 - C6   - H7       HC -   CT - HC  
    22      7     23      1 ;    1.0773e+02    2.9957e+02 ;     H8 - C7   - H9       HC -   CT - HC  
    22      7     24      1 ;    1.0773e+02    2.9957e+02 ;     H8 - C7   - H10      HC -   CT - HC  
    23      7     24      1 ;    1.0773e+02    2.9957e+02 ;     H9 - C7   - H10      HC -   CT - HC  
    25      8     26      1 ;    1.0773e+02    2.9957e+02 ;    H11 - C8   - H12      HC -   CT - HC  
    25      8     27      1 ;    1.0773e+02    2.9957e+02 ;    H11 - C8   - H13      HC -   CT - HC  
    26      8     27      1 ;    1.0773e+02    2.9957e+02 ;    H12 - C8   - H13      HC -   CT - HC  
    28      9     29      1 ;    1.0773e+02    2.9957e+02 ;    H14 - C9   - H15      HC -   CT - HC  
    28      9     30      1 ;    1.0773e+02    2.9957e+02 ;    H14 - C9   - H16      HC -   CT - HC  
    29      9     30      1 ;    1.0773e+02    2.9957e+02 ;    H15 - C9   - H16      HC -   CT - HC  
    31     10     32      1 ;    1.0773e+02    2.9957e+02 ;    H17 - C10  - H18      HC -   CT - HC  
    33     11     34      1 ;    1.0773e+02    2.9957e+02 ;    H19 - C11  - H20      HC -   CT - HC  

[ dihedrals ] ; propers
; for gromacs 4.5 or higher, using funct 9
;    i      j      k      l   func   phase     kd      pn
     1      2     12      9      9 ;     0.00   0.00000   0 ;     C1-    C2-   C12-    C9
     1      2     12     11      9 ;     0.00   0.00000   0 ;     C1-    C2-   C12-   C11
     1      2     12     14      9 ;     0.00   0.00000   0 ;     C1-    C2-   C12-    O2
     2     12      9     28      9 ;     0.00   0.65084   3 ;     C2-   C12-    C9-   H14
     2     12      9     29      9 ;     0.00   0.65084   3 ;     C2-   C12-    C9-   H15
     2     12      9     30      9 ;     0.00   0.65084   3 ;     C2-   C12-    C9-   H16
     2     12     11     10      9 ;     0.00   0.65084   3 ;     C2-   C12-   C11-   C10
     2     12     11     33      9 ;     0.00   0.65084   3 ;     C2-   C12-   C11-   H19
     2     12     11     34      9 ;     0.00   0.65084   3 ;     C2-   C12-   C11-   H20
     2     12     14      5      9 ;     0.00   1.60387   3 ;     C2-   C12-    O2-    C5
     3      4      6     19      9 ;   180.00   1.08784   3 ;     C3-    C4-    C6-    H5
     3      4      6     20      9 ;   180.00   1.08784   3 ;     C3-    C4-    C6-    H6
     3      4      6     21      9 ;   180.00   1.08784   3 ;     C3-    C4-    C6-    H7
     3      4      7     22      9 ;   180.00   1.08784   3 ;     C3-    C4-    C7-    H8
     3      4      7     23      9 ;   180.00   1.08784   3 ;     C3-    C4-    C7-    H9
     3      4      7     24      9 ;   180.00   1.08784   3 ;     C3-    C4-    C7-   H10
     3     10     11     12      9 ;     0.00   0.65084   3 ;     C3-   C10-   C11-   C12
     3     10     11     33      9 ;     0.00   0.65084   3 ;     C3-   C10-   C11-   H19
     3     10     11     34      9 ;     0.00   0.65084   3 ;     C3-   C10-   C11-   H20
     4      3     10     11      9 ;     0.00   0.00000   0 ;     C4-    C3-   C10-   C11
     4      3     10     31      9 ;   180.00   1.08784   3 ;     C4-    C3-   C10-   H17
     4      3     10     32      9 ;   180.00   1.08784   3 ;     C4-    C3-   C10-   H18
     5     14     12      9      9 ;     0.00   1.60247   3 ;     C5-    O2-   C12-    C9
     5     14     12      9      9 ;   180.00   3.34720   1 ;     C5-    O2-   C12-    C9
     5     14     12     11      9 ;     0.00   1.60247   3 ;     C5-    O2-   C12-   C11
     5     14     12     11      9 ;   180.00   3.34720   1 ;     C5-    O2-   C12-   C11
     6      4      3     10      9 ;     0.00   0.62760   1 ;     C6-    C4-    C3-   C10
     6      4      3     10      9 ;   180.00   5.56472   3 ;     C6-    C4-    C3-   C10
     6      4      3     10      9 ;   180.00  24.18352   2 ;     C6-    C4-    C3-   C10
     6      4      3     18      9 ;   180.00  27.82360   2 ;     C6-    C4-    C3-    H4
     6      4      7     22      9 ;     0.00   0.62760   3 ;     C6-    C4-    C7-    H8
     6      4      7     23      9 ;     0.00   0.62760   3 ;     C6-    C4-    C7-    H9
     6      4      7     24      9 ;     0.00   0.62760   3 ;     C6-    C4-    C7-   H10
     7      4      3     10      9 ;     0.00   0.62760   1 ;     C7-    C4-    C3-   C10
     7      4      3     10      9 ;   180.00   5.56472   3 ;     C7-    C4-    C3-   C10
     7      4      3     10      9 ;   180.00  24.18352   2 ;     C7-    C4-    C3-   C10
     7      4      3     18      9 ;   180.00  27.82360   2 ;     C7-    C4-    C3-    H4
     7      4      6     19      9 ;     0.00   0.62760   3 ;     C7-    C4-    C6-    H5
     7      4      6     20      9 ;     0.00   0.62760   3 ;     C7-    C4-    C6-    H6
     7      4      6     21      9 ;     0.00   0.62760   3 ;     C7-    C4-    C6-    H7
     8      5     14     12      9 ;     0.00   3.13800   3 ;     C8-    C5-    O2-   C12
     8      5     14     12      9 ;   180.00   7.90776   1 ;     C8-    C5-    O2-   C12
     8      5     14     12      9 ;   180.00  13.76536   2 ;     C8-    C5-    O2-   C12
     9     12      2     17      9 ;     0.00   0.00000   0 ;     C9-   C12-    C2-    H3
     9     12     11     10      9 ;     0.00   2.17568   3 ;     C9-   C12-   C11-   C10
     9     12     11     33      9 ;     0.00   0.54392   3 ;     C9-   C12-   C11-   H19
     9     12     11     34      9 ;     0.00   0.54392   3 ;     C9-   C12-   C11-   H20
    10     11     12     14      9 ;     0.00   0.65084   3 ;    C10-   C11-   C12-    O2
    11     10      3     18      9 ;     0.00   0.00000   0 ;    C11-   C10-    C3-    H4
    11     12      2     17      9 ;     0.00   0.00000   0 ;    C11-   C12-    C2-    H3
    11     12      9     28      9 ;     0.00   0.54392   3 ;    C11-   C12-    C9-   H14
    11     12      9     29      9 ;     0.00   0.54392   3 ;    C11-   C12-    C9-   H15
    11     12      9     30      9 ;     0.00   0.54392   3 ;    C11-   C12-    C9-   H16
    12     11     10     31      9 ;     0.00   0.54392   3 ;    C12-   C11-   C10-   H17
    12     11     10     32      9 ;     0.00   0.54392   3 ;    C12-   C11-   C10-   H18
    12     14      5     13      9 ;   180.00   5.85760   1 ;    C12-    O2-    C5-    O1
    12     14      5     13      9 ;   180.00  11.29680   2 ;    C12-    O2-    C5-    O1
    13      5      8     25      9 ;     0.00  16.86152   1 ;     O1-    C5-    C8-   H11
    13      5      8     25      9 ;   180.00  15.31344   2 ;     O1-    C5-    C8-   H11
    13      5      8     26      9 ;     0.00  16.86152   1 ;     O1-    C5-    C8-   H12
    13      5      8     26      9 ;   180.00  15.31344   2 ;     O1-    C5-    C8-   H12
    13      5      8     27      9 ;     0.00  16.86152   1 ;     O1-    C5-    C8-   H13
    13      5      8     27      9 ;   180.00  15.31344   2 ;     O1-    C5-    C8-   H13
    14      5      8     25      9 ;   180.00   0.00000   2 ;     O2-    C5-    C8-   H11
    14      5      8     26      9 ;   180.00   0.00000   2 ;     O2-    C5-    C8-   H12
    14      5      8     27      9 ;   180.00   0.00000   2 ;     O2-    C5-    C8-   H13
    14     12      2     17      9 ;     0.00   0.00000   0 ;     O2-   C12-    C2-    H3
    14     12      9     28      9 ;     0.00   0.00000   0 ;     O2-   C12-    C9-   H14
    14     12      9     28      9 ;     0.00   1.04600   1 ;     O2-   C12-    C9-   H14
    14     12      9     29      9 ;     0.00   0.00000   0 ;     O2-   C12-    C9-   H15
    14     12      9     29      9 ;     0.00   1.04600   1 ;     O2-   C12-    C9-   H15
    14     12      9     30      9 ;     0.00   0.00000   0 ;     O2-   C12-    C9-   H16
    14     12      9     30      9 ;     0.00   1.04600   1 ;     O2-   C12-    C9-   H16
    14     12     11     33      9 ;     0.00   0.00000   0 ;     O2-   C12-   C11-   H19
    14     12     11     33      9 ;     0.00   1.04600   1 ;     O2-   C12-   C11-   H19
    14     12     11     34      9 ;     0.00   0.00000   0 ;     O2-   C12-   C11-   H20
    14     12     11     34      9 ;     0.00   1.04600   1 ;     O2-   C12-   C11-   H20
    15      1      2     12      9 ;   180.00  27.82360   2 ;     H1-    C1-    C2-   C12
    15      1      2     17      9 ;   180.00  27.82360   2 ;     H1-    C1-    C2-    H3
    16      1      2     12      9 ;   180.00  27.82360   2 ;     H2-    C1-    C2-   C12
    16      1      2     17      9 ;   180.00  27.82360   2 ;     H2-    C1-    C2-    H3
    18      3     10     31      9 ;     0.00   0.00000   0 ;     H4-    C3-   C10-   H17
    18      3     10     32      9 ;     0.00   0.00000   0 ;     H4-    C3-   C10-   H18
    31     10     11     33      9 ;     0.00   0.50208   3 ;    H17-   C10-   C11-   H19
    31     10     11     34      9 ;     0.00   0.50208   3 ;    H17-   C10-   C11-   H20
    32     10     11     33      9 ;     0.00   0.50208   3 ;    H18-   C10-   C11-   H19
    32     10     11     34      9 ;     0.00   0.50208   3 ;    H18-   C10-   C11-   H20

[ dihedrals ] ; impropers
; treated as propers in GROMACS to use correct AMBER analytical function
;    i      j      k      l   func   phase     kd      pn
     1     12      2     17      4 ;   180.00   4.60240   2 ;     C1-   C12-    C2-    H3
     3      6      4      7      4 ;   180.00   4.60240   2 ;     C3-    C6-    C4-    C7
     4     10      3     18      4 ;   180.00   4.60240   2 ;     C4-   C10-    C3-    H4
     8     13      5     14      4 ;   180.00   4.60240   2 ;     C8-    O1-    C5-    O2
    16      1     15      2      4 ;   180.00   4.60240   2 ;     H2-    C1-    H1-    C2
