mobley_6935906_GMX.gro created by acpype (v: 2023.10.27) on Wed May 20 23:45:15 2026
 34
    1  MOL   C1    1  -0.144  -0.349  -0.199
    1  MOL   C2    2  -0.029  -0.281  -0.190
    1  MOL   C3    3   0.133  -0.119   0.187
    1  MOL   C4    4   0.073  -0.179   0.291
    1  MOL   C5    5   0.109  -0.126  -0.379
    1  MOL   C6    6   0.084  -0.134   0.434
    1  MOL   C7    7  -0.011  -0.302   0.271
    1  MOL   C8    8   0.240  -0.083  -0.438
    1  MOL   C9    9  -0.124  -0.047  -0.241
    1  MOL  C10   10   0.126  -0.158   0.042
    1  MOL  C11   11   0.008  -0.091  -0.028
    1  MOL  C12   12  -0.013  -0.131  -0.176
    1  MOL   O1   13   0.019  -0.179  -0.442
    1  MOL   O2   14   0.108  -0.095  -0.246
    1  MOL   H1   15  -0.146  -0.457  -0.209
    1  MOL   H2   16  -0.239  -0.297  -0.196
    1  MOL   H3   17   0.063  -0.338  -0.193
    1  MOL   H4   18   0.195  -0.031   0.206
    1  MOL   H5   19   0.004  -0.063   0.458
    1  MOL   H6   20   0.181  -0.084   0.451
    1  MOL   H7   21   0.076  -0.215   0.506
    1  MOL   H8   22   0.051  -0.392   0.279
    1  MOL   H9   23  -0.091  -0.310   0.345
    1  MOL  H10   24  -0.057  -0.300   0.171
    1  MOL  H11   25   0.233   0.020  -0.474
    1  MOL  H12   26   0.267  -0.151  -0.520
    1  MOL  H13   27   0.318  -0.088  -0.362
    1  MOL  H14   28  -0.105   0.060  -0.227
    1  MOL  H15   29  -0.134  -0.066  -0.349
    1  MOL  H16   30  -0.221  -0.067  -0.194
    1  MOL  H17   31   0.220  -0.128  -0.005
    1  MOL  H18   32   0.121  -0.267   0.031
    1  MOL  H19   33   0.019   0.019  -0.022
    1  MOL  H20   34  -0.085  -0.112   0.028
   11.13000    10.34400    20.51600
