%VERSION  VERSION_STAMP = V0001.000  DATE = 05/20/26  23:45:39                  
%FLAG TITLE                                                                     
%FORMAT(20a4)                                                                   
SAMPL4_002                                                                      
%FLAG POINTERS                                                                  
%FORMAT(10I8)                                                                   
      34       6      20      13      41      17      66      26       0       0
     167       1      13      17      26       9      17      25       7       0
       0       0       0       0       0       0       0       0      34       0
       0
%FLAG ATOM_NAME                                                                 
%FORMAT(20a4)                                                                   
C1  C2  C3  C4  C5  C6  C7  C8  C9  C10 C11 C12 O1  O2  H1  H2  H3  H4  H5  H6  
H7  H8  H9  H10 H11 H12 H13 H14 H15 H16 H17 H18 H19 H20 
%FLAG CHARGE                                                                    
%FORMAT(5E16.8)                                                                 
 -3.86312760E+00 -3.13788006E+00 -3.21076926E+00 -2.26685412E+00  1.16094273E+01
 -1.04596002E+00 -1.04596002E+00 -2.78983413E+00 -2.17027593E+00 -8.23647960E-01
 -1.17351612E+00  3.69912690E+00 -9.93115350E+00 -8.10710127E+00  2.06823105E+00
  2.06823105E+00  2.51467740E+00  2.18667600E+00  7.29493336E-01  7.29493336E-01
  7.29493336E-01  7.29493336E-01  7.29493336E-01  7.29493336E-01  1.35513778E+00
  1.35513778E+00  1.35513778E+00  9.78537510E-01  9.78537510E-01  9.78537510E-01
  1.03320441E+00  1.03320441E+00  9.60315210E-01  9.60315210E-01
%FLAG ATOMIC_NUMBER                                                             
%FORMAT(10I8)                                                                   
       6       6       6       6       6       6       6       6       6       6
       6       6       8       8       1       1       1       1       1       1
       1       1       1       1       1       1       1       1       1       1
       1       1       1       1
%FLAG MASS                                                                      
%FORMAT(5E16.8)                                                                 
  1.20100000E+01  1.20100000E+01  1.20100000E+01  1.20100000E+01  1.20100000E+01
  1.20100000E+01  1.20100000E+01  1.20100000E+01  1.20100000E+01  1.20100000E+01
  1.20100000E+01  1.20100000E+01  1.60000000E+01  1.60000000E+01  1.00800000E+00
  1.00800000E+00  1.00800000E+00  1.00800000E+00  1.00800000E+00  1.00800000E+00
  1.00800000E+00  1.00800000E+00  1.00800000E+00  1.00800000E+00  1.00800000E+00
  1.00800000E+00  1.00800000E+00  1.00800000E+00  1.00800000E+00  1.00800000E+00
  1.00800000E+00  1.00800000E+00  1.00800000E+00  1.00800000E+00
%FLAG ATOM_TYPE_INDEX                                                           
%FORMAT(10I8)                                                                   
       1       1       1       1       1       2       2       2       2       2
       2       2       3       4       5       5       5       5       6       6
       6       6       6       6       6       6       6       6       6       6
       6       6       6       6
%FLAG NUMBER_EXCLUDED_ATOMS                                                     
%FORMAT(10I8)                                                                   
       8      14      17      13       9       9       8       6      10       8
      11      12       4       9       2       1       1       2       2       1
       1       2       1       1       2       1       1       2       1       1
       3       2       1       1
%FLAG NONBONDED_PARM_INDEX                                                      
%FORMAT(10I8)                                                                   
       1       2       4       7      11      16       2       3       5       8
      12      17       4       5       6       9      13      18       7       8
       9      10      14      19      11      12      13      14      15      20
      16      17      18      19      20      21
%FLAG RESIDUE_LABEL                                                             
%FORMAT(20a4)                                                                   
MOL 
%FLAG RESIDUE_POINTER                                                           
%FORMAT(10I8)                                                                   
       1
%FLAG BOND_FORCE_CONSTANT                                                       
%FORMAT(5E16.8)                                                                 
  4.36000000E+02  3.57290000E+02  2.48400000E+02  2.34850000E+02  5.90600000E+02
  3.51310000E+02  3.45250000E+02  2.28890000E+02  2.82270000E+02
%FLAG BOND_EQUIL_VALUE                                                          
%FORMAT(5E16.8)                                                                 
  1.33790000E+00  1.08820000E+00  1.50880000E+00  1.52700000E+00  1.21900000E+00
  1.36210000E+00  1.09620000E+00  1.53540000E+00  1.42730000E+00
%FLAG ANGLE_FORCE_CONSTANT                                                      
%FORMAT(5E16.8)                                                                 
  6.08800000E+01  4.63700000E+01  6.04000000E+01  7.80200000E+01  4.37600000E+01
  4.36300000E+01  8.94300000E+01  6.03000000E+01  7.64500000E+01  7.79700000E+01
  5.98700000E+01  7.74400000E+01  4.29500000E+01  4.32700000E+01  1.01260000E+02
  3.46600000E+01  3.58000000E+01
%FLAG ANGLE_EQUIL_VALUE                                                         
%FORMAT(5E16.8)                                                                 
  2.18078984E+00  2.10120279E+00  1.96489251E+00  1.88862159E+00  1.93120765E+00
  1.90153704E+00  2.02144121E+00  2.00730403E+00  2.14501057E+00  1.93382564E+00
  1.96576518E+00  1.87832415E+00  2.00800217E+00  1.91427794E+00  2.15024656E+00
  2.03610198E+00  1.88024401E+00
%FLAG DIHEDRAL_FORCE_CONSTANT                                                   
%FORMAT(5E16.8)                                                                 
  0.00000000E+00  1.55555556E-01  3.83333333E-01  2.60000000E-01  8.00000000E-01
  3.83000000E-01  1.50000000E-01  5.78000000E+00  1.33000000E+00  6.65000000E+00
  1.50000000E-01  1.89000000E+00  3.29000000E+00  7.50000000E-01  5.20000000E-01
  1.30000000E-01  1.40000000E+00  2.70000000E+00  4.03000000E+00  3.66000000E+00
  0.00000000E+00  2.50000000E-01  0.00000000E+00  1.20000000E-01  1.10000000E+00
%FLAG DIHEDRAL_PERIODICITY                                                      
%FORMAT(5E16.8)                                                                 
  2.00000000E+00  3.00000000E+00  3.00000000E+00  3.00000000E+00  1.00000000E+00
  3.00000000E+00  1.00000000E+00  2.00000000E+00  3.00000000E+00  2.00000000E+00
  3.00000000E+00  1.00000000E+00  2.00000000E+00  3.00000000E+00  3.00000000E+00
  3.00000000E+00  1.00000000E+00  2.00000000E+00  1.00000000E+00  2.00000000E+00
  2.00000000E+00  1.00000000E+00  3.00000000E+00  3.00000000E+00  2.00000000E+00
%FLAG DIHEDRAL_PHASE                                                            
%FORMAT(5E16.8)                                                                 
  0.00000000E+00  0.00000000E+00  0.00000000E+00  3.14159400E+00  3.14159400E+00
  0.00000000E+00  0.00000000E+00  3.14159400E+00  3.14159400E+00  3.14159400E+00
  0.00000000E+00  3.14159400E+00  3.14159400E+00  0.00000000E+00  0.00000000E+00
  0.00000000E+00  3.14159400E+00  3.14159400E+00  0.00000000E+00  3.14159400E+00
  3.14159400E+00  0.00000000E+00  0.00000000E+00  0.00000000E+00  3.14159400E+00
%FLAG SCEE_SCALE_FACTOR                                                         
%FORMAT(5E16.8)                                                                 
  1.20000000E+00  1.20000000E+00  1.20000000E+00  1.20000000E+00  1.20000000E+00
  1.20000000E+00  1.20000000E+00  1.20000000E+00  1.20000000E+00  1.20000000E+00
  1.20000000E+00  1.20000000E+00  1.20000000E+00  1.20000000E+00  1.20000000E+00
  1.20000000E+00  1.20000000E+00  1.20000000E+00  1.20000000E+00  1.20000000E+00
  1.20000000E+00  1.20000000E+00  1.20000000E+00  1.20000000E+00  0.00000000E+00
%FLAG SCNB_SCALE_FACTOR                                                         
%FORMAT(5E16.8)                                                                 
  2.00000000E+00  2.00000000E+00  2.00000000E+00  2.00000000E+00  2.00000000E+00
  2.00000000E+00  2.00000000E+00  2.00000000E+00  2.00000000E+00  2.00000000E+00
  2.00000000E+00  2.00000000E+00  2.00000000E+00  2.00000000E+00  2.00000000E+00
  2.00000000E+00  2.00000000E+00  2.00000000E+00  2.00000000E+00  2.00000000E+00
  2.00000000E+00  2.00000000E+00  2.00000000E+00  2.00000000E+00  0.00000000E+00
%FLAG SOLTY                                                                     
%FORMAT(5E16.8)                                                                 
  0.00000000E+00  0.00000000E+00  0.00000000E+00  0.00000000E+00  0.00000000E+00
  0.00000000E+00  0.00000000E+00
%FLAG LENNARD_JONES_ACOEF                                                       
%FORMAT(5E16.8)                                                                 
  6.96551276E+05  8.43969952E+05  1.02073671E+06  5.17507491E+05  6.30925504E+05
  3.76435470E+05  4.46121722E+05  5.42502534E+05  3.27367585E+05  2.83662575E+05
  7.52549148E+04  9.27554496E+04  5.27277400E+04  4.65732396E+04  6.90855956E+03
  8.12662403E+04  1.00235148E+05  5.68021765E+04  5.02224902E+04  7.41026906E+03
  7.94617769E+03
%FLAG LENNARD_JONES_BCOEF                                                       
%FORMAT(5E16.8)                                                                 
  5.24668528E+02  5.90251928E+02  6.63431737E+02  4.98871431E+02  5.62969425E+02
  4.69350655E+02  3.88758656E+02  4.38146883E+02  3.67361018E+02  2.87011518E+02
  1.09570372E+02  1.24325688E+02  1.01173582E+02  7.98066064E+01  2.10929191E+01
  1.21392023E+02  1.37787728E+02  1.11953944E+02  8.83545880E+01  2.32899892E+01
  2.57122925E+01
%FLAG BONDS_INC_HYDROGEN                                                        
%FORMAT(10I8)                                                                   
       0      42       2       0      45       2       3      48       2       6
      51       2      15      54       7      15      57       7      15      60
       7      18      63       7      18      66       7      18      69       7
      21      72       7      21      75       7      21      78       7      24
      81       7      24      84       7      24      87       7      27      90
       7      27      93       7      30      96       7      30      99       7
%FLAG BONDS_WITHOUT_HYDROGEN                                                    
%FORMAT(10I8)                                                                   
       0       3       1       3      33       3       6       9       1       6
      27       3       9      15       3       9      18       3      12      21
       4      12      36       5      12      39       6      24      33       8
      27      30       8      30      33       8      33      39       9
%FLAG ANGLES_INC_HYDROGEN                                                       
%FORMAT(10I8)                                                                   
       0       3      48       2       3       0      42       2       3       0
      45       2       6      27      90       5       6      27      93       5
       9       6      51       2       9      15      54       5       9      15
      57       5       9      15      60       5       9      18      63       5
       9      18      66       5       9      18      69       5      12      21
      72       6      12      21      75       6      12      21      78       6
      27       6      51      13      27      30      96      14      27      30
      99      14      30      27      90      14      30      27      93      14
      33       3      48      13      33      24      81      14      33      24
      84      14      33      24      87      14      33      30      96      14
      33      30      99      14      42       0      45      16      54      15
      57      17      54      15      60      17      57      15      60      17
      63      18      66      17      63      18      69      17      66      18
      69      17      72      21      75      17      72      21      78      17
      75      21      78      17      81      24      84      17      81      24
      87      17      84      24      87      17      90      27      93      17
      96      30      99      17
%FLAG ANGLES_WITHOUT_HYDROGEN                                                   
%FORMAT(10I8)                                                                   
       0       3      33       1       3      33      24       3       3      33
      30       3       3      33      39       4       6       9      15       1
       6       9      18       1       6      27      30       3       9       6
      27       1      12      39      33       7      15       9      18       8
      21      12      36       9      21      12      39      10      24      33
      30      11      24      33      39      12      27      30      33      11
      30      33      39      12      36      12      39      15
%FLAG DIHEDRALS_INC_HYDROGEN                                                    
%FORMAT(10I8)                                                                   
       3      33      24      81       2       3      33      24      84       2
       3      33      24      87       2       3      33      30      96       2
       3      33      30      99       2       6       9      15      54       4
       6       9      15      57       4       6       9      15      60       4
       6       9      18      63       4       6       9      18      66       4
       6       9      18      69       4       6      27      30      96       2
       6      27      30      99       2       9       6      27      90       4
       9       6      27      93       4      15       9       6      51      10
      15       9      18      63      11      15       9      18      66      11
      15       9      18      69      11      18       9       6      51      10
      18       9      15      54      11      18       9      15      57      11
      18       9      15      60      11      24      33       3      48       1
      24      33      30      96      16      24      33      30      99      16
      30      27       6      51       1      30      33       3      48       1
      30      33      24      81      16      30      33      24      84      16
      30      33      24      87      16      42       0       3      33      10
      45       0       3      33      10      33      30      27      90      16
      33      30      27      93      16      36      12      21      72      19
      36      12     -21      72      20      36      12      21      75      19
      36      12     -21      75      20      36      12      21      78      19
      36      12     -21      78      20      39      12      21      72      21
      39      12      21      75      21      39      12      21      78      21
      39      33       3      48       1      39      33      24      81      22
      39      33     -24      81      23      39      33      24      84      22
      39      33     -24      84      23      39      33      24      87      22
      39      33     -24      87      23      39      33      30      96      22
      39      33     -30      96      23      39      33      30      99      22
      39      33     -30      99      23      42       0       3      48      10
      45       0       3      48      10      51       6      27      90       1
      51       6      27      93       1      90      27      30      96      24
      90      27      30      99      24      93      27      30      96      24
      93      27      30      99      24      45       0     -42      -3      25
       0      33      -3     -48      25       9      27      -6     -51      25
%FLAG DIHEDRALS_WITHOUT_HYDROGEN                                                
%FORMAT(10I8)                                                                   
       0       3      33      24       1       0       3      33      30       1
       0       3      33      39       1       3      33      30      27       2
       3      33      39      12       3       6      27      30      33       2
       9       6      27      30       1      12      39      33      24       5
      12      39     -33      24       6      12      39      33      30       5
      12      39     -33      30       6      15       9       6      27       7
      15       9      -6      27       8      15       9      -6      27       9
      18       9       6      27       7      18       9      -6      27       8
      18       9      -6      27       9      21      12      39      33      12
      21      12     -39      33      13      21      12     -39      33      14
      24      33      30      27      15      27      30      33      39       2
      33      39      12      36      17      33      39     -12      36      18
       6      15      -9     -18      25      21      36     -12     -39      25
%FLAG EXCLUDED_ATOMS_LIST                                                       
%FORMAT(10I8)                                                                   
       2       9      11      12      14      15      16      17       5       9
      10      11      12      14      15      16      17      28      29      30
      33      34       4       6       7      10      11      12      18      19
      20      21      22      23      24      31      32      33      34       6
       7      10      11      18      19      20      21      22      23      24
      31      32       8       9      11      12      13      14      25      26
      27       7      10      18      19      20      21      22      23      24
      10      18      19      20      21      22      23      24      12      13
      14      25      26      27      10      11      12      14      17      28
      29      30      33      34      11      12      14      18      31      32
      33      34      12      14      17      18      28      29      30      31
      32      33      34      13      14      15      16      17      28      29
      30      31      32      33      34      14      25      26      27      17
      25      26      27      28      29      30      33      34      16      17
      17       0      31      32      20      21      21       0      23      24
      24       0      26      27      27       0      29      30      30       0
      32      33      34      33      34      34       0
%FLAG HBOND_ACOEF                                                               
%FORMAT(5E16.8)                                                                 

%FLAG HBOND_BCOEF                                                               
%FORMAT(5E16.8)                                                                 

%FLAG HBCUT                                                                     
%FORMAT(5E16.8)                                                                 

%FLAG AMBER_ATOM_TYPE                                                           
%FORMAT(20a4)                                                                   
c2  c2  c2  c2  c   c3  c3  c3  c3  c3  c3  c3  o   os  ha  ha  ha  ha  hc  hc  
hc  hc  hc  hc  hc  hc  hc  hc  hc  hc  hc  hc  hc  hc  
%FLAG TREE_CHAIN_CLASSIFICATION                                                 
%FORMAT(20a4)                                                                   
BLA BLA BLA BLA BLA BLA BLA BLA BLA BLA BLA BLA BLA BLA BLA BLA BLA BLA BLA BLA 
BLA BLA BLA BLA BLA BLA BLA BLA BLA BLA BLA BLA BLA BLA 
%FLAG JOIN_ARRAY                                                                
%FORMAT(10I8)                                                                   
       0       0       0       0       0       0       0       0       0       0
       0       0       0       0       0       0       0       0       0       0
       0       0       0       0       0       0       0       0       0       0
       0       0       0       0
%FLAG IROTAT                                                                    
%FORMAT(10I8)                                                                   
       0       0       0       0       0       0       0       0       0       0
       0       0       0       0       0       0       0       0       0       0
       0       0       0       0       0       0       0       0       0       0
       0       0       0       0
%FLAG RADIUS_SET                                                                
%FORMAT(1a80)                                                                   
modified Bondi radii (mbondi)                                                   
%FLAG RADII                                                                     
%FORMAT(5E16.8)                                                                 
  1.70000000E+00  1.70000000E+00  1.70000000E+00  1.70000000E+00  1.70000000E+00
  1.70000000E+00  1.70000000E+00  1.70000000E+00  1.70000000E+00  1.70000000E+00
  1.70000000E+00  1.70000000E+00  1.50000000E+00  1.50000000E+00  1.30000000E+00
  1.30000000E+00  1.30000000E+00  1.30000000E+00  1.30000000E+00  1.30000000E+00
  1.30000000E+00  1.30000000E+00  1.30000000E+00  1.30000000E+00  1.30000000E+00
  1.30000000E+00  1.30000000E+00  1.30000000E+00  1.30000000E+00  1.30000000E+00
  1.30000000E+00  1.30000000E+00  1.30000000E+00  1.30000000E+00
%FLAG SCREEN                                                                    
%FORMAT(5E16.8)                                                                 
  7.20000000E-01  7.20000000E-01  7.20000000E-01  7.20000000E-01  7.20000000E-01
  7.20000000E-01  7.20000000E-01  7.20000000E-01  7.20000000E-01  7.20000000E-01
  7.20000000E-01  7.20000000E-01  8.50000000E-01  8.50000000E-01  8.50000000E-01
  8.50000000E-01  8.50000000E-01  8.50000000E-01  8.50000000E-01  8.50000000E-01
  8.50000000E-01  8.50000000E-01  8.50000000E-01  8.50000000E-01  8.50000000E-01
  8.50000000E-01  8.50000000E-01  8.50000000E-01  8.50000000E-01  8.50000000E-01
  8.50000000E-01  8.50000000E-01  8.50000000E-01  8.50000000E-01
%FLAG IPOL                                                                      
%FORMAT(1I8)                                                                    
       0
