%VERSION  VERSION_STAMP = V0001.000  DATE = 05/20/26  23:51:50                  
%FLAG TITLE                                                                     
%FORMAT(20a4)                                                                   
n_heptylamine                                                                   
%FLAG POINTERS                                                                  
%FORMAT(10I8)                                                                   
      25       5      17       7      39       6      55       5       0       0
     130       1       7       6       5       5       9       7       5       0
       0       0       0       0       0       0       0       0      25       0
       0
%FLAG ATOM_NAME                                                                 
%FORMAT(20a4)                                                                   
C1  C2  C3  C4  C5  C6  C7  N1  H1  H2  H3  H4  H5  H6  H7  H8  H9  H10 H11 H12 
H13 H14 H15 H16 H17 
%FLAG CHARGE                                                                    
%FORMAT(5E16.8)                                                                 
 -1.69649613E+00 -1.46507292E+00 -1.44685062E+00 -1.44685062E+00 -1.37396142E+00
 -2.23040952E+00  2.72970054E+00 -1.64875370E+01  5.95869210E-01  5.95869210E-01
  5.95869210E-01  7.05203010E-01  7.05203010E-01  7.23425310E-01  7.23425310E-01
  7.23425310E-01  7.23425310E-01  7.59869910E-01  7.59869910E-01  7.05203010E-01
  7.05203010E-01  9.42092910E-01  9.42092910E-01  6.26482674E+00  6.26482674E+00
%FLAG ATOMIC_NUMBER                                                             
%FORMAT(10I8)                                                                   
       6       6       6       6       6       6       6       7       1       1
       1       1       1       1       1       1       1       1       1       1
       1       1       1       1       1
%FLAG MASS                                                                      
%FORMAT(5E16.8)                                                                 
  1.20100000E+01  1.20100000E+01  1.20100000E+01  1.20100000E+01  1.20100000E+01
  1.20100000E+01  1.20100000E+01  1.40100000E+01  1.00800000E+00  1.00800000E+00
  1.00800000E+00  1.00800000E+00  1.00800000E+00  1.00800000E+00  1.00800000E+00
  1.00800000E+00  1.00800000E+00  1.00800000E+00  1.00800000E+00  1.00800000E+00
  1.00800000E+00  1.00800000E+00  1.00800000E+00  1.00800000E+00  1.00800000E+00
%FLAG ATOM_TYPE_INDEX                                                           
%FORMAT(10I8)                                                                   
       1       1       1       1       1       1       1       2       3       3
       3       3       3       3       3       3       3       3       3       3
       3       4       4       5       5
%FLAG NUMBER_EXCLUDED_ATOMS                                                     
%FORMAT(10I8)                                                                   
      10      12      14      13      13      12       9       6       4       3
       2       3       2       3       2       3       2       3       2       3
       2       3       2       1       1
%FLAG NONBONDED_PARM_INDEX                                                      
%FORMAT(10I8)                                                                   
       1       2       4       7      11       2       3       5       8      12
       4       5       6       9      13       7       8       9      10      14
      11      12      13      14      15
%FLAG RESIDUE_LABEL                                                             
%FORMAT(20a4)                                                                   
MOL 
%FLAG RESIDUE_POINTER                                                           
%FORMAT(10I8)                                                                   
       1
%FLAG BOND_FORCE_CONSTANT                                                       
%FORMAT(5E16.8)                                                                 
  2.28890000E+02  3.45250000E+02  2.53810000E+02  3.44220000E+02  4.60680000E+02
%FLAG BOND_EQUIL_VALUE                                                          
%FORMAT(5E16.8)                                                                 
  1.53540000E+00  1.09620000E+00  1.46510000E+00  1.09690000E+00  1.01920000E+00
%FLAG ANGLE_FORCE_CONSTANT                                                      
%FORMAT(5E16.8)                                                                 
  5.98700000E+01  4.32700000E+01  6.54800000E+01  4.32800000E+01  5.61700000E+01
  4.82100000E+01  3.58000000E+01  3.56400000E+01  4.78900000E+01
%FLAG ANGLE_EQUIL_VALUE                                                         
%FORMAT(5E16.8)                                                                 
  1.96576518E+00  1.91427794E+00  1.93574550E+00  1.91270715E+00  1.91305621E+00
  1.88705080E+00  1.88024401E+00  1.89455572E+00  1.85668205E+00
%FLAG DIHEDRAL_FORCE_CONSTANT                                                   
%FORMAT(5E16.8)                                                                 
  5.20000000E-01  1.30000000E-01  1.55555556E-01  3.00000000E-02  5.00000000E-02
  1.20000000E-01  3.00000000E-01
%FLAG DIHEDRAL_PERIODICITY                                                      
%FORMAT(5E16.8)                                                                 
  3.00000000E+00  3.00000000E+00  3.00000000E+00  3.00000000E+00  3.00000000E+00
  3.00000000E+00  3.00000000E+00
%FLAG DIHEDRAL_PHASE                                                            
%FORMAT(5E16.8)                                                                 
  0.00000000E+00  0.00000000E+00  0.00000000E+00  3.14159400E+00  0.00000000E+00
  0.00000000E+00  0.00000000E+00
%FLAG SCEE_SCALE_FACTOR                                                         
%FORMAT(5E16.8)                                                                 
  1.20000000E+00  1.20000000E+00  1.20000000E+00  1.20000000E+00  1.20000000E+00
  1.20000000E+00  1.20000000E+00
%FLAG SCNB_SCALE_FACTOR                                                         
%FORMAT(5E16.8)                                                                 
  2.00000000E+00  2.00000000E+00  2.00000000E+00  2.00000000E+00  2.00000000E+00
  2.00000000E+00  2.00000000E+00
%FLAG SOLTY                                                                     
%FORMAT(5E16.8)                                                                 
  0.00000000E+00  0.00000000E+00  0.00000000E+00  0.00000000E+00  0.00000000E+00
%FLAG LENNARD_JONES_ACOEF                                                       
%FORMAT(5E16.8)                                                                 
  1.02073671E+06  8.65620051E+05  7.22850509E+05  1.00235148E+05  8.99910629E+04
  7.94617769E+03  6.97998263E+04  6.36026248E+04  5.22955465E+03  3.39005767E+03
  2.23577481E+03  2.35480845E+03  9.47421632E+01  5.24570081E+01  1.34728399E-01
%FLAG LENNARD_JONES_BCOEF                                                       
%FORMAT(5E16.8)                                                                 
  6.63431737E+02  4.52010965E+02  3.05601515E+02  1.37787728E+02  9.65931103E+01
  2.57122925E+01  1.14981426E+02  8.12052260E+01  2.08590256E+01  1.67944276E+01
  1.71355763E+01  1.30109323E+01  2.33785449E+00  1.73959275E+00  7.34107347E-02
%FLAG BONDS_INC_HYDROGEN                                                        
%FORMAT(10I8)                                                                   
       0      24       2       0      27       2       0      30       2       3
      33       2       3      36       2       6      39       2       6      42
       2       9      45       2       9      48       2      12      51       2
      12      54       2      15      57       2      15      60       2      18
      63       4      18      66       4      21      69       5      21      72
       5
%FLAG BONDS_WITHOUT_HYDROGEN                                                    
%FORMAT(10I8)                                                                   
       0       3       1       3       6       1       6       9       1       9
      12       1      12      15       1      15      18       1      18      21
       3
%FLAG ANGLES_INC_HYDROGEN                                                       
%FORMAT(10I8)                                                                   
       0       3      33       2       0       3      36       2       3       0
      24       2       3       0      27       2       3       0      30       2
       3       6      39       2       3       6      42       2       6       3
      33       2       6       3      36       2       6       9      45       2
       6       9      48       2       9       6      39       2       9       6
      42       2       9      12      51       2       9      12      54       2
      12       9      45       2      12       9      48       2      12      15
      57       2      12      15      60       2      15      12      51       2
      15      12      54       2      15      18      63       4      15      18
      66       4      18      15      57       2      18      15      60       2
      18      21      69       5      18      21      72       5      21      18
      63       6      21      18      66       6      24       0      27       7
      24       0      30       7      27       0      30       7      33       3
      36       7      39       6      42       7      45       9      48       7
      51      12      54       7      57      15      60       7      63      18
      66       8      69      21      72       9
%FLAG ANGLES_WITHOUT_HYDROGEN                                                   
%FORMAT(10I8)                                                                   
       0       3       6       1       3       6       9       1       6       9
      12       1       9      12      15       1      12      15      18       1
      15      18      21       3
%FLAG DIHEDRALS_INC_HYDROGEN                                                    
%FORMAT(10I8)                                                                   
       0       3       6      39       2       0       3       6      42       2
       3       6       9      45       2       3       6       9      48       2
      24       0       3       6       2      27       0       3       6       2
      30       0       3       6       2       6       9      12      51       2
       6       9      12      54       2       9       6       3      33       2
       9       6       3      36       2       9      12      15      57       2
       9      12      15      60       2      12       9       6      39       2
      12       9       6      42       2      12      15      18      63       3
      12      15      18      66       3      15      12       9      45       2
      15      12       9      48       2      15      18      21      69       4
      15      18      21      72       4      18      15      12      51       2
      18      15      12      54       2      21      18      15      57       5
      21      18      15      60       5      24       0       3      33       6
      24       0       3      36       6      27       0       3      33       6
      27       0       3      36       6      30       0       3      33       6
      30       0       3      36       6      33       3       6      39       6
      33       3       6      42       6      36       3       6      39       6
      36       3       6      42       6      39       6       9      45       6
      39       6       9      48       6      42       6       9      45       6
      42       6       9      48       6      45       9      12      51       6
      45       9      12      54       6      48       9      12      51       6
      48       9      12      54       6      51      12      15      57       6
      51      12      15      60       6      54      12      15      57       6
      54      12      15      60       6      57      15      18      63       3
      57      15      18      66       3      60      15      18      63       3
      60      15      18      66       3      63      18      21      69       7
      63      18      21      72       7      66      18      21      69       7
      66      18      21      72       7
%FLAG DIHEDRALS_WITHOUT_HYDROGEN                                                
%FORMAT(10I8)                                                                   
       0       3       6       9       1       3       6       9      12       1
       6       9      12      15       1       9      12      15      18       1
      12      15      18      21       1
%FLAG EXCLUDED_ATOMS_LIST                                                       
%FORMAT(10I8)                                                                   
       2       3       4       9      10      11      12      13      14      15
       3       4       5       9      10      11      12      13      14      15
      16      17       4       5       6       9      10      11      12      13
      14      15      16      17      18      19       5       6       7      12
      13      14      15      16      17      18      19      20      21       6
       7       8      14      15      16      17      18      19      20      21
      22      23       7       8      16      17      18      19      20      21
      22      23      24      25       8      18      19      20      21      22
      23      24      25      20      21      22      23      24      25      10
      11      12      13      11      12      13      12      13      13      14
      15      14      15      15      16      17      16      17      17      18
      19      18      19      19      20      21      20      21      21      22
      23      22      23      23      24      25      24      25      25       0
%FLAG HBOND_ACOEF                                                               
%FORMAT(5E16.8)                                                                 

%FLAG HBOND_BCOEF                                                               
%FORMAT(5E16.8)                                                                 

%FLAG HBCUT                                                                     
%FORMAT(5E16.8)                                                                 

%FLAG AMBER_ATOM_TYPE                                                           
%FORMAT(20a4)                                                                   
c3  c3  c3  c3  c3  c3  c3  n8  hc  hc  hc  hc  hc  hc  hc  hc  hc  hc  hc  hc  
hc  h1  h1  hn  hn  
%FLAG TREE_CHAIN_CLASSIFICATION                                                 
%FORMAT(20a4)                                                                   
BLA BLA BLA BLA BLA BLA BLA BLA BLA BLA BLA BLA BLA BLA BLA BLA BLA BLA BLA BLA 
BLA BLA BLA BLA BLA 
%FLAG JOIN_ARRAY                                                                
%FORMAT(10I8)                                                                   
       0       0       0       0       0       0       0       0       0       0
       0       0       0       0       0       0       0       0       0       0
       0       0       0       0       0
%FLAG IROTAT                                                                    
%FORMAT(10I8)                                                                   
       0       0       0       0       0       0       0       0       0       0
       0       0       0       0       0       0       0       0       0       0
       0       0       0       0       0
%FLAG RADIUS_SET                                                                
%FORMAT(1a80)                                                                   
modified Bondi radii (mbondi)                                                   
%FLAG RADII                                                                     
%FORMAT(5E16.8)                                                                 
  1.70000000E+00  1.70000000E+00  1.70000000E+00  1.70000000E+00  1.70000000E+00
  1.70000000E+00  1.70000000E+00  1.55000000E+00  1.30000000E+00  1.30000000E+00
  1.30000000E+00  1.30000000E+00  1.30000000E+00  1.30000000E+00  1.30000000E+00
  1.30000000E+00  1.30000000E+00  1.30000000E+00  1.30000000E+00  1.30000000E+00
  1.30000000E+00  1.30000000E+00  1.30000000E+00  1.30000000E+00  1.30000000E+00
%FLAG SCREEN                                                                    
%FORMAT(5E16.8)                                                                 
  7.20000000E-01  7.20000000E-01  7.20000000E-01  7.20000000E-01  7.20000000E-01
  7.20000000E-01  7.20000000E-01  7.90000000E-01  8.50000000E-01  8.50000000E-01
  8.50000000E-01  8.50000000E-01  8.50000000E-01  8.50000000E-01  8.50000000E-01
  8.50000000E-01  8.50000000E-01  8.50000000E-01  8.50000000E-01  8.50000000E-01
  8.50000000E-01  8.50000000E-01  8.50000000E-01  8.50000000E-01  8.50000000E-01
%FLAG IPOL                                                                      
%FORMAT(1I8)                                                                    
       0
