n_heptylamine
    25
   0.6450000  -0.7070000   0.1070000   0.1470000  -2.0970000  -0.2570000
  -0.2980000  -2.1670000  -1.7190000  -0.8290000  -3.5590000  -2.0700000
  -1.3010000  -3.6830000  -3.5210000  -1.7630000  -5.0940000  -3.8930000
  -2.2540000  -5.1490000  -5.3400000  -2.6810000  -6.5010000  -5.6790000
   1.5040000  -0.4240000  -0.5110000  -0.1410000   0.0410000  -0.0340000
   0.9570000  -0.6790000   1.1550000   0.9460000  -2.8240000  -0.0750000
  -0.6900000  -2.3620000   0.4000000   0.5470000  -1.9200000  -2.3720000
  -1.0750000  -1.4140000  -1.8930000  -0.0340000  -4.2970000  -1.9050000
  -1.6500000  -3.8240000  -1.3920000  -2.1110000  -2.9670000  -3.7070000
  -0.4690000  -3.3950000  -4.1760000  -0.9330000  -5.7990000  -3.7550000
  -2.5720000  -5.4110000  -3.2250000  -3.0970000  -4.4630000  -5.4770000
  -1.4560000  -4.8380000  -6.0230000  -3.2060000  -6.8890000  -4.8990000
  -1.8600000  -7.0890000  -5.7960000
