mobley_718988_GMX.gro created by acpype (v: 2023.10.27) on Wed May 20 23:51:48 2026
 25
    1  MOL   C1    1   0.065  -0.071   0.011
    1  MOL   C2    2   0.015  -0.210  -0.026
    1  MOL   C3    3  -0.030  -0.217  -0.172
    1  MOL   C4    4  -0.083  -0.356  -0.207
    1  MOL   C5    5  -0.130  -0.368  -0.352
    1  MOL   C6    6  -0.176  -0.509  -0.389
    1  MOL   C7    7  -0.225  -0.515  -0.534
    1  MOL   N1    8  -0.268  -0.650  -0.568
    1  MOL   H1    9   0.150  -0.042  -0.051
    1  MOL   H2   10  -0.014   0.004  -0.003
    1  MOL   H3   11   0.096  -0.068   0.116
    1  MOL   H4   12   0.095  -0.282  -0.007
    1  MOL   H5   13  -0.069  -0.236   0.040
    1  MOL   H6   14   0.055  -0.192  -0.237
    1  MOL   H7   15  -0.107  -0.141  -0.189
    1  MOL   H8   16  -0.003  -0.430  -0.191
    1  MOL   H9   17  -0.165  -0.382  -0.139
    1  MOL  H10   18  -0.211  -0.297  -0.371
    1  MOL  H11   19  -0.047  -0.340  -0.418
    1  MOL  H12   20  -0.093  -0.580  -0.376
    1  MOL  H13   21  -0.257  -0.541  -0.323
    1  MOL  H14   22  -0.310  -0.446  -0.548
    1  MOL  H15   23  -0.146  -0.484  -0.602
    1  MOL  H16   24  -0.321  -0.689  -0.490
    1  MOL  H17   25  -0.186  -0.709  -0.580
    9.42000    14.26000    14.35600
