; mobley_718988_GMX.top created by acpype (v: 2023.10.27) on Wed May 20 23:51:48 2026

[ defaults ]
; nbfunc        comb-rule       gen-pairs       fudgeLJ fudgeQQ
1               2               yes             0.5     0.8333333333

; Include mobley_718988_GMX.itp topology
#include "mobley_718988_GMX.itp"

; Ligand position restraints
#ifdef POSRES_LIG
#include "posre_mobley_718988.itp"
#endif

[ system ]
mobley_718988 in water

[ molecules ]
; Compound        nmols
 mobley_718988    1     
SOL              4032
