; mobley_1827204_GMX_OPLS.itp created by acpype (v: 2023.10.27) on Thu May 21 00:01:25 2026

; For OPLS atomtypes manual fine tuning
; AC_at:OPLS_at:OPLScode: Possible_Alternatives (see ffoplsaa.atp and ffoplsaanb.itp)
; c:C:opls_235: ['271']
; c3:CT:opls_135: ['136', '137', '149', '157', '158', '206', '209', '210', '223B', '224B', '245', '246', '274', '283', '284', '285', '292', '292B', '293B', '296', '307', '308', '505']
; o:O:opls_236: ['272']
; h4:HA:opls_146: []
; hc:HC:opls_140: []

[ moleculetype ]
;name            nrexcl
 mobley_1827204   3

[ atoms ]
;   nr  type  resi  res  atom  cgnr     charge      mass       ; qtot   bond_type
     1 opls_235     1   MOL    C1    1     0.559899     12.01100 ; qtot  0.560  C   
     2 opls_135     1   MOL    C2    2    -0.093100     12.01100 ; qtot  0.467  CT  
     3 opls_135     1   MOL    C3    3    -0.198400     12.01100 ; qtot  0.268  CT  
     4 opls_135     1   MOL    C4    4    -0.079400     12.01100 ; qtot  0.189  CT  
     5 opls_135     1   MOL    C5    5    -0.075400     12.01100 ; qtot  0.114  CT  
     6 opls_135     1   MOL    C6    6    -0.078400     12.01100 ; qtot  0.035  CT  
     7 opls_236     1   MOL    O1    7    -0.524100     15.99940 ; qtot -0.489  O   
     8 opls_146     1   MOL    H1    8    -0.010800      1.00800 ; qtot -0.500  HA  
     9 opls_140     1   MOL    H2    9     0.033367      1.00800 ; qtot -0.466  HC  
    10 opls_140     1   MOL    H3   10     0.033367      1.00800 ; qtot -0.433  HC  
    11 opls_140     1   MOL    H4   11     0.033367      1.00800 ; qtot -0.400  HC  
    12 opls_140     1   MOL    H5   12     0.066700      1.00800 ; qtot -0.333  HC  
    13 opls_140     1   MOL    H6   13     0.066700      1.00800 ; qtot -0.266  HC  
    14 opls_140     1   MOL    H7   14     0.041700      1.00800 ; qtot -0.225  HC  
    15 opls_140     1   MOL    H8   15     0.041700      1.00800 ; qtot -0.183  HC  
    16 opls_140     1   MOL    H9   16     0.053700      1.00800 ; qtot -0.129  HC  
    17 opls_140     1   MOL   H10   17     0.053700      1.00800 ; qtot -0.075  HC  
    18 opls_140     1   MOL   H11   18     0.037700      1.00800 ; qtot -0.038  HC  
    19 opls_140     1   MOL   H12   19     0.037700      1.00800 ; qtot -0.000  HC  

[ bonds ]
;   ai     aj funct   r             k
     1      3   1 ;    1.5270e-01    1.9652e+05 ;     C1 - C3          C - CT    
     1      7   1 ;    1.2190e-01    4.9421e+05 ;     C1 - O1          C - O     
     1      8   1 ;    1.1123e-01    2.6984e+05 ;     C1 - H1          C - HA    
     2      4   1 ;    1.5354e-01    1.9154e+05 ;     C2 - C4         CT - CT    
     2      9   1 ;    1.0962e-01    2.8891e+05 ;     C2 - H2         CT - HC    
     2     10   1 ;    1.0962e-01    2.8891e+05 ;     C2 - H3         CT - HC    
     2     11   1 ;    1.0962e-01    2.8891e+05 ;     C2 - H4         CT - HC    
     3      5   1 ;    1.5354e-01    1.9154e+05 ;     C3 - C5         CT - CT    
     3     12   1 ;    1.0962e-01    2.8891e+05 ;     C3 - H5         CT - HC    
     3     13   1 ;    1.0962e-01    2.8891e+05 ;     C3 - H6         CT - HC    
     4      6   1 ;    1.5354e-01    1.9154e+05 ;     C4 - C6         CT - CT    
     4     14   1 ;    1.0962e-01    2.8891e+05 ;     C4 - H7         CT - HC    
     4     15   1 ;    1.0962e-01    2.8891e+05 ;     C4 - H8         CT - HC    
     5      6   1 ;    1.5354e-01    1.9154e+05 ;     C5 - C6         CT - CT    
     5     16   1 ;    1.0962e-01    2.8891e+05 ;     C5 - H9         CT - HC    
     5     17   1 ;    1.0962e-01    2.8891e+05 ;     C5 - H10        CT - HC    
     6     18   1 ;    1.0962e-01    2.8891e+05 ;     C6 - H11        CT - HC    
     6     19   1 ;    1.0962e-01    2.8891e+05 ;     C6 - H12        CT - HC    

[ pairs ]
;   ai     aj    funct
     1      6      1 ;     C1 - C6    
     1     16      1 ;     C1 - H9    
     1     17      1 ;     C1 - H10   
     2      5      1 ;     C2 - C5    
     2     18      1 ;     C2 - H11   
     2     19      1 ;     C2 - H12   
     3      4      1 ;     C3 - C4    
     3     18      1 ;     C3 - H11   
     3     19      1 ;     C3 - H12   
     4     16      1 ;     C4 - H9    
     4     17      1 ;     C4 - H10   
     5     14      1 ;     C5 - H7    
     5     15      1 ;     C5 - H8    
     6      9      1 ;     C6 - H2    
     6     10      1 ;     C6 - H3    
     6     11      1 ;     C6 - H4    
     6     12      1 ;     C6 - H5    
     6     13      1 ;     C6 - H6    
     7      5      1 ;     O1 - C5    
     7     12      1 ;     O1 - H5    
     7     13      1 ;     O1 - H6    
     8      5      1 ;     H1 - C5    
     8     12      1 ;     H1 - H5    
     8     13      1 ;     H1 - H6    
     9     14      1 ;     H2 - H7    
     9     15      1 ;     H2 - H8    
    10     14      1 ;     H3 - H7    
    10     15      1 ;     H3 - H8    
    11     14      1 ;     H4 - H7    
    11     15      1 ;     H4 - H8    
    12     16      1 ;     H5 - H9    
    12     17      1 ;     H5 - H10   
    13     16      1 ;     H6 - H9    
    13     17      1 ;     H6 - H10   
    14     18      1 ;     H7 - H11   
    14     19      1 ;     H7 - H12   
    15     18      1 ;     H8 - H11   
    15     19      1 ;     H8 - H12   
    16     18      1 ;     H9 - H11   
    16     19      1 ;     H9 - H12   
    17     18      1 ;    H10 - H11   
    17     19      1 ;    H10 - H12   

[ angles ]
;   ai     aj     ak    funct   theta         cth
     1      3      5      1 ;    1.1143e+02    5.0509e+02 ;     C1 - C3   - C5        C -   CT - CT  
     1      3     12      1 ;    1.0895e+02    3.6510e+02 ;     C1 - C3   - H5        C -   CT - HC  
     1      3     13      1 ;    1.0895e+02    3.6510e+02 ;     C1 - C3   - H6        C -   CT - HC  
     2      4      6      1 ;    1.1263e+02    5.0099e+02 ;     C2 - C4   - C6       CT -   CT - CT  
     2      4     14      1 ;    1.0968e+02    3.6208e+02 ;     C2 - C4   - H7       CT -   CT - HC  
     2      4     15      1 ;    1.0968e+02    3.6208e+02 ;     C2 - C4   - H8       CT -   CT - HC  
     3      1      7      1 ;    1.2290e+02    6.3973e+02 ;     C3 - C1   - O1       CT -    C - O   
     3      1      8      1 ;    1.1471e+02    3.5522e+02 ;     C3 - C1   - H1       CT -    C - HA  
     3      5      6      1 ;    1.1263e+02    5.0099e+02 ;     C3 - C5   - C6       CT -   CT - CT  
     3      5     16      1 ;    1.0968e+02    3.6208e+02 ;     C3 - C5   - H9       CT -   CT - HC  
     3      5     17      1 ;    1.0968e+02    3.6208e+02 ;     C3 - C5   - H10      CT -   CT - HC  
     4      2      9      1 ;    1.0968e+02    3.6208e+02 ;     C4 - C2   - H2       CT -   CT - HC  
     4      2     10      1 ;    1.0968e+02    3.6208e+02 ;     C4 - C2   - H3       CT -   CT - HC  
     4      2     11      1 ;    1.0968e+02    3.6208e+02 ;     C4 - C2   - H4       CT -   CT - HC  
     4      6      5      1 ;    1.1263e+02    5.0099e+02 ;     C4 - C6   - C5       CT -   CT - CT  
     4      6     18      1 ;    1.0968e+02    3.6208e+02 ;     C4 - C6   - H11      CT -   CT - HC  
     4      6     19      1 ;    1.0968e+02    3.6208e+02 ;     C4 - C6   - H12      CT -   CT - HC  
     5      3     12      1 ;    1.0968e+02    3.6208e+02 ;     C5 - C3   - H5       CT -   CT - HC  
     5      3     13      1 ;    1.0968e+02    3.6208e+02 ;     C5 - C3   - H6       CT -   CT - HC  
     5      6     18      1 ;    1.0968e+02    3.6208e+02 ;     C5 - C6   - H11      CT -   CT - HC  
     5      6     19      1 ;    1.0968e+02    3.6208e+02 ;     C5 - C6   - H12      CT -   CT - HC  
     6      4     14      1 ;    1.0968e+02    3.6208e+02 ;     C6 - C4   - H7       CT -   CT - HC  
     6      4     15      1 ;    1.0968e+02    3.6208e+02 ;     C6 - C4   - H8       CT -   CT - HC  
     6      5     16      1 ;    1.0968e+02    3.6208e+02 ;     C6 - C5   - H9       CT -   CT - HC  
     6      5     17      1 ;    1.0968e+02    3.6208e+02 ;     C6 - C5   - H10      CT -   CT - HC  
     7      1      8      1 ;    1.2062e+02    5.0191e+02 ;     O1 - C1   - H1        O -    C - HA  
     9      2     10      1 ;    1.0773e+02    2.9957e+02 ;     H2 - C2   - H3       HC -   CT - HC  
     9      2     11      1 ;    1.0773e+02    2.9957e+02 ;     H2 - C2   - H4       HC -   CT - HC  
    10      2     11      1 ;    1.0773e+02    2.9957e+02 ;     H3 - C2   - H4       HC -   CT - HC  
    12      3     13      1 ;    1.0773e+02    2.9957e+02 ;     H5 - C3   - H6       HC -   CT - HC  
    14      4     15      1 ;    1.0773e+02    2.9957e+02 ;     H7 - C4   - H8       HC -   CT - HC  
    16      5     17      1 ;    1.0773e+02    2.9957e+02 ;     H9 - C5   - H10      HC -   CT - HC  
    18      6     19      1 ;    1.0773e+02    2.9957e+02 ;    H11 - C6   - H12      HC -   CT - HC  

[ dihedrals ] ; propers
; for gromacs 4.5 or higher, using funct 9
;    i      j      k      l   func   phase     kd      pn
     1      3      5      6      9 ;     0.00   0.00000   0 ;     C1-    C3-    C5-    C6
     1      3      5      6      9 ;     0.00   0.16736   2 ;     C1-    C3-    C5-    C6
     1      3      5      6      9 ;   180.00   1.92464   1 ;     C1-    C3-    C5-    C6
     1      3      5     16      9 ;     0.00   0.65084   3 ;     C1-    C3-    C5-    H9
     1      3      5     17      9 ;     0.00   0.65084   3 ;     C1-    C3-    C5-   H10
     2      4      6      5      9 ;     0.00   2.17568   3 ;     C2-    C4-    C6-    C5
     2      4      6     18      9 ;     0.00   0.54392   3 ;     C2-    C4-    C6-   H11
     2      4      6     19      9 ;     0.00   0.54392   3 ;     C2-    C4-    C6-   H12
     3      5      6      4      9 ;     0.00   2.17568   3 ;     C3-    C5-    C6-    C4
     3      5      6     18      9 ;     0.00   0.54392   3 ;     C3-    C5-    C6-   H11
     3      5      6     19      9 ;     0.00   0.54392   3 ;     C3-    C5-    C6-   H12
     4      6      5     16      9 ;     0.00   0.54392   3 ;     C4-    C6-    C5-    H9
     4      6      5     17      9 ;     0.00   0.54392   3 ;     C4-    C6-    C5-   H10
     5      6      4     14      9 ;     0.00   0.54392   3 ;     C5-    C6-    C4-    H7
     5      6      4     15      9 ;     0.00   0.54392   3 ;     C5-    C6-    C4-    H8
     6      4      2      9      9 ;     0.00   0.54392   3 ;     C6-    C4-    C2-    H2
     6      4      2     10      9 ;     0.00   0.54392   3 ;     C6-    C4-    C2-    H3
     6      4      2     11      9 ;     0.00   0.54392   3 ;     C6-    C4-    C2-    H4
     6      5      3     12      9 ;     0.00   0.54392   3 ;     C6-    C5-    C3-    H5
     6      5      3     13      9 ;     0.00   0.54392   3 ;     C6-    C5-    C3-    H6
     7      1      3      5      9 ;     0.00   2.84512   1 ;     O1-    C1-    C3-    C5
     7      1      3      5      9 ;   180.00   0.83680   2 ;     O1-    C1-    C3-    C5
     7      1      3      5      9 ;   180.00   1.84096   3 ;     O1-    C1-    C3-    C5
     7      1      3     12      9 ;     0.00  16.86152   1 ;     O1-    C1-    C3-    H5
     7      1      3     12      9 ;   180.00  15.31344   2 ;     O1-    C1-    C3-    H5
     7      1      3     13      9 ;     0.00  16.86152   1 ;     O1-    C1-    C3-    H6
     7      1      3     13      9 ;   180.00  15.31344   2 ;     O1-    C1-    C3-    H6
     8      1      3      5      9 ;   180.00   0.00000   2 ;     H1-    C1-    C3-    C5
     8      1      3     12      9 ;   180.00   0.00000   2 ;     H1-    C1-    C3-    H5
     8      1      3     13      9 ;   180.00   0.00000   2 ;     H1-    C1-    C3-    H6
     9      2      4     14      9 ;     0.00   0.50208   3 ;     H2-    C2-    C4-    H7
     9      2      4     15      9 ;     0.00   0.50208   3 ;     H2-    C2-    C4-    H8
    10      2      4     14      9 ;     0.00   0.50208   3 ;     H3-    C2-    C4-    H7
    10      2      4     15      9 ;     0.00   0.50208   3 ;     H3-    C2-    C4-    H8
    11      2      4     14      9 ;     0.00   0.50208   3 ;     H4-    C2-    C4-    H7
    11      2      4     15      9 ;     0.00   0.50208   3 ;     H4-    C2-    C4-    H8
    12      3      5     16      9 ;     0.00   0.50208   3 ;     H5-    C3-    C5-    H9
    12      3      5     17      9 ;     0.00   0.50208   3 ;     H5-    C3-    C5-   H10
    13      3      5     16      9 ;     0.00   0.50208   3 ;     H6-    C3-    C5-    H9
    13      3      5     17      9 ;     0.00   0.50208   3 ;     H6-    C3-    C5-   H10
    14      4      6     18      9 ;     0.00   0.50208   3 ;     H7-    C4-    C6-   H11
    14      4      6     19      9 ;     0.00   0.50208   3 ;     H7-    C4-    C6-   H12
    15      4      6     18      9 ;     0.00   0.50208   3 ;     H8-    C4-    C6-   H11
    15      4      6     19      9 ;     0.00   0.50208   3 ;     H8-    C4-    C6-   H12
    16      5      6     18      9 ;     0.00   0.50208   3 ;     H9-    C5-    C6-   H11
    16      5      6     19      9 ;     0.00   0.50208   3 ;     H9-    C5-    C6-   H12
    17      5      6     18      9 ;     0.00   0.50208   3 ;    H10-    C5-    C6-   H11
    17      5      6     19      9 ;     0.00   0.50208   3 ;    H10-    C5-    C6-   H12

[ dihedrals ] ; impropers
; treated as propers in GROMACS to use correct AMBER analytical function
;    i      j      k      l   func   phase     kd      pn
     7      1      8      3      4 ;   180.00   4.60240   2 ;     O1-    C1-    H1-    C3
