%VERSION  VERSION_STAMP = V0001.000  DATE = 05/21/26  00:01:26                  
%FLAG TITLE                                                                     
%FORMAT(20a4)                                                                   
hexanal                                                                         
%FLAG POINTERS                                                                  
%FORMAT(10I8)                                                                   
      19       5      12       6      28       5      41       8       0       0
      94       1       6       5       8       5       8      14       5       0
       0       0       0       0       0       0       0       0      19       0
       0
%FLAG ATOM_NAME                                                                 
%FORMAT(20a4)                                                                   
C1  C2  C3  C4  C5  C6  O1  H1  H2  H3  H4  H5  H6  H7  H8  H9  H10 H11 H12 
%FLAG CHARGE                                                                    
%FORMAT(5E16.8)                                                                 
  1.02573327E+01 -1.69649613E+00 -3.61530432E+00 -1.44685062E+00 -1.37396142E+00
 -1.42862832E+00 -9.55030743E+00 -1.96800840E-01  6.08023484E-01  6.08023484E-01
  6.08023484E-01  1.21542741E+00  1.21542741E+00  7.59869910E-01  7.59869910E-01
  9.78537510E-01  9.78537510E-01  6.86980710E-01  6.86980710E-01
%FLAG ATOMIC_NUMBER                                                             
%FORMAT(10I8)                                                                   
       6       6       6       6       6       6       8       1       1       1
       1       1       1       1       1       1       1       1       1
%FLAG MASS                                                                      
%FORMAT(5E16.8)                                                                 
  1.20100000E+01  1.20100000E+01  1.20100000E+01  1.20100000E+01  1.20100000E+01
  1.20100000E+01  1.60000000E+01  1.00800000E+00  1.00800000E+00  1.00800000E+00
  1.00800000E+00  1.00800000E+00  1.00800000E+00  1.00800000E+00  1.00800000E+00
  1.00800000E+00  1.00800000E+00  1.00800000E+00  1.00800000E+00
%FLAG ATOM_TYPE_INDEX                                                           
%FORMAT(10I8)                                                                   
       1       2       2       2       2       2       3       4       5       5
       5       5       5       5       5       5       5       5       5
%FLAG NUMBER_EXCLUDED_ATOMS                                                     
%FORMAT(10I8)                                                                   
       9      10      11      11      11      11       3       2       4       3
       2       3       2       3       2       3       2       1       1
%FLAG NONBONDED_PARM_INDEX                                                      
%FORMAT(10I8)                                                                   
       1       2       4       7      11       2       3       5       8      12
       4       5       6       9      13       7       8       9      10      14
      11      12      13      14      15
%FLAG RESIDUE_LABEL                                                             
%FORMAT(20a4)                                                                   
MOL 
%FLAG RESIDUE_POINTER                                                           
%FORMAT(10I8)                                                                   
       1
%FLAG BOND_FORCE_CONSTANT                                                       
%FORMAT(5E16.8)                                                                 
  2.34850000E+02  5.90600000E+02  3.22470000E+02  2.28890000E+02  3.45250000E+02
%FLAG BOND_EQUIL_VALUE                                                          
%FORMAT(5E16.8)                                                                 
  1.52700000E+00  1.21900000E+00  1.11230000E+00  1.53540000E+00  1.09620000E+00
%FLAG ANGLE_FORCE_CONSTANT                                                      
%FORMAT(5E16.8)                                                                 
  6.03600000E+01  4.36300000E+01  5.98700000E+01  4.32700000E+01  7.64500000E+01
  4.24500000E+01  5.99800000E+01  3.58000000E+01
%FLAG ANGLE_EQUIL_VALUE                                                         
%FORMAT(5E16.8)                                                                 
  1.94482122E+00  1.90153704E+00  1.96576518E+00  1.91427794E+00  2.14501057E+00
  2.00206804E+00  2.10521705E+00  1.88024401E+00
%FLAG DIHEDRAL_FORCE_CONSTANT                                                   
%FORMAT(5E16.8)                                                                 
  4.60000000E-01  4.00000000E-02  0.00000000E+00  1.55555556E-01  5.20000000E-01
  1.30000000E-01  6.80000000E-01  2.00000000E-01  4.40000000E-01  0.00000000E+00
  4.03000000E+00  3.66000000E+00  1.20000000E-01  1.10000000E+00
%FLAG DIHEDRAL_PERIODICITY                                                      
%FORMAT(5E16.8)                                                                 
  1.00000000E+00  2.00000000E+00  3.00000000E+00  3.00000000E+00  3.00000000E+00
  3.00000000E+00  1.00000000E+00  2.00000000E+00  3.00000000E+00  2.00000000E+00
  1.00000000E+00  2.00000000E+00  3.00000000E+00  2.00000000E+00
%FLAG DIHEDRAL_PHASE                                                            
%FORMAT(5E16.8)                                                                 
  3.14159400E+00  0.00000000E+00  0.00000000E+00  0.00000000E+00  0.00000000E+00
  0.00000000E+00  0.00000000E+00  3.14159400E+00  3.14159400E+00  3.14159400E+00
  0.00000000E+00  3.14159400E+00  0.00000000E+00  3.14159400E+00
%FLAG SCEE_SCALE_FACTOR                                                         
%FORMAT(5E16.8)                                                                 
  1.20000000E+00  1.20000000E+00  1.20000000E+00  1.20000000E+00  1.20000000E+00
  1.20000000E+00  1.20000000E+00  1.20000000E+00  1.20000000E+00  1.20000000E+00
  1.20000000E+00  1.20000000E+00  1.20000000E+00  0.00000000E+00
%FLAG SCNB_SCALE_FACTOR                                                         
%FORMAT(5E16.8)                                                                 
  2.00000000E+00  2.00000000E+00  2.00000000E+00  2.00000000E+00  2.00000000E+00
  2.00000000E+00  2.00000000E+00  2.00000000E+00  2.00000000E+00  2.00000000E+00
  2.00000000E+00  2.00000000E+00  2.00000000E+00  0.00000000E+00
%FLAG SOLTY                                                                     
%FORMAT(5E16.8)                                                                 
  0.00000000E+00  0.00000000E+00  0.00000000E+00  0.00000000E+00  0.00000000E+00
%FLAG LENNARD_JONES_ACOEF                                                       
%FORMAT(5E16.8)                                                                 
  6.96551276E+05  8.43969952E+05  1.02073671E+06  5.17507491E+05  6.30925504E+05
  3.76435470E+05  6.27751680E+04  7.75673747E+04  4.36069364E+04  4.56536476E+03
  8.12662403E+04  1.00235148E+05  5.68021765E+04  6.02863188E+03  7.94617769E+03
%FLAG LENNARD_JONES_BCOEF                                                       
%FORMAT(5E16.8)                                                                 
  5.24668528E+02  5.90251928E+02  6.63431737E+02  4.98871431E+02  5.62969425E+02
  4.69350655E+02  1.00073628E+02  1.13692208E+02  9.20079458E+01  1.71467049E+01
  1.21392023E+02  1.37787728E+02  1.11953944E+02  2.10068861E+01  2.57122925E+01
%FLAG BONDS_INC_HYDROGEN                                                        
%FORMAT(10I8)                                                                   
       0      21       3       3      24       5       3      27       5       3
      30       5       6      33       5       6      36       5       9      39
       5       9      42       5      12      45       5      12      48       5
      15      51       5      15      54       5
%FLAG BONDS_WITHOUT_HYDROGEN                                                    
%FORMAT(10I8)                                                                   
       0       6       1       0      18       2       3       9       4       6
      12       4       9      15       4      12      15       4
%FLAG ANGLES_INC_HYDROGEN                                                       
%FORMAT(10I8)                                                                   
       0       6      33       2       0       6      36       2       3       9
      39       4       3       9      42       4       6       0      21       6
       6      12      45       4       6      12      48       4       9       3
      24       4       9       3      27       4       9       3      30       4
       9      15      51       4       9      15      54       4      12       6
      33       4      12       6      36       4      12      15      51       4
      12      15      54       4      15       9      39       4      15       9
      42       4      15      12      45       4      15      12      48       4
      18       0      21       7      24       3      27       8      24       3
      30       8      27       3      30       8      33       6      36       8
      39       9      42       8      45      12      48       8      51      15
      54       8
%FLAG ANGLES_WITHOUT_HYDROGEN                                                   
%FORMAT(10I8)                                                                   
       0       6      12       1       3       9      15       3       6       0
      18       5       6      12      15       3       9      15      12       3
%FLAG DIHEDRALS_INC_HYDROGEN                                                    
%FORMAT(10I8)                                                                   
       0       6      12      45       4       0       6      12      48       4
       3       9      15      51       6       3       9      15      54       6
       6      12      15      51       6       6      12      15      54       6
       9      15      12      45       6       9      15      12      48       6
      21       0       6      12      10      12      15       9      39       6
      12      15       9      42       6      15       9       3      24       6
      15       9       3      27       6      15       9       3      30       6
      15      12       6      33       6      15      12       6      36       6
      18       0       6      33      11      18       0      -6      33      12
      18       0       6      36      11      18       0      -6      36      12
      21       0       6      33      10      21       0       6      36      10
      24       3       9      39      13      24       3       9      42      13
      27       3       9      39      13      27       3       9      42      13
      30       3       9      39      13      30       3       9      42      13
      33       6      12      45      13      33       6      12      48      13
      36       6      12      45      13      36       6      12      48      13
      39       9      15      51      13      39       9      15      54      13
      42       9      15      51      13      42       9      15      54      13
      45      12      15      51      13      45      12      15      54      13
      48      12      15      51      13      48      12      15      54      13
      18       0     -21      -6      14
%FLAG DIHEDRALS_WITHOUT_HYDROGEN                                                
%FORMAT(10I8)                                                                   
       0       6      12      15       1       0       6     -12      15       2
       0       6     -12      15       3       3       9      15      12       5
       6      12      15       9       5      18       0       6      12       7
      18       0      -6      12       8      18       0      -6      12       9
%FLAG EXCLUDED_ATOMS_LIST                                                       
%FORMAT(10I8)                                                                   
       3       5       6       7       8      12      13      16      17       4
       5       6       9      10      11      14      15      18      19       4
       5       6       7       8      12      13      16      17      18      19
       5       6       9      10      11      14      15      16      17      18
      19       6       7       8      12      13      14      15      16      17
      18      19       9      10      11      12      13      14      15      16
      17      18      19       8      12      13      12      13      10      11
      14      15      11      14      15      14      15      13      16      17
      16      17      15      18      19      18      19      17      18      19
      18      19      19       0
%FLAG HBOND_ACOEF                                                               
%FORMAT(5E16.8)                                                                 

%FLAG HBOND_BCOEF                                                               
%FORMAT(5E16.8)                                                                 

%FLAG HBCUT                                                                     
%FORMAT(5E16.8)                                                                 

%FLAG AMBER_ATOM_TYPE                                                           
%FORMAT(20a4)                                                                   
c   c3  c3  c3  c3  c3  o   h4  hc  hc  hc  hc  hc  hc  hc  hc  hc  hc  hc  
%FLAG TREE_CHAIN_CLASSIFICATION                                                 
%FORMAT(20a4)                                                                   
BLA BLA BLA BLA BLA BLA BLA BLA BLA BLA BLA BLA BLA BLA BLA BLA BLA BLA BLA 
%FLAG JOIN_ARRAY                                                                
%FORMAT(10I8)                                                                   
       0       0       0       0       0       0       0       0       0       0
       0       0       0       0       0       0       0       0       0
%FLAG IROTAT                                                                    
%FORMAT(10I8)                                                                   
       0       0       0       0       0       0       0       0       0       0
       0       0       0       0       0       0       0       0       0
%FLAG RADIUS_SET                                                                
%FORMAT(1a80)                                                                   
modified Bondi radii (mbondi)                                                   
%FLAG RADII                                                                     
%FORMAT(5E16.8)                                                                 
  1.70000000E+00  1.70000000E+00  1.70000000E+00  1.70000000E+00  1.70000000E+00
  1.70000000E+00  1.50000000E+00  1.30000000E+00  1.30000000E+00  1.30000000E+00
  1.30000000E+00  1.30000000E+00  1.30000000E+00  1.30000000E+00  1.30000000E+00
  1.30000000E+00  1.30000000E+00  1.30000000E+00  1.30000000E+00
%FLAG SCREEN                                                                    
%FORMAT(5E16.8)                                                                 
  7.20000000E-01  7.20000000E-01  7.20000000E-01  7.20000000E-01  7.20000000E-01
  7.20000000E-01  8.50000000E-01  8.50000000E-01  8.50000000E-01  8.50000000E-01
  8.50000000E-01  8.50000000E-01  8.50000000E-01  8.50000000E-01  8.50000000E-01
  8.50000000E-01  8.50000000E-01  8.50000000E-01  8.50000000E-01
%FLAG IPOL                                                                      
%FORMAT(1I8)                                                                    
       0
