hexanal
    19
   1.0800000   2.1730000  -6.8040000  -0.1640000  -0.2890000  -1.0440000
   0.5540000   1.1250000  -5.8510000   0.4170000   0.7620000  -1.9770000
   0.7710000   1.4610000  -4.3780000   0.1590000   0.4130000  -3.4430000
   1.6920000   3.1810000  -6.4700000   0.8560000   1.9850000  -7.8690000
   0.0290000  -0.0180000  -0.0010000   0.2860000  -1.2690000  -1.2290000
  -1.2470000  -0.3770000  -1.1770000   1.0230000   0.1690000  -6.1050000
  -0.5200000   1.0340000  -6.0500000   1.4950000   0.8450000  -1.7980000
  -0.0280000   1.7360000  -1.7420000   1.8410000   1.5700000  -4.1670000
   0.3040000   2.4320000  -4.1720000  -0.9210000   0.3510000  -3.6200000
   0.5780000  -0.5770000  -3.6600000
