; mobley_1827204_GMX_OPLS.top created by acpype (v: 2023.10.27) on Thu May 21 00:01:25 2026

; Include forcefield parameters
#include "ffoplsaa.itp"

; Include mobley_1827204_GMX.itp topology
#include "mobley_1827204_GMX.itp"

; Ligand position restraints
#ifdef POSRES_LIG
#include "posre_mobley_1827204.itp"
#endif

[ system ]
 mobley_1827204

[ molecules ]
; Compound        nmols
 mobley_1827204   1     
