; mobley_5393242_GMX_OPLS.itp created by acpype (v: 2023.10.27) on Wed May 20 23:55:13 2026

; For OPLS atomtypes manual fine tuning
; AC_at:OPLS_at:OPLScode: Possible_Alternatives (see ffoplsaa.atp and ffoplsaanb.itp)
; ca:CA:opls_145: ['166', '501', '502']
; c3:CT:opls_135: ['136', '137', '149', '157', '158', '206', '209', '210', '223B', '224B', '245', '246', '274', '283', '284', '285', '292', '292B', '293B', '296', '307', '308', '505']
; nb:x:opls_x: []
; os:x:opls_x: []
; p5:x:opls_x: []
; s:x:opls_x: []
; ha:HA:opls_146: []
; hc:HC:opls_140: []
; h1:HC:opls_140: []

[ moleculetype ]
;name            nrexcl
 mobley_5393242   3

[ atoms ]
;   nr  type  resi  res  atom  cgnr     charge      mass       ; qtot   bond_type
     1 opls_145     1   MOL    C1    1    -0.360600     12.01100 ; qtot -0.361  CA  
     2 opls_145     1   MOL    C2    2     0.482600     12.01100 ; qtot  0.122  CA  
     3 opls_145     1   MOL    C3    3     0.675600     12.01100 ; qtot  0.798  CA  
     4 opls_145     1   MOL    C4    4     0.725300     12.01100 ; qtot  1.523  CA  
     5 opls_135     1   MOL    C5    5    -0.159400     12.01100 ; qtot  1.364  CT  
     6 opls_135     1   MOL    C6    6    -0.109100     12.01100 ; qtot  1.254  CT  
     7 opls_135     1   MOL    C7    7    -0.109100     12.01100 ; qtot  1.145  CT  
     8 opls_135     1   MOL    C8    8    -0.099100     12.01100 ; qtot  1.046  CT  
     9 opls_135     1   MOL    C9    9    -0.099100     12.01100 ; qtot  0.947  CT  
    10 opls_135     1   MOL   C10   10     0.151900     12.01100 ; qtot  1.099  CT  
    11 opls_135     1   MOL   C11   11     0.151900     12.01100 ; qtot  1.251  CT  
    12 opls_135     1   MOL   C12   12    -0.099000     12.01100 ; qtot  1.152  CT  
    13 opls_x     1   MOL    N1   13    -0.718000      0.00000 ; qtot  0.434  x   
    14 opls_x     1   MOL    N2   14    -0.829000      0.00000 ; qtot -0.395  x   
    15 opls_x     1   MOL    O1   15    -0.524700      0.00000 ; qtot -0.920  x   
    16 opls_x     1   MOL    O2   16    -0.527200      0.00000 ; qtot -1.447  x   
    17 opls_x     1   MOL    O3   17    -0.527200      0.00000 ; qtot -1.974  x   
    18 opls_x     1   MOL    P1   18     1.252199      0.00000 ; qtot -0.722  x   
    19 opls_x     1   MOL    S1   19    -0.602000      0.00000 ; qtot -1.324  x   
    20 opls_146     1   MOL    H1   20     0.175000      1.00800 ; qtot -1.149  HA  
    21 opls_140     1   MOL    H2   21     0.064367      1.00800 ; qtot -1.085  HC  
    22 opls_140     1   MOL    H3   22     0.064367      1.00800 ; qtot -1.020  HC  
    23 opls_140     1   MOL    H4   23     0.064367      1.00800 ; qtot -0.956  HC  
    24 opls_140     1   MOL    H5   24     0.052200      1.00800 ; qtot -0.904  HC  
    25 opls_140     1   MOL    H6   25     0.052200      1.00800 ; qtot -0.852  HC  
    26 opls_140     1   MOL    H7   26     0.052200      1.00800 ; qtot -0.799  HC  
    27 opls_140     1   MOL    H8   27     0.052200      1.00800 ; qtot -0.747  HC  
    28 opls_140     1   MOL    H9   28     0.052200      1.00800 ; qtot -0.695  HC  
    29 opls_140     1   MOL   H10   29     0.052200      1.00800 ; qtot -0.643  HC  
    30 opls_140     1   MOL   H11   30     0.049200      1.00800 ; qtot -0.594  HC  
    31 opls_140     1   MOL   H12   31     0.049200      1.00800 ; qtot -0.544  HC  
    32 opls_140     1   MOL   H13   32     0.049200      1.00800 ; qtot -0.495  HC  
    33 opls_140     1   MOL   H14   33     0.049200      1.00800 ; qtot -0.446  HC  
    34 opls_140     1   MOL   H15   34     0.049200      1.00800 ; qtot -0.397  HC  
    35 opls_140     1   MOL   H16   35     0.049200      1.00800 ; qtot -0.348  HC  
    36 opls_140     1   MOL   H17   36     0.067950      1.00800 ; qtot -0.280  HC  
    37 opls_140     1   MOL   H18   37     0.067950      1.00800 ; qtot -0.212  HC  
    38 opls_140     1   MOL   H19   38     0.067950      1.00800 ; qtot -0.144  HC  
    39 opls_140     1   MOL   H20   39     0.067950      1.00800 ; qtot -0.076  HC  
    40 opls_140     1   MOL   H21   40     0.075700      1.00800 ; qtot  0.000  HC  

[ bonds ]
;   ai     aj funct   r             k
     1      2   1 ;    1.3986e-01    2.9644e+05 ;     C1 - C2         CA - CA    
     1      3   1 ;    1.3986e-01    2.9644e+05 ;     C1 - C3         CA - CA    
     1     20   1 ;    1.0860e-01    3.0183e+05 ;     C1 - H1         CA - HA    
     2      5   1 ;    1.5147e-01    2.0410e+05 ;     C2 - C5         CA - CT    
     2     13   1 ;    1.3392e-01    3.2341e+05 ;     C2 - N1         CA - x     
     3     14   1 ;    1.3392e-01    3.2341e+05 ;     C3 - N2         CA - x     
     3     15   1 ;    1.3688e-01    2.8731e+05 ;     C3 - O1         CA - x     
     4     12   1 ;    1.5147e-01    2.0410e+05 ;     C4 - C12        CA - CT    
     4     13   1 ;    1.3392e-01    3.2341e+05 ;     C4 - N1         CA - x     
     4     14   1 ;    1.3392e-01    3.2341e+05 ;     C4 - N2         CA - x     
     5     21   1 ;    1.0962e-01    2.8891e+05 ;     C5 - H2         CT - HC    
     5     22   1 ;    1.0962e-01    2.8891e+05 ;     C5 - H3         CT - HC    
     5     23   1 ;    1.0962e-01    2.8891e+05 ;     C5 - H4         CT - HC    
     6     10   1 ;    1.5354e-01    1.9154e+05 ;     C6 - C10        CT - CT    
     6     24   1 ;    1.0962e-01    2.8891e+05 ;     C6 - H5         CT - HC    
     6     25   1 ;    1.0962e-01    2.8891e+05 ;     C6 - H6         CT - HC    
     6     26   1 ;    1.0962e-01    2.8891e+05 ;     C6 - H7         CT - HC    
     7     11   1 ;    1.5354e-01    1.9154e+05 ;     C7 - C11        CT - CT    
     7     27   1 ;    1.0962e-01    2.8891e+05 ;     C7 - H8         CT - HC    
     7     28   1 ;    1.0962e-01    2.8891e+05 ;     C7 - H9         CT - HC    
     7     29   1 ;    1.0962e-01    2.8891e+05 ;     C7 - H10        CT - HC    
     8     12   1 ;    1.5354e-01    1.9154e+05 ;     C8 - C12        CT - CT    
     8     30   1 ;    1.0962e-01    2.8891e+05 ;     C8 - H11        CT - HC    
     8     31   1 ;    1.0962e-01    2.8891e+05 ;     C8 - H12        CT - HC    
     8     32   1 ;    1.0962e-01    2.8891e+05 ;     C8 - H13        CT - HC    
     9     12   1 ;    1.5354e-01    1.9154e+05 ;     C9 - C12        CT - CT    
     9     33   1 ;    1.0962e-01    2.8891e+05 ;     C9 - H14        CT - HC    
     9     34   1 ;    1.0962e-01    2.8891e+05 ;     C9 - H15        CT - HC    
     9     35   1 ;    1.0962e-01    2.8891e+05 ;     C9 - H16        CT - HC    
    10     16   1 ;    1.4273e-01    2.3620e+05 ;    C10 - O2         CT - x     
    10     36   1 ;    1.0969e-01    2.8804e+05 ;    C10 - H17        CT - HC    
    10     37   1 ;    1.0969e-01    2.8804e+05 ;    C10 - H18        CT - HC    
    11     17   1 ;    1.4273e-01    2.3620e+05 ;    C11 - O3         CT - x     
    11     38   1 ;    1.0969e-01    2.8804e+05 ;    C11 - H19        CT - HC    
    11     39   1 ;    1.0969e-01    2.8804e+05 ;    C11 - H20        CT - HC    
    12     40   1 ;    1.0962e-01    2.8891e+05 ;    C12 - H21        CT - HC    
    15     18   1 ;    1.6182e-01    3.2434e+05 ;     O1 - P1          x - x     
    16     18   1 ;    1.6182e-01    3.2434e+05 ;     O2 - P1          x - x     
    17     18   1 ;    1.6182e-01    3.2434e+05 ;     O3 - P1          x - x     
    18     19   1 ;    1.9473e-01    2.2085e+05 ;     P1 - S1          x - x     

[ pairs ]
;   ai     aj    funct
     1      4      1 ;     C1 - C4    
     1     18      1 ;     C1 - P1    
     1     21      1 ;     C1 - H2    
     1     22      1 ;     C1 - H3    
     1     23      1 ;     C1 - H4    
     2     12      1 ;     C2 - C12   
     2     14      1 ;     C2 - N2    
     2     15      1 ;     C2 - O1    
     3      5      1 ;     C3 - C5    
     3     12      1 ;     C3 - C12   
     3     13      1 ;     C3 - N1    
     3     16      1 ;     C3 - O2    
     3     17      1 ;     C3 - O3    
     3     19      1 ;     C3 - S1    
     4      5      1 ;     C4 - C5    
     4     15      1 ;     C4 - O1    
     4     30      1 ;     C4 - H11   
     4     31      1 ;     C4 - H12   
     4     32      1 ;     C4 - H13   
     4     33      1 ;     C4 - H14   
     4     34      1 ;     C4 - H15   
     4     35      1 ;     C4 - H16   
     6     18      1 ;     C6 - P1    
     7     18      1 ;     C7 - P1    
     8     13      1 ;     C8 - N1    
     8     14      1 ;     C8 - N2    
     8     33      1 ;     C8 - H14   
     8     34      1 ;     C8 - H15   
     8     35      1 ;     C8 - H16   
     9     13      1 ;     C9 - N1    
     9     14      1 ;     C9 - N2    
     9     30      1 ;     C9 - H11   
     9     31      1 ;     C9 - H12   
     9     32      1 ;     C9 - H13   
    10     15      1 ;    C10 - O1    
    10     17      1 ;    C10 - O3    
    10     19      1 ;    C10 - S1    
    11     15      1 ;    C11 - O1    
    11     16      1 ;    C11 - O2    
    11     19      1 ;    C11 - S1    
    13     21      1 ;     N1 - H2    
    13     22      1 ;     N1 - H3    
    13     23      1 ;     N1 - H4    
    13     40      1 ;     N1 - H21   
    14     18      1 ;     N2 - P1    
    14     40      1 ;     N2 - H21   
    16     24      1 ;     O2 - H5    
    16     25      1 ;     O2 - H6    
    16     26      1 ;     O2 - H7    
    17     27      1 ;     O3 - H8    
    17     28      1 ;     O3 - H9    
    17     29      1 ;     O3 - H10   
    18     36      1 ;     P1 - H17   
    18     37      1 ;     P1 - H18   
    18     38      1 ;     P1 - H19   
    18     39      1 ;     P1 - H20   
    20      5      1 ;     H1 - C5    
    20     13      1 ;     H1 - N1    
    20     14      1 ;     H1 - N2    
    20     15      1 ;     H1 - O1    
    24     36      1 ;     H5 - H17   
    24     37      1 ;     H5 - H18   
    25     36      1 ;     H6 - H17   
    25     37      1 ;     H6 - H18   
    26     36      1 ;     H7 - H17   
    26     37      1 ;     H7 - H18   
    27     38      1 ;     H8 - H19   
    27     39      1 ;     H8 - H20   
    28     38      1 ;     H9 - H19   
    28     39      1 ;     H9 - H20   
    29     38      1 ;    H10 - H19   
    29     39      1 ;    H10 - H20   
    30     40      1 ;    H11 - H21   
    31     40      1 ;    H12 - H21   
    32     40      1 ;    H13 - H21   
    33     40      1 ;    H14 - H21   
    34     40      1 ;    H15 - H21   
    35     40      1 ;    H16 - H21   

[ angles ]
;   ai     aj     ak    funct   theta         cth
     1      2      5      1 ;    1.2083e+02    5.0827e+02 ;     C1 - C2   - C5       CA -   CA - CT  
     1      2     13      1 ;    1.2294e+02    5.7045e+02 ;     C1 - C2   - N1       CA -   CA - x   
     1      3     14      1 ;    1.2294e+02    5.7045e+02 ;     C1 - C3   - N2       CA -   CA - x   
     1      3     15      1 ;    1.1911e+02    6.6107e+02 ;     C1 - C3   - O1       CA -   CA - x   
     2      1      3      1 ;    1.2002e+02    5.3279e+02 ;     C2 - C1   - C3       CA -   CA - CA  
     2      1     20      1 ;    1.1988e+02    3.7572e+02 ;     C2 - C1   - H1       CA -   CA - HA  
     2      5     21      1 ;    1.1063e+02    3.6493e+02 ;     C2 - C5   - H2       CA -   CT - HC  
     2      5     22      1 ;    1.1063e+02    3.6493e+02 ;     C2 - C5   - H3       CA -   CT - HC  
     2      5     23      1 ;    1.1063e+02    3.6493e+02 ;     C2 - C5   - H4       CA -   CT - HC  
     2     13      4      1 ;    1.1724e+02    6.9580e+02 ;     C2 - N1   - C4       CA -    x - CA  
     3      1     20      1 ;    1.1988e+02    3.7572e+02 ;     C3 - C1   - H1       CA -   CA - HA  
     3     14      4      1 ;    1.1724e+02    6.9580e+02 ;     C3 - N2   - C4       CA -    x - CA  
     3     15     18      1 ;    1.2302e+02    4.7371e+02 ;     C3 - O1   - P1       CA -    x - x   
     4     12      8      1 ;    1.1242e+02    5.0484e+02 ;     C4 - C12  - C8       CA -   CT - CT  
     4     12      9      1 ;    1.1242e+02    5.0484e+02 ;     C4 - C12  - C9       CA -   CT - CT  
     4     12     40      1 ;    1.1063e+02    3.6493e+02 ;     C4 - C12  - H21      CA -   CT - HC  
     5      2     13      1 ;    1.1664e+02    5.5815e+02 ;     C5 - C2   - N1       CT -   CA - x   
     6     10     16      1 ;    1.0762e+02    6.4802e+02 ;     C6 - C10  - O2       CT -   CT - x   
     6     10     36      1 ;    1.0959e+02    3.6217e+02 ;     C6 - C10  - H17      CT -   CT - HC  
     6     10     37      1 ;    1.0959e+02    3.6217e+02 ;     C6 - C10  - H18      CT -   CT - HC  
     7     11     17      1 ;    1.0762e+02    6.4802e+02 ;     C7 - C11  - O3       CT -   CT - x   
     7     11     38      1 ;    1.0959e+02    3.6217e+02 ;     C7 - C11  - H19      CT -   CT - HC  
     7     11     39      1 ;    1.0959e+02    3.6217e+02 ;     C7 - C11  - H20      CT -   CT - HC  
     8     12      9      1 ;    1.1263e+02    5.0099e+02 ;     C8 - C12  - C9       CT -   CT - CT  
     8     12     40      1 ;    1.0968e+02    3.6208e+02 ;     C8 - C12  - H21      CT -   CT - HC  
     9     12     40      1 ;    1.0968e+02    3.6208e+02 ;     C9 - C12  - H21      CT -   CT - HC  
    10      6     24      1 ;    1.0968e+02    3.6208e+02 ;    C10 - C6   - H5       CT -   CT - HC  
    10      6     25      1 ;    1.0968e+02    3.6208e+02 ;    C10 - C6   - H6       CT -   CT - HC  
    10      6     26      1 ;    1.0968e+02    3.6208e+02 ;    C10 - C6   - H7       CT -   CT - HC  
    10     16     18      1 ;    1.1970e+02    4.7396e+02 ;    C10 - O2   - P1       CT -    x - x   
    11      7     27      1 ;    1.0968e+02    3.6208e+02 ;    C11 - C7   - H8       CT -   CT - HC  
    11      7     28      1 ;    1.0968e+02    3.6208e+02 ;    C11 - C7   - H9       CT -   CT - HC  
    11      7     29      1 ;    1.0968e+02    3.6208e+02 ;    C11 - C7   - H10      CT -   CT - HC  
    11     17     18      1 ;    1.1970e+02    4.7396e+02 ;    C11 - O3   - P1       CT -    x - x   
    12      4     13      1 ;    1.1664e+02    5.5815e+02 ;    C12 - C4   - N1       CT -   CA - x   
    12      4     14      1 ;    1.1664e+02    5.5815e+02 ;    C12 - C4   - N2       CT -   CA - x   
    12      8     30      1 ;    1.0968e+02    3.6208e+02 ;    C12 - C8   - H11      CT -   CT - HC  
    12      8     31      1 ;    1.0968e+02    3.6208e+02 ;    C12 - C8   - H12      CT -   CT - HC  
    12      8     32      1 ;    1.0968e+02    3.6208e+02 ;    C12 - C8   - H13      CT -   CT - HC  
    12      9     33      1 ;    1.0968e+02    3.6208e+02 ;    C12 - C9   - H14      CT -   CT - HC  
    12      9     34      1 ;    1.0968e+02    3.6208e+02 ;    C12 - C9   - H15      CT -   CT - HC  
    12      9     35      1 ;    1.0968e+02    3.6208e+02 ;    C12 - C9   - H16      CT -   CT - HC  
    13      4     14      1 ;    1.2730e+02    6.0886e+02 ;     N1 - C4   - N2        x -   CA - x   
    14      3     15      1 ;    1.1976e+02    7.1521e+02 ;     N2 - C3   - O1        x -   CA - x   
    15     18     16      1 ;    1.0172e+02    8.6123e+02 ;     O1 - P1   - O2        x -    x - x   
    15     18     17      1 ;    1.0172e+02    8.6123e+02 ;     O1 - P1   - O3        x -    x - x   
    15     18     19      1 ;    1.1704e+02    6.8040e+02 ;     O1 - P1   - S1        x -    x - x   
    16     10     36      1 ;    1.1034e+02    4.7028e+02 ;     O2 - C10  - H17       x -   CT - HC  
    16     10     37      1 ;    1.1034e+02    4.7028e+02 ;     O2 - C10  - H18       x -   CT - HC  
    16     18     17      1 ;    1.0172e+02    8.6123e+02 ;     O2 - P1   - O3        x -    x - x   
    16     18     19      1 ;    1.1704e+02    6.8040e+02 ;     O2 - P1   - S1        x -    x - x   
    17     11     38      1 ;    1.1034e+02    4.7028e+02 ;     O3 - C11  - H19       x -   CT - HC  
    17     11     39      1 ;    1.1034e+02    4.7028e+02 ;     O3 - C11  - H20       x -   CT - HC  
    17     18     19      1 ;    1.1704e+02    6.8040e+02 ;     O3 - P1   - S1        x -    x - x   
    21      5     22      1 ;    1.0773e+02    2.9957e+02 ;     H2 - C5   - H3       HC -   CT - HC  
    21      5     23      1 ;    1.0773e+02    2.9957e+02 ;     H2 - C5   - H4       HC -   CT - HC  
    22      5     23      1 ;    1.0773e+02    2.9957e+02 ;     H3 - C5   - H4       HC -   CT - HC  
    24      6     25      1 ;    1.0773e+02    2.9957e+02 ;     H5 - C6   - H6       HC -   CT - HC  
    24      6     26      1 ;    1.0773e+02    2.9957e+02 ;     H5 - C6   - H7       HC -   CT - HC  
    25      6     26      1 ;    1.0773e+02    2.9957e+02 ;     H6 - C6   - H7       HC -   CT - HC  
    27      7     28      1 ;    1.0773e+02    2.9957e+02 ;     H8 - C7   - H9       HC -   CT - HC  
    27      7     29      1 ;    1.0773e+02    2.9957e+02 ;     H8 - C7   - H10      HC -   CT - HC  
    28      7     29      1 ;    1.0773e+02    2.9957e+02 ;     H9 - C7   - H10      HC -   CT - HC  
    30      8     31      1 ;    1.0773e+02    2.9957e+02 ;    H11 - C8   - H12      HC -   CT - HC  
    30      8     32      1 ;    1.0773e+02    2.9957e+02 ;    H11 - C8   - H13      HC -   CT - HC  
    31      8     32      1 ;    1.0773e+02    2.9957e+02 ;    H12 - C8   - H13      HC -   CT - HC  
    33      9     34      1 ;    1.0773e+02    2.9957e+02 ;    H14 - C9   - H15      HC -   CT - HC  
    33      9     35      1 ;    1.0773e+02    2.9957e+02 ;    H14 - C9   - H16      HC -   CT - HC  
    34      9     35      1 ;    1.0773e+02    2.9957e+02 ;    H15 - C9   - H16      HC -   CT - HC  
    36     10     37      1 ;    1.0855e+02    2.9824e+02 ;    H17 - C10  - H18      HC -   CT - HC  
    38     11     39      1 ;    1.0855e+02    2.9824e+02 ;    H19 - C11  - H20      HC -   CT - HC  

[ dihedrals ] ; propers
; for gromacs 4.5 or higher, using funct 9
;    i      j      k      l   func   phase     kd      pn
     1      2      5     21      9 ;     0.00   0.00000   0 ;     C1-    C2-    C5-    H2
     1      2      5     22      9 ;     0.00   0.00000   0 ;     C1-    C2-    C5-    H3
     1      2      5     23      9 ;     0.00   0.00000   0 ;     C1-    C2-    C5-    H4
     1      2     13      4      9 ;   180.00  20.08320   2 ;     C1-    C2-    N1-    C4
     1      3     14      4      9 ;   180.00  20.08320   2 ;     C1-    C3-    N2-    C4
     1      3     15     18      9 ;   180.00   7.32200   2 ;     C1-    C3-    O1-    P1
     2      1      3     14      9 ;   180.00  15.16700   2 ;     C2-    C1-    C3-    N2
     2      1      3     15      9 ;   180.00  15.16700   2 ;     C2-    C1-    C3-    O1
     2     13      4     12      9 ;   180.00  20.08320   2 ;     C2-    N1-    C4-   C12
     2     13      4     14      9 ;   180.00  20.08320   2 ;     C2-    N1-    C4-    N2
     3      1      2      5      9 ;   180.00  15.16700   2 ;     C3-    C1-    C2-    C5
     3      1      2     13      9 ;   180.00  15.16700   2 ;     C3-    C1-    C2-    N1
     3     14      4     12      9 ;   180.00  20.08320   2 ;     C3-    N2-    C4-   C12
     3     14      4     13      9 ;   180.00  20.08320   2 ;     C3-    N2-    C4-    N1
     3     15     18     16      9 ;     0.00   3.34720   2 ;     C3-    O1-    P1-    O2
     3     15     18     17      9 ;     0.00   3.34720   2 ;     C3-    O1-    P1-    O3
     3     15     18     19      9 ;     0.00   3.34720   2 ;     C3-    O1-    P1-    S1
     4     12      8     30      9 ;     0.00   0.65084   3 ;     C4-   C12-    C8-   H11
     4     12      8     31      9 ;     0.00   0.65084   3 ;     C4-   C12-    C8-   H12
     4     12      8     32      9 ;     0.00   0.65084   3 ;     C4-   C12-    C8-   H13
     4     12      9     33      9 ;     0.00   0.65084   3 ;     C4-   C12-    C9-   H14
     4     12      9     34      9 ;     0.00   0.65084   3 ;     C4-   C12-    C9-   H15
     4     12      9     35      9 ;     0.00   0.65084   3 ;     C4-   C12-    C9-   H16
     4     13      2      5      9 ;   180.00  20.08320   2 ;     C4-    N1-    C2-    C5
     4     14      3     15      9 ;   180.00  20.08320   2 ;     C4-    N2-    C3-    O1
     6     10     16     18      9 ;     0.00   1.60247   3 ;     C6-   C10-    O2-    P1
     6     10     16     18      9 ;   180.00  16.52680   1 ;     C6-   C10-    O2-    P1
     7     11     17     18      9 ;     0.00   1.60247   3 ;     C7-   C11-    O3-    P1
     7     11     17     18      9 ;   180.00  16.52680   1 ;     C7-   C11-    O3-    P1
     8     12      4     13      9 ;     0.00   0.00000   0 ;     C8-   C12-    C4-    N1
     8     12      4     14      9 ;     0.00   0.00000   0 ;     C8-   C12-    C4-    N2
     8     12      9     33      9 ;     0.00   0.54392   3 ;     C8-   C12-    C9-   H14
     8     12      9     34      9 ;     0.00   0.54392   3 ;     C8-   C12-    C9-   H15
     8     12      9     35      9 ;     0.00   0.54392   3 ;     C8-   C12-    C9-   H16
     9     12      4     13      9 ;     0.00   0.00000   0 ;     C9-   C12-    C4-    N1
     9     12      4     14      9 ;     0.00   0.00000   0 ;     C9-   C12-    C4-    N2
     9     12      8     30      9 ;     0.00   0.54392   3 ;     C9-   C12-    C8-   H11
     9     12      8     31      9 ;     0.00   0.54392   3 ;     C9-   C12-    C8-   H12
     9     12      8     32      9 ;     0.00   0.54392   3 ;     C9-   C12-    C8-   H13
    10     16     18     15      9 ;     0.00  14.72768   2 ;    C10-    O2-    P1-    O1
    10     16     18     17      9 ;     0.00  14.72768   2 ;    C10-    O2-    P1-    O3
    10     16     18     19      9 ;     0.00   3.34720   2 ;    C10-    O2-    P1-    S1
    11     17     18     15      9 ;     0.00  14.72768   2 ;    C11-    O3-    P1-    O1
    11     17     18     16      9 ;     0.00  14.72768   2 ;    C11-    O3-    P1-    O2
    11     17     18     19      9 ;     0.00   3.34720   2 ;    C11-    O3-    P1-    S1
    13      2      5     21      9 ;     0.00   0.00000   0 ;     N1-    C2-    C5-    H2
    13      2      5     22      9 ;     0.00   0.00000   0 ;     N1-    C2-    C5-    H3
    13      2      5     23      9 ;     0.00   0.00000   0 ;     N1-    C2-    C5-    H4
    13      4     12     40      9 ;     0.00   0.00000   0 ;     N1-    C4-   C12-   H21
    14      3     15     18      9 ;   180.00   3.76560   2 ;     N2-    C3-    O1-    P1
    14      4     12     40      9 ;     0.00   0.00000   0 ;     N2-    C4-   C12-   H21
    16     10      6     24      9 ;     0.00   0.00000   0 ;     O2-   C10-    C6-    H5
    16     10      6     24      9 ;     0.00   1.04600   1 ;     O2-   C10-    C6-    H5
    16     10      6     25      9 ;     0.00   0.00000   0 ;     O2-   C10-    C6-    H6
    16     10      6     25      9 ;     0.00   1.04600   1 ;     O2-   C10-    C6-    H6
    16     10      6     26      9 ;     0.00   0.00000   0 ;     O2-   C10-    C6-    H7
    16     10      6     26      9 ;     0.00   1.04600   1 ;     O2-   C10-    C6-    H7
    17     11      7     27      9 ;     0.00   0.00000   0 ;     O3-   C11-    C7-    H8
    17     11      7     27      9 ;     0.00   1.04600   1 ;     O3-   C11-    C7-    H8
    17     11      7     28      9 ;     0.00   0.00000   0 ;     O3-   C11-    C7-    H9
    17     11      7     28      9 ;     0.00   1.04600   1 ;     O3-   C11-    C7-    H9
    17     11      7     29      9 ;     0.00   0.00000   0 ;     O3-   C11-    C7-   H10
    17     11      7     29      9 ;     0.00   1.04600   1 ;     O3-   C11-    C7-   H10
    18     16     10     36      9 ;     0.00   0.00000   0 ;     P1-    O2-   C10-   H17
    18     16     10     37      9 ;     0.00   0.00000   0 ;     P1-    O2-   C10-   H18
    18     17     11     38      9 ;     0.00   0.00000   0 ;     P1-    O3-   C11-   H19
    18     17     11     39      9 ;     0.00   0.00000   0 ;     P1-    O3-   C11-   H20
    20      1      2      5      9 ;   180.00  15.16700   2 ;     H1-    C1-    C2-    C5
    20      1      2     13      9 ;   180.00  15.16700   2 ;     H1-    C1-    C2-    N1
    20      1      3     14      9 ;   180.00  15.16700   2 ;     H1-    C1-    C3-    N2
    20      1      3     15      9 ;   180.00  15.16700   2 ;     H1-    C1-    C3-    O1
    24      6     10     36      9 ;     0.00   0.65084   3 ;     H5-    C6-   C10-   H17
    24      6     10     37      9 ;     0.00   0.65084   3 ;     H5-    C6-   C10-   H18
    25      6     10     36      9 ;     0.00   0.65084   3 ;     H6-    C6-   C10-   H17
    25      6     10     37      9 ;     0.00   0.65084   3 ;     H6-    C6-   C10-   H18
    26      6     10     36      9 ;     0.00   0.65084   3 ;     H7-    C6-   C10-   H17
    26      6     10     37      9 ;     0.00   0.65084   3 ;     H7-    C6-   C10-   H18
    27      7     11     38      9 ;     0.00   0.65084   3 ;     H8-    C7-   C11-   H19
    27      7     11     39      9 ;     0.00   0.65084   3 ;     H8-    C7-   C11-   H20
    28      7     11     38      9 ;     0.00   0.65084   3 ;     H9-    C7-   C11-   H19
    28      7     11     39      9 ;     0.00   0.65084   3 ;     H9-    C7-   C11-   H20
    29      7     11     38      9 ;     0.00   0.65084   3 ;    H10-    C7-   C11-   H19
    29      7     11     39      9 ;     0.00   0.65084   3 ;    H10-    C7-   C11-   H20
    30      8     12     40      9 ;     0.00   0.50208   3 ;    H11-    C8-   C12-   H21
    31      8     12     40      9 ;     0.00   0.50208   3 ;    H12-    C8-   C12-   H21
    32      8     12     40      9 ;     0.00   0.50208   3 ;    H13-    C8-   C12-   H21
    33      9     12     40      9 ;     0.00   0.50208   3 ;    H14-    C9-   C12-   H21
    34      9     12     40      9 ;     0.00   0.50208   3 ;    H15-    C9-   C12-   H21
    35      9     12     40      9 ;     0.00   0.50208   3 ;    H16-    C9-   C12-   H21

[ dihedrals ] ; impropers
; treated as propers in GROMACS to use correct AMBER analytical function
;    i      j      k      l   func   phase     kd      pn
     1     14      3     15      4 ;   180.00   4.60240   2 ;     C1-    N2-    C3-    O1
     5      1      2     13      4 ;   180.00   4.60240   2 ;     C5-    C1-    C2-    N1
    12     13      4     14      4 ;   180.00   4.60240   2 ;    C12-    N1-    C4-    N2
    20      1      3      2      4 ;   180.00   4.60240   2 ;     H1-    C1-    C3-    C2
