; mobley_5393242_GMX_OPLS.top created by acpype (v: 2023.10.27) on Wed May 20 23:55:13 2026

; Include forcefield parameters
#include "ffoplsaa.itp"

; Include mobley_5393242_GMX.itp topology
#include "mobley_5393242_GMX.itp"

; Ligand position restraints
#ifdef POSRES_LIG
#include "posre_mobley_5393242.itp"
#endif

[ system ]
 mobley_5393242

[ molecules ]
; Compound        nmols
 mobley_5393242   1     
