CUP08024_AM1BCC_v1_0
    40
  -1.3330000   0.3160000  -5.9140000  -2.2640000   0.1680000  -6.9190000
  -1.7530000  -0.0380000  -4.6550000  -3.8220000  -0.6120000  -5.4130000
  -1.9150000   0.5230000  -8.3330000  -3.7950000   1.9990000  -0.2590000
   2.3050000   0.8870000  -0.9920000  -5.9390000  -0.2610000  -4.1200000
  -5.1680000  -2.5910000  -4.6910000  -2.9050000   0.7830000  -0.4160000
   1.3020000  -0.1320000  -1.4920000  -5.2150000  -1.1330000  -5.1460000
  -3.5090000  -0.2930000  -6.6840000  -2.9750000  -0.5010000  -4.3760000
  -0.8560000   0.1030000  -3.6310000  -2.4180000   0.7510000  -1.7450000
  -0.0020000   0.3940000  -1.3100000  -1.2380000  -0.2970000  -2.1130000
  -1.5120000  -2.1750000  -1.6850000  -0.3350000   0.6880000  -6.0980000
  -1.0750000  -0.0860000  -8.6800000  -2.7640000   0.3440000  -9.0010000
  -1.6450000   1.5810000  -8.4010000  -3.2360000   2.9160000  -0.4720000
  -4.6280000   1.9610000  -0.9680000  -4.1970000   2.0590000   0.7560000
   2.2060000   1.8270000  -1.5440000   2.1290000   1.1170000   0.0640000
   3.3280000   0.5160000  -1.1070000  -5.4410000  -0.2820000  -3.1440000
  -6.9690000  -0.6060000  -3.9780000  -5.9770000   0.7830000  -4.4520000
  -4.6350000  -2.7030000  -3.7410000  -4.6590000  -3.2170000  -5.4330000
  -6.1810000  -2.9870000  -4.5560000  -3.4820000  -0.1250000  -0.2190000
  -2.0700000   0.8360000   0.2900000   1.3990000  -1.0600000  -0.9200000
   1.4820000  -0.3460000  -2.5500000  -5.7840000  -1.0900000  -6.0840000
