%VERSION  VERSION_STAMP = V0001.000  DATE = 05/20/26  23:56:00                  
%FLAG TITLE                                                                     
%FORMAT(20a4)                                                                   
CUP08024_AM1BCC_v1_0                                                            
%FLAG POINTERS                                                                  
%FORMAT(10I8)                                                                   
      40       9      21      19      45      26      59      34       0       0
     195       1      19      26      34      11      22      16       9       0
       0       0       0       0       0       0       0       0      40       0
       0
%FLAG ATOM_NAME                                                                 
%FORMAT(20a4)                                                                   
C1  C2  C3  C4  C5  C6  C7  C8  C9  C10 C11 C12 N1  N2  O1  O2  O3  P1  S1  H1  
H2  H3  H4  H5  H6  H7  H8  H9  H10 H11 H12 H13 H14 H15 H16 H17 H18 H19 H20 H21 
%FLAG CHARGE                                                                    
%FORMAT(5E16.8)                                                                 
 -6.57096138E+00  8.79408198E+00  1.23109859E+01  1.32166342E+01 -2.90463462E+00
 -1.98805293E+00 -1.98805293E+00 -1.80582993E+00 -1.80582993E+00  2.76796737E+00
  2.76796737E+00 -1.80400770E+00 -1.30836114E+01 -1.51062867E+01 -9.56124081E+00
 -9.60679656E+00 -9.60679656E+00  2.28179641E+01 -1.09698246E+01  3.18890250E+00
  1.17291478E+00  1.17291478E+00  1.17291478E+00  9.51204060E-01  9.51204060E-01
  9.51204060E-01  9.51204060E-01  9.51204060E-01  9.51204060E-01  8.96537160E-01
  8.96537160E-01  8.96537160E-01  8.96537160E-01  8.96537160E-01  8.96537160E-01
  1.23820529E+00  1.23820529E+00  1.23820529E+00  1.23820529E+00  1.37942811E+00
%FLAG ATOMIC_NUMBER                                                             
%FORMAT(10I8)                                                                   
       6       6       6       6       6       6       6       6       6       6
       6       6       7       7       8       8       8      15      16       1
       1       1       1       1       1       1       1       1       1       1
       1       1       1       1       1       1       1       1       1       1
%FLAG MASS                                                                      
%FORMAT(5E16.8)                                                                 
  1.20100000E+01  1.20100000E+01  1.20100000E+01  1.20100000E+01  1.20100000E+01
  1.20100000E+01  1.20100000E+01  1.20100000E+01  1.20100000E+01  1.20100000E+01
  1.20100000E+01  1.20100000E+01  1.40100000E+01  1.40100000E+01  1.60000000E+01
  1.60000000E+01  1.60000000E+01  3.09700000E+01  3.20600000E+01  1.00800000E+00
  1.00800000E+00  1.00800000E+00  1.00800000E+00  1.00800000E+00  1.00800000E+00
  1.00800000E+00  1.00800000E+00  1.00800000E+00  1.00800000E+00  1.00800000E+00
  1.00800000E+00  1.00800000E+00  1.00800000E+00  1.00800000E+00  1.00800000E+00
  1.00800000E+00  1.00800000E+00  1.00800000E+00  1.00800000E+00  1.00800000E+00
%FLAG ATOM_TYPE_INDEX                                                           
%FORMAT(10I8)                                                                   
       1       1       1       1       2       2       2       2       2       2
       2       2       3       3       4       4       4       5       6       7
       8       8       8       8       8       8       8       8       8       8
       8       8       8       8       8       9       9       9       9       8
%FLAG NUMBER_EXCLUDED_ATOMS                                                     
%FORMAT(10I8)                                                                   
      12      11      11      14       5       8       8      11      10      10
      10       9       6       4       5       8       7       5       1       1
       2       1       1       4       3       2       4       3       2       3
       2       1       3       2       1       1       1       1       1       1
%FLAG NONBONDED_PARM_INDEX                                                      
%FORMAT(10I8)                                                                   
       1       2       4       7      11      16      22      29      37       2
       3       5       8      12      17      23      30      38       4       5
       6       9      13      18      24      31      39       7       8       9
      10      14      19      25      32      40      11      12      13      14
      15      20      26      33      41      16      17      18      19      20
      21      27      34      42      22      23      24      25      26      27
      28      35      43      29      30      31      32      33      34      35
      36      44      37      38      39      40      41      42      43      44
      45
%FLAG RESIDUE_LABEL                                                             
%FORMAT(20a4)                                                                   
MOL 
%FLAG RESIDUE_POINTER                                                           
%FORMAT(10I8)                                                                   
       1
%FLAG BOND_FORCE_CONSTANT                                                       
%FORMAT(5E16.8)                                                                 
  3.54250000E+02  3.60690000E+02  2.43910000E+02  3.86490000E+02  3.43340000E+02
  3.45250000E+02  2.28890000E+02  2.82270000E+02  3.44220000E+02  3.87590000E+02
  2.63920000E+02
%FLAG BOND_EQUIL_VALUE                                                          
%FORMAT(5E16.8)                                                                 
  1.39860000E+00  1.08600000E+00  1.51470000E+00  1.33920000E+00  1.36880000E+00
  1.09620000E+00  1.53540000E+00  1.42730000E+00  1.09690000E+00  1.61820000E+00
  1.94730000E+00
%FLAG ANGLE_FORCE_CONSTANT                                                      
%FORMAT(5E16.8)                                                                 
  6.07400000E+01  6.81700000E+01  7.90000000E+01  6.36700000E+01  4.49000000E+01
  4.36100000E+01  8.31500000E+01  5.66100000E+01  6.03300000E+01  6.67000000E+01
  7.74400000E+01  4.32800000E+01  5.98700000E+01  4.32700000E+01  5.66400000E+01
  7.27600000E+01  8.54700000E+01  1.02920000E+02  8.13100000E+01  5.62000000E+01
  3.58000000E+01  3.56400000E+01
%FLAG ANGLE_EQUIL_VALUE                                                         
%FORMAT(5E16.8)                                                                 
  2.10888224E+00  2.14570870E+00  2.07886256E+00  2.09474507E+00  2.09230160E+00
  1.93085858E+00  2.04622489E+00  2.14710497E+00  1.96209999E+00  2.03575291E+00
  1.87832415E+00  1.91270715E+00  1.96576518E+00  1.91427794E+00  2.08916001E+00
  2.22180509E+00  2.09020721E+00  1.77534968E+00  2.04273423E+00  1.92579712E+00
  1.88024401E+00  1.89455572E+00
%FLAG DIHEDRAL_FORCE_CONSTANT                                                   
%FORMAT(5E16.8)                                                                 
  0.00000000E+00  4.80000000E+00  1.75000000E+00  3.62500000E+00  8.00000000E-01
  1.55555556E-01  3.95000000E+00  3.83000000E-01  0.00000000E+00  1.30000000E-01
  3.52000000E+00  9.00000000E-01  2.50000000E-01  0.00000000E+00  1.20000000E-01
  1.10000000E+00
%FLAG DIHEDRAL_PERIODICITY                                                      
%FORMAT(5E16.8)                                                                 
  1.00000000E+00  2.00000000E+00  2.00000000E+00  2.00000000E+00  2.00000000E+00
  3.00000000E+00  1.00000000E+00  3.00000000E+00  2.00000000E+00  3.00000000E+00
  2.00000000E+00  2.00000000E+00  1.00000000E+00  3.00000000E+00  3.00000000E+00
  2.00000000E+00
%FLAG DIHEDRAL_PHASE                                                            
%FORMAT(5E16.8)                                                                 
  0.00000000E+00  3.14159400E+00  3.14159400E+00  3.14159400E+00  0.00000000E+00
  0.00000000E+00  3.14159400E+00  0.00000000E+00  0.00000000E+00  0.00000000E+00
  0.00000000E+00  3.14159400E+00  0.00000000E+00  0.00000000E+00  0.00000000E+00
  3.14159400E+00
%FLAG SCEE_SCALE_FACTOR                                                         
%FORMAT(5E16.8)                                                                 
  1.20000000E+00  1.20000000E+00  1.20000000E+00  1.20000000E+00  1.20000000E+00
  1.20000000E+00  1.20000000E+00  1.20000000E+00  1.20000000E+00  1.20000000E+00
  1.20000000E+00  1.20000000E+00  1.20000000E+00  1.20000000E+00  1.20000000E+00
  0.00000000E+00
%FLAG SCNB_SCALE_FACTOR                                                         
%FORMAT(5E16.8)                                                                 
  2.00000000E+00  2.00000000E+00  2.00000000E+00  2.00000000E+00  2.00000000E+00
  2.00000000E+00  2.00000000E+00  2.00000000E+00  2.00000000E+00  2.00000000E+00
  2.00000000E+00  2.00000000E+00  2.00000000E+00  2.00000000E+00  2.00000000E+00
  0.00000000E+00
%FLAG SOLTY                                                                     
%FORMAT(5E16.8)                                                                 
  0.00000000E+00  0.00000000E+00  0.00000000E+00  0.00000000E+00  0.00000000E+00
  0.00000000E+00  0.00000000E+00  0.00000000E+00  0.00000000E+00
%FLAG LENNARD_JONES_ACOEF                                                       
%FORMAT(5E16.8)                                                                 
  6.96551276E+05  8.43969952E+05  1.02073671E+06  7.69642101E+05  9.31115275E+05
  8.49322032E+05  4.46121722E+05  5.42502534E+05  4.94433451E+05  2.83662575E+05
  2.06784094E+06  2.48558450E+06  2.26961936E+06  1.34566835E+06  5.92702883E+06
  1.73376823E+06  2.09089895E+06  1.90820499E+06  1.12086734E+06  5.04212449E+06
  4.26366419E+06  7.52549148E+04  9.27554496E+04  8.43518904E+04  4.65732396E+04
  2.40822878E+05  1.95762765E+05  6.90855956E+03  8.12662403E+04  1.00235148E+05
  9.11435380E+04  5.02224902E+04  2.60860942E+05  2.11783234E+05  7.41026906E+03
  7.94617769E+03  5.63013422E+04  6.97998263E+04  6.34160397E+04  3.44374471E+04
  1.84820254E+05  1.48672098E+05  4.88692384E+03  5.22955465E+03  3.39005767E+03
%FLAG LENNARD_JONES_BCOEF                                                       
%FORMAT(5E16.8)                                                                 
  5.24668528E+02  5.90251928E+02  6.63431737E+02  5.44830041E+02  6.12468585E+02
  5.65406768E+02  3.88758656E+02  4.38146883E+02  4.04310927E+02  2.87011518E+02
  1.11602383E+03  1.25053147E+03  1.15504682E+03  8.33544600E+02  2.33259779E+03
  1.07629402E+03  1.20800124E+03  1.11546536E+03  8.01230425E+02  2.26594113E+03
  2.19459223E+03  1.09570372E+02  1.24325688E+02  1.14599119E+02  7.98066064E+01
  2.41980856E+02  2.29782888E+02  2.10929191E+01  1.21392023E+02  1.37787728E+02
  1.27000718E+02  8.83545880E+01  2.68501076E+02  2.54804909E+02  2.32899892E+01
  2.57122925E+01  1.01040256E+02  1.14981426E+02  1.05935811E+02  7.31636661E+01
  2.26004082E+02  2.13489607E+02  1.89134207E+01  2.08590256E+01  1.67944276E+01
%FLAG BONDS_INC_HYDROGEN                                                        
%FORMAT(10I8)                                                                   
       0      57       2      12      60       6      12      63       6      12
      66       6      15      69       6      15      72       6      15      75
       6      18      78       6      18      81       6      18      84       6
      21      87       6      21      90       6      21      93       6      24
      96       6      24      99       6      24     102       6      27     105
       9      27     108       9      30     111       9      30     114       9
      33     117       6
%FLAG BONDS_WITHOUT_HYDROGEN                                                    
%FORMAT(10I8)                                                                   
       0       3       1       0       6       1       3      12       3       3
      36       4       6      39       4       6      42       5       9      33
       3       9      36       4       9      39       4      15      27       7
      18      30       7      21      33       7      24      33       7      27
      45       8      30      48       8      42      51      10      45      51
      10      48      51      10      51      54      11
%FLAG ANGLES_INC_HYDROGEN                                                       
%FORMAT(10I8)                                                                   
       3       0      57       5       3      12      60       6       3      12
      63       6       3      12      66       6       6       0      57       5
       9      33     117       6      15      27     105      12      15      27
     108      12      18      30     111      12      18      30     114      12
      21      33     117      14      24      33     117      14      27      15
      69      14      27      15      72      14      27      15      75      14
      30      18      78      14      30      18      81      14      30      18
      84      14      33      21      87      14      33      21      90      14
      33      21      93      14      33      24      96      14      33      24
      99      14      33      24     102      14      45      27     105      20
      45      27     108      20      48      30     111      20      48      30
     114      20      60      12      63      21      60      12      66      21
      63      12      66      21      69      15      72      21      69      15
      75      21      72      15      75      21      78      18      81      21
      78      18      84      21      81      18      84      21      87      21
      90      21      87      21      93      21      90      21      93      21
      96      24      99      21      96      24     102      21      99      24
     102      21     105      27     108      22     111      30     114      22
%FLAG ANGLES_WITHOUT_HYDROGEN                                                   
%FORMAT(10I8)                                                                   
       0       3      12       1       0       3      36       2       0       6
      39       2       0       6      42       3       3       0       6       4
       3      36       9       7       6      39       9       7       6      42
      51       8       9      33      21       9       9      33      24       9
      12       3      36      10      15      27      45      11      18      30
      48      11      21      33      24      13      27      45      51      15
      30      48      51      15      33       9      36      10      33       9
      39      10      36       9      39      16      39       6      42      17
      42      51      45      18      42      51      48      18      42      51
      54      19      45      51      48      18      45      51      54      19
      48      51      54      19
%FLAG DIHEDRALS_INC_HYDROGEN                                                    
%FORMAT(10I8)                                                                   
       0       3      12      60       1       0       3      12      63       1
       0       3      12      66       1       9      33      21      87       6
       9      33      21      90       6       9      33      21      93       6
       9      33      24      96       6       9      33      24      99       6
       9      33      24     102       6      57       0       3      12       4
      21      33      24      96      10      21      33      24      99      10
      21      33      24     102      10      24      33      21      87      10
      24      33      21      90      10      24      33      21      93      10
      57       0       3      36       4      36       3      12      60       9
      36       3      12      63       9      36       3      12      66       9
      36       9      33     117       9      57       0       6      39       4
      39       9      33     117       9      57       0       6      42       4
      45      27      15      69      13      45      27     -15      69      14
      45      27      15      72      13      45      27     -15      72      14
      45      27      15      75      13      45      27     -15      75      14
      48      30      18      78      13      48      30     -18      78      14
      48      30      18      81      13      48      30     -18      81      14
      48      30      18      84      13      48      30     -18      84      14
      51      45      27     105       1      51      45      27     108       1
      51      48      30     111       1      51      48      30     114       1
      69      15      27     105       6      69      15      27     108       6
      72      15      27     105       6      72      15      27     108       6
      75      15      27     105       6      75      15      27     108       6
      78      18      30     111       6      78      18      30     114       6
      81      18      30     111       6      81      18      30     114       6
      84      18      30     111       6      84      18      30     114       6
      87      21      33     117      15      90      21      33     117      15
      93      21      33     117      15      96      24      33     117      15
      99      24      33     117      15     102      24      33     117      15
      57       0      -6      -3      16
%FLAG DIHEDRALS_WITHOUT_HYDROGEN                                                
%FORMAT(10I8)                                                                   
       0       3      36       9       2       0       6     -39       9       2
       0       6      42      51       3       3       0       6      39       4
       3       0       6      42       4       3      36       9      33       2
       3      36      -9      39       2       6       0       3      12       4
       6       0       3      36       4       6      39       9      33       2
       6      39      -9      36       2       6      42      51      45       5
       6      42      51      48       5       6      42      51      54       5
       9      36       3      12       2       9      39       6      42       2
      15      27      45      51       7      15      27     -45      51       8
      18      30      48      51       7      18      30     -48      51       8
      21      33       9      36       9      21      33       9      39       9
      24      33       9      36       9      24      33       9      39       9
      27      45      51      42      11      27      45      51      48      11
      27      45      51      54       5      30      48      51      42      11
      30      48      51      45      11      30      48      51      54       5
      39       6      42      51      12      12       0      -3     -36      16
       0      39      -6     -42      16      33      36      -9     -39      16
%FLAG EXCLUDED_ATOMS_LIST                                                       
%FORMAT(10I8)                                                                   
       2       3       4       5      13      14      15      18      20      21
      22      23       3       4       5      12      13      14      15      20
      21      22      23       4       5      12      13      14      15      16
      17      18      19      20       5       8       9      12      13      14
      15      30      31      32      33      34      35      40      13      20
      21      22      23      10      16      18      24      25      26      36
      37      11      17      18      27      28      29      38      39       9
      12      13      14      30      31      32      33      34      35      40
      12      13      14      30      31      32      33      34      35      40
      15      16      17      18      19      24      25      26      36      37
      15      16      17      18      19      27      28      29      38      39
      13      14      30      31      32      33      34      35      40      14
      20      21      22      23      40      15      18      20      40      16
      17      18      19      20      17      18      19      24      25      26
      36      37      18      19      27      28      29      38      39      19
      36      37      38      39       0       0      22      23      23       0
      25      26      36      37      26      36      37      36      37      28
      29      38      39      29      38      39      38      39      31      32
      40      32      40      40      34      35      40      35      40      40
      37       0      39       0       0
%FLAG HBOND_ACOEF                                                               
%FORMAT(5E16.8)                                                                 

%FLAG HBOND_BCOEF                                                               
%FORMAT(5E16.8)                                                                 

%FLAG HBCUT                                                                     
%FORMAT(5E16.8)                                                                 

%FLAG AMBER_ATOM_TYPE                                                           
%FORMAT(20a4)                                                                   
ca  ca  ca  ca  c3  c3  c3  c3  c3  c3  c3  c3  nb  nb  os  os  os  p5  s   ha  
hc  hc  hc  hc  hc  hc  hc  hc  hc  hc  hc  hc  hc  hc  hc  h1  h1  h1  h1  hc  
%FLAG TREE_CHAIN_CLASSIFICATION                                                 
%FORMAT(20a4)                                                                   
BLA BLA BLA BLA BLA BLA BLA BLA BLA BLA BLA BLA BLA BLA BLA BLA BLA BLA BLA BLA 
BLA BLA BLA BLA BLA BLA BLA BLA BLA BLA BLA BLA BLA BLA BLA BLA BLA BLA BLA BLA 
%FLAG JOIN_ARRAY                                                                
%FORMAT(10I8)                                                                   
       0       0       0       0       0       0       0       0       0       0
       0       0       0       0       0       0       0       0       0       0
       0       0       0       0       0       0       0       0       0       0
       0       0       0       0       0       0       0       0       0       0
%FLAG IROTAT                                                                    
%FORMAT(10I8)                                                                   
       0       0       0       0       0       0       0       0       0       0
       0       0       0       0       0       0       0       0       0       0
       0       0       0       0       0       0       0       0       0       0
       0       0       0       0       0       0       0       0       0       0
%FLAG RADIUS_SET                                                                
%FORMAT(1a80)                                                                   
modified Bondi radii (mbondi)                                                   
%FLAG RADII                                                                     
%FORMAT(5E16.8)                                                                 
  1.70000000E+00  1.70000000E+00  1.70000000E+00  1.70000000E+00  1.70000000E+00
  1.70000000E+00  1.70000000E+00  1.70000000E+00  1.70000000E+00  1.70000000E+00
  1.70000000E+00  1.70000000E+00  1.55000000E+00  1.55000000E+00  1.50000000E+00
  1.50000000E+00  1.50000000E+00  1.85000000E+00  1.80000000E+00  1.30000000E+00
  1.30000000E+00  1.30000000E+00  1.30000000E+00  1.30000000E+00  1.30000000E+00
  1.30000000E+00  1.30000000E+00  1.30000000E+00  1.30000000E+00  1.30000000E+00
  1.30000000E+00  1.30000000E+00  1.30000000E+00  1.30000000E+00  1.30000000E+00
  1.30000000E+00  1.30000000E+00  1.30000000E+00  1.30000000E+00  1.30000000E+00
%FLAG SCREEN                                                                    
%FORMAT(5E16.8)                                                                 
  7.20000000E-01  7.20000000E-01  7.20000000E-01  7.20000000E-01  7.20000000E-01
  7.20000000E-01  7.20000000E-01  7.20000000E-01  7.20000000E-01  7.20000000E-01
  7.20000000E-01  7.20000000E-01  7.90000000E-01  7.90000000E-01  8.50000000E-01
  8.50000000E-01  8.50000000E-01  8.60000000E-01  9.60000000E-01  8.50000000E-01
  8.50000000E-01  8.50000000E-01  8.50000000E-01  8.50000000E-01  8.50000000E-01
  8.50000000E-01  8.50000000E-01  8.50000000E-01  8.50000000E-01  8.50000000E-01
  8.50000000E-01  8.50000000E-01  8.50000000E-01  8.50000000E-01  8.50000000E-01
  8.50000000E-01  8.50000000E-01  8.50000000E-01  8.50000000E-01  8.50000000E-01
%FLAG IPOL                                                                      
%FORMAT(1I8)                                                                    
       0
