mobley_8809190_GMX.gro created by acpype (v: 2023.10.27) on Wed May 20 23:51:19 2026
11949
    1MOL     C1    1   2.639   2.519   2.139
    1MOL     C2    2   2.664   2.614   2.238
    1MOL     C3    3   2.534   2.429   2.154
    1MOL     C4    4   2.584   2.619   2.352
    1MOL     C5    5   2.454   2.433   2.268
    1MOL     C6    6   2.480   2.528   2.366
    1MOL     C7    7   2.410   2.356   2.833
    1MOL     C8    8   2.393   2.533   2.489
    1MOL     C9    9   2.358   2.447   2.723
    1MOL    C10   10   2.448   2.444   2.600
    1MOL     H1   11   2.702   2.516   2.050
    1MOL     H2   12   2.746   2.685   2.226
    1MOL     H3   13   2.515   2.355   2.077
    1MOL     H4   14   2.604   2.693   2.428
    1MOL     H5   15   2.372   2.362   2.279
    1MOL     H6   16   2.510   2.386   2.866
    1MOL     H7   17   2.415   2.252   2.799
    1MOL     H8   18   2.343   2.359   2.920
    1MOL     H9   19   2.385   2.637   2.524
    1MOL    H10   20   2.291   2.503   2.463
    1MOL    H11   21   2.351   2.549   2.762
    1MOL    H12   22   2.256   2.416   2.696
    1MOL    H13   23   2.549   2.477   2.628
    1MOL    H14   24   2.458   2.341   2.564
    2SOL     OW   25   0.230   0.628   0.113
    2SOL    HW1   26   0.137   0.626   0.150
    2SOL    HW2   27   0.231   0.589   0.021
    3SOL     OW   28   0.225   0.275   0.996
    3SOL    HW1   29   0.260   0.258   1.088
    3SOL    HW2   30   0.137   0.230   0.984
    4SOL     OW   31   0.019   0.368   0.647
    4SOL    HW1   32  -0.063   0.411   0.686
    4SOL    HW2   33  -0.009   0.295   0.584
    5SOL     OW   34   0.569   1.275   1.165
    5SOL    HW1   35   0.476   1.268   1.128
    5SOL    HW2   36   0.580   1.364   1.209
    6SOL     OW   37   1.555   1.511   0.703
    6SOL    HW1   38   1.498   1.495   0.784
    6SOL    HW2   39   1.496   1.521   0.623
    7SOL     OW   40   1.135   0.703   0.717
    7SOL    HW1   41   1.192   0.781   0.692
    7SOL    HW2   42   1.075   0.729   0.793
    8SOL     OW   43   1.755   0.607   0.231
    8SOL    HW1   44   1.743   0.594   0.132
    8SOL    HW2   45   1.725   0.526   0.280
    9SOL     OW   46   0.768   1.144   1.023
    9SOL    HW1   47   0.690   1.161   1.083
    9SOL    HW2   48   0.802   1.231   0.987
   10SOL     OW   49   0.850   0.798   1.823
   10SOL    HW1   50   0.846   0.874   1.888
   10SOL    HW2   51   0.872   0.834   1.732
   11SOL     OW   52   0.685   1.012   0.665
   11SOL    HW1   53   0.754   0.996   0.735
   11SOL    HW2   54   0.612   1.069   0.703
   12SOL     OW   55   0.686   1.161   1.803
   12SOL    HW1   56   0.746   1.240   1.817
   12SOL    HW2   57   0.600   1.192   1.762
   13SOL     OW   58   0.335   1.435   1.061
   13SOL    HW1   59   0.257   1.404   1.008
   13SOL    HW2   60   0.393   1.493   1.004
   14SOL     OW   61   1.460   1.505   1.339
   14SOL    HW1   62   1.484   1.599   1.365
   14SOL    HW2   63   1.444   1.451   1.421
   15SOL     OW   64   0.438   0.392   1.499
   15SOL    HW1   65   0.520   0.336   1.508
   15SOL    HW2   66   0.357   0.334   1.503
   16SOL     OW   67   1.603   0.447   0.737
   16SOL    HW1   68   1.529   0.493   0.687
   16SOL    HW2   69   1.654   0.515   0.790
   17SOL     OW   70   0.231   1.713   0.483
   17SOL    HW1   71   0.265   1.790   0.537
   17SOL    HW2   72   0.275   1.713   0.393
   18SOL     OW   73   1.127   1.341   1.690
   18SOL    HW1   74   1.174   1.341   1.778
   18SOL    HW2   75   1.079   1.254   1.679
   19SOL     OW   76   0.230   1.434   0.538
   19SOL    HW1   77   0.204   1.530   0.538
   19SOL    HW2   78   0.159   1.380   0.583
   20SOL     OW   79   0.240   1.091   0.886
   20SOL    HW1   80   0.254   1.007   0.938
   20SOL    HW2   81   0.185   1.155   0.941
   21SOL     OW   82   0.620   1.786   1.439
   21SOL    HW1   83   0.528   1.769   1.474
   21SOL    HW2   84   0.648   1.878   1.465
   22SOL     OW   85   0.606   0.964   0.123
   22SOL    HW1   86   0.613   1.048   0.069
   22SOL    HW2   87   0.652   0.977   0.211
   23SOL     OW   88   1.594   0.114   1.480
   23SOL    HW1   89   1.576   0.181   1.408
   23SOL    HW2   90   1.591   0.160   1.569
   24SOL     OW   91   0.122   0.643   0.563
   24SOL    HW1   92   0.077   0.555   0.580
   24SOL    HW2   93   0.121   0.697   0.647
   25SOL     OW   94   1.842   1.767   0.359
   25SOL    HW1   95   1.896   1.738   0.439
   25SOL    HW2   96   1.872   1.857   0.330
   26SOL     OW   97   0.027   1.596   0.117
   26SOL    HW1   98   0.008   1.500   0.138
   26SOL    HW2   99  -0.006   1.654   0.192
   27SOL     OW  100   1.689   0.922   0.612
   27SOL    HW1  101   1.784   0.893   0.620
   27SOL    HW2  102   1.681   0.987   0.537
   28SOL     OW  103   1.641   1.108   0.432
   28SOL    HW1  104   1.727   1.110   0.380
   28SOL    HW2  105   1.655   1.155   0.520
   29SOL     OW  106   0.113   0.737   1.597
   29SOL    HW1  107   0.201   0.724   1.642
   29SOL    HW2  108   0.100   0.834   1.575
   30SOL     OW  109   0.613   1.365   0.726
   30SOL    HW1  110   0.564   1.278   0.735
   30SOL    HW2  111   0.590   1.408   0.639
   31SOL     OW  112   1.293   1.228   1.423
   31SOL    HW1  113   1.330   1.155   1.365
   31SOL    HW2  114   1.345   1.233   1.508
   32SOL     OW  115   0.809   0.004   0.502
   32SOL    HW1  116   0.849   0.095   0.493
   32SOL    HW2  117   0.709   0.012   0.508
   33SOL     OW  118   0.197   0.976   1.264
   33SOL    HW1  119   0.286   0.931   1.250
   33SOL    HW2  120   0.124   0.911   1.245
   34SOL     OW  121   1.525   0.999   0.190
   34SOL    HW1  122   1.462   0.923   0.203
   34SOL    HW2  123   1.573   1.017   0.276
   35SOL     OW  124   1.187   1.792   1.616
   35SOL    HW1  125   1.211   1.852   1.540
   35SOL    HW2  126   1.194   1.697   1.586
   36SOL     OW  127   0.317   0.251   1.801
   36SOL    HW1  128   0.388   0.322   1.807
   36SOL    HW2  129   0.229   0.290   1.829
   37SOL     OW  130   1.466   1.417   0.953
   37SOL    HW1  131   1.407   1.423   1.033
   37SOL    HW2  132   1.451   1.329   0.907
   38SOL     OW  133   1.667   1.714   0.572
   38SOL    HW1  134   1.626   1.691   0.484
   38SOL    HW2  135   1.649   1.640   0.637
   39SOL     OW  136   0.598   0.729   0.270
   39SOL    HW1  137   0.622   0.798   0.202
   39SOL    HW2  138   0.520   0.762   0.324
   40SOL     OW  139   1.281   0.345   0.944
   40SOL    HW1  140   1.195   0.295   0.931
   40SOL    HW2  141   1.343   0.291   1.000
   41SOL     OW  142   1.576   1.662   0.307
   41SOL    HW1  143   1.665   1.708   0.310
   41SOL    HW2  144   1.555   1.638   0.212
   42SOL     OW  145   0.807   0.605   1.465
   42SOL    HW1  146   0.760   0.602   1.554
   42SOL    HW2  147   0.756   0.550   1.399
   43SOL     OW  148   1.394   0.469   1.674
   43SOL    HW1  149   1.374   0.512   1.762
   43SOL    HW2  150   1.472   0.407   1.683
   44SOL     OW  151   0.973   0.890   1.572
   44SOL    HW1  152   1.019   0.806   1.543
   44SOL    HW2  153   0.917   0.924   1.497
   45SOL     OW  154   0.991   0.410   1.242
   45SOL    HW1  155   0.914   0.444   1.296
   45SOL    HW2  156   0.957   0.359   1.163
   46SOL     OW  157   1.041   0.701   0.429
   46SOL    HW1  158   1.067   0.697   0.525
   46SOL    HW2  159   0.956   0.650   0.415
   47SOL     OW  160   0.076   0.811   0.789
   47SOL    HW1  161   0.175   0.799   0.798
   47SOL    HW2  162   0.052   0.906   0.810
   48SOL     OW  163   0.130   1.821   1.571
   48SOL    HW1  164   0.120   1.806   1.670
   48SOL    HW2  165   0.044   1.857   1.535
   49SOL     OW  166   0.865   0.348   0.195
   49SOL    HW1  167   0.924   0.411   0.146
   49SOL    HW2  168   0.884   0.254   0.166
   50SOL     OW  169   1.719   0.585   1.831
   50SOL    HW1  170   1.693   0.674   1.795
   50SOL    HW2  171   1.717   0.517   1.758
   51SOL     OW  172   1.362   1.144   0.545
   51SOL    HW1  173   1.445   1.115   0.497
   51SOL    HW2  174   1.313   1.211   0.489
   52SOL     OW  175   0.550   0.196   0.885
   52SOL    HW1  176   0.545   0.191   0.985
   52SOL    HW2  177   0.552   0.292   0.856
   53SOL     OW  178   1.008   1.456   0.477
   53SOL    HW1  179   0.962   1.528   0.425
   53SOL    HW2  180   1.004   1.476   0.575
   54SOL     OW  181   0.351   1.801   0.853
   54SOL    HW1  182   0.401   1.715   0.859
   54SOL    HW2  183   0.416   1.878   0.850
   55SOL     OW  184   1.795   1.066   0.873
   55SOL    HW1  185   1.733   1.051   0.797
   55SOL    HW2  186   1.743   1.077   0.958
   56SOL     OW  187   1.227   1.550   1.506
   56SOL    HW1  188   1.233   1.473   1.570
   56SOL    HW2  189   1.175   1.524   1.426
   57SOL     OW  190   0.321   0.943   0.242
   57SOL    HW1  191   0.403   0.982   0.200
   57SOL    HW2  192   0.294   0.861   0.193
   58SOL     OW  193   1.458   0.735   0.728
   58SOL    HW1  194   1.453   0.670   0.803
   58SOL    HW2  195   1.538   0.794   0.741
   59SOL     OW  196   0.461   1.266   1.727
   59SOL    HW1  197   0.411   1.267   1.641
   59SOL    HW2  198   0.398   1.248   1.803
   60SOL     OW  199   1.111   1.776   0.237
   60SOL    HW1  200   1.051   1.714   0.287
   60SOL    HW2  201   1.142   1.732   0.152
   61SOL     OW  202   0.202   0.285   1.498
   61SOL    HW1  203   0.122   0.345   1.485
   61SOL    HW2  204   0.192   0.236   1.584
   62SOL     OW  205   1.632   1.377   0.081
   62SOL    HW1  206   1.600   1.471   0.071
   62SOL    HW2  207   1.556   1.314   0.069
   63SOL     OW  208   0.464   1.743   0.323
   63SOL    HW1  209   0.497   1.782   0.409
   63SOL    HW2  210   0.540   1.736   0.258
   64SOL     OW  211   1.400   0.107   0.426
   64SOL    HW1  212   1.376   0.070   0.336
   64SOL    HW2  213   1.499   0.123   0.430
   65SOL     OW  214   0.249   1.785   1.241
   65SOL    HW1  215   0.306   1.720   1.291
   65SOL    HW2  216   0.233   1.752   1.148
   66SOL     OW  217   0.940   1.698   0.904
   66SOL    HW1  218   1.020   1.641   0.925
   66SOL    HW2  219   0.891   1.658   0.827
   67SOL     OW  220   0.382   0.700   0.480
   67SOL    HW1  221   0.427   0.610   0.477
   67SOL    HW2  222   0.288   0.689   0.513
   68SOL     OW  223   1.547   0.222   1.729
   68SOL    HW1  224   1.542   0.259   1.821
   68SOL    HW2  225   1.475   0.153   1.717
   69SOL     OW  226   0.614   0.122   0.117
   69SOL    HW1  227   0.712   0.100   0.124
   69SOL    HW2  228   0.583   0.105   0.024
   70SOL     OW  229   0.781   0.264   1.749
   70SOL    HW1  230   0.848   0.203   1.792
   70SOL    HW2  231   0.708   0.283   1.814
   71SOL     OW  232   0.888   1.514   1.195
   71SOL    HW1  233   0.865   1.489   1.101
   71SOL    HW2  234   0.949   1.445   1.234
   72SOL     OW  235   1.351   0.590   1.433
   72SOL    HW1  236   1.379   0.547   1.518
   72SOL    HW2  237   1.376   0.686   1.434
   73SOL     OW  238   0.803   1.402   0.924
   73SOL    HW1  239   0.893   1.416   0.882
   73SOL    HW2  240   0.732   1.404   0.853
   74SOL     OW  241   0.922   0.503   0.899
   74SOL    HW1  242   0.897   0.494   0.803
   74SOL    HW2  243   0.970   0.421   0.930
   75SOL     OW  244   0.539   0.064   0.512
   75SOL    HW1  245   0.458   0.065   0.570
   75SOL    HW2  246   0.542   0.147   0.457
   76SOL     OW  247   1.434   1.188   0.041
   76SOL    HW1  248   1.466   1.112   0.098
   76SOL    HW2  249   1.342   1.215   0.071
   77SOL     OW  250   0.297   0.035   0.171
   77SOL    HW1  251   0.346   0.119   0.150
   77SOL    HW2  252   0.359  -0.030   0.216
   78SOL     OW  253   0.935   0.236   0.480
   78SOL    HW1  254   0.887   0.277   0.402
   78SOL    HW2  255   1.034   0.234   0.461
   79SOL     OW  256   1.076   0.683   1.464
   79SOL    HW1  257   0.996   0.622   1.467
   79SOL    HW2  258   1.157   0.630   1.440
   80SOL     OW  259   1.227   1.570   0.793
   80SOL    HW1  260   1.248   1.644   0.728
   80SOL    HW2  261   1.295   1.570   0.866
   81SOL     OW  262   0.459   1.152   0.741
   81SOL    HW1  263   0.388   1.125   0.806
   81SOL    HW2  264   0.433   1.124   0.648
   82SOL     OW  265   1.271   1.797   0.591
   82SOL    HW1  266   1.315   1.861   0.527
   82SOL    HW2  267   1.221   1.849   0.661
   83SOL     OW  268   1.032   0.549   0.016
   83SOL    HW1  269   0.991   0.631  -0.023
   83SOL    HW2  270   1.096   0.575   0.089
   84SOL     OW  271   0.078   0.556   1.386
   84SOL    HW1  272   0.170   0.555   1.345
   84SOL    HW2  273   0.072   0.630   1.453
   85SOL     OW  274   0.561   0.222   1.147
   85SOL    HW1  275   0.599   0.138   1.184
   85SOL    HW2  276   0.473   0.241   1.191
   86SOL     OW  277   0.866   0.454   0.642
   86SOL    HW1  278   0.834   0.526   0.580
   86SOL    HW2  279   0.890   0.373   0.589
   87SOL     OW  280   1.017   0.039   0.753
   87SOL    HW1  281   0.945   0.044   0.684
   87SOL    HW2  282   0.993  -0.030   0.822
   88SOL     OW  283   1.429   1.173   0.867
   88SOL    HW1  284   1.374   1.089   0.860
   88SOL    HW2  285   1.455   1.202   0.775
   89SOL     OW  286   1.466   0.590   0.992
   89SOL    HW1  287   1.436   0.495   0.999
   89SOL    HW2  288   1.539   0.606   1.058
   90SOL     OW  289   1.857   0.833   0.377
   90SOL    HW1  290   1.899   0.769   0.441
   90SOL    HW2  291   1.819   0.782   0.299
   91SOL     OW  292   0.488   1.385   0.174
   91SOL    HW1  293   0.401   1.370   0.221
   91SOL    HW2  294   0.471   1.411   0.079
   92SOL     OW  295   1.664   1.280   0.657
   92SOL    HW1  296   1.763   1.288   0.671
   92SOL    HW2  297   1.619   1.364   0.688
   93SOL     OW  298   1.390   0.575   0.078
   93SOL    HW1  299   1.336   0.554   0.159
   93SOL    HW2  300   1.481   0.534   0.087
   94SOL     OW  301   0.527   0.256   0.328
   94SOL    HW1  302   0.554   0.197   0.253
   94SOL    HW2  303   0.527   0.351   0.297
   95SOL     OW  304   1.754   1.223   1.588
   95SOL    HW1  305   1.845   1.184   1.575
   95SOL    HW2  306   1.762   1.319   1.612
   96SOL     OW  307   1.064   1.347   1.340
   96SOL    HW1  308   0.984   1.324   1.395
   96SOL    HW2  309   1.147   1.321   1.389
   97SOL     OW  310   1.592   1.629   1.625
   97SOL    HW1  311   1.619   1.663   1.535
   97SOL    HW2  312   1.671   1.591   1.671
   98SOL     OW  313   1.111   1.195   1.100
   98SOL    HW1  314   1.071   1.239   1.181
   98SOL    HW2  315   1.070   1.232   1.017
   99SOL     OW  316   1.638   1.099   1.079
   99SOL    HW1  317   1.643   1.180   1.138
   99SOL    HW2  318   1.552   1.101   1.028
  100SOL     OW  319   0.915   0.089   1.402
  100SOL    HW1  320   0.940   0.069   1.307
  100SOL    HW2  321   0.987   0.145   1.444
  101SOL     OW  322   0.980   1.116   1.719
  101SOL    HW1  323   0.881   1.122   1.729
  101SOL    HW2  324   1.003   1.036   1.663
  102SOL     OW  325   0.705   1.050   0.368
  102SOL    HW1  326   0.691   1.057   0.467
  102SOL    HW2  327   0.789   0.999   0.350
  103SOL     OW  328   0.410   0.813   1.251
  103SOL    HW1  329   0.496   0.825   1.301
  103SOL    HW2  330   0.368   0.726   1.278
  104SOL     OW  331   1.274   0.386   1.262
  104SOL    HW1  332   1.295   0.460   1.326
  104SOL    HW2  333   1.185   0.403   1.219
  105SOL     OW  334   0.064   1.564   1.331
  105SOL    HW1  335   0.018   1.646   1.297
  105SOL    HW2  336   0.162   1.583   1.340
  106SOL     OW  337   0.367   1.100   0.501
  106SOL    HW1  338   0.360   1.183   0.445
  106SOL    HW2  339   0.371   1.020   0.441
  107SOL     OW  340   0.566   0.537   0.865
  107SOL    HW1  341   0.578   0.603   0.791
  107SOL    HW2  342   0.612   0.571   0.948
  108SOL     OW  343   1.252   1.348   0.388
  108SOL    HW1  344   1.302   1.425   0.428
  108SOL    HW2  345   1.157   1.350   0.420
  109SOL     OW  346   1.272   1.445   1.142
  109SOL    HW1  347   1.319   1.458   1.229
  109SOL    HW2  348   1.206   1.371   1.151
  110SOL     OW  349   1.582   0.639   0.472
  110SOL    HW1  350   1.551   0.700   0.545
  110SOL    HW2  351   1.632   0.691   0.403
  111SOL     OW  352   0.354   1.510   1.329
  111SOL    HW1  353   0.333   1.466   1.242
  111SOL    HW2  354   0.451   1.536   1.332
  112SOL     OW  355   0.402   0.751   1.598
  112SOL    HW1  356   0.470   0.806   1.551
  112SOL    HW2  357   0.442   0.663   1.625
  113SOL     OW  358   1.587   0.779   1.670
  113SOL    HW1  359   1.495   0.817   1.665
  113SOL    HW2  360   1.647   0.826   1.605
  114SOL     OW  361   1.013   0.105   1.770
  114SOL    HW1  362   1.019   0.190   1.718
  114SOL    HW2  363   1.045   0.029   1.713
  115SOL     OW  364   0.504   0.050   1.740
  115SOL    HW1  365   0.462  -0.007   1.670
  115SOL    HW2  366   0.438   0.119   1.772
  116SOL     OW  367   0.573   0.870   1.029
  116SOL    HW1  368   0.617   0.959   1.020
  116SOL    HW2  369   0.510   0.870   1.106
  117SOL     OW  370   1.360   0.862   1.045
  117SOL    HW1  371   1.285   0.862   0.979
  117SOL    HW2  372   1.397   0.770   1.054
  118SOL     OW  373   1.209   0.525   0.275
  118SOL    HW1  374   1.222   0.441   0.329
  118SOL    HW2  375   1.180   0.599   0.335
  119SOL     OW  376   0.307   0.213   1.231
  119SOL    HW1  377   0.284   0.250   1.321
  119SOL    HW2  378   0.277   0.118   1.225
  120SOL     OW  379   0.037   1.310   1.282
  120SOL    HW1  380   0.090   1.261   1.350
  120SOL    HW2  381   0.059   1.408   1.287
  121SOL     OW  382   0.732   0.634   1.064
  121SOL    HW1  383   0.791   0.608   0.988
  121SOL    HW2  384   0.704   0.730   1.053
  122SOL     OW  385   1.728   0.935   1.854
  122SOL    HW1  386   1.682   0.928   1.765
  122SOL    HW2  387   1.666   0.979   1.920
  123SOL     OW  388   0.307   0.063   0.618
  123SOL    HW1  389   0.296   0.157   0.651
  123SOL    HW2  390   0.302   0.000   0.695
  124SOL     OW  391   1.622   0.367   0.374
  124SOL    HW1  392   1.624   0.291   0.438
  124SOL    HW2  393   1.574   0.444   0.414
  125SOL     OW  394   1.023   0.766   0.966
  125SOL    HW1  395   1.038   0.787   1.062
  125SOL    HW2  396   0.993   0.671   0.957
  126SOL     OW  397   0.980   1.573   1.700
  126SOL    HW1  398   0.960   1.617   1.612
  126SOL    HW2  399   1.019   1.482   1.684
  127SOL     OW  400   1.859   1.518   1.605
  127SOL    HW1  401   1.873   1.545   1.510
  127SOL    HW2  402   1.942   1.540   1.658
  128SOL     OW  403   0.350   0.898   1.804
  128SOL    HW1  404   0.426   0.942   1.852
  128SOL    HW2  405   0.385   0.851   1.722
  129SOL     OW  406   1.540   0.274   0.125
  129SOL    HW1  407   1.479   0.199   0.148
  129SOL    HW2  408   1.562   0.326   0.208
  130SOL     OW  409   1.303   0.838   0.042
  130SOL    HW1  410   1.337   0.745   0.057
  130SOL    HW2  411   1.321   0.865  -0.053
  131SOL     OW  412   1.068   1.333   0.849
  131SOL    HW1  413   1.075   1.249   0.794
  131SOL    HW2  414   1.130   1.402   0.813
  132SOL     OW  415   0.319   0.810   0.949
  132SOL    HW1  416   0.412   0.846   0.954
  132SOL    HW2  417   0.313   0.725   1.001
  133SOL     OW  418   0.339   0.509   1.006
  133SOL    HW1  419   0.287   0.426   0.989
  133SOL    HW2  420   0.416   0.514   0.942
  134SOL     OW  421   1.138   0.380   1.678
  134SOL    HW1  422   1.093   0.443   1.742
  134SOL    HW2  423   1.231   0.411   1.661
  135SOL     OW  424   1.160   0.207   1.477
  135SOL    HW1  425   1.160   0.271   1.554
  135SOL    HW2  426   1.188   0.255   1.394
  136SOL     OW  427   0.008   1.326   0.200
  136SOL    HW1  428  -0.085   1.347   0.169
  136SOL    HW2  429   0.018   1.227   0.213
  137SOL     OW  430   0.088   1.801   0.927
  137SOL    HW1  431   0.046   1.715   0.900
  137SOL    HW2  432   0.182   1.804   0.893
  138SOL     OW  433   0.504   1.568   0.910
  138SOL    HW1  434   0.570   1.642   0.919
  138SOL    HW2  435   0.548   1.489   0.868
  139SOL     OW  436   1.002   0.796   1.238
  139SOL    HW1  437   1.043   0.764   1.324
  139SOL    HW2  438   0.906   0.769   1.235
  140SOL     OW  439   0.040   0.544   1.114
  140SOL    HW1  440   0.125   0.511   1.073
  140SOL    HW2  441   0.053   0.559   1.212
  141SOL     OW  442   0.189   0.520   1.722
  141SOL    HW1  443   0.248   0.480   1.652
  141SOL    HW2  444   0.131   0.591   1.681
  142SOL     OW  445   1.369   0.950   1.660
  142SOL    HW1  446   1.408   1.039   1.680
  142SOL    HW2  447   1.379   0.930   1.563
  143SOL     OW  448   0.815   0.572   0.325
  143SOL    HW1  449   0.822   0.483   0.279
  143SOL    HW2  450   0.721   0.606   0.317
  144SOL     OW  451   1.657   0.604   1.206
  144SOL    HW1  452   1.619   0.535   1.268
  144SOL    HW2  453   1.739   0.568   1.162
  145SOL     OW  454   0.252   1.564   1.744
  145SOL    HW1  455   0.222   1.621   1.820
  145SOL    HW2  456   0.245   1.467   1.770
  146SOL     OW  457   0.671   0.464   1.269
  146SOL    HW1  458   0.637   0.375   1.239
  146SOL    HW2  459   0.697   0.518   1.189
  147SOL     OW  460   0.930   1.678   1.465
  147SOL    HW1  461   0.906   1.660   1.370
  147SOL    HW2  462   0.960   1.772   1.475
  148SOL     OW  463   0.473   0.500   0.191
  148SOL    HW1  464   0.534   0.580   0.195
  148SOL    HW2  465   0.378   0.531   0.198
  149SOL     OW  466   0.159   1.137   1.466
  149SOL    HW1  467   0.181   1.076   1.542
  149SOL    HW2  468   0.169   1.088   1.380
  150SOL     OW  469   1.347   1.059   1.234
  150SOL    HW1  470   1.371   0.996   1.160
  150SOL    HW2  471   1.257   1.099   1.216
  151SOL     OW  472   1.302   0.855   0.309
  151SOL    HW1  473   1.216   0.824   0.351
  151SOL    HW2  474   1.298   0.841   0.210
  152SOL     OW  475   1.759   1.747   1.154
  152SOL    HW1  476   1.820   1.777   1.081
  152SOL    HW2  477   1.721   1.658   1.132
  153SOL     OW  478   1.252   1.731   1.128
  153SOL    HW1  479   1.336   1.736   1.074
  153SOL    HW2  480   1.229   1.635   1.146
  154SOL     OW  481   0.083   1.258   1.022
  154SOL    HW1  482   0.078   1.257   1.122
  154SOL    HW2  483   0.000   1.217   0.984
  155SOL     OW  484   0.688   1.662   1.716
  155SOL    HW1  485   0.632   1.743   1.725
  155SOL    HW2  486   0.740   1.666   1.630
  156SOL     OW  487   0.903   0.086   0.133
  156SOL    HW1  488   0.954   0.087   0.047
  156SOL    HW2  489   0.959   0.044   0.204
  157SOL     OW  490   1.726   0.135   0.523
  157SOL    HW1  491   1.799   0.118   0.456
  157SOL    HW2  492   1.695   0.048   0.561
  158SOL     OW  493   1.388   1.573   0.477
  158SOL    HW1  494   1.455   1.585   0.403
  158SOL    HW2  495   1.348   1.662   0.500
  159SOL     OW  496   0.130   1.794   1.851
  159SOL    HW1  497   0.089   1.720   1.904
  159SOL    HW2  498   0.194   1.845   1.909
  160SOL     OW  499   1.280   0.927   0.672
  160SOL    HW1  500   1.340   0.846   0.674
  160SOL    HW2  501   1.320   0.996   0.612
  161SOL     OW  502   0.830   1.273   1.422
  161SOL    HW1  503   0.825   1.306   1.517
  161SOL    HW2  504   0.744   1.292   1.376
  162SOL     OW  505   0.672   1.616   0.154
  162SOL    HW1  506   0.681   1.626   0.055
  162SOL    HW2  507   0.632   1.527   0.175
  163SOL     OW  508   1.650   1.720   1.394
  163SOL    HW1  509   1.703   1.730   1.310
  163SOL    HW2  510   1.623   1.810   1.428
  164SOL     OW  511   1.841   0.175   0.963
  164SOL    HW1  512   1.880   0.090   0.927
  164SOL    HW2  513   1.743   0.177   0.944
  165SOL     OW  514   0.263   0.326   0.720
  165SOL    HW1  515   0.184   0.377   0.686
  165SOL    HW2  516   0.254   0.311   0.818
  166SOL     OW  517   1.194   1.612   0.031
  166SOL    HW1  518   1.200   1.519   0.068
  166SOL    HW2  519   1.135   1.612  -0.049
  167SOL     OW  520   0.822   1.002   1.372
  167SOL    HW1  521   0.862   1.001   1.280
  167SOL    HW2  522   0.832   1.094   1.412
  168SOL     OW  523   0.916   0.910   0.291
  168SOL    HW1  524   0.979   0.948   0.223
  168SOL    HW2  525   0.956   0.827   0.330
  169SOL     OW  526   1.504   1.607   0.044
  169SOL    HW1  527   1.412   1.644   0.051
  169SOL    HW2  528   1.542   1.627  -0.046
  170SOL     OW  529   0.372   1.288   1.490
  170SOL    HW1  530   0.359   1.381   1.456
  170SOL    HW2  531   0.288   1.236   1.477
  171SOL     OW  532   1.614   1.292   1.289
  171SOL    HW1  533   1.674   1.295   1.369
  171SOL    HW2  534   1.539   1.356   1.302
  172SOL     OW  535   1.039   1.098   0.696
  172SOL    HW1  536   0.969   1.051   0.750
  172SOL    HW2  537   1.098   1.030   0.653
  173SOL     OW  538   1.014   0.236   0.971
  173SOL    HW1  539   1.006   0.200   0.878
  173SOL    HW2  540   1.012   0.160   1.036
  174SOL     OW  541   0.590   1.487   0.491
  174SOL    HW1  542   0.632   1.429   0.421
  174SOL    HW2  543   0.546   1.566   0.447
  175SOL     OW  544   1.709   0.385   1.381
  175SOL    HW1  545   1.782   0.454   1.385
  175SOL    HW2  546   1.737   0.310   1.322
  176SOL     OW  547   0.255   1.348   0.290
  176SOL    HW1  548   0.159   1.349   0.263
  176SOL    HW2  549   0.267   1.401   0.374
  177SOL     OW  550   0.105   1.013   1.726
  177SOL    HW1  551   0.028   0.980   1.780
  177SOL    HW2  552   0.190   0.983   1.768
  178SOL     OW  553   0.672   0.203   1.489
  178SOL    HW1  554   0.762   0.187   1.449
  178SOL    HW2  555   0.680   0.208   1.588
  179SOL     OW  556   0.075   0.345   0.033
  179SOL    HW1  557  -0.017   0.317   0.004
  179SOL    HW2  558   0.106   0.422  -0.023
  180SOL     OW  559   1.440   0.856   1.398
  180SOL    HW1  560   1.383   0.908   1.335
  180SOL    HW2  561   1.536   0.868   1.374
  181SOL     OW  562   0.072   0.166   0.318
  181SOL    HW1  563   0.055   0.249   0.264
  181SOL    HW2  564   0.162   0.129   0.296
  182SOL     OW  565   1.183   1.335   0.119
  182SOL    HW1  566   1.084   1.324   0.121
  182SOL    HW2  567   1.217   1.350   0.212
  183SOL     OW  568   0.613   0.842   1.431
  183SOL    HW1  569   0.669   0.923   1.414
  183SOL    HW2  570   0.672   0.762   1.434
  184SOL     OW  571   1.493   1.767   0.959
  184SOL    HW1  572   1.526   1.831   0.890
  184SOL    HW2  573   1.559   1.761   1.034
  185SOL     OW  574   0.716   0.565   1.708
  185SOL    HW1  575   0.735   0.630   1.782
  185SOL    HW2  576   0.776   0.485   1.717
  186SOL     OW  577   1.450   1.220   1.633
  186SOL    HW1  578   1.441   1.210   1.732
  186SOL    HW2  579   1.546   1.213   1.607
  187SOL     OW  580   0.390   1.741   1.560
  187SOL    HW1  581   0.299   1.782   1.558
  187SOL    HW2  582   0.383   1.647   1.592
  188SOL     OW  583   1.674   0.883   1.254
  188SOL    HW1  584   1.647   0.794   1.217
  188SOL    HW2  585   1.675   0.951   1.181
  189SOL     OW  586   1.225   0.325   0.449
  189SOL    HW1  587   1.290   0.251   0.438
  189SOL    HW2  588   1.245   0.375   0.533
  190SOL     OW  589   0.594   0.745   0.652
  190SOL    HW1  590   0.644   0.830   0.633
  190SOL    HW2  591   0.506   0.747   0.604
  191SOL     OW  592   1.777   0.342   1.642
  191SOL    HW1  593   1.760   0.373   1.548
  191SOL    HW2  594   1.693   0.305   1.680
  192SOL     OW  595   1.730   0.934   1.517
  192SOL    HW1  596   1.768   1.025   1.532
  192SOL    HW2  597   1.722   0.917   1.418
  193SOL     OW  598   0.859   1.374   0.016
  193SOL    HW1  599   0.813   1.389   0.104
  193SOL    HW2  600   0.903   1.459  -0.014
  194SOL     OW  601   0.661   1.790   0.953
  194SOL    HW1  602   0.615   1.878   0.940
  194SOL    HW2  603   0.760   1.802   0.946
  195SOL     OW  604   0.859   0.956   0.861
  195SOL    HW1  605   0.913   0.887   0.909
  195SOL    HW2  606   0.827   1.025   0.927
  196SOL     OW  607   1.083   0.984   0.087
  196SOL    HW1  608   1.060   1.037   0.005
  196SOL    HW2  609   1.164   0.928   0.068
  197SOL     OW  610   1.861   1.569   0.851
  197SOL    HW1  611   1.790   1.557   0.781
  197SOL    HW2  612   1.862   1.490   0.911
  198SOL     OW  613   0.221   1.314   1.844
  198SOL    HW1  614   0.156   1.241   1.823
  198SOL    HW2  615   0.225   1.328   1.942
  199SOL     OW  616   0.079   1.240   0.653
  199SOL    HW1  617   0.078   1.193   0.741
  199SOL    HW2  618   0.161   1.212   0.602
  200SOL     OW  619   0.672   1.391   1.624
  200SOL    HW1  620   0.594   1.341   1.662
  200SOL    HW2  621   0.669   1.486   1.655
  201SOL     OW  622   1.824   0.192   1.227
  201SOL    HW1  623   1.820   0.102   1.271
  201SOL    HW2  624   1.827   0.181   1.128
  202SOL     OW  625   0.428   0.424   0.520
  202SOL    HW1  626   0.458   0.352   0.458
  202SOL    HW2  627   0.389   0.384   0.603
  203SOL     OW  628   1.705   1.487   1.104
  203SOL    HW1  629   1.612   1.462   1.077
  203SOL    HW2  630   1.731   1.437   1.186
  204SOL     OW  631   0.317   0.547   1.280
  204SOL    HW1  632   0.355   0.488   1.352
  204SOL    HW2  633   0.357   0.521   1.192
  205SOL     OW  634   0.812   1.586   0.687
  205SOL    HW1  635   0.844   1.596   0.593
  205SOL    HW2  636   0.733   1.524   0.689
  206SOL     OW  637   1.424   0.214   1.112
  206SOL    HW1  638   1.476   0.149   1.167
  206SOL    HW2  639   1.375   0.277   1.173
  207SOL     OW  640   1.001   0.034   1.154
  207SOL    HW1  641   0.938  -0.038   1.123
  207SOL    HW2  642   1.094  -0.002   1.154
  208SOL     OW  643   0.770   1.330   0.301
  208SOL    HW1  644   0.724   1.243   0.318
  208SOL    HW2  645   0.861   1.327   0.342
  209SOL     OW  646   0.618   1.567   1.284
  209SOL    HW1  647   0.613   1.649   1.341
  209SOL    HW2  648   0.707   1.564   1.239
  210SOL     OW  649   1.352   0.052   0.168
  210SOL    HW1  650   1.387   0.011   0.084
  210SOL    HW2  651   1.262   0.014   0.188
  211SOL     OW  652   1.300   0.453   0.691
  211SOL    HW1  653   1.241   0.533   0.695
  211SOL    HW2  654   1.315   0.418   0.784
  212SOL     OW  655   1.593   0.221   0.882
  212SOL    HW1  656   1.509   0.220   0.936
  212SOL    HW2  657   1.595   0.304   0.826
  213SOL     OW  658   0.039   1.077   0.300
  213SOL    HW1  659   0.138   1.066   0.291
  213SOL    HW2  660  -0.001   0.991   0.332
  214SOL     OW  661   0.875   1.646   0.337
  214SOL    HW1  662   0.798   1.611   0.283
  214SOL    HW2  663   0.843   1.717   0.399
  215SOL     OW  664   0.230   0.628   1.975
  215SOL    HW1  665   0.137   0.626   2.012
  215SOL    HW2  666   0.231   0.589   1.883
  216SOL     OW  667   0.225   0.275   2.858
  216SOL    HW1  668   0.260   0.258   2.950
  216SOL    HW2  669   0.137   0.230   2.846
  217SOL     OW  670   0.019   0.368   2.509
  217SOL    HW1  671  -0.063   0.411   2.548
  217SOL    HW2  672  -0.009   0.295   2.446
  218SOL     OW  673   0.569   1.275   3.027
  218SOL    HW1  674   0.476   1.268   2.990
  218SOL    HW2  675   0.580   1.364   3.071
  219SOL     OW  676   1.555   1.511   2.565
  219SOL    HW1  677   1.498   1.495   2.646
  219SOL    HW2  678   1.496   1.521   2.485
  220SOL     OW  679   1.135   0.703   2.579
  220SOL    HW1  680   1.192   0.781   2.554
  220SOL    HW2  681   1.075   0.729   2.655
  221SOL     OW  682   1.755   0.607   2.093
  221SOL    HW1  683   1.743   0.594   1.994
  221SOL    HW2  684   1.725   0.526   2.142
  222SOL     OW  685   0.768   1.144   2.885
  222SOL    HW1  686   0.690   1.161   2.945
  222SOL    HW2  687   0.802   1.231   2.849
  223SOL     OW  688   0.850   0.798   3.685
  223SOL    HW1  689   0.846   0.874   3.750
  223SOL    HW2  690   0.872   0.834   3.594
  224SOL     OW  691   0.685   1.012   2.527
  224SOL    HW1  692   0.754   0.996   2.597
  224SOL    HW2  693   0.612   1.069   2.565
  225SOL     OW  694   0.686   1.161   3.665
  225SOL    HW1  695   0.746   1.240   3.679
  225SOL    HW2  696   0.600   1.192   3.624
  226SOL     OW  697   0.335   1.435   2.923
  226SOL    HW1  698   0.257   1.404   2.870
  226SOL    HW2  699   0.393   1.493   2.866
  227SOL     OW  700   1.460   1.505   3.201
  227SOL    HW1  701   1.484   1.599   3.227
  227SOL    HW2  702   1.444   1.451   3.283
  228SOL     OW  703   0.438   0.392   3.361
  228SOL    HW1  704   0.520   0.336   3.370
  228SOL    HW2  705   0.357   0.334   3.365
  229SOL     OW  706   1.603   0.447   2.599
  229SOL    HW1  707   1.529   0.493   2.549
  229SOL    HW2  708   1.654   0.515   2.652
  230SOL     OW  709   0.231   1.713   2.345
  230SOL    HW1  710   0.265   1.790   2.399
  230SOL    HW2  711   0.275   1.713   2.255
  231SOL     OW  712   1.127   1.341   3.552
  231SOL    HW1  713   1.174   1.341   3.640
  231SOL    HW2  714   1.079   1.254   3.541
  232SOL     OW  715   0.230   1.434   2.400
  232SOL    HW1  716   0.204   1.530   2.400
  232SOL    HW2  717   0.159   1.380   2.445
  233SOL     OW  718   0.240   1.091   2.748
  233SOL    HW1  719   0.254   1.007   2.800
  233SOL    HW2  720   0.185   1.155   2.803
  234SOL     OW  721   0.620   1.786   3.301
  234SOL    HW1  722   0.528   1.769   3.336
  234SOL    HW2  723   0.648   1.878   3.327
  235SOL     OW  724   0.606   0.964   1.985
  235SOL    HW1  725   0.613   1.048   1.931
  235SOL    HW2  726   0.652   0.977   2.073
  236SOL     OW  727   1.594   0.114   3.342
  236SOL    HW1  728   1.576   0.181   3.270
  236SOL    HW2  729   1.591   0.160   3.431
  237SOL     OW  730   0.122   0.643   2.425
  237SOL    HW1  731   0.077   0.555   2.442
  237SOL    HW2  732   0.121   0.697   2.509
  238SOL     OW  733   1.842   1.767   2.221
  238SOL    HW1  734   1.896   1.738   2.301
  238SOL    HW2  735   1.872   1.857   2.192
  239SOL     OW  736   0.027   1.596   1.979
  239SOL    HW1  737   0.008   1.500   2.000
  239SOL    HW2  738  -0.006   1.654   2.054
  240SOL     OW  739   1.689   0.922   2.474
  240SOL    HW1  740   1.784   0.893   2.482
  240SOL    HW2  741   1.681   0.987   2.399
  241SOL     OW  742   1.641   1.108   2.294
  241SOL    HW1  743   1.727   1.110   2.242
  241SOL    HW2  744   1.655   1.155   2.382
  242SOL     OW  745   0.113   0.737   3.459
  242SOL    HW1  746   0.201   0.724   3.504
  242SOL    HW2  747   0.100   0.834   3.437
  243SOL     OW  748   0.613   1.365   2.588
  243SOL    HW1  749   0.564   1.278   2.597
  243SOL    HW2  750   0.590   1.408   2.501
  244SOL     OW  751   1.293   1.228   3.285
  244SOL    HW1  752   1.330   1.155   3.227
  244SOL    HW2  753   1.345   1.233   3.370
  245SOL     OW  754   0.809   0.004   2.364
  245SOL    HW1  755   0.849   0.095   2.355
  245SOL    HW2  756   0.709   0.012   2.370
  246SOL     OW  757   0.197   0.976   3.126
  246SOL    HW1  758   0.286   0.931   3.112
  246SOL    HW2  759   0.124   0.911   3.107
  247SOL     OW  760   1.525   0.999   2.052
  247SOL    HW1  761   1.462   0.923   2.065
  247SOL    HW2  762   1.573   1.017   2.138
  248SOL     OW  763   1.187   1.792   3.478
  248SOL    HW1  764   1.211   1.852   3.402
  248SOL    HW2  765   1.194   1.697   3.448
  249SOL     OW  766   0.317   0.251   3.663
  249SOL    HW1  767   0.388   0.322   3.669
  249SOL    HW2  768   0.229   0.290   3.691
  250SOL     OW  769   1.466   1.417   2.815
  250SOL    HW1  770   1.407   1.423   2.895
  250SOL    HW2  771   1.451   1.329   2.769
  251SOL     OW  772   1.667   1.714   2.434
  251SOL    HW1  773   1.626   1.691   2.346
  251SOL    HW2  774   1.649   1.640   2.499
  252SOL     OW  775   0.598   0.729   2.132
  252SOL    HW1  776   0.622   0.798   2.064
  252SOL    HW2  777   0.520   0.762   2.186
  253SOL     OW  778   1.281   0.345   2.806
  253SOL    HW1  779   1.195   0.295   2.793
  253SOL    HW2  780   1.343   0.291   2.862
  254SOL     OW  781   1.576   1.662   2.169
  254SOL    HW1  782   1.665   1.708   2.172
  254SOL    HW2  783   1.555   1.638   2.074
  255SOL     OW  784   0.807   0.605   3.327
  255SOL    HW1  785   0.760   0.602   3.416
  255SOL    HW2  786   0.756   0.550   3.261
  256SOL     OW  787   1.394   0.469   3.536
  256SOL    HW1  788   1.374   0.512   3.624
  256SOL    HW2  789   1.472   0.407   3.545
  257SOL     OW  790   0.973   0.890   3.434
  257SOL    HW1  791   1.019   0.806   3.405
  257SOL    HW2  792   0.917   0.924   3.359
  258SOL     OW  793   0.991   0.410   3.104
  258SOL    HW1  794   0.914   0.444   3.158
  258SOL    HW2  795   0.957   0.359   3.025
  259SOL     OW  796   1.041   0.701   2.291
  259SOL    HW1  797   1.067   0.697   2.387
  259SOL    HW2  798   0.956   0.650   2.277
  260SOL     OW  799   0.076   0.811   2.651
  260SOL    HW1  800   0.175   0.799   2.660
  260SOL    HW2  801   0.052   0.906   2.672
  261SOL     OW  802   0.130   1.821   3.433
  261SOL    HW1  803   0.120   1.806   3.532
  261SOL    HW2  804   0.044   1.857   3.397
  262SOL     OW  805   0.865   0.348   2.057
  262SOL    HW1  806   0.924   0.411   2.008
  262SOL    HW2  807   0.884   0.254   2.028
  263SOL     OW  808   1.719   0.585   3.693
  263SOL    HW1  809   1.693   0.674   3.657
  263SOL    HW2  810   1.717   0.517   3.620
  264SOL     OW  811   1.362   1.144   2.407
  264SOL    HW1  812   1.445   1.115   2.359
  264SOL    HW2  813   1.313   1.211   2.351
  265SOL     OW  814   0.550   0.196   2.747
  265SOL    HW1  815   0.545   0.191   2.847
  265SOL    HW2  816   0.552   0.292   2.718
  266SOL     OW  817   1.008   1.456   2.339
  266SOL    HW1  818   0.962   1.528   2.287
  266SOL    HW2  819   1.004   1.476   2.437
  267SOL     OW  820   0.351   1.801   2.715
  267SOL    HW1  821   0.401   1.715   2.721
  267SOL    HW2  822   0.416   1.878   2.712
  268SOL     OW  823   1.795   1.066   2.735
  268SOL    HW1  824   1.733   1.051   2.659
  268SOL    HW2  825   1.743   1.077   2.820
  269SOL     OW  826   1.227   1.550   3.368
  269SOL    HW1  827   1.233   1.473   3.432
  269SOL    HW2  828   1.175   1.524   3.288
  270SOL     OW  829   0.321   0.943   2.104
  270SOL    HW1  830   0.403   0.982   2.062
  270SOL    HW2  831   0.294   0.861   2.055
  271SOL     OW  832   1.458   0.735   2.590
  271SOL    HW1  833   1.453   0.670   2.665
  271SOL    HW2  834   1.538   0.794   2.603
  272SOL     OW  835   0.461   1.266   3.589
  272SOL    HW1  836   0.411   1.267   3.503
  272SOL    HW2  837   0.398   1.248   3.665
  273SOL     OW  838   1.111   1.776   2.099
  273SOL    HW1  839   1.051   1.714   2.149
  273SOL    HW2  840   1.142   1.732   2.014
  274SOL     OW  841   0.202   0.285   3.360
  274SOL    HW1  842   0.122   0.345   3.347
  274SOL    HW2  843   0.192   0.236   3.446
  275SOL     OW  844   1.632   1.377   1.943
  275SOL    HW1  845   1.600   1.471   1.933
  275SOL    HW2  846   1.556   1.314   1.931
  276SOL     OW  847   0.464   1.743   2.185
  276SOL    HW1  848   0.497   1.782   2.271
  276SOL    HW2  849   0.540   1.736   2.120
  277SOL     OW  850   1.400   0.107   2.288
  277SOL    HW1  851   1.376   0.070   2.198
  277SOL    HW2  852   1.499   0.123   2.292
  278SOL     OW  853   0.249   1.785   3.103
  278SOL    HW1  854   0.306   1.720   3.153
  278SOL    HW2  855   0.233   1.752   3.010
  279SOL     OW  856   0.940   1.698   2.766
  279SOL    HW1  857   1.020   1.641   2.787
  279SOL    HW2  858   0.891   1.658   2.689
  280SOL     OW  859   0.382   0.700   2.342
  280SOL    HW1  860   0.427   0.610   2.339
  280SOL    HW2  861   0.288   0.689   2.375
  281SOL     OW  862   1.547   0.222   3.591
  281SOL    HW1  863   1.542   0.259   3.683
  281SOL    HW2  864   1.475   0.153   3.579
  282SOL     OW  865   0.614   0.122   1.979
  282SOL    HW1  866   0.712   0.100   1.986
  282SOL    HW2  867   0.583   0.105   1.886
  283SOL     OW  868   0.781   0.264   3.611
  283SOL    HW1  869   0.848   0.203   3.654
  283SOL    HW2  870   0.708   0.283   3.676
  284SOL     OW  871   0.888   1.514   3.057
  284SOL    HW1  872   0.865   1.489   2.963
  284SOL    HW2  873   0.949   1.445   3.096
  285SOL     OW  874   1.351   0.590   3.295
  285SOL    HW1  875   1.379   0.547   3.380
  285SOL    HW2  876   1.376   0.686   3.296
  286SOL     OW  877   0.803   1.402   2.786
  286SOL    HW1  878   0.893   1.416   2.744
  286SOL    HW2  879   0.732   1.404   2.715
  287SOL     OW  880   0.922   0.503   2.761
  287SOL    HW1  881   0.897   0.494   2.665
  287SOL    HW2  882   0.970   0.421   2.792
  288SOL     OW  883   0.539   0.064   2.374
  288SOL    HW1  884   0.458   0.065   2.432
  288SOL    HW2  885   0.542   0.147   2.319
  289SOL     OW  886   1.434   1.188   1.903
  289SOL    HW1  887   1.466   1.112   1.960
  289SOL    HW2  888   1.342   1.215   1.933
  290SOL     OW  889   0.297   0.035   2.033
  290SOL    HW1  890   0.346   0.119   2.012
  290SOL    HW2  891   0.359  -0.030   2.078
  291SOL     OW  892   0.935   0.236   2.342
  291SOL    HW1  893   0.887   0.277   2.264
  291SOL    HW2  894   1.034   0.234   2.323
  292SOL     OW  895   1.076   0.683   3.326
  292SOL    HW1  896   0.996   0.622   3.329
  292SOL    HW2  897   1.157   0.630   3.302
  293SOL     OW  898   1.227   1.570   2.655
  293SOL    HW1  899   1.248   1.644   2.590
  293SOL    HW2  900   1.295   1.570   2.728
  294SOL     OW  901   0.459   1.152   2.603
  294SOL    HW1  902   0.388   1.125   2.668
  294SOL    HW2  903   0.433   1.124   2.510
  295SOL     OW  904   1.271   1.797   2.453
  295SOL    HW1  905   1.315   1.861   2.389
  295SOL    HW2  906   1.221   1.849   2.523
  296SOL     OW  907   1.032   0.549   1.878
  296SOL    HW1  908   0.991   0.631   1.839
  296SOL    HW2  909   1.096   0.575   1.951
  297SOL     OW  910   0.078   0.556   3.248
  297SOL    HW1  911   0.170   0.555   3.207
  297SOL    HW2  912   0.072   0.630   3.315
  298SOL     OW  913   0.561   0.222   3.009
  298SOL    HW1  914   0.599   0.138   3.046
  298SOL    HW2  915   0.473   0.241   3.053
  299SOL     OW  916   0.866   0.454   2.504
  299SOL    HW1  917   0.834   0.526   2.442
  299SOL    HW2  918   0.890   0.373   2.451
  300SOL     OW  919   1.017   0.039   2.615
  300SOL    HW1  920   0.945   0.044   2.546
  300SOL    HW2  921   0.993  -0.030   2.684
  301SOL     OW  922   1.429   1.173   2.729
  301SOL    HW1  923   1.374   1.089   2.722
  301SOL    HW2  924   1.455   1.202   2.637
  302SOL     OW  925   1.466   0.590   2.854
  302SOL    HW1  926   1.436   0.495   2.861
  302SOL    HW2  927   1.539   0.606   2.920
  303SOL     OW  928   1.857   0.833   2.239
  303SOL    HW1  929   1.899   0.769   2.303
  303SOL    HW2  930   1.819   0.782   2.161
  304SOL     OW  931   0.488   1.385   2.036
  304SOL    HW1  932   0.401   1.370   2.083
  304SOL    HW2  933   0.471   1.411   1.941
  305SOL     OW  934   1.664   1.280   2.519
  305SOL    HW1  935   1.763   1.288   2.533
  305SOL    HW2  936   1.619   1.364   2.550
  306SOL     OW  937   1.390   0.575   1.940
  306SOL    HW1  938   1.336   0.554   2.021
  306SOL    HW2  939   1.481   0.534   1.949
  307SOL     OW  940   0.527   0.256   2.190
  307SOL    HW1  941   0.554   0.197   2.115
  307SOL    HW2  942   0.527   0.351   2.159
  308SOL     OW  943   1.754   1.223   3.450
  308SOL    HW1  944   1.845   1.184   3.437
  308SOL    HW2  945   1.762   1.319   3.474
  309SOL     OW  946   1.064   1.347   3.202
  309SOL    HW1  947   0.984   1.324   3.257
  309SOL    HW2  948   1.147   1.321   3.251
  310SOL     OW  949   1.592   1.629   3.487
  310SOL    HW1  950   1.619   1.663   3.397
  310SOL    HW2  951   1.671   1.591   3.533
  311SOL     OW  952   1.111   1.195   2.962
  311SOL    HW1  953   1.071   1.239   3.043
  311SOL    HW2  954   1.070   1.232   2.879
  312SOL     OW  955   1.638   1.099   2.941
  312SOL    HW1  956   1.643   1.180   3.000
  312SOL    HW2  957   1.552   1.101   2.890
  313SOL     OW  958   0.915   0.089   3.264
  313SOL    HW1  959   0.940   0.069   3.169
  313SOL    HW2  960   0.987   0.145   3.306
  314SOL     OW  961   0.980   1.116   3.581
  314SOL    HW1  962   0.881   1.122   3.591
  314SOL    HW2  963   1.003   1.036   3.525
  315SOL     OW  964   0.705   1.050   2.230
  315SOL    HW1  965   0.691   1.057   2.329
  315SOL    HW2  966   0.789   0.999   2.212
  316SOL     OW  967   0.410   0.813   3.113
  316SOL    HW1  968   0.496   0.825   3.163
  316SOL    HW2  969   0.368   0.726   3.140
  317SOL     OW  970   1.274   0.386   3.124
  317SOL    HW1  971   1.295   0.460   3.188
  317SOL    HW2  972   1.185   0.403   3.081
  318SOL     OW  973   0.064   1.564   3.193
  318SOL    HW1  974   0.018   1.646   3.159
  318SOL    HW2  975   0.162   1.583   3.202
  319SOL     OW  976   0.367   1.100   2.363
  319SOL    HW1  977   0.360   1.183   2.307
  319SOL    HW2  978   0.371   1.020   2.303
  320SOL     OW  979   0.566   0.537   2.727
  320SOL    HW1  980   0.578   0.603   2.653
  320SOL    HW2  981   0.612   0.571   2.810
  321SOL     OW  982   1.252   1.348   2.250
  321SOL    HW1  983   1.302   1.425   2.290
  321SOL    HW2  984   1.157   1.350   2.282
  322SOL     OW  985   1.272   1.445   3.004
  322SOL    HW1  986   1.319   1.458   3.091
  322SOL    HW2  987   1.206   1.371   3.013
  323SOL     OW  988   1.582   0.639   2.334
  323SOL    HW1  989   1.551   0.700   2.407
  323SOL    HW2  990   1.632   0.691   2.265
  324SOL     OW  991   0.354   1.510   3.191
  324SOL    HW1  992   0.333   1.466   3.104
  324SOL    HW2  993   0.451   1.536   3.194
  325SOL     OW  994   0.402   0.751   3.460
  325SOL    HW1  995   0.470   0.806   3.413
  325SOL    HW2  996   0.442   0.663   3.487
  326SOL     OW  997   1.587   0.779   3.532
  326SOL    HW1  998   1.495   0.817   3.527
  326SOL    HW2  999   1.647   0.826   3.467
  327SOL     OW 1000   1.013   0.105   3.632
  327SOL    HW1 1001   1.019   0.190   3.580
  327SOL    HW2 1002   1.045   0.029   3.575
  328SOL     OW 1003   0.504   0.050   3.602
  328SOL    HW1 1004   0.462  -0.007   3.532
  328SOL    HW2 1005   0.438   0.119   3.634
  329SOL     OW 1006   0.573   0.870   2.891
  329SOL    HW1 1007   0.617   0.959   2.882
  329SOL    HW2 1008   0.510   0.870   2.968
  330SOL     OW 1009   1.360   0.862   2.907
  330SOL    HW1 1010   1.285   0.862   2.841
  330SOL    HW2 1011   1.397   0.770   2.916
  331SOL     OW 1012   1.209   0.525   2.137
  331SOL    HW1 1013   1.222   0.441   2.191
  331SOL    HW2 1014   1.180   0.599   2.197
  332SOL     OW 1015   0.307   0.213   3.093
  332SOL    HW1 1016   0.284   0.250   3.183
  332SOL    HW2 1017   0.277   0.118   3.087
  333SOL     OW 1018   0.037   1.310   3.144
  333SOL    HW1 1019   0.090   1.261   3.212
  333SOL    HW2 1020   0.059   1.408   3.149
  334SOL     OW 1021   0.732   0.634   2.926
  334SOL    HW1 1022   0.791   0.608   2.850
  334SOL    HW2 1023   0.704   0.730   2.915
  335SOL     OW 1024   1.728   0.935   3.716
  335SOL    HW1 1025   1.682   0.928   3.627
  335SOL    HW2 1026   1.666   0.979   3.782
  336SOL     OW 1027   0.307   0.063   2.480
  336SOL    HW1 1028   0.296   0.157   2.513
  336SOL    HW2 1029   0.302   0.000   2.557
  337SOL     OW 1030   1.622   0.367   2.236
  337SOL    HW1 1031   1.624   0.291   2.300
  337SOL    HW2 1032   1.574   0.444   2.276
  338SOL     OW 1033   1.023   0.766   2.828
  338SOL    HW1 1034   1.038   0.787   2.924
  338SOL    HW2 1035   0.993   0.671   2.819
  339SOL     OW 1036   0.980   1.573   3.562
  339SOL    HW1 1037   0.960   1.617   3.474
  339SOL    HW2 1038   1.019   1.482   3.546
  340SOL     OW 1039   1.859   1.518   3.467
  340SOL    HW1 1040   1.873   1.545   3.372
  340SOL    HW2 1041   1.942   1.540   3.520
  341SOL     OW 1042   0.350   0.898   3.666
  341SOL    HW1 1043   0.426   0.942   3.714
  341SOL    HW2 1044   0.385   0.851   3.584
  342SOL     OW 1045   1.540   0.274   1.987
  342SOL    HW1 1046   1.479   0.199   2.010
  342SOL    HW2 1047   1.562   0.326   2.070
  343SOL     OW 1048   1.303   0.838   1.904
  343SOL    HW1 1049   1.337   0.745   1.919
  343SOL    HW2 1050   1.321   0.865   1.809
  344SOL     OW 1051   1.068   1.333   2.711
  344SOL    HW1 1052   1.075   1.249   2.656
  344SOL    HW2 1053   1.130   1.402   2.675
  345SOL     OW 1054   0.319   0.810   2.811
  345SOL    HW1 1055   0.412   0.846   2.816
  345SOL    HW2 1056   0.313   0.725   2.863
  346SOL     OW 1057   0.339   0.509   2.868
  346SOL    HW1 1058   0.287   0.426   2.851
  346SOL    HW2 1059   0.416   0.514   2.804
  347SOL     OW 1060   1.138   0.380   3.540
  347SOL    HW1 1061   1.093   0.443   3.604
  347SOL    HW2 1062   1.231   0.411   3.523
  348SOL     OW 1063   1.160   0.207   3.339
  348SOL    HW1 1064   1.160   0.271   3.416
  348SOL    HW2 1065   1.188   0.255   3.256
  349SOL     OW 1066   0.008   1.326   2.062
  349SOL    HW1 1067  -0.085   1.347   2.031
  349SOL    HW2 1068   0.018   1.227   2.075
  350SOL     OW 1069   0.088   1.801   2.789
  350SOL    HW1 1070   0.046   1.715   2.762
  350SOL    HW2 1071   0.182   1.804   2.755
  351SOL     OW 1072   0.504   1.568   2.772
  351SOL    HW1 1073   0.570   1.642   2.781
  351SOL    HW2 1074   0.548   1.489   2.730
  352SOL     OW 1075   1.002   0.796   3.100
  352SOL    HW1 1076   1.043   0.764   3.186
  352SOL    HW2 1077   0.906   0.769   3.097
  353SOL     OW 1078   0.040   0.544   2.976
  353SOL    HW1 1079   0.125   0.511   2.935
  353SOL    HW2 1080   0.053   0.559   3.074
  354SOL     OW 1081   0.189   0.520   3.584
  354SOL    HW1 1082   0.248   0.480   3.514
  354SOL    HW2 1083   0.131   0.591   3.543
  355SOL     OW 1084   1.369   0.950   3.522
  355SOL    HW1 1085   1.408   1.039   3.542
  355SOL    HW2 1086   1.379   0.930   3.425
  356SOL     OW 1087   0.815   0.572   2.187
  356SOL    HW1 1088   0.822   0.483   2.141
  356SOL    HW2 1089   0.721   0.606   2.179
  357SOL     OW 1090   1.657   0.604   3.068
  357SOL    HW1 1091   1.619   0.535   3.130
  357SOL    HW2 1092   1.739   0.568   3.024
  358SOL     OW 1093   0.252   1.564   3.606
  358SOL    HW1 1094   0.222   1.621   3.682
  358SOL    HW2 1095   0.245   1.467   3.632
  359SOL     OW 1096   0.671   0.464   3.131
  359SOL    HW1 1097   0.637   0.375   3.101
  359SOL    HW2 1098   0.697   0.518   3.051
  360SOL     OW 1099   0.930   1.678   3.327
  360SOL    HW1 1100   0.906   1.660   3.232
  360SOL    HW2 1101   0.960   1.772   3.337
  361SOL     OW 1102   0.473   0.500   2.053
  361SOL    HW1 1103   0.534   0.580   2.057
  361SOL    HW2 1104   0.378   0.531   2.060
  362SOL     OW 1105   0.159   1.137   3.328
  362SOL    HW1 1106   0.181   1.076   3.404
  362SOL    HW2 1107   0.169   1.088   3.242
  363SOL     OW 1108   1.347   1.059   3.096
  363SOL    HW1 1109   1.371   0.996   3.022
  363SOL    HW2 1110   1.257   1.099   3.078
  364SOL     OW 1111   1.302   0.855   2.171
  364SOL    HW1 1112   1.216   0.824   2.213
  364SOL    HW2 1113   1.298   0.841   2.072
  365SOL     OW 1114   1.759   1.747   3.016
  365SOL    HW1 1115   1.820   1.777   2.943
  365SOL    HW2 1116   1.721   1.658   2.994
  366SOL     OW 1117   1.252   1.731   2.990
  366SOL    HW1 1118   1.336   1.736   2.936
  366SOL    HW2 1119   1.229   1.635   3.008
  367SOL     OW 1120   0.083   1.258   2.884
  367SOL    HW1 1121   0.078   1.257   2.984
  367SOL    HW2 1122   0.000   1.217   2.846
  368SOL     OW 1123   0.688   1.662   3.578
  368SOL    HW1 1124   0.632   1.743   3.587
  368SOL    HW2 1125   0.740   1.666   3.492
  369SOL     OW 1126   1.726   0.135   2.385
  369SOL    HW1 1127   1.799   0.118   2.318
  369SOL    HW2 1128   1.695   0.048   2.423
  370SOL     OW 1129   1.388   1.573   2.339
  370SOL    HW1 1130   1.455   1.585   2.265
  370SOL    HW2 1131   1.348   1.662   2.362
  371SOL     OW 1132   0.130   1.794   3.713
  371SOL    HW1 1133   0.089   1.720   3.766
  371SOL    HW2 1134   0.194   1.845   3.771
  372SOL     OW 1135   1.280   0.927   2.534
  372SOL    HW1 1136   1.340   0.846   2.536
  372SOL    HW2 1137   1.320   0.996   2.474
  373SOL     OW 1138   0.830   1.273   3.284
  373SOL    HW1 1139   0.825   1.306   3.379
  373SOL    HW2 1140   0.744   1.292   3.238
  374SOL     OW 1141   0.672   1.616   2.016
  374SOL    HW1 1142   0.681   1.626   1.917
  374SOL    HW2 1143   0.632   1.527   2.037
  375SOL     OW 1144   1.650   1.720   3.256
  375SOL    HW1 1145   1.703   1.730   3.172
  375SOL    HW2 1146   1.623   1.810   3.290
  376SOL     OW 1147   1.841   0.175   2.825
  376SOL    HW1 1148   1.880   0.090   2.789
  376SOL    HW2 1149   1.743   0.177   2.806
  377SOL     OW 1150   0.263   0.326   2.582
  377SOL    HW1 1151   0.184   0.377   2.548
  377SOL    HW2 1152   0.254   0.311   2.680
  378SOL     OW 1153   1.194   1.612   1.893
  378SOL    HW1 1154   1.200   1.519   1.930
  378SOL    HW2 1155   1.135   1.612   1.813
  379SOL     OW 1156   0.822   1.002   3.234
  379SOL    HW1 1157   0.862   1.001   3.142
  379SOL    HW2 1158   0.832   1.094   3.274
  380SOL     OW 1159   0.916   0.910   2.153
  380SOL    HW1 1160   0.979   0.948   2.085
  380SOL    HW2 1161   0.956   0.827   2.192
  381SOL     OW 1162   1.504   1.607   1.906
  381SOL    HW1 1163   1.412   1.644   1.913
  381SOL    HW2 1164   1.542   1.627   1.816
  382SOL     OW 1165   0.372   1.288   3.352
  382SOL    HW1 1166   0.359   1.381   3.318
  382SOL    HW2 1167   0.288   1.236   3.339
  383SOL     OW 1168   1.614   1.292   3.151
  383SOL    HW1 1169   1.674   1.295   3.231
  383SOL    HW2 1170   1.539   1.356   3.164
  384SOL     OW 1171   1.039   1.098   2.558
  384SOL    HW1 1172   0.969   1.051   2.612
  384SOL    HW2 1173   1.098   1.030   2.515
  385SOL     OW 1174   1.014   0.236   2.833
  385SOL    HW1 1175   1.006   0.200   2.740
  385SOL    HW2 1176   1.012   0.160   2.898
  386SOL     OW 1177   0.590   1.487   2.353
  386SOL    HW1 1178   0.632   1.429   2.283
  386SOL    HW2 1179   0.546   1.566   2.309
  387SOL     OW 1180   1.709   0.385   3.243
  387SOL    HW1 1181   1.782   0.454   3.247
  387SOL    HW2 1182   1.737   0.310   3.184
  388SOL     OW 1183   0.255   1.348   2.152
  388SOL    HW1 1184   0.159   1.349   2.125
  388SOL    HW2 1185   0.267   1.401   2.236
  389SOL     OW 1186   0.105   1.013   3.588
  389SOL    HW1 1187   0.028   0.980   3.642
  389SOL    HW2 1188   0.190   0.983   3.630
  390SOL     OW 1189   0.672   0.203   3.351
  390SOL    HW1 1190   0.762   0.187   3.311
  390SOL    HW2 1191   0.680   0.208   3.450
  391SOL     OW 1192   0.075   0.345   1.895
  391SOL    HW1 1193  -0.017   0.317   1.866
  391SOL    HW2 1194   0.106   0.422   1.839
  392SOL     OW 1195   1.440   0.856   3.260
  392SOL    HW1 1196   1.383   0.908   3.197
  392SOL    HW2 1197   1.536   0.868   3.236
  393SOL     OW 1198   0.072   0.166   2.180
  393SOL    HW1 1199   0.055   0.249   2.126
  393SOL    HW2 1200   0.162   0.129   2.158
  394SOL     OW 1201   1.183   1.335   1.981
  394SOL    HW1 1202   1.084   1.324   1.983
  394SOL    HW2 1203   1.217   1.350   2.074
  395SOL     OW 1204   0.613   0.842   3.293
  395SOL    HW1 1205   0.669   0.923   3.276
  395SOL    HW2 1206   0.672   0.762   3.296
  396SOL     OW 1207   1.493   1.767   2.821
  396SOL    HW1 1208   1.526   1.831   2.752
  396SOL    HW2 1209   1.559   1.761   2.896
  397SOL     OW 1210   0.716   0.565   3.570
  397SOL    HW1 1211   0.735   0.630   3.644
  397SOL    HW2 1212   0.776   0.485   3.579
  398SOL     OW 1213   1.450   1.220   3.495
  398SOL    HW1 1214   1.441   1.210   3.594
  398SOL    HW2 1215   1.546   1.213   3.469
  399SOL     OW 1216   0.390   1.741   3.422
  399SOL    HW1 1217   0.299   1.782   3.420
  399SOL    HW2 1218   0.383   1.647   3.454
  400SOL     OW 1219   1.674   0.883   3.116
  400SOL    HW1 1220   1.647   0.794   3.079
  400SOL    HW2 1221   1.675   0.951   3.043
  401SOL     OW 1222   1.225   0.325   2.311
  401SOL    HW1 1223   1.290   0.251   2.300
  401SOL    HW2 1224   1.245   0.375   2.395
  402SOL     OW 1225   0.594   0.745   2.514
  402SOL    HW1 1226   0.644   0.830   2.495
  402SOL    HW2 1227   0.506   0.747   2.466
  403SOL     OW 1228   1.777   0.342   3.504
  403SOL    HW1 1229   1.760   0.373   3.410
  403SOL    HW2 1230   1.693   0.305   3.542
  404SOL     OW 1231   1.730   0.934   3.379
  404SOL    HW1 1232   1.768   1.025   3.394
  404SOL    HW2 1233   1.722   0.917   3.280
  405SOL     OW 1234   0.859   1.374   1.878
  405SOL    HW1 1235   0.813   1.389   1.966
  405SOL    HW2 1236   0.903   1.459   1.848
  406SOL     OW 1237   0.661   1.790   2.815
  406SOL    HW1 1238   0.615   1.878   2.802
  406SOL    HW2 1239   0.760   1.802   2.808
  407SOL     OW 1240   0.859   0.956   2.723
  407SOL    HW1 1241   0.913   0.887   2.771
  407SOL    HW2 1242   0.827   1.025   2.789
  408SOL     OW 1243   1.083   0.984   1.949
  408SOL    HW1 1244   1.060   1.037   1.867
  408SOL    HW2 1245   1.164   0.928   1.930
  409SOL     OW 1246   1.861   1.569   2.713
  409SOL    HW1 1247   1.790   1.557   2.643
  409SOL    HW2 1248   1.862   1.490   2.773
  410SOL     OW 1249   0.221   1.314   3.706
  410SOL    HW1 1250   0.156   1.241   3.685
  410SOL    HW2 1251   0.225   1.328   3.804
  411SOL     OW 1252   0.079   1.240   2.515
  411SOL    HW1 1253   0.078   1.193   2.603
  411SOL    HW2 1254   0.161   1.212   2.464
  412SOL     OW 1255   0.672   1.391   3.486
  412SOL    HW1 1256   0.594   1.341   3.524
  412SOL    HW2 1257   0.669   1.486   3.517
  413SOL     OW 1258   1.824   0.192   3.089
  413SOL    HW1 1259   1.820   0.102   3.133
  413SOL    HW2 1260   1.827   0.181   2.990
  414SOL     OW 1261   0.428   0.424   2.382
  414SOL    HW1 1262   0.458   0.352   2.320
  414SOL    HW2 1263   0.389   0.384   2.465
  415SOL     OW 1264   1.705   1.487   2.966
  415SOL    HW1 1265   1.612   1.462   2.939
  415SOL    HW2 1266   1.731   1.437   3.048
  416SOL     OW 1267   0.317   0.547   3.142
  416SOL    HW1 1268   0.355   0.488   3.214
  416SOL    HW2 1269   0.357   0.521   3.054
  417SOL     OW 1270   0.812   1.586   2.549
  417SOL    HW1 1271   0.844   1.596   2.455
  417SOL    HW2 1272   0.733   1.524   2.551
  418SOL     OW 1273   1.424   0.214   2.974
  418SOL    HW1 1274   1.476   0.149   3.029
  418SOL    HW2 1275   1.375   0.277   3.035
  419SOL     OW 1276   1.001   0.034   3.016
  419SOL    HW1 1277   0.938  -0.038   2.985
  419SOL    HW2 1278   1.094  -0.002   3.016
  420SOL     OW 1279   0.770   1.330   2.163
  420SOL    HW1 1280   0.724   1.243   2.180
  420SOL    HW2 1281   0.861   1.327   2.204
  421SOL     OW 1282   0.618   1.567   3.146
  421SOL    HW1 1283   0.613   1.649   3.203
  421SOL    HW2 1284   0.707   1.564   3.101
  422SOL     OW 1285   1.352   0.052   2.030
  422SOL    HW1 1286   1.387   0.011   1.946
  422SOL    HW2 1287   1.262   0.014   2.050
  423SOL     OW 1288   1.300   0.453   2.553
  423SOL    HW1 1289   1.241   0.533   2.557
  423SOL    HW2 1290   1.315   0.418   2.646
  424SOL     OW 1291   1.593   0.221   2.744
  424SOL    HW1 1292   1.509   0.220   2.798
  424SOL    HW2 1293   1.595   0.304   2.688
  425SOL     OW 1294   0.039   1.077   2.162
  425SOL    HW1 1295   0.138   1.066   2.153
  425SOL    HW2 1296  -0.001   0.991   2.194
  426SOL     OW 1297   0.875   1.646   2.199
  426SOL    HW1 1298   0.798   1.611   2.145
  426SOL    HW2 1299   0.843   1.717   2.261
  427SOL     OW 1300   0.230   0.628   3.837
  427SOL    HW1 1301   0.137   0.626   3.874
  427SOL    HW2 1302   0.231   0.589   3.745
  428SOL     OW 1303   0.225   0.275   4.720
  428SOL    HW1 1304   0.260   0.258   4.812
  428SOL    HW2 1305   0.137   0.230   4.708
  429SOL     OW 1306   0.019   0.368   4.371
  429SOL    HW1 1307  -0.063   0.411   4.410
  429SOL    HW2 1308  -0.009   0.295   4.308
  430SOL     OW 1309   0.569   1.275   4.889
  430SOL    HW1 1310   0.476   1.268   4.852
  430SOL    HW2 1311   0.580   1.364   4.933
  431SOL     OW 1312   1.555   1.511   4.427
  431SOL    HW1 1313   1.498   1.495   4.508
  431SOL    HW2 1314   1.496   1.521   4.347
  432SOL     OW 1315   1.135   0.703   4.441
  432SOL    HW1 1316   1.192   0.781   4.416
  432SOL    HW2 1317   1.075   0.729   4.517
  433SOL     OW 1318   1.755   0.607   3.955
  433SOL    HW1 1319   1.743   0.594   3.856
  433SOL    HW2 1320   1.725   0.526   4.004
  434SOL     OW 1321   0.768   1.144   4.747
  434SOL    HW1 1322   0.690   1.161   4.807
  434SOL    HW2 1323   0.802   1.231   4.711
  435SOL     OW 1324   0.685   1.012   4.389
  435SOL    HW1 1325   0.754   0.996   4.459
  435SOL    HW2 1326   0.612   1.069   4.427
  436SOL     OW 1327   0.335   1.435   4.785
  436SOL    HW1 1328   0.257   1.404   4.732
  436SOL    HW2 1329   0.393   1.493   4.728
  437SOL     OW 1330   1.603   0.447   4.461
  437SOL    HW1 1331   1.529   0.493   4.411
  437SOL    HW2 1332   1.654   0.515   4.514
  438SOL     OW 1333   0.231   1.713   4.207
  438SOL    HW1 1334   0.265   1.790   4.261
  438SOL    HW2 1335   0.275   1.713   4.117
  439SOL     OW 1336   0.230   1.434   4.262
  439SOL    HW1 1337   0.204   1.530   4.262
  439SOL    HW2 1338   0.159   1.380   4.307
  440SOL     OW 1339   0.240   1.091   4.610
  440SOL    HW1 1340   0.254   1.007   4.662
  440SOL    HW2 1341   0.185   1.155   4.665
  441SOL     OW 1342   0.606   0.964   3.847
  441SOL    HW1 1343   0.613   1.048   3.793
  441SOL    HW2 1344   0.652   0.977   3.935
  442SOL     OW 1345   0.122   0.643   4.287
  442SOL    HW1 1346   0.077   0.555   4.304
  442SOL    HW2 1347   0.121   0.697   4.371
  443SOL     OW 1348   1.842   1.767   4.083
  443SOL    HW1 1349   1.896   1.738   4.163
  443SOL    HW2 1350   1.872   1.857   4.054
  444SOL     OW 1351   0.027   1.596   3.841
  444SOL    HW1 1352   0.008   1.500   3.862
  444SOL    HW2 1353  -0.006   1.654   3.916
  445SOL     OW 1354   1.689   0.922   4.336
  445SOL    HW1 1355   1.784   0.893   4.344
  445SOL    HW2 1356   1.681   0.987   4.261
  446SOL     OW 1357   1.641   1.108   4.156
  446SOL    HW1 1358   1.727   1.110   4.104
  446SOL    HW2 1359   1.655   1.155   4.244
  447SOL     OW 1360   0.613   1.365   4.450
  447SOL    HW1 1361   0.564   1.278   4.459
  447SOL    HW2 1362   0.590   1.408   4.363
  448SOL     OW 1363   0.809   0.004   4.226
  448SOL    HW1 1364   0.849   0.095   4.217
  448SOL    HW2 1365   0.709   0.012   4.232
  449SOL     OW 1366   0.197   0.976   4.988
  449SOL    HW1 1367   0.286   0.931   4.974
  449SOL    HW2 1368   0.124   0.911   4.969
  450SOL     OW 1369   1.525   0.999   3.914
  450SOL    HW1 1370   1.462   0.923   3.927
  450SOL    HW2 1371   1.573   1.017   4.000
  451SOL     OW 1372   1.466   1.417   4.677
  451SOL    HW1 1373   1.407   1.423   4.757
  451SOL    HW2 1374   1.451   1.329   4.631
  452SOL     OW 1375   1.667   1.714   4.296
  452SOL    HW1 1376   1.626   1.691   4.208
  452SOL    HW2 1377   1.649   1.640   4.361
  453SOL     OW 1378   0.598   0.729   3.994
  453SOL    HW1 1379   0.622   0.798   3.926
  453SOL    HW2 1380   0.520   0.762   4.048
  454SOL     OW 1381   1.281   0.345   4.668
  454SOL    HW1 1382   1.195   0.295   4.655
  454SOL    HW2 1383   1.343   0.291   4.724
  455SOL     OW 1384   1.576   1.662   4.031
  455SOL    HW1 1385   1.665   1.708   4.034
  455SOL    HW2 1386   1.555   1.638   3.936
  456SOL     OW 1387   1.041   0.701   4.153
  456SOL    HW1 1388   1.067   0.697   4.249
  456SOL    HW2 1389   0.956   0.650   4.139
  457SOL     OW 1390   0.076   0.811   4.513
  457SOL    HW1 1391   0.175   0.799   4.522
  457SOL    HW2 1392   0.052   0.906   4.534
  458SOL     OW 1393   0.865   0.348   3.919
  458SOL    HW1 1394   0.924   0.411   3.870
  458SOL    HW2 1395   0.884   0.254   3.890
  459SOL     OW 1396   1.362   1.144   4.269
  459SOL    HW1 1397   1.445   1.115   4.221
  459SOL    HW2 1398   1.313   1.211   4.213
  460SOL     OW 1399   0.550   0.196   4.609
  460SOL    HW1 1400   0.545   0.191   4.709
  460SOL    HW2 1401   0.552   0.292   4.580
  461SOL     OW 1402   1.008   1.456   4.201
  461SOL    HW1 1403   0.962   1.528   4.149
  461SOL    HW2 1404   1.004   1.476   4.299
  462SOL     OW 1405   0.351   1.801   4.577
  462SOL    HW1 1406   0.401   1.715   4.583
  462SOL    HW2 1407   0.416   1.878   4.574
  463SOL     OW 1408   1.795   1.066   4.597
  463SOL    HW1 1409   1.733   1.051   4.521
  463SOL    HW2 1410   1.743   1.077   4.682
  464SOL     OW 1411   0.321   0.943   3.966
  464SOL    HW1 1412   0.403   0.982   3.924
  464SOL    HW2 1413   0.294   0.861   3.917
  465SOL     OW 1414   1.458   0.735   4.452
  465SOL    HW1 1415   1.453   0.670   4.527
  465SOL    HW2 1416   1.538   0.794   4.465
  466SOL     OW 1417   1.111   1.776   3.961
  466SOL    HW1 1418   1.051   1.714   4.011
  466SOL    HW2 1419   1.142   1.732   3.876
  467SOL     OW 1420   1.632   1.377   3.805
  467SOL    HW1 1421   1.600   1.471   3.795
  467SOL    HW2 1422   1.556   1.314   3.793
  468SOL     OW 1423   0.464   1.743   4.047
  468SOL    HW1 1424   0.497   1.782   4.133
  468SOL    HW2 1425   0.540   1.736   3.982
  469SOL     OW 1426   1.400   0.107   4.150
  469SOL    HW1 1427   1.376   0.070   4.060
  469SOL    HW2 1428   1.499   0.123   4.154
  470SOL     OW 1429   0.249   1.785   4.965
  470SOL    HW1 1430   0.306   1.720   5.015
  470SOL    HW2 1431   0.233   1.752   4.872
  471SOL     OW 1432   0.940   1.698   4.628
  471SOL    HW1 1433   1.020   1.641   4.649
  471SOL    HW2 1434   0.891   1.658   4.551
  472SOL     OW 1435   0.382   0.700   4.204
  472SOL    HW1 1436   0.427   0.610   4.201
  472SOL    HW2 1437   0.288   0.689   4.237
  473SOL     OW 1438   0.614   0.122   3.841
  473SOL    HW1 1439   0.712   0.100   3.848
  473SOL    HW2 1440   0.583   0.105   3.748
  474SOL     OW 1441   0.803   1.402   4.648
  474SOL    HW1 1442   0.893   1.416   4.606
  474SOL    HW2 1443   0.732   1.404   4.577
  475SOL     OW 1444   0.922   0.503   4.623
  475SOL    HW1 1445   0.897   0.494   4.527
  475SOL    HW2 1446   0.970   0.421   4.654
  476SOL     OW 1447   0.539   0.064   4.236
  476SOL    HW1 1448   0.458   0.065   4.294
  476SOL    HW2 1449   0.542   0.147   4.181
  477SOL     OW 1450   1.434   1.188   3.765
  477SOL    HW1 1451   1.466   1.112   3.822
  477SOL    HW2 1452   1.342   1.215   3.795
  478SOL     OW 1453   0.297   0.035   3.895
  478SOL    HW1 1454   0.346   0.119   3.874
  478SOL    HW2 1455   0.359  -0.030   3.940
  479SOL     OW 1456   0.935   0.236   4.204
  479SOL    HW1 1457   0.887   0.277   4.126
  479SOL    HW2 1458   1.034   0.234   4.185
  480SOL     OW 1459   1.227   1.570   4.517
  480SOL    HW1 1460   1.248   1.644   4.452
  480SOL    HW2 1461   1.295   1.570   4.590
  481SOL     OW 1462   0.459   1.152   4.465
  481SOL    HW1 1463   0.388   1.125   4.530
  481SOL    HW2 1464   0.433   1.124   4.372
  482SOL     OW 1465   1.271   1.797   4.315
  482SOL    HW1 1466   1.315   1.861   4.251
  482SOL    HW2 1467   1.221   1.849   4.385
  483SOL     OW 1468   1.032   0.549   3.740
  483SOL    HW1 1469   0.991   0.631   3.701
  483SOL    HW2 1470   1.096   0.575   3.813
  484SOL     OW 1471   0.866   0.454   4.366
  484SOL    HW1 1472   0.834   0.526   4.304
  484SOL    HW2 1473   0.890   0.373   4.313
  485SOL     OW 1474   1.017   0.039   4.477
  485SOL    HW1 1475   0.945   0.044   4.408
  485SOL    HW2 1476   0.993  -0.030   4.546
  486SOL     OW 1477   1.429   1.173   4.591
  486SOL    HW1 1478   1.374   1.089   4.584
  486SOL    HW2 1479   1.455   1.202   4.499
  487SOL     OW 1480   1.466   0.590   4.716
  487SOL    HW1 1481   1.436   0.495   4.723
  487SOL    HW2 1482   1.539   0.606   4.782
  488SOL     OW 1483   1.857   0.833   4.101
  488SOL    HW1 1484   1.899   0.769   4.165
  488SOL    HW2 1485   1.819   0.782   4.023
  489SOL     OW 1486   0.488   1.385   3.898
  489SOL    HW1 1487   0.401   1.370   3.945
  489SOL    HW2 1488   0.471   1.411   3.803
  490SOL     OW 1489   1.664   1.280   4.381
  490SOL    HW1 1490   1.763   1.288   4.395
  490SOL    HW2 1491   1.619   1.364   4.412
  491SOL     OW 1492   1.390   0.575   3.802
  491SOL    HW1 1493   1.336   0.554   3.883
  491SOL    HW2 1494   1.481   0.534   3.811
  492SOL     OW 1495   0.527   0.256   4.052
  492SOL    HW1 1496   0.554   0.197   3.977
  492SOL    HW2 1497   0.527   0.351   4.021
  493SOL     OW 1498   1.111   1.195   4.824
  493SOL    HW1 1499   1.071   1.239   4.905
  493SOL    HW2 1500   1.070   1.232   4.741
  494SOL     OW 1501   1.638   1.099   4.803
  494SOL    HW1 1502   1.643   1.180   4.862
  494SOL    HW2 1503   1.552   1.101   4.752
  495SOL     OW 1504   0.705   1.050   4.092
  495SOL    HW1 1505   0.691   1.057   4.191
  495SOL    HW2 1506   0.789   0.999   4.074
  496SOL     OW 1507   0.410   0.813   4.975
  496SOL    HW1 1508   0.496   0.825   5.025
  496SOL    HW2 1509   0.368   0.726   5.002
  497SOL     OW 1510   0.367   1.100   4.225
  497SOL    HW1 1511   0.360   1.183   4.169
  497SOL    HW2 1512   0.371   1.020   4.165
  498SOL     OW 1513   0.566   0.537   4.589
  498SOL    HW1 1514   0.578   0.603   4.515
  498SOL    HW2 1515   0.612   0.571   4.672
  499SOL     OW 1516   1.252   1.348   4.112
  499SOL    HW1 1517   1.302   1.425   4.152
  499SOL    HW2 1518   1.157   1.350   4.144
  500SOL     OW 1519   1.272   1.445   4.866
  500SOL    HW1 1520   1.319   1.458   4.953
  500SOL    HW2 1521   1.206   1.371   4.875
  501SOL     OW 1522   1.582   0.639   4.196
  501SOL    HW1 1523   1.551   0.700   4.269
  501SOL    HW2 1524   1.632   0.691   4.127
  502SOL     OW 1525   0.573   0.870   4.753
  502SOL    HW1 1526   0.617   0.959   4.744
  502SOL    HW2 1527   0.510   0.870   4.830
  503SOL     OW 1528   1.209   0.525   3.999
  503SOL    HW1 1529   1.222   0.441   4.053
  503SOL    HW2 1530   1.180   0.599   4.059
  504SOL     OW 1531   0.307   0.213   4.955
  504SOL    HW1 1532   0.284   0.250   5.045
  504SOL    HW2 1533   0.277   0.118   4.949
  505SOL     OW 1534   0.732   0.634   4.788
  505SOL    HW1 1535   0.791   0.608   4.712
  505SOL    HW2 1536   0.704   0.730   4.777
  506SOL     OW 1537   0.307   0.063   4.342
  506SOL    HW1 1538   0.296   0.157   4.375
  506SOL    HW2 1539   0.302   0.000   4.419
  507SOL     OW 1540   1.622   0.367   4.098
  507SOL    HW1 1541   1.624   0.291   4.162
  507SOL    HW2 1542   1.574   0.444   4.138
  508SOL     OW 1543   1.023   0.766   4.690
  508SOL    HW1 1544   1.038   0.787   4.786
  508SOL    HW2 1545   0.993   0.671   4.681
  509SOL     OW 1546   1.540   0.274   3.849
  509SOL    HW1 1547   1.479   0.199   3.872
  509SOL    HW2 1548   1.562   0.326   3.932
  510SOL     OW 1549   1.303   0.838   3.766
  510SOL    HW1 1550   1.337   0.745   3.781
  510SOL    HW2 1551   1.321   0.865   3.671
  511SOL     OW 1552   1.068   1.333   4.573
  511SOL    HW1 1553   1.075   1.249   4.518
  511SOL    HW2 1554   1.130   1.402   4.537
  512SOL     OW 1555   0.319   0.810   4.673
  512SOL    HW1 1556   0.412   0.846   4.678
  512SOL    HW2 1557   0.313   0.725   4.725
  513SOL     OW 1558   0.339   0.509   4.730
  513SOL    HW1 1559   0.287   0.426   4.713
  513SOL    HW2 1560   0.416   0.514   4.666
  514SOL     OW 1561   0.008   1.326   3.924
  514SOL    HW1 1562  -0.085   1.347   3.893
  514SOL    HW2 1563   0.018   1.227   3.937
  515SOL     OW 1564   0.088   1.801   4.651
  515SOL    HW1 1565   0.046   1.715   4.624
  515SOL    HW2 1566   0.182   1.804   4.617
  516SOL     OW 1567   0.504   1.568   4.634
  516SOL    HW1 1568   0.570   1.642   4.643
  516SOL    HW2 1569   0.548   1.489   4.592
  517SOL     OW 1570   1.002   0.796   4.962
  517SOL    HW1 1571   1.043   0.764   5.048
  517SOL    HW2 1572   0.906   0.769   4.959
  518SOL     OW 1573   0.040   0.544   4.838
  518SOL    HW1 1574   0.125   0.511   4.797
  518SOL    HW2 1575   0.053   0.559   4.936
  519SOL     OW 1576   0.815   0.572   4.049
  519SOL    HW1 1577   0.822   0.483   4.003
  519SOL    HW2 1578   0.721   0.606   4.041
  520SOL     OW 1579   1.657   0.604   4.930
  520SOL    HW1 1580   1.619   0.535   4.992
  520SOL    HW2 1581   1.739   0.568   4.886
  521SOL     OW 1582   0.671   0.464   4.993
  521SOL    HW1 1583   0.637   0.375   4.963
  521SOL    HW2 1584   0.697   0.518   4.913
  522SOL     OW 1585   0.473   0.500   3.915
  522SOL    HW1 1586   0.534   0.580   3.919
  522SOL    HW2 1587   0.378   0.531   3.922
  523SOL     OW 1588   1.302   0.855   4.033
  523SOL    HW1 1589   1.216   0.824   4.075
  523SOL    HW2 1590   1.298   0.841   3.934
  524SOL     OW 1591   1.759   1.747   4.878
  524SOL    HW1 1592   1.820   1.777   4.805
  524SOL    HW2 1593   1.721   1.658   4.856
  525SOL     OW 1594   0.083   1.258   4.746
  525SOL    HW1 1595   0.078   1.257   4.846
  525SOL    HW2 1596   0.000   1.217   4.708
  526SOL     OW 1597   1.726   0.135   4.247
  526SOL    HW1 1598   1.799   0.118   4.180
  526SOL    HW2 1599   1.695   0.048   4.285
  527SOL     OW 1600   1.388   1.573   4.201
  527SOL    HW1 1601   1.455   1.585   4.127
  527SOL    HW2 1602   1.348   1.662   4.224
  528SOL     OW 1603   1.280   0.927   4.396
  528SOL    HW1 1604   1.340   0.846   4.398
  528SOL    HW2 1605   1.320   0.996   4.336
  529SOL     OW 1606   0.672   1.616   3.878
  529SOL    HW1 1607   0.681   1.626   3.779
  529SOL    HW2 1608   0.632   1.527   3.899
  530SOL     OW 1609   1.841   0.175   4.687
  530SOL    HW1 1610   1.880   0.090   4.651
  530SOL    HW2 1611   1.743   0.177   4.668
  531SOL     OW 1612   0.263   0.326   4.444
  531SOL    HW1 1613   0.184   0.377   4.410
  531SOL    HW2 1614   0.254   0.311   4.542
  532SOL     OW 1615   1.194   1.612   3.755
  532SOL    HW1 1616   1.200   1.519   3.792
  532SOL    HW2 1617   1.135   1.612   3.675
  533SOL     OW 1618   0.822   1.002   5.096
  533SOL    HW1 1619   0.862   1.001   5.004
  533SOL    HW2 1620   0.832   1.094   5.136
  534SOL     OW 1621   0.916   0.910   4.015
  534SOL    HW1 1622   0.979   0.948   3.947
  534SOL    HW2 1623   0.956   0.827   4.054
  535SOL     OW 1624   1.504   1.607   3.768
  535SOL    HW1 1625   1.412   1.644   3.775
  535SOL    HW2 1626   1.542   1.627   3.678
  536SOL     OW 1627   1.039   1.098   4.420
  536SOL    HW1 1628   0.969   1.051   4.474
  536SOL    HW2 1629   1.098   1.030   4.377
  537SOL     OW 1630   1.014   0.236   4.695
  537SOL    HW1 1631   1.006   0.200   4.602
  537SOL    HW2 1632   1.012   0.160   4.760
  538SOL     OW 1633   0.590   1.487   4.215
  538SOL    HW1 1634   0.632   1.429   4.145
  538SOL    HW2 1635   0.546   1.566   4.171
  539SOL     OW 1636   1.709   0.385   5.105
  539SOL    HW1 1637   1.782   0.454   5.109
  539SOL    HW2 1638   1.737   0.310   5.046
  540SOL     OW 1639   0.255   1.348   4.014
  540SOL    HW1 1640   0.159   1.349   3.987
  540SOL    HW2 1641   0.267   1.401   4.098
  541SOL     OW 1642   0.075   0.345   3.757
  541SOL    HW1 1643  -0.017   0.317   3.728
  541SOL    HW2 1644   0.106   0.422   3.701
  542SOL     OW 1645   0.072   0.166   4.042
  542SOL    HW1 1646   0.055   0.249   3.988
  542SOL    HW2 1647   0.162   0.129   4.020
  543SOL     OW 1648   1.183   1.335   3.843
  543SOL    HW1 1649   1.084   1.324   3.845
  543SOL    HW2 1650   1.217   1.350   3.936
  544SOL     OW 1651   1.493   1.767   4.683
  544SOL    HW1 1652   1.526   1.831   4.614
  544SOL    HW2 1653   1.559   1.761   4.758
  545SOL     OW 1654   1.674   0.883   4.978
  545SOL    HW1 1655   1.647   0.794   4.941
  545SOL    HW2 1656   1.675   0.951   4.905
  546SOL     OW 1657   1.225   0.325   4.173
  546SOL    HW1 1658   1.290   0.251   4.162
  546SOL    HW2 1659   1.245   0.375   4.257
  547SOL     OW 1660   0.594   0.745   4.376
  547SOL    HW1 1661   0.644   0.830   4.357
  547SOL    HW2 1662   0.506   0.747   4.328
  548SOL     OW 1663   0.859   1.374   3.740
  548SOL    HW1 1664   0.813   1.389   3.828
  548SOL    HW2 1665   0.903   1.459   3.710
  549SOL     OW 1666   0.661   1.790   4.677
  549SOL    HW1 1667   0.615   1.878   4.664
  549SOL    HW2 1668   0.760   1.802   4.670
  550SOL     OW 1669   0.859   0.956   4.585
  550SOL    HW1 1670   0.913   0.887   4.633
  550SOL    HW2 1671   0.827   1.025   4.651
  551SOL     OW 1672   1.083   0.984   3.811
  551SOL    HW1 1673   1.060   1.037   3.729
  551SOL    HW2 1674   1.164   0.928   3.792
  552SOL     OW 1675   1.861   1.569   4.575
  552SOL    HW1 1676   1.790   1.557   4.505
  552SOL    HW2 1677   1.862   1.490   4.635
  553SOL     OW 1678   0.079   1.240   4.377
  553SOL    HW1 1679   0.078   1.193   4.465
  553SOL    HW2 1680   0.161   1.212   4.326
  554SOL     OW 1681   1.824   0.192   4.951
  554SOL    HW1 1682   1.820   0.102   4.995
  554SOL    HW2 1683   1.827   0.181   4.852
  555SOL     OW 1684   0.428   0.424   4.244
  555SOL    HW1 1685   0.458   0.352   4.182
  555SOL    HW2 1686   0.389   0.384   4.327
  556SOL     OW 1687   1.705   1.487   4.828
  556SOL    HW1 1688   1.612   1.462   4.801
  556SOL    HW2 1689   1.731   1.437   4.910
  557SOL     OW 1690   0.812   1.586   4.411
  557SOL    HW1 1691   0.844   1.596   4.317
  557SOL    HW2 1692   0.733   1.524   4.413
  558SOL     OW 1693   1.424   0.214   4.836
  558SOL    HW1 1694   1.476   0.149   4.891
  558SOL    HW2 1695   1.375   0.277   4.897
  559SOL     OW 1696   0.770   1.330   4.025
  559SOL    HW1 1697   0.724   1.243   4.042
  559SOL    HW2 1698   0.861   1.327   4.066
  560SOL     OW 1699   1.352   0.052   3.892
  560SOL    HW1 1700   1.387   0.011   3.808
  560SOL    HW2 1701   1.262   0.014   3.912
  561SOL     OW 1702   1.300   0.453   4.415
  561SOL    HW1 1703   1.241   0.533   4.419
  561SOL    HW2 1704   1.315   0.418   4.508
  562SOL     OW 1705   1.593   0.221   4.606
  562SOL    HW1 1706   1.509   0.220   4.660
  562SOL    HW2 1707   1.595   0.304   4.550
  563SOL     OW 1708   0.039   1.077   4.024
  563SOL    HW1 1709   0.138   1.066   4.015
  563SOL    HW2 1710  -0.001   0.991   4.056
  564SOL     OW 1711   0.875   1.646   4.061
  564SOL    HW1 1712   0.798   1.611   4.007
  564SOL    HW2 1713   0.843   1.717   4.123
  565SOL     OW 1714   0.230   2.490   0.113
  565SOL    HW1 1715   0.137   2.488   0.150
  565SOL    HW2 1716   0.231   2.451   0.021
  566SOL     OW 1717   0.225   2.137   0.996
  566SOL    HW1 1718   0.260   2.120   1.088
  566SOL    HW2 1719   0.137   2.092   0.984
  567SOL     OW 1720   0.019   2.230   0.647
  567SOL    HW1 1721  -0.063   2.273   0.686
  567SOL    HW2 1722  -0.009   2.157   0.584
  568SOL     OW 1723   0.569   3.137   1.165
  568SOL    HW1 1724   0.476   3.130   1.128
  568SOL    HW2 1725   0.580   3.226   1.209
  569SOL     OW 1726   1.555   3.373   0.703
  569SOL    HW1 1727   1.498   3.357   0.784
  569SOL    HW2 1728   1.496   3.383   0.623
  570SOL     OW 1729   1.135   2.565   0.717
  570SOL    HW1 1730   1.192   2.643   0.692
  570SOL    HW2 1731   1.075   2.591   0.793
  571SOL     OW 1732   1.755   2.469   0.231
  571SOL    HW1 1733   1.743   2.456   0.132
  571SOL    HW2 1734   1.725   2.388   0.280
  572SOL     OW 1735   0.768   3.006   1.023
  572SOL    HW1 1736   0.690   3.023   1.083
  572SOL    HW2 1737   0.802   3.093   0.987
  573SOL     OW 1738   0.850   2.660   1.823
  573SOL    HW1 1739   0.846   2.736   1.888
  573SOL    HW2 1740   0.872   2.696   1.732
  574SOL     OW 1741   0.685   2.874   0.665
  574SOL    HW1 1742   0.754   2.858   0.735
  574SOL    HW2 1743   0.612   2.931   0.703
  575SOL     OW 1744   0.686   3.023   1.803
  575SOL    HW1 1745   0.746   3.102   1.817
  575SOL    HW2 1746   0.600   3.054   1.762
  576SOL     OW 1747   0.335   3.297   1.061
  576SOL    HW1 1748   0.257   3.266   1.008
  576SOL    HW2 1749   0.393   3.355   1.004
  577SOL     OW 1750   1.460   3.367   1.339
  577SOL    HW1 1751   1.484   3.461   1.365
  577SOL    HW2 1752   1.444   3.313   1.421
  578SOL     OW 1753   0.438   2.254   1.499
  578SOL    HW1 1754   0.520   2.198   1.508
  578SOL    HW2 1755   0.357   2.196   1.503
  579SOL     OW 1756   1.603   2.309   0.737
  579SOL    HW1 1757   1.529   2.355   0.687
  579SOL    HW2 1758   1.654   2.377   0.790
  580SOL     OW 1759   0.231   3.575   0.483
  580SOL    HW1 1760   0.265   3.652   0.537
  580SOL    HW2 1761   0.275   3.575   0.393
  581SOL     OW 1762   1.127   3.203   1.690
  581SOL    HW1 1763   1.174   3.203   1.778
  581SOL    HW2 1764   1.079   3.116   1.679
  582SOL     OW 1765   0.230   3.296   0.538
  582SOL    HW1 1766   0.204   3.392   0.538
  582SOL    HW2 1767   0.159   3.242   0.583
  583SOL     OW 1768   0.240   2.953   0.886
  583SOL    HW1 1769   0.254   2.869   0.938
  583SOL    HW2 1770   0.185   3.017   0.941
  584SOL     OW 1771   0.620   3.648   1.439
  584SOL    HW1 1772   0.528   3.631   1.474
  584SOL    HW2 1773   0.648   3.740   1.465
  585SOL     OW 1774   0.606   2.826   0.123
  585SOL    HW1 1775   0.613   2.910   0.069
  585SOL    HW2 1776   0.652   2.839   0.211
  586SOL     OW 1777   1.594   1.976   1.480
  586SOL    HW1 1778   1.576   2.043   1.408
  586SOL    HW2 1779   1.591   2.022   1.569
  587SOL     OW 1780   0.122   2.505   0.563
  587SOL    HW1 1781   0.077   2.417   0.580
  587SOL    HW2 1782   0.121   2.559   0.647
  588SOL     OW 1783   1.842   3.629   0.359
  588SOL    HW1 1784   1.896   3.600   0.439
  588SOL    HW2 1785   1.872   3.719   0.330
  589SOL     OW 1786   0.027   3.458   0.117
  589SOL    HW1 1787   0.008   3.362   0.138
  589SOL    HW2 1788  -0.006   3.516   0.192
  590SOL     OW 1789   1.689   2.784   0.612
  590SOL    HW1 1790   1.784   2.755   0.620
  590SOL    HW2 1791   1.681   2.849   0.537
  591SOL     OW 1792   1.641   2.970   0.432
  591SOL    HW1 1793   1.727   2.972   0.380
  591SOL    HW2 1794   1.655   3.017   0.520
  592SOL     OW 1795   0.113   2.599   1.597
  592SOL    HW1 1796   0.201   2.586   1.642
  592SOL    HW2 1797   0.100   2.696   1.575
  593SOL     OW 1798   0.613   3.227   0.726
  593SOL    HW1 1799   0.564   3.140   0.735
  593SOL    HW2 1800   0.590   3.270   0.639
  594SOL     OW 1801   1.293   3.090   1.423
  594SOL    HW1 1802   1.330   3.017   1.365
  594SOL    HW2 1803   1.345   3.095   1.508
  595SOL     OW 1804   0.809   1.866   0.502
  595SOL    HW1 1805   0.849   1.957   0.493
  595SOL    HW2 1806   0.709   1.874   0.508
  596SOL     OW 1807   0.197   2.838   1.264
  596SOL    HW1 1808   0.286   2.793   1.250
  596SOL    HW2 1809   0.124   2.773   1.245
  597SOL     OW 1810   1.525   2.861   0.190
  597SOL    HW1 1811   1.462   2.785   0.203
  597SOL    HW2 1812   1.573   2.879   0.276
  598SOL     OW 1813   1.187   3.654   1.616
  598SOL    HW1 1814   1.211   3.714   1.540
  598SOL    HW2 1815   1.194   3.559   1.586
  599SOL     OW 1816   0.317   2.113   1.801
  599SOL    HW1 1817   0.388   2.184   1.807
  599SOL    HW2 1818   0.229   2.152   1.829
  600SOL     OW 1819   1.466   3.279   0.953
  600SOL    HW1 1820   1.407   3.285   1.033
  600SOL    HW2 1821   1.451   3.191   0.907
  601SOL     OW 1822   1.667   3.576   0.572
  601SOL    HW1 1823   1.626   3.553   0.484
  601SOL    HW2 1824   1.649   3.502   0.637
  602SOL     OW 1825   0.598   2.591   0.270
  602SOL    HW1 1826   0.622   2.660   0.202
  602SOL    HW2 1827   0.520   2.624   0.324
  603SOL     OW 1828   1.281   2.207   0.944
  603SOL    HW1 1829   1.195   2.157   0.931
  603SOL    HW2 1830   1.343   2.153   1.000
  604SOL     OW 1831   1.576   3.524   0.307
  604SOL    HW1 1832   1.665   3.570   0.310
  604SOL    HW2 1833   1.555   3.500   0.212
  605SOL     OW 1834   0.807   2.467   1.465
  605SOL    HW1 1835   0.760   2.464   1.554
  605SOL    HW2 1836   0.756   2.412   1.399
  606SOL     OW 1837   1.394   2.331   1.674
  606SOL    HW1 1838   1.374   2.374   1.762
  606SOL    HW2 1839   1.472   2.269   1.683
  607SOL     OW 1840   0.973   2.752   1.572
  607SOL    HW1 1841   1.019   2.668   1.543
  607SOL    HW2 1842   0.917   2.786   1.497
  608SOL     OW 1843   0.991   2.272   1.242
  608SOL    HW1 1844   0.914   2.306   1.296
  608SOL    HW2 1845   0.957   2.221   1.163
  609SOL     OW 1846   1.041   2.563   0.429
  609SOL    HW1 1847   1.067   2.559   0.525
  609SOL    HW2 1848   0.956   2.512   0.415
  610SOL     OW 1849   0.076   2.673   0.789
  610SOL    HW1 1850   0.175   2.661   0.798
  610SOL    HW2 1851   0.052   2.768   0.810
  611SOL     OW 1852   0.130   3.683   1.571
  611SOL    HW1 1853   0.120   3.668   1.670
  611SOL    HW2 1854   0.044   3.719   1.535
  612SOL     OW 1855   0.865   2.210   0.195
  612SOL    HW1 1856   0.924   2.273   0.146
  612SOL    HW2 1857   0.884   2.116   0.166
  613SOL     OW 1858   1.719   2.447   1.831
  613SOL    HW1 1859   1.693   2.536   1.795
  613SOL    HW2 1860   1.717   2.379   1.758
  614SOL     OW 1861   1.362   3.006   0.545
  614SOL    HW1 1862   1.445   2.977   0.497
  614SOL    HW2 1863   1.313   3.073   0.489
  615SOL     OW 1864   0.550   2.058   0.885
  615SOL    HW1 1865   0.545   2.053   0.985
  615SOL    HW2 1866   0.552   2.154   0.856
  616SOL     OW 1867   1.008   3.318   0.477
  616SOL    HW1 1868   0.962   3.390   0.425
  616SOL    HW2 1869   1.004   3.338   0.575
  617SOL     OW 1870   0.351   3.663   0.853
  617SOL    HW1 1871   0.401   3.577   0.859
  617SOL    HW2 1872   0.416   3.740   0.850
  618SOL     OW 1873   1.795   2.928   0.873
  618SOL    HW1 1874   1.733   2.913   0.797
  618SOL    HW2 1875   1.743   2.939   0.958
  619SOL     OW 1876   1.227   3.412   1.506
  619SOL    HW1 1877   1.233   3.335   1.570
  619SOL    HW2 1878   1.175   3.386   1.426
  620SOL     OW 1879   0.321   2.805   0.242
  620SOL    HW1 1880   0.403   2.844   0.200
  620SOL    HW2 1881   0.294   2.723   0.193
  621SOL     OW 1882   1.458   2.597   0.728
  621SOL    HW1 1883   1.453   2.532   0.803
  621SOL    HW2 1884   1.538   2.656   0.741
  622SOL     OW 1885   0.461   3.128   1.727
  622SOL    HW1 1886   0.411   3.129   1.641
  622SOL    HW2 1887   0.398   3.110   1.803
  623SOL     OW 1888   1.111   3.638   0.237
  623SOL    HW1 1889   1.051   3.576   0.287
  623SOL    HW2 1890   1.142   3.594   0.152
  624SOL     OW 1891   0.202   2.147   1.498
  624SOL    HW1 1892   0.122   2.207   1.485
  624SOL    HW2 1893   0.192   2.098   1.584
  625SOL     OW 1894   1.632   3.239   0.081
  625SOL    HW1 1895   1.600   3.333   0.071
  625SOL    HW2 1896   1.556   3.176   0.069
  626SOL     OW 1897   0.464   3.605   0.323
  626SOL    HW1 1898   0.497   3.644   0.409
  626SOL    HW2 1899   0.540   3.598   0.258
  627SOL     OW 1900   1.400   1.969   0.426
  627SOL    HW1 1901   1.376   1.932   0.336
  627SOL    HW2 1902   1.499   1.985   0.430
  628SOL     OW 1903   0.249   3.647   1.241
  628SOL    HW1 1904   0.306   3.582   1.291
  628SOL    HW2 1905   0.233   3.614   1.148
  629SOL     OW 1906   0.940   3.560   0.904
  629SOL    HW1 1907   1.020   3.503   0.925
  629SOL    HW2 1908   0.891   3.520   0.827
  630SOL     OW 1909   0.382   2.562   0.480
  630SOL    HW1 1910   0.427   2.472   0.477
  630SOL    HW2 1911   0.288   2.551   0.513
  631SOL     OW 1912   1.547   2.084   1.729
  631SOL    HW1 1913   1.542   2.121   1.821
  631SOL    HW2 1914   1.475   2.015   1.717
  632SOL     OW 1915   0.614   1.984   0.117
  632SOL    HW1 1916   0.712   1.962   0.124
  632SOL    HW2 1917   0.583   1.967   0.024
  633SOL     OW 1918   0.781   2.126   1.749
  633SOL    HW1 1919   0.848   2.065   1.792
  633SOL    HW2 1920   0.708   2.145   1.814
  634SOL     OW 1921   0.888   3.376   1.195
  634SOL    HW1 1922   0.865   3.351   1.101
  634SOL    HW2 1923   0.949   3.307   1.234
  635SOL     OW 1924   1.351   2.452   1.433
  635SOL    HW1 1925   1.379   2.409   1.518
  635SOL    HW2 1926   1.376   2.548   1.434
  636SOL     OW 1927   0.803   3.264   0.924
  636SOL    HW1 1928   0.893   3.278   0.882
  636SOL    HW2 1929   0.732   3.266   0.853
  637SOL     OW 1930   0.922   2.365   0.899
  637SOL    HW1 1931   0.897   2.356   0.803
  637SOL    HW2 1932   0.970   2.283   0.930
  638SOL     OW 1933   0.539   1.926   0.512
  638SOL    HW1 1934   0.458   1.927   0.570
  638SOL    HW2 1935   0.542   2.009   0.457
  639SOL     OW 1936   1.434   3.050   0.041
  639SOL    HW1 1937   1.466   2.974   0.098
  639SOL    HW2 1938   1.342   3.077   0.071
  640SOL     OW 1939   0.297   1.897   0.171
  640SOL    HW1 1940   0.346   1.981   0.150
  640SOL    HW2 1941   0.359   1.832   0.216
  641SOL     OW 1942   0.935   2.098   0.480
  641SOL    HW1 1943   0.887   2.139   0.402
  641SOL    HW2 1944   1.034   2.096   0.461
  642SOL     OW 1945   1.076   2.545   1.464
  642SOL    HW1 1946   0.996   2.484   1.467
  642SOL    HW2 1947   1.157   2.492   1.440
  643SOL     OW 1948   1.227   3.432   0.793
  643SOL    HW1 1949   1.248   3.506   0.728
  643SOL    HW2 1950   1.295   3.432   0.866
  644SOL     OW 1951   0.459   3.014   0.741
  644SOL    HW1 1952   0.388   2.987   0.806
  644SOL    HW2 1953   0.433   2.986   0.648
  645SOL     OW 1954   1.271   3.659   0.591
  645SOL    HW1 1955   1.315   3.723   0.527
  645SOL    HW2 1956   1.221   3.711   0.661
  646SOL     OW 1957   1.032   2.411   0.016
  646SOL    HW1 1958   0.991   2.493  -0.023
  646SOL    HW2 1959   1.096   2.437   0.089
  647SOL     OW 1960   0.078   2.418   1.386
  647SOL    HW1 1961   0.170   2.417   1.345
  647SOL    HW2 1962   0.072   2.492   1.453
  648SOL     OW 1963   0.561   2.084   1.147
  648SOL    HW1 1964   0.599   2.000   1.184
  648SOL    HW2 1965   0.473   2.103   1.191
  649SOL     OW 1966   0.866   2.316   0.642
  649SOL    HW1 1967   0.834   2.388   0.580
  649SOL    HW2 1968   0.890   2.235   0.589
  650SOL     OW 1969   1.017   1.901   0.753
  650SOL    HW1 1970   0.945   1.906   0.684
  650SOL    HW2 1971   0.993   1.832   0.822
  651SOL     OW 1972   1.429   3.035   0.867
  651SOL    HW1 1973   1.374   2.951   0.860
  651SOL    HW2 1974   1.455   3.064   0.775
  652SOL     OW 1975   1.466   2.452   0.992
  652SOL    HW1 1976   1.436   2.357   0.999
  652SOL    HW2 1977   1.539   2.468   1.058
  653SOL     OW 1978   1.857   2.695   0.377
  653SOL    HW1 1979   1.899   2.631   0.441
  653SOL    HW2 1980   1.819   2.644   0.299
  654SOL     OW 1981   0.488   3.247   0.174
  654SOL    HW1 1982   0.401   3.232   0.221
  654SOL    HW2 1983   0.471   3.273   0.079
  655SOL     OW 1984   1.664   3.142   0.657
  655SOL    HW1 1985   1.763   3.150   0.671
  655SOL    HW2 1986   1.619   3.226   0.688
  656SOL     OW 1987   1.390   2.437   0.078
  656SOL    HW1 1988   1.336   2.416   0.159
  656SOL    HW2 1989   1.481   2.396   0.087
  657SOL     OW 1990   0.527   2.118   0.328
  657SOL    HW1 1991   0.554   2.059   0.253
  657SOL    HW2 1992   0.527   2.213   0.297
  658SOL     OW 1993   1.754   3.085   1.588
  658SOL    HW1 1994   1.845   3.046   1.575
  658SOL    HW2 1995   1.762   3.181   1.612
  659SOL     OW 1996   1.064   3.209   1.340
  659SOL    HW1 1997   0.984   3.186   1.395
  659SOL    HW2 1998   1.147   3.183   1.389
  660SOL     OW 1999   1.592   3.491   1.625
  660SOL    HW1 2000   1.619   3.525   1.535
  660SOL    HW2 2001   1.671   3.453   1.671
  661SOL     OW 2002   1.111   3.057   1.100
  661SOL    HW1 2003   1.071   3.101   1.181
  661SOL    HW2 2004   1.070   3.094   1.017
  662SOL     OW 2005   1.638   2.961   1.079
  662SOL    HW1 2006   1.643   3.042   1.138
  662SOL    HW2 2007   1.552   2.963   1.028
  663SOL     OW 2008   0.915   1.951   1.402
  663SOL    HW1 2009   0.940   1.931   1.307
  663SOL    HW2 2010   0.987   2.007   1.444
  664SOL     OW 2011   0.980   2.978   1.719
  664SOL    HW1 2012   0.881   2.984   1.729
  664SOL    HW2 2013   1.003   2.898   1.663
  665SOL     OW 2014   0.705   2.912   0.368
  665SOL    HW1 2015   0.691   2.919   0.467
  665SOL    HW2 2016   0.789   2.861   0.350
  666SOL     OW 2017   0.410   2.675   1.251
  666SOL    HW1 2018   0.496   2.687   1.301
  666SOL    HW2 2019   0.368   2.588   1.278
  667SOL     OW 2020   1.274   2.248   1.262
  667SOL    HW1 2021   1.295   2.322   1.326
  667SOL    HW2 2022   1.185   2.265   1.219
  668SOL     OW 2023   0.064   3.426   1.331
  668SOL    HW1 2024   0.018   3.508   1.297
  668SOL    HW2 2025   0.162   3.445   1.340
  669SOL     OW 2026   0.367   2.962   0.501
  669SOL    HW1 2027   0.360   3.045   0.445
  669SOL    HW2 2028   0.371   2.882   0.441
  670SOL     OW 2029   0.566   2.399   0.865
  670SOL    HW1 2030   0.578   2.465   0.791
  670SOL    HW2 2031   0.612   2.433   0.948
  671SOL     OW 2032   1.252   3.210   0.388
  671SOL    HW1 2033   1.302   3.287   0.428
  671SOL    HW2 2034   1.157   3.212   0.420
  672SOL     OW 2035   1.272   3.307   1.142
  672SOL    HW1 2036   1.319   3.320   1.229
  672SOL    HW2 2037   1.206   3.233   1.151
  673SOL     OW 2038   1.582   2.501   0.472
  673SOL    HW1 2039   1.551   2.562   0.545
  673SOL    HW2 2040   1.632   2.553   0.403
  674SOL     OW 2041   0.354   3.372   1.329
  674SOL    HW1 2042   0.333   3.328   1.242
  674SOL    HW2 2043   0.451   3.398   1.332
  675SOL     OW 2044   0.402   2.613   1.598
  675SOL    HW1 2045   0.470   2.668   1.551
  675SOL    HW2 2046   0.442   2.525   1.625
  676SOL     OW 2047   1.587   2.641   1.670
  676SOL    HW1 2048   1.495   2.679   1.665
  676SOL    HW2 2049   1.647   2.688   1.605
  677SOL     OW 2050   1.013   1.967   1.770
  677SOL    HW1 2051   1.019   2.052   1.718
  677SOL    HW2 2052   1.045   1.891   1.713
  678SOL     OW 2053   0.504   1.912   1.740
  678SOL    HW1 2054   0.462   1.855   1.670
  678SOL    HW2 2055   0.438   1.981   1.772
  679SOL     OW 2056   0.573   2.732   1.029
  679SOL    HW1 2057   0.617   2.821   1.020
  679SOL    HW2 2058   0.510   2.732   1.106
  680SOL     OW 2059   1.360   2.724   1.045
  680SOL    HW1 2060   1.285   2.724   0.979
  680SOL    HW2 2061   1.397   2.632   1.054
  681SOL     OW 2062   1.209   2.387   0.275
  681SOL    HW1 2063   1.222   2.303   0.329
  681SOL    HW2 2064   1.180   2.461   0.335
  682SOL     OW 2065   0.307   2.075   1.231
  682SOL    HW1 2066   0.284   2.112   1.321
  682SOL    HW2 2067   0.277   1.980   1.225
  683SOL     OW 2068   0.037   3.172   1.282
  683SOL    HW1 2069   0.090   3.123   1.350
  683SOL    HW2 2070   0.059   3.270   1.287
  684SOL     OW 2071   0.732   2.496   1.064
  684SOL    HW1 2072   0.791   2.470   0.988
  684SOL    HW2 2073   0.704   2.592   1.053
  685SOL     OW 2074   1.728   2.797   1.854
  685SOL    HW1 2075   1.682   2.790   1.765
  685SOL    HW2 2076   1.666   2.841   1.920
  686SOL     OW 2077   0.307   1.925   0.618
  686SOL    HW1 2078   0.296   2.019   0.651
  686SOL    HW2 2079   0.302   1.862   0.695
  687SOL     OW 2080   1.622   2.229   0.374
  687SOL    HW1 2081   1.624   2.153   0.438
  687SOL    HW2 2082   1.574   2.306   0.414
  688SOL     OW 2083   1.023   2.628   0.966
  688SOL    HW1 2084   1.038   2.649   1.062
  688SOL    HW2 2085   0.993   2.533   0.957
  689SOL     OW 2086   0.980   3.435   1.700
  689SOL    HW1 2087   0.960   3.479   1.612
  689SOL    HW2 2088   1.019   3.344   1.684
  690SOL     OW 2089   1.859   3.380   1.605
  690SOL    HW1 2090   1.873   3.407   1.510
  690SOL    HW2 2091   1.942   3.402   1.658
  691SOL     OW 2092   0.350   2.760   1.804
  691SOL    HW1 2093   0.426   2.804   1.852
  691SOL    HW2 2094   0.385   2.713   1.722
  692SOL     OW 2095   1.540   2.136   0.125
  692SOL    HW1 2096   1.479   2.061   0.148
  692SOL    HW2 2097   1.562   2.188   0.208
  693SOL     OW 2098   1.303   2.700   0.042
  693SOL    HW1 2099   1.337   2.607   0.057
  693SOL    HW2 2100   1.321   2.727  -0.053
  694SOL     OW 2101   1.068   3.195   0.849
  694SOL    HW1 2102   1.075   3.111   0.794
  694SOL    HW2 2103   1.130   3.264   0.813
  695SOL     OW 2104   0.319   2.672   0.949
  695SOL    HW1 2105   0.412   2.708   0.954
  695SOL    HW2 2106   0.313   2.587   1.001
  696SOL     OW 2107   0.339   2.371   1.006
  696SOL    HW1 2108   0.287   2.288   0.989
  696SOL    HW2 2109   0.416   2.376   0.942
  697SOL     OW 2110   1.138   2.242   1.678
  697SOL    HW1 2111   1.093   2.305   1.742
  697SOL    HW2 2112   1.231   2.273   1.661
  698SOL     OW 2113   1.160   2.069   1.477
  698SOL    HW1 2114   1.160   2.133   1.554
  698SOL    HW2 2115   1.188   2.117   1.394
  699SOL     OW 2116   0.008   3.188   0.200
  699SOL    HW1 2117  -0.085   3.209   0.169
  699SOL    HW2 2118   0.018   3.089   0.213
  700SOL     OW 2119   0.088   3.663   0.927
  700SOL    HW1 2120   0.046   3.577   0.900
  700SOL    HW2 2121   0.182   3.666   0.893
  701SOL     OW 2122   0.504   3.430   0.910
  701SOL    HW1 2123   0.570   3.504   0.919
  701SOL    HW2 2124   0.548   3.351   0.868
  702SOL     OW 2125   1.002   2.658   1.238
  702SOL    HW1 2126   1.043   2.626   1.324
  702SOL    HW2 2127   0.906   2.631   1.235
  703SOL     OW 2128   0.040   2.406   1.114
  703SOL    HW1 2129   0.125   2.373   1.073
  703SOL    HW2 2130   0.053   2.421   1.212
  704SOL     OW 2131   0.189   2.382   1.722
  704SOL    HW1 2132   0.248   2.342   1.652
  704SOL    HW2 2133   0.131   2.453   1.681
  705SOL     OW 2134   1.369   2.812   1.660
  705SOL    HW1 2135   1.408   2.901   1.680
  705SOL    HW2 2136   1.379   2.792   1.563
  706SOL     OW 2137   0.815   2.434   0.325
  706SOL    HW1 2138   0.822   2.345   0.279
  706SOL    HW2 2139   0.721   2.468   0.317
  707SOL     OW 2140   1.657   2.466   1.206
  707SOL    HW1 2141   1.619   2.397   1.268
  707SOL    HW2 2142   1.739   2.430   1.162
  708SOL     OW 2143   0.252   3.426   1.744
  708SOL    HW1 2144   0.222   3.483   1.820
  708SOL    HW2 2145   0.245   3.329   1.770
  709SOL     OW 2146   0.671   2.326   1.269
  709SOL    HW1 2147   0.637   2.237   1.239
  709SOL    HW2 2148   0.697   2.380   1.189
  710SOL     OW 2149   0.930   3.540   1.465
  710SOL    HW1 2150   0.906   3.522   1.370
  710SOL    HW2 2151   0.960   3.634   1.475
  711SOL     OW 2152   0.473   2.362   0.191
  711SOL    HW1 2153   0.534   2.442   0.195
  711SOL    HW2 2154   0.378   2.393   0.198
  712SOL     OW 2155   0.159   2.999   1.466
  712SOL    HW1 2156   0.181   2.938   1.542
  712SOL    HW2 2157   0.169   2.950   1.380
  713SOL     OW 2158   1.347   2.921   1.234
  713SOL    HW1 2159   1.371   2.858   1.160
  713SOL    HW2 2160   1.257   2.961   1.216
  714SOL     OW 2161   1.302   2.717   0.309
  714SOL    HW1 2162   1.216   2.686   0.351
  714SOL    HW2 2163   1.298   2.703   0.210
  715SOL     OW 2164   1.759   3.609   1.154
  715SOL    HW1 2165   1.820   3.639   1.081
  715SOL    HW2 2166   1.721   3.520   1.132
  716SOL     OW 2167   1.252   3.593   1.128
  716SOL    HW1 2168   1.336   3.598   1.074
  716SOL    HW2 2169   1.229   3.497   1.146
  717SOL     OW 2170   0.083   3.120   1.022
  717SOL    HW1 2171   0.078   3.119   1.122
  717SOL    HW2 2172   0.000   3.079   0.984
  718SOL     OW 2173   0.688   3.524   1.716
  718SOL    HW1 2174   0.632   3.605   1.725
  718SOL    HW2 2175   0.740   3.528   1.630
  719SOL     OW 2176   0.903   1.948   0.133
  719SOL    HW1 2177   0.954   1.949   0.047
  719SOL    HW2 2178   0.959   1.906   0.204
  720SOL     OW 2179   1.726   1.997   0.523
  720SOL    HW1 2180   1.799   1.980   0.456
  720SOL    HW2 2181   1.695   1.910   0.561
  721SOL     OW 2182   1.388   3.435   0.477
  721SOL    HW1 2183   1.455   3.447   0.403
  721SOL    HW2 2184   1.348   3.524   0.500
  722SOL     OW 2185   0.130   3.656   1.851
  722SOL    HW1 2186   0.089   3.582   1.904
  722SOL    HW2 2187   0.194   3.707   1.909
  723SOL     OW 2188   1.280   2.789   0.672
  723SOL    HW1 2189   1.340   2.708   0.674
  723SOL    HW2 2190   1.320   2.858   0.612
  724SOL     OW 2191   0.830   3.135   1.422
  724SOL    HW1 2192   0.825   3.168   1.517
  724SOL    HW2 2193   0.744   3.154   1.376
  725SOL     OW 2194   0.672   3.478   0.154
  725SOL    HW1 2195   0.681   3.488   0.055
  725SOL    HW2 2196   0.632   3.389   0.175
  726SOL     OW 2197   1.650   3.582   1.394
  726SOL    HW1 2198   1.703   3.592   1.310
  726SOL    HW2 2199   1.623   3.672   1.428
  727SOL     OW 2200   1.841   2.037   0.963
  727SOL    HW1 2201   1.880   1.952   0.927
  727SOL    HW2 2202   1.743   2.039   0.944
  728SOL     OW 2203   0.263   2.188   0.720
  728SOL    HW1 2204   0.184   2.239   0.686
  728SOL    HW2 2205   0.254   2.173   0.818
  729SOL     OW 2206   1.194   3.474   0.031
  729SOL    HW1 2207   1.200   3.381   0.068
  729SOL    HW2 2208   1.135   3.474  -0.049
  730SOL     OW 2209   0.822   2.864   1.372
  730SOL    HW1 2210   0.862   2.863   1.280
  730SOL    HW2 2211   0.832   2.956   1.412
  731SOL     OW 2212   0.916   2.772   0.291
  731SOL    HW1 2213   0.979   2.810   0.223
  731SOL    HW2 2214   0.956   2.689   0.330
  732SOL     OW 2215   1.504   3.469   0.044
  732SOL    HW1 2216   1.412   3.506   0.051
  732SOL    HW2 2217   1.542   3.489  -0.046
  733SOL     OW 2218   0.372   3.150   1.490
  733SOL    HW1 2219   0.359   3.243   1.456
  733SOL    HW2 2220   0.288   3.098   1.477
  734SOL     OW 2221   1.614   3.154   1.289
  734SOL    HW1 2222   1.674   3.157   1.369
  734SOL    HW2 2223   1.539   3.218   1.302
  735SOL     OW 2224   1.039   2.960   0.696
  735SOL    HW1 2225   0.969   2.913   0.750
  735SOL    HW2 2226   1.098   2.892   0.653
  736SOL     OW 2227   1.014   2.098   0.971
  736SOL    HW1 2228   1.006   2.062   0.878
  736SOL    HW2 2229   1.012   2.022   1.036
  737SOL     OW 2230   0.590   3.349   0.491
  737SOL    HW1 2231   0.632   3.291   0.421
  737SOL    HW2 2232   0.546   3.428   0.447
  738SOL     OW 2233   1.709   2.247   1.381
  738SOL    HW1 2234   1.782   2.316   1.385
  738SOL    HW2 2235   1.737   2.172   1.322
  739SOL     OW 2236   0.255   3.210   0.290
  739SOL    HW1 2237   0.159   3.211   0.263
  739SOL    HW2 2238   0.267   3.263   0.374
  740SOL     OW 2239   0.105   2.875   1.726
  740SOL    HW1 2240   0.028   2.842   1.780
  740SOL    HW2 2241   0.190   2.845   1.768
  741SOL     OW 2242   0.672   2.065   1.489
  741SOL    HW1 2243   0.762   2.049   1.449
  741SOL    HW2 2244   0.680   2.070   1.588
  742SOL     OW 2245   0.075   2.207   0.033
  742SOL    HW1 2246  -0.017   2.179   0.004
  742SOL    HW2 2247   0.106   2.284  -0.023
  743SOL     OW 2248   1.440   2.718   1.398
  743SOL    HW1 2249   1.383   2.770   1.335
  743SOL    HW2 2250   1.536   2.730   1.374
  744SOL     OW 2251   0.072   2.028   0.318
  744SOL    HW1 2252   0.055   2.111   0.264
  744SOL    HW2 2253   0.162   1.991   0.296
  745SOL     OW 2254   1.183   3.197   0.119
  745SOL    HW1 2255   1.084   3.186   0.121
  745SOL    HW2 2256   1.217   3.212   0.212
  746SOL     OW 2257   0.613   2.704   1.431
  746SOL    HW1 2258   0.669   2.785   1.414
  746SOL    HW2 2259   0.672   2.624   1.434
  747SOL     OW 2260   1.493   3.629   0.959
  747SOL    HW1 2261   1.526   3.693   0.890
  747SOL    HW2 2262   1.559   3.623   1.034
  748SOL     OW 2263   0.716   2.427   1.708
  748SOL    HW1 2264   0.735   2.492   1.782
  748SOL    HW2 2265   0.776   2.347   1.717
  749SOL     OW 2266   1.450   3.082   1.633
  749SOL    HW1 2267   1.441   3.072   1.732
  749SOL    HW2 2268   1.546   3.075   1.607
  750SOL     OW 2269   0.390   3.603   1.560
  750SOL    HW1 2270   0.299   3.644   1.558
  750SOL    HW2 2271   0.383   3.509   1.592
  751SOL     OW 2272   1.674   2.745   1.254
  751SOL    HW1 2273   1.647   2.656   1.217
  751SOL    HW2 2274   1.675   2.813   1.181
  752SOL     OW 2275   1.225   2.187   0.449
  752SOL    HW1 2276   1.290   2.113   0.438
  752SOL    HW2 2277   1.245   2.237   0.533
  753SOL     OW 2278   0.594   2.607   0.652
  753SOL    HW1 2279   0.644   2.692   0.633
  753SOL    HW2 2280   0.506   2.609   0.604
  754SOL     OW 2281   1.777   2.204   1.642
  754SOL    HW1 2282   1.760   2.235   1.548
  754SOL    HW2 2283   1.693   2.167   1.680
  755SOL     OW 2284   1.730   2.796   1.517
  755SOL    HW1 2285   1.768   2.887   1.532
  755SOL    HW2 2286   1.722   2.779   1.418
  756SOL     OW 2287   0.859   3.236   0.016
  756SOL    HW1 2288   0.813   3.251   0.104
  756SOL    HW2 2289   0.903   3.321  -0.014
  757SOL     OW 2290   0.661   3.652   0.953
  757SOL    HW1 2291   0.615   3.740   0.940
  757SOL    HW2 2292   0.760   3.664   0.946
  758SOL     OW 2293   0.859   2.818   0.861
  758SOL    HW1 2294   0.913   2.749   0.909
  758SOL    HW2 2295   0.827   2.887   0.927
  759SOL     OW 2296   1.083   2.846   0.087
  759SOL    HW1 2297   1.060   2.899   0.005
  759SOL    HW2 2298   1.164   2.790   0.068
  760SOL     OW 2299   1.861   3.431   0.851
  760SOL    HW1 2300   1.790   3.419   0.781
  760SOL    HW2 2301   1.862   3.352   0.911
  761SOL     OW 2302   0.221   3.176   1.844
  761SOL    HW1 2303   0.156   3.103   1.823
  761SOL    HW2 2304   0.225   3.190   1.942
  762SOL     OW 2305   0.079   3.102   0.653
  762SOL    HW1 2306   0.078   3.055   0.741
  762SOL    HW2 2307   0.161   3.074   0.602
  763SOL     OW 2308   0.672   3.253   1.624
  763SOL    HW1 2309   0.594   3.203   1.662
  763SOL    HW2 2310   0.669   3.348   1.655
  764SOL     OW 2311   1.824   2.054   1.227
  764SOL    HW1 2312   1.820   1.964   1.271
  764SOL    HW2 2313   1.827   2.043   1.128
  765SOL     OW 2314   0.428   2.286   0.520
  765SOL    HW1 2315   0.458   2.214   0.458
  765SOL    HW2 2316   0.389   2.246   0.603
  766SOL     OW 2317   1.705   3.349   1.104
  766SOL    HW1 2318   1.612   3.324   1.077
  766SOL    HW2 2319   1.731   3.299   1.186
  767SOL     OW 2320   0.317   2.409   1.280
  767SOL    HW1 2321   0.355   2.350   1.352
  767SOL    HW2 2322   0.357   2.383   1.192
  768SOL     OW 2323   0.812   3.448   0.687
  768SOL    HW1 2324   0.844   3.458   0.593
  768SOL    HW2 2325   0.733   3.386   0.689
  769SOL     OW 2326   1.424   2.076   1.112
  769SOL    HW1 2327   1.476   2.011   1.167
  769SOL    HW2 2328   1.375   2.139   1.173
  770SOL     OW 2329   1.001   1.896   1.154
  770SOL    HW1 2330   0.938   1.824   1.123
  770SOL    HW2 2331   1.094   1.860   1.154
  771SOL     OW 2332   0.770   3.192   0.301
  771SOL    HW1 2333   0.724   3.105   0.318
  771SOL    HW2 2334   0.861   3.189   0.342
  772SOL     OW 2335   0.618   3.429   1.284
  772SOL    HW1 2336   0.613   3.511   1.341
  772SOL    HW2 2337   0.707   3.426   1.239
  773SOL     OW 2338   1.352   1.914   0.168
  773SOL    HW1 2339   1.387   1.873   0.084
  773SOL    HW2 2340   1.262   1.876   0.188
  774SOL     OW 2341   1.300   2.315   0.691
  774SOL    HW1 2342   1.241   2.395   0.695
  774SOL    HW2 2343   1.315   2.280   0.784
  775SOL     OW 2344   1.593   2.083   0.882
  775SOL    HW1 2345   1.509   2.082   0.936
  775SOL    HW2 2346   1.595   2.166   0.826
  776SOL     OW 2347   0.039   2.939   0.300
  776SOL    HW1 2348   0.138   2.928   0.291
  776SOL    HW2 2349  -0.001   2.853   0.332
  777SOL     OW 2350   0.875   3.508   0.337
  777SOL    HW1 2351   0.798   3.473   0.283
  777SOL    HW2 2352   0.843   3.579   0.399
  778SOL     OW 2353   0.230   2.490   1.975
  778SOL    HW1 2354   0.137   2.488   2.012
  778SOL    HW2 2355   0.231   2.451   1.883
  779SOL     OW 2356   0.225   2.137   2.858
  779SOL    HW1 2357   0.260   2.120   2.950
  779SOL    HW2 2358   0.137   2.092   2.846
  780SOL     OW 2359   0.019   2.230   2.509
  780SOL    HW1 2360  -0.063   2.273   2.548
  780SOL    HW2 2361  -0.009   2.157   2.446
  781SOL     OW 2362   0.569   3.137   3.027
  781SOL    HW1 2363   0.476   3.130   2.990
  781SOL    HW2 2364   0.580   3.226   3.071
  782SOL     OW 2365   1.555   3.373   2.565
  782SOL    HW1 2366   1.498   3.357   2.646
  782SOL    HW2 2367   1.496   3.383   2.485
  783SOL     OW 2368   1.135   2.565   2.579
  783SOL    HW1 2369   1.192   2.643   2.554
  783SOL    HW2 2370   1.075   2.591   2.655
  784SOL     OW 2371   1.755   2.469   2.093
  784SOL    HW1 2372   1.743   2.456   1.994
  784SOL    HW2 2373   1.725   2.388   2.142
  785SOL     OW 2374   0.768   3.006   2.885
  785SOL    HW1 2375   0.690   3.023   2.945
  785SOL    HW2 2376   0.802   3.093   2.849
  786SOL     OW 2377   0.850   2.660   3.685
  786SOL    HW1 2378   0.846   2.736   3.750
  786SOL    HW2 2379   0.872   2.696   3.594
  787SOL     OW 2380   0.685   2.874   2.527
  787SOL    HW1 2381   0.754   2.858   2.597
  787SOL    HW2 2382   0.612   2.931   2.565
  788SOL     OW 2383   0.686   3.023   3.665
  788SOL    HW1 2384   0.746   3.102   3.679
  788SOL    HW2 2385   0.600   3.054   3.624
  789SOL     OW 2386   0.335   3.297   2.923
  789SOL    HW1 2387   0.257   3.266   2.870
  789SOL    HW2 2388   0.393   3.355   2.866
  790SOL     OW 2389   1.460   3.367   3.201
  790SOL    HW1 2390   1.484   3.461   3.227
  790SOL    HW2 2391   1.444   3.313   3.283
  791SOL     OW 2392   0.438   2.254   3.361
  791SOL    HW1 2393   0.520   2.198   3.370
  791SOL    HW2 2394   0.357   2.196   3.365
  792SOL     OW 2395   1.603   2.309   2.599
  792SOL    HW1 2396   1.529   2.355   2.549
  792SOL    HW2 2397   1.654   2.377   2.652
  793SOL     OW 2398   0.231   3.575   2.345
  793SOL    HW1 2399   0.265   3.652   2.399
  793SOL    HW2 2400   0.275   3.575   2.255
  794SOL     OW 2401   1.127   3.203   3.552
  794SOL    HW1 2402   1.174   3.203   3.640
  794SOL    HW2 2403   1.079   3.116   3.541
  795SOL     OW 2404   0.230   3.296   2.400
  795SOL    HW1 2405   0.204   3.392   2.400
  795SOL    HW2 2406   0.159   3.242   2.445
  796SOL     OW 2407   0.240   2.953   2.748
  796SOL    HW1 2408   0.254   2.869   2.800
  796SOL    HW2 2409   0.185   3.017   2.803
  797SOL     OW 2410   0.620   3.648   3.301
  797SOL    HW1 2411   0.528   3.631   3.336
  797SOL    HW2 2412   0.648   3.740   3.327
  798SOL     OW 2413   0.606   2.826   1.985
  798SOL    HW1 2414   0.613   2.910   1.931
  798SOL    HW2 2415   0.652   2.839   2.073
  799SOL     OW 2416   1.594   1.976   3.342
  799SOL    HW1 2417   1.576   2.043   3.270
  799SOL    HW2 2418   1.591   2.022   3.431
  800SOL     OW 2419   0.122   2.505   2.425
  800SOL    HW1 2420   0.077   2.417   2.442
  800SOL    HW2 2421   0.121   2.559   2.509
  801SOL     OW 2422   1.842   3.629   2.221
  801SOL    HW1 2423   1.896   3.600   2.301
  801SOL    HW2 2424   1.872   3.719   2.192
  802SOL     OW 2425   0.027   3.458   1.979
  802SOL    HW1 2426   0.008   3.362   2.000
  802SOL    HW2 2427  -0.006   3.516   2.054
  803SOL     OW 2428   1.689   2.784   2.474
  803SOL    HW1 2429   1.784   2.755   2.482
  803SOL    HW2 2430   1.681   2.849   2.399
  804SOL     OW 2431   1.641   2.970   2.294
  804SOL    HW1 2432   1.727   2.972   2.242
  804SOL    HW2 2433   1.655   3.017   2.382
  805SOL     OW 2434   0.113   2.599   3.459
  805SOL    HW1 2435   0.201   2.586   3.504
  805SOL    HW2 2436   0.100   2.696   3.437
  806SOL     OW 2437   0.613   3.227   2.588
  806SOL    HW1 2438   0.564   3.140   2.597
  806SOL    HW2 2439   0.590   3.270   2.501
  807SOL     OW 2440   1.293   3.090   3.285
  807SOL    HW1 2441   1.330   3.017   3.227
  807SOL    HW2 2442   1.345   3.095   3.370
  808SOL     OW 2443   0.809   1.866   2.364
  808SOL    HW1 2444   0.849   1.957   2.355
  808SOL    HW2 2445   0.709   1.874   2.370
  809SOL     OW 2446   0.197   2.838   3.126
  809SOL    HW1 2447   0.286   2.793   3.112
  809SOL    HW2 2448   0.124   2.773   3.107
  810SOL     OW 2449   1.525   2.861   2.052
  810SOL    HW1 2450   1.462   2.785   2.065
  810SOL    HW2 2451   1.573   2.879   2.138
  811SOL     OW 2452   1.187   3.654   3.478
  811SOL    HW1 2453   1.211   3.714   3.402
  811SOL    HW2 2454   1.194   3.559   3.448
  812SOL     OW 2455   0.317   2.113   3.663
  812SOL    HW1 2456   0.388   2.184   3.669
  812SOL    HW2 2457   0.229   2.152   3.691
  813SOL     OW 2458   1.466   3.279   2.815
  813SOL    HW1 2459   1.407   3.285   2.895
  813SOL    HW2 2460   1.451   3.191   2.769
  814SOL     OW 2461   1.667   3.576   2.434
  814SOL    HW1 2462   1.626   3.553   2.346
  814SOL    HW2 2463   1.649   3.502   2.499
  815SOL     OW 2464   0.598   2.591   2.132
  815SOL    HW1 2465   0.622   2.660   2.064
  815SOL    HW2 2466   0.520   2.624   2.186
  816SOL     OW 2467   1.281   2.207   2.806
  816SOL    HW1 2468   1.195   2.157   2.793
  816SOL    HW2 2469   1.343   2.153   2.862
  817SOL     OW 2470   1.576   3.524   2.169
  817SOL    HW1 2471   1.665   3.570   2.172
  817SOL    HW2 2472   1.555   3.500   2.074
  818SOL     OW 2473   0.807   2.467   3.327
  818SOL    HW1 2474   0.760   2.464   3.416
  818SOL    HW2 2475   0.756   2.412   3.261
  819SOL     OW 2476   1.394   2.331   3.536
  819SOL    HW1 2477   1.374   2.374   3.624
  819SOL    HW2 2478   1.472   2.269   3.545
  820SOL     OW 2479   0.973   2.752   3.434
  820SOL    HW1 2480   1.019   2.668   3.405
  820SOL    HW2 2481   0.917   2.786   3.359
  821SOL     OW 2482   0.991   2.272   3.104
  821SOL    HW1 2483   0.914   2.306   3.158
  821SOL    HW2 2484   0.957   2.221   3.025
  822SOL     OW 2485   1.041   2.563   2.291
  822SOL    HW1 2486   1.067   2.559   2.387
  822SOL    HW2 2487   0.956   2.512   2.277
  823SOL     OW 2488   0.076   2.673   2.651
  823SOL    HW1 2489   0.175   2.661   2.660
  823SOL    HW2 2490   0.052   2.768   2.672
  824SOL     OW 2491   0.130   3.683   3.433
  824SOL    HW1 2492   0.120   3.668   3.532
  824SOL    HW2 2493   0.044   3.719   3.397
  825SOL     OW 2494   0.865   2.210   2.057
  825SOL    HW1 2495   0.924   2.273   2.008
  825SOL    HW2 2496   0.884   2.116   2.028
  826SOL     OW 2497   1.719   2.447   3.693
  826SOL    HW1 2498   1.693   2.536   3.657
  826SOL    HW2 2499   1.717   2.379   3.620
  827SOL     OW 2500   1.362   3.006   2.407
  827SOL    HW1 2501   1.445   2.977   2.359
  827SOL    HW2 2502   1.313   3.073   2.351
  828SOL     OW 2503   0.550   2.058   2.747
  828SOL    HW1 2504   0.545   2.053   2.847
  828SOL    HW2 2505   0.552   2.154   2.718
  829SOL     OW 2506   1.008   3.318   2.339
  829SOL    HW1 2507   0.962   3.390   2.287
  829SOL    HW2 2508   1.004   3.338   2.437
  830SOL     OW 2509   0.351   3.663   2.715
  830SOL    HW1 2510   0.401   3.577   2.721
  830SOL    HW2 2511   0.416   3.740   2.712
  831SOL     OW 2512   1.795   2.928   2.735
  831SOL    HW1 2513   1.733   2.913   2.659
  831SOL    HW2 2514   1.743   2.939   2.820
  832SOL     OW 2515   1.227   3.412   3.368
  832SOL    HW1 2516   1.233   3.335   3.432
  832SOL    HW2 2517   1.175   3.386   3.288
  833SOL     OW 2518   0.321   2.805   2.104
  833SOL    HW1 2519   0.403   2.844   2.062
  833SOL    HW2 2520   0.294   2.723   2.055
  834SOL     OW 2521   1.458   2.597   2.590
  834SOL    HW1 2522   1.453   2.532   2.665
  834SOL    HW2 2523   1.538   2.656   2.603
  835SOL     OW 2524   0.461   3.128   3.589
  835SOL    HW1 2525   0.411   3.129   3.503
  835SOL    HW2 2526   0.398   3.110   3.665
  836SOL     OW 2527   1.111   3.638   2.099
  836SOL    HW1 2528   1.051   3.576   2.149
  836SOL    HW2 2529   1.142   3.594   2.014
  837SOL     OW 2530   0.202   2.147   3.360
  837SOL    HW1 2531   0.122   2.207   3.347
  837SOL    HW2 2532   0.192   2.098   3.446
  838SOL     OW 2533   1.632   3.239   1.943
  838SOL    HW1 2534   1.600   3.333   1.933
  838SOL    HW2 2535   1.556   3.176   1.931
  839SOL     OW 2536   0.464   3.605   2.185
  839SOL    HW1 2537   0.497   3.644   2.271
  839SOL    HW2 2538   0.540   3.598   2.120
  840SOL     OW 2539   1.400   1.969   2.288
  840SOL    HW1 2540   1.376   1.932   2.198
  840SOL    HW2 2541   1.499   1.985   2.292
  841SOL     OW 2542   0.249   3.647   3.103
  841SOL    HW1 2543   0.306   3.582   3.153
  841SOL    HW2 2544   0.233   3.614   3.010
  842SOL     OW 2545   0.940   3.560   2.766
  842SOL    HW1 2546   1.020   3.503   2.787
  842SOL    HW2 2547   0.891   3.520   2.689
  843SOL     OW 2548   0.382   2.562   2.342
  843SOL    HW1 2549   0.427   2.472   2.339
  843SOL    HW2 2550   0.288   2.551   2.375
  844SOL     OW 2551   1.547   2.084   3.591
  844SOL    HW1 2552   1.542   2.121   3.683
  844SOL    HW2 2553   1.475   2.015   3.579
  845SOL     OW 2554   0.614   1.984   1.979
  845SOL    HW1 2555   0.712   1.962   1.986
  845SOL    HW2 2556   0.583   1.967   1.886
  846SOL     OW 2557   0.781   2.126   3.611
  846SOL    HW1 2558   0.848   2.065   3.654
  846SOL    HW2 2559   0.708   2.145   3.676
  847SOL     OW 2560   0.888   3.376   3.057
  847SOL    HW1 2561   0.865   3.351   2.963
  847SOL    HW2 2562   0.949   3.307   3.096
  848SOL     OW 2563   1.351   2.452   3.295
  848SOL    HW1 2564   1.379   2.409   3.380
  848SOL    HW2 2565   1.376   2.548   3.296
  849SOL     OW 2566   0.803   3.264   2.786
  849SOL    HW1 2567   0.893   3.278   2.744
  849SOL    HW2 2568   0.732   3.266   2.715
  850SOL     OW 2569   0.922   2.365   2.761
  850SOL    HW1 2570   0.897   2.356   2.665
  850SOL    HW2 2571   0.970   2.283   2.792
  851SOL     OW 2572   0.539   1.926   2.374
  851SOL    HW1 2573   0.458   1.927   2.432
  851SOL    HW2 2574   0.542   2.009   2.319
  852SOL     OW 2575   1.434   3.050   1.903
  852SOL    HW1 2576   1.466   2.974   1.960
  852SOL    HW2 2577   1.342   3.077   1.933
  853SOL     OW 2578   0.297   1.897   2.033
  853SOL    HW1 2579   0.346   1.981   2.012
  853SOL    HW2 2580   0.359   1.832   2.078
  854SOL     OW 2581   0.935   2.098   2.342
  854SOL    HW1 2582   0.887   2.139   2.264
  854SOL    HW2 2583   1.034   2.096   2.323
  855SOL     OW 2584   1.076   2.545   3.326
  855SOL    HW1 2585   0.996   2.484   3.329
  855SOL    HW2 2586   1.157   2.492   3.302
  856SOL     OW 2587   1.227   3.432   2.655
  856SOL    HW1 2588   1.248   3.506   2.590
  856SOL    HW2 2589   1.295   3.432   2.728
  857SOL     OW 2590   0.459   3.014   2.603
  857SOL    HW1 2591   0.388   2.987   2.668
  857SOL    HW2 2592   0.433   2.986   2.510
  858SOL     OW 2593   1.271   3.659   2.453
  858SOL    HW1 2594   1.315   3.723   2.389
  858SOL    HW2 2595   1.221   3.711   2.523
  859SOL     OW 2596   1.032   2.411   1.878
  859SOL    HW1 2597   0.991   2.493   1.839
  859SOL    HW2 2598   1.096   2.437   1.951
  860SOL     OW 2599   0.078   2.418   3.248
  860SOL    HW1 2600   0.170   2.417   3.207
  860SOL    HW2 2601   0.072   2.492   3.315
  861SOL     OW 2602   0.561   2.084   3.009
  861SOL    HW1 2603   0.599   2.000   3.046
  861SOL    HW2 2604   0.473   2.103   3.053
  862SOL     OW 2605   0.866   2.316   2.504
  862SOL    HW1 2606   0.834   2.388   2.442
  862SOL    HW2 2607   0.890   2.235   2.451
  863SOL     OW 2608   1.017   1.901   2.615
  863SOL    HW1 2609   0.945   1.906   2.546
  863SOL    HW2 2610   0.993   1.832   2.684
  864SOL     OW 2611   1.429   3.035   2.729
  864SOL    HW1 2612   1.374   2.951   2.722
  864SOL    HW2 2613   1.455   3.064   2.637
  865SOL     OW 2614   1.466   2.452   2.854
  865SOL    HW1 2615   1.436   2.357   2.861
  865SOL    HW2 2616   1.539   2.468   2.920
  866SOL     OW 2617   1.857   2.695   2.239
  866SOL    HW1 2618   1.899   2.631   2.303
  866SOL    HW2 2619   1.819   2.644   2.161
  867SOL     OW 2620   0.488   3.247   2.036
  867SOL    HW1 2621   0.401   3.232   2.083
  867SOL    HW2 2622   0.471   3.273   1.941
  868SOL     OW 2623   1.664   3.142   2.519
  868SOL    HW1 2624   1.763   3.150   2.533
  868SOL    HW2 2625   1.619   3.226   2.550
  869SOL     OW 2626   1.390   2.437   1.940
  869SOL    HW1 2627   1.336   2.416   2.021
  869SOL    HW2 2628   1.481   2.396   1.949
  870SOL     OW 2629   0.527   2.118   2.190
  870SOL    HW1 2630   0.554   2.059   2.115
  870SOL    HW2 2631   0.527   2.213   2.159
  871SOL     OW 2632   1.754   3.085   3.450
  871SOL    HW1 2633   1.845   3.046   3.437
  871SOL    HW2 2634   1.762   3.181   3.474
  872SOL     OW 2635   1.064   3.209   3.202
  872SOL    HW1 2636   0.984   3.186   3.257
  872SOL    HW2 2637   1.147   3.183   3.251
  873SOL     OW 2638   1.592   3.491   3.487
  873SOL    HW1 2639   1.619   3.525   3.397
  873SOL    HW2 2640   1.671   3.453   3.533
  874SOL     OW 2641   1.111   3.057   2.962
  874SOL    HW1 2642   1.071   3.101   3.043
  874SOL    HW2 2643   1.070   3.094   2.879
  875SOL     OW 2644   1.638   2.961   2.941
  875SOL    HW1 2645   1.643   3.042   3.000
  875SOL    HW2 2646   1.552   2.963   2.890
  876SOL     OW 2647   0.915   1.951   3.264
  876SOL    HW1 2648   0.940   1.931   3.169
  876SOL    HW2 2649   0.987   2.007   3.306
  877SOL     OW 2650   0.980   2.978   3.581
  877SOL    HW1 2651   0.881   2.984   3.591
  877SOL    HW2 2652   1.003   2.898   3.525
  878SOL     OW 2653   0.705   2.912   2.230
  878SOL    HW1 2654   0.691   2.919   2.329
  878SOL    HW2 2655   0.789   2.861   2.212
  879SOL     OW 2656   0.410   2.675   3.113
  879SOL    HW1 2657   0.496   2.687   3.163
  879SOL    HW2 2658   0.368   2.588   3.140
  880SOL     OW 2659   1.274   2.248   3.124
  880SOL    HW1 2660   1.295   2.322   3.188
  880SOL    HW2 2661   1.185   2.265   3.081
  881SOL     OW 2662   0.064   3.426   3.193
  881SOL    HW1 2663   0.018   3.508   3.159
  881SOL    HW2 2664   0.162   3.445   3.202
  882SOL     OW 2665   0.367   2.962   2.363
  882SOL    HW1 2666   0.360   3.045   2.307
  882SOL    HW2 2667   0.371   2.882   2.303
  883SOL     OW 2668   0.566   2.399   2.727
  883SOL    HW1 2669   0.578   2.465   2.653
  883SOL    HW2 2670   0.612   2.433   2.810
  884SOL     OW 2671   1.252   3.210   2.250
  884SOL    HW1 2672   1.302   3.287   2.290
  884SOL    HW2 2673   1.157   3.212   2.282
  885SOL     OW 2674   1.272   3.307   3.004
  885SOL    HW1 2675   1.319   3.320   3.091
  885SOL    HW2 2676   1.206   3.233   3.013
  886SOL     OW 2677   1.582   2.501   2.334
  886SOL    HW1 2678   1.551   2.562   2.407
  886SOL    HW2 2679   1.632   2.553   2.265
  887SOL     OW 2680   0.354   3.372   3.191
  887SOL    HW1 2681   0.333   3.328   3.104
  887SOL    HW2 2682   0.451   3.398   3.194
  888SOL     OW 2683   0.402   2.613   3.460
  888SOL    HW1 2684   0.470   2.668   3.413
  888SOL    HW2 2685   0.442   2.525   3.487
  889SOL     OW 2686   1.587   2.641   3.532
  889SOL    HW1 2687   1.495   2.679   3.527
  889SOL    HW2 2688   1.647   2.688   3.467
  890SOL     OW 2689   1.013   1.967   3.632
  890SOL    HW1 2690   1.019   2.052   3.580
  890SOL    HW2 2691   1.045   1.891   3.575
  891SOL     OW 2692   0.504   1.912   3.602
  891SOL    HW1 2693   0.462   1.855   3.532
  891SOL    HW2 2694   0.438   1.981   3.634
  892SOL     OW 2695   0.573   2.732   2.891
  892SOL    HW1 2696   0.617   2.821   2.882
  892SOL    HW2 2697   0.510   2.732   2.968
  893SOL     OW 2698   1.360   2.724   2.907
  893SOL    HW1 2699   1.285   2.724   2.841
  893SOL    HW2 2700   1.397   2.632   2.916
  894SOL     OW 2701   1.209   2.387   2.137
  894SOL    HW1 2702   1.222   2.303   2.191
  894SOL    HW2 2703   1.180   2.461   2.197
  895SOL     OW 2704   0.307   2.075   3.093
  895SOL    HW1 2705   0.284   2.112   3.183
  895SOL    HW2 2706   0.277   1.980   3.087
  896SOL     OW 2707   0.037   3.172   3.144
  896SOL    HW1 2708   0.090   3.123   3.212
  896SOL    HW2 2709   0.059   3.270   3.149
  897SOL     OW 2710   0.732   2.496   2.926
  897SOL    HW1 2711   0.791   2.470   2.850
  897SOL    HW2 2712   0.704   2.592   2.915
  898SOL     OW 2713   1.728   2.797   3.716
  898SOL    HW1 2714   1.682   2.790   3.627
  898SOL    HW2 2715   1.666   2.841   3.782
  899SOL     OW 2716   0.307   1.925   2.480
  899SOL    HW1 2717   0.296   2.019   2.513
  899SOL    HW2 2718   0.302   1.862   2.557
  900SOL     OW 2719   1.622   2.229   2.236
  900SOL    HW1 2720   1.624   2.153   2.300
  900SOL    HW2 2721   1.574   2.306   2.276
  901SOL     OW 2722   1.023   2.628   2.828
  901SOL    HW1 2723   1.038   2.649   2.924
  901SOL    HW2 2724   0.993   2.533   2.819
  902SOL     OW 2725   0.980   3.435   3.562
  902SOL    HW1 2726   0.960   3.479   3.474
  902SOL    HW2 2727   1.019   3.344   3.546
  903SOL     OW 2728   1.859   3.380   3.467
  903SOL    HW1 2729   1.873   3.407   3.372
  903SOL    HW2 2730   1.942   3.402   3.520
  904SOL     OW 2731   0.350   2.760   3.666
  904SOL    HW1 2732   0.426   2.804   3.714
  904SOL    HW2 2733   0.385   2.713   3.584
  905SOL     OW 2734   1.540   2.136   1.987
  905SOL    HW1 2735   1.479   2.061   2.010
  905SOL    HW2 2736   1.562   2.188   2.070
  906SOL     OW 2737   1.303   2.700   1.904
  906SOL    HW1 2738   1.337   2.607   1.919
  906SOL    HW2 2739   1.321   2.727   1.809
  907SOL     OW 2740   1.068   3.195   2.711
  907SOL    HW1 2741   1.075   3.111   2.656
  907SOL    HW2 2742   1.130   3.264   2.675
  908SOL     OW 2743   0.319   2.672   2.811
  908SOL    HW1 2744   0.412   2.708   2.816
  908SOL    HW2 2745   0.313   2.587   2.863
  909SOL     OW 2746   0.339   2.371   2.868
  909SOL    HW1 2747   0.287   2.288   2.851
  909SOL    HW2 2748   0.416   2.376   2.804
  910SOL     OW 2749   1.138   2.242   3.540
  910SOL    HW1 2750   1.093   2.305   3.604
  910SOL    HW2 2751   1.231   2.273   3.523
  911SOL     OW 2752   1.160   2.069   3.339
  911SOL    HW1 2753   1.160   2.133   3.416
  911SOL    HW2 2754   1.188   2.117   3.256
  912SOL     OW 2755   0.008   3.188   2.062
  912SOL    HW1 2756  -0.085   3.209   2.031
  912SOL    HW2 2757   0.018   3.089   2.075
  913SOL     OW 2758   0.088   3.663   2.789
  913SOL    HW1 2759   0.046   3.577   2.762
  913SOL    HW2 2760   0.182   3.666   2.755
  914SOL     OW 2761   0.504   3.430   2.772
  914SOL    HW1 2762   0.570   3.504   2.781
  914SOL    HW2 2763   0.548   3.351   2.730
  915SOL     OW 2764   1.002   2.658   3.100
  915SOL    HW1 2765   1.043   2.626   3.186
  915SOL    HW2 2766   0.906   2.631   3.097
  916SOL     OW 2767   0.040   2.406   2.976
  916SOL    HW1 2768   0.125   2.373   2.935
  916SOL    HW2 2769   0.053   2.421   3.074
  917SOL     OW 2770   0.189   2.382   3.584
  917SOL    HW1 2771   0.248   2.342   3.514
  917SOL    HW2 2772   0.131   2.453   3.543
  918SOL     OW 2773   1.369   2.812   3.522
  918SOL    HW1 2774   1.408   2.901   3.542
  918SOL    HW2 2775   1.379   2.792   3.425
  919SOL     OW 2776   0.815   2.434   2.187
  919SOL    HW1 2777   0.822   2.345   2.141
  919SOL    HW2 2778   0.721   2.468   2.179
  920SOL     OW 2779   1.657   2.466   3.068
  920SOL    HW1 2780   1.619   2.397   3.130
  920SOL    HW2 2781   1.739   2.430   3.024
  921SOL     OW 2782   0.252   3.426   3.606
  921SOL    HW1 2783   0.222   3.483   3.682
  921SOL    HW2 2784   0.245   3.329   3.632
  922SOL     OW 2785   0.671   2.326   3.131
  922SOL    HW1 2786   0.637   2.237   3.101
  922SOL    HW2 2787   0.697   2.380   3.051
  923SOL     OW 2788   0.930   3.540   3.327
  923SOL    HW1 2789   0.906   3.522   3.232
  923SOL    HW2 2790   0.960   3.634   3.337
  924SOL     OW 2791   0.473   2.362   2.053
  924SOL    HW1 2792   0.534   2.442   2.057
  924SOL    HW2 2793   0.378   2.393   2.060
  925SOL     OW 2794   0.159   2.999   3.328
  925SOL    HW1 2795   0.181   2.938   3.404
  925SOL    HW2 2796   0.169   2.950   3.242
  926SOL     OW 2797   1.347   2.921   3.096
  926SOL    HW1 2798   1.371   2.858   3.022
  926SOL    HW2 2799   1.257   2.961   3.078
  927SOL     OW 2800   1.302   2.717   2.171
  927SOL    HW1 2801   1.216   2.686   2.213
  927SOL    HW2 2802   1.298   2.703   2.072
  928SOL     OW 2803   1.759   3.609   3.016
  928SOL    HW1 2804   1.820   3.639   2.943
  928SOL    HW2 2805   1.721   3.520   2.994
  929SOL     OW 2806   1.252   3.593   2.990
  929SOL    HW1 2807   1.336   3.598   2.936
  929SOL    HW2 2808   1.229   3.497   3.008
  930SOL     OW 2809   0.083   3.120   2.884
  930SOL    HW1 2810   0.078   3.119   2.984
  930SOL    HW2 2811   0.000   3.079   2.846
  931SOL     OW 2812   0.688   3.524   3.578
  931SOL    HW1 2813   0.632   3.605   3.587
  931SOL    HW2 2814   0.740   3.528   3.492
  932SOL     OW 2815   1.726   1.997   2.385
  932SOL    HW1 2816   1.799   1.980   2.318
  932SOL    HW2 2817   1.695   1.910   2.423
  933SOL     OW 2818   1.388   3.435   2.339
  933SOL    HW1 2819   1.455   3.447   2.265
  933SOL    HW2 2820   1.348   3.524   2.362
  934SOL     OW 2821   0.130   3.656   3.713
  934SOL    HW1 2822   0.089   3.582   3.766
  934SOL    HW2 2823   0.194   3.707   3.771
  935SOL     OW 2824   1.280   2.789   2.534
  935SOL    HW1 2825   1.340   2.708   2.536
  935SOL    HW2 2826   1.320   2.858   2.474
  936SOL     OW 2827   0.830   3.135   3.284
  936SOL    HW1 2828   0.825   3.168   3.379
  936SOL    HW2 2829   0.744   3.154   3.238
  937SOL     OW 2830   0.672   3.478   2.016
  937SOL    HW1 2831   0.681   3.488   1.917
  937SOL    HW2 2832   0.632   3.389   2.037
  938SOL     OW 2833   1.650   3.582   3.256
  938SOL    HW1 2834   1.703   3.592   3.172
  938SOL    HW2 2835   1.623   3.672   3.290
  939SOL     OW 2836   1.841   2.037   2.825
  939SOL    HW1 2837   1.880   1.952   2.789
  939SOL    HW2 2838   1.743   2.039   2.806
  940SOL     OW 2839   0.263   2.188   2.582
  940SOL    HW1 2840   0.184   2.239   2.548
  940SOL    HW2 2841   0.254   2.173   2.680
  941SOL     OW 2842   1.194   3.474   1.893
  941SOL    HW1 2843   1.200   3.381   1.930
  941SOL    HW2 2844   1.135   3.474   1.813
  942SOL     OW 2845   0.822   2.864   3.234
  942SOL    HW1 2846   0.862   2.863   3.142
  942SOL    HW2 2847   0.832   2.956   3.274
  943SOL     OW 2848   0.916   2.772   2.153
  943SOL    HW1 2849   0.979   2.810   2.085
  943SOL    HW2 2850   0.956   2.689   2.192
  944SOL     OW 2851   1.504   3.469   1.906
  944SOL    HW1 2852   1.412   3.506   1.913
  944SOL    HW2 2853   1.542   3.489   1.816
  945SOL     OW 2854   0.372   3.150   3.352
  945SOL    HW1 2855   0.359   3.243   3.318
  945SOL    HW2 2856   0.288   3.098   3.339
  946SOL     OW 2857   1.614   3.154   3.151
  946SOL    HW1 2858   1.674   3.157   3.231
  946SOL    HW2 2859   1.539   3.218   3.164
  947SOL     OW 2860   1.039   2.960   2.558
  947SOL    HW1 2861   0.969   2.913   2.612
  947SOL    HW2 2862   1.098   2.892   2.515
  948SOL     OW 2863   1.014   2.098   2.833
  948SOL    HW1 2864   1.006   2.062   2.740
  948SOL    HW2 2865   1.012   2.022   2.898
  949SOL     OW 2866   0.590   3.349   2.353
  949SOL    HW1 2867   0.632   3.291   2.283
  949SOL    HW2 2868   0.546   3.428   2.309
  950SOL     OW 2869   1.709   2.247   3.243
  950SOL    HW1 2870   1.782   2.316   3.247
  950SOL    HW2 2871   1.737   2.172   3.184
  951SOL     OW 2872   0.255   3.210   2.152
  951SOL    HW1 2873   0.159   3.211   2.125
  951SOL    HW2 2874   0.267   3.263   2.236
  952SOL     OW 2875   0.105   2.875   3.588
  952SOL    HW1 2876   0.028   2.842   3.642
  952SOL    HW2 2877   0.190   2.845   3.630
  953SOL     OW 2878   0.672   2.065   3.351
  953SOL    HW1 2879   0.762   2.049   3.311
  953SOL    HW2 2880   0.680   2.070   3.450
  954SOL     OW 2881   0.075   2.207   1.895
  954SOL    HW1 2882  -0.017   2.179   1.866
  954SOL    HW2 2883   0.106   2.284   1.839
  955SOL     OW 2884   1.440   2.718   3.260
  955SOL    HW1 2885   1.383   2.770   3.197
  955SOL    HW2 2886   1.536   2.730   3.236
  956SOL     OW 2887   0.072   2.028   2.180
  956SOL    HW1 2888   0.055   2.111   2.126
  956SOL    HW2 2889   0.162   1.991   2.158
  957SOL     OW 2890   1.183   3.197   1.981
  957SOL    HW1 2891   1.084   3.186   1.983
  957SOL    HW2 2892   1.217   3.212   2.074
  958SOL     OW 2893   0.613   2.704   3.293
  958SOL    HW1 2894   0.669   2.785   3.276
  958SOL    HW2 2895   0.672   2.624   3.296
  959SOL     OW 2896   1.493   3.629   2.821
  959SOL    HW1 2897   1.526   3.693   2.752
  959SOL    HW2 2898   1.559   3.623   2.896
  960SOL     OW 2899   0.716   2.427   3.570
  960SOL    HW1 2900   0.735   2.492   3.644
  960SOL    HW2 2901   0.776   2.347   3.579
  961SOL     OW 2902   1.450   3.082   3.495
  961SOL    HW1 2903   1.441   3.072   3.594
  961SOL    HW2 2904   1.546   3.075   3.469
  962SOL     OW 2905   0.390   3.603   3.422
  962SOL    HW1 2906   0.299   3.644   3.420
  962SOL    HW2 2907   0.383   3.509   3.454
  963SOL     OW 2908   1.674   2.745   3.116
  963SOL    HW1 2909   1.647   2.656   3.079
  963SOL    HW2 2910   1.675   2.813   3.043
  964SOL     OW 2911   1.225   2.187   2.311
  964SOL    HW1 2912   1.290   2.113   2.300
  964SOL    HW2 2913   1.245   2.237   2.395
  965SOL     OW 2914   0.594   2.607   2.514
  965SOL    HW1 2915   0.644   2.692   2.495
  965SOL    HW2 2916   0.506   2.609   2.466
  966SOL     OW 2917   1.777   2.204   3.504
  966SOL    HW1 2918   1.760   2.235   3.410
  966SOL    HW2 2919   1.693   2.167   3.542
  967SOL     OW 2920   1.730   2.796   3.379
  967SOL    HW1 2921   1.768   2.887   3.394
  967SOL    HW2 2922   1.722   2.779   3.280
  968SOL     OW 2923   0.859   3.236   1.878
  968SOL    HW1 2924   0.813   3.251   1.966
  968SOL    HW2 2925   0.903   3.321   1.848
  969SOL     OW 2926   0.661   3.652   2.815
  969SOL    HW1 2927   0.615   3.740   2.802
  969SOL    HW2 2928   0.760   3.664   2.808
  970SOL     OW 2929   0.859   2.818   2.723
  970SOL    HW1 2930   0.913   2.749   2.771
  970SOL    HW2 2931   0.827   2.887   2.789
  971SOL     OW 2932   1.083   2.846   1.949
  971SOL    HW1 2933   1.060   2.899   1.867
  971SOL    HW2 2934   1.164   2.790   1.930
  972SOL     OW 2935   1.861   3.431   2.713
  972SOL    HW1 2936   1.790   3.419   2.643
  972SOL    HW2 2937   1.862   3.352   2.773
  973SOL     OW 2938   0.221   3.176   3.706
  973SOL    HW1 2939   0.156   3.103   3.685
  973SOL    HW2 2940   0.225   3.190   3.804
  974SOL     OW 2941   0.079   3.102   2.515
  974SOL    HW1 2942   0.078   3.055   2.603
  974SOL    HW2 2943   0.161   3.074   2.464
  975SOL     OW 2944   0.672   3.253   3.486
  975SOL    HW1 2945   0.594   3.203   3.524
  975SOL    HW2 2946   0.669   3.348   3.517
  976SOL     OW 2947   1.824   2.054   3.089
  976SOL    HW1 2948   1.820   1.964   3.133
  976SOL    HW2 2949   1.827   2.043   2.990
  977SOL     OW 2950   0.428   2.286   2.382
  977SOL    HW1 2951   0.458   2.214   2.320
  977SOL    HW2 2952   0.389   2.246   2.465
  978SOL     OW 2953   1.705   3.349   2.966
  978SOL    HW1 2954   1.612   3.324   2.939
  978SOL    HW2 2955   1.731   3.299   3.048
  979SOL     OW 2956   0.317   2.409   3.142
  979SOL    HW1 2957   0.355   2.350   3.214
  979SOL    HW2 2958   0.357   2.383   3.054
  980SOL     OW 2959   0.812   3.448   2.549
  980SOL    HW1 2960   0.844   3.458   2.455
  980SOL    HW2 2961   0.733   3.386   2.551
  981SOL     OW 2962   1.424   2.076   2.974
  981SOL    HW1 2963   1.476   2.011   3.029
  981SOL    HW2 2964   1.375   2.139   3.035
  982SOL     OW 2965   1.001   1.896   3.016
  982SOL    HW1 2966   0.938   1.824   2.985
  982SOL    HW2 2967   1.094   1.860   3.016
  983SOL     OW 2968   0.770   3.192   2.163
  983SOL    HW1 2969   0.724   3.105   2.180
  983SOL    HW2 2970   0.861   3.189   2.204
  984SOL     OW 2971   0.618   3.429   3.146
  984SOL    HW1 2972   0.613   3.511   3.203
  984SOL    HW2 2973   0.707   3.426   3.101
  985SOL     OW 2974   1.352   1.914   2.030
  985SOL    HW1 2975   1.387   1.873   1.946
  985SOL    HW2 2976   1.262   1.876   2.050
  986SOL     OW 2977   1.300   2.315   2.553
  986SOL    HW1 2978   1.241   2.395   2.557
  986SOL    HW2 2979   1.315   2.280   2.646
  987SOL     OW 2980   1.593   2.083   2.744
  987SOL    HW1 2981   1.509   2.082   2.798
  987SOL    HW2 2982   1.595   2.166   2.688
  988SOL     OW 2983   0.039   2.939   2.162
  988SOL    HW1 2984   0.138   2.928   2.153
  988SOL    HW2 2985  -0.001   2.853   2.194
  989SOL     OW 2986   0.875   3.508   2.199
  989SOL    HW1 2987   0.798   3.473   2.145
  989SOL    HW2 2988   0.843   3.579   2.261
  990SOL     OW 2989   0.230   2.490   3.837
  990SOL    HW1 2990   0.137   2.488   3.874
  990SOL    HW2 2991   0.231   2.451   3.745
  991SOL     OW 2992   0.225   2.137   4.720
  991SOL    HW1 2993   0.260   2.120   4.812
  991SOL    HW2 2994   0.137   2.092   4.708
  992SOL     OW 2995   0.019   2.230   4.371
  992SOL    HW1 2996  -0.063   2.273   4.410
  992SOL    HW2 2997  -0.009   2.157   4.308
  993SOL     OW 2998   0.569   3.137   4.889
  993SOL    HW1 2999   0.476   3.130   4.852
  993SOL    HW2 3000   0.580   3.226   4.933
  994SOL     OW 3001   1.555   3.373   4.427
  994SOL    HW1 3002   1.498   3.357   4.508
  994SOL    HW2 3003   1.496   3.383   4.347
  995SOL     OW 3004   1.135   2.565   4.441
  995SOL    HW1 3005   1.192   2.643   4.416
  995SOL    HW2 3006   1.075   2.591   4.517
  996SOL     OW 3007   1.755   2.469   3.955
  996SOL    HW1 3008   1.743   2.456   3.856
  996SOL    HW2 3009   1.725   2.388   4.004
  997SOL     OW 3010   0.768   3.006   4.747
  997SOL    HW1 3011   0.690   3.023   4.807
  997SOL    HW2 3012   0.802   3.093   4.711
  998SOL     OW 3013   0.685   2.874   4.389
  998SOL    HW1 3014   0.754   2.858   4.459
  998SOL    HW2 3015   0.612   2.931   4.427
  999SOL     OW 3016   0.335   3.297   4.785
  999SOL    HW1 3017   0.257   3.266   4.732
  999SOL    HW2 3018   0.393   3.355   4.728
 1000SOL     OW 3019   1.603   2.309   4.461
 1000SOL    HW1 3020   1.529   2.355   4.411
 1000SOL    HW2 3021   1.654   2.377   4.514
 1001SOL     OW 3022   0.231   3.575   4.207
 1001SOL    HW1 3023   0.265   3.652   4.261
 1001SOL    HW2 3024   0.275   3.575   4.117
 1002SOL     OW 3025   0.230   3.296   4.262
 1002SOL    HW1 3026   0.204   3.392   4.262
 1002SOL    HW2 3027   0.159   3.242   4.307
 1003SOL     OW 3028   0.240   2.953   4.610
 1003SOL    HW1 3029   0.254   2.869   4.662
 1003SOL    HW2 3030   0.185   3.017   4.665
 1004SOL     OW 3031   0.606   2.826   3.847
 1004SOL    HW1 3032   0.613   2.910   3.793
 1004SOL    HW2 3033   0.652   2.839   3.935
 1005SOL     OW 3034   0.122   2.505   4.287
 1005SOL    HW1 3035   0.077   2.417   4.304
 1005SOL    HW2 3036   0.121   2.559   4.371
 1006SOL     OW 3037   1.842   3.629   4.083
 1006SOL    HW1 3038   1.896   3.600   4.163
 1006SOL    HW2 3039   1.872   3.719   4.054
 1007SOL     OW 3040   0.027   3.458   3.841
 1007SOL    HW1 3041   0.008   3.362   3.862
 1007SOL    HW2 3042  -0.006   3.516   3.916
 1008SOL     OW 3043   1.689   2.784   4.336
 1008SOL    HW1 3044   1.784   2.755   4.344
 1008SOL    HW2 3045   1.681   2.849   4.261
 1009SOL     OW 3046   1.641   2.970   4.156
 1009SOL    HW1 3047   1.727   2.972   4.104
 1009SOL    HW2 3048   1.655   3.017   4.244
 1010SOL     OW 3049   0.613   3.227   4.450
 1010SOL    HW1 3050   0.564   3.140   4.459
 1010SOL    HW2 3051   0.590   3.270   4.363
 1011SOL     OW 3052   0.809   1.866   4.226
 1011SOL    HW1 3053   0.849   1.957   4.217
 1011SOL    HW2 3054   0.709   1.874   4.232
 1012SOL     OW 3055   0.197   2.838   4.988
 1012SOL    HW1 3056   0.286   2.793   4.974
 1012SOL    HW2 3057   0.124   2.773   4.969
 1013SOL     OW 3058   1.525   2.861   3.914
 1013SOL    HW1 3059   1.462   2.785   3.927
 1013SOL    HW2 3060   1.573   2.879   4.000
 1014SOL     OW 3061   1.466   3.279   4.677
 1014SOL    HW1 3062   1.407   3.285   4.757
 1014SOL    HW2 3063   1.451   3.191   4.631
 1015SOL     OW 3064   1.667   3.576   4.296
 1015SOL    HW1 3065   1.626   3.553   4.208
 1015SOL    HW2 3066   1.649   3.502   4.361
 1016SOL     OW 3067   0.598   2.591   3.994
 1016SOL    HW1 3068   0.622   2.660   3.926
 1016SOL    HW2 3069   0.520   2.624   4.048
 1017SOL     OW 3070   1.281   2.207   4.668
 1017SOL    HW1 3071   1.195   2.157   4.655
 1017SOL    HW2 3072   1.343   2.153   4.724
 1018SOL     OW 3073   1.576   3.524   4.031
 1018SOL    HW1 3074   1.665   3.570   4.034
 1018SOL    HW2 3075   1.555   3.500   3.936
 1019SOL     OW 3076   1.041   2.563   4.153
 1019SOL    HW1 3077   1.067   2.559   4.249
 1019SOL    HW2 3078   0.956   2.512   4.139
 1020SOL     OW 3079   0.076   2.673   4.513
 1020SOL    HW1 3080   0.175   2.661   4.522
 1020SOL    HW2 3081   0.052   2.768   4.534
 1021SOL     OW 3082   0.865   2.210   3.919
 1021SOL    HW1 3083   0.924   2.273   3.870
 1021SOL    HW2 3084   0.884   2.116   3.890
 1022SOL     OW 3085   1.362   3.006   4.269
 1022SOL    HW1 3086   1.445   2.977   4.221
 1022SOL    HW2 3087   1.313   3.073   4.213
 1023SOL     OW 3088   0.550   2.058   4.609
 1023SOL    HW1 3089   0.545   2.053   4.709
 1023SOL    HW2 3090   0.552   2.154   4.580
 1024SOL     OW 3091   1.008   3.318   4.201
 1024SOL    HW1 3092   0.962   3.390   4.149
 1024SOL    HW2 3093   1.004   3.338   4.299
 1025SOL     OW 3094   0.351   3.663   4.577
 1025SOL    HW1 3095   0.401   3.577   4.583
 1025SOL    HW2 3096   0.416   3.740   4.574
 1026SOL     OW 3097   1.795   2.928   4.597
 1026SOL    HW1 3098   1.733   2.913   4.521
 1026SOL    HW2 3099   1.743   2.939   4.682
 1027SOL     OW 3100   0.321   2.805   3.966
 1027SOL    HW1 3101   0.403   2.844   3.924
 1027SOL    HW2 3102   0.294   2.723   3.917
 1028SOL     OW 3103   1.458   2.597   4.452
 1028SOL    HW1 3104   1.453   2.532   4.527
 1028SOL    HW2 3105   1.538   2.656   4.465
 1029SOL     OW 3106   1.111   3.638   3.961
 1029SOL    HW1 3107   1.051   3.576   4.011
 1029SOL    HW2 3108   1.142   3.594   3.876
 1030SOL     OW 3109   1.632   3.239   3.805
 1030SOL    HW1 3110   1.600   3.333   3.795
 1030SOL    HW2 3111   1.556   3.176   3.793
 1031SOL     OW 3112   0.464   3.605   4.047
 1031SOL    HW1 3113   0.497   3.644   4.133
 1031SOL    HW2 3114   0.540   3.598   3.982
 1032SOL     OW 3115   1.400   1.969   4.150
 1032SOL    HW1 3116   1.376   1.932   4.060
 1032SOL    HW2 3117   1.499   1.985   4.154
 1033SOL     OW 3118   0.249   3.647   4.965
 1033SOL    HW1 3119   0.306   3.582   5.015
 1033SOL    HW2 3120   0.233   3.614   4.872
 1034SOL     OW 3121   0.940   3.560   4.628
 1034SOL    HW1 3122   1.020   3.503   4.649
 1034SOL    HW2 3123   0.891   3.520   4.551
 1035SOL     OW 3124   0.382   2.562   4.204
 1035SOL    HW1 3125   0.427   2.472   4.201
 1035SOL    HW2 3126   0.288   2.551   4.237
 1036SOL     OW 3127   0.614   1.984   3.841
 1036SOL    HW1 3128   0.712   1.962   3.848
 1036SOL    HW2 3129   0.583   1.967   3.748
 1037SOL     OW 3130   0.803   3.264   4.648
 1037SOL    HW1 3131   0.893   3.278   4.606
 1037SOL    HW2 3132   0.732   3.266   4.577
 1038SOL     OW 3133   0.922   2.365   4.623
 1038SOL    HW1 3134   0.897   2.356   4.527
 1038SOL    HW2 3135   0.970   2.283   4.654
 1039SOL     OW 3136   0.539   1.926   4.236
 1039SOL    HW1 3137   0.458   1.927   4.294
 1039SOL    HW2 3138   0.542   2.009   4.181
 1040SOL     OW 3139   1.434   3.050   3.765
 1040SOL    HW1 3140   1.466   2.974   3.822
 1040SOL    HW2 3141   1.342   3.077   3.795
 1041SOL     OW 3142   0.297   1.897   3.895
 1041SOL    HW1 3143   0.346   1.981   3.874
 1041SOL    HW2 3144   0.359   1.832   3.940
 1042SOL     OW 3145   0.935   2.098   4.204
 1042SOL    HW1 3146   0.887   2.139   4.126
 1042SOL    HW2 3147   1.034   2.096   4.185
 1043SOL     OW 3148   1.227   3.432   4.517
 1043SOL    HW1 3149   1.248   3.506   4.452
 1043SOL    HW2 3150   1.295   3.432   4.590
 1044SOL     OW 3151   0.459   3.014   4.465
 1044SOL    HW1 3152   0.388   2.987   4.530
 1044SOL    HW2 3153   0.433   2.986   4.372
 1045SOL     OW 3154   1.271   3.659   4.315
 1045SOL    HW1 3155   1.315   3.723   4.251
 1045SOL    HW2 3156   1.221   3.711   4.385
 1046SOL     OW 3157   1.032   2.411   3.740
 1046SOL    HW1 3158   0.991   2.493   3.701
 1046SOL    HW2 3159   1.096   2.437   3.813
 1047SOL     OW 3160   0.866   2.316   4.366
 1047SOL    HW1 3161   0.834   2.388   4.304
 1047SOL    HW2 3162   0.890   2.235   4.313
 1048SOL     OW 3163   1.017   1.901   4.477
 1048SOL    HW1 3164   0.945   1.906   4.408
 1048SOL    HW2 3165   0.993   1.832   4.546
 1049SOL     OW 3166   1.429   3.035   4.591
 1049SOL    HW1 3167   1.374   2.951   4.584
 1049SOL    HW2 3168   1.455   3.064   4.499
 1050SOL     OW 3169   1.466   2.452   4.716
 1050SOL    HW1 3170   1.436   2.357   4.723
 1050SOL    HW2 3171   1.539   2.468   4.782
 1051SOL     OW 3172   1.857   2.695   4.101
 1051SOL    HW1 3173   1.899   2.631   4.165
 1051SOL    HW2 3174   1.819   2.644   4.023
 1052SOL     OW 3175   0.488   3.247   3.898
 1052SOL    HW1 3176   0.401   3.232   3.945
 1052SOL    HW2 3177   0.471   3.273   3.803
 1053SOL     OW 3178   1.664   3.142   4.381
 1053SOL    HW1 3179   1.763   3.150   4.395
 1053SOL    HW2 3180   1.619   3.226   4.412
 1054SOL     OW 3181   1.390   2.437   3.802
 1054SOL    HW1 3182   1.336   2.416   3.883
 1054SOL    HW2 3183   1.481   2.396   3.811
 1055SOL     OW 3184   0.527   2.118   4.052
 1055SOL    HW1 3185   0.554   2.059   3.977
 1055SOL    HW2 3186   0.527   2.213   4.021
 1056SOL     OW 3187   1.111   3.057   4.824
 1056SOL    HW1 3188   1.071   3.101   4.905
 1056SOL    HW2 3189   1.070   3.094   4.741
 1057SOL     OW 3190   1.638   2.961   4.803
 1057SOL    HW1 3191   1.643   3.042   4.862
 1057SOL    HW2 3192   1.552   2.963   4.752
 1058SOL     OW 3193   0.705   2.912   4.092
 1058SOL    HW1 3194   0.691   2.919   4.191
 1058SOL    HW2 3195   0.789   2.861   4.074
 1059SOL     OW 3196   0.410   2.675   4.975
 1059SOL    HW1 3197   0.496   2.687   5.025
 1059SOL    HW2 3198   0.368   2.588   5.002
 1060SOL     OW 3199   0.367   2.962   4.225
 1060SOL    HW1 3200   0.360   3.045   4.169
 1060SOL    HW2 3201   0.371   2.882   4.165
 1061SOL     OW 3202   0.566   2.399   4.589
 1061SOL    HW1 3203   0.578   2.465   4.515
 1061SOL    HW2 3204   0.612   2.433   4.672
 1062SOL     OW 3205   1.252   3.210   4.112
 1062SOL    HW1 3206   1.302   3.287   4.152
 1062SOL    HW2 3207   1.157   3.212   4.144
 1063SOL     OW 3208   1.272   3.307   4.866
 1063SOL    HW1 3209   1.319   3.320   4.953
 1063SOL    HW2 3210   1.206   3.233   4.875
 1064SOL     OW 3211   1.582   2.501   4.196
 1064SOL    HW1 3212   1.551   2.562   4.269
 1064SOL    HW2 3213   1.632   2.553   4.127
 1065SOL     OW 3214   0.573   2.732   4.753
 1065SOL    HW1 3215   0.617   2.821   4.744
 1065SOL    HW2 3216   0.510   2.732   4.830
 1066SOL     OW 3217   1.209   2.387   3.999
 1066SOL    HW1 3218   1.222   2.303   4.053
 1066SOL    HW2 3219   1.180   2.461   4.059
 1067SOL     OW 3220   0.307   2.075   4.955
 1067SOL    HW1 3221   0.284   2.112   5.045
 1067SOL    HW2 3222   0.277   1.980   4.949
 1068SOL     OW 3223   0.732   2.496   4.788
 1068SOL    HW1 3224   0.791   2.470   4.712
 1068SOL    HW2 3225   0.704   2.592   4.777
 1069SOL     OW 3226   0.307   1.925   4.342
 1069SOL    HW1 3227   0.296   2.019   4.375
 1069SOL    HW2 3228   0.302   1.862   4.419
 1070SOL     OW 3229   1.622   2.229   4.098
 1070SOL    HW1 3230   1.624   2.153   4.162
 1070SOL    HW2 3231   1.574   2.306   4.138
 1071SOL     OW 3232   1.023   2.628   4.690
 1071SOL    HW1 3233   1.038   2.649   4.786
 1071SOL    HW2 3234   0.993   2.533   4.681
 1072SOL     OW 3235   1.540   2.136   3.849
 1072SOL    HW1 3236   1.479   2.061   3.872
 1072SOL    HW2 3237   1.562   2.188   3.932
 1073SOL     OW 3238   1.303   2.700   3.766
 1073SOL    HW1 3239   1.337   2.607   3.781
 1073SOL    HW2 3240   1.321   2.727   3.671
 1074SOL     OW 3241   1.068   3.195   4.573
 1074SOL    HW1 3242   1.075   3.111   4.518
 1074SOL    HW2 3243   1.130   3.264   4.537
 1075SOL     OW 3244   0.319   2.672   4.673
 1075SOL    HW1 3245   0.412   2.708   4.678
 1075SOL    HW2 3246   0.313   2.587   4.725
 1076SOL     OW 3247   0.339   2.371   4.730
 1076SOL    HW1 3248   0.287   2.288   4.713
 1076SOL    HW2 3249   0.416   2.376   4.666
 1077SOL     OW 3250   0.008   3.188   3.924
 1077SOL    HW1 3251  -0.085   3.209   3.893
 1077SOL    HW2 3252   0.018   3.089   3.937
 1078SOL     OW 3253   0.088   3.663   4.651
 1078SOL    HW1 3254   0.046   3.577   4.624
 1078SOL    HW2 3255   0.182   3.666   4.617
 1079SOL     OW 3256   0.504   3.430   4.634
 1079SOL    HW1 3257   0.570   3.504   4.643
 1079SOL    HW2 3258   0.548   3.351   4.592
 1080SOL     OW 3259   1.002   2.658   4.962
 1080SOL    HW1 3260   1.043   2.626   5.048
 1080SOL    HW2 3261   0.906   2.631   4.959
 1081SOL     OW 3262   0.040   2.406   4.838
 1081SOL    HW1 3263   0.125   2.373   4.797
 1081SOL    HW2 3264   0.053   2.421   4.936
 1082SOL     OW 3265   0.815   2.434   4.049
 1082SOL    HW1 3266   0.822   2.345   4.003
 1082SOL    HW2 3267   0.721   2.468   4.041
 1083SOL     OW 3268   1.657   2.466   4.930
 1083SOL    HW1 3269   1.619   2.397   4.992
 1083SOL    HW2 3270   1.739   2.430   4.886
 1084SOL     OW 3271   0.671   2.326   4.993
 1084SOL    HW1 3272   0.637   2.237   4.963
 1084SOL    HW2 3273   0.697   2.380   4.913
 1085SOL     OW 3274   0.473   2.362   3.915
 1085SOL    HW1 3275   0.534   2.442   3.919
 1085SOL    HW2 3276   0.378   2.393   3.922
 1086SOL     OW 3277   1.302   2.717   4.033
 1086SOL    HW1 3278   1.216   2.686   4.075
 1086SOL    HW2 3279   1.298   2.703   3.934
 1087SOL     OW 3280   1.759   3.609   4.878
 1087SOL    HW1 3281   1.820   3.639   4.805
 1087SOL    HW2 3282   1.721   3.520   4.856
 1088SOL     OW 3283   0.083   3.120   4.746
 1088SOL    HW1 3284   0.078   3.119   4.846
 1088SOL    HW2 3285   0.000   3.079   4.708
 1089SOL     OW 3286   1.726   1.997   4.247
 1089SOL    HW1 3287   1.799   1.980   4.180
 1089SOL    HW2 3288   1.695   1.910   4.285
 1090SOL     OW 3289   1.388   3.435   4.201
 1090SOL    HW1 3290   1.455   3.447   4.127
 1090SOL    HW2 3291   1.348   3.524   4.224
 1091SOL     OW 3292   1.280   2.789   4.396
 1091SOL    HW1 3293   1.340   2.708   4.398
 1091SOL    HW2 3294   1.320   2.858   4.336
 1092SOL     OW 3295   0.672   3.478   3.878
 1092SOL    HW1 3296   0.681   3.488   3.779
 1092SOL    HW2 3297   0.632   3.389   3.899
 1093SOL     OW 3298   1.841   2.037   4.687
 1093SOL    HW1 3299   1.880   1.952   4.651
 1093SOL    HW2 3300   1.743   2.039   4.668
 1094SOL     OW 3301   0.263   2.188   4.444
 1094SOL    HW1 3302   0.184   2.239   4.410
 1094SOL    HW2 3303   0.254   2.173   4.542
 1095SOL     OW 3304   1.194   3.474   3.755
 1095SOL    HW1 3305   1.200   3.381   3.792
 1095SOL    HW2 3306   1.135   3.474   3.675
 1096SOL     OW 3307   0.822   2.864   5.096
 1096SOL    HW1 3308   0.862   2.863   5.004
 1096SOL    HW2 3309   0.832   2.956   5.136
 1097SOL     OW 3310   0.916   2.772   4.015
 1097SOL    HW1 3311   0.979   2.810   3.947
 1097SOL    HW2 3312   0.956   2.689   4.054
 1098SOL     OW 3313   1.504   3.469   3.768
 1098SOL    HW1 3314   1.412   3.506   3.775
 1098SOL    HW2 3315   1.542   3.489   3.678
 1099SOL     OW 3316   1.039   2.960   4.420
 1099SOL    HW1 3317   0.969   2.913   4.474
 1099SOL    HW2 3318   1.098   2.892   4.377
 1100SOL     OW 3319   1.014   2.098   4.695
 1100SOL    HW1 3320   1.006   2.062   4.602
 1100SOL    HW2 3321   1.012   2.022   4.760
 1101SOL     OW 3322   0.590   3.349   4.215
 1101SOL    HW1 3323   0.632   3.291   4.145
 1101SOL    HW2 3324   0.546   3.428   4.171
 1102SOL     OW 3325   1.709   2.247   5.105
 1102SOL    HW1 3326   1.782   2.316   5.109
 1102SOL    HW2 3327   1.737   2.172   5.046
 1103SOL     OW 3328   0.255   3.210   4.014
 1103SOL    HW1 3329   0.159   3.211   3.987
 1103SOL    HW2 3330   0.267   3.263   4.098
 1104SOL     OW 3331   0.075   2.207   3.757
 1104SOL    HW1 3332  -0.017   2.179   3.728
 1104SOL    HW2 3333   0.106   2.284   3.701
 1105SOL     OW 3334   0.072   2.028   4.042
 1105SOL    HW1 3335   0.055   2.111   3.988
 1105SOL    HW2 3336   0.162   1.991   4.020
 1106SOL     OW 3337   1.183   3.197   3.843
 1106SOL    HW1 3338   1.084   3.186   3.845
 1106SOL    HW2 3339   1.217   3.212   3.936
 1107SOL     OW 3340   1.493   3.629   4.683
 1107SOL    HW1 3341   1.526   3.693   4.614
 1107SOL    HW2 3342   1.559   3.623   4.758
 1108SOL     OW 3343   1.674   2.745   4.978
 1108SOL    HW1 3344   1.647   2.656   4.941
 1108SOL    HW2 3345   1.675   2.813   4.905
 1109SOL     OW 3346   1.225   2.187   4.173
 1109SOL    HW1 3347   1.290   2.113   4.162
 1109SOL    HW2 3348   1.245   2.237   4.257
 1110SOL     OW 3349   0.594   2.607   4.376
 1110SOL    HW1 3350   0.644   2.692   4.357
 1110SOL    HW2 3351   0.506   2.609   4.328
 1111SOL     OW 3352   0.859   3.236   3.740
 1111SOL    HW1 3353   0.813   3.251   3.828
 1111SOL    HW2 3354   0.903   3.321   3.710
 1112SOL     OW 3355   0.661   3.652   4.677
 1112SOL    HW1 3356   0.615   3.740   4.664
 1112SOL    HW2 3357   0.760   3.664   4.670
 1113SOL     OW 3358   0.859   2.818   4.585
 1113SOL    HW1 3359   0.913   2.749   4.633
 1113SOL    HW2 3360   0.827   2.887   4.651
 1114SOL     OW 3361   1.083   2.846   3.811
 1114SOL    HW1 3362   1.060   2.899   3.729
 1114SOL    HW2 3363   1.164   2.790   3.792
 1115SOL     OW 3364   1.861   3.431   4.575
 1115SOL    HW1 3365   1.790   3.419   4.505
 1115SOL    HW2 3366   1.862   3.352   4.635
 1116SOL     OW 3367   0.079   3.102   4.377
 1116SOL    HW1 3368   0.078   3.055   4.465
 1116SOL    HW2 3369   0.161   3.074   4.326
 1117SOL     OW 3370   1.824   2.054   4.951
 1117SOL    HW1 3371   1.820   1.964   4.995
 1117SOL    HW2 3372   1.827   2.043   4.852
 1118SOL     OW 3373   0.428   2.286   4.244
 1118SOL    HW1 3374   0.458   2.214   4.182
 1118SOL    HW2 3375   0.389   2.246   4.327
 1119SOL     OW 3376   1.705   3.349   4.828
 1119SOL    HW1 3377   1.612   3.324   4.801
 1119SOL    HW2 3378   1.731   3.299   4.910
 1120SOL     OW 3379   0.812   3.448   4.411
 1120SOL    HW1 3380   0.844   3.458   4.317
 1120SOL    HW2 3381   0.733   3.386   4.413
 1121SOL     OW 3382   1.424   2.076   4.836
 1121SOL    HW1 3383   1.476   2.011   4.891
 1121SOL    HW2 3384   1.375   2.139   4.897
 1122SOL     OW 3385   0.770   3.192   4.025
 1122SOL    HW1 3386   0.724   3.105   4.042
 1122SOL    HW2 3387   0.861   3.189   4.066
 1123SOL     OW 3388   1.352   1.914   3.892
 1123SOL    HW1 3389   1.387   1.873   3.808
 1123SOL    HW2 3390   1.262   1.876   3.912
 1124SOL     OW 3391   1.300   2.315   4.415
 1124SOL    HW1 3392   1.241   2.395   4.419
 1124SOL    HW2 3393   1.315   2.280   4.508
 1125SOL     OW 3394   1.593   2.083   4.606
 1125SOL    HW1 3395   1.509   2.082   4.660
 1125SOL    HW2 3396   1.595   2.166   4.550
 1126SOL     OW 3397   0.039   2.939   4.024
 1126SOL    HW1 3398   0.138   2.928   4.015
 1126SOL    HW2 3399  -0.001   2.853   4.056
 1127SOL     OW 3400   0.875   3.508   4.061
 1127SOL    HW1 3401   0.798   3.473   4.007
 1127SOL    HW2 3402   0.843   3.579   4.123
 1128SOL     OW 3403   0.230   4.352   0.113
 1128SOL    HW1 3404   0.137   4.350   0.150
 1128SOL    HW2 3405   0.231   4.313   0.021
 1129SOL     OW 3406   0.225   3.999   0.996
 1129SOL    HW1 3407   0.260   3.982   1.088
 1129SOL    HW2 3408   0.137   3.954   0.984
 1130SOL     OW 3409   0.019   4.092   0.647
 1130SOL    HW1 3410  -0.063   4.135   0.686
 1130SOL    HW2 3411  -0.009   4.019   0.584
 1131SOL     OW 3412   1.135   4.427   0.717
 1131SOL    HW1 3413   1.192   4.505   0.692
 1131SOL    HW2 3414   1.075   4.453   0.793
 1132SOL     OW 3415   1.755   4.331   0.231
 1132SOL    HW1 3416   1.743   4.318   0.132
 1132SOL    HW2 3417   1.725   4.250   0.280
 1133SOL     OW 3418   0.768   4.868   1.023
 1133SOL    HW1 3419   0.690   4.885   1.083
 1133SOL    HW2 3420   0.802   4.955   0.987
 1134SOL     OW 3421   0.850   4.522   1.823
 1134SOL    HW1 3422   0.846   4.598   1.888
 1134SOL    HW2 3423   0.872   4.558   1.732
 1135SOL     OW 3424   0.685   4.736   0.665
 1135SOL    HW1 3425   0.754   4.720   0.735
 1135SOL    HW2 3426   0.612   4.793   0.703
 1136SOL     OW 3427   1.460   5.229   1.339
 1136SOL    HW1 3428   1.484   5.323   1.365
 1136SOL    HW2 3429   1.444   5.175   1.421
 1137SOL     OW 3430   0.438   4.116   1.499
 1137SOL    HW1 3431   0.520   4.060   1.508
 1137SOL    HW2 3432   0.357   4.058   1.503
 1138SOL     OW 3433   1.603   4.171   0.737
 1138SOL    HW1 3434   1.529   4.217   0.687
 1138SOL    HW2 3435   1.654   4.239   0.790
 1139SOL     OW 3436   0.240   4.815   0.886
 1139SOL    HW1 3437   0.254   4.731   0.938
 1139SOL    HW2 3438   0.185   4.879   0.941
 1140SOL     OW 3439   0.606   4.688   0.123
 1140SOL    HW1 3440   0.613   4.772   0.069
 1140SOL    HW2 3441   0.652   4.701   0.211
 1141SOL     OW 3442   1.594   3.838   1.480
 1141SOL    HW1 3443   1.576   3.905   1.408
 1141SOL    HW2 3444   1.591   3.884   1.569
 1142SOL     OW 3445   0.122   4.367   0.563
 1142SOL    HW1 3446   0.077   4.279   0.580
 1142SOL    HW2 3447   0.121   4.421   0.647
 1143SOL     OW 3448   1.689   4.646   0.612
 1143SOL    HW1 3449   1.784   4.617   0.620
 1143SOL    HW2 3450   1.681   4.711   0.537
 1144SOL     OW 3451   0.113   4.461   1.597
 1144SOL    HW1 3452   0.201   4.448   1.642
 1144SOL    HW2 3453   0.100   4.558   1.575
 1145SOL     OW 3454   0.613   5.089   0.726
 1145SOL    HW1 3455   0.564   5.002   0.735
 1145SOL    HW2 3456   0.590   5.132   0.639
 1146SOL     OW 3457   1.293   4.952   1.423
 1146SOL    HW1 3458   1.330   4.879   1.365
 1146SOL    HW2 3459   1.345   4.957   1.508
 1147SOL     OW 3460   0.809   3.728   0.502
 1147SOL    HW1 3461   0.849   3.819   0.493
 1147SOL    HW2 3462   0.709   3.736   0.508
 1148SOL     OW 3463   0.197   4.700   1.264
 1148SOL    HW1 3464   0.286   4.655   1.250
 1148SOL    HW2 3465   0.124   4.635   1.245
 1149SOL     OW 3466   1.525   4.723   0.190
 1149SOL    HW1 3467   1.462   4.647   0.203
 1149SOL    HW2 3468   1.573   4.741   0.276
 1150SOL     OW 3469   0.317   3.975   1.801
 1150SOL    HW1 3470   0.388   4.046   1.807
 1150SOL    HW2 3471   0.229   4.014   1.829
 1151SOL     OW 3472   0.598   4.453   0.270
 1151SOL    HW1 3473   0.622   4.522   0.202
 1151SOL    HW2 3474   0.520   4.486   0.324
 1152SOL     OW 3475   1.281   4.069   0.944
 1152SOL    HW1 3476   1.195   4.019   0.931
 1152SOL    HW2 3477   1.343   4.015   1.000
 1153SOL     OW 3478   0.807   4.329   1.465
 1153SOL    HW1 3479   0.760   4.326   1.554
 1153SOL    HW2 3480   0.756   4.274   1.399
 1154SOL     OW 3481   1.394   4.193   1.674
 1154SOL    HW1 3482   1.374   4.236   1.762
 1154SOL    HW2 3483   1.472   4.131   1.683
 1155SOL     OW 3484   0.973   4.614   1.572
 1155SOL    HW1 3485   1.019   4.530   1.543
 1155SOL    HW2 3486   0.917   4.648   1.497
 1156SOL     OW 3487   0.991   4.134   1.242
 1156SOL    HW1 3488   0.914   4.168   1.296
 1156SOL    HW2 3489   0.957   4.083   1.163
 1157SOL     OW 3490   1.041   4.425   0.429
 1157SOL    HW1 3491   1.067   4.421   0.525
 1157SOL    HW2 3492   0.956   4.374   0.415
 1158SOL     OW 3493   0.076   4.535   0.789
 1158SOL    HW1 3494   0.175   4.523   0.798
 1158SOL    HW2 3495   0.052   4.630   0.810
 1159SOL     OW 3496   0.865   4.072   0.195
 1159SOL    HW1 3497   0.924   4.135   0.146
 1159SOL    HW2 3498   0.884   3.978   0.166
 1160SOL     OW 3499   1.719   4.309   1.831
 1160SOL    HW1 3500   1.693   4.398   1.795
 1160SOL    HW2 3501   1.717   4.241   1.758
 1161SOL     OW 3502   1.362   4.868   0.545
 1161SOL    HW1 3503   1.445   4.839   0.497
 1161SOL    HW2 3504   1.313   4.935   0.489
 1162SOL     OW 3505   0.550   3.920   0.885
 1162SOL    HW1 3506   0.545   3.915   0.985
 1162SOL    HW2 3507   0.552   4.016   0.856
 1163SOL     OW 3508   1.795   4.790   0.873
 1163SOL    HW1 3509   1.733   4.775   0.797
 1163SOL    HW2 3510   1.743   4.801   0.958
 1164SOL     OW 3511   0.321   4.667   0.242
 1164SOL    HW1 3512   0.403   4.706   0.200
 1164SOL    HW2 3513   0.294   4.585   0.193
 1165SOL     OW 3514   1.458   4.459   0.728
 1165SOL    HW1 3515   1.453   4.394   0.803
 1165SOL    HW2 3516   1.538   4.518   0.741
 1166SOL     OW 3517   0.202   4.009   1.498
 1166SOL    HW1 3518   0.122   4.069   1.485
 1166SOL    HW2 3519   0.192   3.960   1.584
 1167SOL     OW 3520   1.400   3.831   0.426
 1167SOL    HW1 3521   1.376   3.794   0.336
 1167SOL    HW2 3522   1.499   3.847   0.430
 1168SOL     OW 3523   0.382   4.424   0.480
 1168SOL    HW1 3524   0.427   4.334   0.477
 1168SOL    HW2 3525   0.288   4.413   0.513
 1169SOL     OW 3526   1.547   3.946   1.729
 1169SOL    HW1 3527   1.542   3.983   1.821
 1169SOL    HW2 3528   1.475   3.877   1.717
 1170SOL     OW 3529   0.614   3.846   0.117
 1170SOL    HW1 3530   0.712   3.824   0.124
 1170SOL    HW2 3531   0.583   3.829   0.024
 1171SOL     OW 3532   0.781   3.988   1.749
 1171SOL    HW1 3533   0.848   3.927   1.792
 1171SOL    HW2 3534   0.708   4.007   1.814
 1172SOL     OW 3535   1.351   4.314   1.433
 1172SOL    HW1 3536   1.379   4.271   1.518
 1172SOL    HW2 3537   1.376   4.410   1.434
 1173SOL     OW 3538   0.922   4.227   0.899
 1173SOL    HW1 3539   0.897   4.218   0.803
 1173SOL    HW2 3540   0.970   4.145   0.930
 1174SOL     OW 3541   0.539   3.788   0.512
 1174SOL    HW1 3542   0.458   3.789   0.570
 1174SOL    HW2 3543   0.542   3.871   0.457
 1175SOL     OW 3544   0.297   3.759   0.171
 1175SOL    HW1 3545   0.346   3.843   0.150
 1175SOL    HW2 3546   0.359   3.694   0.216
 1176SOL     OW 3547   0.935   3.960   0.480
 1176SOL    HW1 3548   0.887   4.001   0.402
 1176SOL    HW2 3549   1.034   3.958   0.461
 1177SOL     OW 3550   1.076   4.407   1.464
 1177SOL    HW1 3551   0.996   4.346   1.467
 1177SOL    HW2 3552   1.157   4.354   1.440
 1178SOL     OW 3553   0.459   4.876   0.741
 1178SOL    HW1 3554   0.388   4.849   0.806
 1178SOL    HW2 3555   0.433   4.848   0.648
 1179SOL     OW 3556   1.032   4.273   0.016
 1179SOL    HW1 3557   0.991   4.355  -0.023
 1179SOL    HW2 3558   1.096   4.299   0.089
 1180SOL     OW 3559   0.078   4.280   1.386
 1180SOL    HW1 3560   0.170   4.279   1.345
 1180SOL    HW2 3561   0.072   4.354   1.453
 1181SOL     OW 3562   0.561   3.946   1.147
 1181SOL    HW1 3563   0.599   3.862   1.184
 1181SOL    HW2 3564   0.473   3.965   1.191
 1182SOL     OW 3565   0.866   4.178   0.642
 1182SOL    HW1 3566   0.834   4.250   0.580
 1182SOL    HW2 3567   0.890   4.097   0.589
 1183SOL     OW 3568   1.017   3.763   0.753
 1183SOL    HW1 3569   0.945   3.768   0.684
 1183SOL    HW2 3570   0.993   3.694   0.822
 1184SOL     OW 3571   1.429   4.897   0.867
 1184SOL    HW1 3572   1.374   4.813   0.860
 1184SOL    HW2 3573   1.455   4.926   0.775
 1185SOL     OW 3574   1.466   4.314   0.992
 1185SOL    HW1 3575   1.436   4.219   0.999
 1185SOL    HW2 3576   1.539   4.330   1.058
 1186SOL     OW 3577   1.857   4.557   0.377
 1186SOL    HW1 3578   1.899   4.493   0.441
 1186SOL    HW2 3579   1.819   4.506   0.299
 1187SOL     OW 3580   1.390   4.299   0.078
 1187SOL    HW1 3581   1.336   4.278   0.159
 1187SOL    HW2 3582   1.481   4.258   0.087
 1188SOL     OW 3583   0.527   3.980   0.328
 1188SOL    HW1 3584   0.554   3.921   0.253
 1188SOL    HW2 3585   0.527   4.075   0.297
 1189SOL     OW 3586   1.754   4.947   1.588
 1189SOL    HW1 3587   1.845   4.908   1.575
 1189SOL    HW2 3588   1.762   5.043   1.612
 1190SOL     OW 3589   1.638   4.823   1.079
 1190SOL    HW1 3590   1.643   4.904   1.138
 1190SOL    HW2 3591   1.552   4.825   1.028
 1191SOL     OW 3592   0.915   3.813   1.402
 1191SOL    HW1 3593   0.940   3.793   1.307
 1191SOL    HW2 3594   0.987   3.869   1.444
 1192SOL     OW 3595   0.980   4.840   1.719
 1192SOL    HW1 3596   0.881   4.846   1.729
 1192SOL    HW2 3597   1.003   4.760   1.663
 1193SOL     OW 3598   0.705   4.774   0.368
 1193SOL    HW1 3599   0.691   4.781   0.467
 1193SOL    HW2 3600   0.789   4.723   0.350
 1194SOL     OW 3601   0.410   4.537   1.251
 1194SOL    HW1 3602   0.496   4.549   1.301
 1194SOL    HW2 3603   0.368   4.450   1.278
 1195SOL     OW 3604   1.274   4.110   1.262
 1195SOL    HW1 3605   1.295   4.184   1.326
 1195SOL    HW2 3606   1.185   4.127   1.219
 1196SOL     OW 3607   0.367   4.824   0.501
 1196SOL    HW1 3608   0.360   4.907   0.445
 1196SOL    HW2 3609   0.371   4.744   0.441
 1197SOL     OW 3610   0.566   4.261   0.865
 1197SOL    HW1 3611   0.578   4.327   0.791
 1197SOL    HW2 3612   0.612   4.295   0.948
 1198SOL     OW 3613   1.582   4.363   0.472
 1198SOL    HW1 3614   1.551   4.424   0.545
 1198SOL    HW2 3615   1.632   4.415   0.403
 1199SOL     OW 3616   0.402   4.475   1.598
 1199SOL    HW1 3617   0.470   4.530   1.551
 1199SOL    HW2 3618   0.442   4.387   1.625
 1200SOL     OW 3619   1.587   4.503   1.670
 1200SOL    HW1 3620   1.495   4.541   1.665
 1200SOL    HW2 3621   1.647   4.550   1.605
 1201SOL     OW 3622   1.013   3.829   1.770
 1201SOL    HW1 3623   1.019   3.914   1.718
 1201SOL    HW2 3624   1.045   3.753   1.713
 1202SOL     OW 3625   0.504   3.774   1.740
 1202SOL    HW1 3626   0.462   3.717   1.670
 1202SOL    HW2 3627   0.438   3.843   1.772
 1203SOL     OW 3628   0.573   4.594   1.029
 1203SOL    HW1 3629   0.617   4.683   1.020
 1203SOL    HW2 3630   0.510   4.594   1.106
 1204SOL     OW 3631   1.360   4.586   1.045
 1204SOL    HW1 3632   1.285   4.586   0.979
 1204SOL    HW2 3633   1.397   4.494   1.054
 1205SOL     OW 3634   1.209   4.249   0.275
 1205SOL    HW1 3635   1.222   4.165   0.329
 1205SOL    HW2 3636   1.180   4.323   0.335
 1206SOL     OW 3637   0.307   3.937   1.231
 1206SOL    HW1 3638   0.284   3.974   1.321
 1206SOL    HW2 3639   0.277   3.842   1.225
 1207SOL     OW 3640   0.037   5.034   1.282
 1207SOL    HW1 3641   0.090   4.985   1.350
 1207SOL    HW2 3642   0.059   5.132   1.287
 1208SOL     OW 3643   0.732   4.358   1.064
 1208SOL    HW1 3644   0.791   4.332   0.988
 1208SOL    HW2 3645   0.704   4.454   1.053
 1209SOL     OW 3646   1.728   4.659   1.854
 1209SOL    HW1 3647   1.682   4.652   1.765
 1209SOL    HW2 3648   1.666   4.703   1.920
 1210SOL     OW 3649   0.307   3.787   0.618
 1210SOL    HW1 3650   0.296   3.881   0.651
 1210SOL    HW2 3651   0.302   3.724   0.695
 1211SOL     OW 3652   1.622   4.091   0.374
 1211SOL    HW1 3653   1.624   4.015   0.438
 1211SOL    HW2 3654   1.574   4.168   0.414
 1212SOL     OW 3655   1.023   4.490   0.966
 1212SOL    HW1 3656   1.038   4.511   1.062
 1212SOL    HW2 3657   0.993   4.395   0.957
 1213SOL     OW 3658   0.350   4.622   1.804
 1213SOL    HW1 3659   0.426   4.666   1.852
 1213SOL    HW2 3660   0.385   4.575   1.722
 1214SOL     OW 3661   1.540   3.998   0.125
 1214SOL    HW1 3662   1.479   3.923   0.148
 1214SOL    HW2 3663   1.562   4.050   0.208
 1215SOL     OW 3664   1.303   4.562   0.042
 1215SOL    HW1 3665   1.337   4.469   0.057
 1215SOL    HW2 3666   1.321   4.589  -0.053
 1216SOL     OW 3667   0.319   4.534   0.949
 1216SOL    HW1 3668   0.412   4.570   0.954
 1216SOL    HW2 3669   0.313   4.449   1.001
 1217SOL     OW 3670   0.339   4.233   1.006
 1217SOL    HW1 3671   0.287   4.150   0.989
 1217SOL    HW2 3672   0.416   4.238   0.942
 1218SOL     OW 3673   1.138   4.104   1.678
 1218SOL    HW1 3674   1.093   4.167   1.742
 1218SOL    HW2 3675   1.231   4.135   1.661
 1219SOL     OW 3676   1.160   3.931   1.477
 1219SOL    HW1 3677   1.160   3.995   1.554
 1219SOL    HW2 3678   1.188   3.979   1.394
 1220SOL     OW 3679   1.002   4.520   1.238
 1220SOL    HW1 3680   1.043   4.488   1.324
 1220SOL    HW2 3681   0.906   4.493   1.235
 1221SOL     OW 3682   0.040   4.268   1.114
 1221SOL    HW1 3683   0.125   4.235   1.073
 1221SOL    HW2 3684   0.053   4.283   1.212
 1222SOL     OW 3685   0.189   4.244   1.722
 1222SOL    HW1 3686   0.248   4.204   1.652
 1222SOL    HW2 3687   0.131   4.315   1.681
 1223SOL     OW 3688   1.369   4.674   1.660
 1223SOL    HW1 3689   1.408   4.763   1.680
 1223SOL    HW2 3690   1.379   4.654   1.563
 1224SOL     OW 3691   0.815   4.296   0.325
 1224SOL    HW1 3692   0.822   4.207   0.279
 1224SOL    HW2 3693   0.721   4.330   0.317
 1225SOL     OW 3694   1.657   4.328   1.206
 1225SOL    HW1 3695   1.619   4.259   1.268
 1225SOL    HW2 3696   1.739   4.292   1.162
 1226SOL     OW 3697   0.671   4.188   1.269
 1226SOL    HW1 3698   0.637   4.099   1.239
 1226SOL    HW2 3699   0.697   4.242   1.189
 1227SOL     OW 3700   0.473   4.224   0.191
 1227SOL    HW1 3701   0.534   4.304   0.195
 1227SOL    HW2 3702   0.378   4.255   0.198
 1228SOL     OW 3703   0.159   4.861   1.466
 1228SOL    HW1 3704   0.181   4.800   1.542
 1228SOL    HW2 3705   0.169   4.812   1.380
 1229SOL     OW 3706   1.347   4.783   1.234
 1229SOL    HW1 3707   1.371   4.720   1.160
 1229SOL    HW2 3708   1.257   4.823   1.216
 1230SOL     OW 3709   1.302   4.579   0.309
 1230SOL    HW1 3710   1.216   4.548   0.351
 1230SOL    HW2 3711   1.298   4.565   0.210
 1231SOL     OW 3712   0.083   4.982   1.022
 1231SOL    HW1 3713   0.078   4.981   1.122
 1231SOL    HW2 3714   0.000   4.941   0.984
 1232SOL     OW 3715   0.903   3.810   0.133
 1232SOL    HW1 3716   0.954   3.811   0.047
 1232SOL    HW2 3717   0.959   3.768   0.204
 1233SOL     OW 3718   1.726   3.859   0.523
 1233SOL    HW1 3719   1.799   3.842   0.456
 1233SOL    HW2 3720   1.695   3.772   0.561
 1234SOL     OW 3721   1.280   4.651   0.672
 1234SOL    HW1 3722   1.340   4.570   0.674
 1234SOL    HW2 3723   1.320   4.720   0.612
 1235SOL     OW 3724   1.841   3.899   0.963
 1235SOL    HW1 3725   1.880   3.814   0.927
 1235SOL    HW2 3726   1.743   3.901   0.944
 1236SOL     OW 3727   0.263   4.050   0.720
 1236SOL    HW1 3728   0.184   4.101   0.686
 1236SOL    HW2 3729   0.254   4.035   0.818
 1237SOL     OW 3730   0.822   4.726   1.372
 1237SOL    HW1 3731   0.862   4.725   1.280
 1237SOL    HW2 3732   0.832   4.818   1.412
 1238SOL     OW 3733   0.916   4.634   0.291
 1238SOL    HW1 3734   0.979   4.672   0.223
 1238SOL    HW2 3735   0.956   4.551   0.330
 1239SOL     OW 3736   0.372   5.012   1.490
 1239SOL    HW1 3737   0.359   5.105   1.456
 1239SOL    HW2 3738   0.288   4.960   1.477
 1240SOL     OW 3739   1.039   4.822   0.696
 1240SOL    HW1 3740   0.969   4.775   0.750
 1240SOL    HW2 3741   1.098   4.754   0.653
 1241SOL     OW 3742   1.014   3.960   0.971
 1241SOL    HW1 3743   1.006   3.924   0.878
 1241SOL    HW2 3744   1.012   3.884   1.036
 1242SOL     OW 3745   1.709   4.109   1.381
 1242SOL    HW1 3746   1.782   4.178   1.385
 1242SOL    HW2 3747   1.737   4.034   1.322
 1243SOL     OW 3748   0.105   4.737   1.726
 1243SOL    HW1 3749   0.028   4.704   1.780
 1243SOL    HW2 3750   0.190   4.707   1.768
 1244SOL     OW 3751   0.672   3.927   1.489
 1244SOL    HW1 3752   0.762   3.911   1.449
 1244SOL    HW2 3753   0.680   3.932   1.588
 1245SOL     OW 3754   0.075   4.069   0.033
 1245SOL    HW1 3755  -0.017   4.041   0.004
 1245SOL    HW2 3756   0.106   4.146  -0.023
 1246SOL     OW 3757   1.440   4.580   1.398
 1246SOL    HW1 3758   1.383   4.632   1.335
 1246SOL    HW2 3759   1.536   4.592   1.374
 1247SOL     OW 3760   0.072   3.890   0.318
 1247SOL    HW1 3761   0.055   3.973   0.264
 1247SOL    HW2 3762   0.162   3.853   0.296
 1248SOL     OW 3763   0.613   4.566   1.431
 1248SOL    HW1 3764   0.669   4.647   1.414
 1248SOL    HW2 3765   0.672   4.486   1.434
 1249SOL     OW 3766   0.716   4.289   1.708
 1249SOL    HW1 3767   0.735   4.354   1.782
 1249SOL    HW2 3768   0.776   4.209   1.717
 1250SOL     OW 3769   1.450   4.944   1.633
 1250SOL    HW1 3770   1.441   4.934   1.732
 1250SOL    HW2 3771   1.546   4.937   1.607
 1251SOL     OW 3772   1.674   4.607   1.254
 1251SOL    HW1 3773   1.647   4.518   1.217
 1251SOL    HW2 3774   1.675   4.675   1.181
 1252SOL     OW 3775   1.225   4.049   0.449
 1252SOL    HW1 3776   1.290   3.975   0.438
 1252SOL    HW2 3777   1.245   4.099   0.533
 1253SOL     OW 3778   0.594   4.469   0.652
 1253SOL    HW1 3779   0.644   4.554   0.633
 1253SOL    HW2 3780   0.506   4.471   0.604
 1254SOL     OW 3781   1.777   4.066   1.642
 1254SOL    HW1 3782   1.760   4.097   1.548
 1254SOL    HW2 3783   1.693   4.029   1.680
 1255SOL     OW 3784   1.730   4.658   1.517
 1255SOL    HW1 3785   1.768   4.749   1.532
 1255SOL    HW2 3786   1.722   4.641   1.418
 1256SOL     OW 3787   0.859   4.680   0.861
 1256SOL    HW1 3788   0.913   4.611   0.909
 1256SOL    HW2 3789   0.827   4.749   0.927
 1257SOL     OW 3790   1.083   4.708   0.087
 1257SOL    HW1 3791   1.060   4.761   0.005
 1257SOL    HW2 3792   1.164   4.652   0.068
 1258SOL     OW 3793   0.079   4.964   0.653
 1258SOL    HW1 3794   0.078   4.917   0.741
 1258SOL    HW2 3795   0.161   4.936   0.602
 1259SOL     OW 3796   1.824   3.916   1.227
 1259SOL    HW1 3797   1.820   3.826   1.271
 1259SOL    HW2 3798   1.827   3.905   1.128
 1260SOL     OW 3799   0.428   4.148   0.520
 1260SOL    HW1 3800   0.458   4.076   0.458
 1260SOL    HW2 3801   0.389   4.108   0.603
 1261SOL     OW 3802   0.317   4.271   1.280
 1261SOL    HW1 3803   0.355   4.212   1.352
 1261SOL    HW2 3804   0.357   4.245   1.192
 1262SOL     OW 3805   1.424   3.938   1.112
 1262SOL    HW1 3806   1.476   3.873   1.167
 1262SOL    HW2 3807   1.375   4.001   1.173
 1263SOL     OW 3808   1.001   3.758   1.154
 1263SOL    HW1 3809   0.938   3.686   1.123
 1263SOL    HW2 3810   1.094   3.722   1.154
 1264SOL     OW 3811   0.770   5.054   0.301
 1264SOL    HW1 3812   0.724   4.967   0.318
 1264SOL    HW2 3813   0.861   5.051   0.342
 1265SOL     OW 3814   1.352   3.776   0.168
 1265SOL    HW1 3815   1.387   3.735   0.084
 1265SOL    HW2 3816   1.262   3.738   0.188
 1266SOL     OW 3817   1.300   4.177   0.691
 1266SOL    HW1 3818   1.241   4.257   0.695
 1266SOL    HW2 3819   1.315   4.142   0.784
 1267SOL     OW 3820   1.593   3.945   0.882
 1267SOL    HW1 3821   1.509   3.944   0.936
 1267SOL    HW2 3822   1.595   4.028   0.826
 1268SOL     OW 3823   0.039   4.801   0.300
 1268SOL    HW1 3824   0.138   4.790   0.291
 1268SOL    HW2 3825  -0.001   4.715   0.332
 1269SOL     OW 3826   0.230   4.352   1.975
 1269SOL    HW1 3827   0.137   4.350   2.012
 1269SOL    HW2 3828   0.231   4.313   1.883
 1270SOL     OW 3829   0.225   3.999   2.858
 1270SOL    HW1 3830   0.260   3.982   2.950
 1270SOL    HW2 3831   0.137   3.954   2.846
 1271SOL     OW 3832   0.019   4.092   2.509
 1271SOL    HW1 3833  -0.063   4.135   2.548
 1271SOL    HW2 3834  -0.009   4.019   2.446
 1272SOL     OW 3835   1.135   4.427   2.579
 1272SOL    HW1 3836   1.192   4.505   2.554
 1272SOL    HW2 3837   1.075   4.453   2.655
 1273SOL     OW 3838   1.755   4.331   2.093
 1273SOL    HW1 3839   1.743   4.318   1.994
 1273SOL    HW2 3840   1.725   4.250   2.142
 1274SOL     OW 3841   0.768   4.868   2.885
 1274SOL    HW1 3842   0.690   4.885   2.945
 1274SOL    HW2 3843   0.802   4.955   2.849
 1275SOL     OW 3844   0.850   4.522   3.685
 1275SOL    HW1 3845   0.846   4.598   3.750
 1275SOL    HW2 3846   0.872   4.558   3.594
 1276SOL     OW 3847   0.685   4.736   2.527
 1276SOL    HW1 3848   0.754   4.720   2.597
 1276SOL    HW2 3849   0.612   4.793   2.565
 1277SOL     OW 3850   1.460   5.229   3.201
 1277SOL    HW1 3851   1.484   5.323   3.227
 1277SOL    HW2 3852   1.444   5.175   3.283
 1278SOL     OW 3853   0.438   4.116   3.361
 1278SOL    HW1 3854   0.520   4.060   3.370
 1278SOL    HW2 3855   0.357   4.058   3.365
 1279SOL     OW 3856   1.603   4.171   2.599
 1279SOL    HW1 3857   1.529   4.217   2.549
 1279SOL    HW2 3858   1.654   4.239   2.652
 1280SOL     OW 3859   0.240   4.815   2.748
 1280SOL    HW1 3860   0.254   4.731   2.800
 1280SOL    HW2 3861   0.185   4.879   2.803
 1281SOL     OW 3862   0.606   4.688   1.985
 1281SOL    HW1 3863   0.613   4.772   1.931
 1281SOL    HW2 3864   0.652   4.701   2.073
 1282SOL     OW 3865   1.594   3.838   3.342
 1282SOL    HW1 3866   1.576   3.905   3.270
 1282SOL    HW2 3867   1.591   3.884   3.431
 1283SOL     OW 3868   0.122   4.367   2.425
 1283SOL    HW1 3869   0.077   4.279   2.442
 1283SOL    HW2 3870   0.121   4.421   2.509
 1284SOL     OW 3871   1.689   4.646   2.474
 1284SOL    HW1 3872   1.784   4.617   2.482
 1284SOL    HW2 3873   1.681   4.711   2.399
 1285SOL     OW 3874   0.113   4.461   3.459
 1285SOL    HW1 3875   0.201   4.448   3.504
 1285SOL    HW2 3876   0.100   4.558   3.437
 1286SOL     OW 3877   0.613   5.089   2.588
 1286SOL    HW1 3878   0.564   5.002   2.597
 1286SOL    HW2 3879   0.590   5.132   2.501
 1287SOL     OW 3880   1.293   4.952   3.285
 1287SOL    HW1 3881   1.330   4.879   3.227
 1287SOL    HW2 3882   1.345   4.957   3.370
 1288SOL     OW 3883   0.809   3.728   2.364
 1288SOL    HW1 3884   0.849   3.819   2.355
 1288SOL    HW2 3885   0.709   3.736   2.370
 1289SOL     OW 3886   0.197   4.700   3.126
 1289SOL    HW1 3887   0.286   4.655   3.112
 1289SOL    HW2 3888   0.124   4.635   3.107
 1290SOL     OW 3889   1.525   4.723   2.052
 1290SOL    HW1 3890   1.462   4.647   2.065
 1290SOL    HW2 3891   1.573   4.741   2.138
 1291SOL     OW 3892   0.317   3.975   3.663
 1291SOL    HW1 3893   0.388   4.046   3.669
 1291SOL    HW2 3894   0.229   4.014   3.691
 1292SOL     OW 3895   0.598   4.453   2.132
 1292SOL    HW1 3896   0.622   4.522   2.064
 1292SOL    HW2 3897   0.520   4.486   2.186
 1293SOL     OW 3898   1.281   4.069   2.806
 1293SOL    HW1 3899   1.195   4.019   2.793
 1293SOL    HW2 3900   1.343   4.015   2.862
 1294SOL     OW 3901   0.807   4.329   3.327
 1294SOL    HW1 3902   0.760   4.326   3.416
 1294SOL    HW2 3903   0.756   4.274   3.261
 1295SOL     OW 3904   1.394   4.193   3.536
 1295SOL    HW1 3905   1.374   4.236   3.624
 1295SOL    HW2 3906   1.472   4.131   3.545
 1296SOL     OW 3907   0.973   4.614   3.434
 1296SOL    HW1 3908   1.019   4.530   3.405
 1296SOL    HW2 3909   0.917   4.648   3.359
 1297SOL     OW 3910   0.991   4.134   3.104
 1297SOL    HW1 3911   0.914   4.168   3.158
 1297SOL    HW2 3912   0.957   4.083   3.025
 1298SOL     OW 3913   1.041   4.425   2.291
 1298SOL    HW1 3914   1.067   4.421   2.387
 1298SOL    HW2 3915   0.956   4.374   2.277
 1299SOL     OW 3916   0.076   4.535   2.651
 1299SOL    HW1 3917   0.175   4.523   2.660
 1299SOL    HW2 3918   0.052   4.630   2.672
 1300SOL     OW 3919   0.865   4.072   2.057
 1300SOL    HW1 3920   0.924   4.135   2.008
 1300SOL    HW2 3921   0.884   3.978   2.028
 1301SOL     OW 3922   1.719   4.309   3.693
 1301SOL    HW1 3923   1.693   4.398   3.657
 1301SOL    HW2 3924   1.717   4.241   3.620
 1302SOL     OW 3925   1.362   4.868   2.407
 1302SOL    HW1 3926   1.445   4.839   2.359
 1302SOL    HW2 3927   1.313   4.935   2.351
 1303SOL     OW 3928   0.550   3.920   2.747
 1303SOL    HW1 3929   0.545   3.915   2.847
 1303SOL    HW2 3930   0.552   4.016   2.718
 1304SOL     OW 3931   1.795   4.790   2.735
 1304SOL    HW1 3932   1.733   4.775   2.659
 1304SOL    HW2 3933   1.743   4.801   2.820
 1305SOL     OW 3934   0.321   4.667   2.104
 1305SOL    HW1 3935   0.403   4.706   2.062
 1305SOL    HW2 3936   0.294   4.585   2.055
 1306SOL     OW 3937   1.458   4.459   2.590
 1306SOL    HW1 3938   1.453   4.394   2.665
 1306SOL    HW2 3939   1.538   4.518   2.603
 1307SOL     OW 3940   0.202   4.009   3.360
 1307SOL    HW1 3941   0.122   4.069   3.347
 1307SOL    HW2 3942   0.192   3.960   3.446
 1308SOL     OW 3943   1.400   3.831   2.288
 1308SOL    HW1 3944   1.376   3.794   2.198
 1308SOL    HW2 3945   1.499   3.847   2.292
 1309SOL     OW 3946   0.382   4.424   2.342
 1309SOL    HW1 3947   0.427   4.334   2.339
 1309SOL    HW2 3948   0.288   4.413   2.375
 1310SOL     OW 3949   1.547   3.946   3.591
 1310SOL    HW1 3950   1.542   3.983   3.683
 1310SOL    HW2 3951   1.475   3.877   3.579
 1311SOL     OW 3952   0.614   3.846   1.979
 1311SOL    HW1 3953   0.712   3.824   1.986
 1311SOL    HW2 3954   0.583   3.829   1.886
 1312SOL     OW 3955   0.781   3.988   3.611
 1312SOL    HW1 3956   0.848   3.927   3.654
 1312SOL    HW2 3957   0.708   4.007   3.676
 1313SOL     OW 3958   1.351   4.314   3.295
 1313SOL    HW1 3959   1.379   4.271   3.380
 1313SOL    HW2 3960   1.376   4.410   3.296
 1314SOL     OW 3961   0.922   4.227   2.761
 1314SOL    HW1 3962   0.897   4.218   2.665
 1314SOL    HW2 3963   0.970   4.145   2.792
 1315SOL     OW 3964   0.539   3.788   2.374
 1315SOL    HW1 3965   0.458   3.789   2.432
 1315SOL    HW2 3966   0.542   3.871   2.319
 1316SOL     OW 3967   0.297   3.759   2.033
 1316SOL    HW1 3968   0.346   3.843   2.012
 1316SOL    HW2 3969   0.359   3.694   2.078
 1317SOL     OW 3970   0.935   3.960   2.342
 1317SOL    HW1 3971   0.887   4.001   2.264
 1317SOL    HW2 3972   1.034   3.958   2.323
 1318SOL     OW 3973   1.076   4.407   3.326
 1318SOL    HW1 3974   0.996   4.346   3.329
 1318SOL    HW2 3975   1.157   4.354   3.302
 1319SOL     OW 3976   0.459   4.876   2.603
 1319SOL    HW1 3977   0.388   4.849   2.668
 1319SOL    HW2 3978   0.433   4.848   2.510
 1320SOL     OW 3979   1.032   4.273   1.878
 1320SOL    HW1 3980   0.991   4.355   1.839
 1320SOL    HW2 3981   1.096   4.299   1.951
 1321SOL     OW 3982   0.078   4.280   3.248
 1321SOL    HW1 3983   0.170   4.279   3.207
 1321SOL    HW2 3984   0.072   4.354   3.315
 1322SOL     OW 3985   0.561   3.946   3.009
 1322SOL    HW1 3986   0.599   3.862   3.046
 1322SOL    HW2 3987   0.473   3.965   3.053
 1323SOL     OW 3988   0.866   4.178   2.504
 1323SOL    HW1 3989   0.834   4.250   2.442
 1323SOL    HW2 3990   0.890   4.097   2.451
 1324SOL     OW 3991   1.017   3.763   2.615
 1324SOL    HW1 3992   0.945   3.768   2.546
 1324SOL    HW2 3993   0.993   3.694   2.684
 1325SOL     OW 3994   1.429   4.897   2.729
 1325SOL    HW1 3995   1.374   4.813   2.722
 1325SOL    HW2 3996   1.455   4.926   2.637
 1326SOL     OW 3997   1.466   4.314   2.854
 1326SOL    HW1 3998   1.436   4.219   2.861
 1326SOL    HW2 3999   1.539   4.330   2.920
 1327SOL     OW 4000   1.857   4.557   2.239
 1327SOL    HW1 4001   1.899   4.493   2.303
 1327SOL    HW2 4002   1.819   4.506   2.161
 1328SOL     OW 4003   1.390   4.299   1.940
 1328SOL    HW1 4004   1.336   4.278   2.021
 1328SOL    HW2 4005   1.481   4.258   1.949
 1329SOL     OW 4006   0.527   3.980   2.190
 1329SOL    HW1 4007   0.554   3.921   2.115
 1329SOL    HW2 4008   0.527   4.075   2.159
 1330SOL     OW 4009   1.754   4.947   3.450
 1330SOL    HW1 4010   1.845   4.908   3.437
 1330SOL    HW2 4011   1.762   5.043   3.474
 1331SOL     OW 4012   1.638   4.823   2.941
 1331SOL    HW1 4013   1.643   4.904   3.000
 1331SOL    HW2 4014   1.552   4.825   2.890
 1332SOL     OW 4015   0.915   3.813   3.264
 1332SOL    HW1 4016   0.940   3.793   3.169
 1332SOL    HW2 4017   0.987   3.869   3.306
 1333SOL     OW 4018   0.980   4.840   3.581
 1333SOL    HW1 4019   0.881   4.846   3.591
 1333SOL    HW2 4020   1.003   4.760   3.525
 1334SOL     OW 4021   0.705   4.774   2.230
 1334SOL    HW1 4022   0.691   4.781   2.329
 1334SOL    HW2 4023   0.789   4.723   2.212
 1335SOL     OW 4024   0.410   4.537   3.113
 1335SOL    HW1 4025   0.496   4.549   3.163
 1335SOL    HW2 4026   0.368   4.450   3.140
 1336SOL     OW 4027   1.274   4.110   3.124
 1336SOL    HW1 4028   1.295   4.184   3.188
 1336SOL    HW2 4029   1.185   4.127   3.081
 1337SOL     OW 4030   0.367   4.824   2.363
 1337SOL    HW1 4031   0.360   4.907   2.307
 1337SOL    HW2 4032   0.371   4.744   2.303
 1338SOL     OW 4033   0.566   4.261   2.727
 1338SOL    HW1 4034   0.578   4.327   2.653
 1338SOL    HW2 4035   0.612   4.295   2.810
 1339SOL     OW 4036   1.582   4.363   2.334
 1339SOL    HW1 4037   1.551   4.424   2.407
 1339SOL    HW2 4038   1.632   4.415   2.265
 1340SOL     OW 4039   0.402   4.475   3.460
 1340SOL    HW1 4040   0.470   4.530   3.413
 1340SOL    HW2 4041   0.442   4.387   3.487
 1341SOL     OW 4042   1.587   4.503   3.532
 1341SOL    HW1 4043   1.495   4.541   3.527
 1341SOL    HW2 4044   1.647   4.550   3.467
 1342SOL     OW 4045   1.013   3.829   3.632
 1342SOL    HW1 4046   1.019   3.914   3.580
 1342SOL    HW2 4047   1.045   3.753   3.575
 1343SOL     OW 4048   0.504   3.774   3.602
 1343SOL    HW1 4049   0.462   3.717   3.532
 1343SOL    HW2 4050   0.438   3.843   3.634
 1344SOL     OW 4051   0.573   4.594   2.891
 1344SOL    HW1 4052   0.617   4.683   2.882
 1344SOL    HW2 4053   0.510   4.594   2.968
 1345SOL     OW 4054   1.360   4.586   2.907
 1345SOL    HW1 4055   1.285   4.586   2.841
 1345SOL    HW2 4056   1.397   4.494   2.916
 1346SOL     OW 4057   1.209   4.249   2.137
 1346SOL    HW1 4058   1.222   4.165   2.191
 1346SOL    HW2 4059   1.180   4.323   2.197
 1347SOL     OW 4060   0.307   3.937   3.093
 1347SOL    HW1 4061   0.284   3.974   3.183
 1347SOL    HW2 4062   0.277   3.842   3.087
 1348SOL     OW 4063   0.037   5.034   3.144
 1348SOL    HW1 4064   0.090   4.985   3.212
 1348SOL    HW2 4065   0.059   5.132   3.149
 1349SOL     OW 4066   0.732   4.358   2.926
 1349SOL    HW1 4067   0.791   4.332   2.850
 1349SOL    HW2 4068   0.704   4.454   2.915
 1350SOL     OW 4069   1.728   4.659   3.716
 1350SOL    HW1 4070   1.682   4.652   3.627
 1350SOL    HW2 4071   1.666   4.703   3.782
 1351SOL     OW 4072   0.307   3.787   2.480
 1351SOL    HW1 4073   0.296   3.881   2.513
 1351SOL    HW2 4074   0.302   3.724   2.557
 1352SOL     OW 4075   1.622   4.091   2.236
 1352SOL    HW1 4076   1.624   4.015   2.300
 1352SOL    HW2 4077   1.574   4.168   2.276
 1353SOL     OW 4078   1.023   4.490   2.828
 1353SOL    HW1 4079   1.038   4.511   2.924
 1353SOL    HW2 4080   0.993   4.395   2.819
 1354SOL     OW 4081   0.350   4.622   3.666
 1354SOL    HW1 4082   0.426   4.666   3.714
 1354SOL    HW2 4083   0.385   4.575   3.584
 1355SOL     OW 4084   1.540   3.998   1.987
 1355SOL    HW1 4085   1.479   3.923   2.010
 1355SOL    HW2 4086   1.562   4.050   2.070
 1356SOL     OW 4087   1.303   4.562   1.904
 1356SOL    HW1 4088   1.337   4.469   1.919
 1356SOL    HW2 4089   1.321   4.589   1.809
 1357SOL     OW 4090   0.319   4.534   2.811
 1357SOL    HW1 4091   0.412   4.570   2.816
 1357SOL    HW2 4092   0.313   4.449   2.863
 1358SOL     OW 4093   0.339   4.233   2.868
 1358SOL    HW1 4094   0.287   4.150   2.851
 1358SOL    HW2 4095   0.416   4.238   2.804
 1359SOL     OW 4096   1.138   4.104   3.540
 1359SOL    HW1 4097   1.093   4.167   3.604
 1359SOL    HW2 4098   1.231   4.135   3.523
 1360SOL     OW 4099   1.160   3.931   3.339
 1360SOL    HW1 4100   1.160   3.995   3.416
 1360SOL    HW2 4101   1.188   3.979   3.256
 1361SOL     OW 4102   1.002   4.520   3.100
 1361SOL    HW1 4103   1.043   4.488   3.186
 1361SOL    HW2 4104   0.906   4.493   3.097
 1362SOL     OW 4105   0.040   4.268   2.976
 1362SOL    HW1 4106   0.125   4.235   2.935
 1362SOL    HW2 4107   0.053   4.283   3.074
 1363SOL     OW 4108   0.189   4.244   3.584
 1363SOL    HW1 4109   0.248   4.204   3.514
 1363SOL    HW2 4110   0.131   4.315   3.543
 1364SOL     OW 4111   1.369   4.674   3.522
 1364SOL    HW1 4112   1.408   4.763   3.542
 1364SOL    HW2 4113   1.379   4.654   3.425
 1365SOL     OW 4114   0.815   4.296   2.187
 1365SOL    HW1 4115   0.822   4.207   2.141
 1365SOL    HW2 4116   0.721   4.330   2.179
 1366SOL     OW 4117   1.657   4.328   3.068
 1366SOL    HW1 4118   1.619   4.259   3.130
 1366SOL    HW2 4119   1.739   4.292   3.024
 1367SOL     OW 4120   0.671   4.188   3.131
 1367SOL    HW1 4121   0.637   4.099   3.101
 1367SOL    HW2 4122   0.697   4.242   3.051
 1368SOL     OW 4123   0.473   4.224   2.053
 1368SOL    HW1 4124   0.534   4.304   2.057
 1368SOL    HW2 4125   0.378   4.255   2.060
 1369SOL     OW 4126   0.159   4.861   3.328
 1369SOL    HW1 4127   0.181   4.800   3.404
 1369SOL    HW2 4128   0.169   4.812   3.242
 1370SOL     OW 4129   1.347   4.783   3.096
 1370SOL    HW1 4130   1.371   4.720   3.022
 1370SOL    HW2 4131   1.257   4.823   3.078
 1371SOL     OW 4132   1.302   4.579   2.171
 1371SOL    HW1 4133   1.216   4.548   2.213
 1371SOL    HW2 4134   1.298   4.565   2.072
 1372SOL     OW 4135   0.083   4.982   2.884
 1372SOL    HW1 4136   0.078   4.981   2.984
 1372SOL    HW2 4137   0.000   4.941   2.846
 1373SOL     OW 4138   1.726   3.859   2.385
 1373SOL    HW1 4139   1.799   3.842   2.318
 1373SOL    HW2 4140   1.695   3.772   2.423
 1374SOL     OW 4141   1.280   4.651   2.534
 1374SOL    HW1 4142   1.340   4.570   2.536
 1374SOL    HW2 4143   1.320   4.720   2.474
 1375SOL     OW 4144   1.841   3.899   2.825
 1375SOL    HW1 4145   1.880   3.814   2.789
 1375SOL    HW2 4146   1.743   3.901   2.806
 1376SOL     OW 4147   0.263   4.050   2.582
 1376SOL    HW1 4148   0.184   4.101   2.548
 1376SOL    HW2 4149   0.254   4.035   2.680
 1377SOL     OW 4150   0.822   4.726   3.234
 1377SOL    HW1 4151   0.862   4.725   3.142
 1377SOL    HW2 4152   0.832   4.818   3.274
 1378SOL     OW 4153   0.916   4.634   2.153
 1378SOL    HW1 4154   0.979   4.672   2.085
 1378SOL    HW2 4155   0.956   4.551   2.192
 1379SOL     OW 4156   0.372   5.012   3.352
 1379SOL    HW1 4157   0.359   5.105   3.318
 1379SOL    HW2 4158   0.288   4.960   3.339
 1380SOL     OW 4159   1.039   4.822   2.558
 1380SOL    HW1 4160   0.969   4.775   2.612
 1380SOL    HW2 4161   1.098   4.754   2.515
 1381SOL     OW 4162   1.014   3.960   2.833
 1381SOL    HW1 4163   1.006   3.924   2.740
 1381SOL    HW2 4164   1.012   3.884   2.898
 1382SOL     OW 4165   1.709   4.109   3.243
 1382SOL    HW1 4166   1.782   4.178   3.247
 1382SOL    HW2 4167   1.737   4.034   3.184
 1383SOL     OW 4168   0.105   4.737   3.588
 1383SOL    HW1 4169   0.028   4.704   3.642
 1383SOL    HW2 4170   0.190   4.707   3.630
 1384SOL     OW 4171   0.672   3.927   3.351
 1384SOL    HW1 4172   0.762   3.911   3.311
 1384SOL    HW2 4173   0.680   3.932   3.450
 1385SOL     OW 4174   0.075   4.069   1.895
 1385SOL    HW1 4175  -0.017   4.041   1.866
 1385SOL    HW2 4176   0.106   4.146   1.839
 1386SOL     OW 4177   1.440   4.580   3.260
 1386SOL    HW1 4178   1.383   4.632   3.197
 1386SOL    HW2 4179   1.536   4.592   3.236
 1387SOL     OW 4180   0.072   3.890   2.180
 1387SOL    HW1 4181   0.055   3.973   2.126
 1387SOL    HW2 4182   0.162   3.853   2.158
 1388SOL     OW 4183   0.613   4.566   3.293
 1388SOL    HW1 4184   0.669   4.647   3.276
 1388SOL    HW2 4185   0.672   4.486   3.296
 1389SOL     OW 4186   0.716   4.289   3.570
 1389SOL    HW1 4187   0.735   4.354   3.644
 1389SOL    HW2 4188   0.776   4.209   3.579
 1390SOL     OW 4189   1.450   4.944   3.495
 1390SOL    HW1 4190   1.441   4.934   3.594
 1390SOL    HW2 4191   1.546   4.937   3.469
 1391SOL     OW 4192   1.674   4.607   3.116
 1391SOL    HW1 4193   1.647   4.518   3.079
 1391SOL    HW2 4194   1.675   4.675   3.043
 1392SOL     OW 4195   1.225   4.049   2.311
 1392SOL    HW1 4196   1.290   3.975   2.300
 1392SOL    HW2 4197   1.245   4.099   2.395
 1393SOL     OW 4198   0.594   4.469   2.514
 1393SOL    HW1 4199   0.644   4.554   2.495
 1393SOL    HW2 4200   0.506   4.471   2.466
 1394SOL     OW 4201   1.777   4.066   3.504
 1394SOL    HW1 4202   1.760   4.097   3.410
 1394SOL    HW2 4203   1.693   4.029   3.542
 1395SOL     OW 4204   1.730   4.658   3.379
 1395SOL    HW1 4205   1.768   4.749   3.394
 1395SOL    HW2 4206   1.722   4.641   3.280
 1396SOL     OW 4207   0.859   4.680   2.723
 1396SOL    HW1 4208   0.913   4.611   2.771
 1396SOL    HW2 4209   0.827   4.749   2.789
 1397SOL     OW 4210   1.083   4.708   1.949
 1397SOL    HW1 4211   1.060   4.761   1.867
 1397SOL    HW2 4212   1.164   4.652   1.930
 1398SOL     OW 4213   0.079   4.964   2.515
 1398SOL    HW1 4214   0.078   4.917   2.603
 1398SOL    HW2 4215   0.161   4.936   2.464
 1399SOL     OW 4216   1.824   3.916   3.089
 1399SOL    HW1 4217   1.820   3.826   3.133
 1399SOL    HW2 4218   1.827   3.905   2.990
 1400SOL     OW 4219   0.428   4.148   2.382
 1400SOL    HW1 4220   0.458   4.076   2.320
 1400SOL    HW2 4221   0.389   4.108   2.465
 1401SOL     OW 4222   0.317   4.271   3.142
 1401SOL    HW1 4223   0.355   4.212   3.214
 1401SOL    HW2 4224   0.357   4.245   3.054
 1402SOL     OW 4225   1.424   3.938   2.974
 1402SOL    HW1 4226   1.476   3.873   3.029
 1402SOL    HW2 4227   1.375   4.001   3.035
 1403SOL     OW 4228   1.001   3.758   3.016
 1403SOL    HW1 4229   0.938   3.686   2.985
 1403SOL    HW2 4230   1.094   3.722   3.016
 1404SOL     OW 4231   0.770   5.054   2.163
 1404SOL    HW1 4232   0.724   4.967   2.180
 1404SOL    HW2 4233   0.861   5.051   2.204
 1405SOL     OW 4234   1.352   3.776   2.030
 1405SOL    HW1 4235   1.387   3.735   1.946
 1405SOL    HW2 4236   1.262   3.738   2.050
 1406SOL     OW 4237   1.300   4.177   2.553
 1406SOL    HW1 4238   1.241   4.257   2.557
 1406SOL    HW2 4239   1.315   4.142   2.646
 1407SOL     OW 4240   1.593   3.945   2.744
 1407SOL    HW1 4241   1.509   3.944   2.798
 1407SOL    HW2 4242   1.595   4.028   2.688
 1408SOL     OW 4243   0.039   4.801   2.162
 1408SOL    HW1 4244   0.138   4.790   2.153
 1408SOL    HW2 4245  -0.001   4.715   2.194
 1409SOL     OW 4246   0.230   4.352   3.837
 1409SOL    HW1 4247   0.137   4.350   3.874
 1409SOL    HW2 4248   0.231   4.313   3.745
 1410SOL     OW 4249   0.225   3.999   4.720
 1410SOL    HW1 4250   0.260   3.982   4.812
 1410SOL    HW2 4251   0.137   3.954   4.708
 1411SOL     OW 4252   0.019   4.092   4.371
 1411SOL    HW1 4253  -0.063   4.135   4.410
 1411SOL    HW2 4254  -0.009   4.019   4.308
 1412SOL     OW 4255   1.135   4.427   4.441
 1412SOL    HW1 4256   1.192   4.505   4.416
 1412SOL    HW2 4257   1.075   4.453   4.517
 1413SOL     OW 4258   1.755   4.331   3.955
 1413SOL    HW1 4259   1.743   4.318   3.856
 1413SOL    HW2 4260   1.725   4.250   4.004
 1414SOL     OW 4261   0.768   4.868   4.747
 1414SOL    HW1 4262   0.690   4.885   4.807
 1414SOL    HW2 4263   0.802   4.955   4.711
 1415SOL     OW 4264   0.685   4.736   4.389
 1415SOL    HW1 4265   0.754   4.720   4.459
 1415SOL    HW2 4266   0.612   4.793   4.427
 1416SOL     OW 4267   1.603   4.171   4.461
 1416SOL    HW1 4268   1.529   4.217   4.411
 1416SOL    HW2 4269   1.654   4.239   4.514
 1417SOL     OW 4270   0.240   4.815   4.610
 1417SOL    HW1 4271   0.254   4.731   4.662
 1417SOL    HW2 4272   0.185   4.879   4.665
 1418SOL     OW 4273   0.606   4.688   3.847
 1418SOL    HW1 4274   0.613   4.772   3.793
 1418SOL    HW2 4275   0.652   4.701   3.935
 1419SOL     OW 4276   0.122   4.367   4.287
 1419SOL    HW1 4277   0.077   4.279   4.304
 1419SOL    HW2 4278   0.121   4.421   4.371
 1420SOL     OW 4279   1.689   4.646   4.336
 1420SOL    HW1 4280   1.784   4.617   4.344
 1420SOL    HW2 4281   1.681   4.711   4.261
 1421SOL     OW 4282   0.613   5.089   4.450
 1421SOL    HW1 4283   0.564   5.002   4.459
 1421SOL    HW2 4284   0.590   5.132   4.363
 1422SOL     OW 4285   0.809   3.728   4.226
 1422SOL    HW1 4286   0.849   3.819   4.217
 1422SOL    HW2 4287   0.709   3.736   4.232
 1423SOL     OW 4288   0.197   4.700   4.988
 1423SOL    HW1 4289   0.286   4.655   4.974
 1423SOL    HW2 4290   0.124   4.635   4.969
 1424SOL     OW 4291   1.525   4.723   3.914
 1424SOL    HW1 4292   1.462   4.647   3.927
 1424SOL    HW2 4293   1.573   4.741   4.000
 1425SOL     OW 4294   0.598   4.453   3.994
 1425SOL    HW1 4295   0.622   4.522   3.926
 1425SOL    HW2 4296   0.520   4.486   4.048
 1426SOL     OW 4297   1.281   4.069   4.668
 1426SOL    HW1 4298   1.195   4.019   4.655
 1426SOL    HW2 4299   1.343   4.015   4.724
 1427SOL     OW 4300   1.041   4.425   4.153
 1427SOL    HW1 4301   1.067   4.421   4.249
 1427SOL    HW2 4302   0.956   4.374   4.139
 1428SOL     OW 4303   0.076   4.535   4.513
 1428SOL    HW1 4304   0.175   4.523   4.522
 1428SOL    HW2 4305   0.052   4.630   4.534
 1429SOL     OW 4306   0.865   4.072   3.919
 1429SOL    HW1 4307   0.924   4.135   3.870
 1429SOL    HW2 4308   0.884   3.978   3.890
 1430SOL     OW 4309   1.362   4.868   4.269
 1430SOL    HW1 4310   1.445   4.839   4.221
 1430SOL    HW2 4311   1.313   4.935   4.213
 1431SOL     OW 4312   0.550   3.920   4.609
 1431SOL    HW1 4313   0.545   3.915   4.709
 1431SOL    HW2 4314   0.552   4.016   4.580
 1432SOL     OW 4315   1.795   4.790   4.597
 1432SOL    HW1 4316   1.733   4.775   4.521
 1432SOL    HW2 4317   1.743   4.801   4.682
 1433SOL     OW 4318   0.321   4.667   3.966
 1433SOL    HW1 4319   0.403   4.706   3.924
 1433SOL    HW2 4320   0.294   4.585   3.917
 1434SOL     OW 4321   1.458   4.459   4.452
 1434SOL    HW1 4322   1.453   4.394   4.527
 1434SOL    HW2 4323   1.538   4.518   4.465
 1435SOL     OW 4324   1.400   3.831   4.150
 1435SOL    HW1 4325   1.376   3.794   4.060
 1435SOL    HW2 4326   1.499   3.847   4.154
 1436SOL     OW 4327   0.382   4.424   4.204
 1436SOL    HW1 4328   0.427   4.334   4.201
 1436SOL    HW2 4329   0.288   4.413   4.237
 1437SOL     OW 4330   0.614   3.846   3.841
 1437SOL    HW1 4331   0.712   3.824   3.848
 1437SOL    HW2 4332   0.583   3.829   3.748
 1438SOL     OW 4333   0.922   4.227   4.623
 1438SOL    HW1 4334   0.897   4.218   4.527
 1438SOL    HW2 4335   0.970   4.145   4.654
 1439SOL     OW 4336   0.539   3.788   4.236
 1439SOL    HW1 4337   0.458   3.789   4.294
 1439SOL    HW2 4338   0.542   3.871   4.181
 1440SOL     OW 4339   0.297   3.759   3.895
 1440SOL    HW1 4340   0.346   3.843   3.874
 1440SOL    HW2 4341   0.359   3.694   3.940
 1441SOL     OW 4342   0.935   3.960   4.204
 1441SOL    HW1 4343   0.887   4.001   4.126
 1441SOL    HW2 4344   1.034   3.958   4.185
 1442SOL     OW 4345   0.459   4.876   4.465
 1442SOL    HW1 4346   0.388   4.849   4.530
 1442SOL    HW2 4347   0.433   4.848   4.372
 1443SOL     OW 4348   1.032   4.273   3.740
 1443SOL    HW1 4349   0.991   4.355   3.701
 1443SOL    HW2 4350   1.096   4.299   3.813
 1444SOL     OW 4351   0.866   4.178   4.366
 1444SOL    HW1 4352   0.834   4.250   4.304
 1444SOL    HW2 4353   0.890   4.097   4.313
 1445SOL     OW 4354   1.017   3.763   4.477
 1445SOL    HW1 4355   0.945   3.768   4.408
 1445SOL    HW2 4356   0.993   3.694   4.546
 1446SOL     OW 4357   1.429   4.897   4.591
 1446SOL    HW1 4358   1.374   4.813   4.584
 1446SOL    HW2 4359   1.455   4.926   4.499
 1447SOL     OW 4360   1.466   4.314   4.716
 1447SOL    HW1 4361   1.436   4.219   4.723
 1447SOL    HW2 4362   1.539   4.330   4.782
 1448SOL     OW 4363   1.857   4.557   4.101
 1448SOL    HW1 4364   1.899   4.493   4.165
 1448SOL    HW2 4365   1.819   4.506   4.023
 1449SOL     OW 4366   1.390   4.299   3.802
 1449SOL    HW1 4367   1.336   4.278   3.883
 1449SOL    HW2 4368   1.481   4.258   3.811
 1450SOL     OW 4369   0.527   3.980   4.052
 1450SOL    HW1 4370   0.554   3.921   3.977
 1450SOL    HW2 4371   0.527   4.075   4.021
 1451SOL     OW 4372   1.111   4.919   4.824
 1451SOL    HW1 4373   1.071   4.963   4.905
 1451SOL    HW2 4374   1.070   4.956   4.741
 1452SOL     OW 4375   1.638   4.823   4.803
 1452SOL    HW1 4376   1.643   4.904   4.862
 1452SOL    HW2 4377   1.552   4.825   4.752
 1453SOL     OW 4378   0.705   4.774   4.092
 1453SOL    HW1 4379   0.691   4.781   4.191
 1453SOL    HW2 4380   0.789   4.723   4.074
 1454SOL     OW 4381   0.410   4.537   4.975
 1454SOL    HW1 4382   0.496   4.549   5.025
 1454SOL    HW2 4383   0.368   4.450   5.002
 1455SOL     OW 4384   0.367   4.824   4.225
 1455SOL    HW1 4385   0.360   4.907   4.169
 1455SOL    HW2 4386   0.371   4.744   4.165
 1456SOL     OW 4387   0.566   4.261   4.589
 1456SOL    HW1 4388   0.578   4.327   4.515
 1456SOL    HW2 4389   0.612   4.295   4.672
 1457SOL     OW 4390   1.582   4.363   4.196
 1457SOL    HW1 4391   1.551   4.424   4.269
 1457SOL    HW2 4392   1.632   4.415   4.127
 1458SOL     OW 4393   0.573   4.594   4.753
 1458SOL    HW1 4394   0.617   4.683   4.744
 1458SOL    HW2 4395   0.510   4.594   4.830
 1459SOL     OW 4396   1.209   4.249   3.999
 1459SOL    HW1 4397   1.222   4.165   4.053
 1459SOL    HW2 4398   1.180   4.323   4.059
 1460SOL     OW 4399   0.307   3.937   4.955
 1460SOL    HW1 4400   0.284   3.974   5.045
 1460SOL    HW2 4401   0.277   3.842   4.949
 1461SOL     OW 4402   0.037   5.034   5.006
 1461SOL    HW1 4403   0.090   4.985   5.074
 1461SOL    HW2 4404   0.059   5.132   5.011
 1462SOL     OW 4405   0.732   4.358   4.788
 1462SOL    HW1 4406   0.791   4.332   4.712
 1462SOL    HW2 4407   0.704   4.454   4.777
 1463SOL     OW 4408   0.307   3.787   4.342
 1463SOL    HW1 4409   0.296   3.881   4.375
 1463SOL    HW2 4410   0.302   3.724   4.419
 1464SOL     OW 4411   1.622   4.091   4.098
 1464SOL    HW1 4412   1.624   4.015   4.162
 1464SOL    HW2 4413   1.574   4.168   4.138
 1465SOL     OW 4414   1.023   4.490   4.690
 1465SOL    HW1 4415   1.038   4.511   4.786
 1465SOL    HW2 4416   0.993   4.395   4.681
 1466SOL     OW 4417   1.540   3.998   3.849
 1466SOL    HW1 4418   1.479   3.923   3.872
 1466SOL    HW2 4419   1.562   4.050   3.932
 1467SOL     OW 4420   1.303   4.562   3.766
 1467SOL    HW1 4421   1.337   4.469   3.781
 1467SOL    HW2 4422   1.321   4.589   3.671
 1468SOL     OW 4423   0.319   4.534   4.673
 1468SOL    HW1 4424   0.412   4.570   4.678
 1468SOL    HW2 4425   0.313   4.449   4.725
 1469SOL     OW 4426   0.339   4.233   4.730
 1469SOL    HW1 4427   0.287   4.150   4.713
 1469SOL    HW2 4428   0.416   4.238   4.666
 1470SOL     OW 4429   1.002   4.520   4.962
 1470SOL    HW1 4430   1.043   4.488   5.048
 1470SOL    HW2 4431   0.906   4.493   4.959
 1471SOL     OW 4432   0.040   4.268   4.838
 1471SOL    HW1 4433   0.125   4.235   4.797
 1471SOL    HW2 4434   0.053   4.283   4.936
 1472SOL     OW 4435   0.815   4.296   4.049
 1472SOL    HW1 4436   0.822   4.207   4.003
 1472SOL    HW2 4437   0.721   4.330   4.041
 1473SOL     OW 4438   1.657   4.328   4.930
 1473SOL    HW1 4439   1.619   4.259   4.992
 1473SOL    HW2 4440   1.739   4.292   4.886
 1474SOL     OW 4441   0.671   4.188   4.993
 1474SOL    HW1 4442   0.637   4.099   4.963
 1474SOL    HW2 4443   0.697   4.242   4.913
 1475SOL     OW 4444   0.473   4.224   3.915
 1475SOL    HW1 4445   0.534   4.304   3.919
 1475SOL    HW2 4446   0.378   4.255   3.922
 1476SOL     OW 4447   1.347   4.783   4.958
 1476SOL    HW1 4448   1.371   4.720   4.884
 1476SOL    HW2 4449   1.257   4.823   4.940
 1477SOL     OW 4450   1.302   4.579   4.033
 1477SOL    HW1 4451   1.216   4.548   4.075
 1477SOL    HW2 4452   1.298   4.565   3.934
 1478SOL     OW 4453   0.083   4.982   4.746
 1478SOL    HW1 4454   0.078   4.981   4.846
 1478SOL    HW2 4455   0.000   4.941   4.708
 1479SOL     OW 4456   1.726   3.859   4.247
 1479SOL    HW1 4457   1.799   3.842   4.180
 1479SOL    HW2 4458   1.695   3.772   4.285
 1480SOL     OW 4459   1.280   4.651   4.396
 1480SOL    HW1 4460   1.340   4.570   4.398
 1480SOL    HW2 4461   1.320   4.720   4.336
 1481SOL     OW 4462   1.841   3.899   4.687
 1481SOL    HW1 4463   1.880   3.814   4.651
 1481SOL    HW2 4464   1.743   3.901   4.668
 1482SOL     OW 4465   0.263   4.050   4.444
 1482SOL    HW1 4466   0.184   4.101   4.410
 1482SOL    HW2 4467   0.254   4.035   4.542
 1483SOL     OW 4468   0.822   4.726   5.096
 1483SOL    HW1 4469   0.862   4.725   5.004
 1483SOL    HW2 4470   0.832   4.818   5.136
 1484SOL     OW 4471   0.916   4.634   4.015
 1484SOL    HW1 4472   0.979   4.672   3.947
 1484SOL    HW2 4473   0.956   4.551   4.054
 1485SOL     OW 4474   1.039   4.822   4.420
 1485SOL    HW1 4475   0.969   4.775   4.474
 1485SOL    HW2 4476   1.098   4.754   4.377
 1486SOL     OW 4477   1.014   3.960   4.695
 1486SOL    HW1 4478   1.006   3.924   4.602
 1486SOL    HW2 4479   1.012   3.884   4.760
 1487SOL     OW 4480   1.709   4.109   5.105
 1487SOL    HW1 4481   1.782   4.178   5.109
 1487SOL    HW2 4482   1.737   4.034   5.046
 1488SOL     OW 4483   0.075   4.069   3.757
 1488SOL    HW1 4484  -0.017   4.041   3.728
 1488SOL    HW2 4485   0.106   4.146   3.701
 1489SOL     OW 4486   0.072   3.890   4.042
 1489SOL    HW1 4487   0.055   3.973   3.988
 1489SOL    HW2 4488   0.162   3.853   4.020
 1490SOL     OW 4489   1.674   4.607   4.978
 1490SOL    HW1 4490   1.647   4.518   4.941
 1490SOL    HW2 4491   1.675   4.675   4.905
 1491SOL     OW 4492   1.225   4.049   4.173
 1491SOL    HW1 4493   1.290   3.975   4.162
 1491SOL    HW2 4494   1.245   4.099   4.257
 1492SOL     OW 4495   0.594   4.469   4.376
 1492SOL    HW1 4496   0.644   4.554   4.357
 1492SOL    HW2 4497   0.506   4.471   4.328
 1493SOL     OW 4498   1.730   4.658   5.241
 1493SOL    HW1 4499   1.768   4.749   5.256
 1493SOL    HW2 4500   1.722   4.641   5.142
 1494SOL     OW 4501   0.859   4.680   4.585
 1494SOL    HW1 4502   0.913   4.611   4.633
 1494SOL    HW2 4503   0.827   4.749   4.651
 1495SOL     OW 4504   1.083   4.708   3.811
 1495SOL    HW1 4505   1.060   4.761   3.729
 1495SOL    HW2 4506   1.164   4.652   3.792
 1496SOL     OW 4507   0.079   4.964   4.377
 1496SOL    HW1 4508   0.078   4.917   4.465
 1496SOL    HW2 4509   0.161   4.936   4.326
 1497SOL     OW 4510   1.824   3.916   4.951
 1497SOL    HW1 4511   1.820   3.826   4.995
 1497SOL    HW2 4512   1.827   3.905   4.852
 1498SOL     OW 4513   0.428   4.148   4.244
 1498SOL    HW1 4514   0.458   4.076   4.182
 1498SOL    HW2 4515   0.389   4.108   4.327
 1499SOL     OW 4516   1.424   3.938   4.836
 1499SOL    HW1 4517   1.476   3.873   4.891
 1499SOL    HW2 4518   1.375   4.001   4.897
 1500SOL     OW 4519   0.770   5.054   4.025
 1500SOL    HW1 4520   0.724   4.967   4.042
 1500SOL    HW2 4521   0.861   5.051   4.066
 1501SOL     OW 4522   1.352   3.776   3.892
 1501SOL    HW1 4523   1.387   3.735   3.808
 1501SOL    HW2 4524   1.262   3.738   3.912
 1502SOL     OW 4525   1.300   4.177   4.415
 1502SOL    HW1 4526   1.241   4.257   4.419
 1502SOL    HW2 4527   1.315   4.142   4.508
 1503SOL     OW 4528   1.593   3.945   4.606
 1503SOL    HW1 4529   1.509   3.944   4.660
 1503SOL    HW2 4530   1.595   4.028   4.550
 1504SOL     OW 4531   0.039   4.801   4.024
 1504SOL    HW1 4532   0.138   4.790   4.015
 1504SOL    HW2 4533  -0.001   4.715   4.056
 1505SOL     OW 4534   2.092   0.628   0.113
 1505SOL    HW1 4535   1.999   0.626   0.150
 1505SOL    HW2 4536   2.093   0.589   0.021
 1506SOL     OW 4537   2.087   0.275   0.996
 1506SOL    HW1 4538   2.122   0.258   1.088
 1506SOL    HW2 4539   1.999   0.230   0.984
 1507SOL     OW 4540   1.881   0.368   0.647
 1507SOL    HW1 4541   1.799   0.411   0.686
 1507SOL    HW2 4542   1.853   0.295   0.584
 1508SOL     OW 4543   2.431   1.275   1.165
 1508SOL    HW1 4544   2.338   1.268   1.128
 1508SOL    HW2 4545   2.442   1.364   1.209
 1509SOL     OW 4546   3.417   1.511   0.703
 1509SOL    HW1 4547   3.360   1.495   0.784
 1509SOL    HW2 4548   3.358   1.521   0.623
 1510SOL     OW 4549   2.997   0.703   0.717
 1510SOL    HW1 4550   3.054   0.781   0.692
 1510SOL    HW2 4551   2.937   0.729   0.793
 1511SOL     OW 4552   3.617   0.607   0.231
 1511SOL    HW1 4553   3.605   0.594   0.132
 1511SOL    HW2 4554   3.587   0.526   0.280
 1512SOL     OW 4555   2.630   1.144   1.023
 1512SOL    HW1 4556   2.552   1.161   1.083
 1512SOL    HW2 4557   2.664   1.231   0.987
 1513SOL     OW 4558   2.712   0.798   1.823
 1513SOL    HW1 4559   2.708   0.874   1.888
 1513SOL    HW2 4560   2.734   0.834   1.732
 1514SOL     OW 4561   2.547   1.012   0.665
 1514SOL    HW1 4562   2.616   0.996   0.735
 1514SOL    HW2 4563   2.474   1.069   0.703
 1515SOL     OW 4564   2.548   1.161   1.803
 1515SOL    HW1 4565   2.608   1.240   1.817
 1515SOL    HW2 4566   2.462   1.192   1.762
 1516SOL     OW 4567   2.197   1.435   1.061
 1516SOL    HW1 4568   2.119   1.404   1.008
 1516SOL    HW2 4569   2.255   1.493   1.004
 1517SOL     OW 4570   3.322   1.505   1.339
 1517SOL    HW1 4571   3.346   1.599   1.365
 1517SOL    HW2 4572   3.306   1.451   1.421
 1518SOL     OW 4573   2.300   0.392   1.499
 1518SOL    HW1 4574   2.382   0.336   1.508
 1518SOL    HW2 4575   2.219   0.334   1.503
 1519SOL     OW 4576   3.465   0.447   0.737
 1519SOL    HW1 4577   3.391   0.493   0.687
 1519SOL    HW2 4578   3.516   0.515   0.790
 1520SOL     OW 4579   2.093   1.713   0.483
 1520SOL    HW1 4580   2.127   1.790   0.537
 1520SOL    HW2 4581   2.137   1.713   0.393
 1521SOL     OW 4582   2.989   1.341   1.690
 1521SOL    HW1 4583   3.036   1.341   1.778
 1521SOL    HW2 4584   2.941   1.254   1.679
 1522SOL     OW 4585   2.092   1.434   0.538
 1522SOL    HW1 4586   2.066   1.530   0.538
 1522SOL    HW2 4587   2.021   1.380   0.583
 1523SOL     OW 4588   2.102   1.091   0.886
 1523SOL    HW1 4589   2.116   1.007   0.938
 1523SOL    HW2 4590   2.047   1.155   0.941
 1524SOL     OW 4591   2.482   1.786   1.439
 1524SOL    HW1 4592   2.390   1.769   1.474
 1524SOL    HW2 4593   2.510   1.878   1.465
 1525SOL     OW 4594   2.468   0.964   0.123
 1525SOL    HW1 4595   2.475   1.048   0.069
 1525SOL    HW2 4596   2.514   0.977   0.211
 1526SOL     OW 4597   3.456   0.114   1.480
 1526SOL    HW1 4598   3.438   0.181   1.408
 1526SOL    HW2 4599   3.453   0.160   1.569
 1527SOL     OW 4600   1.984   0.643   0.563
 1527SOL    HW1 4601   1.939   0.555   0.580
 1527SOL    HW2 4602   1.983   0.697   0.647
 1528SOL     OW 4603   3.704   1.767   0.359
 1528SOL    HW1 4604   3.758   1.738   0.439
 1528SOL    HW2 4605   3.734   1.857   0.330
 1529SOL     OW 4606   1.889   1.596   0.117
 1529SOL    HW1 4607   1.870   1.500   0.138
 1529SOL    HW2 4608   1.856   1.654   0.192
 1530SOL     OW 4609   3.551   0.922   0.612
 1530SOL    HW1 4610   3.646   0.893   0.620
 1530SOL    HW2 4611   3.543   0.987   0.537
 1531SOL     OW 4612   3.503   1.108   0.432
 1531SOL    HW1 4613   3.589   1.110   0.380
 1531SOL    HW2 4614   3.517   1.155   0.520
 1532SOL     OW 4615   1.975   0.737   1.597
 1532SOL    HW1 4616   2.063   0.724   1.642
 1532SOL    HW2 4617   1.962   0.834   1.575
 1533SOL     OW 4618   2.475   1.365   0.726
 1533SOL    HW1 4619   2.426   1.278   0.735
 1533SOL    HW2 4620   2.452   1.408   0.639
 1534SOL     OW 4621   3.155   1.228   1.423
 1534SOL    HW1 4622   3.192   1.155   1.365
 1534SOL    HW2 4623   3.207   1.233   1.508
 1535SOL     OW 4624   2.671   0.004   0.502
 1535SOL    HW1 4625   2.711   0.095   0.493
 1535SOL    HW2 4626   2.571   0.012   0.508
 1536SOL     OW 4627   2.059   0.976   1.264
 1536SOL    HW1 4628   2.148   0.931   1.250
 1536SOL    HW2 4629   1.986   0.911   1.245
 1537SOL     OW 4630   3.387   0.999   0.190
 1537SOL    HW1 4631   3.324   0.923   0.203
 1537SOL    HW2 4632   3.435   1.017   0.276
 1538SOL     OW 4633   3.049   1.792   1.616
 1538SOL    HW1 4634   3.073   1.852   1.540
 1538SOL    HW2 4635   3.056   1.697   1.586
 1539SOL     OW 4636   2.179   0.251   1.801
 1539SOL    HW1 4637   2.250   0.322   1.807
 1539SOL    HW2 4638   2.091   0.290   1.829
 1540SOL     OW 4639   3.328   1.417   0.953
 1540SOL    HW1 4640   3.269   1.423   1.033
 1540SOL    HW2 4641   3.313   1.329   0.907
 1541SOL     OW 4642   3.529   1.714   0.572
 1541SOL    HW1 4643   3.488   1.691   0.484
 1541SOL    HW2 4644   3.511   1.640   0.637
 1542SOL     OW 4645   2.460   0.729   0.270
 1542SOL    HW1 4646   2.484   0.798   0.202
 1542SOL    HW2 4647   2.382   0.762   0.324
 1543SOL     OW 4648   3.143   0.345   0.944
 1543SOL    HW1 4649   3.057   0.295   0.931
 1543SOL    HW2 4650   3.205   0.291   1.000
 1544SOL     OW 4651   3.438   1.662   0.307
 1544SOL    HW1 4652   3.527   1.708   0.310
 1544SOL    HW2 4653   3.417   1.638   0.212
 1545SOL     OW 4654   2.669   0.605   1.465
 1545SOL    HW1 4655   2.622   0.602   1.554
 1545SOL    HW2 4656   2.618   0.550   1.399
 1546SOL     OW 4657   3.256   0.469   1.674
 1546SOL    HW1 4658   3.236   0.512   1.762
 1546SOL    HW2 4659   3.334   0.407   1.683
 1547SOL     OW 4660   2.835   0.890   1.572
 1547SOL    HW1 4661   2.881   0.806   1.543
 1547SOL    HW2 4662   2.779   0.924   1.497
 1548SOL     OW 4663   2.853   0.410   1.242
 1548SOL    HW1 4664   2.776   0.444   1.296
 1548SOL    HW2 4665   2.819   0.359   1.163
 1549SOL     OW 4666   2.903   0.701   0.429
 1549SOL    HW1 4667   2.929   0.697   0.525
 1549SOL    HW2 4668   2.818   0.650   0.415
 1550SOL     OW 4669   1.938   0.811   0.789
 1550SOL    HW1 4670   2.037   0.799   0.798
 1550SOL    HW2 4671   1.914   0.906   0.810
 1551SOL     OW 4672   1.992   1.821   1.571
 1551SOL    HW1 4673   1.982   1.806   1.670
 1551SOL    HW2 4674   1.906   1.857   1.535
 1552SOL     OW 4675   2.727   0.348   0.195
 1552SOL    HW1 4676   2.786   0.411   0.146
 1552SOL    HW2 4677   2.746   0.254   0.166
 1553SOL     OW 4678   3.581   0.585   1.831
 1553SOL    HW1 4679   3.555   0.674   1.795
 1553SOL    HW2 4680   3.579   0.517   1.758
 1554SOL     OW 4681   3.224   1.144   0.545
 1554SOL    HW1 4682   3.307   1.115   0.497
 1554SOL    HW2 4683   3.175   1.211   0.489
 1555SOL     OW 4684   2.412   0.196   0.885
 1555SOL    HW1 4685   2.407   0.191   0.985
 1555SOL    HW2 4686   2.414   0.292   0.856
 1556SOL     OW 4687   2.870   1.456   0.477
 1556SOL    HW1 4688   2.824   1.528   0.425
 1556SOL    HW2 4689   2.866   1.476   0.575
 1557SOL     OW 4690   2.213   1.801   0.853
 1557SOL    HW1 4691   2.263   1.715   0.859
 1557SOL    HW2 4692   2.278   1.878   0.850
 1558SOL     OW 4693   3.657   1.066   0.873
 1558SOL    HW1 4694   3.595   1.051   0.797
 1558SOL    HW2 4695   3.605   1.077   0.958
 1559SOL     OW 4696   3.089   1.550   1.506
 1559SOL    HW1 4697   3.095   1.473   1.570
 1559SOL    HW2 4698   3.037   1.524   1.426
 1560SOL     OW 4699   2.183   0.943   0.242
 1560SOL    HW1 4700   2.265   0.982   0.200
 1560SOL    HW2 4701   2.156   0.861   0.193
 1561SOL     OW 4702   3.320   0.735   0.728
 1561SOL    HW1 4703   3.315   0.670   0.803
 1561SOL    HW2 4704   3.400   0.794   0.741
 1562SOL     OW 4705   2.323   1.266   1.727
 1562SOL    HW1 4706   2.273   1.267   1.641
 1562SOL    HW2 4707   2.260   1.248   1.803
 1563SOL     OW 4708   2.973   1.776   0.237
 1563SOL    HW1 4709   2.913   1.714   0.287
 1563SOL    HW2 4710   3.004   1.732   0.152
 1564SOL     OW 4711   2.064   0.285   1.498
 1564SOL    HW1 4712   1.984   0.345   1.485
 1564SOL    HW2 4713   2.054   0.236   1.584
 1565SOL     OW 4714   3.494   1.377   0.081
 1565SOL    HW1 4715   3.462   1.471   0.071
 1565SOL    HW2 4716   3.418   1.314   0.069
 1566SOL     OW 4717   2.326   1.743   0.323
 1566SOL    HW1 4718   2.359   1.782   0.409
 1566SOL    HW2 4719   2.402   1.736   0.258
 1567SOL     OW 4720   3.262   0.107   0.426
 1567SOL    HW1 4721   3.238   0.070   0.336
 1567SOL    HW2 4722   3.361   0.123   0.430
 1568SOL     OW 4723   2.111   1.785   1.241
 1568SOL    HW1 4724   2.168   1.720   1.291
 1568SOL    HW2 4725   2.095   1.752   1.148
 1569SOL     OW 4726   2.802   1.698   0.904
 1569SOL    HW1 4727   2.882   1.641   0.925
 1569SOL    HW2 4728   2.753   1.658   0.827
 1570SOL     OW 4729   2.244   0.700   0.480
 1570SOL    HW1 4730   2.289   0.610   0.477
 1570SOL    HW2 4731   2.150   0.689   0.513
 1571SOL     OW 4732   3.409   0.222   1.729
 1571SOL    HW1 4733   3.404   0.259   1.821
 1571SOL    HW2 4734   3.337   0.153   1.717
 1572SOL     OW 4735   2.476   0.122   0.117
 1572SOL    HW1 4736   2.574   0.100   0.124
 1572SOL    HW2 4737   2.445   0.105   0.024
 1573SOL     OW 4738   2.643   0.264   1.749
 1573SOL    HW1 4739   2.710   0.203   1.792
 1573SOL    HW2 4740   2.570   0.283   1.814
 1574SOL     OW 4741   2.750   1.514   1.195
 1574SOL    HW1 4742   2.727   1.489   1.101
 1574SOL    HW2 4743   2.811   1.445   1.234
 1575SOL     OW 4744   3.213   0.590   1.433
 1575SOL    HW1 4745   3.241   0.547   1.518
 1575SOL    HW2 4746   3.238   0.686   1.434
 1576SOL     OW 4747   2.665   1.402   0.924
 1576SOL    HW1 4748   2.755   1.416   0.882
 1576SOL    HW2 4749   2.594   1.404   0.853
 1577SOL     OW 4750   2.784   0.503   0.899
 1577SOL    HW1 4751   2.759   0.494   0.803
 1577SOL    HW2 4752   2.832   0.421   0.930
 1578SOL     OW 4753   2.401   0.064   0.512
 1578SOL    HW1 4754   2.320   0.065   0.570
 1578SOL    HW2 4755   2.404   0.147   0.457
 1579SOL     OW 4756   3.296   1.188   0.041
 1579SOL    HW1 4757   3.328   1.112   0.098
 1579SOL    HW2 4758   3.204   1.215   0.071
 1580SOL     OW 4759   2.159   0.035   0.171
 1580SOL    HW1 4760   2.208   0.119   0.150
 1580SOL    HW2 4761   2.221  -0.030   0.216
 1581SOL     OW 4762   2.797   0.236   0.480
 1581SOL    HW1 4763   2.749   0.277   0.402
 1581SOL    HW2 4764   2.896   0.234   0.461
 1582SOL     OW 4765   2.938   0.683   1.464
 1582SOL    HW1 4766   2.858   0.622   1.467
 1582SOL    HW2 4767   3.019   0.630   1.440
 1583SOL     OW 4768   3.089   1.570   0.793
 1583SOL    HW1 4769   3.110   1.644   0.728
 1583SOL    HW2 4770   3.157   1.570   0.866
 1584SOL     OW 4771   2.321   1.152   0.741
 1584SOL    HW1 4772   2.250   1.125   0.806
 1584SOL    HW2 4773   2.295   1.124   0.648
 1585SOL     OW 4774   3.133   1.797   0.591
 1585SOL    HW1 4775   3.177   1.861   0.527
 1585SOL    HW2 4776   3.083   1.849   0.661
 1586SOL     OW 4777   2.894   0.549   0.016
 1586SOL    HW1 4778   2.853   0.631  -0.023
 1586SOL    HW2 4779   2.958   0.575   0.089
 1587SOL     OW 4780   1.940   0.556   1.386
 1587SOL    HW1 4781   2.032   0.555   1.345
 1587SOL    HW2 4782   1.934   0.630   1.453
 1588SOL     OW 4783   2.423   0.222   1.147
 1588SOL    HW1 4784   2.461   0.138   1.184
 1588SOL    HW2 4785   2.335   0.241   1.191
 1589SOL     OW 4786   2.728   0.454   0.642
 1589SOL    HW1 4787   2.696   0.526   0.580
 1589SOL    HW2 4788   2.752   0.373   0.589
 1590SOL     OW 4789   2.879   0.039   0.753
 1590SOL    HW1 4790   2.807   0.044   0.684
 1590SOL    HW2 4791   2.855  -0.030   0.822
 1591SOL     OW 4792   3.291   1.173   0.867
 1591SOL    HW1 4793   3.236   1.089   0.860
 1591SOL    HW2 4794   3.317   1.202   0.775
 1592SOL     OW 4795   3.328   0.590   0.992
 1592SOL    HW1 4796   3.298   0.495   0.999
 1592SOL    HW2 4797   3.401   0.606   1.058
 1593SOL     OW 4798   3.719   0.833   0.377
 1593SOL    HW1 4799   3.761   0.769   0.441
 1593SOL    HW2 4800   3.681   0.782   0.299
 1594SOL     OW 4801   2.350   1.385   0.174
 1594SOL    HW1 4802   2.263   1.370   0.221
 1594SOL    HW2 4803   2.333   1.411   0.079
 1595SOL     OW 4804   3.526   1.280   0.657
 1595SOL    HW1 4805   3.625   1.288   0.671
 1595SOL    HW2 4806   3.481   1.364   0.688
 1596SOL     OW 4807   3.252   0.575   0.078
 1596SOL    HW1 4808   3.198   0.554   0.159
 1596SOL    HW2 4809   3.343   0.534   0.087
 1597SOL     OW 4810   2.389   0.256   0.328
 1597SOL    HW1 4811   2.416   0.197   0.253
 1597SOL    HW2 4812   2.389   0.351   0.297
 1598SOL     OW 4813   3.616   1.223   1.588
 1598SOL    HW1 4814   3.707   1.184   1.575
 1598SOL    HW2 4815   3.624   1.319   1.612
 1599SOL     OW 4816   2.926   1.347   1.340
 1599SOL    HW1 4817   2.846   1.324   1.395
 1599SOL    HW2 4818   3.009   1.321   1.389
 1600SOL     OW 4819   3.454   1.629   1.625
 1600SOL    HW1 4820   3.481   1.663   1.535
 1600SOL    HW2 4821   3.533   1.591   1.671
 1601SOL     OW 4822   2.973   1.195   1.100
 1601SOL    HW1 4823   2.933   1.239   1.181
 1601SOL    HW2 4824   2.932   1.232   1.017
 1602SOL     OW 4825   3.500   1.099   1.079
 1602SOL    HW1 4826   3.505   1.180   1.138
 1602SOL    HW2 4827   3.414   1.101   1.028
 1603SOL     OW 4828   2.777   0.089   1.402
 1603SOL    HW1 4829   2.802   0.069   1.307
 1603SOL    HW2 4830   2.849   0.145   1.444
 1604SOL     OW 4831   2.842   1.116   1.719
 1604SOL    HW1 4832   2.743   1.122   1.729
 1604SOL    HW2 4833   2.865   1.036   1.663
 1605SOL     OW 4834   2.567   1.050   0.368
 1605SOL    HW1 4835   2.553   1.057   0.467
 1605SOL    HW2 4836   2.651   0.999   0.350
 1606SOL     OW 4837   2.272   0.813   1.251
 1606SOL    HW1 4838   2.358   0.825   1.301
 1606SOL    HW2 4839   2.230   0.726   1.278
 1607SOL     OW 4840   3.136   0.386   1.262
 1607SOL    HW1 4841   3.157   0.460   1.326
 1607SOL    HW2 4842   3.047   0.403   1.219
 1608SOL     OW 4843   1.926   1.564   1.331
 1608SOL    HW1 4844   1.880   1.646   1.297
 1608SOL    HW2 4845   2.024   1.583   1.340
 1609SOL     OW 4846   2.229   1.100   0.501
 1609SOL    HW1 4847   2.222   1.183   0.445
 1609SOL    HW2 4848   2.233   1.020   0.441
 1610SOL     OW 4849   2.428   0.537   0.865
 1610SOL    HW1 4850   2.440   0.603   0.791
 1610SOL    HW2 4851   2.474   0.571   0.948
 1611SOL     OW 4852   3.114   1.348   0.388
 1611SOL    HW1 4853   3.164   1.425   0.428
 1611SOL    HW2 4854   3.019   1.350   0.420
 1612SOL     OW 4855   3.134   1.445   1.142
 1612SOL    HW1 4856   3.181   1.458   1.229
 1612SOL    HW2 4857   3.068   1.371   1.151
 1613SOL     OW 4858   3.444   0.639   0.472
 1613SOL    HW1 4859   3.413   0.700   0.545
 1613SOL    HW2 4860   3.494   0.691   0.403
 1614SOL     OW 4861   2.216   1.510   1.329
 1614SOL    HW1 4862   2.195   1.466   1.242
 1614SOL    HW2 4863   2.313   1.536   1.332
 1615SOL     OW 4864   2.264   0.751   1.598
 1615SOL    HW1 4865   2.332   0.806   1.551
 1615SOL    HW2 4866   2.304   0.663   1.625
 1616SOL     OW 4867   3.449   0.779   1.670
 1616SOL    HW1 4868   3.357   0.817   1.665
 1616SOL    HW2 4869   3.509   0.826   1.605
 1617SOL     OW 4870   2.875   0.105   1.770
 1617SOL    HW1 4871   2.881   0.190   1.718
 1617SOL    HW2 4872   2.907   0.029   1.713
 1618SOL     OW 4873   2.366   0.050   1.740
 1618SOL    HW1 4874   2.324  -0.007   1.670
 1618SOL    HW2 4875   2.300   0.119   1.772
 1619SOL     OW 4876   2.435   0.870   1.029
 1619SOL    HW1 4877   2.479   0.959   1.020
 1619SOL    HW2 4878   2.372   0.870   1.106
 1620SOL     OW 4879   3.222   0.862   1.045
 1620SOL    HW1 4880   3.147   0.862   0.979
 1620SOL    HW2 4881   3.259   0.770   1.054
 1621SOL     OW 4882   3.071   0.525   0.275
 1621SOL    HW1 4883   3.084   0.441   0.329
 1621SOL    HW2 4884   3.042   0.599   0.335
 1622SOL     OW 4885   2.169   0.213   1.231
 1622SOL    HW1 4886   2.146   0.250   1.321
 1622SOL    HW2 4887   2.139   0.118   1.225
 1623SOL     OW 4888   1.899   1.310   1.282
 1623SOL    HW1 4889   1.952   1.261   1.350
 1623SOL    HW2 4890   1.921   1.408   1.287
 1624SOL     OW 4891   2.594   0.634   1.064
 1624SOL    HW1 4892   2.653   0.608   0.988
 1624SOL    HW2 4893   2.566   0.730   1.053
 1625SOL     OW 4894   3.590   0.935   1.854
 1625SOL    HW1 4895   3.544   0.928   1.765
 1625SOL    HW2 4896   3.528   0.979   1.920
 1626SOL     OW 4897   2.169   0.063   0.618
 1626SOL    HW1 4898   2.158   0.157   0.651
 1626SOL    HW2 4899   2.164   0.000   0.695
 1627SOL     OW 4900   3.484   0.367   0.374
 1627SOL    HW1 4901   3.486   0.291   0.438
 1627SOL    HW2 4902   3.436   0.444   0.414
 1628SOL     OW 4903   2.885   0.766   0.966
 1628SOL    HW1 4904   2.900   0.787   1.062
 1628SOL    HW2 4905   2.855   0.671   0.957
 1629SOL     OW 4906   2.842   1.573   1.700
 1629SOL    HW1 4907   2.822   1.617   1.612
 1629SOL    HW2 4908   2.881   1.482   1.684
 1630SOL     OW 4909   3.721   1.518   1.605
 1630SOL    HW1 4910   3.735   1.545   1.510
 1630SOL    HW2 4911   3.804   1.540   1.658
 1631SOL     OW 4912   2.212   0.898   1.804
 1631SOL    HW1 4913   2.288   0.942   1.852
 1631SOL    HW2 4914   2.247   0.851   1.722
 1632SOL     OW 4915   3.402   0.274   0.125
 1632SOL    HW1 4916   3.341   0.199   0.148
 1632SOL    HW2 4917   3.424   0.326   0.208
 1633SOL     OW 4918   3.165   0.838   0.042
 1633SOL    HW1 4919   3.199   0.745   0.057
 1633SOL    HW2 4920   3.183   0.865  -0.053
 1634SOL     OW 4921   2.930   1.333   0.849
 1634SOL    HW1 4922   2.937   1.249   0.794
 1634SOL    HW2 4923   2.992   1.402   0.813
 1635SOL     OW 4924   2.181   0.810   0.949
 1635SOL    HW1 4925   2.274   0.846   0.954
 1635SOL    HW2 4926   2.175   0.725   1.001
 1636SOL     OW 4927   2.201   0.509   1.006
 1636SOL    HW1 4928   2.149   0.426   0.989
 1636SOL    HW2 4929   2.278   0.514   0.942
 1637SOL     OW 4930   3.000   0.380   1.678
 1637SOL    HW1 4931   2.955   0.443   1.742
 1637SOL    HW2 4932   3.093   0.411   1.661
 1638SOL     OW 4933   3.022   0.207   1.477
 1638SOL    HW1 4934   3.022   0.271   1.554
 1638SOL    HW2 4935   3.050   0.255   1.394
 1639SOL     OW 4936   1.870   1.326   0.200
 1639SOL    HW1 4937   1.777   1.347   0.169
 1639SOL    HW2 4938   1.880   1.227   0.213
 1640SOL     OW 4939   1.950   1.801   0.927
 1640SOL    HW1 4940   1.908   1.715   0.900
 1640SOL    HW2 4941   2.044   1.804   0.893
 1641SOL     OW 4942   2.366   1.568   0.910
 1641SOL    HW1 4943   2.432   1.642   0.919
 1641SOL    HW2 4944   2.410   1.489   0.868
 1642SOL     OW 4945   2.864   0.796   1.238
 1642SOL    HW1 4946   2.905   0.764   1.324
 1642SOL    HW2 4947   2.768   0.769   1.235
 1643SOL     OW 4948   1.902   0.544   1.114
 1643SOL    HW1 4949   1.987   0.511   1.073
 1643SOL    HW2 4950   1.915   0.559   1.212
 1644SOL     OW 4951   2.051   0.520   1.722
 1644SOL    HW1 4952   2.110   0.480   1.652
 1644SOL    HW2 4953   1.993   0.591   1.681
 1645SOL     OW 4954   3.231   0.950   1.660
 1645SOL    HW1 4955   3.270   1.039   1.680
 1645SOL    HW2 4956   3.241   0.930   1.563
 1646SOL     OW 4957   2.677   0.572   0.325
 1646SOL    HW1 4958   2.684   0.483   0.279
 1646SOL    HW2 4959   2.583   0.606   0.317
 1647SOL     OW 4960   3.519   0.604   1.206
 1647SOL    HW1 4961   3.481   0.535   1.268
 1647SOL    HW2 4962   3.601   0.568   1.162
 1648SOL     OW 4963   2.114   1.564   1.744
 1648SOL    HW1 4964   2.084   1.621   1.820
 1648SOL    HW2 4965   2.107   1.467   1.770
 1649SOL     OW 4966   2.533   0.464   1.269
 1649SOL    HW1 4967   2.499   0.375   1.239
 1649SOL    HW2 4968   2.559   0.518   1.189
 1650SOL     OW 4969   2.792   1.678   1.465
 1650SOL    HW1 4970   2.768   1.660   1.370
 1650SOL    HW2 4971   2.822   1.772   1.475
 1651SOL     OW 4972   2.335   0.500   0.191
 1651SOL    HW1 4973   2.396   0.580   0.195
 1651SOL    HW2 4974   2.240   0.531   0.198
 1652SOL     OW 4975   2.021   1.137   1.466
 1652SOL    HW1 4976   2.043   1.076   1.542
 1652SOL    HW2 4977   2.031   1.088   1.380
 1653SOL     OW 4978   3.209   1.059   1.234
 1653SOL    HW1 4979   3.233   0.996   1.160
 1653SOL    HW2 4980   3.119   1.099   1.216
 1654SOL     OW 4981   3.164   0.855   0.309
 1654SOL    HW1 4982   3.078   0.824   0.351
 1654SOL    HW2 4983   3.160   0.841   0.210
 1655SOL     OW 4984   3.621   1.747   1.154
 1655SOL    HW1 4985   3.682   1.777   1.081
 1655SOL    HW2 4986   3.583   1.658   1.132
 1656SOL     OW 4987   3.114   1.731   1.128
 1656SOL    HW1 4988   3.198   1.736   1.074
 1656SOL    HW2 4989   3.091   1.635   1.146
 1657SOL     OW 4990   1.945   1.258   1.022
 1657SOL    HW1 4991   1.940   1.257   1.122
 1657SOL    HW2 4992   1.862   1.217   0.984
 1658SOL     OW 4993   2.550   1.662   1.716
 1658SOL    HW1 4994   2.494   1.743   1.725
 1658SOL    HW2 4995   2.602   1.666   1.630
 1659SOL     OW 4996   2.765   0.086   0.133
 1659SOL    HW1 4997   2.816   0.087   0.047
 1659SOL    HW2 4998   2.821   0.044   0.204
 1660SOL     OW 4999   3.588   0.135   0.523
 1660SOL    HW1 5000   3.661   0.118   0.456
 1660SOL    HW2 5001   3.557   0.048   0.561
 1661SOL     OW 5002   3.250   1.573   0.477
 1661SOL    HW1 5003   3.317   1.585   0.403
 1661SOL    HW2 5004   3.210   1.662   0.500
 1662SOL     OW 5005   1.992   1.794   1.851
 1662SOL    HW1 5006   1.951   1.720   1.904
 1662SOL    HW2 5007   2.056   1.845   1.909
 1663SOL     OW 5008   3.142   0.927   0.672
 1663SOL    HW1 5009   3.202   0.846   0.674
 1663SOL    HW2 5010   3.182   0.996   0.612
 1664SOL     OW 5011   2.692   1.273   1.422
 1664SOL    HW1 5012   2.687   1.306   1.517
 1664SOL    HW2 5013   2.606   1.292   1.376
 1665SOL     OW 5014   2.534   1.616   0.154
 1665SOL    HW1 5015   2.543   1.626   0.055
 1665SOL    HW2 5016   2.494   1.527   0.175
 1666SOL     OW 5017   3.512   1.720   1.394
 1666SOL    HW1 5018   3.565   1.730   1.310
 1666SOL    HW2 5019   3.485   1.810   1.428
 1667SOL     OW 5020   3.703   0.175   0.963
 1667SOL    HW1 5021   3.742   0.090   0.927
 1667SOL    HW2 5022   3.605   0.177   0.944
 1668SOL     OW 5023   2.125   0.326   0.720
 1668SOL    HW1 5024   2.046   0.377   0.686
 1668SOL    HW2 5025   2.116   0.311   0.818
 1669SOL     OW 5026   3.056   1.612   0.031
 1669SOL    HW1 5027   3.062   1.519   0.068
 1669SOL    HW2 5028   2.997   1.612  -0.049
 1670SOL     OW 5029   2.684   1.002   1.372
 1670SOL    HW1 5030   2.724   1.001   1.280
 1670SOL    HW2 5031   2.694   1.094   1.412
 1671SOL     OW 5032   2.778   0.910   0.291
 1671SOL    HW1 5033   2.841   0.948   0.223
 1671SOL    HW2 5034   2.818   0.827   0.330
 1672SOL     OW 5035   3.366   1.607   0.044
 1672SOL    HW1 5036   3.274   1.644   0.051
 1672SOL    HW2 5037   3.404   1.627  -0.046
 1673SOL     OW 5038   2.234   1.288   1.490
 1673SOL    HW1 5039   2.221   1.381   1.456
 1673SOL    HW2 5040   2.150   1.236   1.477
 1674SOL     OW 5041   3.476   1.292   1.289
 1674SOL    HW1 5042   3.536   1.295   1.369
 1674SOL    HW2 5043   3.401   1.356   1.302
 1675SOL     OW 5044   2.901   1.098   0.696
 1675SOL    HW1 5045   2.831   1.051   0.750
 1675SOL    HW2 5046   2.960   1.030   0.653
 1676SOL     OW 5047   2.876   0.236   0.971
 1676SOL    HW1 5048   2.868   0.200   0.878
 1676SOL    HW2 5049   2.874   0.160   1.036
 1677SOL     OW 5050   2.452   1.487   0.491
 1677SOL    HW1 5051   2.494   1.429   0.421
 1677SOL    HW2 5052   2.408   1.566   0.447
 1678SOL     OW 5053   3.571   0.385   1.381
 1678SOL    HW1 5054   3.644   0.454   1.385
 1678SOL    HW2 5055   3.599   0.310   1.322
 1679SOL     OW 5056   2.117   1.348   0.290
 1679SOL    HW1 5057   2.021   1.349   0.263
 1679SOL    HW2 5058   2.129   1.401   0.374
 1680SOL     OW 5059   1.967   1.013   1.726
 1680SOL    HW1 5060   1.890   0.980   1.780
 1680SOL    HW2 5061   2.052   0.983   1.768
 1681SOL     OW 5062   2.534   0.203   1.489
 1681SOL    HW1 5063   2.624   0.187   1.449
 1681SOL    HW2 5064   2.542   0.208   1.588
 1682SOL     OW 5065   3.302   0.856   1.398
 1682SOL    HW1 5066   3.245   0.908   1.335
 1682SOL    HW2 5067   3.398   0.868   1.374
 1683SOL     OW 5068   1.934   0.166   0.318
 1683SOL    HW1 5069   1.917   0.249   0.264
 1683SOL    HW2 5070   2.024   0.129   0.296
 1684SOL     OW 5071   3.045   1.335   0.119
 1684SOL    HW1 5072   2.946   1.324   0.121
 1684SOL    HW2 5073   3.079   1.350   0.212
 1685SOL     OW 5074   2.475   0.842   1.431
 1685SOL    HW1 5075   2.531   0.923   1.414
 1685SOL    HW2 5076   2.534   0.762   1.434
 1686SOL     OW 5077   3.355   1.767   0.959
 1686SOL    HW1 5078   3.388   1.831   0.890
 1686SOL    HW2 5079   3.421   1.761   1.034
 1687SOL     OW 5080   2.578   0.565   1.708
 1687SOL    HW1 5081   2.597   0.630   1.782
 1687SOL    HW2 5082   2.638   0.485   1.717
 1688SOL     OW 5083   3.312   1.220   1.633
 1688SOL    HW1 5084   3.303   1.210   1.732
 1688SOL    HW2 5085   3.408   1.213   1.607
 1689SOL     OW 5086   2.252   1.741   1.560
 1689SOL    HW1 5087   2.161   1.782   1.558
 1689SOL    HW2 5088   2.245   1.647   1.592
 1690SOL     OW 5089   3.536   0.883   1.254
 1690SOL    HW1 5090   3.509   0.794   1.217
 1690SOL    HW2 5091   3.537   0.951   1.181
 1691SOL     OW 5092   3.087   0.325   0.449
 1691SOL    HW1 5093   3.152   0.251   0.438
 1691SOL    HW2 5094   3.107   0.375   0.533
 1692SOL     OW 5095   2.456   0.745   0.652
 1692SOL    HW1 5096   2.506   0.830   0.633
 1692SOL    HW2 5097   2.368   0.747   0.604
 1693SOL     OW 5098   3.639   0.342   1.642
 1693SOL    HW1 5099   3.622   0.373   1.548
 1693SOL    HW2 5100   3.555   0.305   1.680
 1694SOL     OW 5101   3.592   0.934   1.517
 1694SOL    HW1 5102   3.630   1.025   1.532
 1694SOL    HW2 5103   3.584   0.917   1.418
 1695SOL     OW 5104   2.721   1.374   0.016
 1695SOL    HW1 5105   2.675   1.389   0.104
 1695SOL    HW2 5106   2.765   1.459  -0.014
 1696SOL     OW 5107   2.523   1.790   0.953
 1696SOL    HW1 5108   2.477   1.878   0.940
 1696SOL    HW2 5109   2.622   1.802   0.946
 1697SOL     OW 5110   2.721   0.956   0.861
 1697SOL    HW1 5111   2.775   0.887   0.909
 1697SOL    HW2 5112   2.689   1.025   0.927
 1698SOL     OW 5113   2.945   0.984   0.087
 1698SOL    HW1 5114   2.922   1.037   0.005
 1698SOL    HW2 5115   3.026   0.928   0.068
 1699SOL     OW 5116   3.723   1.569   0.851
 1699SOL    HW1 5117   3.652   1.557   0.781
 1699SOL    HW2 5118   3.724   1.490   0.911
 1700SOL     OW 5119   2.083   1.314   1.844
 1700SOL    HW1 5120   2.018   1.241   1.823
 1700SOL    HW2 5121   2.087   1.328   1.942
 1701SOL     OW 5122   1.941   1.240   0.653
 1701SOL    HW1 5123   1.940   1.193   0.741
 1701SOL    HW2 5124   2.023   1.212   0.602
 1702SOL     OW 5125   2.534   1.391   1.624
 1702SOL    HW1 5126   2.456   1.341   1.662
 1702SOL    HW2 5127   2.531   1.486   1.655
 1703SOL     OW 5128   3.686   0.192   1.227
 1703SOL    HW1 5129   3.682   0.102   1.271
 1703SOL    HW2 5130   3.689   0.181   1.128
 1704SOL     OW 5131   2.290   0.424   0.520
 1704SOL    HW1 5132   2.320   0.352   0.458
 1704SOL    HW2 5133   2.251   0.384   0.603
 1705SOL     OW 5134   3.567   1.487   1.104
 1705SOL    HW1 5135   3.474   1.462   1.077
 1705SOL    HW2 5136   3.593   1.437   1.186
 1706SOL     OW 5137   2.179   0.547   1.280
 1706SOL    HW1 5138   2.217   0.488   1.352
 1706SOL    HW2 5139   2.219   0.521   1.192
 1707SOL     OW 5140   2.674   1.586   0.687
 1707SOL    HW1 5141   2.706   1.596   0.593
 1707SOL    HW2 5142   2.595   1.524   0.689
 1708SOL     OW 5143   3.286   0.214   1.112
 1708SOL    HW1 5144   3.338   0.149   1.167
 1708SOL    HW2 5145   3.237   0.277   1.173
 1709SOL     OW 5146   2.863   0.034   1.154
 1709SOL    HW1 5147   2.800  -0.038   1.123
 1709SOL    HW2 5148   2.956  -0.002   1.154
 1710SOL     OW 5149   2.632   1.330   0.301
 1710SOL    HW1 5150   2.586   1.243   0.318
 1710SOL    HW2 5151   2.723   1.327   0.342
 1711SOL     OW 5152   2.480   1.567   1.284
 1711SOL    HW1 5153   2.475   1.649   1.341
 1711SOL    HW2 5154   2.569   1.564   1.239
 1712SOL     OW 5155   3.214   0.052   0.168
 1712SOL    HW1 5156   3.249   0.011   0.084
 1712SOL    HW2 5157   3.124   0.014   0.188
 1713SOL     OW 5158   3.162   0.453   0.691
 1713SOL    HW1 5159   3.103   0.533   0.695
 1713SOL    HW2 5160   3.177   0.418   0.784
 1714SOL     OW 5161   3.455   0.221   0.882
 1714SOL    HW1 5162   3.371   0.220   0.936
 1714SOL    HW2 5163   3.457   0.304   0.826
 1715SOL     OW 5164   1.901   1.077   0.300
 1715SOL    HW1 5165   2.000   1.066   0.291
 1715SOL    HW2 5166   1.861   0.991   0.332
 1716SOL     OW 5167   2.737   1.646   0.337
 1716SOL    HW1 5168   2.660   1.611   0.283
 1716SOL    HW2 5169   2.705   1.717   0.399
 1717SOL     OW 5170   2.092   0.628   1.975
 1717SOL    HW1 5171   1.999   0.626   2.012
 1717SOL    HW2 5172   2.093   0.589   1.883
 1718SOL     OW 5173   2.087   0.275   2.858
 1718SOL    HW1 5174   2.122   0.258   2.950
 1718SOL    HW2 5175   1.999   0.230   2.846
 1719SOL     OW 5176   1.881   0.368   2.509
 1719SOL    HW1 5177   1.799   0.411   2.548
 1719SOL    HW2 5178   1.853   0.295   2.446
 1720SOL     OW 5179   2.431   1.275   3.027
 1720SOL    HW1 5180   2.338   1.268   2.990
 1720SOL    HW2 5181   2.442   1.364   3.071
 1721SOL     OW 5182   3.417   1.511   2.565
 1721SOL    HW1 5183   3.360   1.495   2.646
 1721SOL    HW2 5184   3.358   1.521   2.485
 1722SOL     OW 5185   2.997   0.703   2.579
 1722SOL    HW1 5186   3.054   0.781   2.554
 1722SOL    HW2 5187   2.937   0.729   2.655
 1723SOL     OW 5188   3.617   0.607   2.093
 1723SOL    HW1 5189   3.605   0.594   1.994
 1723SOL    HW2 5190   3.587   0.526   2.142
 1724SOL     OW 5191   2.630   1.144   2.885
 1724SOL    HW1 5192   2.552   1.161   2.945
 1724SOL    HW2 5193   2.664   1.231   2.849
 1725SOL     OW 5194   2.712   0.798   3.685
 1725SOL    HW1 5195   2.708   0.874   3.750
 1725SOL    HW2 5196   2.734   0.834   3.594
 1726SOL     OW 5197   2.547   1.012   2.527
 1726SOL    HW1 5198   2.616   0.996   2.597
 1726SOL    HW2 5199   2.474   1.069   2.565
 1727SOL     OW 5200   2.548   1.161   3.665
 1727SOL    HW1 5201   2.608   1.240   3.679
 1727SOL    HW2 5202   2.462   1.192   3.624
 1728SOL     OW 5203   2.197   1.435   2.923
 1728SOL    HW1 5204   2.119   1.404   2.870
 1728SOL    HW2 5205   2.255   1.493   2.866
 1729SOL     OW 5206   3.322   1.505   3.201
 1729SOL    HW1 5207   3.346   1.599   3.227
 1729SOL    HW2 5208   3.306   1.451   3.283
 1730SOL     OW 5209   2.300   0.392   3.361
 1730SOL    HW1 5210   2.382   0.336   3.370
 1730SOL    HW2 5211   2.219   0.334   3.365
 1731SOL     OW 5212   3.465   0.447   2.599
 1731SOL    HW1 5213   3.391   0.493   2.549
 1731SOL    HW2 5214   3.516   0.515   2.652
 1732SOL     OW 5215   2.093   1.713   2.345
 1732SOL    HW1 5216   2.127   1.790   2.399
 1732SOL    HW2 5217   2.137   1.713   2.255
 1733SOL     OW 5218   2.989   1.341   3.552
 1733SOL    HW1 5219   3.036   1.341   3.640
 1733SOL    HW2 5220   2.941   1.254   3.541
 1734SOL     OW 5221   2.092   1.434   2.400
 1734SOL    HW1 5222   2.066   1.530   2.400
 1734SOL    HW2 5223   2.021   1.380   2.445
 1735SOL     OW 5224   2.102   1.091   2.748
 1735SOL    HW1 5225   2.116   1.007   2.800
 1735SOL    HW2 5226   2.047   1.155   2.803
 1736SOL     OW 5227   2.482   1.786   3.301
 1736SOL    HW1 5228   2.390   1.769   3.336
 1736SOL    HW2 5229   2.510   1.878   3.327
 1737SOL     OW 5230   2.468   0.964   1.985
 1737SOL    HW1 5231   2.475   1.048   1.931
 1737SOL    HW2 5232   2.514   0.977   2.073
 1738SOL     OW 5233   3.456   0.114   3.342
 1738SOL    HW1 5234   3.438   0.181   3.270
 1738SOL    HW2 5235   3.453   0.160   3.431
 1739SOL     OW 5236   1.984   0.643   2.425
 1739SOL    HW1 5237   1.939   0.555   2.442
 1739SOL    HW2 5238   1.983   0.697   2.509
 1740SOL     OW 5239   3.704   1.767   2.221
 1740SOL    HW1 5240   3.758   1.738   2.301
 1740SOL    HW2 5241   3.734   1.857   2.192
 1741SOL     OW 5242   1.889   1.596   1.979
 1741SOL    HW1 5243   1.870   1.500   2.000
 1741SOL    HW2 5244   1.856   1.654   2.054
 1742SOL     OW 5245   3.551   0.922   2.474
 1742SOL    HW1 5246   3.646   0.893   2.482
 1742SOL    HW2 5247   3.543   0.987   2.399
 1743SOL     OW 5248   3.503   1.108   2.294
 1743SOL    HW1 5249   3.589   1.110   2.242
 1743SOL    HW2 5250   3.517   1.155   2.382
 1744SOL     OW 5251   1.975   0.737   3.459
 1744SOL    HW1 5252   2.063   0.724   3.504
 1744SOL    HW2 5253   1.962   0.834   3.437
 1745SOL     OW 5254   2.475   1.365   2.588
 1745SOL    HW1 5255   2.426   1.278   2.597
 1745SOL    HW2 5256   2.452   1.408   2.501
 1746SOL     OW 5257   3.155   1.228   3.285
 1746SOL    HW1 5258   3.192   1.155   3.227
 1746SOL    HW2 5259   3.207   1.233   3.370
 1747SOL     OW 5260   2.671   0.004   2.364
 1747SOL    HW1 5261   2.711   0.095   2.355
 1747SOL    HW2 5262   2.571   0.012   2.370
 1748SOL     OW 5263   2.059   0.976   3.126
 1748SOL    HW1 5264   2.148   0.931   3.112
 1748SOL    HW2 5265   1.986   0.911   3.107
 1749SOL     OW 5266   3.387   0.999   2.052
 1749SOL    HW1 5267   3.324   0.923   2.065
 1749SOL    HW2 5268   3.435   1.017   2.138
 1750SOL     OW 5269   3.049   1.792   3.478
 1750SOL    HW1 5270   3.073   1.852   3.402
 1750SOL    HW2 5271   3.056   1.697   3.448
 1751SOL     OW 5272   2.179   0.251   3.663
 1751SOL    HW1 5273   2.250   0.322   3.669
 1751SOL    HW2 5274   2.091   0.290   3.691
 1752SOL     OW 5275   3.328   1.417   2.815
 1752SOL    HW1 5276   3.269   1.423   2.895
 1752SOL    HW2 5277   3.313   1.329   2.769
 1753SOL     OW 5278   3.529   1.714   2.434
 1753SOL    HW1 5279   3.488   1.691   2.346
 1753SOL    HW2 5280   3.511   1.640   2.499
 1754SOL     OW 5281   2.460   0.729   2.132
 1754SOL    HW1 5282   2.484   0.798   2.064
 1754SOL    HW2 5283   2.382   0.762   2.186
 1755SOL     OW 5284   3.143   0.345   2.806
 1755SOL    HW1 5285   3.057   0.295   2.793
 1755SOL    HW2 5286   3.205   0.291   2.862
 1756SOL     OW 5287   3.438   1.662   2.169
 1756SOL    HW1 5288   3.527   1.708   2.172
 1756SOL    HW2 5289   3.417   1.638   2.074
 1757SOL     OW 5290   2.669   0.605   3.327
 1757SOL    HW1 5291   2.622   0.602   3.416
 1757SOL    HW2 5292   2.618   0.550   3.261
 1758SOL     OW 5293   3.256   0.469   3.536
 1758SOL    HW1 5294   3.236   0.512   3.624
 1758SOL    HW2 5295   3.334   0.407   3.545
 1759SOL     OW 5296   2.835   0.890   3.434
 1759SOL    HW1 5297   2.881   0.806   3.405
 1759SOL    HW2 5298   2.779   0.924   3.359
 1760SOL     OW 5299   2.853   0.410   3.104
 1760SOL    HW1 5300   2.776   0.444   3.158
 1760SOL    HW2 5301   2.819   0.359   3.025
 1761SOL     OW 5302   2.903   0.701   2.291
 1761SOL    HW1 5303   2.929   0.697   2.387
 1761SOL    HW2 5304   2.818   0.650   2.277
 1762SOL     OW 5305   1.938   0.811   2.651
 1762SOL    HW1 5306   2.037   0.799   2.660
 1762SOL    HW2 5307   1.914   0.906   2.672
 1763SOL     OW 5308   1.992   1.821   3.433
 1763SOL    HW1 5309   1.982   1.806   3.532
 1763SOL    HW2 5310   1.906   1.857   3.397
 1764SOL     OW 5311   2.727   0.348   2.057
 1764SOL    HW1 5312   2.786   0.411   2.008
 1764SOL    HW2 5313   2.746   0.254   2.028
 1765SOL     OW 5314   3.581   0.585   3.693
 1765SOL    HW1 5315   3.555   0.674   3.657
 1765SOL    HW2 5316   3.579   0.517   3.620
 1766SOL     OW 5317   3.224   1.144   2.407
 1766SOL    HW1 5318   3.307   1.115   2.359
 1766SOL    HW2 5319   3.175   1.211   2.351
 1767SOL     OW 5320   2.412   0.196   2.747
 1767SOL    HW1 5321   2.407   0.191   2.847
 1767SOL    HW2 5322   2.414   0.292   2.718
 1768SOL     OW 5323   2.870   1.456   2.339
 1768SOL    HW1 5324   2.824   1.528   2.287
 1768SOL    HW2 5325   2.866   1.476   2.437
 1769SOL     OW 5326   2.213   1.801   2.715
 1769SOL    HW1 5327   2.263   1.715   2.721
 1769SOL    HW2 5328   2.278   1.878   2.712
 1770SOL     OW 5329   3.657   1.066   2.735
 1770SOL    HW1 5330   3.595   1.051   2.659
 1770SOL    HW2 5331   3.605   1.077   2.820
 1771SOL     OW 5332   3.089   1.550   3.368
 1771SOL    HW1 5333   3.095   1.473   3.432
 1771SOL    HW2 5334   3.037   1.524   3.288
 1772SOL     OW 5335   2.183   0.943   2.104
 1772SOL    HW1 5336   2.265   0.982   2.062
 1772SOL    HW2 5337   2.156   0.861   2.055
 1773SOL     OW 5338   3.320   0.735   2.590
 1773SOL    HW1 5339   3.315   0.670   2.665
 1773SOL    HW2 5340   3.400   0.794   2.603
 1774SOL     OW 5341   2.323   1.266   3.589
 1774SOL    HW1 5342   2.273   1.267   3.503
 1774SOL    HW2 5343   2.260   1.248   3.665
 1775SOL     OW 5344   2.973   1.776   2.099
 1775SOL    HW1 5345   2.913   1.714   2.149
 1775SOL    HW2 5346   3.004   1.732   2.014
 1776SOL     OW 5347   2.064   0.285   3.360
 1776SOL    HW1 5348   1.984   0.345   3.347
 1776SOL    HW2 5349   2.054   0.236   3.446
 1777SOL     OW 5350   3.494   1.377   1.943
 1777SOL    HW1 5351   3.462   1.471   1.933
 1777SOL    HW2 5352   3.418   1.314   1.931
 1778SOL     OW 5353   2.326   1.743   2.185
 1778SOL    HW1 5354   2.359   1.782   2.271
 1778SOL    HW2 5355   2.402   1.736   2.120
 1779SOL     OW 5356   3.262   0.107   2.288
 1779SOL    HW1 5357   3.238   0.070   2.198
 1779SOL    HW2 5358   3.361   0.123   2.292
 1780SOL     OW 5359   2.111   1.785   3.103
 1780SOL    HW1 5360   2.168   1.720   3.153
 1780SOL    HW2 5361   2.095   1.752   3.010
 1781SOL     OW 5362   2.802   1.698   2.766
 1781SOL    HW1 5363   2.882   1.641   2.787
 1781SOL    HW2 5364   2.753   1.658   2.689
 1782SOL     OW 5365   2.244   0.700   2.342
 1782SOL    HW1 5366   2.289   0.610   2.339
 1782SOL    HW2 5367   2.150   0.689   2.375
 1783SOL     OW 5368   3.409   0.222   3.591
 1783SOL    HW1 5369   3.404   0.259   3.683
 1783SOL    HW2 5370   3.337   0.153   3.579
 1784SOL     OW 5371   2.476   0.122   1.979
 1784SOL    HW1 5372   2.574   0.100   1.986
 1784SOL    HW2 5373   2.445   0.105   1.886
 1785SOL     OW 5374   2.643   0.264   3.611
 1785SOL    HW1 5375   2.710   0.203   3.654
 1785SOL    HW2 5376   2.570   0.283   3.676
 1786SOL     OW 5377   2.750   1.514   3.057
 1786SOL    HW1 5378   2.727   1.489   2.963
 1786SOL    HW2 5379   2.811   1.445   3.096
 1787SOL     OW 5380   3.213   0.590   3.295
 1787SOL    HW1 5381   3.241   0.547   3.380
 1787SOL    HW2 5382   3.238   0.686   3.296
 1788SOL     OW 5383   2.665   1.402   2.786
 1788SOL    HW1 5384   2.755   1.416   2.744
 1788SOL    HW2 5385   2.594   1.404   2.715
 1789SOL     OW 5386   2.784   0.503   2.761
 1789SOL    HW1 5387   2.759   0.494   2.665
 1789SOL    HW2 5388   2.832   0.421   2.792
 1790SOL     OW 5389   2.401   0.064   2.374
 1790SOL    HW1 5390   2.320   0.065   2.432
 1790SOL    HW2 5391   2.404   0.147   2.319
 1791SOL     OW 5392   3.296   1.188   1.903
 1791SOL    HW1 5393   3.328   1.112   1.960
 1791SOL    HW2 5394   3.204   1.215   1.933
 1792SOL     OW 5395   2.159   0.035   2.033
 1792SOL    HW1 5396   2.208   0.119   2.012
 1792SOL    HW2 5397   2.221  -0.030   2.078
 1793SOL     OW 5398   2.797   0.236   2.342
 1793SOL    HW1 5399   2.749   0.277   2.264
 1793SOL    HW2 5400   2.896   0.234   2.323
 1794SOL     OW 5401   2.938   0.683   3.326
 1794SOL    HW1 5402   2.858   0.622   3.329
 1794SOL    HW2 5403   3.019   0.630   3.302
 1795SOL     OW 5404   3.089   1.570   2.655
 1795SOL    HW1 5405   3.110   1.644   2.590
 1795SOL    HW2 5406   3.157   1.570   2.728
 1796SOL     OW 5407   2.321   1.152   2.603
 1796SOL    HW1 5408   2.250   1.125   2.668
 1796SOL    HW2 5409   2.295   1.124   2.510
 1797SOL     OW 5410   3.133   1.797   2.453
 1797SOL    HW1 5411   3.177   1.861   2.389
 1797SOL    HW2 5412   3.083   1.849   2.523
 1798SOL     OW 5413   2.894   0.549   1.878
 1798SOL    HW1 5414   2.853   0.631   1.839
 1798SOL    HW2 5415   2.958   0.575   1.951
 1799SOL     OW 5416   1.940   0.556   3.248
 1799SOL    HW1 5417   2.032   0.555   3.207
 1799SOL    HW2 5418   1.934   0.630   3.315
 1800SOL     OW 5419   2.423   0.222   3.009
 1800SOL    HW1 5420   2.461   0.138   3.046
 1800SOL    HW2 5421   2.335   0.241   3.053
 1801SOL     OW 5422   2.728   0.454   2.504
 1801SOL    HW1 5423   2.696   0.526   2.442
 1801SOL    HW2 5424   2.752   0.373   2.451
 1802SOL     OW 5425   2.879   0.039   2.615
 1802SOL    HW1 5426   2.807   0.044   2.546
 1802SOL    HW2 5427   2.855  -0.030   2.684
 1803SOL     OW 5428   3.291   1.173   2.729
 1803SOL    HW1 5429   3.236   1.089   2.722
 1803SOL    HW2 5430   3.317   1.202   2.637
 1804SOL     OW 5431   3.328   0.590   2.854
 1804SOL    HW1 5432   3.298   0.495   2.861
 1804SOL    HW2 5433   3.401   0.606   2.920
 1805SOL     OW 5434   3.719   0.833   2.239
 1805SOL    HW1 5435   3.761   0.769   2.303
 1805SOL    HW2 5436   3.681   0.782   2.161
 1806SOL     OW 5437   2.350   1.385   2.036
 1806SOL    HW1 5438   2.263   1.370   2.083
 1806SOL    HW2 5439   2.333   1.411   1.941
 1807SOL     OW 5440   3.526   1.280   2.519
 1807SOL    HW1 5441   3.625   1.288   2.533
 1807SOL    HW2 5442   3.481   1.364   2.550
 1808SOL     OW 5443   3.252   0.575   1.940
 1808SOL    HW1 5444   3.198   0.554   2.021
 1808SOL    HW2 5445   3.343   0.534   1.949
 1809SOL     OW 5446   2.389   0.256   2.190
 1809SOL    HW1 5447   2.416   0.197   2.115
 1809SOL    HW2 5448   2.389   0.351   2.159
 1810SOL     OW 5449   3.616   1.223   3.450
 1810SOL    HW1 5450   3.707   1.184   3.437
 1810SOL    HW2 5451   3.624   1.319   3.474
 1811SOL     OW 5452   2.926   1.347   3.202
 1811SOL    HW1 5453   2.846   1.324   3.257
 1811SOL    HW2 5454   3.009   1.321   3.251
 1812SOL     OW 5455   3.454   1.629   3.487
 1812SOL    HW1 5456   3.481   1.663   3.397
 1812SOL    HW2 5457   3.533   1.591   3.533
 1813SOL     OW 5458   2.973   1.195   2.962
 1813SOL    HW1 5459   2.933   1.239   3.043
 1813SOL    HW2 5460   2.932   1.232   2.879
 1814SOL     OW 5461   3.500   1.099   2.941
 1814SOL    HW1 5462   3.505   1.180   3.000
 1814SOL    HW2 5463   3.414   1.101   2.890
 1815SOL     OW 5464   2.777   0.089   3.264
 1815SOL    HW1 5465   2.802   0.069   3.169
 1815SOL    HW2 5466   2.849   0.145   3.306
 1816SOL     OW 5467   2.842   1.116   3.581
 1816SOL    HW1 5468   2.743   1.122   3.591
 1816SOL    HW2 5469   2.865   1.036   3.525
 1817SOL     OW 5470   2.567   1.050   2.230
 1817SOL    HW1 5471   2.553   1.057   2.329
 1817SOL    HW2 5472   2.651   0.999   2.212
 1818SOL     OW 5473   2.272   0.813   3.113
 1818SOL    HW1 5474   2.358   0.825   3.163
 1818SOL    HW2 5475   2.230   0.726   3.140
 1819SOL     OW 5476   3.136   0.386   3.124
 1819SOL    HW1 5477   3.157   0.460   3.188
 1819SOL    HW2 5478   3.047   0.403   3.081
 1820SOL     OW 5479   1.926   1.564   3.193
 1820SOL    HW1 5480   1.880   1.646   3.159
 1820SOL    HW2 5481   2.024   1.583   3.202
 1821SOL     OW 5482   2.229   1.100   2.363
 1821SOL    HW1 5483   2.222   1.183   2.307
 1821SOL    HW2 5484   2.233   1.020   2.303
 1822SOL     OW 5485   2.428   0.537   2.727
 1822SOL    HW1 5486   2.440   0.603   2.653
 1822SOL    HW2 5487   2.474   0.571   2.810
 1823SOL     OW 5488   3.114   1.348   2.250
 1823SOL    HW1 5489   3.164   1.425   2.290
 1823SOL    HW2 5490   3.019   1.350   2.282
 1824SOL     OW 5491   3.134   1.445   3.004
 1824SOL    HW1 5492   3.181   1.458   3.091
 1824SOL    HW2 5493   3.068   1.371   3.013
 1825SOL     OW 5494   3.444   0.639   2.334
 1825SOL    HW1 5495   3.413   0.700   2.407
 1825SOL    HW2 5496   3.494   0.691   2.265
 1826SOL     OW 5497   2.216   1.510   3.191
 1826SOL    HW1 5498   2.195   1.466   3.104
 1826SOL    HW2 5499   2.313   1.536   3.194
 1827SOL     OW 5500   2.264   0.751   3.460
 1827SOL    HW1 5501   2.332   0.806   3.413
 1827SOL    HW2 5502   2.304   0.663   3.487
 1828SOL     OW 5503   3.449   0.779   3.532
 1828SOL    HW1 5504   3.357   0.817   3.527
 1828SOL    HW2 5505   3.509   0.826   3.467
 1829SOL     OW 5506   2.875   0.105   3.632
 1829SOL    HW1 5507   2.881   0.190   3.580
 1829SOL    HW2 5508   2.907   0.029   3.575
 1830SOL     OW 5509   2.366   0.050   3.602
 1830SOL    HW1 5510   2.324  -0.007   3.532
 1830SOL    HW2 5511   2.300   0.119   3.634
 1831SOL     OW 5512   2.435   0.870   2.891
 1831SOL    HW1 5513   2.479   0.959   2.882
 1831SOL    HW2 5514   2.372   0.870   2.968
 1832SOL     OW 5515   3.222   0.862   2.907
 1832SOL    HW1 5516   3.147   0.862   2.841
 1832SOL    HW2 5517   3.259   0.770   2.916
 1833SOL     OW 5518   3.071   0.525   2.137
 1833SOL    HW1 5519   3.084   0.441   2.191
 1833SOL    HW2 5520   3.042   0.599   2.197
 1834SOL     OW 5521   2.169   0.213   3.093
 1834SOL    HW1 5522   2.146   0.250   3.183
 1834SOL    HW2 5523   2.139   0.118   3.087
 1835SOL     OW 5524   1.899   1.310   3.144
 1835SOL    HW1 5525   1.952   1.261   3.212
 1835SOL    HW2 5526   1.921   1.408   3.149
 1836SOL     OW 5527   2.594   0.634   2.926
 1836SOL    HW1 5528   2.653   0.608   2.850
 1836SOL    HW2 5529   2.566   0.730   2.915
 1837SOL     OW 5530   3.590   0.935   3.716
 1837SOL    HW1 5531   3.544   0.928   3.627
 1837SOL    HW2 5532   3.528   0.979   3.782
 1838SOL     OW 5533   2.169   0.063   2.480
 1838SOL    HW1 5534   2.158   0.157   2.513
 1838SOL    HW2 5535   2.164   0.000   2.557
 1839SOL     OW 5536   3.484   0.367   2.236
 1839SOL    HW1 5537   3.486   0.291   2.300
 1839SOL    HW2 5538   3.436   0.444   2.276
 1840SOL     OW 5539   2.885   0.766   2.828
 1840SOL    HW1 5540   2.900   0.787   2.924
 1840SOL    HW2 5541   2.855   0.671   2.819
 1841SOL     OW 5542   2.842   1.573   3.562
 1841SOL    HW1 5543   2.822   1.617   3.474
 1841SOL    HW2 5544   2.881   1.482   3.546
 1842SOL     OW 5545   3.721   1.518   3.467
 1842SOL    HW1 5546   3.735   1.545   3.372
 1842SOL    HW2 5547   3.804   1.540   3.520
 1843SOL     OW 5548   2.212   0.898   3.666
 1843SOL    HW1 5549   2.288   0.942   3.714
 1843SOL    HW2 5550   2.247   0.851   3.584
 1844SOL     OW 5551   3.402   0.274   1.987
 1844SOL    HW1 5552   3.341   0.199   2.010
 1844SOL    HW2 5553   3.424   0.326   2.070
 1845SOL     OW 5554   3.165   0.838   1.904
 1845SOL    HW1 5555   3.199   0.745   1.919
 1845SOL    HW2 5556   3.183   0.865   1.809
 1846SOL     OW 5557   2.930   1.333   2.711
 1846SOL    HW1 5558   2.937   1.249   2.656
 1846SOL    HW2 5559   2.992   1.402   2.675
 1847SOL     OW 5560   2.181   0.810   2.811
 1847SOL    HW1 5561   2.274   0.846   2.816
 1847SOL    HW2 5562   2.175   0.725   2.863
 1848SOL     OW 5563   2.201   0.509   2.868
 1848SOL    HW1 5564   2.149   0.426   2.851
 1848SOL    HW2 5565   2.278   0.514   2.804
 1849SOL     OW 5566   3.000   0.380   3.540
 1849SOL    HW1 5567   2.955   0.443   3.604
 1849SOL    HW2 5568   3.093   0.411   3.523
 1850SOL     OW 5569   3.022   0.207   3.339
 1850SOL    HW1 5570   3.022   0.271   3.416
 1850SOL    HW2 5571   3.050   0.255   3.256
 1851SOL     OW 5572   1.870   1.326   2.062
 1851SOL    HW1 5573   1.777   1.347   2.031
 1851SOL    HW2 5574   1.880   1.227   2.075
 1852SOL     OW 5575   1.950   1.801   2.789
 1852SOL    HW1 5576   1.908   1.715   2.762
 1852SOL    HW2 5577   2.044   1.804   2.755
 1853SOL     OW 5578   2.366   1.568   2.772
 1853SOL    HW1 5579   2.432   1.642   2.781
 1853SOL    HW2 5580   2.410   1.489   2.730
 1854SOL     OW 5581   2.864   0.796   3.100
 1854SOL    HW1 5582   2.905   0.764   3.186
 1854SOL    HW2 5583   2.768   0.769   3.097
 1855SOL     OW 5584   1.902   0.544   2.976
 1855SOL    HW1 5585   1.987   0.511   2.935
 1855SOL    HW2 5586   1.915   0.559   3.074
 1856SOL     OW 5587   2.051   0.520   3.584
 1856SOL    HW1 5588   2.110   0.480   3.514
 1856SOL    HW2 5589   1.993   0.591   3.543
 1857SOL     OW 5590   3.231   0.950   3.522
 1857SOL    HW1 5591   3.270   1.039   3.542
 1857SOL    HW2 5592   3.241   0.930   3.425
 1858SOL     OW 5593   2.677   0.572   2.187
 1858SOL    HW1 5594   2.684   0.483   2.141
 1858SOL    HW2 5595   2.583   0.606   2.179
 1859SOL     OW 5596   3.519   0.604   3.068
 1859SOL    HW1 5597   3.481   0.535   3.130
 1859SOL    HW2 5598   3.601   0.568   3.024
 1860SOL     OW 5599   2.114   1.564   3.606
 1860SOL    HW1 5600   2.084   1.621   3.682
 1860SOL    HW2 5601   2.107   1.467   3.632
 1861SOL     OW 5602   2.533   0.464   3.131
 1861SOL    HW1 5603   2.499   0.375   3.101
 1861SOL    HW2 5604   2.559   0.518   3.051
 1862SOL     OW 5605   2.792   1.678   3.327
 1862SOL    HW1 5606   2.768   1.660   3.232
 1862SOL    HW2 5607   2.822   1.772   3.337
 1863SOL     OW 5608   2.335   0.500   2.053
 1863SOL    HW1 5609   2.396   0.580   2.057
 1863SOL    HW2 5610   2.240   0.531   2.060
 1864SOL     OW 5611   2.021   1.137   3.328
 1864SOL    HW1 5612   2.043   1.076   3.404
 1864SOL    HW2 5613   2.031   1.088   3.242
 1865SOL     OW 5614   3.209   1.059   3.096
 1865SOL    HW1 5615   3.233   0.996   3.022
 1865SOL    HW2 5616   3.119   1.099   3.078
 1866SOL     OW 5617   3.164   0.855   2.171
 1866SOL    HW1 5618   3.078   0.824   2.213
 1866SOL    HW2 5619   3.160   0.841   2.072
 1867SOL     OW 5620   3.621   1.747   3.016
 1867SOL    HW1 5621   3.682   1.777   2.943
 1867SOL    HW2 5622   3.583   1.658   2.994
 1868SOL     OW 5623   3.114   1.731   2.990
 1868SOL    HW1 5624   3.198   1.736   2.936
 1868SOL    HW2 5625   3.091   1.635   3.008
 1869SOL     OW 5626   1.945   1.258   2.884
 1869SOL    HW1 5627   1.940   1.257   2.984
 1869SOL    HW2 5628   1.862   1.217   2.846
 1870SOL     OW 5629   2.550   1.662   3.578
 1870SOL    HW1 5630   2.494   1.743   3.587
 1870SOL    HW2 5631   2.602   1.666   3.492
 1871SOL     OW 5632   3.588   0.135   2.385
 1871SOL    HW1 5633   3.661   0.118   2.318
 1871SOL    HW2 5634   3.557   0.048   2.423
 1872SOL     OW 5635   3.250   1.573   2.339
 1872SOL    HW1 5636   3.317   1.585   2.265
 1872SOL    HW2 5637   3.210   1.662   2.362
 1873SOL     OW 5638   1.992   1.794   3.713
 1873SOL    HW1 5639   1.951   1.720   3.766
 1873SOL    HW2 5640   2.056   1.845   3.771
 1874SOL     OW 5641   3.142   0.927   2.534
 1874SOL    HW1 5642   3.202   0.846   2.536
 1874SOL    HW2 5643   3.182   0.996   2.474
 1875SOL     OW 5644   2.692   1.273   3.284
 1875SOL    HW1 5645   2.687   1.306   3.379
 1875SOL    HW2 5646   2.606   1.292   3.238
 1876SOL     OW 5647   2.534   1.616   2.016
 1876SOL    HW1 5648   2.543   1.626   1.917
 1876SOL    HW2 5649   2.494   1.527   2.037
 1877SOL     OW 5650   3.512   1.720   3.256
 1877SOL    HW1 5651   3.565   1.730   3.172
 1877SOL    HW2 5652   3.485   1.810   3.290
 1878SOL     OW 5653   3.703   0.175   2.825
 1878SOL    HW1 5654   3.742   0.090   2.789
 1878SOL    HW2 5655   3.605   0.177   2.806
 1879SOL     OW 5656   2.125   0.326   2.582
 1879SOL    HW1 5657   2.046   0.377   2.548
 1879SOL    HW2 5658   2.116   0.311   2.680
 1880SOL     OW 5659   3.056   1.612   1.893
 1880SOL    HW1 5660   3.062   1.519   1.930
 1880SOL    HW2 5661   2.997   1.612   1.813
 1881SOL     OW 5662   2.684   1.002   3.234
 1881SOL    HW1 5663   2.724   1.001   3.142
 1881SOL    HW2 5664   2.694   1.094   3.274
 1882SOL     OW 5665   2.778   0.910   2.153
 1882SOL    HW1 5666   2.841   0.948   2.085
 1882SOL    HW2 5667   2.818   0.827   2.192
 1883SOL     OW 5668   3.366   1.607   1.906
 1883SOL    HW1 5669   3.274   1.644   1.913
 1883SOL    HW2 5670   3.404   1.627   1.816
 1884SOL     OW 5671   2.234   1.288   3.352
 1884SOL    HW1 5672   2.221   1.381   3.318
 1884SOL    HW2 5673   2.150   1.236   3.339
 1885SOL     OW 5674   3.476   1.292   3.151
 1885SOL    HW1 5675   3.536   1.295   3.231
 1885SOL    HW2 5676   3.401   1.356   3.164
 1886SOL     OW 5677   2.901   1.098   2.558
 1886SOL    HW1 5678   2.831   1.051   2.612
 1886SOL    HW2 5679   2.960   1.030   2.515
 1887SOL     OW 5680   2.876   0.236   2.833
 1887SOL    HW1 5681   2.868   0.200   2.740
 1887SOL    HW2 5682   2.874   0.160   2.898
 1888SOL     OW 5683   2.452   1.487   2.353
 1888SOL    HW1 5684   2.494   1.429   2.283
 1888SOL    HW2 5685   2.408   1.566   2.309
 1889SOL     OW 5686   3.571   0.385   3.243
 1889SOL    HW1 5687   3.644   0.454   3.247
 1889SOL    HW2 5688   3.599   0.310   3.184
 1890SOL     OW 5689   2.117   1.348   2.152
 1890SOL    HW1 5690   2.021   1.349   2.125
 1890SOL    HW2 5691   2.129   1.401   2.236
 1891SOL     OW 5692   1.967   1.013   3.588
 1891SOL    HW1 5693   1.890   0.980   3.642
 1891SOL    HW2 5694   2.052   0.983   3.630
 1892SOL     OW 5695   2.534   0.203   3.351
 1892SOL    HW1 5696   2.624   0.187   3.311
 1892SOL    HW2 5697   2.542   0.208   3.450
 1893SOL     OW 5698   1.937   0.345   1.895
 1893SOL    HW1 5699   1.845   0.317   1.866
 1893SOL    HW2 5700   1.968   0.422   1.839
 1894SOL     OW 5701   3.302   0.856   3.260
 1894SOL    HW1 5702   3.245   0.908   3.197
 1894SOL    HW2 5703   3.398   0.868   3.236
 1895SOL     OW 5704   1.934   0.166   2.180
 1895SOL    HW1 5705   1.917   0.249   2.126
 1895SOL    HW2 5706   2.024   0.129   2.158
 1896SOL     OW 5707   3.045   1.335   1.981
 1896SOL    HW1 5708   2.946   1.324   1.983
 1896SOL    HW2 5709   3.079   1.350   2.074
 1897SOL     OW 5710   2.475   0.842   3.293
 1897SOL    HW1 5711   2.531   0.923   3.276
 1897SOL    HW2 5712   2.534   0.762   3.296
 1898SOL     OW 5713   3.355   1.767   2.821
 1898SOL    HW1 5714   3.388   1.831   2.752
 1898SOL    HW2 5715   3.421   1.761   2.896
 1899SOL     OW 5716   2.578   0.565   3.570
 1899SOL    HW1 5717   2.597   0.630   3.644
 1899SOL    HW2 5718   2.638   0.485   3.579
 1900SOL     OW 5719   3.312   1.220   3.495
 1900SOL    HW1 5720   3.303   1.210   3.594
 1900SOL    HW2 5721   3.408   1.213   3.469
 1901SOL     OW 5722   2.252   1.741   3.422
 1901SOL    HW1 5723   2.161   1.782   3.420
 1901SOL    HW2 5724   2.245   1.647   3.454
 1902SOL     OW 5725   3.536   0.883   3.116
 1902SOL    HW1 5726   3.509   0.794   3.079
 1902SOL    HW2 5727   3.537   0.951   3.043
 1903SOL     OW 5728   3.087   0.325   2.311
 1903SOL    HW1 5729   3.152   0.251   2.300
 1903SOL    HW2 5730   3.107   0.375   2.395
 1904SOL     OW 5731   2.456   0.745   2.514
 1904SOL    HW1 5732   2.506   0.830   2.495
 1904SOL    HW2 5733   2.368   0.747   2.466
 1905SOL     OW 5734   3.639   0.342   3.504
 1905SOL    HW1 5735   3.622   0.373   3.410
 1905SOL    HW2 5736   3.555   0.305   3.542
 1906SOL     OW 5737   3.592   0.934   3.379
 1906SOL    HW1 5738   3.630   1.025   3.394
 1906SOL    HW2 5739   3.584   0.917   3.280
 1907SOL     OW 5740   2.721   1.374   1.878
 1907SOL    HW1 5741   2.675   1.389   1.966
 1907SOL    HW2 5742   2.765   1.459   1.848
 1908SOL     OW 5743   2.523   1.790   2.815
 1908SOL    HW1 5744   2.477   1.878   2.802
 1908SOL    HW2 5745   2.622   1.802   2.808
 1909SOL     OW 5746   2.721   0.956   2.723
 1909SOL    HW1 5747   2.775   0.887   2.771
 1909SOL    HW2 5748   2.689   1.025   2.789
 1910SOL     OW 5749   2.945   0.984   1.949
 1910SOL    HW1 5750   2.922   1.037   1.867
 1910SOL    HW2 5751   3.026   0.928   1.930
 1911SOL     OW 5752   3.723   1.569   2.713
 1911SOL    HW1 5753   3.652   1.557   2.643
 1911SOL    HW2 5754   3.724   1.490   2.773
 1912SOL     OW 5755   2.083   1.314   3.706
 1912SOL    HW1 5756   2.018   1.241   3.685
 1912SOL    HW2 5757   2.087   1.328   3.804
 1913SOL     OW 5758   1.941   1.240   2.515
 1913SOL    HW1 5759   1.940   1.193   2.603
 1913SOL    HW2 5760   2.023   1.212   2.464
 1914SOL     OW 5761   2.534   1.391   3.486
 1914SOL    HW1 5762   2.456   1.341   3.524
 1914SOL    HW2 5763   2.531   1.486   3.517
 1915SOL     OW 5764   3.686   0.192   3.089
 1915SOL    HW1 5765   3.682   0.102   3.133
 1915SOL    HW2 5766   3.689   0.181   2.990
 1916SOL     OW 5767   2.290   0.424   2.382
 1916SOL    HW1 5768   2.320   0.352   2.320
 1916SOL    HW2 5769   2.251   0.384   2.465
 1917SOL     OW 5770   3.567   1.487   2.966
 1917SOL    HW1 5771   3.474   1.462   2.939
 1917SOL    HW2 5772   3.593   1.437   3.048
 1918SOL     OW 5773   2.179   0.547   3.142
 1918SOL    HW1 5774   2.217   0.488   3.214
 1918SOL    HW2 5775   2.219   0.521   3.054
 1919SOL     OW 5776   2.674   1.586   2.549
 1919SOL    HW1 5777   2.706   1.596   2.455
 1919SOL    HW2 5778   2.595   1.524   2.551
 1920SOL     OW 5779   3.286   0.214   2.974
 1920SOL    HW1 5780   3.338   0.149   3.029
 1920SOL    HW2 5781   3.237   0.277   3.035
 1921SOL     OW 5782   2.863   0.034   3.016
 1921SOL    HW1 5783   2.800  -0.038   2.985
 1921SOL    HW2 5784   2.956  -0.002   3.016
 1922SOL     OW 5785   2.632   1.330   2.163
 1922SOL    HW1 5786   2.586   1.243   2.180
 1922SOL    HW2 5787   2.723   1.327   2.204
 1923SOL     OW 5788   2.480   1.567   3.146
 1923SOL    HW1 5789   2.475   1.649   3.203
 1923SOL    HW2 5790   2.569   1.564   3.101
 1924SOL     OW 5791   3.214   0.052   2.030
 1924SOL    HW1 5792   3.249   0.011   1.946
 1924SOL    HW2 5793   3.124   0.014   2.050
 1925SOL     OW 5794   3.162   0.453   2.553
 1925SOL    HW1 5795   3.103   0.533   2.557
 1925SOL    HW2 5796   3.177   0.418   2.646
 1926SOL     OW 5797   3.455   0.221   2.744
 1926SOL    HW1 5798   3.371   0.220   2.798
 1926SOL    HW2 5799   3.457   0.304   2.688
 1927SOL     OW 5800   1.901   1.077   2.162
 1927SOL    HW1 5801   2.000   1.066   2.153
 1927SOL    HW2 5802   1.861   0.991   2.194
 1928SOL     OW 5803   2.737   1.646   2.199
 1928SOL    HW1 5804   2.660   1.611   2.145
 1928SOL    HW2 5805   2.705   1.717   2.261
 1929SOL     OW 5806   2.092   0.628   3.837
 1929SOL    HW1 5807   1.999   0.626   3.874
 1929SOL    HW2 5808   2.093   0.589   3.745
 1930SOL     OW 5809   2.087   0.275   4.720
 1930SOL    HW1 5810   2.122   0.258   4.812
 1930SOL    HW2 5811   1.999   0.230   4.708
 1931SOL     OW 5812   1.881   0.368   4.371
 1931SOL    HW1 5813   1.799   0.411   4.410
 1931SOL    HW2 5814   1.853   0.295   4.308
 1932SOL     OW 5815   2.431   1.275   4.889
 1932SOL    HW1 5816   2.338   1.268   4.852
 1932SOL    HW2 5817   2.442   1.364   4.933
 1933SOL     OW 5818   3.417   1.511   4.427
 1933SOL    HW1 5819   3.360   1.495   4.508
 1933SOL    HW2 5820   3.358   1.521   4.347
 1934SOL     OW 5821   2.997   0.703   4.441
 1934SOL    HW1 5822   3.054   0.781   4.416
 1934SOL    HW2 5823   2.937   0.729   4.517
 1935SOL     OW 5824   3.617   0.607   3.955
 1935SOL    HW1 5825   3.605   0.594   3.856
 1935SOL    HW2 5826   3.587   0.526   4.004
 1936SOL     OW 5827   2.630   1.144   4.747
 1936SOL    HW1 5828   2.552   1.161   4.807
 1936SOL    HW2 5829   2.664   1.231   4.711
 1937SOL     OW 5830   2.547   1.012   4.389
 1937SOL    HW1 5831   2.616   0.996   4.459
 1937SOL    HW2 5832   2.474   1.069   4.427
 1938SOL     OW 5833   2.197   1.435   4.785
 1938SOL    HW1 5834   2.119   1.404   4.732
 1938SOL    HW2 5835   2.255   1.493   4.728
 1939SOL     OW 5836   3.465   0.447   4.461
 1939SOL    HW1 5837   3.391   0.493   4.411
 1939SOL    HW2 5838   3.516   0.515   4.514
 1940SOL     OW 5839   2.093   1.713   4.207
 1940SOL    HW1 5840   2.127   1.790   4.261
 1940SOL    HW2 5841   2.137   1.713   4.117
 1941SOL     OW 5842   2.092   1.434   4.262
 1941SOL    HW1 5843   2.066   1.530   4.262
 1941SOL    HW2 5844   2.021   1.380   4.307
 1942SOL     OW 5845   2.102   1.091   4.610
 1942SOL    HW1 5846   2.116   1.007   4.662
 1942SOL    HW2 5847   2.047   1.155   4.665
 1943SOL     OW 5848   2.468   0.964   3.847
 1943SOL    HW1 5849   2.475   1.048   3.793
 1943SOL    HW2 5850   2.514   0.977   3.935
 1944SOL     OW 5851   1.984   0.643   4.287
 1944SOL    HW1 5852   1.939   0.555   4.304
 1944SOL    HW2 5853   1.983   0.697   4.371
 1945SOL     OW 5854   3.704   1.767   4.083
 1945SOL    HW1 5855   3.758   1.738   4.163
 1945SOL    HW2 5856   3.734   1.857   4.054
 1946SOL     OW 5857   1.889   1.596   3.841
 1946SOL    HW1 5858   1.870   1.500   3.862
 1946SOL    HW2 5859   1.856   1.654   3.916
 1947SOL     OW 5860   3.551   0.922   4.336
 1947SOL    HW1 5861   3.646   0.893   4.344
 1947SOL    HW2 5862   3.543   0.987   4.261
 1948SOL     OW 5863   3.503   1.108   4.156
 1948SOL    HW1 5864   3.589   1.110   4.104
 1948SOL    HW2 5865   3.517   1.155   4.244
 1949SOL     OW 5866   2.475   1.365   4.450
 1949SOL    HW1 5867   2.426   1.278   4.459
 1949SOL    HW2 5868   2.452   1.408   4.363
 1950SOL     OW 5869   2.671   0.004   4.226
 1950SOL    HW1 5870   2.711   0.095   4.217
 1950SOL    HW2 5871   2.571   0.012   4.232
 1951SOL     OW 5872   2.059   0.976   4.988
 1951SOL    HW1 5873   2.148   0.931   4.974
 1951SOL    HW2 5874   1.986   0.911   4.969
 1952SOL     OW 5875   3.387   0.999   3.914
 1952SOL    HW1 5876   3.324   0.923   3.927
 1952SOL    HW2 5877   3.435   1.017   4.000
 1953SOL     OW 5878   3.328   1.417   4.677
 1953SOL    HW1 5879   3.269   1.423   4.757
 1953SOL    HW2 5880   3.313   1.329   4.631
 1954SOL     OW 5881   3.529   1.714   4.296
 1954SOL    HW1 5882   3.488   1.691   4.208
 1954SOL    HW2 5883   3.511   1.640   4.361
 1955SOL     OW 5884   2.460   0.729   3.994
 1955SOL    HW1 5885   2.484   0.798   3.926
 1955SOL    HW2 5886   2.382   0.762   4.048
 1956SOL     OW 5887   3.143   0.345   4.668
 1956SOL    HW1 5888   3.057   0.295   4.655
 1956SOL    HW2 5889   3.205   0.291   4.724
 1957SOL     OW 5890   3.438   1.662   4.031
 1957SOL    HW1 5891   3.527   1.708   4.034
 1957SOL    HW2 5892   3.417   1.638   3.936
 1958SOL     OW 5893   2.903   0.701   4.153
 1958SOL    HW1 5894   2.929   0.697   4.249
 1958SOL    HW2 5895   2.818   0.650   4.139
 1959SOL     OW 5896   1.938   0.811   4.513
 1959SOL    HW1 5897   2.037   0.799   4.522
 1959SOL    HW2 5898   1.914   0.906   4.534
 1960SOL     OW 5899   2.727   0.348   3.919
 1960SOL    HW1 5900   2.786   0.411   3.870
 1960SOL    HW2 5901   2.746   0.254   3.890
 1961SOL     OW 5902   3.224   1.144   4.269
 1961SOL    HW1 5903   3.307   1.115   4.221
 1961SOL    HW2 5904   3.175   1.211   4.213
 1962SOL     OW 5905   2.412   0.196   4.609
 1962SOL    HW1 5906   2.407   0.191   4.709
 1962SOL    HW2 5907   2.414   0.292   4.580
 1963SOL     OW 5908   2.870   1.456   4.201
 1963SOL    HW1 5909   2.824   1.528   4.149
 1963SOL    HW2 5910   2.866   1.476   4.299
 1964SOL     OW 5911   2.213   1.801   4.577
 1964SOL    HW1 5912   2.263   1.715   4.583
 1964SOL    HW2 5913   2.278   1.878   4.574
 1965SOL     OW 5914   3.657   1.066   4.597
 1965SOL    HW1 5915   3.595   1.051   4.521
 1965SOL    HW2 5916   3.605   1.077   4.682
 1966SOL     OW 5917   2.183   0.943   3.966
 1966SOL    HW1 5918   2.265   0.982   3.924
 1966SOL    HW2 5919   2.156   0.861   3.917
 1967SOL     OW 5920   3.320   0.735   4.452
 1967SOL    HW1 5921   3.315   0.670   4.527
 1967SOL    HW2 5922   3.400   0.794   4.465
 1968SOL     OW 5923   2.973   1.776   3.961
 1968SOL    HW1 5924   2.913   1.714   4.011
 1968SOL    HW2 5925   3.004   1.732   3.876
 1969SOL     OW 5926   3.494   1.377   3.805
 1969SOL    HW1 5927   3.462   1.471   3.795
 1969SOL    HW2 5928   3.418   1.314   3.793
 1970SOL     OW 5929   2.326   1.743   4.047
 1970SOL    HW1 5930   2.359   1.782   4.133
 1970SOL    HW2 5931   2.402   1.736   3.982
 1971SOL     OW 5932   3.262   0.107   4.150
 1971SOL    HW1 5933   3.238   0.070   4.060
 1971SOL    HW2 5934   3.361   0.123   4.154
 1972SOL     OW 5935   2.111   1.785   4.965
 1972SOL    HW1 5936   2.168   1.720   5.015
 1972SOL    HW2 5937   2.095   1.752   4.872
 1973SOL     OW 5938   2.802   1.698   4.628
 1973SOL    HW1 5939   2.882   1.641   4.649
 1973SOL    HW2 5940   2.753   1.658   4.551
 1974SOL     OW 5941   2.244   0.700   4.204
 1974SOL    HW1 5942   2.289   0.610   4.201
 1974SOL    HW2 5943   2.150   0.689   4.237
 1975SOL     OW 5944   2.476   0.122   3.841
 1975SOL    HW1 5945   2.574   0.100   3.848
 1975SOL    HW2 5946   2.445   0.105   3.748
 1976SOL     OW 5947   2.665   1.402   4.648
 1976SOL    HW1 5948   2.755   1.416   4.606
 1976SOL    HW2 5949   2.594   1.404   4.577
 1977SOL     OW 5950   2.784   0.503   4.623
 1977SOL    HW1 5951   2.759   0.494   4.527
 1977SOL    HW2 5952   2.832   0.421   4.654
 1978SOL     OW 5953   2.401   0.064   4.236
 1978SOL    HW1 5954   2.320   0.065   4.294
 1978SOL    HW2 5955   2.404   0.147   4.181
 1979SOL     OW 5956   3.296   1.188   3.765
 1979SOL    HW1 5957   3.328   1.112   3.822
 1979SOL    HW2 5958   3.204   1.215   3.795
 1980SOL     OW 5959   2.159   0.035   3.895
 1980SOL    HW1 5960   2.208   0.119   3.874
 1980SOL    HW2 5961   2.221  -0.030   3.940
 1981SOL     OW 5962   2.797   0.236   4.204
 1981SOL    HW1 5963   2.749   0.277   4.126
 1981SOL    HW2 5964   2.896   0.234   4.185
 1982SOL     OW 5965   3.089   1.570   4.517
 1982SOL    HW1 5966   3.110   1.644   4.452
 1982SOL    HW2 5967   3.157   1.570   4.590
 1983SOL     OW 5968   2.321   1.152   4.465
 1983SOL    HW1 5969   2.250   1.125   4.530
 1983SOL    HW2 5970   2.295   1.124   4.372
 1984SOL     OW 5971   3.133   1.797   4.315
 1984SOL    HW1 5972   3.177   1.861   4.251
 1984SOL    HW2 5973   3.083   1.849   4.385
 1985SOL     OW 5974   2.894   0.549   3.740
 1985SOL    HW1 5975   2.853   0.631   3.701
 1985SOL    HW2 5976   2.958   0.575   3.813
 1986SOL     OW 5977   2.728   0.454   4.366
 1986SOL    HW1 5978   2.696   0.526   4.304
 1986SOL    HW2 5979   2.752   0.373   4.313
 1987SOL     OW 5980   2.879   0.039   4.477
 1987SOL    HW1 5981   2.807   0.044   4.408
 1987SOL    HW2 5982   2.855  -0.030   4.546
 1988SOL     OW 5983   3.291   1.173   4.591
 1988SOL    HW1 5984   3.236   1.089   4.584
 1988SOL    HW2 5985   3.317   1.202   4.499
 1989SOL     OW 5986   3.328   0.590   4.716
 1989SOL    HW1 5987   3.298   0.495   4.723
 1989SOL    HW2 5988   3.401   0.606   4.782
 1990SOL     OW 5989   3.719   0.833   4.101
 1990SOL    HW1 5990   3.761   0.769   4.165
 1990SOL    HW2 5991   3.681   0.782   4.023
 1991SOL     OW 5992   2.350   1.385   3.898
 1991SOL    HW1 5993   2.263   1.370   3.945
 1991SOL    HW2 5994   2.333   1.411   3.803
 1992SOL     OW 5995   3.526   1.280   4.381
 1992SOL    HW1 5996   3.625   1.288   4.395
 1992SOL    HW2 5997   3.481   1.364   4.412
 1993SOL     OW 5998   3.252   0.575   3.802
 1993SOL    HW1 5999   3.198   0.554   3.883
 1993SOL    HW2 6000   3.343   0.534   3.811
 1994SOL     OW 6001   2.389   0.256   4.052
 1994SOL    HW1 6002   2.416   0.197   3.977
 1994SOL    HW2 6003   2.389   0.351   4.021
 1995SOL     OW 6004   2.973   1.195   4.824
 1995SOL    HW1 6005   2.933   1.239   4.905
 1995SOL    HW2 6006   2.932   1.232   4.741
 1996SOL     OW 6007   3.500   1.099   4.803
 1996SOL    HW1 6008   3.505   1.180   4.862
 1996SOL    HW2 6009   3.414   1.101   4.752
 1997SOL     OW 6010   2.567   1.050   4.092
 1997SOL    HW1 6011   2.553   1.057   4.191
 1997SOL    HW2 6012   2.651   0.999   4.074
 1998SOL     OW 6013   2.272   0.813   4.975
 1998SOL    HW1 6014   2.358   0.825   5.025
 1998SOL    HW2 6015   2.230   0.726   5.002
 1999SOL     OW 6016   2.229   1.100   4.225
 1999SOL    HW1 6017   2.222   1.183   4.169
 1999SOL    HW2 6018   2.233   1.020   4.165
 2000SOL     OW 6019   2.428   0.537   4.589
 2000SOL    HW1 6020   2.440   0.603   4.515
 2000SOL    HW2 6021   2.474   0.571   4.672
 2001SOL     OW 6022   3.114   1.348   4.112
 2001SOL    HW1 6023   3.164   1.425   4.152
 2001SOL    HW2 6024   3.019   1.350   4.144
 2002SOL     OW 6025   3.134   1.445   4.866
 2002SOL    HW1 6026   3.181   1.458   4.953
 2002SOL    HW2 6027   3.068   1.371   4.875
 2003SOL     OW 6028   3.444   0.639   4.196
 2003SOL    HW1 6029   3.413   0.700   4.269
 2003SOL    HW2 6030   3.494   0.691   4.127
 2004SOL     OW 6031   2.435   0.870   4.753
 2004SOL    HW1 6032   2.479   0.959   4.744
 2004SOL    HW2 6033   2.372   0.870   4.830
 2005SOL     OW 6034   3.071   0.525   3.999
 2005SOL    HW1 6035   3.084   0.441   4.053
 2005SOL    HW2 6036   3.042   0.599   4.059
 2006SOL     OW 6037   2.169   0.213   4.955
 2006SOL    HW1 6038   2.146   0.250   5.045
 2006SOL    HW2 6039   2.139   0.118   4.949
 2007SOL     OW 6040   2.594   0.634   4.788
 2007SOL    HW1 6041   2.653   0.608   4.712
 2007SOL    HW2 6042   2.566   0.730   4.777
 2008SOL     OW 6043   2.169   0.063   4.342
 2008SOL    HW1 6044   2.158   0.157   4.375
 2008SOL    HW2 6045   2.164   0.000   4.419
 2009SOL     OW 6046   3.484   0.367   4.098
 2009SOL    HW1 6047   3.486   0.291   4.162
 2009SOL    HW2 6048   3.436   0.444   4.138
 2010SOL     OW 6049   2.885   0.766   4.690
 2010SOL    HW1 6050   2.900   0.787   4.786
 2010SOL    HW2 6051   2.855   0.671   4.681
 2011SOL     OW 6052   3.402   0.274   3.849
 2011SOL    HW1 6053   3.341   0.199   3.872
 2011SOL    HW2 6054   3.424   0.326   3.932
 2012SOL     OW 6055   3.165   0.838   3.766
 2012SOL    HW1 6056   3.199   0.745   3.781
 2012SOL    HW2 6057   3.183   0.865   3.671
 2013SOL     OW 6058   2.930   1.333   4.573
 2013SOL    HW1 6059   2.937   1.249   4.518
 2013SOL    HW2 6060   2.992   1.402   4.537
 2014SOL     OW 6061   2.181   0.810   4.673
 2014SOL    HW1 6062   2.274   0.846   4.678
 2014SOL    HW2 6063   2.175   0.725   4.725
 2015SOL     OW 6064   2.201   0.509   4.730
 2015SOL    HW1 6065   2.149   0.426   4.713
 2015SOL    HW2 6066   2.278   0.514   4.666
 2016SOL     OW 6067   1.870   1.326   3.924
 2016SOL    HW1 6068   1.777   1.347   3.893
 2016SOL    HW2 6069   1.880   1.227   3.937
 2017SOL     OW 6070   1.950   1.801   4.651
 2017SOL    HW1 6071   1.908   1.715   4.624
 2017SOL    HW2 6072   2.044   1.804   4.617
 2018SOL     OW 6073   2.366   1.568   4.634
 2018SOL    HW1 6074   2.432   1.642   4.643
 2018SOL    HW2 6075   2.410   1.489   4.592
 2019SOL     OW 6076   2.864   0.796   4.962
 2019SOL    HW1 6077   2.905   0.764   5.048
 2019SOL    HW2 6078   2.768   0.769   4.959
 2020SOL     OW 6079   1.902   0.544   4.838
 2020SOL    HW1 6080   1.987   0.511   4.797
 2020SOL    HW2 6081   1.915   0.559   4.936
 2021SOL     OW 6082   2.677   0.572   4.049
 2021SOL    HW1 6083   2.684   0.483   4.003
 2021SOL    HW2 6084   2.583   0.606   4.041
 2022SOL     OW 6085   3.519   0.604   4.930
 2022SOL    HW1 6086   3.481   0.535   4.992
 2022SOL    HW2 6087   3.601   0.568   4.886
 2023SOL     OW 6088   2.533   0.464   4.993
 2023SOL    HW1 6089   2.499   0.375   4.963
 2023SOL    HW2 6090   2.559   0.518   4.913
 2024SOL     OW 6091   2.335   0.500   3.915
 2024SOL    HW1 6092   2.396   0.580   3.919
 2024SOL    HW2 6093   2.240   0.531   3.922
 2025SOL     OW 6094   3.164   0.855   4.033
 2025SOL    HW1 6095   3.078   0.824   4.075
 2025SOL    HW2 6096   3.160   0.841   3.934
 2026SOL     OW 6097   3.621   1.747   4.878
 2026SOL    HW1 6098   3.682   1.777   4.805
 2026SOL    HW2 6099   3.583   1.658   4.856
 2027SOL     OW 6100   1.945   1.258   4.746
 2027SOL    HW1 6101   1.940   1.257   4.846
 2027SOL    HW2 6102   1.862   1.217   4.708
 2028SOL     OW 6103   3.588   0.135   4.247
 2028SOL    HW1 6104   3.661   0.118   4.180
 2028SOL    HW2 6105   3.557   0.048   4.285
 2029SOL     OW 6106   3.250   1.573   4.201
 2029SOL    HW1 6107   3.317   1.585   4.127
 2029SOL    HW2 6108   3.210   1.662   4.224
 2030SOL     OW 6109   3.142   0.927   4.396
 2030SOL    HW1 6110   3.202   0.846   4.398
 2030SOL    HW2 6111   3.182   0.996   4.336
 2031SOL     OW 6112   2.534   1.616   3.878
 2031SOL    HW1 6113   2.543   1.626   3.779
 2031SOL    HW2 6114   2.494   1.527   3.899
 2032SOL     OW 6115   3.703   0.175   4.687
 2032SOL    HW1 6116   3.742   0.090   4.651
 2032SOL    HW2 6117   3.605   0.177   4.668
 2033SOL     OW 6118   2.125   0.326   4.444
 2033SOL    HW1 6119   2.046   0.377   4.410
 2033SOL    HW2 6120   2.116   0.311   4.542
 2034SOL     OW 6121   3.056   1.612   3.755
 2034SOL    HW1 6122   3.062   1.519   3.792
 2034SOL    HW2 6123   2.997   1.612   3.675
 2035SOL     OW 6124   2.684   1.002   5.096
 2035SOL    HW1 6125   2.724   1.001   5.004
 2035SOL    HW2 6126   2.694   1.094   5.136
 2036SOL     OW 6127   2.778   0.910   4.015
 2036SOL    HW1 6128   2.841   0.948   3.947
 2036SOL    HW2 6129   2.818   0.827   4.054
 2037SOL     OW 6130   3.366   1.607   3.768
 2037SOL    HW1 6131   3.274   1.644   3.775
 2037SOL    HW2 6132   3.404   1.627   3.678
 2038SOL     OW 6133   2.901   1.098   4.420
 2038SOL    HW1 6134   2.831   1.051   4.474
 2038SOL    HW2 6135   2.960   1.030   4.377
 2039SOL     OW 6136   2.876   0.236   4.695
 2039SOL    HW1 6137   2.868   0.200   4.602
 2039SOL    HW2 6138   2.874   0.160   4.760
 2040SOL     OW 6139   2.452   1.487   4.215
 2040SOL    HW1 6140   2.494   1.429   4.145
 2040SOL    HW2 6141   2.408   1.566   4.171
 2041SOL     OW 6142   3.571   0.385   5.105
 2041SOL    HW1 6143   3.644   0.454   5.109
 2041SOL    HW2 6144   3.599   0.310   5.046
 2042SOL     OW 6145   2.117   1.348   4.014
 2042SOL    HW1 6146   2.021   1.349   3.987
 2042SOL    HW2 6147   2.129   1.401   4.098
 2043SOL     OW 6148   1.937   0.345   3.757
 2043SOL    HW1 6149   1.845   0.317   3.728
 2043SOL    HW2 6150   1.968   0.422   3.701
 2044SOL     OW 6151   1.934   0.166   4.042
 2044SOL    HW1 6152   1.917   0.249   3.988
 2044SOL    HW2 6153   2.024   0.129   4.020
 2045SOL     OW 6154   3.045   1.335   3.843
 2045SOL    HW1 6155   2.946   1.324   3.845
 2045SOL    HW2 6156   3.079   1.350   3.936
 2046SOL     OW 6157   3.355   1.767   4.683
 2046SOL    HW1 6158   3.388   1.831   4.614
 2046SOL    HW2 6159   3.421   1.761   4.758
 2047SOL     OW 6160   3.536   0.883   4.978
 2047SOL    HW1 6161   3.509   0.794   4.941
 2047SOL    HW2 6162   3.537   0.951   4.905
 2048SOL     OW 6163   3.087   0.325   4.173
 2048SOL    HW1 6164   3.152   0.251   4.162
 2048SOL    HW2 6165   3.107   0.375   4.257
 2049SOL     OW 6166   2.456   0.745   4.376
 2049SOL    HW1 6167   2.506   0.830   4.357
 2049SOL    HW2 6168   2.368   0.747   4.328
 2050SOL     OW 6169   2.721   1.374   3.740
 2050SOL    HW1 6170   2.675   1.389   3.828
 2050SOL    HW2 6171   2.765   1.459   3.710
 2051SOL     OW 6172   2.523   1.790   4.677
 2051SOL    HW1 6173   2.477   1.878   4.664
 2051SOL    HW2 6174   2.622   1.802   4.670
 2052SOL     OW 6175   2.721   0.956   4.585
 2052SOL    HW1 6176   2.775   0.887   4.633
 2052SOL    HW2 6177   2.689   1.025   4.651
 2053SOL     OW 6178   2.945   0.984   3.811
 2053SOL    HW1 6179   2.922   1.037   3.729
 2053SOL    HW2 6180   3.026   0.928   3.792
 2054SOL     OW 6181   3.723   1.569   4.575
 2054SOL    HW1 6182   3.652   1.557   4.505
 2054SOL    HW2 6183   3.724   1.490   4.635
 2055SOL     OW 6184   1.941   1.240   4.377
 2055SOL    HW1 6185   1.940   1.193   4.465
 2055SOL    HW2 6186   2.023   1.212   4.326
 2056SOL     OW 6187   3.686   0.192   4.951
 2056SOL    HW1 6188   3.682   0.102   4.995
 2056SOL    HW2 6189   3.689   0.181   4.852
 2057SOL     OW 6190   2.290   0.424   4.244
 2057SOL    HW1 6191   2.320   0.352   4.182
 2057SOL    HW2 6192   2.251   0.384   4.327
 2058SOL     OW 6193   3.567   1.487   4.828
 2058SOL    HW1 6194   3.474   1.462   4.801
 2058SOL    HW2 6195   3.593   1.437   4.910
 2059SOL     OW 6196   2.674   1.586   4.411
 2059SOL    HW1 6197   2.706   1.596   4.317
 2059SOL    HW2 6198   2.595   1.524   4.413
 2060SOL     OW 6199   3.286   0.214   4.836
 2060SOL    HW1 6200   3.338   0.149   4.891
 2060SOL    HW2 6201   3.237   0.277   4.897
 2061SOL     OW 6202   2.632   1.330   4.025
 2061SOL    HW1 6203   2.586   1.243   4.042
 2061SOL    HW2 6204   2.723   1.327   4.066
 2062SOL     OW 6205   3.214   0.052   3.892
 2062SOL    HW1 6206   3.249   0.011   3.808
 2062SOL    HW2 6207   3.124   0.014   3.912
 2063SOL     OW 6208   3.162   0.453   4.415
 2063SOL    HW1 6209   3.103   0.533   4.419
 2063SOL    HW2 6210   3.177   0.418   4.508
 2064SOL     OW 6211   3.455   0.221   4.606
 2064SOL    HW1 6212   3.371   0.220   4.660
 2064SOL    HW2 6213   3.457   0.304   4.550
 2065SOL     OW 6214   1.901   1.077   4.024
 2065SOL    HW1 6215   2.000   1.066   4.015
 2065SOL    HW2 6216   1.861   0.991   4.056
 2066SOL     OW 6217   2.737   1.646   4.061
 2066SOL    HW1 6218   2.660   1.611   4.007
 2066SOL    HW2 6219   2.705   1.717   4.123
 2067SOL     OW 6220   2.092   2.490   0.113
 2067SOL    HW1 6221   1.999   2.488   0.150
 2067SOL    HW2 6222   2.093   2.451   0.021
 2068SOL     OW 6223   2.087   2.137   0.996
 2068SOL    HW1 6224   2.122   2.120   1.088
 2068SOL    HW2 6225   1.999   2.092   0.984
 2069SOL     OW 6226   1.881   2.230   0.647
 2069SOL    HW1 6227   1.799   2.273   0.686
 2069SOL    HW2 6228   1.853   2.157   0.584
 2070SOL     OW 6229   2.431   3.137   1.165
 2070SOL    HW1 6230   2.338   3.130   1.128
 2070SOL    HW2 6231   2.442   3.226   1.209
 2071SOL     OW 6232   3.417   3.373   0.703
 2071SOL    HW1 6233   3.360   3.357   0.784
 2071SOL    HW2 6234   3.358   3.383   0.623
 2072SOL     OW 6235   2.997   2.565   0.717
 2072SOL    HW1 6236   3.054   2.643   0.692
 2072SOL    HW2 6237   2.937   2.591   0.793
 2073SOL     OW 6238   3.617   2.469   0.231
 2073SOL    HW1 6239   3.605   2.456   0.132
 2073SOL    HW2 6240   3.587   2.388   0.280
 2074SOL     OW 6241   2.630   3.006   1.023
 2074SOL    HW1 6242   2.552   3.023   1.083
 2074SOL    HW2 6243   2.664   3.093   0.987
 2075SOL     OW 6244   2.712   2.660   1.823
 2075SOL    HW1 6245   2.708   2.736   1.888
 2075SOL    HW2 6246   2.734   2.696   1.732
 2076SOL     OW 6247   2.547   2.874   0.665
 2076SOL    HW1 6248   2.616   2.858   0.735
 2076SOL    HW2 6249   2.474   2.931   0.703
 2077SOL     OW 6250   2.548   3.023   1.803
 2077SOL    HW1 6251   2.608   3.102   1.817
 2077SOL    HW2 6252   2.462   3.054   1.762
 2078SOL     OW 6253   2.197   3.297   1.061
 2078SOL    HW1 6254   2.119   3.266   1.008
 2078SOL    HW2 6255   2.255   3.355   1.004
 2079SOL     OW 6256   3.322   3.367   1.339
 2079SOL    HW1 6257   3.346   3.461   1.365
 2079SOL    HW2 6258   3.306   3.313   1.421
 2080SOL     OW 6259   2.300   2.254   1.499
 2080SOL    HW1 6260   2.382   2.198   1.508
 2080SOL    HW2 6261   2.219   2.196   1.503
 2081SOL     OW 6262   3.465   2.309   0.737
 2081SOL    HW1 6263   3.391   2.355   0.687
 2081SOL    HW2 6264   3.516   2.377   0.790
 2082SOL     OW 6265   2.093   3.575   0.483
 2082SOL    HW1 6266   2.127   3.652   0.537
 2082SOL    HW2 6267   2.137   3.575   0.393
 2083SOL     OW 6268   2.989   3.203   1.690
 2083SOL    HW1 6269   3.036   3.203   1.778
 2083SOL    HW2 6270   2.941   3.116   1.679
 2084SOL     OW 6271   2.092   3.296   0.538
 2084SOL    HW1 6272   2.066   3.392   0.538
 2084SOL    HW2 6273   2.021   3.242   0.583
 2085SOL     OW 6274   2.102   2.953   0.886
 2085SOL    HW1 6275   2.116   2.869   0.938
 2085SOL    HW2 6276   2.047   3.017   0.941
 2086SOL     OW 6277   2.482   3.648   1.439
 2086SOL    HW1 6278   2.390   3.631   1.474
 2086SOL    HW2 6279   2.510   3.740   1.465
 2087SOL     OW 6280   2.468   2.826   0.123
 2087SOL    HW1 6281   2.475   2.910   0.069
 2087SOL    HW2 6282   2.514   2.839   0.211
 2088SOL     OW 6283   3.456   1.976   1.480
 2088SOL    HW1 6284   3.438   2.043   1.408
 2088SOL    HW2 6285   3.453   2.022   1.569
 2089SOL     OW 6286   1.984   2.505   0.563
 2089SOL    HW1 6287   1.939   2.417   0.580
 2089SOL    HW2 6288   1.983   2.559   0.647
 2090SOL     OW 6289   3.704   3.629   0.359
 2090SOL    HW1 6290   3.758   3.600   0.439
 2090SOL    HW2 6291   3.734   3.719   0.330
 2091SOL     OW 6292   1.889   3.458   0.117
 2091SOL    HW1 6293   1.870   3.362   0.138
 2091SOL    HW2 6294   1.856   3.516   0.192
 2092SOL     OW 6295   3.551   2.784   0.612
 2092SOL    HW1 6296   3.646   2.755   0.620
 2092SOL    HW2 6297   3.543   2.849   0.537
 2093SOL     OW 6298   3.503   2.970   0.432
 2093SOL    HW1 6299   3.589   2.972   0.380
 2093SOL    HW2 6300   3.517   3.017   0.520
 2094SOL     OW 6301   1.975   2.599   1.597
 2094SOL    HW1 6302   2.063   2.586   1.642
 2094SOL    HW2 6303   1.962   2.696   1.575
 2095SOL     OW 6304   2.475   3.227   0.726
 2095SOL    HW1 6305   2.426   3.140   0.735
 2095SOL    HW2 6306   2.452   3.270   0.639
 2096SOL     OW 6307   3.155   3.090   1.423
 2096SOL    HW1 6308   3.192   3.017   1.365
 2096SOL    HW2 6309   3.207   3.095   1.508
 2097SOL     OW 6310   2.671   1.866   0.502
 2097SOL    HW1 6311   2.711   1.957   0.493
 2097SOL    HW2 6312   2.571   1.874   0.508
 2098SOL     OW 6313   2.059   2.838   1.264
 2098SOL    HW1 6314   2.148   2.793   1.250
 2098SOL    HW2 6315   1.986   2.773   1.245
 2099SOL     OW 6316   3.387   2.861   0.190
 2099SOL    HW1 6317   3.324   2.785   0.203
 2099SOL    HW2 6318   3.435   2.879   0.276
 2100SOL     OW 6319   3.049   3.654   1.616
 2100SOL    HW1 6320   3.073   3.714   1.540
 2100SOL    HW2 6321   3.056   3.559   1.586
 2101SOL     OW 6322   2.179   2.113   1.801
 2101SOL    HW1 6323   2.250   2.184   1.807
 2101SOL    HW2 6324   2.091   2.152   1.829
 2102SOL     OW 6325   3.328   3.279   0.953
 2102SOL    HW1 6326   3.269   3.285   1.033
 2102SOL    HW2 6327   3.313   3.191   0.907
 2103SOL     OW 6328   3.529   3.576   0.572
 2103SOL    HW1 6329   3.488   3.553   0.484
 2103SOL    HW2 6330   3.511   3.502   0.637
 2104SOL     OW 6331   2.460   2.591   0.270
 2104SOL    HW1 6332   2.484   2.660   0.202
 2104SOL    HW2 6333   2.382   2.624   0.324
 2105SOL     OW 6334   3.143   2.207   0.944
 2105SOL    HW1 6335   3.057   2.157   0.931
 2105SOL    HW2 6336   3.205   2.153   1.000
 2106SOL     OW 6337   3.438   3.524   0.307
 2106SOL    HW1 6338   3.527   3.570   0.310
 2106SOL    HW2 6339   3.417   3.500   0.212
 2107SOL     OW 6340   2.669   2.467   1.465
 2107SOL    HW1 6341   2.622   2.464   1.554
 2107SOL    HW2 6342   2.618   2.412   1.399
 2108SOL     OW 6343   3.256   2.331   1.674
 2108SOL    HW1 6344   3.236   2.374   1.762
 2108SOL    HW2 6345   3.334   2.269   1.683
 2109SOL     OW 6346   2.835   2.752   1.572
 2109SOL    HW1 6347   2.881   2.668   1.543
 2109SOL    HW2 6348   2.779   2.786   1.497
 2110SOL     OW 6349   2.853   2.272   1.242
 2110SOL    HW1 6350   2.776   2.306   1.296
 2110SOL    HW2 6351   2.819   2.221   1.163
 2111SOL     OW 6352   2.903   2.563   0.429
 2111SOL    HW1 6353   2.929   2.559   0.525
 2111SOL    HW2 6354   2.818   2.512   0.415
 2112SOL     OW 6355   1.938   2.673   0.789
 2112SOL    HW1 6356   2.037   2.661   0.798
 2112SOL    HW2 6357   1.914   2.768   0.810
 2113SOL     OW 6358   1.992   3.683   1.571
 2113SOL    HW1 6359   1.982   3.668   1.670
 2113SOL    HW2 6360   1.906   3.719   1.535
 2114SOL     OW 6361   2.727   2.210   0.195
 2114SOL    HW1 6362   2.786   2.273   0.146
 2114SOL    HW2 6363   2.746   2.116   0.166
 2115SOL     OW 6364   3.581   2.447   1.831
 2115SOL    HW1 6365   3.555   2.536   1.795
 2115SOL    HW2 6366   3.579   2.379   1.758
 2116SOL     OW 6367   3.224   3.006   0.545
 2116SOL    HW1 6368   3.307   2.977   0.497
 2116SOL    HW2 6369   3.175   3.073   0.489
 2117SOL     OW 6370   2.412   2.058   0.885
 2117SOL    HW1 6371   2.407   2.053   0.985
 2117SOL    HW2 6372   2.414   2.154   0.856
 2118SOL     OW 6373   2.870   3.318   0.477
 2118SOL    HW1 6374   2.824   3.390   0.425
 2118SOL    HW2 6375   2.866   3.338   0.575
 2119SOL     OW 6376   2.213   3.663   0.853
 2119SOL    HW1 6377   2.263   3.577   0.859
 2119SOL    HW2 6378   2.278   3.740   0.850
 2120SOL     OW 6379   3.657   2.928   0.873
 2120SOL    HW1 6380   3.595   2.913   0.797
 2120SOL    HW2 6381   3.605   2.939   0.958
 2121SOL     OW 6382   3.089   3.412   1.506
 2121SOL    HW1 6383   3.095   3.335   1.570
 2121SOL    HW2 6384   3.037   3.386   1.426
 2122SOL     OW 6385   2.183   2.805   0.242
 2122SOL    HW1 6386   2.265   2.844   0.200
 2122SOL    HW2 6387   2.156   2.723   0.193
 2123SOL     OW 6388   3.320   2.597   0.728
 2123SOL    HW1 6389   3.315   2.532   0.803
 2123SOL    HW2 6390   3.400   2.656   0.741
 2124SOL     OW 6391   2.323   3.128   1.727
 2124SOL    HW1 6392   2.273   3.129   1.641
 2124SOL    HW2 6393   2.260   3.110   1.803
 2125SOL     OW 6394   2.973   3.638   0.237
 2125SOL    HW1 6395   2.913   3.576   0.287
 2125SOL    HW2 6396   3.004   3.594   0.152
 2126SOL     OW 6397   2.064   2.147   1.498
 2126SOL    HW1 6398   1.984   2.207   1.485
 2126SOL    HW2 6399   2.054   2.098   1.584
 2127SOL     OW 6400   3.494   3.239   0.081
 2127SOL    HW1 6401   3.462   3.333   0.071
 2127SOL    HW2 6402   3.418   3.176   0.069
 2128SOL     OW 6403   2.326   3.605   0.323
 2128SOL    HW1 6404   2.359   3.644   0.409
 2128SOL    HW2 6405   2.402   3.598   0.258
 2129SOL     OW 6406   3.262   1.969   0.426
 2129SOL    HW1 6407   3.238   1.932   0.336
 2129SOL    HW2 6408   3.361   1.985   0.430
 2130SOL     OW 6409   2.111   3.647   1.241
 2130SOL    HW1 6410   2.168   3.582   1.291
 2130SOL    HW2 6411   2.095   3.614   1.148
 2131SOL     OW 6412   2.802   3.560   0.904
 2131SOL    HW1 6413   2.882   3.503   0.925
 2131SOL    HW2 6414   2.753   3.520   0.827
 2132SOL     OW 6415   2.244   2.562   0.480
 2132SOL    HW1 6416   2.289   2.472   0.477
 2132SOL    HW2 6417   2.150   2.551   0.513
 2133SOL     OW 6418   3.409   2.084   1.729
 2133SOL    HW1 6419   3.404   2.121   1.821
 2133SOL    HW2 6420   3.337   2.015   1.717
 2134SOL     OW 6421   2.476   1.984   0.117
 2134SOL    HW1 6422   2.574   1.962   0.124
 2134SOL    HW2 6423   2.445   1.967   0.024
 2135SOL     OW 6424   2.643   2.126   1.749
 2135SOL    HW1 6425   2.710   2.065   1.792
 2135SOL    HW2 6426   2.570   2.145   1.814
 2136SOL     OW 6427   2.750   3.376   1.195
 2136SOL    HW1 6428   2.727   3.351   1.101
 2136SOL    HW2 6429   2.811   3.307   1.234
 2137SOL     OW 6430   3.213   2.452   1.433
 2137SOL    HW1 6431   3.241   2.409   1.518
 2137SOL    HW2 6432   3.238   2.548   1.434
 2138SOL     OW 6433   2.665   3.264   0.924
 2138SOL    HW1 6434   2.755   3.278   0.882
 2138SOL    HW2 6435   2.594   3.266   0.853
 2139SOL     OW 6436   2.784   2.365   0.899
 2139SOL    HW1 6437   2.759   2.356   0.803
 2139SOL    HW2 6438   2.832   2.283   0.930
 2140SOL     OW 6439   2.401   1.926   0.512
 2140SOL    HW1 6440   2.320   1.927   0.570
 2140SOL    HW2 6441   2.404   2.009   0.457
 2141SOL     OW 6442   3.296   3.050   0.041
 2141SOL    HW1 6443   3.328   2.974   0.098
 2141SOL    HW2 6444   3.204   3.077   0.071
 2142SOL     OW 6445   2.159   1.897   0.171
 2142SOL    HW1 6446   2.208   1.981   0.150
 2142SOL    HW2 6447   2.221   1.832   0.216
 2143SOL     OW 6448   2.797   2.098   0.480
 2143SOL    HW1 6449   2.749   2.139   0.402
 2143SOL    HW2 6450   2.896   2.096   0.461
 2144SOL     OW 6451   2.938   2.545   1.464
 2144SOL    HW1 6452   2.858   2.484   1.467
 2144SOL    HW2 6453   3.019   2.492   1.440
 2145SOL     OW 6454   3.089   3.432   0.793
 2145SOL    HW1 6455   3.110   3.506   0.728
 2145SOL    HW2 6456   3.157   3.432   0.866
 2146SOL     OW 6457   2.321   3.014   0.741
 2146SOL    HW1 6458   2.250   2.987   0.806
 2146SOL    HW2 6459   2.295   2.986   0.648
 2147SOL     OW 6460   3.133   3.659   0.591
 2147SOL    HW1 6461   3.177   3.723   0.527
 2147SOL    HW2 6462   3.083   3.711   0.661
 2148SOL     OW 6463   2.894   2.411   0.016
 2148SOL    HW1 6464   2.853   2.493  -0.023
 2148SOL    HW2 6465   2.958   2.437   0.089
 2149SOL     OW 6466   1.940   2.418   1.386
 2149SOL    HW1 6467   2.032   2.417   1.345
 2149SOL    HW2 6468   1.934   2.492   1.453
 2150SOL     OW 6469   2.423   2.084   1.147
 2150SOL    HW1 6470   2.461   2.000   1.184
 2150SOL    HW2 6471   2.335   2.103   1.191
 2151SOL     OW 6472   2.728   2.316   0.642
 2151SOL    HW1 6473   2.696   2.388   0.580
 2151SOL    HW2 6474   2.752   2.235   0.589
 2152SOL     OW 6475   2.879   1.901   0.753
 2152SOL    HW1 6476   2.807   1.906   0.684
 2152SOL    HW2 6477   2.855   1.832   0.822
 2153SOL     OW 6478   3.291   3.035   0.867
 2153SOL    HW1 6479   3.236   2.951   0.860
 2153SOL    HW2 6480   3.317   3.064   0.775
 2154SOL     OW 6481   3.328   2.452   0.992
 2154SOL    HW1 6482   3.298   2.357   0.999
 2154SOL    HW2 6483   3.401   2.468   1.058
 2155SOL     OW 6484   3.719   2.695   0.377
 2155SOL    HW1 6485   3.761   2.631   0.441
 2155SOL    HW2 6486   3.681   2.644   0.299
 2156SOL     OW 6487   2.350   3.247   0.174
 2156SOL    HW1 6488   2.263   3.232   0.221
 2156SOL    HW2 6489   2.333   3.273   0.079
 2157SOL     OW 6490   3.526   3.142   0.657
 2157SOL    HW1 6491   3.625   3.150   0.671
 2157SOL    HW2 6492   3.481   3.226   0.688
 2158SOL     OW 6493   3.252   2.437   0.078
 2158SOL    HW1 6494   3.198   2.416   0.159
 2158SOL    HW2 6495   3.343   2.396   0.087
 2159SOL     OW 6496   2.389   2.118   0.328
 2159SOL    HW1 6497   2.416   2.059   0.253
 2159SOL    HW2 6498   2.389   2.213   0.297
 2160SOL     OW 6499   3.616   3.085   1.588
 2160SOL    HW1 6500   3.707   3.046   1.575
 2160SOL    HW2 6501   3.624   3.181   1.612
 2161SOL     OW 6502   2.926   3.209   1.340
 2161SOL    HW1 6503   2.846   3.186   1.395
 2161SOL    HW2 6504   3.009   3.183   1.389
 2162SOL     OW 6505   3.454   3.491   1.625
 2162SOL    HW1 6506   3.481   3.525   1.535
 2162SOL    HW2 6507   3.533   3.453   1.671
 2163SOL     OW 6508   2.973   3.057   1.100
 2163SOL    HW1 6509   2.933   3.101   1.181
 2163SOL    HW2 6510   2.932   3.094   1.017
 2164SOL     OW 6511   3.500   2.961   1.079
 2164SOL    HW1 6512   3.505   3.042   1.138
 2164SOL    HW2 6513   3.414   2.963   1.028
 2165SOL     OW 6514   2.777   1.951   1.402
 2165SOL    HW1 6515   2.802   1.931   1.307
 2165SOL    HW2 6516   2.849   2.007   1.444
 2166SOL     OW 6517   2.842   2.978   1.719
 2166SOL    HW1 6518   2.743   2.984   1.729
 2166SOL    HW2 6519   2.865   2.898   1.663
 2167SOL     OW 6520   2.567   2.912   0.368
 2167SOL    HW1 6521   2.553   2.919   0.467
 2167SOL    HW2 6522   2.651   2.861   0.350
 2168SOL     OW 6523   2.272   2.675   1.251
 2168SOL    HW1 6524   2.358   2.687   1.301
 2168SOL    HW2 6525   2.230   2.588   1.278
 2169SOL     OW 6526   3.136   2.248   1.262
 2169SOL    HW1 6527   3.157   2.322   1.326
 2169SOL    HW2 6528   3.047   2.265   1.219
 2170SOL     OW 6529   1.926   3.426   1.331
 2170SOL    HW1 6530   1.880   3.508   1.297
 2170SOL    HW2 6531   2.024   3.445   1.340
 2171SOL     OW 6532   2.229   2.962   0.501
 2171SOL    HW1 6533   2.222   3.045   0.445
 2171SOL    HW2 6534   2.233   2.882   0.441
 2172SOL     OW 6535   2.428   2.399   0.865
 2172SOL    HW1 6536   2.440   2.465   0.791
 2172SOL    HW2 6537   2.474   2.433   0.948
 2173SOL     OW 6538   3.114   3.210   0.388
 2173SOL    HW1 6539   3.164   3.287   0.428
 2173SOL    HW2 6540   3.019   3.212   0.420
 2174SOL     OW 6541   3.134   3.307   1.142
 2174SOL    HW1 6542   3.181   3.320   1.229
 2174SOL    HW2 6543   3.068   3.233   1.151
 2175SOL     OW 6544   3.444   2.501   0.472
 2175SOL    HW1 6545   3.413   2.562   0.545
 2175SOL    HW2 6546   3.494   2.553   0.403
 2176SOL     OW 6547   2.216   3.372   1.329
 2176SOL    HW1 6548   2.195   3.328   1.242
 2176SOL    HW2 6549   2.313   3.398   1.332
 2177SOL     OW 6550   2.264   2.613   1.598
 2177SOL    HW1 6551   2.332   2.668   1.551
 2177SOL    HW2 6552   2.304   2.525   1.625
 2178SOL     OW 6553   3.449   2.641   1.670
 2178SOL    HW1 6554   3.357   2.679   1.665
 2178SOL    HW2 6555   3.509   2.688   1.605
 2179SOL     OW 6556   2.875   1.967   1.770
 2179SOL    HW1 6557   2.881   2.052   1.718
 2179SOL    HW2 6558   2.907   1.891   1.713
 2180SOL     OW 6559   2.366   1.912   1.740
 2180SOL    HW1 6560   2.324   1.855   1.670
 2180SOL    HW2 6561   2.300   1.981   1.772
 2181SOL     OW 6562   2.435   2.732   1.029
 2181SOL    HW1 6563   2.479   2.821   1.020
 2181SOL    HW2 6564   2.372   2.732   1.106
 2182SOL     OW 6565   3.222   2.724   1.045
 2182SOL    HW1 6566   3.147   2.724   0.979
 2182SOL    HW2 6567   3.259   2.632   1.054
 2183SOL     OW 6568   3.071   2.387   0.275
 2183SOL    HW1 6569   3.084   2.303   0.329
 2183SOL    HW2 6570   3.042   2.461   0.335
 2184SOL     OW 6571   2.169   2.075   1.231
 2184SOL    HW1 6572   2.146   2.112   1.321
 2184SOL    HW2 6573   2.139   1.980   1.225
 2185SOL     OW 6574   1.899   3.172   1.282
 2185SOL    HW1 6575   1.952   3.123   1.350
 2185SOL    HW2 6576   1.921   3.270   1.287
 2186SOL     OW 6577   2.594   2.496   1.064
 2186SOL    HW1 6578   2.653   2.470   0.988
 2186SOL    HW2 6579   2.566   2.592   1.053
 2187SOL     OW 6580   3.590   2.797   1.854
 2187SOL    HW1 6581   3.544   2.790   1.765
 2187SOL    HW2 6582   3.528   2.841   1.920
 2188SOL     OW 6583   2.169   1.925   0.618
 2188SOL    HW1 6584   2.158   2.019   0.651
 2188SOL    HW2 6585   2.164   1.862   0.695
 2189SOL     OW 6586   3.484   2.229   0.374
 2189SOL    HW1 6587   3.486   2.153   0.438
 2189SOL    HW2 6588   3.436   2.306   0.414
 2190SOL     OW 6589   2.885   2.628   0.966
 2190SOL    HW1 6590   2.900   2.649   1.062
 2190SOL    HW2 6591   2.855   2.533   0.957
 2191SOL     OW 6592   2.842   3.435   1.700
 2191SOL    HW1 6593   2.822   3.479   1.612
 2191SOL    HW2 6594   2.881   3.344   1.684
 2192SOL     OW 6595   3.721   3.380   1.605
 2192SOL    HW1 6596   3.735   3.407   1.510
 2192SOL    HW2 6597   3.804   3.402   1.658
 2193SOL     OW 6598   2.212   2.760   1.804
 2193SOL    HW1 6599   2.288   2.804   1.852
 2193SOL    HW2 6600   2.247   2.713   1.722
 2194SOL     OW 6601   3.402   2.136   0.125
 2194SOL    HW1 6602   3.341   2.061   0.148
 2194SOL    HW2 6603   3.424   2.188   0.208
 2195SOL     OW 6604   3.165   2.700   0.042
 2195SOL    HW1 6605   3.199   2.607   0.057
 2195SOL    HW2 6606   3.183   2.727  -0.053
 2196SOL     OW 6607   2.930   3.195   0.849
 2196SOL    HW1 6608   2.937   3.111   0.794
 2196SOL    HW2 6609   2.992   3.264   0.813
 2197SOL     OW 6610   2.181   2.672   0.949
 2197SOL    HW1 6611   2.274   2.708   0.954
 2197SOL    HW2 6612   2.175   2.587   1.001
 2198SOL     OW 6613   2.201   2.371   1.006
 2198SOL    HW1 6614   2.149   2.288   0.989
 2198SOL    HW2 6615   2.278   2.376   0.942
 2199SOL     OW 6616   3.000   2.242   1.678
 2199SOL    HW1 6617   2.955   2.305   1.742
 2199SOL    HW2 6618   3.093   2.273   1.661
 2200SOL     OW 6619   3.022   2.069   1.477
 2200SOL    HW1 6620   3.022   2.133   1.554
 2200SOL    HW2 6621   3.050   2.117   1.394
 2201SOL     OW 6622   1.870   3.188   0.200
 2201SOL    HW1 6623   1.777   3.209   0.169
 2201SOL    HW2 6624   1.880   3.089   0.213
 2202SOL     OW 6625   1.950   3.663   0.927
 2202SOL    HW1 6626   1.908   3.577   0.900
 2202SOL    HW2 6627   2.044   3.666   0.893
 2203SOL     OW 6628   2.366   3.430   0.910
 2203SOL    HW1 6629   2.432   3.504   0.919
 2203SOL    HW2 6630   2.410   3.351   0.868
 2204SOL     OW 6631   2.864   2.658   1.238
 2204SOL    HW1 6632   2.905   2.626   1.324
 2204SOL    HW2 6633   2.768   2.631   1.235
 2205SOL     OW 6634   1.902   2.406   1.114
 2205SOL    HW1 6635   1.987   2.373   1.073
 2205SOL    HW2 6636   1.915   2.421   1.212
 2206SOL     OW 6637   2.051   2.382   1.722
 2206SOL    HW1 6638   2.110   2.342   1.652
 2206SOL    HW2 6639   1.993   2.453   1.681
 2207SOL     OW 6640   3.231   2.812   1.660
 2207SOL    HW1 6641   3.270   2.901   1.680
 2207SOL    HW2 6642   3.241   2.792   1.563
 2208SOL     OW 6643   2.677   2.434   0.325
 2208SOL    HW1 6644   2.684   2.345   0.279
 2208SOL    HW2 6645   2.583   2.468   0.317
 2209SOL     OW 6646   3.519   2.466   1.206
 2209SOL    HW1 6647   3.481   2.397   1.268
 2209SOL    HW2 6648   3.601   2.430   1.162
 2210SOL     OW 6649   2.114   3.426   1.744
 2210SOL    HW1 6650   2.084   3.483   1.820
 2210SOL    HW2 6651   2.107   3.329   1.770
 2211SOL     OW 6652   2.533   2.326   1.269
 2211SOL    HW1 6653   2.499   2.237   1.239
 2211SOL    HW2 6654   2.559   2.380   1.189
 2212SOL     OW 6655   2.792   3.540   1.465
 2212SOL    HW1 6656   2.768   3.522   1.370
 2212SOL    HW2 6657   2.822   3.634   1.475
 2213SOL     OW 6658   2.335   2.362   0.191
 2213SOL    HW1 6659   2.396   2.442   0.195
 2213SOL    HW2 6660   2.240   2.393   0.198
 2214SOL     OW 6661   2.021   2.999   1.466
 2214SOL    HW1 6662   2.043   2.938   1.542
 2214SOL    HW2 6663   2.031   2.950   1.380
 2215SOL     OW 6664   3.209   2.921   1.234
 2215SOL    HW1 6665   3.233   2.858   1.160
 2215SOL    HW2 6666   3.119   2.961   1.216
 2216SOL     OW 6667   3.164   2.717   0.309
 2216SOL    HW1 6668   3.078   2.686   0.351
 2216SOL    HW2 6669   3.160   2.703   0.210
 2217SOL     OW 6670   3.621   3.609   1.154
 2217SOL    HW1 6671   3.682   3.639   1.081
 2217SOL    HW2 6672   3.583   3.520   1.132
 2218SOL     OW 6673   3.114   3.593   1.128
 2218SOL    HW1 6674   3.198   3.598   1.074
 2218SOL    HW2 6675   3.091   3.497   1.146
 2219SOL     OW 6676   1.945   3.120   1.022
 2219SOL    HW1 6677   1.940   3.119   1.122
 2219SOL    HW2 6678   1.862   3.079   0.984
 2220SOL     OW 6679   2.550   3.524   1.716
 2220SOL    HW1 6680   2.494   3.605   1.725
 2220SOL    HW2 6681   2.602   3.528   1.630
 2221SOL     OW 6682   2.765   1.948   0.133
 2221SOL    HW1 6683   2.816   1.949   0.047
 2221SOL    HW2 6684   2.821   1.906   0.204
 2222SOL     OW 6685   3.588   1.997   0.523
 2222SOL    HW1 6686   3.661   1.980   0.456
 2222SOL    HW2 6687   3.557   1.910   0.561
 2223SOL     OW 6688   3.250   3.435   0.477
 2223SOL    HW1 6689   3.317   3.447   0.403
 2223SOL    HW2 6690   3.210   3.524   0.500
 2224SOL     OW 6691   1.992   3.656   1.851
 2224SOL    HW1 6692   1.951   3.582   1.904
 2224SOL    HW2 6693   2.056   3.707   1.909
 2225SOL     OW 6694   3.142   2.789   0.672
 2225SOL    HW1 6695   3.202   2.708   0.674
 2225SOL    HW2 6696   3.182   2.858   0.612
 2226SOL     OW 6697   2.692   3.135   1.422
 2226SOL    HW1 6698   2.687   3.168   1.517
 2226SOL    HW2 6699   2.606   3.154   1.376
 2227SOL     OW 6700   2.534   3.478   0.154
 2227SOL    HW1 6701   2.543   3.488   0.055
 2227SOL    HW2 6702   2.494   3.389   0.175
 2228SOL     OW 6703   3.512   3.582   1.394
 2228SOL    HW1 6704   3.565   3.592   1.310
 2228SOL    HW2 6705   3.485   3.672   1.428
 2229SOL     OW 6706   3.703   2.037   0.963
 2229SOL    HW1 6707   3.742   1.952   0.927
 2229SOL    HW2 6708   3.605   2.039   0.944
 2230SOL     OW 6709   2.125   2.188   0.720
 2230SOL    HW1 6710   2.046   2.239   0.686
 2230SOL    HW2 6711   2.116   2.173   0.818
 2231SOL     OW 6712   3.056   3.474   0.031
 2231SOL    HW1 6713   3.062   3.381   0.068
 2231SOL    HW2 6714   2.997   3.474  -0.049
 2232SOL     OW 6715   2.684   2.864   1.372
 2232SOL    HW1 6716   2.724   2.863   1.280
 2232SOL    HW2 6717   2.694   2.956   1.412
 2233SOL     OW 6718   2.778   2.772   0.291
 2233SOL    HW1 6719   2.841   2.810   0.223
 2233SOL    HW2 6720   2.818   2.689   0.330
 2234SOL     OW 6721   3.366   3.469   0.044
 2234SOL    HW1 6722   3.274   3.506   0.051
 2234SOL    HW2 6723   3.404   3.489  -0.046
 2235SOL     OW 6724   2.234   3.150   1.490
 2235SOL    HW1 6725   2.221   3.243   1.456
 2235SOL    HW2 6726   2.150   3.098   1.477
 2236SOL     OW 6727   3.476   3.154   1.289
 2236SOL    HW1 6728   3.536   3.157   1.369
 2236SOL    HW2 6729   3.401   3.218   1.302
 2237SOL     OW 6730   2.901   2.960   0.696
 2237SOL    HW1 6731   2.831   2.913   0.750
 2237SOL    HW2 6732   2.960   2.892   0.653
 2238SOL     OW 6733   2.876   2.098   0.971
 2238SOL    HW1 6734   2.868   2.062   0.878
 2238SOL    HW2 6735   2.874   2.022   1.036
 2239SOL     OW 6736   2.452   3.349   0.491
 2239SOL    HW1 6737   2.494   3.291   0.421
 2239SOL    HW2 6738   2.408   3.428   0.447
 2240SOL     OW 6739   3.571   2.247   1.381
 2240SOL    HW1 6740   3.644   2.316   1.385
 2240SOL    HW2 6741   3.599   2.172   1.322
 2241SOL     OW 6742   2.117   3.210   0.290
 2241SOL    HW1 6743   2.021   3.211   0.263
 2241SOL    HW2 6744   2.129   3.263   0.374
 2242SOL     OW 6745   1.967   2.875   1.726
 2242SOL    HW1 6746   1.890   2.842   1.780
 2242SOL    HW2 6747   2.052   2.845   1.768
 2243SOL     OW 6748   2.534   2.065   1.489
 2243SOL    HW1 6749   2.624   2.049   1.449
 2243SOL    HW2 6750   2.542   2.070   1.588
 2244SOL     OW 6751   3.302   2.718   1.398
 2244SOL    HW1 6752   3.245   2.770   1.335
 2244SOL    HW2 6753   3.398   2.730   1.374
 2245SOL     OW 6754   1.934   2.028   0.318
 2245SOL    HW1 6755   1.917   2.111   0.264
 2245SOL    HW2 6756   2.024   1.991   0.296
 2246SOL     OW 6757   3.045   3.197   0.119
 2246SOL    HW1 6758   2.946   3.186   0.121
 2246SOL    HW2 6759   3.079   3.212   0.212
 2247SOL     OW 6760   2.475   2.704   1.431
 2247SOL    HW1 6761   2.531   2.785   1.414
 2247SOL    HW2 6762   2.534   2.624   1.434
 2248SOL     OW 6763   3.355   3.629   0.959
 2248SOL    HW1 6764   3.388   3.693   0.890
 2248SOL    HW2 6765   3.421   3.623   1.034
 2249SOL     OW 6766   2.578   2.427   1.708
 2249SOL    HW1 6767   2.597   2.492   1.782
 2249SOL    HW2 6768   2.638   2.347   1.717
 2250SOL     OW 6769   3.312   3.082   1.633
 2250SOL    HW1 6770   3.303   3.072   1.732
 2250SOL    HW2 6771   3.408   3.075   1.607
 2251SOL     OW 6772   2.252   3.603   1.560
 2251SOL    HW1 6773   2.161   3.644   1.558
 2251SOL    HW2 6774   2.245   3.509   1.592
 2252SOL     OW 6775   3.536   2.745   1.254
 2252SOL    HW1 6776   3.509   2.656   1.217
 2252SOL    HW2 6777   3.537   2.813   1.181
 2253SOL     OW 6778   3.087   2.187   0.449
 2253SOL    HW1 6779   3.152   2.113   0.438
 2253SOL    HW2 6780   3.107   2.237   0.533
 2254SOL     OW 6781   2.456   2.607   0.652
 2254SOL    HW1 6782   2.506   2.692   0.633
 2254SOL    HW2 6783   2.368   2.609   0.604
 2255SOL     OW 6784   3.639   2.204   1.642
 2255SOL    HW1 6785   3.622   2.235   1.548
 2255SOL    HW2 6786   3.555   2.167   1.680
 2256SOL     OW 6787   3.592   2.796   1.517
 2256SOL    HW1 6788   3.630   2.887   1.532
 2256SOL    HW2 6789   3.584   2.779   1.418
 2257SOL     OW 6790   2.721   3.236   0.016
 2257SOL    HW1 6791   2.675   3.251   0.104
 2257SOL    HW2 6792   2.765   3.321  -0.014
 2258SOL     OW 6793   2.523   3.652   0.953
 2258SOL    HW1 6794   2.477   3.740   0.940
 2258SOL    HW2 6795   2.622   3.664   0.946
 2259SOL     OW 6796   2.721   2.818   0.861
 2259SOL    HW1 6797   2.775   2.749   0.909
 2259SOL    HW2 6798   2.689   2.887   0.927
 2260SOL     OW 6799   2.945   2.846   0.087
 2260SOL    HW1 6800   2.922   2.899   0.005
 2260SOL    HW2 6801   3.026   2.790   0.068
 2261SOL     OW 6802   3.723   3.431   0.851
 2261SOL    HW1 6803   3.652   3.419   0.781
 2261SOL    HW2 6804   3.724   3.352   0.911
 2262SOL     OW 6805   2.083   3.176   1.844
 2262SOL    HW1 6806   2.018   3.103   1.823
 2262SOL    HW2 6807   2.087   3.190   1.942
 2263SOL     OW 6808   1.941   3.102   0.653
 2263SOL    HW1 6809   1.940   3.055   0.741
 2263SOL    HW2 6810   2.023   3.074   0.602
 2264SOL     OW 6811   2.534   3.253   1.624
 2264SOL    HW1 6812   2.456   3.203   1.662
 2264SOL    HW2 6813   2.531   3.348   1.655
 2265SOL     OW 6814   3.686   2.054   1.227
 2265SOL    HW1 6815   3.682   1.964   1.271
 2265SOL    HW2 6816   3.689   2.043   1.128
 2266SOL     OW 6817   2.290   2.286   0.520
 2266SOL    HW1 6818   2.320   2.214   0.458
 2266SOL    HW2 6819   2.251   2.246   0.603
 2267SOL     OW 6820   3.567   3.349   1.104
 2267SOL    HW1 6821   3.474   3.324   1.077
 2267SOL    HW2 6822   3.593   3.299   1.186
 2268SOL     OW 6823   2.179   2.409   1.280
 2268SOL    HW1 6824   2.217   2.350   1.352
 2268SOL    HW2 6825   2.219   2.383   1.192
 2269SOL     OW 6826   2.674   3.448   0.687
 2269SOL    HW1 6827   2.706   3.458   0.593
 2269SOL    HW2 6828   2.595   3.386   0.689
 2270SOL     OW 6829   3.286   2.076   1.112
 2270SOL    HW1 6830   3.338   2.011   1.167
 2270SOL    HW2 6831   3.237   2.139   1.173
 2271SOL     OW 6832   2.863   1.896   1.154
 2271SOL    HW1 6833   2.800   1.824   1.123
 2271SOL    HW2 6834   2.956   1.860   1.154
 2272SOL     OW 6835   2.632   3.192   0.301
 2272SOL    HW1 6836   2.586   3.105   0.318
 2272SOL    HW2 6837   2.723   3.189   0.342
 2273SOL     OW 6838   2.480   3.429   1.284
 2273SOL    HW1 6839   2.475   3.511   1.341
 2273SOL    HW2 6840   2.569   3.426   1.239
 2274SOL     OW 6841   3.214   1.914   0.168
 2274SOL    HW1 6842   3.249   1.873   0.084
 2274SOL    HW2 6843   3.124   1.876   0.188
 2275SOL     OW 6844   3.162   2.315   0.691
 2275SOL    HW1 6845   3.103   2.395   0.695
 2275SOL    HW2 6846   3.177   2.280   0.784
 2276SOL     OW 6847   3.455   2.083   0.882
 2276SOL    HW1 6848   3.371   2.082   0.936
 2276SOL    HW2 6849   3.457   2.166   0.826
 2277SOL     OW 6850   1.901   2.939   0.300
 2277SOL    HW1 6851   2.000   2.928   0.291
 2277SOL    HW2 6852   1.861   2.853   0.332
 2278SOL     OW 6853   2.737   3.508   0.337
 2278SOL    HW1 6854   2.660   3.473   0.283
 2278SOL    HW2 6855   2.705   3.579   0.399
 2279SOL     OW 6856   2.092   2.490   1.975
 2279SOL    HW1 6857   1.999   2.488   2.012
 2279SOL    HW2 6858   2.093   2.451   1.883
 2280SOL     OW 6859   2.087   2.137   2.858
 2280SOL    HW1 6860   2.122   2.120   2.950
 2280SOL    HW2 6861   1.999   2.092   2.846
 2281SOL     OW 6862   1.881   2.230   2.509
 2281SOL    HW1 6863   1.799   2.273   2.548
 2281SOL    HW2 6864   1.853   2.157   2.446
 2282SOL     OW 6865   2.431   3.137   3.027
 2282SOL    HW1 6866   2.338   3.130   2.990
 2282SOL    HW2 6867   2.442   3.226   3.071
 2283SOL     OW 6868   3.417   3.373   2.565
 2283SOL    HW1 6869   3.360   3.357   2.646
 2283SOL    HW2 6870   3.358   3.383   2.485
 2284SOL     OW 6871   2.997   2.565   2.579
 2284SOL    HW1 6872   3.054   2.643   2.554
 2284SOL    HW2 6873   2.937   2.591   2.655
 2285SOL     OW 6874   3.617   2.469   2.093
 2285SOL    HW1 6875   3.605   2.456   1.994
 2285SOL    HW2 6876   3.587   2.388   2.142
 2286SOL     OW 6877   2.630   3.006   2.885
 2286SOL    HW1 6878   2.552   3.023   2.945
 2286SOL    HW2 6879   2.664   3.093   2.849
 2287SOL     OW 6880   2.712   2.660   3.685
 2287SOL    HW1 6881   2.708   2.736   3.750
 2287SOL    HW2 6882   2.734   2.696   3.594
 2288SOL     OW 6883   2.547   2.874   2.527
 2288SOL    HW1 6884   2.616   2.858   2.597
 2288SOL    HW2 6885   2.474   2.931   2.565
 2289SOL     OW 6886   2.548   3.023   3.665
 2289SOL    HW1 6887   2.608   3.102   3.679
 2289SOL    HW2 6888   2.462   3.054   3.624
 2290SOL     OW 6889   2.197   3.297   2.923
 2290SOL    HW1 6890   2.119   3.266   2.870
 2290SOL    HW2 6891   2.255   3.355   2.866
 2291SOL     OW 6892   3.322   3.367   3.201
 2291SOL    HW1 6893   3.346   3.461   3.227
 2291SOL    HW2 6894   3.306   3.313   3.283
 2292SOL     OW 6895   2.300   2.254   3.361
 2292SOL    HW1 6896   2.382   2.198   3.370
 2292SOL    HW2 6897   2.219   2.196   3.365
 2293SOL     OW 6898   3.465   2.309   2.599
 2293SOL    HW1 6899   3.391   2.355   2.549
 2293SOL    HW2 6900   3.516   2.377   2.652
 2294SOL     OW 6901   2.093   3.575   2.345
 2294SOL    HW1 6902   2.127   3.652   2.399
 2294SOL    HW2 6903   2.137   3.575   2.255
 2295SOL     OW 6904   2.989   3.203   3.552
 2295SOL    HW1 6905   3.036   3.203   3.640
 2295SOL    HW2 6906   2.941   3.116   3.541
 2296SOL     OW 6907   2.092   3.296   2.400
 2296SOL    HW1 6908   2.066   3.392   2.400
 2296SOL    HW2 6909   2.021   3.242   2.445
 2297SOL     OW 6910   2.102   2.953   2.748
 2297SOL    HW1 6911   2.116   2.869   2.800
 2297SOL    HW2 6912   2.047   3.017   2.803
 2298SOL     OW 6913   2.482   3.648   3.301
 2298SOL    HW1 6914   2.390   3.631   3.336
 2298SOL    HW2 6915   2.510   3.740   3.327
 2299SOL     OW 6916   2.468   2.826   1.985
 2299SOL    HW1 6917   2.475   2.910   1.931
 2299SOL    HW2 6918   2.514   2.839   2.073
 2300SOL     OW 6919   3.456   1.976   3.342
 2300SOL    HW1 6920   3.438   2.043   3.270
 2300SOL    HW2 6921   3.453   2.022   3.431
 2301SOL     OW 6922   1.984   2.505   2.425
 2301SOL    HW1 6923   1.939   2.417   2.442
 2301SOL    HW2 6924   1.983   2.559   2.509
 2302SOL     OW 6925   3.704   3.629   2.221
 2302SOL    HW1 6926   3.758   3.600   2.301
 2302SOL    HW2 6927   3.734   3.719   2.192
 2303SOL     OW 6928   1.889   3.458   1.979
 2303SOL    HW1 6929   1.870   3.362   2.000
 2303SOL    HW2 6930   1.856   3.516   2.054
 2304SOL     OW 6931   3.551   2.784   2.474
 2304SOL    HW1 6932   3.646   2.755   2.482
 2304SOL    HW2 6933   3.543   2.849   2.399
 2305SOL     OW 6934   3.503   2.970   2.294
 2305SOL    HW1 6935   3.589   2.972   2.242
 2305SOL    HW2 6936   3.517   3.017   2.382
 2306SOL     OW 6937   1.975   2.599   3.459
 2306SOL    HW1 6938   2.063   2.586   3.504
 2306SOL    HW2 6939   1.962   2.696   3.437
 2307SOL     OW 6940   2.475   3.227   2.588
 2307SOL    HW1 6941   2.426   3.140   2.597
 2307SOL    HW2 6942   2.452   3.270   2.501
 2308SOL     OW 6943   3.155   3.090   3.285
 2308SOL    HW1 6944   3.192   3.017   3.227
 2308SOL    HW2 6945   3.207   3.095   3.370
 2309SOL     OW 6946   2.671   1.866   2.364
 2309SOL    HW1 6947   2.711   1.957   2.355
 2309SOL    HW2 6948   2.571   1.874   2.370
 2310SOL     OW 6949   2.059   2.838   3.126
 2310SOL    HW1 6950   2.148   2.793   3.112
 2310SOL    HW2 6951   1.986   2.773   3.107
 2311SOL     OW 6952   3.387   2.861   2.052
 2311SOL    HW1 6953   3.324   2.785   2.065
 2311SOL    HW2 6954   3.435   2.879   2.138
 2312SOL     OW 6955   3.049   3.654   3.478
 2312SOL    HW1 6956   3.073   3.714   3.402
 2312SOL    HW2 6957   3.056   3.559   3.448
 2313SOL     OW 6958   2.179   2.113   3.663
 2313SOL    HW1 6959   2.250   2.184   3.669
 2313SOL    HW2 6960   2.091   2.152   3.691
 2314SOL     OW 6961   3.328   3.279   2.815
 2314SOL    HW1 6962   3.269   3.285   2.895
 2314SOL    HW2 6963   3.313   3.191   2.769
 2315SOL     OW 6964   3.529   3.576   2.434
 2315SOL    HW1 6965   3.488   3.553   2.346
 2315SOL    HW2 6966   3.511   3.502   2.499
 2316SOL     OW 6967   3.143   2.207   2.806
 2316SOL    HW1 6968   3.057   2.157   2.793
 2316SOL    HW2 6969   3.205   2.153   2.862
 2317SOL     OW 6970   3.438   3.524   2.169
 2317SOL    HW1 6971   3.527   3.570   2.172
 2317SOL    HW2 6972   3.417   3.500   2.074
 2318SOL     OW 6973   2.669   2.467   3.327
 2318SOL    HW1 6974   2.622   2.464   3.416
 2318SOL    HW2 6975   2.618   2.412   3.261
 2319SOL     OW 6976   3.256   2.331   3.536
 2319SOL    HW1 6977   3.236   2.374   3.624
 2319SOL    HW2 6978   3.334   2.269   3.545
 2320SOL     OW 6979   2.835   2.752   3.434
 2320SOL    HW1 6980   2.881   2.668   3.405
 2320SOL    HW2 6981   2.779   2.786   3.359
 2321SOL     OW 6982   2.853   2.272   3.104
 2321SOL    HW1 6983   2.776   2.306   3.158
 2321SOL    HW2 6984   2.819   2.221   3.025
 2322SOL     OW 6985   2.903   2.563   2.291
 2322SOL    HW1 6986   2.929   2.559   2.387
 2322SOL    HW2 6987   2.818   2.512   2.277
 2323SOL     OW 6988   1.938   2.673   2.651
 2323SOL    HW1 6989   2.037   2.661   2.660
 2323SOL    HW2 6990   1.914   2.768   2.672
 2324SOL     OW 6991   1.992   3.683   3.433
 2324SOL    HW1 6992   1.982   3.668   3.532
 2324SOL    HW2 6993   1.906   3.719   3.397
 2325SOL     OW 6994   2.727   2.210   2.057
 2325SOL    HW1 6995   2.786   2.273   2.008
 2325SOL    HW2 6996   2.746   2.116   2.028
 2326SOL     OW 6997   3.581   2.447   3.693
 2326SOL    HW1 6998   3.555   2.536   3.657
 2326SOL    HW2 6999   3.579   2.379   3.620
 2327SOL     OW 7000   3.224   3.006   2.407
 2327SOL    HW1 7001   3.307   2.977   2.359
 2327SOL    HW2 7002   3.175   3.073   2.351
 2328SOL     OW 7003   2.870   3.318   2.339
 2328SOL    HW1 7004   2.824   3.390   2.287
 2328SOL    HW2 7005   2.866   3.338   2.437
 2329SOL     OW 7006   2.213   3.663   2.715
 2329SOL    HW1 7007   2.263   3.577   2.721
 2329SOL    HW2 7008   2.278   3.740   2.712
 2330SOL     OW 7009   3.657   2.928   2.735
 2330SOL    HW1 7010   3.595   2.913   2.659
 2330SOL    HW2 7011   3.605   2.939   2.820
 2331SOL     OW 7012   3.089   3.412   3.368
 2331SOL    HW1 7013   3.095   3.335   3.432
 2331SOL    HW2 7014   3.037   3.386   3.288
 2332SOL     OW 7015   2.183   2.805   2.104
 2332SOL    HW1 7016   2.265   2.844   2.062
 2332SOL    HW2 7017   2.156   2.723   2.055
 2333SOL     OW 7018   3.320   2.597   2.590
 2333SOL    HW1 7019   3.315   2.532   2.665
 2333SOL    HW2 7020   3.400   2.656   2.603
 2334SOL     OW 7021   2.323   3.128   3.589
 2334SOL    HW1 7022   2.273   3.129   3.503
 2334SOL    HW2 7023   2.260   3.110   3.665
 2335SOL     OW 7024   2.973   3.638   2.099
 2335SOL    HW1 7025   2.913   3.576   2.149
 2335SOL    HW2 7026   3.004   3.594   2.014
 2336SOL     OW 7027   2.064   2.147   3.360
 2336SOL    HW1 7028   1.984   2.207   3.347
 2336SOL    HW2 7029   2.054   2.098   3.446
 2337SOL     OW 7030   3.494   3.239   1.943
 2337SOL    HW1 7031   3.462   3.333   1.933
 2337SOL    HW2 7032   3.418   3.176   1.931
 2338SOL     OW 7033   2.326   3.605   2.185
 2338SOL    HW1 7034   2.359   3.644   2.271
 2338SOL    HW2 7035   2.402   3.598   2.120
 2339SOL     OW 7036   3.262   1.969   2.288
 2339SOL    HW1 7037   3.238   1.932   2.198
 2339SOL    HW2 7038   3.361   1.985   2.292
 2340SOL     OW 7039   2.111   3.647   3.103
 2340SOL    HW1 7040   2.168   3.582   3.153
 2340SOL    HW2 7041   2.095   3.614   3.010
 2341SOL     OW 7042   2.802   3.560   2.766
 2341SOL    HW1 7043   2.882   3.503   2.787
 2341SOL    HW2 7044   2.753   3.520   2.689
 2342SOL     OW 7045   3.409   2.084   3.591
 2342SOL    HW1 7046   3.404   2.121   3.683
 2342SOL    HW2 7047   3.337   2.015   3.579
 2343SOL     OW 7048   2.476   1.984   1.979
 2343SOL    HW1 7049   2.574   1.962   1.986
 2343SOL    HW2 7050   2.445   1.967   1.886
 2344SOL     OW 7051   2.643   2.126   3.611
 2344SOL    HW1 7052   2.710   2.065   3.654
 2344SOL    HW2 7053   2.570   2.145   3.676
 2345SOL     OW 7054   2.750   3.376   3.057
 2345SOL    HW1 7055   2.727   3.351   2.963
 2345SOL    HW2 7056   2.811   3.307   3.096
 2346SOL     OW 7057   3.213   2.452   3.295
 2346SOL    HW1 7058   3.241   2.409   3.380
 2346SOL    HW2 7059   3.238   2.548   3.296
 2347SOL     OW 7060   2.665   3.264   2.786
 2347SOL    HW1 7061   2.755   3.278   2.744
 2347SOL    HW2 7062   2.594   3.266   2.715
 2348SOL     OW 7063   2.784   2.365   2.761
 2348SOL    HW1 7064   2.759   2.356   2.665
 2348SOL    HW2 7065   2.832   2.283   2.792
 2349SOL     OW 7066   2.401   1.926   2.374
 2349SOL    HW1 7067   2.320   1.927   2.432
 2349SOL    HW2 7068   2.404   2.009   2.319
 2350SOL     OW 7069   3.296   3.050   1.903
 2350SOL    HW1 7070   3.328   2.974   1.960
 2350SOL    HW2 7071   3.204   3.077   1.933
 2351SOL     OW 7072   2.159   1.897   2.033
 2351SOL    HW1 7073   2.208   1.981   2.012
 2351SOL    HW2 7074   2.221   1.832   2.078
 2352SOL     OW 7075   2.797   2.098   2.342
 2352SOL    HW1 7076   2.749   2.139   2.264
 2352SOL    HW2 7077   2.896   2.096   2.323
 2353SOL     OW 7078   2.938   2.545   3.326
 2353SOL    HW1 7079   2.858   2.484   3.329
 2353SOL    HW2 7080   3.019   2.492   3.302
 2354SOL     OW 7081   3.089   3.432   2.655
 2354SOL    HW1 7082   3.110   3.506   2.590
 2354SOL    HW2 7083   3.157   3.432   2.728
 2355SOL     OW 7084   2.321   3.014   2.603
 2355SOL    HW1 7085   2.250   2.987   2.668
 2355SOL    HW2 7086   2.295   2.986   2.510
 2356SOL     OW 7087   3.133   3.659   2.453
 2356SOL    HW1 7088   3.177   3.723   2.389
 2356SOL    HW2 7089   3.083   3.711   2.523
 2357SOL     OW 7090   2.894   2.411   1.878
 2357SOL    HW1 7091   2.853   2.493   1.839
 2357SOL    HW2 7092   2.958   2.437   1.951
 2358SOL     OW 7093   1.940   2.418   3.248
 2358SOL    HW1 7094   2.032   2.417   3.207
 2358SOL    HW2 7095   1.934   2.492   3.315
 2359SOL     OW 7096   2.423   2.084   3.009
 2359SOL    HW1 7097   2.461   2.000   3.046
 2359SOL    HW2 7098   2.335   2.103   3.053
 2360SOL     OW 7099   2.728   2.316   2.504
 2360SOL    HW1 7100   2.696   2.388   2.442
 2360SOL    HW2 7101   2.752   2.235   2.451
 2361SOL     OW 7102   2.879   1.901   2.615
 2361SOL    HW1 7103   2.807   1.906   2.546
 2361SOL    HW2 7104   2.855   1.832   2.684
 2362SOL     OW 7105   3.291   3.035   2.729
 2362SOL    HW1 7106   3.236   2.951   2.722
 2362SOL    HW2 7107   3.317   3.064   2.637
 2363SOL     OW 7108   3.328   2.452   2.854
 2363SOL    HW1 7109   3.298   2.357   2.861
 2363SOL    HW2 7110   3.401   2.468   2.920
 2364SOL     OW 7111   3.719   2.695   2.239
 2364SOL    HW1 7112   3.761   2.631   2.303
 2364SOL    HW2 7113   3.681   2.644   2.161
 2365SOL     OW 7114   2.350   3.247   2.036
 2365SOL    HW1 7115   2.263   3.232   2.083
 2365SOL    HW2 7116   2.333   3.273   1.941
 2366SOL     OW 7117   3.526   3.142   2.519
 2366SOL    HW1 7118   3.625   3.150   2.533
 2366SOL    HW2 7119   3.481   3.226   2.550
 2367SOL     OW 7120   3.252   2.437   1.940
 2367SOL    HW1 7121   3.198   2.416   2.021
 2367SOL    HW2 7122   3.343   2.396   1.949
 2368SOL     OW 7123   2.389   2.118   2.190
 2368SOL    HW1 7124   2.416   2.059   2.115
 2368SOL    HW2 7125   2.389   2.213   2.159
 2369SOL     OW 7126   3.616   3.085   3.450
 2369SOL    HW1 7127   3.707   3.046   3.437
 2369SOL    HW2 7128   3.624   3.181   3.474
 2370SOL     OW 7129   2.926   3.209   3.202
 2370SOL    HW1 7130   2.846   3.186   3.257
 2370SOL    HW2 7131   3.009   3.183   3.251
 2371SOL     OW 7132   3.454   3.491   3.487
 2371SOL    HW1 7133   3.481   3.525   3.397
 2371SOL    HW2 7134   3.533   3.453   3.533
 2372SOL     OW 7135   2.973   3.057   2.962
 2372SOL    HW1 7136   2.933   3.101   3.043
 2372SOL    HW2 7137   2.932   3.094   2.879
 2373SOL     OW 7138   3.500   2.961   2.941
 2373SOL    HW1 7139   3.505   3.042   3.000
 2373SOL    HW2 7140   3.414   2.963   2.890
 2374SOL     OW 7141   2.777   1.951   3.264
 2374SOL    HW1 7142   2.802   1.931   3.169
 2374SOL    HW2 7143   2.849   2.007   3.306
 2375SOL     OW 7144   2.842   2.978   3.581
 2375SOL    HW1 7145   2.743   2.984   3.591
 2375SOL    HW2 7146   2.865   2.898   3.525
 2376SOL     OW 7147   2.567   2.912   2.230
 2376SOL    HW1 7148   2.553   2.919   2.329
 2376SOL    HW2 7149   2.651   2.861   2.212
 2377SOL     OW 7150   2.272   2.675   3.113
 2377SOL    HW1 7151   2.358   2.687   3.163
 2377SOL    HW2 7152   2.230   2.588   3.140
 2378SOL     OW 7153   3.136   2.248   3.124
 2378SOL    HW1 7154   3.157   2.322   3.188
 2378SOL    HW2 7155   3.047   2.265   3.081
 2379SOL     OW 7156   1.926   3.426   3.193
 2379SOL    HW1 7157   1.880   3.508   3.159
 2379SOL    HW2 7158   2.024   3.445   3.202
 2380SOL     OW 7159   2.229   2.962   2.363
 2380SOL    HW1 7160   2.222   3.045   2.307
 2380SOL    HW2 7161   2.233   2.882   2.303
 2381SOL     OW 7162   3.114   3.210   2.250
 2381SOL    HW1 7163   3.164   3.287   2.290
 2381SOL    HW2 7164   3.019   3.212   2.282
 2382SOL     OW 7165   3.134   3.307   3.004
 2382SOL    HW1 7166   3.181   3.320   3.091
 2382SOL    HW2 7167   3.068   3.233   3.013
 2383SOL     OW 7168   3.444   2.501   2.334
 2383SOL    HW1 7169   3.413   2.562   2.407
 2383SOL    HW2 7170   3.494   2.553   2.265
 2384SOL     OW 7171   2.216   3.372   3.191
 2384SOL    HW1 7172   2.195   3.328   3.104
 2384SOL    HW2 7173   2.313   3.398   3.194
 2385SOL     OW 7174   2.264   2.613   3.460
 2385SOL    HW1 7175   2.332   2.668   3.413
 2385SOL    HW2 7176   2.304   2.525   3.487
 2386SOL     OW 7177   3.449   2.641   3.532
 2386SOL    HW1 7178   3.357   2.679   3.527
 2386SOL    HW2 7179   3.509   2.688   3.467
 2387SOL     OW 7180   2.875   1.967   3.632
 2387SOL    HW1 7181   2.881   2.052   3.580
 2387SOL    HW2 7182   2.907   1.891   3.575
 2388SOL     OW 7183   2.366   1.912   3.602
 2388SOL    HW1 7184   2.324   1.855   3.532
 2388SOL    HW2 7185   2.300   1.981   3.634
 2389SOL     OW 7186   2.435   2.732   2.891
 2389SOL    HW1 7187   2.479   2.821   2.882
 2389SOL    HW2 7188   2.372   2.732   2.968
 2390SOL     OW 7189   3.222   2.724   2.907
 2390SOL    HW1 7190   3.147   2.724   2.841
 2390SOL    HW2 7191   3.259   2.632   2.916
 2391SOL     OW 7192   3.071   2.387   2.137
 2391SOL    HW1 7193   3.084   2.303   2.191
 2391SOL    HW2 7194   3.042   2.461   2.197
 2392SOL     OW 7195   2.169   2.075   3.093
 2392SOL    HW1 7196   2.146   2.112   3.183
 2392SOL    HW2 7197   2.139   1.980   3.087
 2393SOL     OW 7198   1.899   3.172   3.144
 2393SOL    HW1 7199   1.952   3.123   3.212
 2393SOL    HW2 7200   1.921   3.270   3.149
 2394SOL     OW 7201   3.590   2.797   3.716
 2394SOL    HW1 7202   3.544   2.790   3.627
 2394SOL    HW2 7203   3.528   2.841   3.782
 2395SOL     OW 7204   2.169   1.925   2.480
 2395SOL    HW1 7205   2.158   2.019   2.513
 2395SOL    HW2 7206   2.164   1.862   2.557
 2396SOL     OW 7207   3.484   2.229   2.236
 2396SOL    HW1 7208   3.486   2.153   2.300
 2396SOL    HW2 7209   3.436   2.306   2.276
 2397SOL     OW 7210   2.885   2.628   2.828
 2397SOL    HW1 7211   2.900   2.649   2.924
 2397SOL    HW2 7212   2.855   2.533   2.819
 2398SOL     OW 7213   2.842   3.435   3.562
 2398SOL    HW1 7214   2.822   3.479   3.474
 2398SOL    HW2 7215   2.881   3.344   3.546
 2399SOL     OW 7216   3.721   3.380   3.467
 2399SOL    HW1 7217   3.735   3.407   3.372
 2399SOL    HW2 7218   3.804   3.402   3.520
 2400SOL     OW 7219   2.212   2.760   3.666
 2400SOL    HW1 7220   2.288   2.804   3.714
 2400SOL    HW2 7221   2.247   2.713   3.584
 2401SOL     OW 7222   3.402   2.136   1.987
 2401SOL    HW1 7223   3.341   2.061   2.010
 2401SOL    HW2 7224   3.424   2.188   2.070
 2402SOL     OW 7225   3.165   2.700   1.904
 2402SOL    HW1 7226   3.199   2.607   1.919
 2402SOL    HW2 7227   3.183   2.727   1.809
 2403SOL     OW 7228   2.930   3.195   2.711
 2403SOL    HW1 7229   2.937   3.111   2.656
 2403SOL    HW2 7230   2.992   3.264   2.675
 2404SOL     OW 7231   2.181   2.672   2.811
 2404SOL    HW1 7232   2.274   2.708   2.816
 2404SOL    HW2 7233   2.175   2.587   2.863
 2405SOL     OW 7234   3.000   2.242   3.540
 2405SOL    HW1 7235   2.955   2.305   3.604
 2405SOL    HW2 7236   3.093   2.273   3.523
 2406SOL     OW 7237   3.022   2.069   3.339
 2406SOL    HW1 7238   3.022   2.133   3.416
 2406SOL    HW2 7239   3.050   2.117   3.256
 2407SOL     OW 7240   1.870   3.188   2.062
 2407SOL    HW1 7241   1.777   3.209   2.031
 2407SOL    HW2 7242   1.880   3.089   2.075
 2408SOL     OW 7243   1.950   3.663   2.789
 2408SOL    HW1 7244   1.908   3.577   2.762
 2408SOL    HW2 7245   2.044   3.666   2.755
 2409SOL     OW 7246   2.366   3.430   2.772
 2409SOL    HW1 7247   2.432   3.504   2.781
 2409SOL    HW2 7248   2.410   3.351   2.730
 2410SOL     OW 7249   2.864   2.658   3.100
 2410SOL    HW1 7250   2.905   2.626   3.186
 2410SOL    HW2 7251   2.768   2.631   3.097
 2411SOL     OW 7252   1.902   2.406   2.976
 2411SOL    HW1 7253   1.987   2.373   2.935
 2411SOL    HW2 7254   1.915   2.421   3.074
 2412SOL     OW 7255   2.051   2.382   3.584
 2412SOL    HW1 7256   2.110   2.342   3.514
 2412SOL    HW2 7257   1.993   2.453   3.543
 2413SOL     OW 7258   3.231   2.812   3.522
 2413SOL    HW1 7259   3.270   2.901   3.542
 2413SOL    HW2 7260   3.241   2.792   3.425
 2414SOL     OW 7261   3.519   2.466   3.068
 2414SOL    HW1 7262   3.481   2.397   3.130
 2414SOL    HW2 7263   3.601   2.430   3.024
 2415SOL     OW 7264   2.114   3.426   3.606
 2415SOL    HW1 7265   2.084   3.483   3.682
 2415SOL    HW2 7266   2.107   3.329   3.632
 2416SOL     OW 7267   2.533   2.326   3.131
 2416SOL    HW1 7268   2.499   2.237   3.101
 2416SOL    HW2 7269   2.559   2.380   3.051
 2417SOL     OW 7270   2.792   3.540   3.327
 2417SOL    HW1 7271   2.768   3.522   3.232
 2417SOL    HW2 7272   2.822   3.634   3.337
 2418SOL     OW 7273   2.335   2.362   2.053
 2418SOL    HW1 7274   2.396   2.442   2.057
 2418SOL    HW2 7275   2.240   2.393   2.060
 2419SOL     OW 7276   2.021   2.999   3.328
 2419SOL    HW1 7277   2.043   2.938   3.404
 2419SOL    HW2 7278   2.031   2.950   3.242
 2420SOL     OW 7279   3.209   2.921   3.096
 2420SOL    HW1 7280   3.233   2.858   3.022
 2420SOL    HW2 7281   3.119   2.961   3.078
 2421SOL     OW 7282   3.164   2.717   2.171
 2421SOL    HW1 7283   3.078   2.686   2.213
 2421SOL    HW2 7284   3.160   2.703   2.072
 2422SOL     OW 7285   3.621   3.609   3.016
 2422SOL    HW1 7286   3.682   3.639   2.943
 2422SOL    HW2 7287   3.583   3.520   2.994
 2423SOL     OW 7288   3.114   3.593   2.990
 2423SOL    HW1 7289   3.198   3.598   2.936
 2423SOL    HW2 7290   3.091   3.497   3.008
 2424SOL     OW 7291   1.945   3.120   2.884
 2424SOL    HW1 7292   1.940   3.119   2.984
 2424SOL    HW2 7293   1.862   3.079   2.846
 2425SOL     OW 7294   2.550   3.524   3.578
 2425SOL    HW1 7295   2.494   3.605   3.587
 2425SOL    HW2 7296   2.602   3.528   3.492
 2426SOL     OW 7297   3.588   1.997   2.385
 2426SOL    HW1 7298   3.661   1.980   2.318
 2426SOL    HW2 7299   3.557   1.910   2.423
 2427SOL     OW 7300   3.250   3.435   2.339
 2427SOL    HW1 7301   3.317   3.447   2.265
 2427SOL    HW2 7302   3.210   3.524   2.362
 2428SOL     OW 7303   1.992   3.656   3.713
 2428SOL    HW1 7304   1.951   3.582   3.766
 2428SOL    HW2 7305   2.056   3.707   3.771
 2429SOL     OW 7306   3.142   2.789   2.534
 2429SOL    HW1 7307   3.202   2.708   2.536
 2429SOL    HW2 7308   3.182   2.858   2.474
 2430SOL     OW 7309   2.692   3.135   3.284
 2430SOL    HW1 7310   2.687   3.168   3.379
 2430SOL    HW2 7311   2.606   3.154   3.238
 2431SOL     OW 7312   2.534   3.478   2.016
 2431SOL    HW1 7313   2.543   3.488   1.917
 2431SOL    HW2 7314   2.494   3.389   2.037
 2432SOL     OW 7315   3.512   3.582   3.256
 2432SOL    HW1 7316   3.565   3.592   3.172
 2432SOL    HW2 7317   3.485   3.672   3.290
 2433SOL     OW 7318   3.703   2.037   2.825
 2433SOL    HW1 7319   3.742   1.952   2.789
 2433SOL    HW2 7320   3.605   2.039   2.806
 2434SOL     OW 7321   2.125   2.188   2.582
 2434SOL    HW1 7322   2.046   2.239   2.548
 2434SOL    HW2 7323   2.116   2.173   2.680
 2435SOL     OW 7324   3.056   3.474   1.893
 2435SOL    HW1 7325   3.062   3.381   1.930
 2435SOL    HW2 7326   2.997   3.474   1.813
 2436SOL     OW 7327   2.684   2.864   3.234
 2436SOL    HW1 7328   2.724   2.863   3.142
 2436SOL    HW2 7329   2.694   2.956   3.274
 2437SOL     OW 7330   3.366   3.469   1.906
 2437SOL    HW1 7331   3.274   3.506   1.913
 2437SOL    HW2 7332   3.404   3.489   1.816
 2438SOL     OW 7333   2.234   3.150   3.352
 2438SOL    HW1 7334   2.221   3.243   3.318
 2438SOL    HW2 7335   2.150   3.098   3.339
 2439SOL     OW 7336   3.476   3.154   3.151
 2439SOL    HW1 7337   3.536   3.157   3.231
 2439SOL    HW2 7338   3.401   3.218   3.164
 2440SOL     OW 7339   2.901   2.960   2.558
 2440SOL    HW1 7340   2.831   2.913   2.612
 2440SOL    HW2 7341   2.960   2.892   2.515
 2441SOL     OW 7342   2.876   2.098   2.833
 2441SOL    HW1 7343   2.868   2.062   2.740
 2441SOL    HW2 7344   2.874   2.022   2.898
 2442SOL     OW 7345   2.452   3.349   2.353
 2442SOL    HW1 7346   2.494   3.291   2.283
 2442SOL    HW2 7347   2.408   3.428   2.309
 2443SOL     OW 7348   3.571   2.247   3.243
 2443SOL    HW1 7349   3.644   2.316   3.247
 2443SOL    HW2 7350   3.599   2.172   3.184
 2444SOL     OW 7351   2.117   3.210   2.152
 2444SOL    HW1 7352   2.021   3.211   2.125
 2444SOL    HW2 7353   2.129   3.263   2.236
 2445SOL     OW 7354   1.967   2.875   3.588
 2445SOL    HW1 7355   1.890   2.842   3.642
 2445SOL    HW2 7356   2.052   2.845   3.630
 2446SOL     OW 7357   2.534   2.065   3.351
 2446SOL    HW1 7358   2.624   2.049   3.311
 2446SOL    HW2 7359   2.542   2.070   3.450
 2447SOL     OW 7360   1.937   2.207   1.895
 2447SOL    HW1 7361   1.845   2.179   1.866
 2447SOL    HW2 7362   1.968   2.284   1.839
 2448SOL     OW 7363   3.302   2.718   3.260
 2448SOL    HW1 7364   3.245   2.770   3.197
 2448SOL    HW2 7365   3.398   2.730   3.236
 2449SOL     OW 7366   1.934   2.028   2.180
 2449SOL    HW1 7367   1.917   2.111   2.126
 2449SOL    HW2 7368   2.024   1.991   2.158
 2450SOL     OW 7369   3.045   3.197   1.981
 2450SOL    HW1 7370   2.946   3.186   1.983
 2450SOL    HW2 7371   3.079   3.212   2.074
 2451SOL     OW 7372   2.475   2.704   3.293
 2451SOL    HW1 7373   2.531   2.785   3.276
 2451SOL    HW2 7374   2.534   2.624   3.296
 2452SOL     OW 7375   3.355   3.629   2.821
 2452SOL    HW1 7376   3.388   3.693   2.752
 2452SOL    HW2 7377   3.421   3.623   2.896
 2453SOL     OW 7378   2.578   2.427   3.570
 2453SOL    HW1 7379   2.597   2.492   3.644
 2453SOL    HW2 7380   2.638   2.347   3.579
 2454SOL     OW 7381   3.312   3.082   3.495
 2454SOL    HW1 7382   3.303   3.072   3.594
 2454SOL    HW2 7383   3.408   3.075   3.469
 2455SOL     OW 7384   2.252   3.603   3.422
 2455SOL    HW1 7385   2.161   3.644   3.420
 2455SOL    HW2 7386   2.245   3.509   3.454
 2456SOL     OW 7387   3.536   2.745   3.116
 2456SOL    HW1 7388   3.509   2.656   3.079
 2456SOL    HW2 7389   3.537   2.813   3.043
 2457SOL     OW 7390   3.087   2.187   2.311
 2457SOL    HW1 7391   3.152   2.113   2.300
 2457SOL    HW2 7392   3.107   2.237   2.395
 2458SOL     OW 7393   3.639   2.204   3.504
 2458SOL    HW1 7394   3.622   2.235   3.410
 2458SOL    HW2 7395   3.555   2.167   3.542
 2459SOL     OW 7396   3.592   2.796   3.379
 2459SOL    HW1 7397   3.630   2.887   3.394
 2459SOL    HW2 7398   3.584   2.779   3.280
 2460SOL     OW 7399   2.721   3.236   1.878
 2460SOL    HW1 7400   2.675   3.251   1.966
 2460SOL    HW2 7401   2.765   3.321   1.848
 2461SOL     OW 7402   2.523   3.652   2.815
 2461SOL    HW1 7403   2.477   3.740   2.802
 2461SOL    HW2 7404   2.622   3.664   2.808
 2462SOL     OW 7405   2.721   2.818   2.723
 2462SOL    HW1 7406   2.775   2.749   2.771
 2462SOL    HW2 7407   2.689   2.887   2.789
 2463SOL     OW 7408   2.945   2.846   1.949
 2463SOL    HW1 7409   2.922   2.899   1.867
 2463SOL    HW2 7410   3.026   2.790   1.930
 2464SOL     OW 7411   3.723   3.431   2.713
 2464SOL    HW1 7412   3.652   3.419   2.643
 2464SOL    HW2 7413   3.724   3.352   2.773
 2465SOL     OW 7414   2.083   3.176   3.706
 2465SOL    HW1 7415   2.018   3.103   3.685
 2465SOL    HW2 7416   2.087   3.190   3.804
 2466SOL     OW 7417   1.941   3.102   2.515
 2466SOL    HW1 7418   1.940   3.055   2.603
 2466SOL    HW2 7419   2.023   3.074   2.464
 2467SOL     OW 7420   2.534   3.253   3.486
 2467SOL    HW1 7421   2.456   3.203   3.524
 2467SOL    HW2 7422   2.531   3.348   3.517
 2468SOL     OW 7423   3.686   2.054   3.089
 2468SOL    HW1 7424   3.682   1.964   3.133
 2468SOL    HW2 7425   3.689   2.043   2.990
 2469SOL     OW 7426   3.567   3.349   2.966
 2469SOL    HW1 7427   3.474   3.324   2.939
 2469SOL    HW2 7428   3.593   3.299   3.048
 2470SOL     OW 7429   2.179   2.409   3.142
 2470SOL    HW1 7430   2.217   2.350   3.214
 2470SOL    HW2 7431   2.219   2.383   3.054
 2471SOL     OW 7432   2.674   3.448   2.549
 2471SOL    HW1 7433   2.706   3.458   2.455
 2471SOL    HW2 7434   2.595   3.386   2.551
 2472SOL     OW 7435   3.286   2.076   2.974
 2472SOL    HW1 7436   3.338   2.011   3.029
 2472SOL    HW2 7437   3.237   2.139   3.035
 2473SOL     OW 7438   2.863   1.896   3.016
 2473SOL    HW1 7439   2.800   1.824   2.985
 2473SOL    HW2 7440   2.956   1.860   3.016
 2474SOL     OW 7441   2.632   3.192   2.163
 2474SOL    HW1 7442   2.586   3.105   2.180
 2474SOL    HW2 7443   2.723   3.189   2.204
 2475SOL     OW 7444   2.480   3.429   3.146
 2475SOL    HW1 7445   2.475   3.511   3.203
 2475SOL    HW2 7446   2.569   3.426   3.101
 2476SOL     OW 7447   3.214   1.914   2.030
 2476SOL    HW1 7448   3.249   1.873   1.946
 2476SOL    HW2 7449   3.124   1.876   2.050
 2477SOL     OW 7450   3.162   2.315   2.553
 2477SOL    HW1 7451   3.103   2.395   2.557
 2477SOL    HW2 7452   3.177   2.280   2.646
 2478SOL     OW 7453   3.455   2.083   2.744
 2478SOL    HW1 7454   3.371   2.082   2.798
 2478SOL    HW2 7455   3.457   2.166   2.688
 2479SOL     OW 7456   1.901   2.939   2.162
 2479SOL    HW1 7457   2.000   2.928   2.153
 2479SOL    HW2 7458   1.861   2.853   2.194
 2480SOL     OW 7459   2.737   3.508   2.199
 2480SOL    HW1 7460   2.660   3.473   2.145
 2480SOL    HW2 7461   2.705   3.579   2.261
 2481SOL     OW 7462   2.092   2.490   3.837
 2481SOL    HW1 7463   1.999   2.488   3.874
 2481SOL    HW2 7464   2.093   2.451   3.745
 2482SOL     OW 7465   2.087   2.137   4.720
 2482SOL    HW1 7466   2.122   2.120   4.812
 2482SOL    HW2 7467   1.999   2.092   4.708
 2483SOL     OW 7468   1.881   2.230   4.371
 2483SOL    HW1 7469   1.799   2.273   4.410
 2483SOL    HW2 7470   1.853   2.157   4.308
 2484SOL     OW 7471   2.431   3.137   4.889
 2484SOL    HW1 7472   2.338   3.130   4.852
 2484SOL    HW2 7473   2.442   3.226   4.933
 2485SOL     OW 7474   3.417   3.373   4.427
 2485SOL    HW1 7475   3.360   3.357   4.508
 2485SOL    HW2 7476   3.358   3.383   4.347
 2486SOL     OW 7477   2.997   2.565   4.441
 2486SOL    HW1 7478   3.054   2.643   4.416
 2486SOL    HW2 7479   2.937   2.591   4.517
 2487SOL     OW 7480   3.617   2.469   3.955
 2487SOL    HW1 7481   3.605   2.456   3.856
 2487SOL    HW2 7482   3.587   2.388   4.004
 2488SOL     OW 7483   2.630   3.006   4.747
 2488SOL    HW1 7484   2.552   3.023   4.807
 2488SOL    HW2 7485   2.664   3.093   4.711
 2489SOL     OW 7486   2.547   2.874   4.389
 2489SOL    HW1 7487   2.616   2.858   4.459
 2489SOL    HW2 7488   2.474   2.931   4.427
 2490SOL     OW 7489   2.197   3.297   4.785
 2490SOL    HW1 7490   2.119   3.266   4.732
 2490SOL    HW2 7491   2.255   3.355   4.728
 2491SOL     OW 7492   3.465   2.309   4.461
 2491SOL    HW1 7493   3.391   2.355   4.411
 2491SOL    HW2 7494   3.516   2.377   4.514
 2492SOL     OW 7495   2.093   3.575   4.207
 2492SOL    HW1 7496   2.127   3.652   4.261
 2492SOL    HW2 7497   2.137   3.575   4.117
 2493SOL     OW 7498   2.092   3.296   4.262
 2493SOL    HW1 7499   2.066   3.392   4.262
 2493SOL    HW2 7500   2.021   3.242   4.307
 2494SOL     OW 7501   2.102   2.953   4.610
 2494SOL    HW1 7502   2.116   2.869   4.662
 2494SOL    HW2 7503   2.047   3.017   4.665
 2495SOL     OW 7504   2.468   2.826   3.847
 2495SOL    HW1 7505   2.475   2.910   3.793
 2495SOL    HW2 7506   2.514   2.839   3.935
 2496SOL     OW 7507   1.984   2.505   4.287
 2496SOL    HW1 7508   1.939   2.417   4.304
 2496SOL    HW2 7509   1.983   2.559   4.371
 2497SOL     OW 7510   3.704   3.629   4.083
 2497SOL    HW1 7511   3.758   3.600   4.163
 2497SOL    HW2 7512   3.734   3.719   4.054
 2498SOL     OW 7513   1.889   3.458   3.841
 2498SOL    HW1 7514   1.870   3.362   3.862
 2498SOL    HW2 7515   1.856   3.516   3.916
 2499SOL     OW 7516   3.551   2.784   4.336
 2499SOL    HW1 7517   3.646   2.755   4.344
 2499SOL    HW2 7518   3.543   2.849   4.261
 2500SOL     OW 7519   3.503   2.970   4.156
 2500SOL    HW1 7520   3.589   2.972   4.104
 2500SOL    HW2 7521   3.517   3.017   4.244
 2501SOL     OW 7522   2.475   3.227   4.450
 2501SOL    HW1 7523   2.426   3.140   4.459
 2501SOL    HW2 7524   2.452   3.270   4.363
 2502SOL     OW 7525   2.671   1.866   4.226
 2502SOL    HW1 7526   2.711   1.957   4.217
 2502SOL    HW2 7527   2.571   1.874   4.232
 2503SOL     OW 7528   2.059   2.838   4.988
 2503SOL    HW1 7529   2.148   2.793   4.974
 2503SOL    HW2 7530   1.986   2.773   4.969
 2504SOL     OW 7531   3.387   2.861   3.914
 2504SOL    HW1 7532   3.324   2.785   3.927
 2504SOL    HW2 7533   3.435   2.879   4.000
 2505SOL     OW 7534   3.328   3.279   4.677
 2505SOL    HW1 7535   3.269   3.285   4.757
 2505SOL    HW2 7536   3.313   3.191   4.631
 2506SOL     OW 7537   3.529   3.576   4.296
 2506SOL    HW1 7538   3.488   3.553   4.208
 2506SOL    HW2 7539   3.511   3.502   4.361
 2507SOL     OW 7540   2.460   2.591   3.994
 2507SOL    HW1 7541   2.484   2.660   3.926
 2507SOL    HW2 7542   2.382   2.624   4.048
 2508SOL     OW 7543   3.143   2.207   4.668
 2508SOL    HW1 7544   3.057   2.157   4.655
 2508SOL    HW2 7545   3.205   2.153   4.724
 2509SOL     OW 7546   3.438   3.524   4.031
 2509SOL    HW1 7547   3.527   3.570   4.034
 2509SOL    HW2 7548   3.417   3.500   3.936
 2510SOL     OW 7549   2.903   2.563   4.153
 2510SOL    HW1 7550   2.929   2.559   4.249
 2510SOL    HW2 7551   2.818   2.512   4.139
 2511SOL     OW 7552   1.938   2.673   4.513
 2511SOL    HW1 7553   2.037   2.661   4.522
 2511SOL    HW2 7554   1.914   2.768   4.534
 2512SOL     OW 7555   2.727   2.210   3.919
 2512SOL    HW1 7556   2.786   2.273   3.870
 2512SOL    HW2 7557   2.746   2.116   3.890
 2513SOL     OW 7558   3.224   3.006   4.269
 2513SOL    HW1 7559   3.307   2.977   4.221
 2513SOL    HW2 7560   3.175   3.073   4.213
 2514SOL     OW 7561   2.412   2.058   4.609
 2514SOL    HW1 7562   2.407   2.053   4.709
 2514SOL    HW2 7563   2.414   2.154   4.580
 2515SOL     OW 7564   2.870   3.318   4.201
 2515SOL    HW1 7565   2.824   3.390   4.149
 2515SOL    HW2 7566   2.866   3.338   4.299
 2516SOL     OW 7567   2.213   3.663   4.577
 2516SOL    HW1 7568   2.263   3.577   4.583
 2516SOL    HW2 7569   2.278   3.740   4.574
 2517SOL     OW 7570   3.657   2.928   4.597
 2517SOL    HW1 7571   3.595   2.913   4.521
 2517SOL    HW2 7572   3.605   2.939   4.682
 2518SOL     OW 7573   2.183   2.805   3.966
 2518SOL    HW1 7574   2.265   2.844   3.924
 2518SOL    HW2 7575   2.156   2.723   3.917
 2519SOL     OW 7576   3.320   2.597   4.452
 2519SOL    HW1 7577   3.315   2.532   4.527
 2519SOL    HW2 7578   3.400   2.656   4.465
 2520SOL     OW 7579   2.973   3.638   3.961
 2520SOL    HW1 7580   2.913   3.576   4.011
 2520SOL    HW2 7581   3.004   3.594   3.876
 2521SOL     OW 7582   3.494   3.239   3.805
 2521SOL    HW1 7583   3.462   3.333   3.795
 2521SOL    HW2 7584   3.418   3.176   3.793
 2522SOL     OW 7585   2.326   3.605   4.047
 2522SOL    HW1 7586   2.359   3.644   4.133
 2522SOL    HW2 7587   2.402   3.598   3.982
 2523SOL     OW 7588   3.262   1.969   4.150
 2523SOL    HW1 7589   3.238   1.932   4.060
 2523SOL    HW2 7590   3.361   1.985   4.154
 2524SOL     OW 7591   2.111   3.647   4.965
 2524SOL    HW1 7592   2.168   3.582   5.015
 2524SOL    HW2 7593   2.095   3.614   4.872
 2525SOL     OW 7594   2.802   3.560   4.628
 2525SOL    HW1 7595   2.882   3.503   4.649
 2525SOL    HW2 7596   2.753   3.520   4.551
 2526SOL     OW 7597   2.244   2.562   4.204
 2526SOL    HW1 7598   2.289   2.472   4.201
 2526SOL    HW2 7599   2.150   2.551   4.237
 2527SOL     OW 7600   2.476   1.984   3.841
 2527SOL    HW1 7601   2.574   1.962   3.848
 2527SOL    HW2 7602   2.445   1.967   3.748
 2528SOL     OW 7603   2.665   3.264   4.648
 2528SOL    HW1 7604   2.755   3.278   4.606
 2528SOL    HW2 7605   2.594   3.266   4.577
 2529SOL     OW 7606   2.784   2.365   4.623
 2529SOL    HW1 7607   2.759   2.356   4.527
 2529SOL    HW2 7608   2.832   2.283   4.654
 2530SOL     OW 7609   2.401   1.926   4.236
 2530SOL    HW1 7610   2.320   1.927   4.294
 2530SOL    HW2 7611   2.404   2.009   4.181
 2531SOL     OW 7612   3.296   3.050   3.765
 2531SOL    HW1 7613   3.328   2.974   3.822
 2531SOL    HW2 7614   3.204   3.077   3.795
 2532SOL     OW 7615   2.159   1.897   3.895
 2532SOL    HW1 7616   2.208   1.981   3.874
 2532SOL    HW2 7617   2.221   1.832   3.940
 2533SOL     OW 7618   2.797   2.098   4.204
 2533SOL    HW1 7619   2.749   2.139   4.126
 2533SOL    HW2 7620   2.896   2.096   4.185
 2534SOL     OW 7621   3.089   3.432   4.517
 2534SOL    HW1 7622   3.110   3.506   4.452
 2534SOL    HW2 7623   3.157   3.432   4.590
 2535SOL     OW 7624   2.321   3.014   4.465
 2535SOL    HW1 7625   2.250   2.987   4.530
 2535SOL    HW2 7626   2.295   2.986   4.372
 2536SOL     OW 7627   3.133   3.659   4.315
 2536SOL    HW1 7628   3.177   3.723   4.251
 2536SOL    HW2 7629   3.083   3.711   4.385
 2537SOL     OW 7630   2.894   2.411   3.740
 2537SOL    HW1 7631   2.853   2.493   3.701
 2537SOL    HW2 7632   2.958   2.437   3.813
 2538SOL     OW 7633   2.728   2.316   4.366
 2538SOL    HW1 7634   2.696   2.388   4.304
 2538SOL    HW2 7635   2.752   2.235   4.313
 2539SOL     OW 7636   2.879   1.901   4.477
 2539SOL    HW1 7637   2.807   1.906   4.408
 2539SOL    HW2 7638   2.855   1.832   4.546
 2540SOL     OW 7639   3.291   3.035   4.591
 2540SOL    HW1 7640   3.236   2.951   4.584
 2540SOL    HW2 7641   3.317   3.064   4.499
 2541SOL     OW 7642   3.328   2.452   4.716
 2541SOL    HW1 7643   3.298   2.357   4.723
 2541SOL    HW2 7644   3.401   2.468   4.782
 2542SOL     OW 7645   3.719   2.695   4.101
 2542SOL    HW1 7646   3.761   2.631   4.165
 2542SOL    HW2 7647   3.681   2.644   4.023
 2543SOL     OW 7648   2.350   3.247   3.898
 2543SOL    HW1 7649   2.263   3.232   3.945
 2543SOL    HW2 7650   2.333   3.273   3.803
 2544SOL     OW 7651   3.526   3.142   4.381
 2544SOL    HW1 7652   3.625   3.150   4.395
 2544SOL    HW2 7653   3.481   3.226   4.412
 2545SOL     OW 7654   3.252   2.437   3.802
 2545SOL    HW1 7655   3.198   2.416   3.883
 2545SOL    HW2 7656   3.343   2.396   3.811
 2546SOL     OW 7657   2.389   2.118   4.052
 2546SOL    HW1 7658   2.416   2.059   3.977
 2546SOL    HW2 7659   2.389   2.213   4.021
 2547SOL     OW 7660   2.973   3.057   4.824
 2547SOL    HW1 7661   2.933   3.101   4.905
 2547SOL    HW2 7662   2.932   3.094   4.741
 2548SOL     OW 7663   3.500   2.961   4.803
 2548SOL    HW1 7664   3.505   3.042   4.862
 2548SOL    HW2 7665   3.414   2.963   4.752
 2549SOL     OW 7666   2.567   2.912   4.092
 2549SOL    HW1 7667   2.553   2.919   4.191
 2549SOL    HW2 7668   2.651   2.861   4.074
 2550SOL     OW 7669   2.272   2.675   4.975
 2550SOL    HW1 7670   2.358   2.687   5.025
 2550SOL    HW2 7671   2.230   2.588   5.002
 2551SOL     OW 7672   2.229   2.962   4.225
 2551SOL    HW1 7673   2.222   3.045   4.169
 2551SOL    HW2 7674   2.233   2.882   4.165
 2552SOL     OW 7675   2.428   2.399   4.589
 2552SOL    HW1 7676   2.440   2.465   4.515
 2552SOL    HW2 7677   2.474   2.433   4.672
 2553SOL     OW 7678   3.114   3.210   4.112
 2553SOL    HW1 7679   3.164   3.287   4.152
 2553SOL    HW2 7680   3.019   3.212   4.144
 2554SOL     OW 7681   3.134   3.307   4.866
 2554SOL    HW1 7682   3.181   3.320   4.953
 2554SOL    HW2 7683   3.068   3.233   4.875
 2555SOL     OW 7684   3.444   2.501   4.196
 2555SOL    HW1 7685   3.413   2.562   4.269
 2555SOL    HW2 7686   3.494   2.553   4.127
 2556SOL     OW 7687   2.435   2.732   4.753
 2556SOL    HW1 7688   2.479   2.821   4.744
 2556SOL    HW2 7689   2.372   2.732   4.830
 2557SOL     OW 7690   3.071   2.387   3.999
 2557SOL    HW1 7691   3.084   2.303   4.053
 2557SOL    HW2 7692   3.042   2.461   4.059
 2558SOL     OW 7693   2.169   2.075   4.955
 2558SOL    HW1 7694   2.146   2.112   5.045
 2558SOL    HW2 7695   2.139   1.980   4.949
 2559SOL     OW 7696   2.594   2.496   4.788
 2559SOL    HW1 7697   2.653   2.470   4.712
 2559SOL    HW2 7698   2.566   2.592   4.777
 2560SOL     OW 7699   2.169   1.925   4.342
 2560SOL    HW1 7700   2.158   2.019   4.375
 2560SOL    HW2 7701   2.164   1.862   4.419
 2561SOL     OW 7702   3.484   2.229   4.098
 2561SOL    HW1 7703   3.486   2.153   4.162
 2561SOL    HW2 7704   3.436   2.306   4.138
 2562SOL     OW 7705   2.885   2.628   4.690
 2562SOL    HW1 7706   2.900   2.649   4.786
 2562SOL    HW2 7707   2.855   2.533   4.681
 2563SOL     OW 7708   3.402   2.136   3.849
 2563SOL    HW1 7709   3.341   2.061   3.872
 2563SOL    HW2 7710   3.424   2.188   3.932
 2564SOL     OW 7711   3.165   2.700   3.766
 2564SOL    HW1 7712   3.199   2.607   3.781
 2564SOL    HW2 7713   3.183   2.727   3.671
 2565SOL     OW 7714   2.930   3.195   4.573
 2565SOL    HW1 7715   2.937   3.111   4.518
 2565SOL    HW2 7716   2.992   3.264   4.537
 2566SOL     OW 7717   2.181   2.672   4.673
 2566SOL    HW1 7718   2.274   2.708   4.678
 2566SOL    HW2 7719   2.175   2.587   4.725
 2567SOL     OW 7720   2.201   2.371   4.730
 2567SOL    HW1 7721   2.149   2.288   4.713
 2567SOL    HW2 7722   2.278   2.376   4.666
 2568SOL     OW 7723   1.870   3.188   3.924
 2568SOL    HW1 7724   1.777   3.209   3.893
 2568SOL    HW2 7725   1.880   3.089   3.937
 2569SOL     OW 7726   1.950   3.663   4.651
 2569SOL    HW1 7727   1.908   3.577   4.624
 2569SOL    HW2 7728   2.044   3.666   4.617
 2570SOL     OW 7729   2.366   3.430   4.634
 2570SOL    HW1 7730   2.432   3.504   4.643
 2570SOL    HW2 7731   2.410   3.351   4.592
 2571SOL     OW 7732   2.864   2.658   4.962
 2571SOL    HW1 7733   2.905   2.626   5.048
 2571SOL    HW2 7734   2.768   2.631   4.959
 2572SOL     OW 7735   1.902   2.406   4.838
 2572SOL    HW1 7736   1.987   2.373   4.797
 2572SOL    HW2 7737   1.915   2.421   4.936
 2573SOL     OW 7738   2.677   2.434   4.049
 2573SOL    HW1 7739   2.684   2.345   4.003
 2573SOL    HW2 7740   2.583   2.468   4.041
 2574SOL     OW 7741   3.519   2.466   4.930
 2574SOL    HW1 7742   3.481   2.397   4.992
 2574SOL    HW2 7743   3.601   2.430   4.886
 2575SOL     OW 7744   2.533   2.326   4.993
 2575SOL    HW1 7745   2.499   2.237   4.963
 2575SOL    HW2 7746   2.559   2.380   4.913
 2576SOL     OW 7747   2.335   2.362   3.915
 2576SOL    HW1 7748   2.396   2.442   3.919
 2576SOL    HW2 7749   2.240   2.393   3.922
 2577SOL     OW 7750   3.164   2.717   4.033
 2577SOL    HW1 7751   3.078   2.686   4.075
 2577SOL    HW2 7752   3.160   2.703   3.934
 2578SOL     OW 7753   3.621   3.609   4.878
 2578SOL    HW1 7754   3.682   3.639   4.805
 2578SOL    HW2 7755   3.583   3.520   4.856
 2579SOL     OW 7756   1.945   3.120   4.746
 2579SOL    HW1 7757   1.940   3.119   4.846
 2579SOL    HW2 7758   1.862   3.079   4.708
 2580SOL     OW 7759   3.588   1.997   4.247
 2580SOL    HW1 7760   3.661   1.980   4.180
 2580SOL    HW2 7761   3.557   1.910   4.285
 2581SOL     OW 7762   3.250   3.435   4.201
 2581SOL    HW1 7763   3.317   3.447   4.127
 2581SOL    HW2 7764   3.210   3.524   4.224
 2582SOL     OW 7765   3.142   2.789   4.396
 2582SOL    HW1 7766   3.202   2.708   4.398
 2582SOL    HW2 7767   3.182   2.858   4.336
 2583SOL     OW 7768   2.534   3.478   3.878
 2583SOL    HW1 7769   2.543   3.488   3.779
 2583SOL    HW2 7770   2.494   3.389   3.899
 2584SOL     OW 7771   3.703   2.037   4.687
 2584SOL    HW1 7772   3.742   1.952   4.651
 2584SOL    HW2 7773   3.605   2.039   4.668
 2585SOL     OW 7774   2.125   2.188   4.444
 2585SOL    HW1 7775   2.046   2.239   4.410
 2585SOL    HW2 7776   2.116   2.173   4.542
 2586SOL     OW 7777   3.056   3.474   3.755
 2586SOL    HW1 7778   3.062   3.381   3.792
 2586SOL    HW2 7779   2.997   3.474   3.675
 2587SOL     OW 7780   2.684   2.864   5.096
 2587SOL    HW1 7781   2.724   2.863   5.004
 2587SOL    HW2 7782   2.694   2.956   5.136
 2588SOL     OW 7783   2.778   2.772   4.015
 2588SOL    HW1 7784   2.841   2.810   3.947
 2588SOL    HW2 7785   2.818   2.689   4.054
 2589SOL     OW 7786   3.366   3.469   3.768
 2589SOL    HW1 7787   3.274   3.506   3.775
 2589SOL    HW2 7788   3.404   3.489   3.678
 2590SOL     OW 7789   2.901   2.960   4.420
 2590SOL    HW1 7790   2.831   2.913   4.474
 2590SOL    HW2 7791   2.960   2.892   4.377
 2591SOL     OW 7792   2.876   2.098   4.695
 2591SOL    HW1 7793   2.868   2.062   4.602
 2591SOL    HW2 7794   2.874   2.022   4.760
 2592SOL     OW 7795   2.452   3.349   4.215
 2592SOL    HW1 7796   2.494   3.291   4.145
 2592SOL    HW2 7797   2.408   3.428   4.171
 2593SOL     OW 7798   3.571   2.247   5.105
 2593SOL    HW1 7799   3.644   2.316   5.109
 2593SOL    HW2 7800   3.599   2.172   5.046
 2594SOL     OW 7801   2.117   3.210   4.014
 2594SOL    HW1 7802   2.021   3.211   3.987
 2594SOL    HW2 7803   2.129   3.263   4.098
 2595SOL     OW 7804   1.937   2.207   3.757
 2595SOL    HW1 7805   1.845   2.179   3.728
 2595SOL    HW2 7806   1.968   2.284   3.701
 2596SOL     OW 7807   1.934   2.028   4.042
 2596SOL    HW1 7808   1.917   2.111   3.988
 2596SOL    HW2 7809   2.024   1.991   4.020
 2597SOL     OW 7810   3.045   3.197   3.843
 2597SOL    HW1 7811   2.946   3.186   3.845
 2597SOL    HW2 7812   3.079   3.212   3.936
 2598SOL     OW 7813   3.355   3.629   4.683
 2598SOL    HW1 7814   3.388   3.693   4.614
 2598SOL    HW2 7815   3.421   3.623   4.758
 2599SOL     OW 7816   3.536   2.745   4.978
 2599SOL    HW1 7817   3.509   2.656   4.941
 2599SOL    HW2 7818   3.537   2.813   4.905
 2600SOL     OW 7819   3.087   2.187   4.173
 2600SOL    HW1 7820   3.152   2.113   4.162
 2600SOL    HW2 7821   3.107   2.237   4.257
 2601SOL     OW 7822   2.456   2.607   4.376
 2601SOL    HW1 7823   2.506   2.692   4.357
 2601SOL    HW2 7824   2.368   2.609   4.328
 2602SOL     OW 7825   2.721   3.236   3.740
 2602SOL    HW1 7826   2.675   3.251   3.828
 2602SOL    HW2 7827   2.765   3.321   3.710
 2603SOL     OW 7828   2.523   3.652   4.677
 2603SOL    HW1 7829   2.477   3.740   4.664
 2603SOL    HW2 7830   2.622   3.664   4.670
 2604SOL     OW 7831   2.721   2.818   4.585
 2604SOL    HW1 7832   2.775   2.749   4.633
 2604SOL    HW2 7833   2.689   2.887   4.651
 2605SOL     OW 7834   2.945   2.846   3.811
 2605SOL    HW1 7835   2.922   2.899   3.729
 2605SOL    HW2 7836   3.026   2.790   3.792
 2606SOL     OW 7837   3.723   3.431   4.575
 2606SOL    HW1 7838   3.652   3.419   4.505
 2606SOL    HW2 7839   3.724   3.352   4.635
 2607SOL     OW 7840   1.941   3.102   4.377
 2607SOL    HW1 7841   1.940   3.055   4.465
 2607SOL    HW2 7842   2.023   3.074   4.326
 2608SOL     OW 7843   3.686   2.054   4.951
 2608SOL    HW1 7844   3.682   1.964   4.995
 2608SOL    HW2 7845   3.689   2.043   4.852
 2609SOL     OW 7846   2.290   2.286   4.244
 2609SOL    HW1 7847   2.320   2.214   4.182
 2609SOL    HW2 7848   2.251   2.246   4.327
 2610SOL     OW 7849   3.567   3.349   4.828
 2610SOL    HW1 7850   3.474   3.324   4.801
 2610SOL    HW2 7851   3.593   3.299   4.910
 2611SOL     OW 7852   2.674   3.448   4.411
 2611SOL    HW1 7853   2.706   3.458   4.317
 2611SOL    HW2 7854   2.595   3.386   4.413
 2612SOL     OW 7855   3.286   2.076   4.836
 2612SOL    HW1 7856   3.338   2.011   4.891
 2612SOL    HW2 7857   3.237   2.139   4.897
 2613SOL     OW 7858   2.632   3.192   4.025
 2613SOL    HW1 7859   2.586   3.105   4.042
 2613SOL    HW2 7860   2.723   3.189   4.066
 2614SOL     OW 7861   3.214   1.914   3.892
 2614SOL    HW1 7862   3.249   1.873   3.808
 2614SOL    HW2 7863   3.124   1.876   3.912
 2615SOL     OW 7864   3.162   2.315   4.415
 2615SOL    HW1 7865   3.103   2.395   4.419
 2615SOL    HW2 7866   3.177   2.280   4.508
 2616SOL     OW 7867   3.455   2.083   4.606
 2616SOL    HW1 7868   3.371   2.082   4.660
 2616SOL    HW2 7869   3.457   2.166   4.550
 2617SOL     OW 7870   1.901   2.939   4.024
 2617SOL    HW1 7871   2.000   2.928   4.015
 2617SOL    HW2 7872   1.861   2.853   4.056
 2618SOL     OW 7873   2.737   3.508   4.061
 2618SOL    HW1 7874   2.660   3.473   4.007
 2618SOL    HW2 7875   2.705   3.579   4.123
 2619SOL     OW 7876   2.092   4.352   0.113
 2619SOL    HW1 7877   1.999   4.350   0.150
 2619SOL    HW2 7878   2.093   4.313   0.021
 2620SOL     OW 7879   2.087   3.999   0.996
 2620SOL    HW1 7880   2.122   3.982   1.088
 2620SOL    HW2 7881   1.999   3.954   0.984
 2621SOL     OW 7882   1.881   4.092   0.647
 2621SOL    HW1 7883   1.799   4.135   0.686
 2621SOL    HW2 7884   1.853   4.019   0.584
 2622SOL     OW 7885   2.997   4.427   0.717
 2622SOL    HW1 7886   3.054   4.505   0.692
 2622SOL    HW2 7887   2.937   4.453   0.793
 2623SOL     OW 7888   3.617   4.331   0.231
 2623SOL    HW1 7889   3.605   4.318   0.132
 2623SOL    HW2 7890   3.587   4.250   0.280
 2624SOL     OW 7891   2.630   4.868   1.023
 2624SOL    HW1 7892   2.552   4.885   1.083
 2624SOL    HW2 7893   2.664   4.955   0.987
 2625SOL     OW 7894   2.712   4.522   1.823
 2625SOL    HW1 7895   2.708   4.598   1.888
 2625SOL    HW2 7896   2.734   4.558   1.732
 2626SOL     OW 7897   2.547   4.736   0.665
 2626SOL    HW1 7898   2.616   4.720   0.735
 2626SOL    HW2 7899   2.474   4.793   0.703
 2627SOL     OW 7900   3.322   5.229   1.339
 2627SOL    HW1 7901   3.346   5.323   1.365
 2627SOL    HW2 7902   3.306   5.175   1.421
 2628SOL     OW 7903   2.300   4.116   1.499
 2628SOL    HW1 7904   2.382   4.060   1.508
 2628SOL    HW2 7905   2.219   4.058   1.503
 2629SOL     OW 7906   3.465   4.171   0.737
 2629SOL    HW1 7907   3.391   4.217   0.687
 2629SOL    HW2 7908   3.516   4.239   0.790
 2630SOL     OW 7909   2.102   4.815   0.886
 2630SOL    HW1 7910   2.116   4.731   0.938
 2630SOL    HW2 7911   2.047   4.879   0.941
 2631SOL     OW 7912   2.468   4.688   0.123
 2631SOL    HW1 7913   2.475   4.772   0.069
 2631SOL    HW2 7914   2.514   4.701   0.211
 2632SOL     OW 7915   3.456   3.838   1.480
 2632SOL    HW1 7916   3.438   3.905   1.408
 2632SOL    HW2 7917   3.453   3.884   1.569
 2633SOL     OW 7918   1.984   4.367   0.563
 2633SOL    HW1 7919   1.939   4.279   0.580
 2633SOL    HW2 7920   1.983   4.421   0.647
 2634SOL     OW 7921   3.551   4.646   0.612
 2634SOL    HW1 7922   3.646   4.617   0.620
 2634SOL    HW2 7923   3.543   4.711   0.537
 2635SOL     OW 7924   1.975   4.461   1.597
 2635SOL    HW1 7925   2.063   4.448   1.642
 2635SOL    HW2 7926   1.962   4.558   1.575
 2636SOL     OW 7927   2.475   5.089   0.726
 2636SOL    HW1 7928   2.426   5.002   0.735
 2636SOL    HW2 7929   2.452   5.132   0.639
 2637SOL     OW 7930   3.155   4.952   1.423
 2637SOL    HW1 7931   3.192   4.879   1.365
 2637SOL    HW2 7932   3.207   4.957   1.508
 2638SOL     OW 7933   2.671   3.728   0.502
 2638SOL    HW1 7934   2.711   3.819   0.493
 2638SOL    HW2 7935   2.571   3.736   0.508
 2639SOL     OW 7936   2.059   4.700   1.264
 2639SOL    HW1 7937   2.148   4.655   1.250
 2639SOL    HW2 7938   1.986   4.635   1.245
 2640SOL     OW 7939   3.387   4.723   0.190
 2640SOL    HW1 7940   3.324   4.647   0.203
 2640SOL    HW2 7941   3.435   4.741   0.276
 2641SOL     OW 7942   2.179   3.975   1.801
 2641SOL    HW1 7943   2.250   4.046   1.807
 2641SOL    HW2 7944   2.091   4.014   1.829
 2642SOL     OW 7945   2.460   4.453   0.270
 2642SOL    HW1 7946   2.484   4.522   0.202
 2642SOL    HW2 7947   2.382   4.486   0.324
 2643SOL     OW 7948   3.143   4.069   0.944
 2643SOL    HW1 7949   3.057   4.019   0.931
 2643SOL    HW2 7950   3.205   4.015   1.000
 2644SOL     OW 7951   2.669   4.329   1.465
 2644SOL    HW1 7952   2.622   4.326   1.554
 2644SOL    HW2 7953   2.618   4.274   1.399
 2645SOL     OW 7954   3.256   4.193   1.674
 2645SOL    HW1 7955   3.236   4.236   1.762
 2645SOL    HW2 7956   3.334   4.131   1.683
 2646SOL     OW 7957   2.835   4.614   1.572
 2646SOL    HW1 7958   2.881   4.530   1.543
 2646SOL    HW2 7959   2.779   4.648   1.497
 2647SOL     OW 7960   2.853   4.134   1.242
 2647SOL    HW1 7961   2.776   4.168   1.296
 2647SOL    HW2 7962   2.819   4.083   1.163
 2648SOL     OW 7963   2.903   4.425   0.429
 2648SOL    HW1 7964   2.929   4.421   0.525
 2648SOL    HW2 7965   2.818   4.374   0.415
 2649SOL     OW 7966   1.938   4.535   0.789
 2649SOL    HW1 7967   2.037   4.523   0.798
 2649SOL    HW2 7968   1.914   4.630   0.810
 2650SOL     OW 7969   2.727   4.072   0.195
 2650SOL    HW1 7970   2.786   4.135   0.146
 2650SOL    HW2 7971   2.746   3.978   0.166
 2651SOL     OW 7972   3.581   4.309   1.831
 2651SOL    HW1 7973   3.555   4.398   1.795
 2651SOL    HW2 7974   3.579   4.241   1.758
 2652SOL     OW 7975   3.224   4.868   0.545
 2652SOL    HW1 7976   3.307   4.839   0.497
 2652SOL    HW2 7977   3.175   4.935   0.489
 2653SOL     OW 7978   2.412   3.920   0.885
 2653SOL    HW1 7979   2.407   3.915   0.985
 2653SOL    HW2 7980   2.414   4.016   0.856
 2654SOL     OW 7981   3.657   4.790   0.873
 2654SOL    HW1 7982   3.595   4.775   0.797
 2654SOL    HW2 7983   3.605   4.801   0.958
 2655SOL     OW 7984   2.183   4.667   0.242
 2655SOL    HW1 7985   2.265   4.706   0.200
 2655SOL    HW2 7986   2.156   4.585   0.193
 2656SOL     OW 7987   3.320   4.459   0.728
 2656SOL    HW1 7988   3.315   4.394   0.803
 2656SOL    HW2 7989   3.400   4.518   0.741
 2657SOL     OW 7990   2.064   4.009   1.498
 2657SOL    HW1 7991   1.984   4.069   1.485
 2657SOL    HW2 7992   2.054   3.960   1.584
 2658SOL     OW 7993   3.262   3.831   0.426
 2658SOL    HW1 7994   3.238   3.794   0.336
 2658SOL    HW2 7995   3.361   3.847   0.430
 2659SOL     OW 7996   2.244   4.424   0.480
 2659SOL    HW1 7997   2.289   4.334   0.477
 2659SOL    HW2 7998   2.150   4.413   0.513
 2660SOL     OW 7999   3.409   3.946   1.729
 2660SOL    HW1 8000   3.404   3.983   1.821
 2660SOL    HW2 8001   3.337   3.877   1.717
 2661SOL     OW 8002   2.476   3.846   0.117
 2661SOL    HW1 8003   2.574   3.824   0.124
 2661SOL    HW2 8004   2.445   3.829   0.024
 2662SOL     OW 8005   2.643   3.988   1.749
 2662SOL    HW1 8006   2.710   3.927   1.792
 2662SOL    HW2 8007   2.570   4.007   1.814
 2663SOL     OW 8008   3.213   4.314   1.433
 2663SOL    HW1 8009   3.241   4.271   1.518
 2663SOL    HW2 8010   3.238   4.410   1.434
 2664SOL     OW 8011   2.784   4.227   0.899
 2664SOL    HW1 8012   2.759   4.218   0.803
 2664SOL    HW2 8013   2.832   4.145   0.930
 2665SOL     OW 8014   2.401   3.788   0.512
 2665SOL    HW1 8015   2.320   3.789   0.570
 2665SOL    HW2 8016   2.404   3.871   0.457
 2666SOL     OW 8017   2.159   3.759   0.171
 2666SOL    HW1 8018   2.208   3.843   0.150
 2666SOL    HW2 8019   2.221   3.694   0.216
 2667SOL     OW 8020   2.797   3.960   0.480
 2667SOL    HW1 8021   2.749   4.001   0.402
 2667SOL    HW2 8022   2.896   3.958   0.461
 2668SOL     OW 8023   2.938   4.407   1.464
 2668SOL    HW1 8024   2.858   4.346   1.467
 2668SOL    HW2 8025   3.019   4.354   1.440
 2669SOL     OW 8026   2.321   4.876   0.741
 2669SOL    HW1 8027   2.250   4.849   0.806
 2669SOL    HW2 8028   2.295   4.848   0.648
 2670SOL     OW 8029   2.894   4.273   0.016
 2670SOL    HW1 8030   2.853   4.355  -0.023
 2670SOL    HW2 8031   2.958   4.299   0.089
 2671SOL     OW 8032   1.940   4.280   1.386
 2671SOL    HW1 8033   2.032   4.279   1.345
 2671SOL    HW2 8034   1.934   4.354   1.453
 2672SOL     OW 8035   2.423   3.946   1.147
 2672SOL    HW1 8036   2.461   3.862   1.184
 2672SOL    HW2 8037   2.335   3.965   1.191
 2673SOL     OW 8038   2.728   4.178   0.642
 2673SOL    HW1 8039   2.696   4.250   0.580
 2673SOL    HW2 8040   2.752   4.097   0.589
 2674SOL     OW 8041   2.879   3.763   0.753
 2674SOL    HW1 8042   2.807   3.768   0.684
 2674SOL    HW2 8043   2.855   3.694   0.822
 2675SOL     OW 8044   3.291   4.897   0.867
 2675SOL    HW1 8045   3.236   4.813   0.860
 2675SOL    HW2 8046   3.317   4.926   0.775
 2676SOL     OW 8047   3.328   4.314   0.992
 2676SOL    HW1 8048   3.298   4.219   0.999
 2676SOL    HW2 8049   3.401   4.330   1.058
 2677SOL     OW 8050   3.719   4.557   0.377
 2677SOL    HW1 8051   3.761   4.493   0.441
 2677SOL    HW2 8052   3.681   4.506   0.299
 2678SOL     OW 8053   3.252   4.299   0.078
 2678SOL    HW1 8054   3.198   4.278   0.159
 2678SOL    HW2 8055   3.343   4.258   0.087
 2679SOL     OW 8056   2.389   3.980   0.328
 2679SOL    HW1 8057   2.416   3.921   0.253
 2679SOL    HW2 8058   2.389   4.075   0.297
 2680SOL     OW 8059   3.616   4.947   1.588
 2680SOL    HW1 8060   3.707   4.908   1.575
 2680SOL    HW2 8061   3.624   5.043   1.612
 2681SOL     OW 8062   3.500   4.823   1.079
 2681SOL    HW1 8063   3.505   4.904   1.138
 2681SOL    HW2 8064   3.414   4.825   1.028
 2682SOL     OW 8065   2.777   3.813   1.402
 2682SOL    HW1 8066   2.802   3.793   1.307
 2682SOL    HW2 8067   2.849   3.869   1.444
 2683SOL     OW 8068   2.842   4.840   1.719
 2683SOL    HW1 8069   2.743   4.846   1.729
 2683SOL    HW2 8070   2.865   4.760   1.663
 2684SOL     OW 8071   2.567   4.774   0.368
 2684SOL    HW1 8072   2.553   4.781   0.467
 2684SOL    HW2 8073   2.651   4.723   0.350
 2685SOL     OW 8074   2.272   4.537   1.251
 2685SOL    HW1 8075   2.358   4.549   1.301
 2685SOL    HW2 8076   2.230   4.450   1.278
 2686SOL     OW 8077   3.136   4.110   1.262
 2686SOL    HW1 8078   3.157   4.184   1.326
 2686SOL    HW2 8079   3.047   4.127   1.219
 2687SOL     OW 8080   2.229   4.824   0.501
 2687SOL    HW1 8081   2.222   4.907   0.445
 2687SOL    HW2 8082   2.233   4.744   0.441
 2688SOL     OW 8083   2.428   4.261   0.865
 2688SOL    HW1 8084   2.440   4.327   0.791
 2688SOL    HW2 8085   2.474   4.295   0.948
 2689SOL     OW 8086   3.444   4.363   0.472
 2689SOL    HW1 8087   3.413   4.424   0.545
 2689SOL    HW2 8088   3.494   4.415   0.403
 2690SOL     OW 8089   2.264   4.475   1.598
 2690SOL    HW1 8090   2.332   4.530   1.551
 2690SOL    HW2 8091   2.304   4.387   1.625
 2691SOL     OW 8092   3.449   4.503   1.670
 2691SOL    HW1 8093   3.357   4.541   1.665
 2691SOL    HW2 8094   3.509   4.550   1.605
 2692SOL     OW 8095   2.875   3.829   1.770
 2692SOL    HW1 8096   2.881   3.914   1.718
 2692SOL    HW2 8097   2.907   3.753   1.713
 2693SOL     OW 8098   2.366   3.774   1.740
 2693SOL    HW1 8099   2.324   3.717   1.670
 2693SOL    HW2 8100   2.300   3.843   1.772
 2694SOL     OW 8101   2.435   4.594   1.029
 2694SOL    HW1 8102   2.479   4.683   1.020
 2694SOL    HW2 8103   2.372   4.594   1.106
 2695SOL     OW 8104   3.222   4.586   1.045
 2695SOL    HW1 8105   3.147   4.586   0.979
 2695SOL    HW2 8106   3.259   4.494   1.054
 2696SOL     OW 8107   3.071   4.249   0.275
 2696SOL    HW1 8108   3.084   4.165   0.329
 2696SOL    HW2 8109   3.042   4.323   0.335
 2697SOL     OW 8110   2.169   3.937   1.231
 2697SOL    HW1 8111   2.146   3.974   1.321
 2697SOL    HW2 8112   2.139   3.842   1.225
 2698SOL     OW 8113   2.594   4.358   1.064
 2698SOL    HW1 8114   2.653   4.332   0.988
 2698SOL    HW2 8115   2.566   4.454   1.053
 2699SOL     OW 8116   3.590   4.659   1.854
 2699SOL    HW1 8117   3.544   4.652   1.765
 2699SOL    HW2 8118   3.528   4.703   1.920
 2700SOL     OW 8119   2.169   3.787   0.618
 2700SOL    HW1 8120   2.158   3.881   0.651
 2700SOL    HW2 8121   2.164   3.724   0.695
 2701SOL     OW 8122   3.484   4.091   0.374
 2701SOL    HW1 8123   3.486   4.015   0.438
 2701SOL    HW2 8124   3.436   4.168   0.414
 2702SOL     OW 8125   2.885   4.490   0.966
 2702SOL    HW1 8126   2.900   4.511   1.062
 2702SOL    HW2 8127   2.855   4.395   0.957
 2703SOL     OW 8128   2.212   4.622   1.804
 2703SOL    HW1 8129   2.288   4.666   1.852
 2703SOL    HW2 8130   2.247   4.575   1.722
 2704SOL     OW 8131   3.402   3.998   0.125
 2704SOL    HW1 8132   3.341   3.923   0.148
 2704SOL    HW2 8133   3.424   4.050   0.208
 2705SOL     OW 8134   3.165   4.562   0.042
 2705SOL    HW1 8135   3.199   4.469   0.057
 2705SOL    HW2 8136   3.183   4.589  -0.053
 2706SOL     OW 8137   2.181   4.534   0.949
 2706SOL    HW1 8138   2.274   4.570   0.954
 2706SOL    HW2 8139   2.175   4.449   1.001
 2707SOL     OW 8140   2.201   4.233   1.006
 2707SOL    HW1 8141   2.149   4.150   0.989
 2707SOL    HW2 8142   2.278   4.238   0.942
 2708SOL     OW 8143   3.000   4.104   1.678
 2708SOL    HW1 8144   2.955   4.167   1.742
 2708SOL    HW2 8145   3.093   4.135   1.661
 2709SOL     OW 8146   3.022   3.931   1.477
 2709SOL    HW1 8147   3.022   3.995   1.554
 2709SOL    HW2 8148   3.050   3.979   1.394
 2710SOL     OW 8149   2.864   4.520   1.238
 2710SOL    HW1 8150   2.905   4.488   1.324
 2710SOL    HW2 8151   2.768   4.493   1.235
 2711SOL     OW 8152   1.902   4.268   1.114
 2711SOL    HW1 8153   1.987   4.235   1.073
 2711SOL    HW2 8154   1.915   4.283   1.212
 2712SOL     OW 8155   2.051   4.244   1.722
 2712SOL    HW1 8156   2.110   4.204   1.652
 2712SOL    HW2 8157   1.993   4.315   1.681
 2713SOL     OW 8158   3.231   4.674   1.660
 2713SOL    HW1 8159   3.270   4.763   1.680
 2713SOL    HW2 8160   3.241   4.654   1.563
 2714SOL     OW 8161   2.677   4.296   0.325
 2714SOL    HW1 8162   2.684   4.207   0.279
 2714SOL    HW2 8163   2.583   4.330   0.317
 2715SOL     OW 8164   3.519   4.328   1.206
 2715SOL    HW1 8165   3.481   4.259   1.268
 2715SOL    HW2 8166   3.601   4.292   1.162
 2716SOL     OW 8167   2.533   4.188   1.269
 2716SOL    HW1 8168   2.499   4.099   1.239
 2716SOL    HW2 8169   2.559   4.242   1.189
 2717SOL     OW 8170   2.335   4.224   0.191
 2717SOL    HW1 8171   2.396   4.304   0.195
 2717SOL    HW2 8172   2.240   4.255   0.198
 2718SOL     OW 8173   2.021   4.861   1.466
 2718SOL    HW1 8174   2.043   4.800   1.542
 2718SOL    HW2 8175   2.031   4.812   1.380
 2719SOL     OW 8176   3.209   4.783   1.234
 2719SOL    HW1 8177   3.233   4.720   1.160
 2719SOL    HW2 8178   3.119   4.823   1.216
 2720SOL     OW 8179   3.164   4.579   0.309
 2720SOL    HW1 8180   3.078   4.548   0.351
 2720SOL    HW2 8181   3.160   4.565   0.210
 2721SOL     OW 8182   2.765   3.810   0.133
 2721SOL    HW1 8183   2.816   3.811   0.047
 2721SOL    HW2 8184   2.821   3.768   0.204
 2722SOL     OW 8185   3.588   3.859   0.523
 2722SOL    HW1 8186   3.661   3.842   0.456
 2722SOL    HW2 8187   3.557   3.772   0.561
 2723SOL     OW 8188   3.142   4.651   0.672
 2723SOL    HW1 8189   3.202   4.570   0.674
 2723SOL    HW2 8190   3.182   4.720   0.612
 2724SOL     OW 8191   3.703   3.899   0.963
 2724SOL    HW1 8192   3.742   3.814   0.927
 2724SOL    HW2 8193   3.605   3.901   0.944
 2725SOL     OW 8194   2.125   4.050   0.720
 2725SOL    HW1 8195   2.046   4.101   0.686
 2725SOL    HW2 8196   2.116   4.035   0.818
 2726SOL     OW 8197   2.684   4.726   1.372
 2726SOL    HW1 8198   2.724   4.725   1.280
 2726SOL    HW2 8199   2.694   4.818   1.412
 2727SOL     OW 8200   2.778   4.634   0.291
 2727SOL    HW1 8201   2.841   4.672   0.223
 2727SOL    HW2 8202   2.818   4.551   0.330
 2728SOL     OW 8203   2.234   5.012   1.490
 2728SOL    HW1 8204   2.221   5.105   1.456
 2728SOL    HW2 8205   2.150   4.960   1.477
 2729SOL     OW 8206   2.901   4.822   0.696
 2729SOL    HW1 8207   2.831   4.775   0.750
 2729SOL    HW2 8208   2.960   4.754   0.653
 2730SOL     OW 8209   2.876   3.960   0.971
 2730SOL    HW1 8210   2.868   3.924   0.878
 2730SOL    HW2 8211   2.874   3.884   1.036
 2731SOL     OW 8212   3.571   4.109   1.381
 2731SOL    HW1 8213   3.644   4.178   1.385
 2731SOL    HW2 8214   3.599   4.034   1.322
 2732SOL     OW 8215   1.967   4.737   1.726
 2732SOL    HW1 8216   1.890   4.704   1.780
 2732SOL    HW2 8217   2.052   4.707   1.768
 2733SOL     OW 8218   2.534   3.927   1.489
 2733SOL    HW1 8219   2.624   3.911   1.449
 2733SOL    HW2 8220   2.542   3.932   1.588
 2734SOL     OW 8221   3.302   4.580   1.398
 2734SOL    HW1 8222   3.245   4.632   1.335
 2734SOL    HW2 8223   3.398   4.592   1.374
 2735SOL     OW 8224   1.934   3.890   0.318
 2735SOL    HW1 8225   1.917   3.973   0.264
 2735SOL    HW2 8226   2.024   3.853   0.296
 2736SOL     OW 8227   2.475   4.566   1.431
 2736SOL    HW1 8228   2.531   4.647   1.414
 2736SOL    HW2 8229   2.534   4.486   1.434
 2737SOL     OW 8230   2.578   4.289   1.708
 2737SOL    HW1 8231   2.597   4.354   1.782
 2737SOL    HW2 8232   2.638   4.209   1.717
 2738SOL     OW 8233   3.312   4.944   1.633
 2738SOL    HW1 8234   3.303   4.934   1.732
 2738SOL    HW2 8235   3.408   4.937   1.607
 2739SOL     OW 8236   3.536   4.607   1.254
 2739SOL    HW1 8237   3.509   4.518   1.217
 2739SOL    HW2 8238   3.537   4.675   1.181
 2740SOL     OW 8239   3.087   4.049   0.449
 2740SOL    HW1 8240   3.152   3.975   0.438
 2740SOL    HW2 8241   3.107   4.099   0.533
 2741SOL     OW 8242   2.456   4.469   0.652
 2741SOL    HW1 8243   2.506   4.554   0.633
 2741SOL    HW2 8244   2.368   4.471   0.604
 2742SOL     OW 8245   3.639   4.066   1.642
 2742SOL    HW1 8246   3.622   4.097   1.548
 2742SOL    HW2 8247   3.555   4.029   1.680
 2743SOL     OW 8248   3.592   4.658   1.517
 2743SOL    HW1 8249   3.630   4.749   1.532
 2743SOL    HW2 8250   3.584   4.641   1.418
 2744SOL     OW 8251   2.721   4.680   0.861
 2744SOL    HW1 8252   2.775   4.611   0.909
 2744SOL    HW2 8253   2.689   4.749   0.927
 2745SOL     OW 8254   2.945   4.708   0.087
 2745SOL    HW1 8255   2.922   4.761   0.005
 2745SOL    HW2 8256   3.026   4.652   0.068
 2746SOL     OW 8257   1.941   4.964   0.653
 2746SOL    HW1 8258   1.940   4.917   0.741
 2746SOL    HW2 8259   2.023   4.936   0.602
 2747SOL     OW 8260   3.686   3.916   1.227
 2747SOL    HW1 8261   3.682   3.826   1.271
 2747SOL    HW2 8262   3.689   3.905   1.128
 2748SOL     OW 8263   2.290   4.148   0.520
 2748SOL    HW1 8264   2.320   4.076   0.458
 2748SOL    HW2 8265   2.251   4.108   0.603
 2749SOL     OW 8266   2.179   4.271   1.280
 2749SOL    HW1 8267   2.217   4.212   1.352
 2749SOL    HW2 8268   2.219   4.245   1.192
 2750SOL     OW 8269   3.286   3.938   1.112
 2750SOL    HW1 8270   3.338   3.873   1.167
 2750SOL    HW2 8271   3.237   4.001   1.173
 2751SOL     OW 8272   2.863   3.758   1.154
 2751SOL    HW1 8273   2.800   3.686   1.123
 2751SOL    HW2 8274   2.956   3.722   1.154
 2752SOL     OW 8275   2.632   5.054   0.301
 2752SOL    HW1 8276   2.586   4.967   0.318
 2752SOL    HW2 8277   2.723   5.051   0.342
 2753SOL     OW 8278   3.214   3.776   0.168
 2753SOL    HW1 8279   3.249   3.735   0.084
 2753SOL    HW2 8280   3.124   3.738   0.188
 2754SOL     OW 8281   3.162   4.177   0.691
 2754SOL    HW1 8282   3.103   4.257   0.695
 2754SOL    HW2 8283   3.177   4.142   0.784
 2755SOL     OW 8284   3.455   3.945   0.882
 2755SOL    HW1 8285   3.371   3.944   0.936
 2755SOL    HW2 8286   3.457   4.028   0.826
 2756SOL     OW 8287   2.092   4.352   1.975
 2756SOL    HW1 8288   1.999   4.350   2.012
 2756SOL    HW2 8289   2.093   4.313   1.883
 2757SOL     OW 8290   2.087   3.999   2.858
 2757SOL    HW1 8291   2.122   3.982   2.950
 2757SOL    HW2 8292   1.999   3.954   2.846
 2758SOL     OW 8293   1.881   4.092   2.509
 2758SOL    HW1 8294   1.799   4.135   2.548
 2758SOL    HW2 8295   1.853   4.019   2.446
 2759SOL     OW 8296   2.997   4.427   2.579
 2759SOL    HW1 8297   3.054   4.505   2.554
 2759SOL    HW2 8298   2.937   4.453   2.655
 2760SOL     OW 8299   3.617   4.331   2.093
 2760SOL    HW1 8300   3.605   4.318   1.994
 2760SOL    HW2 8301   3.587   4.250   2.142
 2761SOL     OW 8302   2.630   4.868   2.885
 2761SOL    HW1 8303   2.552   4.885   2.945
 2761SOL    HW2 8304   2.664   4.955   2.849
 2762SOL     OW 8305   2.712   4.522   3.685
 2762SOL    HW1 8306   2.708   4.598   3.750
 2762SOL    HW2 8307   2.734   4.558   3.594
 2763SOL     OW 8308   2.547   4.736   2.527
 2763SOL    HW1 8309   2.616   4.720   2.597
 2763SOL    HW2 8310   2.474   4.793   2.565
 2764SOL     OW 8311   3.322   5.229   3.201
 2764SOL    HW1 8312   3.346   5.323   3.227
 2764SOL    HW2 8313   3.306   5.175   3.283
 2765SOL     OW 8314   2.300   4.116   3.361
 2765SOL    HW1 8315   2.382   4.060   3.370
 2765SOL    HW2 8316   2.219   4.058   3.365
 2766SOL     OW 8317   3.465   4.171   2.599
 2766SOL    HW1 8318   3.391   4.217   2.549
 2766SOL    HW2 8319   3.516   4.239   2.652
 2767SOL     OW 8320   2.102   4.815   2.748
 2767SOL    HW1 8321   2.116   4.731   2.800
 2767SOL    HW2 8322   2.047   4.879   2.803
 2768SOL     OW 8323   2.468   4.688   1.985
 2768SOL    HW1 8324   2.475   4.772   1.931
 2768SOL    HW2 8325   2.514   4.701   2.073
 2769SOL     OW 8326   3.456   3.838   3.342
 2769SOL    HW1 8327   3.438   3.905   3.270
 2769SOL    HW2 8328   3.453   3.884   3.431
 2770SOL     OW 8329   1.984   4.367   2.425
 2770SOL    HW1 8330   1.939   4.279   2.442
 2770SOL    HW2 8331   1.983   4.421   2.509
 2771SOL     OW 8332   3.551   4.646   2.474
 2771SOL    HW1 8333   3.646   4.617   2.482
 2771SOL    HW2 8334   3.543   4.711   2.399
 2772SOL     OW 8335   1.975   4.461   3.459
 2772SOL    HW1 8336   2.063   4.448   3.504
 2772SOL    HW2 8337   1.962   4.558   3.437
 2773SOL     OW 8338   2.475   5.089   2.588
 2773SOL    HW1 8339   2.426   5.002   2.597
 2773SOL    HW2 8340   2.452   5.132   2.501
 2774SOL     OW 8341   3.155   4.952   3.285
 2774SOL    HW1 8342   3.192   4.879   3.227
 2774SOL    HW2 8343   3.207   4.957   3.370
 2775SOL     OW 8344   2.671   3.728   2.364
 2775SOL    HW1 8345   2.711   3.819   2.355
 2775SOL    HW2 8346   2.571   3.736   2.370
 2776SOL     OW 8347   2.059   4.700   3.126
 2776SOL    HW1 8348   2.148   4.655   3.112
 2776SOL    HW2 8349   1.986   4.635   3.107
 2777SOL     OW 8350   3.387   4.723   2.052
 2777SOL    HW1 8351   3.324   4.647   2.065
 2777SOL    HW2 8352   3.435   4.741   2.138
 2778SOL     OW 8353   2.179   3.975   3.663
 2778SOL    HW1 8354   2.250   4.046   3.669
 2778SOL    HW2 8355   2.091   4.014   3.691
 2779SOL     OW 8356   2.460   4.453   2.132
 2779SOL    HW1 8357   2.484   4.522   2.064
 2779SOL    HW2 8358   2.382   4.486   2.186
 2780SOL     OW 8359   3.143   4.069   2.806
 2780SOL    HW1 8360   3.057   4.019   2.793
 2780SOL    HW2 8361   3.205   4.015   2.862
 2781SOL     OW 8362   2.669   4.329   3.327
 2781SOL    HW1 8363   2.622   4.326   3.416
 2781SOL    HW2 8364   2.618   4.274   3.261
 2782SOL     OW 8365   3.256   4.193   3.536
 2782SOL    HW1 8366   3.236   4.236   3.624
 2782SOL    HW2 8367   3.334   4.131   3.545
 2783SOL     OW 8368   2.835   4.614   3.434
 2783SOL    HW1 8369   2.881   4.530   3.405
 2783SOL    HW2 8370   2.779   4.648   3.359
 2784SOL     OW 8371   2.853   4.134   3.104
 2784SOL    HW1 8372   2.776   4.168   3.158
 2784SOL    HW2 8373   2.819   4.083   3.025
 2785SOL     OW 8374   2.903   4.425   2.291
 2785SOL    HW1 8375   2.929   4.421   2.387
 2785SOL    HW2 8376   2.818   4.374   2.277
 2786SOL     OW 8377   1.938   4.535   2.651
 2786SOL    HW1 8378   2.037   4.523   2.660
 2786SOL    HW2 8379   1.914   4.630   2.672
 2787SOL     OW 8380   2.727   4.072   2.057
 2787SOL    HW1 8381   2.786   4.135   2.008
 2787SOL    HW2 8382   2.746   3.978   2.028
 2788SOL     OW 8383   3.581   4.309   3.693
 2788SOL    HW1 8384   3.555   4.398   3.657
 2788SOL    HW2 8385   3.579   4.241   3.620
 2789SOL     OW 8386   3.224   4.868   2.407
 2789SOL    HW1 8387   3.307   4.839   2.359
 2789SOL    HW2 8388   3.175   4.935   2.351
 2790SOL     OW 8389   2.412   3.920   2.747
 2790SOL    HW1 8390   2.407   3.915   2.847
 2790SOL    HW2 8391   2.414   4.016   2.718
 2791SOL     OW 8392   3.657   4.790   2.735
 2791SOL    HW1 8393   3.595   4.775   2.659
 2791SOL    HW2 8394   3.605   4.801   2.820
 2792SOL     OW 8395   2.183   4.667   2.104
 2792SOL    HW1 8396   2.265   4.706   2.062
 2792SOL    HW2 8397   2.156   4.585   2.055
 2793SOL     OW 8398   3.320   4.459   2.590
 2793SOL    HW1 8399   3.315   4.394   2.665
 2793SOL    HW2 8400   3.400   4.518   2.603
 2794SOL     OW 8401   2.064   4.009   3.360
 2794SOL    HW1 8402   1.984   4.069   3.347
 2794SOL    HW2 8403   2.054   3.960   3.446
 2795SOL     OW 8404   3.262   3.831   2.288
 2795SOL    HW1 8405   3.238   3.794   2.198
 2795SOL    HW2 8406   3.361   3.847   2.292
 2796SOL     OW 8407   2.244   4.424   2.342
 2796SOL    HW1 8408   2.289   4.334   2.339
 2796SOL    HW2 8409   2.150   4.413   2.375
 2797SOL     OW 8410   3.409   3.946   3.591
 2797SOL    HW1 8411   3.404   3.983   3.683
 2797SOL    HW2 8412   3.337   3.877   3.579
 2798SOL     OW 8413   2.476   3.846   1.979
 2798SOL    HW1 8414   2.574   3.824   1.986
 2798SOL    HW2 8415   2.445   3.829   1.886
 2799SOL     OW 8416   2.643   3.988   3.611
 2799SOL    HW1 8417   2.710   3.927   3.654
 2799SOL    HW2 8418   2.570   4.007   3.676
 2800SOL     OW 8419   3.213   4.314   3.295
 2800SOL    HW1 8420   3.241   4.271   3.380
 2800SOL    HW2 8421   3.238   4.410   3.296
 2801SOL     OW 8422   2.784   4.227   2.761
 2801SOL    HW1 8423   2.759   4.218   2.665
 2801SOL    HW2 8424   2.832   4.145   2.792
 2802SOL     OW 8425   2.401   3.788   2.374
 2802SOL    HW1 8426   2.320   3.789   2.432
 2802SOL    HW2 8427   2.404   3.871   2.319
 2803SOL     OW 8428   2.159   3.759   2.033
 2803SOL    HW1 8429   2.208   3.843   2.012
 2803SOL    HW2 8430   2.221   3.694   2.078
 2804SOL     OW 8431   2.797   3.960   2.342
 2804SOL    HW1 8432   2.749   4.001   2.264
 2804SOL    HW2 8433   2.896   3.958   2.323
 2805SOL     OW 8434   2.938   4.407   3.326
 2805SOL    HW1 8435   2.858   4.346   3.329
 2805SOL    HW2 8436   3.019   4.354   3.302
 2806SOL     OW 8437   2.321   4.876   2.603
 2806SOL    HW1 8438   2.250   4.849   2.668
 2806SOL    HW2 8439   2.295   4.848   2.510
 2807SOL     OW 8440   2.894   4.273   1.878
 2807SOL    HW1 8441   2.853   4.355   1.839
 2807SOL    HW2 8442   2.958   4.299   1.951
 2808SOL     OW 8443   1.940   4.280   3.248
 2808SOL    HW1 8444   2.032   4.279   3.207
 2808SOL    HW2 8445   1.934   4.354   3.315
 2809SOL     OW 8446   2.423   3.946   3.009
 2809SOL    HW1 8447   2.461   3.862   3.046
 2809SOL    HW2 8448   2.335   3.965   3.053
 2810SOL     OW 8449   2.728   4.178   2.504
 2810SOL    HW1 8450   2.696   4.250   2.442
 2810SOL    HW2 8451   2.752   4.097   2.451
 2811SOL     OW 8452   2.879   3.763   2.615
 2811SOL    HW1 8453   2.807   3.768   2.546
 2811SOL    HW2 8454   2.855   3.694   2.684
 2812SOL     OW 8455   3.291   4.897   2.729
 2812SOL    HW1 8456   3.236   4.813   2.722
 2812SOL    HW2 8457   3.317   4.926   2.637
 2813SOL     OW 8458   3.328   4.314   2.854
 2813SOL    HW1 8459   3.298   4.219   2.861
 2813SOL    HW2 8460   3.401   4.330   2.920
 2814SOL     OW 8461   3.719   4.557   2.239
 2814SOL    HW1 8462   3.761   4.493   2.303
 2814SOL    HW2 8463   3.681   4.506   2.161
 2815SOL     OW 8464   3.252   4.299   1.940
 2815SOL    HW1 8465   3.198   4.278   2.021
 2815SOL    HW2 8466   3.343   4.258   1.949
 2816SOL     OW 8467   2.389   3.980   2.190
 2816SOL    HW1 8468   2.416   3.921   2.115
 2816SOL    HW2 8469   2.389   4.075   2.159
 2817SOL     OW 8470   3.616   4.947   3.450
 2817SOL    HW1 8471   3.707   4.908   3.437
 2817SOL    HW2 8472   3.624   5.043   3.474
 2818SOL     OW 8473   3.500   4.823   2.941
 2818SOL    HW1 8474   3.505   4.904   3.000
 2818SOL    HW2 8475   3.414   4.825   2.890
 2819SOL     OW 8476   2.777   3.813   3.264
 2819SOL    HW1 8477   2.802   3.793   3.169
 2819SOL    HW2 8478   2.849   3.869   3.306
 2820SOL     OW 8479   2.842   4.840   3.581
 2820SOL    HW1 8480   2.743   4.846   3.591
 2820SOL    HW2 8481   2.865   4.760   3.525
 2821SOL     OW 8482   2.567   4.774   2.230
 2821SOL    HW1 8483   2.553   4.781   2.329
 2821SOL    HW2 8484   2.651   4.723   2.212
 2822SOL     OW 8485   2.272   4.537   3.113
 2822SOL    HW1 8486   2.358   4.549   3.163
 2822SOL    HW2 8487   2.230   4.450   3.140
 2823SOL     OW 8488   3.136   4.110   3.124
 2823SOL    HW1 8489   3.157   4.184   3.188
 2823SOL    HW2 8490   3.047   4.127   3.081
 2824SOL     OW 8491   2.229   4.824   2.363
 2824SOL    HW1 8492   2.222   4.907   2.307
 2824SOL    HW2 8493   2.233   4.744   2.303
 2825SOL     OW 8494   2.428   4.261   2.727
 2825SOL    HW1 8495   2.440   4.327   2.653
 2825SOL    HW2 8496   2.474   4.295   2.810
 2826SOL     OW 8497   3.444   4.363   2.334
 2826SOL    HW1 8498   3.413   4.424   2.407
 2826SOL    HW2 8499   3.494   4.415   2.265
 2827SOL     OW 8500   2.264   4.475   3.460
 2827SOL    HW1 8501   2.332   4.530   3.413
 2827SOL    HW2 8502   2.304   4.387   3.487
 2828SOL     OW 8503   3.449   4.503   3.532
 2828SOL    HW1 8504   3.357   4.541   3.527
 2828SOL    HW2 8505   3.509   4.550   3.467
 2829SOL     OW 8506   2.875   3.829   3.632
 2829SOL    HW1 8507   2.881   3.914   3.580
 2829SOL    HW2 8508   2.907   3.753   3.575
 2830SOL     OW 8509   2.366   3.774   3.602
 2830SOL    HW1 8510   2.324   3.717   3.532
 2830SOL    HW2 8511   2.300   3.843   3.634
 2831SOL     OW 8512   2.435   4.594   2.891
 2831SOL    HW1 8513   2.479   4.683   2.882
 2831SOL    HW2 8514   2.372   4.594   2.968
 2832SOL     OW 8515   3.222   4.586   2.907
 2832SOL    HW1 8516   3.147   4.586   2.841
 2832SOL    HW2 8517   3.259   4.494   2.916
 2833SOL     OW 8518   3.071   4.249   2.137
 2833SOL    HW1 8519   3.084   4.165   2.191
 2833SOL    HW2 8520   3.042   4.323   2.197
 2834SOL     OW 8521   2.169   3.937   3.093
 2834SOL    HW1 8522   2.146   3.974   3.183
 2834SOL    HW2 8523   2.139   3.842   3.087
 2835SOL     OW 8524   2.594   4.358   2.926
 2835SOL    HW1 8525   2.653   4.332   2.850
 2835SOL    HW2 8526   2.566   4.454   2.915
 2836SOL     OW 8527   3.590   4.659   3.716
 2836SOL    HW1 8528   3.544   4.652   3.627
 2836SOL    HW2 8529   3.528   4.703   3.782
 2837SOL     OW 8530   2.169   3.787   2.480
 2837SOL    HW1 8531   2.158   3.881   2.513
 2837SOL    HW2 8532   2.164   3.724   2.557
 2838SOL     OW 8533   3.484   4.091   2.236
 2838SOL    HW1 8534   3.486   4.015   2.300
 2838SOL    HW2 8535   3.436   4.168   2.276
 2839SOL     OW 8536   2.885   4.490   2.828
 2839SOL    HW1 8537   2.900   4.511   2.924
 2839SOL    HW2 8538   2.855   4.395   2.819
 2840SOL     OW 8539   2.212   4.622   3.666
 2840SOL    HW1 8540   2.288   4.666   3.714
 2840SOL    HW2 8541   2.247   4.575   3.584
 2841SOL     OW 8542   3.402   3.998   1.987
 2841SOL    HW1 8543   3.341   3.923   2.010
 2841SOL    HW2 8544   3.424   4.050   2.070
 2842SOL     OW 8545   3.165   4.562   1.904
 2842SOL    HW1 8546   3.199   4.469   1.919
 2842SOL    HW2 8547   3.183   4.589   1.809
 2843SOL     OW 8548   2.181   4.534   2.811
 2843SOL    HW1 8549   2.274   4.570   2.816
 2843SOL    HW2 8550   2.175   4.449   2.863
 2844SOL     OW 8551   2.201   4.233   2.868
 2844SOL    HW1 8552   2.149   4.150   2.851
 2844SOL    HW2 8553   2.278   4.238   2.804
 2845SOL     OW 8554   3.000   4.104   3.540
 2845SOL    HW1 8555   2.955   4.167   3.604
 2845SOL    HW2 8556   3.093   4.135   3.523
 2846SOL     OW 8557   3.022   3.931   3.339
 2846SOL    HW1 8558   3.022   3.995   3.416
 2846SOL    HW2 8559   3.050   3.979   3.256
 2847SOL     OW 8560   2.864   4.520   3.100
 2847SOL    HW1 8561   2.905   4.488   3.186
 2847SOL    HW2 8562   2.768   4.493   3.097
 2848SOL     OW 8563   1.902   4.268   2.976
 2848SOL    HW1 8564   1.987   4.235   2.935
 2848SOL    HW2 8565   1.915   4.283   3.074
 2849SOL     OW 8566   2.051   4.244   3.584
 2849SOL    HW1 8567   2.110   4.204   3.514
 2849SOL    HW2 8568   1.993   4.315   3.543
 2850SOL     OW 8569   3.231   4.674   3.522
 2850SOL    HW1 8570   3.270   4.763   3.542
 2850SOL    HW2 8571   3.241   4.654   3.425
 2851SOL     OW 8572   2.677   4.296   2.187
 2851SOL    HW1 8573   2.684   4.207   2.141
 2851SOL    HW2 8574   2.583   4.330   2.179
 2852SOL     OW 8575   3.519   4.328   3.068
 2852SOL    HW1 8576   3.481   4.259   3.130
 2852SOL    HW2 8577   3.601   4.292   3.024
 2853SOL     OW 8578   2.533   4.188   3.131
 2853SOL    HW1 8579   2.499   4.099   3.101
 2853SOL    HW2 8580   2.559   4.242   3.051
 2854SOL     OW 8581   2.335   4.224   2.053
 2854SOL    HW1 8582   2.396   4.304   2.057
 2854SOL    HW2 8583   2.240   4.255   2.060
 2855SOL     OW 8584   2.021   4.861   3.328
 2855SOL    HW1 8585   2.043   4.800   3.404
 2855SOL    HW2 8586   2.031   4.812   3.242
 2856SOL     OW 8587   3.209   4.783   3.096
 2856SOL    HW1 8588   3.233   4.720   3.022
 2856SOL    HW2 8589   3.119   4.823   3.078
 2857SOL     OW 8590   3.164   4.579   2.171
 2857SOL    HW1 8591   3.078   4.548   2.213
 2857SOL    HW2 8592   3.160   4.565   2.072
 2858SOL     OW 8593   3.588   3.859   2.385
 2858SOL    HW1 8594   3.661   3.842   2.318
 2858SOL    HW2 8595   3.557   3.772   2.423
 2859SOL     OW 8596   3.142   4.651   2.534
 2859SOL    HW1 8597   3.202   4.570   2.536
 2859SOL    HW2 8598   3.182   4.720   2.474
 2860SOL     OW 8599   3.703   3.899   2.825
 2860SOL    HW1 8600   3.742   3.814   2.789
 2860SOL    HW2 8601   3.605   3.901   2.806
 2861SOL     OW 8602   2.125   4.050   2.582
 2861SOL    HW1 8603   2.046   4.101   2.548
 2861SOL    HW2 8604   2.116   4.035   2.680
 2862SOL     OW 8605   2.684   4.726   3.234
 2862SOL    HW1 8606   2.724   4.725   3.142
 2862SOL    HW2 8607   2.694   4.818   3.274
 2863SOL     OW 8608   2.778   4.634   2.153
 2863SOL    HW1 8609   2.841   4.672   2.085
 2863SOL    HW2 8610   2.818   4.551   2.192
 2864SOL     OW 8611   2.234   5.012   3.352
 2864SOL    HW1 8612   2.221   5.105   3.318
 2864SOL    HW2 8613   2.150   4.960   3.339
 2865SOL     OW 8614   2.901   4.822   2.558
 2865SOL    HW1 8615   2.831   4.775   2.612
 2865SOL    HW2 8616   2.960   4.754   2.515
 2866SOL     OW 8617   2.876   3.960   2.833
 2866SOL    HW1 8618   2.868   3.924   2.740
 2866SOL    HW2 8619   2.874   3.884   2.898
 2867SOL     OW 8620   3.571   4.109   3.243
 2867SOL    HW1 8621   3.644   4.178   3.247
 2867SOL    HW2 8622   3.599   4.034   3.184
 2868SOL     OW 8623   1.967   4.737   3.588
 2868SOL    HW1 8624   1.890   4.704   3.642
 2868SOL    HW2 8625   2.052   4.707   3.630
 2869SOL     OW 8626   2.534   3.927   3.351
 2869SOL    HW1 8627   2.624   3.911   3.311
 2869SOL    HW2 8628   2.542   3.932   3.450
 2870SOL     OW 8629   1.937   4.069   1.895
 2870SOL    HW1 8630   1.845   4.041   1.866
 2870SOL    HW2 8631   1.968   4.146   1.839
 2871SOL     OW 8632   3.302   4.580   3.260
 2871SOL    HW1 8633   3.245   4.632   3.197
 2871SOL    HW2 8634   3.398   4.592   3.236
 2872SOL     OW 8635   1.934   3.890   2.180
 2872SOL    HW1 8636   1.917   3.973   2.126
 2872SOL    HW2 8637   2.024   3.853   2.158
 2873SOL     OW 8638   2.475   4.566   3.293
 2873SOL    HW1 8639   2.531   4.647   3.276
 2873SOL    HW2 8640   2.534   4.486   3.296
 2874SOL     OW 8641   2.578   4.289   3.570
 2874SOL    HW1 8642   2.597   4.354   3.644
 2874SOL    HW2 8643   2.638   4.209   3.579
 2875SOL     OW 8644   3.312   4.944   3.495
 2875SOL    HW1 8645   3.303   4.934   3.594
 2875SOL    HW2 8646   3.408   4.937   3.469
 2876SOL     OW 8647   3.536   4.607   3.116
 2876SOL    HW1 8648   3.509   4.518   3.079
 2876SOL    HW2 8649   3.537   4.675   3.043
 2877SOL     OW 8650   3.087   4.049   2.311
 2877SOL    HW1 8651   3.152   3.975   2.300
 2877SOL    HW2 8652   3.107   4.099   2.395
 2878SOL     OW 8653   2.456   4.469   2.514
 2878SOL    HW1 8654   2.506   4.554   2.495
 2878SOL    HW2 8655   2.368   4.471   2.466
 2879SOL     OW 8656   3.639   4.066   3.504
 2879SOL    HW1 8657   3.622   4.097   3.410
 2879SOL    HW2 8658   3.555   4.029   3.542
 2880SOL     OW 8659   3.592   4.658   3.379
 2880SOL    HW1 8660   3.630   4.749   3.394
 2880SOL    HW2 8661   3.584   4.641   3.280
 2881SOL     OW 8662   2.721   4.680   2.723
 2881SOL    HW1 8663   2.775   4.611   2.771
 2881SOL    HW2 8664   2.689   4.749   2.789
 2882SOL     OW 8665   2.945   4.708   1.949
 2882SOL    HW1 8666   2.922   4.761   1.867
 2882SOL    HW2 8667   3.026   4.652   1.930
 2883SOL     OW 8668   1.941   4.964   2.515
 2883SOL    HW1 8669   1.940   4.917   2.603
 2883SOL    HW2 8670   2.023   4.936   2.464
 2884SOL     OW 8671   3.686   3.916   3.089
 2884SOL    HW1 8672   3.682   3.826   3.133
 2884SOL    HW2 8673   3.689   3.905   2.990
 2885SOL     OW 8674   2.290   4.148   2.382
 2885SOL    HW1 8675   2.320   4.076   2.320
 2885SOL    HW2 8676   2.251   4.108   2.465
 2886SOL     OW 8677   2.179   4.271   3.142
 2886SOL    HW1 8678   2.217   4.212   3.214
 2886SOL    HW2 8679   2.219   4.245   3.054
 2887SOL     OW 8680   3.286   3.938   2.974
 2887SOL    HW1 8681   3.338   3.873   3.029
 2887SOL    HW2 8682   3.237   4.001   3.035
 2888SOL     OW 8683   2.863   3.758   3.016
 2888SOL    HW1 8684   2.800   3.686   2.985
 2888SOL    HW2 8685   2.956   3.722   3.016
 2889SOL     OW 8686   2.632   5.054   2.163
 2889SOL    HW1 8687   2.586   4.967   2.180
 2889SOL    HW2 8688   2.723   5.051   2.204
 2890SOL     OW 8689   3.214   3.776   2.030
 2890SOL    HW1 8690   3.249   3.735   1.946
 2890SOL    HW2 8691   3.124   3.738   2.050
 2891SOL     OW 8692   3.162   4.177   2.553
 2891SOL    HW1 8693   3.103   4.257   2.557
 2891SOL    HW2 8694   3.177   4.142   2.646
 2892SOL     OW 8695   3.455   3.945   2.744
 2892SOL    HW1 8696   3.371   3.944   2.798
 2892SOL    HW2 8697   3.457   4.028   2.688
 2893SOL     OW 8698   1.901   4.801   2.162
 2893SOL    HW1 8699   2.000   4.790   2.153
 2893SOL    HW2 8700   1.861   4.715   2.194
 2894SOL     OW 8701   2.092   4.352   3.837
 2894SOL    HW1 8702   1.999   4.350   3.874
 2894SOL    HW2 8703   2.093   4.313   3.745
 2895SOL     OW 8704   2.087   3.999   4.720
 2895SOL    HW1 8705   2.122   3.982   4.812
 2895SOL    HW2 8706   1.999   3.954   4.708
 2896SOL     OW 8707   1.881   4.092   4.371
 2896SOL    HW1 8708   1.799   4.135   4.410
 2896SOL    HW2 8709   1.853   4.019   4.308
 2897SOL     OW 8710   2.997   4.427   4.441
 2897SOL    HW1 8711   3.054   4.505   4.416
 2897SOL    HW2 8712   2.937   4.453   4.517
 2898SOL     OW 8713   3.617   4.331   3.955
 2898SOL    HW1 8714   3.605   4.318   3.856
 2898SOL    HW2 8715   3.587   4.250   4.004
 2899SOL     OW 8716   2.630   4.868   4.747
 2899SOL    HW1 8717   2.552   4.885   4.807
 2899SOL    HW2 8718   2.664   4.955   4.711
 2900SOL     OW 8719   2.547   4.736   4.389
 2900SOL    HW1 8720   2.616   4.720   4.459
 2900SOL    HW2 8721   2.474   4.793   4.427
 2901SOL     OW 8722   3.465   4.171   4.461
 2901SOL    HW1 8723   3.391   4.217   4.411
 2901SOL    HW2 8724   3.516   4.239   4.514
 2902SOL     OW 8725   2.102   4.815   4.610
 2902SOL    HW1 8726   2.116   4.731   4.662
 2902SOL    HW2 8727   2.047   4.879   4.665
 2903SOL     OW 8728   2.468   4.688   3.847
 2903SOL    HW1 8729   2.475   4.772   3.793
 2903SOL    HW2 8730   2.514   4.701   3.935
 2904SOL     OW 8731   1.984   4.367   4.287
 2904SOL    HW1 8732   1.939   4.279   4.304
 2904SOL    HW2 8733   1.983   4.421   4.371
 2905SOL     OW 8734   3.551   4.646   4.336
 2905SOL    HW1 8735   3.646   4.617   4.344
 2905SOL    HW2 8736   3.543   4.711   4.261
 2906SOL     OW 8737   2.475   5.089   4.450
 2906SOL    HW1 8738   2.426   5.002   4.459
 2906SOL    HW2 8739   2.452   5.132   4.363
 2907SOL     OW 8740   2.671   3.728   4.226
 2907SOL    HW1 8741   2.711   3.819   4.217
 2907SOL    HW2 8742   2.571   3.736   4.232
 2908SOL     OW 8743   2.059   4.700   4.988
 2908SOL    HW1 8744   2.148   4.655   4.974
 2908SOL    HW2 8745   1.986   4.635   4.969
 2909SOL     OW 8746   3.387   4.723   3.914
 2909SOL    HW1 8747   3.324   4.647   3.927
 2909SOL    HW2 8748   3.435   4.741   4.000
 2910SOL     OW 8749   2.460   4.453   3.994
 2910SOL    HW1 8750   2.484   4.522   3.926
 2910SOL    HW2 8751   2.382   4.486   4.048
 2911SOL     OW 8752   3.143   4.069   4.668
 2911SOL    HW1 8753   3.057   4.019   4.655
 2911SOL    HW2 8754   3.205   4.015   4.724
 2912SOL     OW 8755   2.903   4.425   4.153
 2912SOL    HW1 8756   2.929   4.421   4.249
 2912SOL    HW2 8757   2.818   4.374   4.139
 2913SOL     OW 8758   1.938   4.535   4.513
 2913SOL    HW1 8759   2.037   4.523   4.522
 2913SOL    HW2 8760   1.914   4.630   4.534
 2914SOL     OW 8761   2.727   4.072   3.919
 2914SOL    HW1 8762   2.786   4.135   3.870
 2914SOL    HW2 8763   2.746   3.978   3.890
 2915SOL     OW 8764   3.224   4.868   4.269
 2915SOL    HW1 8765   3.307   4.839   4.221
 2915SOL    HW2 8766   3.175   4.935   4.213
 2916SOL     OW 8767   2.412   3.920   4.609
 2916SOL    HW1 8768   2.407   3.915   4.709
 2916SOL    HW2 8769   2.414   4.016   4.580
 2917SOL     OW 8770   3.657   4.790   4.597
 2917SOL    HW1 8771   3.595   4.775   4.521
 2917SOL    HW2 8772   3.605   4.801   4.682
 2918SOL     OW 8773   2.183   4.667   3.966
 2918SOL    HW1 8774   2.265   4.706   3.924
 2918SOL    HW2 8775   2.156   4.585   3.917
 2919SOL     OW 8776   3.320   4.459   4.452
 2919SOL    HW1 8777   3.315   4.394   4.527
 2919SOL    HW2 8778   3.400   4.518   4.465
 2920SOL     OW 8779   3.262   3.831   4.150
 2920SOL    HW1 8780   3.238   3.794   4.060
 2920SOL    HW2 8781   3.361   3.847   4.154
 2921SOL     OW 8782   2.244   4.424   4.204
 2921SOL    HW1 8783   2.289   4.334   4.201
 2921SOL    HW2 8784   2.150   4.413   4.237
 2922SOL     OW 8785   2.476   3.846   3.841
 2922SOL    HW1 8786   2.574   3.824   3.848
 2922SOL    HW2 8787   2.445   3.829   3.748
 2923SOL     OW 8788   2.784   4.227   4.623
 2923SOL    HW1 8789   2.759   4.218   4.527
 2923SOL    HW2 8790   2.832   4.145   4.654
 2924SOL     OW 8791   2.401   3.788   4.236
 2924SOL    HW1 8792   2.320   3.789   4.294
 2924SOL    HW2 8793   2.404   3.871   4.181
 2925SOL     OW 8794   2.159   3.759   3.895
 2925SOL    HW1 8795   2.208   3.843   3.874
 2925SOL    HW2 8796   2.221   3.694   3.940
 2926SOL     OW 8797   2.797   3.960   4.204
 2926SOL    HW1 8798   2.749   4.001   4.126
 2926SOL    HW2 8799   2.896   3.958   4.185
 2927SOL     OW 8800   2.321   4.876   4.465
 2927SOL    HW1 8801   2.250   4.849   4.530
 2927SOL    HW2 8802   2.295   4.848   4.372
 2928SOL     OW 8803   2.894   4.273   3.740
 2928SOL    HW1 8804   2.853   4.355   3.701
 2928SOL    HW2 8805   2.958   4.299   3.813
 2929SOL     OW 8806   2.728   4.178   4.366
 2929SOL    HW1 8807   2.696   4.250   4.304
 2929SOL    HW2 8808   2.752   4.097   4.313
 2930SOL     OW 8809   2.879   3.763   4.477
 2930SOL    HW1 8810   2.807   3.768   4.408
 2930SOL    HW2 8811   2.855   3.694   4.546
 2931SOL     OW 8812   3.291   4.897   4.591
 2931SOL    HW1 8813   3.236   4.813   4.584
 2931SOL    HW2 8814   3.317   4.926   4.499
 2932SOL     OW 8815   3.328   4.314   4.716
 2932SOL    HW1 8816   3.298   4.219   4.723
 2932SOL    HW2 8817   3.401   4.330   4.782
 2933SOL     OW 8818   3.719   4.557   4.101
 2933SOL    HW1 8819   3.761   4.493   4.165
 2933SOL    HW2 8820   3.681   4.506   4.023
 2934SOL     OW 8821   3.252   4.299   3.802
 2934SOL    HW1 8822   3.198   4.278   3.883
 2934SOL    HW2 8823   3.343   4.258   3.811
 2935SOL     OW 8824   2.389   3.980   4.052
 2935SOL    HW1 8825   2.416   3.921   3.977
 2935SOL    HW2 8826   2.389   4.075   4.021
 2936SOL     OW 8827   2.973   4.919   4.824
 2936SOL    HW1 8828   2.933   4.963   4.905
 2936SOL    HW2 8829   2.932   4.956   4.741
 2937SOL     OW 8830   3.500   4.823   4.803
 2937SOL    HW1 8831   3.505   4.904   4.862
 2937SOL    HW2 8832   3.414   4.825   4.752
 2938SOL     OW 8833   2.567   4.774   4.092
 2938SOL    HW1 8834   2.553   4.781   4.191
 2938SOL    HW2 8835   2.651   4.723   4.074
 2939SOL     OW 8836   2.272   4.537   4.975
 2939SOL    HW1 8837   2.358   4.549   5.025
 2939SOL    HW2 8838   2.230   4.450   5.002
 2940SOL     OW 8839   2.229   4.824   4.225
 2940SOL    HW1 8840   2.222   4.907   4.169
 2940SOL    HW2 8841   2.233   4.744   4.165
 2941SOL     OW 8842   2.428   4.261   4.589
 2941SOL    HW1 8843   2.440   4.327   4.515
 2941SOL    HW2 8844   2.474   4.295   4.672
 2942SOL     OW 8845   3.444   4.363   4.196
 2942SOL    HW1 8846   3.413   4.424   4.269
 2942SOL    HW2 8847   3.494   4.415   4.127
 2943SOL     OW 8848   2.435   4.594   4.753
 2943SOL    HW1 8849   2.479   4.683   4.744
 2943SOL    HW2 8850   2.372   4.594   4.830
 2944SOL     OW 8851   3.071   4.249   3.999
 2944SOL    HW1 8852   3.084   4.165   4.053
 2944SOL    HW2 8853   3.042   4.323   4.059
 2945SOL     OW 8854   2.169   3.937   4.955
 2945SOL    HW1 8855   2.146   3.974   5.045
 2945SOL    HW2 8856   2.139   3.842   4.949
 2946SOL     OW 8857   2.594   4.358   4.788
 2946SOL    HW1 8858   2.653   4.332   4.712
 2946SOL    HW2 8859   2.566   4.454   4.777
 2947SOL     OW 8860   2.169   3.787   4.342
 2947SOL    HW1 8861   2.158   3.881   4.375
 2947SOL    HW2 8862   2.164   3.724   4.419
 2948SOL     OW 8863   3.484   4.091   4.098
 2948SOL    HW1 8864   3.486   4.015   4.162
 2948SOL    HW2 8865   3.436   4.168   4.138
 2949SOL     OW 8866   2.885   4.490   4.690
 2949SOL    HW1 8867   2.900   4.511   4.786
 2949SOL    HW2 8868   2.855   4.395   4.681
 2950SOL     OW 8869   3.402   3.998   3.849
 2950SOL    HW1 8870   3.341   3.923   3.872
 2950SOL    HW2 8871   3.424   4.050   3.932
 2951SOL     OW 8872   3.165   4.562   3.766
 2951SOL    HW1 8873   3.199   4.469   3.781
 2951SOL    HW2 8874   3.183   4.589   3.671
 2952SOL     OW 8875   2.181   4.534   4.673
 2952SOL    HW1 8876   2.274   4.570   4.678
 2952SOL    HW2 8877   2.175   4.449   4.725
 2953SOL     OW 8878   2.201   4.233   4.730
 2953SOL    HW1 8879   2.149   4.150   4.713
 2953SOL    HW2 8880   2.278   4.238   4.666
 2954SOL     OW 8881   2.864   4.520   4.962
 2954SOL    HW1 8882   2.905   4.488   5.048
 2954SOL    HW2 8883   2.768   4.493   4.959
 2955SOL     OW 8884   1.902   4.268   4.838
 2955SOL    HW1 8885   1.987   4.235   4.797
 2955SOL    HW2 8886   1.915   4.283   4.936
 2956SOL     OW 8887   2.677   4.296   4.049
 2956SOL    HW1 8888   2.684   4.207   4.003
 2956SOL    HW2 8889   2.583   4.330   4.041
 2957SOL     OW 8890   3.519   4.328   4.930
 2957SOL    HW1 8891   3.481   4.259   4.992
 2957SOL    HW2 8892   3.601   4.292   4.886
 2958SOL     OW 8893   2.533   4.188   4.993
 2958SOL    HW1 8894   2.499   4.099   4.963
 2958SOL    HW2 8895   2.559   4.242   4.913
 2959SOL     OW 8896   2.335   4.224   3.915
 2959SOL    HW1 8897   2.396   4.304   3.919
 2959SOL    HW2 8898   2.240   4.255   3.922
 2960SOL     OW 8899   2.021   4.861   5.190
 2960SOL    HW1 8900   2.043   4.800   5.266
 2960SOL    HW2 8901   2.031   4.812   5.104
 2961SOL     OW 8902   3.209   4.783   4.958
 2961SOL    HW1 8903   3.233   4.720   4.884
 2961SOL    HW2 8904   3.119   4.823   4.940
 2962SOL     OW 8905   3.164   4.579   4.033
 2962SOL    HW1 8906   3.078   4.548   4.075
 2962SOL    HW2 8907   3.160   4.565   3.934
 2963SOL     OW 8908   3.588   3.859   4.247
 2963SOL    HW1 8909   3.661   3.842   4.180
 2963SOL    HW2 8910   3.557   3.772   4.285
 2964SOL     OW 8911   3.142   4.651   4.396
 2964SOL    HW1 8912   3.202   4.570   4.398
 2964SOL    HW2 8913   3.182   4.720   4.336
 2965SOL     OW 8914   3.703   3.899   4.687
 2965SOL    HW1 8915   3.742   3.814   4.651
 2965SOL    HW2 8916   3.605   3.901   4.668
 2966SOL     OW 8917   2.125   4.050   4.444
 2966SOL    HW1 8918   2.046   4.101   4.410
 2966SOL    HW2 8919   2.116   4.035   4.542
 2967SOL     OW 8920   2.684   4.726   5.096
 2967SOL    HW1 8921   2.724   4.725   5.004
 2967SOL    HW2 8922   2.694   4.818   5.136
 2968SOL     OW 8923   2.778   4.634   4.015
 2968SOL    HW1 8924   2.841   4.672   3.947
 2968SOL    HW2 8925   2.818   4.551   4.054
 2969SOL     OW 8926   2.901   4.822   4.420
 2969SOL    HW1 8927   2.831   4.775   4.474
 2969SOL    HW2 8928   2.960   4.754   4.377
 2970SOL     OW 8929   2.876   3.960   4.695
 2970SOL    HW1 8930   2.868   3.924   4.602
 2970SOL    HW2 8931   2.874   3.884   4.760
 2971SOL     OW 8932   3.571   4.109   5.105
 2971SOL    HW1 8933   3.644   4.178   5.109
 2971SOL    HW2 8934   3.599   4.034   5.046
 2972SOL     OW 8935   1.937   4.069   3.757
 2972SOL    HW1 8936   1.845   4.041   3.728
 2972SOL    HW2 8937   1.968   4.146   3.701
 2973SOL     OW 8938   1.934   3.890   4.042
 2973SOL    HW1 8939   1.917   3.973   3.988
 2973SOL    HW2 8940   2.024   3.853   4.020
 2974SOL     OW 8941   3.536   4.607   4.978
 2974SOL    HW1 8942   3.509   4.518   4.941
 2974SOL    HW2 8943   3.537   4.675   4.905
 2975SOL     OW 8944   3.087   4.049   4.173
 2975SOL    HW1 8945   3.152   3.975   4.162
 2975SOL    HW2 8946   3.107   4.099   4.257
 2976SOL     OW 8947   2.456   4.469   4.376
 2976SOL    HW1 8948   2.506   4.554   4.357
 2976SOL    HW2 8949   2.368   4.471   4.328
 2977SOL     OW 8950   3.592   4.658   5.241
 2977SOL    HW1 8951   3.630   4.749   5.256
 2977SOL    HW2 8952   3.584   4.641   5.142
 2978SOL     OW 8953   2.721   4.680   4.585
 2978SOL    HW1 8954   2.775   4.611   4.633
 2978SOL    HW2 8955   2.689   4.749   4.651
 2979SOL     OW 8956   2.945   4.708   3.811
 2979SOL    HW1 8957   2.922   4.761   3.729
 2979SOL    HW2 8958   3.026   4.652   3.792
 2980SOL     OW 8959   1.941   4.964   4.377
 2980SOL    HW1 8960   1.940   4.917   4.465
 2980SOL    HW2 8961   2.023   4.936   4.326
 2981SOL     OW 8962   3.686   3.916   4.951
 2981SOL    HW1 8963   3.682   3.826   4.995
 2981SOL    HW2 8964   3.689   3.905   4.852
 2982SOL     OW 8965   2.290   4.148   4.244
 2982SOL    HW1 8966   2.320   4.076   4.182
 2982SOL    HW2 8967   2.251   4.108   4.327
 2983SOL     OW 8968   3.286   3.938   4.836
 2983SOL    HW1 8969   3.338   3.873   4.891
 2983SOL    HW2 8970   3.237   4.001   4.897
 2984SOL     OW 8971   2.632   5.054   4.025
 2984SOL    HW1 8972   2.586   4.967   4.042
 2984SOL    HW2 8973   2.723   5.051   4.066
 2985SOL     OW 8974   3.214   3.776   3.892
 2985SOL    HW1 8975   3.249   3.735   3.808
 2985SOL    HW2 8976   3.124   3.738   3.912
 2986SOL     OW 8977   3.162   4.177   4.415
 2986SOL    HW1 8978   3.103   4.257   4.419
 2986SOL    HW2 8979   3.177   4.142   4.508
 2987SOL     OW 8980   3.455   3.945   4.606
 2987SOL    HW1 8981   3.371   3.944   4.660
 2987SOL    HW2 8982   3.457   4.028   4.550
 2988SOL     OW 8983   1.901   4.801   4.024
 2988SOL    HW1 8984   2.000   4.790   4.015
 2988SOL    HW2 8985   1.861   4.715   4.056
 2989SOL     OW 8986   3.954   0.628   0.113
 2989SOL    HW1 8987   3.861   0.626   0.150
 2989SOL    HW2 8988   3.955   0.589   0.021
 2990SOL     OW 8989   3.949   0.275   0.996
 2990SOL    HW1 8990   3.984   0.258   1.088
 2990SOL    HW2 8991   3.861   0.230   0.984
 2991SOL     OW 8992   3.743   0.368   0.647
 2991SOL    HW1 8993   3.661   0.411   0.686
 2991SOL    HW2 8994   3.715   0.295   0.584
 2992SOL     OW 8995   4.293   1.275   1.165
 2992SOL    HW1 8996   4.200   1.268   1.128
 2992SOL    HW2 8997   4.304   1.364   1.209
 2993SOL     OW 8998   4.492   1.144   1.023
 2993SOL    HW1 8999   4.414   1.161   1.083
 2993SOL    HW2 9000   4.526   1.231   0.987
 2994SOL     OW 9001   4.574   0.798   1.823
 2994SOL    HW1 9002   4.570   0.874   1.888
 2994SOL    HW2 9003   4.596   0.834   1.732
 2995SOL     OW 9004   4.409   1.012   0.665
 2995SOL    HW1 9005   4.478   0.996   0.735
 2995SOL    HW2 9006   4.336   1.069   0.703
 2996SOL     OW 9007   4.410   1.161   1.803
 2996SOL    HW1 9008   4.470   1.240   1.817
 2996SOL    HW2 9009   4.324   1.192   1.762
 2997SOL     OW 9010   4.059   1.435   1.061
 2997SOL    HW1 9011   3.981   1.404   1.008
 2997SOL    HW2 9012   4.117   1.493   1.004
 2998SOL     OW 9013   4.162   0.392   1.499
 2998SOL    HW1 9014   4.244   0.336   1.508
 2998SOL    HW2 9015   4.081   0.334   1.503
 2999SOL     OW 9016   3.955   1.713   0.483
 2999SOL    HW1 9017   3.989   1.790   0.537
 2999SOL    HW2 9018   3.999   1.713   0.393
 3000SOL     OW 9019   4.851   1.341   1.690
 3000SOL    HW1 9020   4.898   1.341   1.778
 3000SOL    HW2 9021   4.803   1.254   1.679
 3001SOL     OW 9022   3.954   1.434   0.538
 3001SOL    HW1 9023   3.928   1.530   0.538
 3001SOL    HW2 9024   3.883   1.380   0.583
 3002SOL     OW 9025   3.964   1.091   0.886
 3002SOL    HW1 9026   3.978   1.007   0.938
 3002SOL    HW2 9027   3.909   1.155   0.941
 3003SOL     OW 9028   4.344   1.786   1.439
 3003SOL    HW1 9029   4.252   1.769   1.474
 3003SOL    HW2 9030   4.372   1.878   1.465
 3004SOL     OW 9031   4.330   0.964   0.123
 3004SOL    HW1 9032   4.337   1.048   0.069
 3004SOL    HW2 9033   4.376   0.977   0.211
 3005SOL     OW 9034   3.846   0.643   0.563
 3005SOL    HW1 9035   3.801   0.555   0.580
 3005SOL    HW2 9036   3.845   0.697   0.647
 3006SOL     OW 9037   3.751   1.596   0.117
 3006SOL    HW1 9038   3.732   1.500   0.138
 3006SOL    HW2 9039   3.718   1.654   0.192
 3007SOL     OW 9040   3.837   0.737   1.597
 3007SOL    HW1 9041   3.925   0.724   1.642
 3007SOL    HW2 9042   3.824   0.834   1.575
 3008SOL     OW 9043   4.337   1.365   0.726
 3008SOL    HW1 9044   4.288   1.278   0.735
 3008SOL    HW2 9045   4.314   1.408   0.639
 3009SOL     OW 9046   4.533   0.004   0.502
 3009SOL    HW1 9047   4.573   0.095   0.493
 3009SOL    HW2 9048   4.433   0.012   0.508
 3010SOL     OW 9049   3.921   0.976   1.264
 3010SOL    HW1 9050   4.010   0.931   1.250
 3010SOL    HW2 9051   3.848   0.911   1.245
 3011SOL     OW 9052   4.041   0.251   1.801
 3011SOL    HW1 9053   4.112   0.322   1.807
 3011SOL    HW2 9054   3.953   0.290   1.829
 3012SOL     OW 9055   4.322   0.729   0.270
 3012SOL    HW1 9056   4.346   0.798   0.202
 3012SOL    HW2 9057   4.244   0.762   0.324
 3013SOL     OW 9058   4.531   0.605   1.465
 3013SOL    HW1 9059   4.484   0.602   1.554
 3013SOL    HW2 9060   4.480   0.550   1.399
 3014SOL     OW 9061   4.697   0.890   1.572
 3014SOL    HW1 9062   4.743   0.806   1.543
 3014SOL    HW2 9063   4.641   0.924   1.497
 3015SOL     OW 9064   4.715   0.410   1.242
 3015SOL    HW1 9065   4.638   0.444   1.296
 3015SOL    HW2 9066   4.681   0.359   1.163
 3016SOL     OW 9067   4.765   0.701   0.429
 3016SOL    HW1 9068   4.791   0.697   0.525
 3016SOL    HW2 9069   4.680   0.650   0.415
 3017SOL     OW 9070   3.800   0.811   0.789
 3017SOL    HW1 9071   3.899   0.799   0.798
 3017SOL    HW2 9072   3.776   0.906   0.810
 3018SOL     OW 9073   3.854   1.821   1.571
 3018SOL    HW1 9074   3.844   1.806   1.670
 3018SOL    HW2 9075   3.768   1.857   1.535
 3019SOL     OW 9076   4.589   0.348   0.195
 3019SOL    HW1 9077   4.648   0.411   0.146
 3019SOL    HW2 9078   4.608   0.254   0.166
 3020SOL     OW 9079   4.274   0.196   0.885
 3020SOL    HW1 9080   4.269   0.191   0.985
 3020SOL    HW2 9081   4.276   0.292   0.856
 3021SOL     OW 9082   4.732   1.456   0.477
 3021SOL    HW1 9083   4.686   1.528   0.425
 3021SOL    HW2 9084   4.728   1.476   0.575
 3022SOL     OW 9085   4.075   1.801   0.853
 3022SOL    HW1 9086   4.125   1.715   0.859
 3022SOL    HW2 9087   4.140   1.878   0.850
 3023SOL     OW 9088   4.951   1.550   1.506
 3023SOL    HW1 9089   4.957   1.473   1.570
 3023SOL    HW2 9090   4.899   1.524   1.426
 3024SOL     OW 9091   4.045   0.943   0.242
 3024SOL    HW1 9092   4.127   0.982   0.200
 3024SOL    HW2 9093   4.018   0.861   0.193
 3025SOL     OW 9094   4.185   1.266   1.727
 3025SOL    HW1 9095   4.135   1.267   1.641
 3025SOL    HW2 9096   4.122   1.248   1.803
 3026SOL     OW 9097   3.926   0.285   1.498
 3026SOL    HW1 9098   3.846   0.345   1.485
 3026SOL    HW2 9099   3.916   0.236   1.584
 3027SOL     OW 9100   4.188   1.743   0.323
 3027SOL    HW1 9101   4.221   1.782   0.409
 3027SOL    HW2 9102   4.264   1.736   0.258
 3028SOL     OW 9103   3.973   1.785   1.241
 3028SOL    HW1 9104   4.030   1.720   1.291
 3028SOL    HW2 9105   3.957   1.752   1.148
 3029SOL     OW 9106   4.664   1.698   0.904
 3029SOL    HW1 9107   4.744   1.641   0.925
 3029SOL    HW2 9108   4.615   1.658   0.827
 3030SOL     OW 9109   4.106   0.700   0.480
 3030SOL    HW1 9110   4.151   0.610   0.477
 3030SOL    HW2 9111   4.012   0.689   0.513
 3031SOL     OW 9112   4.338   0.122   0.117
 3031SOL    HW1 9113   4.436   0.100   0.124
 3031SOL    HW2 9114   4.307   0.105   0.024
 3032SOL     OW 9115   4.505   0.264   1.749
 3032SOL    HW1 9116   4.572   0.203   1.792
 3032SOL    HW2 9117   4.432   0.283   1.814
 3033SOL     OW 9118   4.612   1.514   1.195
 3033SOL    HW1 9119   4.589   1.489   1.101
 3033SOL    HW2 9120   4.673   1.445   1.234
 3034SOL     OW 9121   4.527   1.402   0.924
 3034SOL    HW1 9122   4.617   1.416   0.882
 3034SOL    HW2 9123   4.456   1.404   0.853
 3035SOL     OW 9124   4.646   0.503   0.899
 3035SOL    HW1 9125   4.621   0.494   0.803
 3035SOL    HW2 9126   4.694   0.421   0.930
 3036SOL     OW 9127   4.263   0.064   0.512
 3036SOL    HW1 9128   4.182   0.065   0.570
 3036SOL    HW2 9129   4.266   0.147   0.457
 3037SOL     OW 9130   5.158   1.188   0.041
 3037SOL    HW1 9131   5.190   1.112   0.098
 3037SOL    HW2 9132   5.066   1.215   0.071
 3038SOL     OW 9133   4.021   0.035   0.171
 3038SOL    HW1 9134   4.070   0.119   0.150
 3038SOL    HW2 9135   4.083  -0.030   0.216
 3039SOL     OW 9136   4.659   0.236   0.480
 3039SOL    HW1 9137   4.611   0.277   0.402
 3039SOL    HW2 9138   4.758   0.234   0.461
 3040SOL     OW 9139   4.800   0.683   1.464
 3040SOL    HW1 9140   4.720   0.622   1.467
 3040SOL    HW2 9141   4.881   0.630   1.440
 3041SOL     OW 9142   4.951   1.570   0.793
 3041SOL    HW1 9143   4.972   1.644   0.728
 3041SOL    HW2 9144   5.019   1.570   0.866
 3042SOL     OW 9145   4.183   1.152   0.741
 3042SOL    HW1 9146   4.112   1.125   0.806
 3042SOL    HW2 9147   4.157   1.124   0.648
 3043SOL     OW 9148   4.995   1.797   0.591
 3043SOL    HW1 9149   5.039   1.861   0.527
 3043SOL    HW2 9150   4.945   1.849   0.661
 3044SOL     OW 9151   4.756   0.549   0.016
 3044SOL    HW1 9152   4.715   0.631  -0.023
 3044SOL    HW2 9153   4.820   0.575   0.089
 3045SOL     OW 9154   3.802   0.556   1.386
 3045SOL    HW1 9155   3.894   0.555   1.345
 3045SOL    HW2 9156   3.796   0.630   1.453
 3046SOL     OW 9157   4.285   0.222   1.147
 3046SOL    HW1 9158   4.323   0.138   1.184
 3046SOL    HW2 9159   4.197   0.241   1.191
 3047SOL     OW 9160   4.590   0.454   0.642
 3047SOL    HW1 9161   4.558   0.526   0.580
 3047SOL    HW2 9162   4.614   0.373   0.589
 3048SOL     OW 9163   4.741   0.039   0.753
 3048SOL    HW1 9164   4.669   0.044   0.684
 3048SOL    HW2 9165   4.717  -0.030   0.822
 3049SOL     OW 9166   4.212   1.385   0.174
 3049SOL    HW1 9167   4.125   1.370   0.221
 3049SOL    HW2 9168   4.195   1.411   0.079
 3050SOL     OW 9169   4.251   0.256   0.328
 3050SOL    HW1 9170   4.278   0.197   0.253
 3050SOL    HW2 9171   4.251   0.351   0.297
 3051SOL     OW 9172   4.788   1.347   1.340
 3051SOL    HW1 9173   4.708   1.324   1.395
 3051SOL    HW2 9174   4.871   1.321   1.389
 3052SOL     OW 9175   4.835   1.195   1.100
 3052SOL    HW1 9176   4.795   1.239   1.181
 3052SOL    HW2 9177   4.794   1.232   1.017
 3053SOL     OW 9178   4.639   0.089   1.402
 3053SOL    HW1 9179   4.664   0.069   1.307
 3053SOL    HW2 9180   4.711   0.145   1.444
 3054SOL     OW 9181   4.704   1.116   1.719
 3054SOL    HW1 9182   4.605   1.122   1.729
 3054SOL    HW2 9183   4.727   1.036   1.663
 3055SOL     OW 9184   4.429   1.050   0.368
 3055SOL    HW1 9185   4.415   1.057   0.467
 3055SOL    HW2 9186   4.513   0.999   0.350
 3056SOL     OW 9187   4.134   0.813   1.251
 3056SOL    HW1 9188   4.220   0.825   1.301
 3056SOL    HW2 9189   4.092   0.726   1.278
 3057SOL     OW 9190   3.788   1.564   1.331
 3057SOL    HW1 9191   3.742   1.646   1.297
 3057SOL    HW2 9192   3.886   1.583   1.340
 3058SOL     OW 9193   4.091   1.100   0.501
 3058SOL    HW1 9194   4.084   1.183   0.445
 3058SOL    HW2 9195   4.095   1.020   0.441
 3059SOL     OW 9196   4.290   0.537   0.865
 3059SOL    HW1 9197   4.302   0.603   0.791
 3059SOL    HW2 9198   4.336   0.571   0.948
 3060SOL     OW 9199   4.976   1.348   0.388
 3060SOL    HW1 9200   5.026   1.425   0.428
 3060SOL    HW2 9201   4.881   1.350   0.420
 3061SOL     OW 9202   4.078   1.510   1.329
 3061SOL    HW1 9203   4.057   1.466   1.242
 3061SOL    HW2 9204   4.175   1.536   1.332
 3062SOL     OW 9205   4.126   0.751   1.598
 3062SOL    HW1 9206   4.194   0.806   1.551
 3062SOL    HW2 9207   4.166   0.663   1.625
 3063SOL     OW 9208   4.737   0.105   1.770
 3063SOL    HW1 9209   4.743   0.190   1.718
 3063SOL    HW2 9210   4.769   0.029   1.713
 3064SOL     OW 9211   4.228   0.050   1.740
 3064SOL    HW1 9212   4.186  -0.007   1.670
 3064SOL    HW2 9213   4.162   0.119   1.772
 3065SOL     OW 9214   4.297   0.870   1.029
 3065SOL    HW1 9215   4.341   0.959   1.020
 3065SOL    HW2 9216   4.234   0.870   1.106
 3066SOL     OW 9217   5.084   0.862   1.045
 3066SOL    HW1 9218   5.009   0.862   0.979
 3066SOL    HW2 9219   5.121   0.770   1.054
 3067SOL     OW 9220   4.933   0.525   0.275
 3067SOL    HW1 9221   4.946   0.441   0.329
 3067SOL    HW2 9222   4.904   0.599   0.335
 3068SOL     OW 9223   4.031   0.213   1.231
 3068SOL    HW1 9224   4.008   0.250   1.321
 3068SOL    HW2 9225   4.001   0.118   1.225
 3069SOL     OW 9226   3.761   1.310   1.282
 3069SOL    HW1 9227   3.814   1.261   1.350
 3069SOL    HW2 9228   3.783   1.408   1.287
 3070SOL     OW 9229   4.456   0.634   1.064
 3070SOL    HW1 9230   4.515   0.608   0.988
 3070SOL    HW2 9231   4.428   0.730   1.053
 3071SOL     OW 9232   4.031   0.063   0.618
 3071SOL    HW1 9233   4.020   0.157   0.651
 3071SOL    HW2 9234   4.026   0.000   0.695
 3072SOL     OW 9235   4.747   0.766   0.966
 3072SOL    HW1 9236   4.762   0.787   1.062
 3072SOL    HW2 9237   4.717   0.671   0.957
 3073SOL     OW 9238   4.704   1.573   1.700
 3073SOL    HW1 9239   4.684   1.617   1.612
 3073SOL    HW2 9240   4.743   1.482   1.684
 3074SOL     OW 9241   4.074   0.898   1.804
 3074SOL    HW1 9242   4.150   0.942   1.852
 3074SOL    HW2 9243   4.109   0.851   1.722
 3075SOL     OW 9244   4.792   1.333   0.849
 3075SOL    HW1 9245   4.799   1.249   0.794
 3075SOL    HW2 9246   4.854   1.402   0.813
 3076SOL     OW 9247   4.043   0.810   0.949
 3076SOL    HW1 9248   4.136   0.846   0.954
 3076SOL    HW2 9249   4.037   0.725   1.001
 3077SOL     OW 9250   4.063   0.509   1.006
 3077SOL    HW1 9251   4.011   0.426   0.989
 3077SOL    HW2 9252   4.140   0.514   0.942
 3078SOL     OW 9253   4.862   0.380   1.678
 3078SOL    HW1 9254   4.817   0.443   1.742
 3078SOL    HW2 9255   4.955   0.411   1.661
 3079SOL     OW 9256   4.884   0.207   1.477
 3079SOL    HW1 9257   4.884   0.271   1.554
 3079SOL    HW2 9258   4.912   0.255   1.394
 3080SOL     OW 9259   3.732   1.326   0.200
 3080SOL    HW1 9260   3.639   1.347   0.169
 3080SOL    HW2 9261   3.742   1.227   0.213
 3081SOL     OW 9262   3.812   1.801   0.927
 3081SOL    HW1 9263   3.770   1.715   0.900
 3081SOL    HW2 9264   3.906   1.804   0.893
 3082SOL     OW 9265   4.228   1.568   0.910
 3082SOL    HW1 9266   4.294   1.642   0.919
 3082SOL    HW2 9267   4.272   1.489   0.868
 3083SOL     OW 9268   4.726   0.796   1.238
 3083SOL    HW1 9269   4.767   0.764   1.324
 3083SOL    HW2 9270   4.630   0.769   1.235
 3084SOL     OW 9271   3.764   0.544   1.114
 3084SOL    HW1 9272   3.849   0.511   1.073
 3084SOL    HW2 9273   3.777   0.559   1.212
 3085SOL     OW 9274   3.913   0.520   1.722
 3085SOL    HW1 9275   3.972   0.480   1.652
 3085SOL    HW2 9276   3.855   0.591   1.681
 3086SOL     OW 9277   4.539   0.572   0.325
 3086SOL    HW1 9278   4.546   0.483   0.279
 3086SOL    HW2 9279   4.445   0.606   0.317
 3087SOL     OW 9280   3.976   1.564   1.744
 3087SOL    HW1 9281   3.946   1.621   1.820
 3087SOL    HW2 9282   3.969   1.467   1.770
 3088SOL     OW 9283   4.395   0.464   1.269
 3088SOL    HW1 9284   4.361   0.375   1.239
 3088SOL    HW2 9285   4.421   0.518   1.189
 3089SOL     OW 9286   4.654   1.678   1.465
 3089SOL    HW1 9287   4.630   1.660   1.370
 3089SOL    HW2 9288   4.684   1.772   1.475
 3090SOL     OW 9289   4.197   0.500   0.191
 3090SOL    HW1 9290   4.258   0.580   0.195
 3090SOL    HW2 9291   4.102   0.531   0.198
 3091SOL     OW 9292   3.883   1.137   1.466
 3091SOL    HW1 9293   3.905   1.076   1.542
 3091SOL    HW2 9294   3.893   1.088   1.380
 3092SOL     OW 9295   5.026   0.855   0.309
 3092SOL    HW1 9296   4.940   0.824   0.351
 3092SOL    HW2 9297   5.022   0.841   0.210
 3093SOL     OW 9298   4.976   1.731   1.128
 3093SOL    HW1 9299   5.060   1.736   1.074
 3093SOL    HW2 9300   4.953   1.635   1.146
 3094SOL     OW 9301   3.807   1.258   1.022
 3094SOL    HW1 9302   3.802   1.257   1.122
 3094SOL    HW2 9303   3.724   1.217   0.984
 3095SOL     OW 9304   4.412   1.662   1.716
 3095SOL    HW1 9305   4.356   1.743   1.725
 3095SOL    HW2 9306   4.464   1.666   1.630
 3096SOL     OW 9307   4.627   0.086   0.133
 3096SOL    HW1 9308   4.678   0.087   0.047
 3096SOL    HW2 9309   4.683   0.044   0.204
 3097SOL     OW 9310   3.854   1.794   1.851
 3097SOL    HW1 9311   3.813   1.720   1.904
 3097SOL    HW2 9312   3.918   1.845   1.909
 3098SOL     OW 9313   4.554   1.273   1.422
 3098SOL    HW1 9314   4.549   1.306   1.517
 3098SOL    HW2 9315   4.468   1.292   1.376
 3099SOL     OW 9316   4.396   1.616   0.154
 3099SOL    HW1 9317   4.405   1.626   0.055
 3099SOL    HW2 9318   4.356   1.527   0.175
 3100SOL     OW 9319   3.987   0.326   0.720
 3100SOL    HW1 9320   3.908   0.377   0.686
 3100SOL    HW2 9321   3.978   0.311   0.818
 3101SOL     OW 9322   4.546   1.002   1.372
 3101SOL    HW1 9323   4.586   1.001   1.280
 3101SOL    HW2 9324   4.556   1.094   1.412
 3102SOL     OW 9325   4.640   0.910   0.291
 3102SOL    HW1 9326   4.703   0.948   0.223
 3102SOL    HW2 9327   4.680   0.827   0.330
 3103SOL     OW 9328   4.096   1.288   1.490
 3103SOL    HW1 9329   4.083   1.381   1.456
 3103SOL    HW2 9330   4.012   1.236   1.477
 3104SOL     OW 9331   4.763   1.098   0.696
 3104SOL    HW1 9332   4.693   1.051   0.750
 3104SOL    HW2 9333   4.822   1.030   0.653
 3105SOL     OW 9334   4.738   0.236   0.971
 3105SOL    HW1 9335   4.730   0.200   0.878
 3105SOL    HW2 9336   4.736   0.160   1.036
 3106SOL     OW 9337   4.314   1.487   0.491
 3106SOL    HW1 9338   4.356   1.429   0.421
 3106SOL    HW2 9339   4.270   1.566   0.447
 3107SOL     OW 9340   3.979   1.348   0.290
 3107SOL    HW1 9341   3.883   1.349   0.263
 3107SOL    HW2 9342   3.991   1.401   0.374
 3108SOL     OW 9343   3.829   1.013   1.726
 3108SOL    HW1 9344   3.752   0.980   1.780
 3108SOL    HW2 9345   3.914   0.983   1.768
 3109SOL     OW 9346   4.396   0.203   1.489
 3109SOL    HW1 9347   4.486   0.187   1.449
 3109SOL    HW2 9348   4.404   0.208   1.588
 3110SOL     OW 9349   3.796   0.166   0.318
 3110SOL    HW1 9350   3.779   0.249   0.264
 3110SOL    HW2 9351   3.886   0.129   0.296
 3111SOL     OW 9352   4.337   0.842   1.431
 3111SOL    HW1 9353   4.393   0.923   1.414
 3111SOL    HW2 9354   4.396   0.762   1.434
 3112SOL     OW 9355   4.440   0.565   1.708
 3112SOL    HW1 9356   4.459   0.630   1.782
 3112SOL    HW2 9357   4.500   0.485   1.717
 3113SOL     OW 9358   4.114   1.741   1.560
 3113SOL    HW1 9359   4.023   1.782   1.558
 3113SOL    HW2 9360   4.107   1.647   1.592
 3114SOL     OW 9361   4.318   0.745   0.652
 3114SOL    HW1 9362   4.368   0.830   0.633
 3114SOL    HW2 9363   4.230   0.747   0.604
 3115SOL     OW 9364   4.583   1.374   0.016
 3115SOL    HW1 9365   4.537   1.389   0.104
 3115SOL    HW2 9366   4.627   1.459  -0.014
 3116SOL     OW 9367   4.385   1.790   0.953
 3116SOL    HW1 9368   4.339   1.878   0.940
 3116SOL    HW2 9369   4.484   1.802   0.946
 3117SOL     OW 9370   4.583   0.956   0.861
 3117SOL    HW1 9371   4.637   0.887   0.909
 3117SOL    HW2 9372   4.551   1.025   0.927
 3118SOL     OW 9373   4.807   0.984   0.087
 3118SOL    HW1 9374   4.784   1.037   0.005
 3118SOL    HW2 9375   4.888   0.928   0.068
 3119SOL     OW 9376   3.945   1.314   1.844
 3119SOL    HW1 9377   3.880   1.241   1.823
 3119SOL    HW2 9378   3.949   1.328   1.942
 3120SOL     OW 9379   3.803   1.240   0.653
 3120SOL    HW1 9380   3.802   1.193   0.741
 3120SOL    HW2 9381   3.885   1.212   0.602
 3121SOL     OW 9382   4.396   1.391   1.624
 3121SOL    HW1 9383   4.318   1.341   1.662
 3121SOL    HW2 9384   4.393   1.486   1.655
 3122SOL     OW 9385   4.152   0.424   0.520
 3122SOL    HW1 9386   4.182   0.352   0.458
 3122SOL    HW2 9387   4.113   0.384   0.603
 3123SOL     OW 9388   4.041   0.547   1.280
 3123SOL    HW1 9389   4.079   0.488   1.352
 3123SOL    HW2 9390   4.081   0.521   1.192
 3124SOL     OW 9391   4.536   1.586   0.687
 3124SOL    HW1 9392   4.568   1.596   0.593
 3124SOL    HW2 9393   4.457   1.524   0.689
 3125SOL     OW 9394   4.725   0.034   1.154
 3125SOL    HW1 9395   4.662  -0.038   1.123
 3125SOL    HW2 9396   4.818  -0.002   1.154
 3126SOL     OW 9397   4.494   1.330   0.301
 3126SOL    HW1 9398   4.448   1.243   0.318
 3126SOL    HW2 9399   4.585   1.327   0.342
 3127SOL     OW 9400   4.342   1.567   1.284
 3127SOL    HW1 9401   4.337   1.649   1.341
 3127SOL    HW2 9402   4.431   1.564   1.239
 3128SOL     OW 9403   3.763   1.077   0.300
 3128SOL    HW1 9404   3.862   1.066   0.291
 3128SOL    HW2 9405   3.723   0.991   0.332
 3129SOL     OW 9406   4.599   1.646   0.337
 3129SOL    HW1 9407   4.522   1.611   0.283
 3129SOL    HW2 9408   4.567   1.717   0.399
 3130SOL     OW 9409   3.954   0.628   1.975
 3130SOL    HW1 9410   3.861   0.626   2.012
 3130SOL    HW2 9411   3.955   0.589   1.883
 3131SOL     OW 9412   3.949   0.275   2.858
 3131SOL    HW1 9413   3.984   0.258   2.950
 3131SOL    HW2 9414   3.861   0.230   2.846
 3132SOL     OW 9415   3.743   0.368   2.509
 3132SOL    HW1 9416   3.661   0.411   2.548
 3132SOL    HW2 9417   3.715   0.295   2.446
 3133SOL     OW 9418   4.293   1.275   3.027
 3133SOL    HW1 9419   4.200   1.268   2.990
 3133SOL    HW2 9420   4.304   1.364   3.071
 3134SOL     OW 9421   4.492   1.144   2.885
 3134SOL    HW1 9422   4.414   1.161   2.945
 3134SOL    HW2 9423   4.526   1.231   2.849
 3135SOL     OW 9424   4.574   0.798   3.685
 3135SOL    HW1 9425   4.570   0.874   3.750
 3135SOL    HW2 9426   4.596   0.834   3.594
 3136SOL     OW 9427   4.409   1.012   2.527
 3136SOL    HW1 9428   4.478   0.996   2.597
 3136SOL    HW2 9429   4.336   1.069   2.565
 3137SOL     OW 9430   4.410   1.161   3.665
 3137SOL    HW1 9431   4.470   1.240   3.679
 3137SOL    HW2 9432   4.324   1.192   3.624
 3138SOL     OW 9433   4.059   1.435   2.923
 3138SOL    HW1 9434   3.981   1.404   2.870
 3138SOL    HW2 9435   4.117   1.493   2.866
 3139SOL     OW 9436   4.162   0.392   3.361
 3139SOL    HW1 9437   4.244   0.336   3.370
 3139SOL    HW2 9438   4.081   0.334   3.365
 3140SOL     OW 9439   3.955   1.713   2.345
 3140SOL    HW1 9440   3.989   1.790   2.399
 3140SOL    HW2 9441   3.999   1.713   2.255
 3141SOL     OW 9442   4.851   1.341   3.552
 3141SOL    HW1 9443   4.898   1.341   3.640
 3141SOL    HW2 9444   4.803   1.254   3.541
 3142SOL     OW 9445   3.954   1.434   2.400
 3142SOL    HW1 9446   3.928   1.530   2.400
 3142SOL    HW2 9447   3.883   1.380   2.445
 3143SOL     OW 9448   3.964   1.091   2.748
 3143SOL    HW1 9449   3.978   1.007   2.800
 3143SOL    HW2 9450   3.909   1.155   2.803
 3144SOL     OW 9451   4.344   1.786   3.301
 3144SOL    HW1 9452   4.252   1.769   3.336
 3144SOL    HW2 9453   4.372   1.878   3.327
 3145SOL     OW 9454   4.330   0.964   1.985
 3145SOL    HW1 9455   4.337   1.048   1.931
 3145SOL    HW2 9456   4.376   0.977   2.073
 3146SOL     OW 9457   3.846   0.643   2.425
 3146SOL    HW1 9458   3.801   0.555   2.442
 3146SOL    HW2 9459   3.845   0.697   2.509
 3147SOL     OW 9460   3.751   1.596   1.979
 3147SOL    HW1 9461   3.732   1.500   2.000
 3147SOL    HW2 9462   3.718   1.654   2.054
 3148SOL     OW 9463   3.837   0.737   3.459
 3148SOL    HW1 9464   3.925   0.724   3.504
 3148SOL    HW2 9465   3.824   0.834   3.437
 3149SOL     OW 9466   4.337   1.365   2.588
 3149SOL    HW1 9467   4.288   1.278   2.597
 3149SOL    HW2 9468   4.314   1.408   2.501
 3150SOL     OW 9469   4.533   0.004   2.364
 3150SOL    HW1 9470   4.573   0.095   2.355
 3150SOL    HW2 9471   4.433   0.012   2.370
 3151SOL     OW 9472   3.921   0.976   3.126
 3151SOL    HW1 9473   4.010   0.931   3.112
 3151SOL    HW2 9474   3.848   0.911   3.107
 3152SOL     OW 9475   4.041   0.251   3.663
 3152SOL    HW1 9476   4.112   0.322   3.669
 3152SOL    HW2 9477   3.953   0.290   3.691
 3153SOL     OW 9478   4.322   0.729   2.132
 3153SOL    HW1 9479   4.346   0.798   2.064
 3153SOL    HW2 9480   4.244   0.762   2.186
 3154SOL     OW 9481   4.531   0.605   3.327
 3154SOL    HW1 9482   4.484   0.602   3.416
 3154SOL    HW2 9483   4.480   0.550   3.261
 3155SOL     OW 9484   4.697   0.890   3.434
 3155SOL    HW1 9485   4.743   0.806   3.405
 3155SOL    HW2 9486   4.641   0.924   3.359
 3156SOL     OW 9487   4.715   0.410   3.104
 3156SOL    HW1 9488   4.638   0.444   3.158
 3156SOL    HW2 9489   4.681   0.359   3.025
 3157SOL     OW 9490   4.765   0.701   2.291
 3157SOL    HW1 9491   4.791   0.697   2.387
 3157SOL    HW2 9492   4.680   0.650   2.277
 3158SOL     OW 9493   3.800   0.811   2.651
 3158SOL    HW1 9494   3.899   0.799   2.660
 3158SOL    HW2 9495   3.776   0.906   2.672
 3159SOL     OW 9496   3.854   1.821   3.433
 3159SOL    HW1 9497   3.844   1.806   3.532
 3159SOL    HW2 9498   3.768   1.857   3.397
 3160SOL     OW 9499   4.589   0.348   2.057
 3160SOL    HW1 9500   4.648   0.411   2.008
 3160SOL    HW2 9501   4.608   0.254   2.028
 3161SOL     OW 9502   4.274   0.196   2.747
 3161SOL    HW1 9503   4.269   0.191   2.847
 3161SOL    HW2 9504   4.276   0.292   2.718
 3162SOL     OW 9505   4.732   1.456   2.339
 3162SOL    HW1 9506   4.686   1.528   2.287
 3162SOL    HW2 9507   4.728   1.476   2.437
 3163SOL     OW 9508   4.075   1.801   2.715
 3163SOL    HW1 9509   4.125   1.715   2.721
 3163SOL    HW2 9510   4.140   1.878   2.712
 3164SOL     OW 9511   4.951   1.550   3.368
 3164SOL    HW1 9512   4.957   1.473   3.432
 3164SOL    HW2 9513   4.899   1.524   3.288
 3165SOL     OW 9514   4.045   0.943   2.104
 3165SOL    HW1 9515   4.127   0.982   2.062
 3165SOL    HW2 9516   4.018   0.861   2.055
 3166SOL     OW 9517   4.185   1.266   3.589
 3166SOL    HW1 9518   4.135   1.267   3.503
 3166SOL    HW2 9519   4.122   1.248   3.665
 3167SOL     OW 9520   3.926   0.285   3.360
 3167SOL    HW1 9521   3.846   0.345   3.347
 3167SOL    HW2 9522   3.916   0.236   3.446
 3168SOL     OW 9523   4.188   1.743   2.185
 3168SOL    HW1 9524   4.221   1.782   2.271
 3168SOL    HW2 9525   4.264   1.736   2.120
 3169SOL     OW 9526   3.973   1.785   3.103
 3169SOL    HW1 9527   4.030   1.720   3.153
 3169SOL    HW2 9528   3.957   1.752   3.010
 3170SOL     OW 9529   4.664   1.698   2.766
 3170SOL    HW1 9530   4.744   1.641   2.787
 3170SOL    HW2 9531   4.615   1.658   2.689
 3171SOL     OW 9532   4.106   0.700   2.342
 3171SOL    HW1 9533   4.151   0.610   2.339
 3171SOL    HW2 9534   4.012   0.689   2.375
 3172SOL     OW 9535   4.338   0.122   1.979
 3172SOL    HW1 9536   4.436   0.100   1.986
 3172SOL    HW2 9537   4.307   0.105   1.886
 3173SOL     OW 9538   4.505   0.264   3.611
 3173SOL    HW1 9539   4.572   0.203   3.654
 3173SOL    HW2 9540   4.432   0.283   3.676
 3174SOL     OW 9541   4.612   1.514   3.057
 3174SOL    HW1 9542   4.589   1.489   2.963
 3174SOL    HW2 9543   4.673   1.445   3.096
 3175SOL     OW 9544   4.527   1.402   2.786
 3175SOL    HW1 9545   4.617   1.416   2.744
 3175SOL    HW2 9546   4.456   1.404   2.715
 3176SOL     OW 9547   4.646   0.503   2.761
 3176SOL    HW1 9548   4.621   0.494   2.665
 3176SOL    HW2 9549   4.694   0.421   2.792
 3177SOL     OW 9550   4.263   0.064   2.374
 3177SOL    HW1 9551   4.182   0.065   2.432
 3177SOL    HW2 9552   4.266   0.147   2.319
 3178SOL     OW 9553   4.021   0.035   2.033
 3178SOL    HW1 9554   4.070   0.119   2.012
 3178SOL    HW2 9555   4.083  -0.030   2.078
 3179SOL     OW 9556   4.659   0.236   2.342
 3179SOL    HW1 9557   4.611   0.277   2.264
 3179SOL    HW2 9558   4.758   0.234   2.323
 3180SOL     OW 9559   4.800   0.683   3.326
 3180SOL    HW1 9560   4.720   0.622   3.329
 3180SOL    HW2 9561   4.881   0.630   3.302
 3181SOL     OW 9562   4.951   1.570   2.655
 3181SOL    HW1 9563   4.972   1.644   2.590
 3181SOL    HW2 9564   5.019   1.570   2.728
 3182SOL     OW 9565   4.183   1.152   2.603
 3182SOL    HW1 9566   4.112   1.125   2.668
 3182SOL    HW2 9567   4.157   1.124   2.510
 3183SOL     OW 9568   4.995   1.797   2.453
 3183SOL    HW1 9569   5.039   1.861   2.389
 3183SOL    HW2 9570   4.945   1.849   2.523
 3184SOL     OW 9571   4.756   0.549   1.878
 3184SOL    HW1 9572   4.715   0.631   1.839
 3184SOL    HW2 9573   4.820   0.575   1.951
 3185SOL     OW 9574   3.802   0.556   3.248
 3185SOL    HW1 9575   3.894   0.555   3.207
 3185SOL    HW2 9576   3.796   0.630   3.315
 3186SOL     OW 9577   4.285   0.222   3.009
 3186SOL    HW1 9578   4.323   0.138   3.046
 3186SOL    HW2 9579   4.197   0.241   3.053
 3187SOL     OW 9580   4.590   0.454   2.504
 3187SOL    HW1 9581   4.558   0.526   2.442
 3187SOL    HW2 9582   4.614   0.373   2.451
 3188SOL     OW 9583   4.741   0.039   2.615
 3188SOL    HW1 9584   4.669   0.044   2.546
 3188SOL    HW2 9585   4.717  -0.030   2.684
 3189SOL     OW 9586   4.212   1.385   2.036
 3189SOL    HW1 9587   4.125   1.370   2.083
 3189SOL    HW2 9588   4.195   1.411   1.941
 3190SOL     OW 9589   4.251   0.256   2.190
 3190SOL    HW1 9590   4.278   0.197   2.115
 3190SOL    HW2 9591   4.251   0.351   2.159
 3191SOL     OW 9592   4.788   1.347   3.202
 3191SOL    HW1 9593   4.708   1.324   3.257
 3191SOL    HW2 9594   4.871   1.321   3.251
 3192SOL     OW 9595   4.835   1.195   2.962
 3192SOL    HW1 9596   4.795   1.239   3.043
 3192SOL    HW2 9597   4.794   1.232   2.879
 3193SOL     OW 9598   4.639   0.089   3.264
 3193SOL    HW1 9599   4.664   0.069   3.169
 3193SOL    HW2 9600   4.711   0.145   3.306
 3194SOL     OW 9601   4.704   1.116   3.581
 3194SOL    HW1 9602   4.605   1.122   3.591
 3194SOL    HW2 9603   4.727   1.036   3.525
 3195SOL     OW 9604   4.429   1.050   2.230
 3195SOL    HW1 9605   4.415   1.057   2.329
 3195SOL    HW2 9606   4.513   0.999   2.212
 3196SOL     OW 9607   4.134   0.813   3.113
 3196SOL    HW1 9608   4.220   0.825   3.163
 3196SOL    HW2 9609   4.092   0.726   3.140
 3197SOL     OW 9610   3.788   1.564   3.193
 3197SOL    HW1 9611   3.742   1.646   3.159
 3197SOL    HW2 9612   3.886   1.583   3.202
 3198SOL     OW 9613   4.091   1.100   2.363
 3198SOL    HW1 9614   4.084   1.183   2.307
 3198SOL    HW2 9615   4.095   1.020   2.303
 3199SOL     OW 9616   4.290   0.537   2.727
 3199SOL    HW1 9617   4.302   0.603   2.653
 3199SOL    HW2 9618   4.336   0.571   2.810
 3200SOL     OW 9619   4.976   1.348   2.250
 3200SOL    HW1 9620   5.026   1.425   2.290
 3200SOL    HW2 9621   4.881   1.350   2.282
 3201SOL     OW 9622   4.078   1.510   3.191
 3201SOL    HW1 9623   4.057   1.466   3.104
 3201SOL    HW2 9624   4.175   1.536   3.194
 3202SOL     OW 9625   4.126   0.751   3.460
 3202SOL    HW1 9626   4.194   0.806   3.413
 3202SOL    HW2 9627   4.166   0.663   3.487
 3203SOL     OW 9628   4.737   0.105   3.632
 3203SOL    HW1 9629   4.743   0.190   3.580
 3203SOL    HW2 9630   4.769   0.029   3.575
 3204SOL     OW 9631   4.228   0.050   3.602
 3204SOL    HW1 9632   4.186  -0.007   3.532
 3204SOL    HW2 9633   4.162   0.119   3.634
 3205SOL     OW 9634   4.297   0.870   2.891
 3205SOL    HW1 9635   4.341   0.959   2.882
 3205SOL    HW2 9636   4.234   0.870   2.968
 3206SOL     OW 9637   5.084   0.862   2.907
 3206SOL    HW1 9638   5.009   0.862   2.841
 3206SOL    HW2 9639   5.121   0.770   2.916
 3207SOL     OW 9640   4.933   0.525   2.137
 3207SOL    HW1 9641   4.946   0.441   2.191
 3207SOL    HW2 9642   4.904   0.599   2.197
 3208SOL     OW 9643   4.031   0.213   3.093
 3208SOL    HW1 9644   4.008   0.250   3.183
 3208SOL    HW2 9645   4.001   0.118   3.087
 3209SOL     OW 9646   3.761   1.310   3.144
 3209SOL    HW1 9647   3.814   1.261   3.212
 3209SOL    HW2 9648   3.783   1.408   3.149
 3210SOL     OW 9649   4.456   0.634   2.926
 3210SOL    HW1 9650   4.515   0.608   2.850
 3210SOL    HW2 9651   4.428   0.730   2.915
 3211SOL     OW 9652   4.031   0.063   2.480
 3211SOL    HW1 9653   4.020   0.157   2.513
 3211SOL    HW2 9654   4.026   0.000   2.557
 3212SOL     OW 9655   4.747   0.766   2.828
 3212SOL    HW1 9656   4.762   0.787   2.924
 3212SOL    HW2 9657   4.717   0.671   2.819
 3213SOL     OW 9658   4.704   1.573   3.562
 3213SOL    HW1 9659   4.684   1.617   3.474
 3213SOL    HW2 9660   4.743   1.482   3.546
 3214SOL     OW 9661   4.074   0.898   3.666
 3214SOL    HW1 9662   4.150   0.942   3.714
 3214SOL    HW2 9663   4.109   0.851   3.584
 3215SOL     OW 9664   4.792   1.333   2.711
 3215SOL    HW1 9665   4.799   1.249   2.656
 3215SOL    HW2 9666   4.854   1.402   2.675
 3216SOL     OW 9667   4.043   0.810   2.811
 3216SOL    HW1 9668   4.136   0.846   2.816
 3216SOL    HW2 9669   4.037   0.725   2.863
 3217SOL     OW 9670   4.063   0.509   2.868
 3217SOL    HW1 9671   4.011   0.426   2.851
 3217SOL    HW2 9672   4.140   0.514   2.804
 3218SOL     OW 9673   4.862   0.380   3.540
 3218SOL    HW1 9674   4.817   0.443   3.604
 3218SOL    HW2 9675   4.955   0.411   3.523
 3219SOL     OW 9676   4.884   0.207   3.339
 3219SOL    HW1 9677   4.884   0.271   3.416
 3219SOL    HW2 9678   4.912   0.255   3.256
 3220SOL     OW 9679   3.732   1.326   2.062
 3220SOL    HW1 9680   3.639   1.347   2.031
 3220SOL    HW2 9681   3.742   1.227   2.075
 3221SOL     OW 9682   3.812   1.801   2.789
 3221SOL    HW1 9683   3.770   1.715   2.762
 3221SOL    HW2 9684   3.906   1.804   2.755
 3222SOL     OW 9685   4.228   1.568   2.772
 3222SOL    HW1 9686   4.294   1.642   2.781
 3222SOL    HW2 9687   4.272   1.489   2.730
 3223SOL     OW 9688   4.726   0.796   3.100
 3223SOL    HW1 9689   4.767   0.764   3.186
 3223SOL    HW2 9690   4.630   0.769   3.097
 3224SOL     OW 9691   3.764   0.544   2.976
 3224SOL    HW1 9692   3.849   0.511   2.935
 3224SOL    HW2 9693   3.777   0.559   3.074
 3225SOL     OW 9694   3.913   0.520   3.584
 3225SOL    HW1 9695   3.972   0.480   3.514
 3225SOL    HW2 9696   3.855   0.591   3.543
 3226SOL     OW 9697   4.539   0.572   2.187
 3226SOL    HW1 9698   4.546   0.483   2.141
 3226SOL    HW2 9699   4.445   0.606   2.179
 3227SOL     OW 9700   3.976   1.564   3.606
 3227SOL    HW1 9701   3.946   1.621   3.682
 3227SOL    HW2 9702   3.969   1.467   3.632
 3228SOL     OW 9703   4.395   0.464   3.131
 3228SOL    HW1 9704   4.361   0.375   3.101
 3228SOL    HW2 9705   4.421   0.518   3.051
 3229SOL     OW 9706   4.654   1.678   3.327
 3229SOL    HW1 9707   4.630   1.660   3.232
 3229SOL    HW2 9708   4.684   1.772   3.337
 3230SOL     OW 9709   4.197   0.500   2.053
 3230SOL    HW1 9710   4.258   0.580   2.057
 3230SOL    HW2 9711   4.102   0.531   2.060
 3231SOL     OW 9712   3.883   1.137   3.328
 3231SOL    HW1 9713   3.905   1.076   3.404
 3231SOL    HW2 9714   3.893   1.088   3.242
 3232SOL     OW 9715   5.026   0.855   2.171
 3232SOL    HW1 9716   4.940   0.824   2.213
 3232SOL    HW2 9717   5.022   0.841   2.072
 3233SOL     OW 9718   4.976   1.731   2.990
 3233SOL    HW1 9719   5.060   1.736   2.936
 3233SOL    HW2 9720   4.953   1.635   3.008
 3234SOL     OW 9721   3.807   1.258   2.884
 3234SOL    HW1 9722   3.802   1.257   2.984
 3234SOL    HW2 9723   3.724   1.217   2.846
 3235SOL     OW 9724   4.412   1.662   3.578
 3235SOL    HW1 9725   4.356   1.743   3.587
 3235SOL    HW2 9726   4.464   1.666   3.492
 3236SOL     OW 9727   3.854   1.794   3.713
 3236SOL    HW1 9728   3.813   1.720   3.766
 3236SOL    HW2 9729   3.918   1.845   3.771
 3237SOL     OW 9730   4.554   1.273   3.284
 3237SOL    HW1 9731   4.549   1.306   3.379
 3237SOL    HW2 9732   4.468   1.292   3.238
 3238SOL     OW 9733   4.396   1.616   2.016
 3238SOL    HW1 9734   4.405   1.626   1.917
 3238SOL    HW2 9735   4.356   1.527   2.037
 3239SOL     OW 9736   3.987   0.326   2.582
 3239SOL    HW1 9737   3.908   0.377   2.548
 3239SOL    HW2 9738   3.978   0.311   2.680
 3240SOL     OW 9739   4.546   1.002   3.234
 3240SOL    HW1 9740   4.586   1.001   3.142
 3240SOL    HW2 9741   4.556   1.094   3.274
 3241SOL     OW 9742   4.640   0.910   2.153
 3241SOL    HW1 9743   4.703   0.948   2.085
 3241SOL    HW2 9744   4.680   0.827   2.192
 3242SOL     OW 9745   4.096   1.288   3.352
 3242SOL    HW1 9746   4.083   1.381   3.318
 3242SOL    HW2 9747   4.012   1.236   3.339
 3243SOL     OW 9748   4.763   1.098   2.558
 3243SOL    HW1 9749   4.693   1.051   2.612
 3243SOL    HW2 9750   4.822   1.030   2.515
 3244SOL     OW 9751   4.738   0.236   2.833
 3244SOL    HW1 9752   4.730   0.200   2.740
 3244SOL    HW2 9753   4.736   0.160   2.898
 3245SOL     OW 9754   4.314   1.487   2.353
 3245SOL    HW1 9755   4.356   1.429   2.283
 3245SOL    HW2 9756   4.270   1.566   2.309
 3246SOL     OW 9757   3.979   1.348   2.152
 3246SOL    HW1 9758   3.883   1.349   2.125
 3246SOL    HW2 9759   3.991   1.401   2.236
 3247SOL     OW 9760   3.829   1.013   3.588
 3247SOL    HW1 9761   3.752   0.980   3.642
 3247SOL    HW2 9762   3.914   0.983   3.630
 3248SOL     OW 9763   4.396   0.203   3.351
 3248SOL    HW1 9764   4.486   0.187   3.311
 3248SOL    HW2 9765   4.404   0.208   3.450
 3249SOL     OW 9766   3.799   0.345   1.895
 3249SOL    HW1 9767   3.707   0.317   1.866
 3249SOL    HW2 9768   3.830   0.422   1.839
 3250SOL     OW 9769   3.796   0.166   2.180
 3250SOL    HW1 9770   3.779   0.249   2.126
 3250SOL    HW2 9771   3.886   0.129   2.158
 3251SOL     OW 9772   4.337   0.842   3.293
 3251SOL    HW1 9773   4.393   0.923   3.276
 3251SOL    HW2 9774   4.396   0.762   3.296
 3252SOL     OW 9775   4.440   0.565   3.570
 3252SOL    HW1 9776   4.459   0.630   3.644
 3252SOL    HW2 9777   4.500   0.485   3.579
 3253SOL     OW 9778   4.114   1.741   3.422
 3253SOL    HW1 9779   4.023   1.782   3.420
 3253SOL    HW2 9780   4.107   1.647   3.454
 3254SOL     OW 9781   4.318   0.745   2.514
 3254SOL    HW1 9782   4.368   0.830   2.495
 3254SOL    HW2 9783   4.230   0.747   2.466
 3255SOL     OW 9784   4.583   1.374   1.878
 3255SOL    HW1 9785   4.537   1.389   1.966
 3255SOL    HW2 9786   4.627   1.459   1.848
 3256SOL     OW 9787   4.385   1.790   2.815
 3256SOL    HW1 9788   4.339   1.878   2.802
 3256SOL    HW2 9789   4.484   1.802   2.808
 3257SOL     OW 9790   4.583   0.956   2.723
 3257SOL    HW1 9791   4.637   0.887   2.771
 3257SOL    HW2 9792   4.551   1.025   2.789
 3258SOL     OW 9793   4.807   0.984   1.949
 3258SOL    HW1 9794   4.784   1.037   1.867
 3258SOL    HW2 9795   4.888   0.928   1.930
 3259SOL     OW 9796   3.945   1.314   3.706
 3259SOL    HW1 9797   3.880   1.241   3.685
 3259SOL    HW2 9798   3.949   1.328   3.804
 3260SOL     OW 9799   3.803   1.240   2.515
 3260SOL    HW1 9800   3.802   1.193   2.603
 3260SOL    HW2 9801   3.885   1.212   2.464
 3261SOL     OW 9802   4.396   1.391   3.486
 3261SOL    HW1 9803   4.318   1.341   3.524
 3261SOL    HW2 9804   4.393   1.486   3.517
 3262SOL     OW 9805   4.152   0.424   2.382
 3262SOL    HW1 9806   4.182   0.352   2.320
 3262SOL    HW2 9807   4.113   0.384   2.465
 3263SOL     OW 9808   4.041   0.547   3.142
 3263SOL    HW1 9809   4.079   0.488   3.214
 3263SOL    HW2 9810   4.081   0.521   3.054
 3264SOL     OW 9811   4.536   1.586   2.549
 3264SOL    HW1 9812   4.568   1.596   2.455
 3264SOL    HW2 9813   4.457   1.524   2.551
 3265SOL     OW 9814   4.725   0.034   3.016
 3265SOL    HW1 9815   4.662  -0.038   2.985
 3265SOL    HW2 9816   4.818  -0.002   3.016
 3266SOL     OW 9817   4.494   1.330   2.163
 3266SOL    HW1 9818   4.448   1.243   2.180
 3266SOL    HW2 9819   4.585   1.327   2.204
 3267SOL     OW 9820   4.342   1.567   3.146
 3267SOL    HW1 9821   4.337   1.649   3.203
 3267SOL    HW2 9822   4.431   1.564   3.101
 3268SOL     OW 9823   3.763   1.077   2.162
 3268SOL    HW1 9824   3.862   1.066   2.153
 3268SOL    HW2 9825   3.723   0.991   2.194
 3269SOL     OW 9826   4.599   1.646   2.199
 3269SOL    HW1 9827   4.522   1.611   2.145
 3269SOL    HW2 9828   4.567   1.717   2.261
 3270SOL     OW 9829   3.954   0.628   3.837
 3270SOL    HW1 9830   3.861   0.626   3.874
 3270SOL    HW2 9831   3.955   0.589   3.745
 3271SOL     OW 9832   3.949   0.275   4.720
 3271SOL    HW1 9833   3.984   0.258   4.812
 3271SOL    HW2 9834   3.861   0.230   4.708
 3272SOL     OW 9835   3.743   0.368   4.371
 3272SOL    HW1 9836   3.661   0.411   4.410
 3272SOL    HW2 9837   3.715   0.295   4.308
 3273SOL     OW 9838   4.293   1.275   4.889
 3273SOL    HW1 9839   4.200   1.268   4.852
 3273SOL    HW2 9840   4.304   1.364   4.933
 3274SOL     OW 9841   4.492   1.144   4.747
 3274SOL    HW1 9842   4.414   1.161   4.807
 3274SOL    HW2 9843   4.526   1.231   4.711
 3275SOL     OW 9844   4.409   1.012   4.389
 3275SOL    HW1 9845   4.478   0.996   4.459
 3275SOL    HW2 9846   4.336   1.069   4.427
 3276SOL     OW 9847   4.059   1.435   4.785
 3276SOL    HW1 9848   3.981   1.404   4.732
 3276SOL    HW2 9849   4.117   1.493   4.728
 3277SOL     OW 9850   3.955   1.713   4.207
 3277SOL    HW1 9851   3.989   1.790   4.261
 3277SOL    HW2 9852   3.999   1.713   4.117
 3278SOL     OW 9853   3.954   1.434   4.262
 3278SOL    HW1 9854   3.928   1.530   4.262
 3278SOL    HW2 9855   3.883   1.380   4.307
 3279SOL     OW 9856   3.964   1.091   4.610
 3279SOL    HW1 9857   3.978   1.007   4.662
 3279SOL    HW2 9858   3.909   1.155   4.665
 3280SOL     OW 9859   4.330   0.964   3.847
 3280SOL    HW1 9860   4.337   1.048   3.793
 3280SOL    HW2 9861   4.376   0.977   3.935
 3281SOL     OW 9862   3.846   0.643   4.287
 3281SOL    HW1 9863   3.801   0.555   4.304
 3281SOL    HW2 9864   3.845   0.697   4.371
 3282SOL     OW 9865   3.751   1.596   3.841
 3282SOL    HW1 9866   3.732   1.500   3.862
 3282SOL    HW2 9867   3.718   1.654   3.916
 3283SOL     OW 9868   4.337   1.365   4.450
 3283SOL    HW1 9869   4.288   1.278   4.459
 3283SOL    HW2 9870   4.314   1.408   4.363
 3284SOL     OW 9871   4.533   0.004   4.226
 3284SOL    HW1 9872   4.573   0.095   4.217
 3284SOL    HW2 9873   4.433   0.012   4.232
 3285SOL     OW 9874   3.921   0.976   4.988
 3285SOL    HW1 9875   4.010   0.931   4.974
 3285SOL    HW2 9876   3.848   0.911   4.969
 3286SOL     OW 9877   4.322   0.729   3.994
 3286SOL    HW1 9878   4.346   0.798   3.926
 3286SOL    HW2 9879   4.244   0.762   4.048
 3287SOL     OW 9880   4.765   0.701   4.153
 3287SOL    HW1 9881   4.791   0.697   4.249
 3287SOL    HW2 9882   4.680   0.650   4.139
 3288SOL     OW 9883   3.800   0.811   4.513
 3288SOL    HW1 9884   3.899   0.799   4.522
 3288SOL    HW2 9885   3.776   0.906   4.534
 3289SOL     OW 9886   4.589   0.348   3.919
 3289SOL    HW1 9887   4.648   0.411   3.870
 3289SOL    HW2 9888   4.608   0.254   3.890
 3290SOL     OW 9889   4.274   0.196   4.609
 3290SOL    HW1 9890   4.269   0.191   4.709
 3290SOL    HW2 9891   4.276   0.292   4.580
 3291SOL     OW 9892   4.732   1.456   4.201
 3291SOL    HW1 9893   4.686   1.528   4.149
 3291SOL    HW2 9894   4.728   1.476   4.299
 3292SOL     OW 9895   4.075   1.801   4.577
 3292SOL    HW1 9896   4.125   1.715   4.583
 3292SOL    HW2 9897   4.140   1.878   4.574
 3293SOL     OW 9898   4.045   0.943   3.966
 3293SOL    HW1 9899   4.127   0.982   3.924
 3293SOL    HW2 9900   4.018   0.861   3.917
 3294SOL     OW 9901   4.188   1.743   4.047
 3294SOL    HW1 9902   4.221   1.782   4.133
 3294SOL    HW2 9903   4.264   1.736   3.982
 3295SOL     OW 9904   3.973   1.785   4.965
 3295SOL    HW1 9905   4.030   1.720   5.015
 3295SOL    HW2 9906   3.957   1.752   4.872
 3296SOL     OW 9907   4.664   1.698   4.628
 3296SOL    HW1 9908   4.744   1.641   4.649
 3296SOL    HW2 9909   4.615   1.658   4.551
 3297SOL     OW 9910   4.106   0.700   4.204
 3297SOL    HW1 9911   4.151   0.610   4.201
 3297SOL    HW2 9912   4.012   0.689   4.237
 3298SOL     OW 9913   4.338   0.122   3.841
 3298SOL    HW1 9914   4.436   0.100   3.848
 3298SOL    HW2 9915   4.307   0.105   3.748
 3299SOL     OW 9916   4.527   1.402   4.648
 3299SOL    HW1 9917   4.617   1.416   4.606
 3299SOL    HW2 9918   4.456   1.404   4.577
 3300SOL     OW 9919   4.646   0.503   4.623
 3300SOL    HW1 9920   4.621   0.494   4.527
 3300SOL    HW2 9921   4.694   0.421   4.654
 3301SOL     OW 9922   4.263   0.064   4.236
 3301SOL    HW1 9923   4.182   0.065   4.294
 3301SOL    HW2 9924   4.266   0.147   4.181
 3302SOL     OW 9925   4.021   0.035   3.895
 3302SOL    HW1 9926   4.070   0.119   3.874
 3302SOL    HW2 9927   4.083  -0.030   3.940
 3303SOL     OW 9928   4.659   0.236   4.204
 3303SOL    HW1 9929   4.611   0.277   4.126
 3303SOL    HW2 9930   4.758   0.234   4.185
 3304SOL     OW 9931   4.951   1.570   4.517
 3304SOL    HW1 9932   4.972   1.644   4.452
 3304SOL    HW2 9933   5.019   1.570   4.590
 3305SOL     OW 9934   4.183   1.152   4.465
 3305SOL    HW1 9935   4.112   1.125   4.530
 3305SOL    HW2 9936   4.157   1.124   4.372
 3306SOL     OW 9937   4.995   1.797   4.315
 3306SOL    HW1 9938   5.039   1.861   4.251
 3306SOL    HW2 9939   4.945   1.849   4.385
 3307SOL     OW 9940   4.756   0.549   3.740
 3307SOL    HW1 9941   4.715   0.631   3.701
 3307SOL    HW2 9942   4.820   0.575   3.813
 3308SOL     OW 9943   4.590   0.454   4.366
 3308SOL    HW1 9944   4.558   0.526   4.304
 3308SOL    HW2 9945   4.614   0.373   4.313
 3309SOL     OW 9946   4.741   0.039   4.477
 3309SOL    HW1 9947   4.669   0.044   4.408
 3309SOL    HW2 9948   4.717  -0.030   4.546
 3310SOL     OW 9949   4.212   1.385   3.898
 3310SOL    HW1 9950   4.125   1.370   3.945
 3310SOL    HW2 9951   4.195   1.411   3.803
 3311SOL     OW 9952   4.251   0.256   4.052
 3311SOL    HW1 9953   4.278   0.197   3.977
 3311SOL    HW2 9954   4.251   0.351   4.021
 3312SOL     OW 9955   4.835   1.195   4.824
 3312SOL    HW1 9956   4.795   1.239   4.905
 3312SOL    HW2 9957   4.794   1.232   4.741
 3313SOL     OW 9958   4.429   1.050   4.092
 3313SOL    HW1 9959   4.415   1.057   4.191
 3313SOL    HW2 9960   4.513   0.999   4.074
 3314SOL     OW 9961   4.134   0.813   4.975
 3314SOL    HW1 9962   4.220   0.825   5.025
 3314SOL    HW2 9963   4.092   0.726   5.002
 3315SOL     OW 9964   4.091   1.100   4.225
 3315SOL    HW1 9965   4.084   1.183   4.169
 3315SOL    HW2 9966   4.095   1.020   4.165
 3316SOL     OW 9967   4.290   0.537   4.589
 3316SOL    HW1 9968   4.302   0.603   4.515
 3316SOL    HW2 9969   4.336   0.571   4.672
 3317SOL     OW 9970   4.976   1.348   4.112
 3317SOL    HW1 9971   5.026   1.425   4.152
 3317SOL    HW2 9972   4.881   1.350   4.144
 3318SOL     OW 9973   4.996   1.445   4.866
 3318SOL    HW1 9974   5.043   1.458   4.953
 3318SOL    HW2 9975   4.930   1.371   4.875
 3319SOL     OW 9976   4.297   0.870   4.753
 3319SOL    HW1 9977   4.341   0.959   4.744
 3319SOL    HW2 9978   4.234   0.870   4.830
 3320SOL     OW 9979   5.084   0.862   4.769
 3320SOL    HW1 9980   5.009   0.862   4.703
 3320SOL    HW2 9981   5.121   0.770   4.778
 3321SOL     OW 9982   4.933   0.525   3.999
 3321SOL    HW1 9983   4.946   0.441   4.053
 3321SOL    HW2 9984   4.904   0.599   4.059
 3322SOL     OW 9985   4.031   0.213   4.955
 3322SOL    HW1 9986   4.008   0.250   5.045
 3322SOL    HW2 9987   4.001   0.118   4.949
 3323SOL     OW 9988   4.456   0.634   4.788
 3323SOL    HW1 9989   4.515   0.608   4.712
 3323SOL    HW2 9990   4.428   0.730   4.777
 3324SOL     OW 9991   4.031   0.063   4.342
 3324SOL    HW1 9992   4.020   0.157   4.375
 3324SOL    HW2 9993   4.026   0.000   4.419
 3325SOL     OW 9994   4.747   0.766   4.690
 3325SOL    HW1 9995   4.762   0.787   4.786
 3325SOL    HW2 9996   4.717   0.671   4.681
 3326SOL     OW 9997   4.792   1.333   4.573
 3326SOL    HW1 9998   4.799   1.249   4.518
 3326SOL    HW2 9999   4.854   1.402   4.537
 3327SOL     OW10000   4.043   0.810   4.673
 3327SOL    HW110001   4.136   0.846   4.678
 3327SOL    HW210002   4.037   0.725   4.725
 3328SOL     OW10003   4.063   0.509   4.730
 3328SOL    HW110004   4.011   0.426   4.713
 3328SOL    HW210005   4.140   0.514   4.666
 3329SOL     OW10006   3.732   1.326   3.924
 3329SOL    HW110007   3.639   1.347   3.893
 3329SOL    HW210008   3.742   1.227   3.937
 3330SOL     OW10009   3.812   1.801   4.651
 3330SOL    HW110010   3.770   1.715   4.624
 3330SOL    HW210011   3.906   1.804   4.617
 3331SOL     OW10012   4.228   1.568   4.634
 3331SOL    HW110013   4.294   1.642   4.643
 3331SOL    HW210014   4.272   1.489   4.592
 3332SOL     OW10015   4.726   0.796   4.962
 3332SOL    HW110016   4.767   0.764   5.048
 3332SOL    HW210017   4.630   0.769   4.959
 3333SOL     OW10018   3.764   0.544   4.838
 3333SOL    HW110019   3.849   0.511   4.797
 3333SOL    HW210020   3.777   0.559   4.936
 3334SOL     OW10021   4.539   0.572   4.049
 3334SOL    HW110022   4.546   0.483   4.003
 3334SOL    HW210023   4.445   0.606   4.041
 3335SOL     OW10024   4.395   0.464   4.993
 3335SOL    HW110025   4.361   0.375   4.963
 3335SOL    HW210026   4.421   0.518   4.913
 3336SOL     OW10027   4.197   0.500   3.915
 3336SOL    HW110028   4.258   0.580   3.919
 3336SOL    HW210029   4.102   0.531   3.922
 3337SOL     OW10030   5.026   0.855   4.033
 3337SOL    HW110031   4.940   0.824   4.075
 3337SOL    HW210032   5.022   0.841   3.934
 3338SOL     OW10033   4.976   1.731   4.852
 3338SOL    HW110034   5.060   1.736   4.798
 3338SOL    HW210035   4.953   1.635   4.870
 3339SOL     OW10036   3.807   1.258   4.746
 3339SOL    HW110037   3.802   1.257   4.846
 3339SOL    HW210038   3.724   1.217   4.708
 3340SOL     OW10039   4.396   1.616   3.878
 3340SOL    HW110040   4.405   1.626   3.779
 3340SOL    HW210041   4.356   1.527   3.899
 3341SOL     OW10042   3.987   0.326   4.444
 3341SOL    HW110043   3.908   0.377   4.410
 3341SOL    HW210044   3.978   0.311   4.542
 3342SOL     OW10045   4.546   1.002   5.096
 3342SOL    HW110046   4.586   1.001   5.004
 3342SOL    HW210047   4.556   1.094   5.136
 3343SOL     OW10048   4.640   0.910   4.015
 3343SOL    HW110049   4.703   0.948   3.947
 3343SOL    HW210050   4.680   0.827   4.054
 3344SOL     OW10051   4.763   1.098   4.420
 3344SOL    HW110052   4.693   1.051   4.474
 3344SOL    HW210053   4.822   1.030   4.377
 3345SOL     OW10054   4.738   0.236   4.695
 3345SOL    HW110055   4.730   0.200   4.602
 3345SOL    HW210056   4.736   0.160   4.760
 3346SOL     OW10057   4.314   1.487   4.215
 3346SOL    HW110058   4.356   1.429   4.145
 3346SOL    HW210059   4.270   1.566   4.171
 3347SOL     OW10060   3.979   1.348   4.014
 3347SOL    HW110061   3.883   1.349   3.987
 3347SOL    HW210062   3.991   1.401   4.098
 3348SOL     OW10063   3.799   0.345   3.757
 3348SOL    HW110064   3.707   0.317   3.728
 3348SOL    HW210065   3.830   0.422   3.701
 3349SOL     OW10066   3.796   0.166   4.042
 3349SOL    HW110067   3.779   0.249   3.988
 3349SOL    HW210068   3.886   0.129   4.020
 3350SOL     OW10069   4.318   0.745   4.376
 3350SOL    HW110070   4.368   0.830   4.357
 3350SOL    HW210071   4.230   0.747   4.328
 3351SOL     OW10072   4.583   1.374   3.740
 3351SOL    HW110073   4.537   1.389   3.828
 3351SOL    HW210074   4.627   1.459   3.710
 3352SOL     OW10075   4.385   1.790   4.677
 3352SOL    HW110076   4.339   1.878   4.664
 3352SOL    HW210077   4.484   1.802   4.670
 3353SOL     OW10078   4.583   0.956   4.585
 3353SOL    HW110079   4.637   0.887   4.633
 3353SOL    HW210080   4.551   1.025   4.651
 3354SOL     OW10081   4.807   0.984   3.811
 3354SOL    HW110082   4.784   1.037   3.729
 3354SOL    HW210083   4.888   0.928   3.792
 3355SOL     OW10084   3.803   1.240   4.377
 3355SOL    HW110085   3.802   1.193   4.465
 3355SOL    HW210086   3.885   1.212   4.326
 3356SOL     OW10087   4.152   0.424   4.244
 3356SOL    HW110088   4.182   0.352   4.182
 3356SOL    HW210089   4.113   0.384   4.327
 3357SOL     OW10090   4.536   1.586   4.411
 3357SOL    HW110091   4.568   1.596   4.317
 3357SOL    HW210092   4.457   1.524   4.413
 3358SOL     OW10093   4.494   1.330   4.025
 3358SOL    HW110094   4.448   1.243   4.042
 3358SOL    HW210095   4.585   1.327   4.066
 3359SOL     OW10096   3.763   1.077   4.024
 3359SOL    HW110097   3.862   1.066   4.015
 3359SOL    HW210098   3.723   0.991   4.056
 3360SOL     OW10099   4.599   1.646   4.061
 3360SOL    HW110100   4.522   1.611   4.007
 3360SOL    HW210101   4.567   1.717   4.123
 3361SOL     OW10102   3.954   2.490   0.113
 3361SOL    HW110103   3.861   2.488   0.150
 3361SOL    HW210104   3.955   2.451   0.021
 3362SOL     OW10105   3.949   2.137   0.996
 3362SOL    HW110106   3.984   2.120   1.088
 3362SOL    HW210107   3.861   2.092   0.984
 3363SOL     OW10108   3.743   2.230   0.647
 3363SOL    HW110109   3.661   2.273   0.686
 3363SOL    HW210110   3.715   2.157   0.584
 3364SOL     OW10111   4.293   3.137   1.165
 3364SOL    HW110112   4.200   3.130   1.128
 3364SOL    HW210113   4.304   3.226   1.209
 3365SOL     OW10114   4.492   3.006   1.023
 3365SOL    HW110115   4.414   3.023   1.083
 3365SOL    HW210116   4.526   3.093   0.987
 3366SOL     OW10117   4.574   2.660   1.823
 3366SOL    HW110118   4.570   2.736   1.888
 3366SOL    HW210119   4.596   2.696   1.732
 3367SOL     OW10120   4.409   2.874   0.665
 3367SOL    HW110121   4.478   2.858   0.735
 3367SOL    HW210122   4.336   2.931   0.703
 3368SOL     OW10123   4.410   3.023   1.803
 3368SOL    HW110124   4.470   3.102   1.817
 3368SOL    HW210125   4.324   3.054   1.762
 3369SOL     OW10126   4.059   3.297   1.061
 3369SOL    HW110127   3.981   3.266   1.008
 3369SOL    HW210128   4.117   3.355   1.004
 3370SOL     OW10129   4.162   2.254   1.499
 3370SOL    HW110130   4.244   2.198   1.508
 3370SOL    HW210131   4.081   2.196   1.503
 3371SOL     OW10132   3.955   3.575   0.483
 3371SOL    HW110133   3.989   3.652   0.537
 3371SOL    HW210134   3.999   3.575   0.393
 3372SOL     OW10135   4.851   3.203   1.690
 3372SOL    HW110136   4.898   3.203   1.778
 3372SOL    HW210137   4.803   3.116   1.679
 3373SOL     OW10138   3.954   3.296   0.538
 3373SOL    HW110139   3.928   3.392   0.538
 3373SOL    HW210140   3.883   3.242   0.583
 3374SOL     OW10141   3.964   2.953   0.886
 3374SOL    HW110142   3.978   2.869   0.938
 3374SOL    HW210143   3.909   3.017   0.941
 3375SOL     OW10144   4.344   3.648   1.439
 3375SOL    HW110145   4.252   3.631   1.474
 3375SOL    HW210146   4.372   3.740   1.465
 3376SOL     OW10147   4.330   2.826   0.123
 3376SOL    HW110148   4.337   2.910   0.069
 3376SOL    HW210149   4.376   2.839   0.211
 3377SOL     OW10150   3.846   2.505   0.563
 3377SOL    HW110151   3.801   2.417   0.580
 3377SOL    HW210152   3.845   2.559   0.647
 3378SOL     OW10153   3.751   3.458   0.117
 3378SOL    HW110154   3.732   3.362   0.138
 3378SOL    HW210155   3.718   3.516   0.192
 3379SOL     OW10156   3.837   2.599   1.597
 3379SOL    HW110157   3.925   2.586   1.642
 3379SOL    HW210158   3.824   2.696   1.575
 3380SOL     OW10159   4.337   3.227   0.726
 3380SOL    HW110160   4.288   3.140   0.735
 3380SOL    HW210161   4.314   3.270   0.639
 3381SOL     OW10162   4.533   1.866   0.502
 3381SOL    HW110163   4.573   1.957   0.493
 3381SOL    HW210164   4.433   1.874   0.508
 3382SOL     OW10165   3.921   2.838   1.264
 3382SOL    HW110166   4.010   2.793   1.250
 3382SOL    HW210167   3.848   2.773   1.245
 3383SOL     OW10168   4.041   2.113   1.801
 3383SOL    HW110169   4.112   2.184   1.807
 3383SOL    HW210170   3.953   2.152   1.829
 3384SOL     OW10171   4.322   2.591   0.270
 3384SOL    HW110172   4.346   2.660   0.202
 3384SOL    HW210173   4.244   2.624   0.324
 3385SOL     OW10174   4.531   2.467   1.465
 3385SOL    HW110175   4.484   2.464   1.554
 3385SOL    HW210176   4.480   2.412   1.399
 3386SOL     OW10177   4.697   2.752   1.572
 3386SOL    HW110178   4.743   2.668   1.543
 3386SOL    HW210179   4.641   2.786   1.497
 3387SOL     OW10180   4.715   2.272   1.242
 3387SOL    HW110181   4.638   2.306   1.296
 3387SOL    HW210182   4.681   2.221   1.163
 3388SOL     OW10183   4.765   2.563   0.429
 3388SOL    HW110184   4.791   2.559   0.525
 3388SOL    HW210185   4.680   2.512   0.415
 3389SOL     OW10186   3.800   2.673   0.789
 3389SOL    HW110187   3.899   2.661   0.798
 3389SOL    HW210188   3.776   2.768   0.810
 3390SOL     OW10189   3.854   3.683   1.571
 3390SOL    HW110190   3.844   3.668   1.670
 3390SOL    HW210191   3.768   3.719   1.535
 3391SOL     OW10192   4.589   2.210   0.195
 3391SOL    HW110193   4.648   2.273   0.146
 3391SOL    HW210194   4.608   2.116   0.166
 3392SOL     OW10195   4.274   2.058   0.885
 3392SOL    HW110196   4.269   2.053   0.985
 3392SOL    HW210197   4.276   2.154   0.856
 3393SOL     OW10198   4.732   3.318   0.477
 3393SOL    HW110199   4.686   3.390   0.425
 3393SOL    HW210200   4.728   3.338   0.575
 3394SOL     OW10201   4.075   3.663   0.853
 3394SOL    HW110202   4.125   3.577   0.859
 3394SOL    HW210203   4.140   3.740   0.850
 3395SOL     OW10204   4.951   3.412   1.506
 3395SOL    HW110205   4.957   3.335   1.570
 3395SOL    HW210206   4.899   3.386   1.426
 3396SOL     OW10207   4.045   2.805   0.242
 3396SOL    HW110208   4.127   2.844   0.200
 3396SOL    HW210209   4.018   2.723   0.193
 3397SOL     OW10210   4.185   3.128   1.727
 3397SOL    HW110211   4.135   3.129   1.641
 3397SOL    HW210212   4.122   3.110   1.803
 3398SOL     OW10213   3.926   2.147   1.498
 3398SOL    HW110214   3.846   2.207   1.485
 3398SOL    HW210215   3.916   2.098   1.584
 3399SOL     OW10216   4.188   3.605   0.323
 3399SOL    HW110217   4.221   3.644   0.409
 3399SOL    HW210218   4.264   3.598   0.258
 3400SOL     OW10219   3.973   3.647   1.241
 3400SOL    HW110220   4.030   3.582   1.291
 3400SOL    HW210221   3.957   3.614   1.148
 3401SOL     OW10222   4.664   3.560   0.904
 3401SOL    HW110223   4.744   3.503   0.925
 3401SOL    HW210224   4.615   3.520   0.827
 3402SOL     OW10225   4.106   2.562   0.480
 3402SOL    HW110226   4.151   2.472   0.477
 3402SOL    HW210227   4.012   2.551   0.513
 3403SOL     OW10228   4.338   1.984   0.117
 3403SOL    HW110229   4.436   1.962   0.124
 3403SOL    HW210230   4.307   1.967   0.024
 3404SOL     OW10231   4.505   2.126   1.749
 3404SOL    HW110232   4.572   2.065   1.792
 3404SOL    HW210233   4.432   2.145   1.814
 3405SOL     OW10234   4.612   3.376   1.195
 3405SOL    HW110235   4.589   3.351   1.101
 3405SOL    HW210236   4.673   3.307   1.234
 3406SOL     OW10237   4.527   3.264   0.924
 3406SOL    HW110238   4.617   3.278   0.882
 3406SOL    HW210239   4.456   3.266   0.853
 3407SOL     OW10240   4.646   2.365   0.899
 3407SOL    HW110241   4.621   2.356   0.803
 3407SOL    HW210242   4.694   2.283   0.930
 3408SOL     OW10243   4.263   1.926   0.512
 3408SOL    HW110244   4.182   1.927   0.570
 3408SOL    HW210245   4.266   2.009   0.457
 3409SOL     OW10246   5.158   3.050   0.041
 3409SOL    HW110247   5.190   2.974   0.098
 3409SOL    HW210248   5.066   3.077   0.071
 3410SOL     OW10249   4.021   1.897   0.171
 3410SOL    HW110250   4.070   1.981   0.150
 3410SOL    HW210251   4.083   1.832   0.216
 3411SOL     OW10252   4.659   2.098   0.480
 3411SOL    HW110253   4.611   2.139   0.402
 3411SOL    HW210254   4.758   2.096   0.461
 3412SOL     OW10255   4.800   2.545   1.464
 3412SOL    HW110256   4.720   2.484   1.467
 3412SOL    HW210257   4.881   2.492   1.440
 3413SOL     OW10258   4.951   3.432   0.793
 3413SOL    HW110259   4.972   3.506   0.728
 3413SOL    HW210260   5.019   3.432   0.866
 3414SOL     OW10261   4.183   3.014   0.741
 3414SOL    HW110262   4.112   2.987   0.806
 3414SOL    HW210263   4.157   2.986   0.648
 3415SOL     OW10264   4.995   3.659   0.591
 3415SOL    HW110265   5.039   3.723   0.527
 3415SOL    HW210266   4.945   3.711   0.661
 3416SOL     OW10267   4.756   2.411   0.016
 3416SOL    HW110268   4.715   2.493  -0.023
 3416SOL    HW210269   4.820   2.437   0.089
 3417SOL     OW10270   3.802   2.418   1.386
 3417SOL    HW110271   3.894   2.417   1.345
 3417SOL    HW210272   3.796   2.492   1.453
 3418SOL     OW10273   4.285   2.084   1.147
 3418SOL    HW110274   4.323   2.000   1.184
 3418SOL    HW210275   4.197   2.103   1.191
 3419SOL     OW10276   4.590   2.316   0.642
 3419SOL    HW110277   4.558   2.388   0.580
 3419SOL    HW210278   4.614   2.235   0.589
 3420SOL     OW10279   4.741   1.901   0.753
 3420SOL    HW110280   4.669   1.906   0.684
 3420SOL    HW210281   4.717   1.832   0.822
 3421SOL     OW10282   4.212   3.247   0.174
 3421SOL    HW110283   4.125   3.232   0.221
 3421SOL    HW210284   4.195   3.273   0.079
 3422SOL     OW10285   4.251   2.118   0.328
 3422SOL    HW110286   4.278   2.059   0.253
 3422SOL    HW210287   4.251   2.213   0.297
 3423SOL     OW10288   4.788   3.209   1.340
 3423SOL    HW110289   4.708   3.186   1.395
 3423SOL    HW210290   4.871   3.183   1.389
 3424SOL     OW10291   4.835   3.057   1.100
 3424SOL    HW110292   4.795   3.101   1.181
 3424SOL    HW210293   4.794   3.094   1.017
 3425SOL     OW10294   4.639   1.951   1.402
 3425SOL    HW110295   4.664   1.931   1.307
 3425SOL    HW210296   4.711   2.007   1.444
 3426SOL     OW10297   4.704   2.978   1.719
 3426SOL    HW110298   4.605   2.984   1.729
 3426SOL    HW210299   4.727   2.898   1.663
 3427SOL     OW10300   4.429   2.912   0.368
 3427SOL    HW110301   4.415   2.919   0.467
 3427SOL    HW210302   4.513   2.861   0.350
 3428SOL     OW10303   4.134   2.675   1.251
 3428SOL    HW110304   4.220   2.687   1.301
 3428SOL    HW210305   4.092   2.588   1.278
 3429SOL     OW10306   3.788   3.426   1.331
 3429SOL    HW110307   3.742   3.508   1.297
 3429SOL    HW210308   3.886   3.445   1.340
 3430SOL     OW10309   4.091   2.962   0.501
 3430SOL    HW110310   4.084   3.045   0.445
 3430SOL    HW210311   4.095   2.882   0.441
 3431SOL     OW10312   4.290   2.399   0.865
 3431SOL    HW110313   4.302   2.465   0.791
 3431SOL    HW210314   4.336   2.433   0.948
 3432SOL     OW10315   4.976   3.210   0.388
 3432SOL    HW110316   5.026   3.287   0.428
 3432SOL    HW210317   4.881   3.212   0.420
 3433SOL     OW10318   4.078   3.372   1.329
 3433SOL    HW110319   4.057   3.328   1.242
 3433SOL    HW210320   4.175   3.398   1.332
 3434SOL     OW10321   4.126   2.613   1.598
 3434SOL    HW110322   4.194   2.668   1.551
 3434SOL    HW210323   4.166   2.525   1.625
 3435SOL     OW10324   4.737   1.967   1.770
 3435SOL    HW110325   4.743   2.052   1.718
 3435SOL    HW210326   4.769   1.891   1.713
 3436SOL     OW10327   4.228   1.912   1.740
 3436SOL    HW110328   4.186   1.855   1.670
 3436SOL    HW210329   4.162   1.981   1.772
 3437SOL     OW10330   4.297   2.732   1.029
 3437SOL    HW110331   4.341   2.821   1.020
 3437SOL    HW210332   4.234   2.732   1.106
 3438SOL     OW10333   5.084   2.724   1.045
 3438SOL    HW110334   5.009   2.724   0.979
 3438SOL    HW210335   5.121   2.632   1.054
 3439SOL     OW10336   4.933   2.387   0.275
 3439SOL    HW110337   4.946   2.303   0.329
 3439SOL    HW210338   4.904   2.461   0.335
 3440SOL     OW10339   4.031   2.075   1.231
 3440SOL    HW110340   4.008   2.112   1.321
 3440SOL    HW210341   4.001   1.980   1.225
 3441SOL     OW10342   3.761   3.172   1.282
 3441SOL    HW110343   3.814   3.123   1.350
 3441SOL    HW210344   3.783   3.270   1.287
 3442SOL     OW10345   4.456   2.496   1.064
 3442SOL    HW110346   4.515   2.470   0.988
 3442SOL    HW210347   4.428   2.592   1.053
 3443SOL     OW10348   4.031   1.925   0.618
 3443SOL    HW110349   4.020   2.019   0.651
 3443SOL    HW210350   4.026   1.862   0.695
 3444SOL     OW10351   4.747   2.628   0.966
 3444SOL    HW110352   4.762   2.649   1.062
 3444SOL    HW210353   4.717   2.533   0.957
 3445SOL     OW10354   4.704   3.435   1.700
 3445SOL    HW110355   4.684   3.479   1.612
 3445SOL    HW210356   4.743   3.344   1.684
 3446SOL     OW10357   4.074   2.760   1.804
 3446SOL    HW110358   4.150   2.804   1.852
 3446SOL    HW210359   4.109   2.713   1.722
 3447SOL     OW10360   4.792   3.195   0.849
 3447SOL    HW110361   4.799   3.111   0.794
 3447SOL    HW210362   4.854   3.264   0.813
 3448SOL     OW10363   4.043   2.672   0.949
 3448SOL    HW110364   4.136   2.708   0.954
 3448SOL    HW210365   4.037   2.587   1.001
 3449SOL     OW10366   4.063   2.371   1.006
 3449SOL    HW110367   4.011   2.288   0.989
 3449SOL    HW210368   4.140   2.376   0.942
 3450SOL     OW10369   4.862   2.242   1.678
 3450SOL    HW110370   4.817   2.305   1.742
 3450SOL    HW210371   4.955   2.273   1.661
 3451SOL     OW10372   4.884   2.069   1.477
 3451SOL    HW110373   4.884   2.133   1.554
 3451SOL    HW210374   4.912   2.117   1.394
 3452SOL     OW10375   3.732   3.188   0.200
 3452SOL    HW110376   3.639   3.209   0.169
 3452SOL    HW210377   3.742   3.089   0.213
 3453SOL     OW10378   3.812   3.663   0.927
 3453SOL    HW110379   3.770   3.577   0.900
 3453SOL    HW210380   3.906   3.666   0.893
 3454SOL     OW10381   4.228   3.430   0.910
 3454SOL    HW110382   4.294   3.504   0.919
 3454SOL    HW210383   4.272   3.351   0.868
 3455SOL     OW10384   4.726   2.658   1.238
 3455SOL    HW110385   4.767   2.626   1.324
 3455SOL    HW210386   4.630   2.631   1.235
 3456SOL     OW10387   3.764   2.406   1.114
 3456SOL    HW110388   3.849   2.373   1.073
 3456SOL    HW210389   3.777   2.421   1.212
 3457SOL     OW10390   3.913   2.382   1.722
 3457SOL    HW110391   3.972   2.342   1.652
 3457SOL    HW210392   3.855   2.453   1.681
 3458SOL     OW10393   4.539   2.434   0.325
 3458SOL    HW110394   4.546   2.345   0.279
 3458SOL    HW210395   4.445   2.468   0.317
 3459SOL     OW10396   3.976   3.426   1.744
 3459SOL    HW110397   3.946   3.483   1.820
 3459SOL    HW210398   3.969   3.329   1.770
 3460SOL     OW10399   4.395   2.326   1.269
 3460SOL    HW110400   4.361   2.237   1.239
 3460SOL    HW210401   4.421   2.380   1.189
 3461SOL     OW10402   4.654   3.540   1.465
 3461SOL    HW110403   4.630   3.522   1.370
 3461SOL    HW210404   4.684   3.634   1.475
 3462SOL     OW10405   4.197   2.362   0.191
 3462SOL    HW110406   4.258   2.442   0.195
 3462SOL    HW210407   4.102   2.393   0.198
 3463SOL     OW10408   3.883   2.999   1.466
 3463SOL    HW110409   3.905   2.938   1.542
 3463SOL    HW210410   3.893   2.950   1.380
 3464SOL     OW10411   5.026   2.717   0.309
 3464SOL    HW110412   4.940   2.686   0.351
 3464SOL    HW210413   5.022   2.703   0.210
 3465SOL     OW10414   4.976   3.593   1.128
 3465SOL    HW110415   5.060   3.598   1.074
 3465SOL    HW210416   4.953   3.497   1.146
 3466SOL     OW10417   3.807   3.120   1.022
 3466SOL    HW110418   3.802   3.119   1.122
 3466SOL    HW210419   3.724   3.079   0.984
 3467SOL     OW10420   4.412   3.524   1.716
 3467SOL    HW110421   4.356   3.605   1.725
 3467SOL    HW210422   4.464   3.528   1.630
 3468SOL     OW10423   4.627   1.948   0.133
 3468SOL    HW110424   4.678   1.949   0.047
 3468SOL    HW210425   4.683   1.906   0.204
 3469SOL     OW10426   3.854   3.656   1.851
 3469SOL    HW110427   3.813   3.582   1.904
 3469SOL    HW210428   3.918   3.707   1.909
 3470SOL     OW10429   4.554   3.135   1.422
 3470SOL    HW110430   4.549   3.168   1.517
 3470SOL    HW210431   4.468   3.154   1.376
 3471SOL     OW10432   4.396   3.478   0.154
 3471SOL    HW110433   4.405   3.488   0.055
 3471SOL    HW210434   4.356   3.389   0.175
 3472SOL     OW10435   3.987   2.188   0.720
 3472SOL    HW110436   3.908   2.239   0.686
 3472SOL    HW210437   3.978   2.173   0.818
 3473SOL     OW10438   4.546   2.864   1.372
 3473SOL    HW110439   4.586   2.863   1.280
 3473SOL    HW210440   4.556   2.956   1.412
 3474SOL     OW10441   4.640   2.772   0.291
 3474SOL    HW110442   4.703   2.810   0.223
 3474SOL    HW210443   4.680   2.689   0.330
 3475SOL     OW10444   4.096   3.150   1.490
 3475SOL    HW110445   4.083   3.243   1.456
 3475SOL    HW210446   4.012   3.098   1.477
 3476SOL     OW10447   4.763   2.960   0.696
 3476SOL    HW110448   4.693   2.913   0.750
 3476SOL    HW210449   4.822   2.892   0.653
 3477SOL     OW10450   4.738   2.098   0.971
 3477SOL    HW110451   4.730   2.062   0.878
 3477SOL    HW210452   4.736   2.022   1.036
 3478SOL     OW10453   4.314   3.349   0.491
 3478SOL    HW110454   4.356   3.291   0.421
 3478SOL    HW210455   4.270   3.428   0.447
 3479SOL     OW10456   3.979   3.210   0.290
 3479SOL    HW110457   3.883   3.211   0.263
 3479SOL    HW210458   3.991   3.263   0.374
 3480SOL     OW10459   3.829   2.875   1.726
 3480SOL    HW110460   3.752   2.842   1.780
 3480SOL    HW210461   3.914   2.845   1.768
 3481SOL     OW10462   4.396   2.065   1.489
 3481SOL    HW110463   4.486   2.049   1.449
 3481SOL    HW210464   4.404   2.070   1.588
 3482SOL     OW10465   3.796   2.028   0.318
 3482SOL    HW110466   3.779   2.111   0.264
 3482SOL    HW210467   3.886   1.991   0.296
 3483SOL     OW10468   4.337   2.704   1.431
 3483SOL    HW110469   4.393   2.785   1.414
 3483SOL    HW210470   4.396   2.624   1.434
 3484SOL     OW10471   4.440   2.427   1.708
 3484SOL    HW110472   4.459   2.492   1.782
 3484SOL    HW210473   4.500   2.347   1.717
 3485SOL     OW10474   4.114   3.603   1.560
 3485SOL    HW110475   4.023   3.644   1.558
 3485SOL    HW210476   4.107   3.509   1.592
 3486SOL     OW10477   4.318   2.607   0.652
 3486SOL    HW110478   4.368   2.692   0.633
 3486SOL    HW210479   4.230   2.609   0.604
 3487SOL     OW10480   4.583   3.236   0.016
 3487SOL    HW110481   4.537   3.251   0.104
 3487SOL    HW210482   4.627   3.321  -0.014
 3488SOL     OW10483   4.385   3.652   0.953
 3488SOL    HW110484   4.339   3.740   0.940
 3488SOL    HW210485   4.484   3.664   0.946
 3489SOL     OW10486   4.583   2.818   0.861
 3489SOL    HW110487   4.637   2.749   0.909
 3489SOL    HW210488   4.551   2.887   0.927
 3490SOL     OW10489   4.807   2.846   0.087
 3490SOL    HW110490   4.784   2.899   0.005
 3490SOL    HW210491   4.888   2.790   0.068
 3491SOL     OW10492   3.945   3.176   1.844
 3491SOL    HW110493   3.880   3.103   1.823
 3491SOL    HW210494   3.949   3.190   1.942
 3492SOL     OW10495   3.803   3.102   0.653
 3492SOL    HW110496   3.802   3.055   0.741
 3492SOL    HW210497   3.885   3.074   0.602
 3493SOL     OW10498   4.396   3.253   1.624
 3493SOL    HW110499   4.318   3.203   1.662
 3493SOL    HW210500   4.393   3.348   1.655
 3494SOL     OW10501   4.152   2.286   0.520
 3494SOL    HW110502   4.182   2.214   0.458
 3494SOL    HW210503   4.113   2.246   0.603
 3495SOL     OW10504   4.041   2.409   1.280
 3495SOL    HW110505   4.079   2.350   1.352
 3495SOL    HW210506   4.081   2.383   1.192
 3496SOL     OW10507   4.536   3.448   0.687
 3496SOL    HW110508   4.568   3.458   0.593
 3496SOL    HW210509   4.457   3.386   0.689
 3497SOL     OW10510   4.725   1.896   1.154
 3497SOL    HW110511   4.662   1.824   1.123
 3497SOL    HW210512   4.818   1.860   1.154
 3498SOL     OW10513   4.494   3.192   0.301
 3498SOL    HW110514   4.448   3.105   0.318
 3498SOL    HW210515   4.585   3.189   0.342
 3499SOL     OW10516   4.342   3.429   1.284
 3499SOL    HW110517   4.337   3.511   1.341
 3499SOL    HW210518   4.431   3.426   1.239
 3500SOL     OW10519   3.763   2.939   0.300
 3500SOL    HW110520   3.862   2.928   0.291
 3500SOL    HW210521   3.723   2.853   0.332
 3501SOL     OW10522   4.599   3.508   0.337
 3501SOL    HW110523   4.522   3.473   0.283
 3501SOL    HW210524   4.567   3.579   0.399
 3502SOL     OW10525   3.954   2.490   1.975
 3502SOL    HW110526   3.861   2.488   2.012
 3502SOL    HW210527   3.955   2.451   1.883
 3503SOL     OW10528   3.949   2.137   2.858
 3503SOL    HW110529   3.984   2.120   2.950
 3503SOL    HW210530   3.861   2.092   2.846
 3504SOL     OW10531   3.743   2.230   2.509
 3504SOL    HW110532   3.661   2.273   2.548
 3504SOL    HW210533   3.715   2.157   2.446
 3505SOL     OW10534   4.293   3.137   3.027
 3505SOL    HW110535   4.200   3.130   2.990
 3505SOL    HW210536   4.304   3.226   3.071
 3506SOL     OW10537   4.492   3.006   2.885
 3506SOL    HW110538   4.414   3.023   2.945
 3506SOL    HW210539   4.526   3.093   2.849
 3507SOL     OW10540   4.574   2.660   3.685
 3507SOL    HW110541   4.570   2.736   3.750
 3507SOL    HW210542   4.596   2.696   3.594
 3508SOL     OW10543   4.409   2.874   2.527
 3508SOL    HW110544   4.478   2.858   2.597
 3508SOL    HW210545   4.336   2.931   2.565
 3509SOL     OW10546   4.410   3.023   3.665
 3509SOL    HW110547   4.470   3.102   3.679
 3509SOL    HW210548   4.324   3.054   3.624
 3510SOL     OW10549   4.059   3.297   2.923
 3510SOL    HW110550   3.981   3.266   2.870
 3510SOL    HW210551   4.117   3.355   2.866
 3511SOL     OW10552   4.162   2.254   3.361
 3511SOL    HW110553   4.244   2.198   3.370
 3511SOL    HW210554   4.081   2.196   3.365
 3512SOL     OW10555   3.955   3.575   2.345
 3512SOL    HW110556   3.989   3.652   2.399
 3512SOL    HW210557   3.999   3.575   2.255
 3513SOL     OW10558   4.851   3.203   3.552
 3513SOL    HW110559   4.898   3.203   3.640
 3513SOL    HW210560   4.803   3.116   3.541
 3514SOL     OW10561   3.954   3.296   2.400
 3514SOL    HW110562   3.928   3.392   2.400
 3514SOL    HW210563   3.883   3.242   2.445
 3515SOL     OW10564   3.964   2.953   2.748
 3515SOL    HW110565   3.978   2.869   2.800
 3515SOL    HW210566   3.909   3.017   2.803
 3516SOL     OW10567   4.344   3.648   3.301
 3516SOL    HW110568   4.252   3.631   3.336
 3516SOL    HW210569   4.372   3.740   3.327
 3517SOL     OW10570   4.330   2.826   1.985
 3517SOL    HW110571   4.337   2.910   1.931
 3517SOL    HW210572   4.376   2.839   2.073
 3518SOL     OW10573   3.846   2.505   2.425
 3518SOL    HW110574   3.801   2.417   2.442
 3518SOL    HW210575   3.845   2.559   2.509
 3519SOL     OW10576   3.751   3.458   1.979
 3519SOL    HW110577   3.732   3.362   2.000
 3519SOL    HW210578   3.718   3.516   2.054
 3520SOL     OW10579   3.837   2.599   3.459
 3520SOL    HW110580   3.925   2.586   3.504
 3520SOL    HW210581   3.824   2.696   3.437
 3521SOL     OW10582   4.337   3.227   2.588
 3521SOL    HW110583   4.288   3.140   2.597
 3521SOL    HW210584   4.314   3.270   2.501
 3522SOL     OW10585   4.533   1.866   2.364
 3522SOL    HW110586   4.573   1.957   2.355
 3522SOL    HW210587   4.433   1.874   2.370
 3523SOL     OW10588   3.921   2.838   3.126
 3523SOL    HW110589   4.010   2.793   3.112
 3523SOL    HW210590   3.848   2.773   3.107
 3524SOL     OW10591   4.041   2.113   3.663
 3524SOL    HW110592   4.112   2.184   3.669
 3524SOL    HW210593   3.953   2.152   3.691
 3525SOL     OW10594   4.322   2.591   2.132
 3525SOL    HW110595   4.346   2.660   2.064
 3525SOL    HW210596   4.244   2.624   2.186
 3526SOL     OW10597   4.531   2.467   3.327
 3526SOL    HW110598   4.484   2.464   3.416
 3526SOL    HW210599   4.480   2.412   3.261
 3527SOL     OW10600   4.697   2.752   3.434
 3527SOL    HW110601   4.743   2.668   3.405
 3527SOL    HW210602   4.641   2.786   3.359
 3528SOL     OW10603   4.715   2.272   3.104
 3528SOL    HW110604   4.638   2.306   3.158
 3528SOL    HW210605   4.681   2.221   3.025
 3529SOL     OW10606   4.765   2.563   2.291
 3529SOL    HW110607   4.791   2.559   2.387
 3529SOL    HW210608   4.680   2.512   2.277
 3530SOL     OW10609   3.800   2.673   2.651
 3530SOL    HW110610   3.899   2.661   2.660
 3530SOL    HW210611   3.776   2.768   2.672
 3531SOL     OW10612   3.854   3.683   3.433
 3531SOL    HW110613   3.844   3.668   3.532
 3531SOL    HW210614   3.768   3.719   3.397
 3532SOL     OW10615   4.589   2.210   2.057
 3532SOL    HW110616   4.648   2.273   2.008
 3532SOL    HW210617   4.608   2.116   2.028
 3533SOL     OW10618   4.274   2.058   2.747
 3533SOL    HW110619   4.269   2.053   2.847
 3533SOL    HW210620   4.276   2.154   2.718
 3534SOL     OW10621   4.732   3.318   2.339
 3534SOL    HW110622   4.686   3.390   2.287
 3534SOL    HW210623   4.728   3.338   2.437
 3535SOL     OW10624   4.075   3.663   2.715
 3535SOL    HW110625   4.125   3.577   2.721
 3535SOL    HW210626   4.140   3.740   2.712
 3536SOL     OW10627   4.951   3.412   3.368
 3536SOL    HW110628   4.957   3.335   3.432
 3536SOL    HW210629   4.899   3.386   3.288
 3537SOL     OW10630   4.045   2.805   2.104
 3537SOL    HW110631   4.127   2.844   2.062
 3537SOL    HW210632   4.018   2.723   2.055
 3538SOL     OW10633   4.185   3.128   3.589
 3538SOL    HW110634   4.135   3.129   3.503
 3538SOL    HW210635   4.122   3.110   3.665
 3539SOL     OW10636   3.926   2.147   3.360
 3539SOL    HW110637   3.846   2.207   3.347
 3539SOL    HW210638   3.916   2.098   3.446
 3540SOL     OW10639   4.188   3.605   2.185
 3540SOL    HW110640   4.221   3.644   2.271
 3540SOL    HW210641   4.264   3.598   2.120
 3541SOL     OW10642   3.973   3.647   3.103
 3541SOL    HW110643   4.030   3.582   3.153
 3541SOL    HW210644   3.957   3.614   3.010
 3542SOL     OW10645   4.664   3.560   2.766
 3542SOL    HW110646   4.744   3.503   2.787
 3542SOL    HW210647   4.615   3.520   2.689
 3543SOL     OW10648   4.106   2.562   2.342
 3543SOL    HW110649   4.151   2.472   2.339
 3543SOL    HW210650   4.012   2.551   2.375
 3544SOL     OW10651   4.338   1.984   1.979
 3544SOL    HW110652   4.436   1.962   1.986
 3544SOL    HW210653   4.307   1.967   1.886
 3545SOL     OW10654   4.505   2.126   3.611
 3545SOL    HW110655   4.572   2.065   3.654
 3545SOL    HW210656   4.432   2.145   3.676
 3546SOL     OW10657   4.612   3.376   3.057
 3546SOL    HW110658   4.589   3.351   2.963
 3546SOL    HW210659   4.673   3.307   3.096
 3547SOL     OW10660   4.527   3.264   2.786
 3547SOL    HW110661   4.617   3.278   2.744
 3547SOL    HW210662   4.456   3.266   2.715
 3548SOL     OW10663   4.646   2.365   2.761
 3548SOL    HW110664   4.621   2.356   2.665
 3548SOL    HW210665   4.694   2.283   2.792
 3549SOL     OW10666   4.263   1.926   2.374
 3549SOL    HW110667   4.182   1.927   2.432
 3549SOL    HW210668   4.266   2.009   2.319
 3550SOL     OW10669   4.021   1.897   2.033
 3550SOL    HW110670   4.070   1.981   2.012
 3550SOL    HW210671   4.083   1.832   2.078
 3551SOL     OW10672   4.659   2.098   2.342
 3551SOL    HW110673   4.611   2.139   2.264
 3551SOL    HW210674   4.758   2.096   2.323
 3552SOL     OW10675   4.800   2.545   3.326
 3552SOL    HW110676   4.720   2.484   3.329
 3552SOL    HW210677   4.881   2.492   3.302
 3553SOL     OW10678   4.951   3.432   2.655
 3553SOL    HW110679   4.972   3.506   2.590
 3553SOL    HW210680   5.019   3.432   2.728
 3554SOL     OW10681   4.183   3.014   2.603
 3554SOL    HW110682   4.112   2.987   2.668
 3554SOL    HW210683   4.157   2.986   2.510
 3555SOL     OW10684   4.995   3.659   2.453
 3555SOL    HW110685   5.039   3.723   2.389
 3555SOL    HW210686   4.945   3.711   2.523
 3556SOL     OW10687   4.756   2.411   1.878
 3556SOL    HW110688   4.715   2.493   1.839
 3556SOL    HW210689   4.820   2.437   1.951
 3557SOL     OW10690   3.802   2.418   3.248
 3557SOL    HW110691   3.894   2.417   3.207
 3557SOL    HW210692   3.796   2.492   3.315
 3558SOL     OW10693   4.285   2.084   3.009
 3558SOL    HW110694   4.323   2.000   3.046
 3558SOL    HW210695   4.197   2.103   3.053
 3559SOL     OW10696   4.590   2.316   2.504
 3559SOL    HW110697   4.558   2.388   2.442
 3559SOL    HW210698   4.614   2.235   2.451
 3560SOL     OW10699   4.741   1.901   2.615
 3560SOL    HW110700   4.669   1.906   2.546
 3560SOL    HW210701   4.717   1.832   2.684
 3561SOL     OW10702   4.212   3.247   2.036
 3561SOL    HW110703   4.125   3.232   2.083
 3561SOL    HW210704   4.195   3.273   1.941
 3562SOL     OW10705   4.251   2.118   2.190
 3562SOL    HW110706   4.278   2.059   2.115
 3562SOL    HW210707   4.251   2.213   2.159
 3563SOL     OW10708   4.788   3.209   3.202
 3563SOL    HW110709   4.708   3.186   3.257
 3563SOL    HW210710   4.871   3.183   3.251
 3564SOL     OW10711   4.835   3.057   2.962
 3564SOL    HW110712   4.795   3.101   3.043
 3564SOL    HW210713   4.794   3.094   2.879
 3565SOL     OW10714   4.639   1.951   3.264
 3565SOL    HW110715   4.664   1.931   3.169
 3565SOL    HW210716   4.711   2.007   3.306
 3566SOL     OW10717   4.704   2.978   3.581
 3566SOL    HW110718   4.605   2.984   3.591
 3566SOL    HW210719   4.727   2.898   3.525
 3567SOL     OW10720   4.429   2.912   2.230
 3567SOL    HW110721   4.415   2.919   2.329
 3567SOL    HW210722   4.513   2.861   2.212
 3568SOL     OW10723   4.134   2.675   3.113
 3568SOL    HW110724   4.220   2.687   3.163
 3568SOL    HW210725   4.092   2.588   3.140
 3569SOL     OW10726   3.788   3.426   3.193
 3569SOL    HW110727   3.742   3.508   3.159
 3569SOL    HW210728   3.886   3.445   3.202
 3570SOL     OW10729   4.091   2.962   2.363
 3570SOL    HW110730   4.084   3.045   2.307
 3570SOL    HW210731   4.095   2.882   2.303
 3571SOL     OW10732   4.290   2.399   2.727
 3571SOL    HW110733   4.302   2.465   2.653
 3571SOL    HW210734   4.336   2.433   2.810
 3572SOL     OW10735   4.976   3.210   2.250
 3572SOL    HW110736   5.026   3.287   2.290
 3572SOL    HW210737   4.881   3.212   2.282
 3573SOL     OW10738   4.078   3.372   3.191
 3573SOL    HW110739   4.057   3.328   3.104
 3573SOL    HW210740   4.175   3.398   3.194
 3574SOL     OW10741   4.126   2.613   3.460
 3574SOL    HW110742   4.194   2.668   3.413
 3574SOL    HW210743   4.166   2.525   3.487
 3575SOL     OW10744   4.737   1.967   3.632
 3575SOL    HW110745   4.743   2.052   3.580
 3575SOL    HW210746   4.769   1.891   3.575
 3576SOL     OW10747   4.228   1.912   3.602
 3576SOL    HW110748   4.186   1.855   3.532
 3576SOL    HW210749   4.162   1.981   3.634
 3577SOL     OW10750   4.297   2.732   2.891
 3577SOL    HW110751   4.341   2.821   2.882
 3577SOL    HW210752   4.234   2.732   2.968
 3578SOL     OW10753   5.084   2.724   2.907
 3578SOL    HW110754   5.009   2.724   2.841
 3578SOL    HW210755   5.121   2.632   2.916
 3579SOL     OW10756   4.933   2.387   2.137
 3579SOL    HW110757   4.946   2.303   2.191
 3579SOL    HW210758   4.904   2.461   2.197
 3580SOL     OW10759   4.031   2.075   3.093
 3580SOL    HW110760   4.008   2.112   3.183
 3580SOL    HW210761   4.001   1.980   3.087
 3581SOL     OW10762   3.761   3.172   3.144
 3581SOL    HW110763   3.814   3.123   3.212
 3581SOL    HW210764   3.783   3.270   3.149
 3582SOL     OW10765   4.456   2.496   2.926
 3582SOL    HW110766   4.515   2.470   2.850
 3582SOL    HW210767   4.428   2.592   2.915
 3583SOL     OW10768   4.031   1.925   2.480
 3583SOL    HW110769   4.020   2.019   2.513
 3583SOL    HW210770   4.026   1.862   2.557
 3584SOL     OW10771   4.747   2.628   2.828
 3584SOL    HW110772   4.762   2.649   2.924
 3584SOL    HW210773   4.717   2.533   2.819
 3585SOL     OW10774   4.704   3.435   3.562
 3585SOL    HW110775   4.684   3.479   3.474
 3585SOL    HW210776   4.743   3.344   3.546
 3586SOL     OW10777   4.074   2.760   3.666
 3586SOL    HW110778   4.150   2.804   3.714
 3586SOL    HW210779   4.109   2.713   3.584
 3587SOL     OW10780   4.792   3.195   2.711
 3587SOL    HW110781   4.799   3.111   2.656
 3587SOL    HW210782   4.854   3.264   2.675
 3588SOL     OW10783   4.043   2.672   2.811
 3588SOL    HW110784   4.136   2.708   2.816
 3588SOL    HW210785   4.037   2.587   2.863
 3589SOL     OW10786   4.063   2.371   2.868
 3589SOL    HW110787   4.011   2.288   2.851
 3589SOL    HW210788   4.140   2.376   2.804
 3590SOL     OW10789   4.862   2.242   3.540
 3590SOL    HW110790   4.817   2.305   3.604
 3590SOL    HW210791   4.955   2.273   3.523
 3591SOL     OW10792   4.884   2.069   3.339
 3591SOL    HW110793   4.884   2.133   3.416
 3591SOL    HW210794   4.912   2.117   3.256
 3592SOL     OW10795   3.732   3.188   2.062
 3592SOL    HW110796   3.639   3.209   2.031
 3592SOL    HW210797   3.742   3.089   2.075
 3593SOL     OW10798   3.812   3.663   2.789
 3593SOL    HW110799   3.770   3.577   2.762
 3593SOL    HW210800   3.906   3.666   2.755
 3594SOL     OW10801   4.228   3.430   2.772
 3594SOL    HW110802   4.294   3.504   2.781
 3594SOL    HW210803   4.272   3.351   2.730
 3595SOL     OW10804   4.726   2.658   3.100
 3595SOL    HW110805   4.767   2.626   3.186
 3595SOL    HW210806   4.630   2.631   3.097
 3596SOL     OW10807   3.764   2.406   2.976
 3596SOL    HW110808   3.849   2.373   2.935
 3596SOL    HW210809   3.777   2.421   3.074
 3597SOL     OW10810   3.913   2.382   3.584
 3597SOL    HW110811   3.972   2.342   3.514
 3597SOL    HW210812   3.855   2.453   3.543
 3598SOL     OW10813   4.539   2.434   2.187
 3598SOL    HW110814   4.546   2.345   2.141
 3598SOL    HW210815   4.445   2.468   2.179
 3599SOL     OW10816   3.976   3.426   3.606
 3599SOL    HW110817   3.946   3.483   3.682
 3599SOL    HW210818   3.969   3.329   3.632
 3600SOL     OW10819   4.395   2.326   3.131
 3600SOL    HW110820   4.361   2.237   3.101
 3600SOL    HW210821   4.421   2.380   3.051
 3601SOL     OW10822   4.654   3.540   3.327
 3601SOL    HW110823   4.630   3.522   3.232
 3601SOL    HW210824   4.684   3.634   3.337
 3602SOL     OW10825   4.197   2.362   2.053
 3602SOL    HW110826   4.258   2.442   2.057
 3602SOL    HW210827   4.102   2.393   2.060
 3603SOL     OW10828   3.883   2.999   3.328
 3603SOL    HW110829   3.905   2.938   3.404
 3603SOL    HW210830   3.893   2.950   3.242
 3604SOL     OW10831   5.026   2.717   2.171
 3604SOL    HW110832   4.940   2.686   2.213
 3604SOL    HW210833   5.022   2.703   2.072
 3605SOL     OW10834   4.976   3.593   2.990
 3605SOL    HW110835   5.060   3.598   2.936
 3605SOL    HW210836   4.953   3.497   3.008
 3606SOL     OW10837   3.807   3.120   2.884
 3606SOL    HW110838   3.802   3.119   2.984
 3606SOL    HW210839   3.724   3.079   2.846
 3607SOL     OW10840   4.412   3.524   3.578
 3607SOL    HW110841   4.356   3.605   3.587
 3607SOL    HW210842   4.464   3.528   3.492
 3608SOL     OW10843   3.854   3.656   3.713
 3608SOL    HW110844   3.813   3.582   3.766
 3608SOL    HW210845   3.918   3.707   3.771
 3609SOL     OW10846   4.554   3.135   3.284
 3609SOL    HW110847   4.549   3.168   3.379
 3609SOL    HW210848   4.468   3.154   3.238
 3610SOL     OW10849   4.396   3.478   2.016
 3610SOL    HW110850   4.405   3.488   1.917
 3610SOL    HW210851   4.356   3.389   2.037
 3611SOL     OW10852   3.987   2.188   2.582
 3611SOL    HW110853   3.908   2.239   2.548
 3611SOL    HW210854   3.978   2.173   2.680
 3612SOL     OW10855   4.546   2.864   3.234
 3612SOL    HW110856   4.586   2.863   3.142
 3612SOL    HW210857   4.556   2.956   3.274
 3613SOL     OW10858   4.640   2.772   2.153
 3613SOL    HW110859   4.703   2.810   2.085
 3613SOL    HW210860   4.680   2.689   2.192
 3614SOL     OW10861   4.096   3.150   3.352
 3614SOL    HW110862   4.083   3.243   3.318
 3614SOL    HW210863   4.012   3.098   3.339
 3615SOL     OW10864   4.763   2.960   2.558
 3615SOL    HW110865   4.693   2.913   2.612
 3615SOL    HW210866   4.822   2.892   2.515
 3616SOL     OW10867   4.738   2.098   2.833
 3616SOL    HW110868   4.730   2.062   2.740
 3616SOL    HW210869   4.736   2.022   2.898
 3617SOL     OW10870   4.314   3.349   2.353
 3617SOL    HW110871   4.356   3.291   2.283
 3617SOL    HW210872   4.270   3.428   2.309
 3618SOL     OW10873   3.979   3.210   2.152
 3618SOL    HW110874   3.883   3.211   2.125
 3618SOL    HW210875   3.991   3.263   2.236
 3619SOL     OW10876   3.829   2.875   3.588
 3619SOL    HW110877   3.752   2.842   3.642
 3619SOL    HW210878   3.914   2.845   3.630
 3620SOL     OW10879   4.396   2.065   3.351
 3620SOL    HW110880   4.486   2.049   3.311
 3620SOL    HW210881   4.404   2.070   3.450
 3621SOL     OW10882   3.799   2.207   1.895
 3621SOL    HW110883   3.707   2.179   1.866
 3621SOL    HW210884   3.830   2.284   1.839
 3622SOL     OW10885   3.796   2.028   2.180
 3622SOL    HW110886   3.779   2.111   2.126
 3622SOL    HW210887   3.886   1.991   2.158
 3623SOL     OW10888   4.337   2.704   3.293
 3623SOL    HW110889   4.393   2.785   3.276
 3623SOL    HW210890   4.396   2.624   3.296
 3624SOL     OW10891   4.440   2.427   3.570
 3624SOL    HW110892   4.459   2.492   3.644
 3624SOL    HW210893   4.500   2.347   3.579
 3625SOL     OW10894   4.114   3.603   3.422
 3625SOL    HW110895   4.023   3.644   3.420
 3625SOL    HW210896   4.107   3.509   3.454
 3626SOL     OW10897   4.318   2.607   2.514
 3626SOL    HW110898   4.368   2.692   2.495
 3626SOL    HW210899   4.230   2.609   2.466
 3627SOL     OW10900   4.583   3.236   1.878
 3627SOL    HW110901   4.537   3.251   1.966
 3627SOL    HW210902   4.627   3.321   1.848
 3628SOL     OW10903   4.385   3.652   2.815
 3628SOL    HW110904   4.339   3.740   2.802
 3628SOL    HW210905   4.484   3.664   2.808
 3629SOL     OW10906   4.583   2.818   2.723
 3629SOL    HW110907   4.637   2.749   2.771
 3629SOL    HW210908   4.551   2.887   2.789
 3630SOL     OW10909   4.807   2.846   1.949
 3630SOL    HW110910   4.784   2.899   1.867
 3630SOL    HW210911   4.888   2.790   1.930
 3631SOL     OW10912   3.945   3.176   3.706
 3631SOL    HW110913   3.880   3.103   3.685
 3631SOL    HW210914   3.949   3.190   3.804
 3632SOL     OW10915   3.803   3.102   2.515
 3632SOL    HW110916   3.802   3.055   2.603
 3632SOL    HW210917   3.885   3.074   2.464
 3633SOL     OW10918   4.396   3.253   3.486
 3633SOL    HW110919   4.318   3.203   3.524
 3633SOL    HW210920   4.393   3.348   3.517
 3634SOL     OW10921   4.152   2.286   2.382
 3634SOL    HW110922   4.182   2.214   2.320
 3634SOL    HW210923   4.113   2.246   2.465
 3635SOL     OW10924   4.041   2.409   3.142
 3635SOL    HW110925   4.079   2.350   3.214
 3635SOL    HW210926   4.081   2.383   3.054
 3636SOL     OW10927   4.536   3.448   2.549
 3636SOL    HW110928   4.568   3.458   2.455
 3636SOL    HW210929   4.457   3.386   2.551
 3637SOL     OW10930   4.725   1.896   3.016
 3637SOL    HW110931   4.662   1.824   2.985
 3637SOL    HW210932   4.818   1.860   3.016
 3638SOL     OW10933   4.494   3.192   2.163
 3638SOL    HW110934   4.448   3.105   2.180
 3638SOL    HW210935   4.585   3.189   2.204
 3639SOL     OW10936   4.342   3.429   3.146
 3639SOL    HW110937   4.337   3.511   3.203
 3639SOL    HW210938   4.431   3.426   3.101
 3640SOL     OW10939   3.763   2.939   2.162
 3640SOL    HW110940   3.862   2.928   2.153
 3640SOL    HW210941   3.723   2.853   2.194
 3641SOL     OW10942   4.599   3.508   2.199
 3641SOL    HW110943   4.522   3.473   2.145
 3641SOL    HW210944   4.567   3.579   2.261
 3642SOL     OW10945   3.954   2.490   3.837
 3642SOL    HW110946   3.861   2.488   3.874
 3642SOL    HW210947   3.955   2.451   3.745
 3643SOL     OW10948   3.949   2.137   4.720
 3643SOL    HW110949   3.984   2.120   4.812
 3643SOL    HW210950   3.861   2.092   4.708
 3644SOL     OW10951   3.743   2.230   4.371
 3644SOL    HW110952   3.661   2.273   4.410
 3644SOL    HW210953   3.715   2.157   4.308
 3645SOL     OW10954   4.293   3.137   4.889
 3645SOL    HW110955   4.200   3.130   4.852
 3645SOL    HW210956   4.304   3.226   4.933
 3646SOL     OW10957   4.492   3.006   4.747
 3646SOL    HW110958   4.414   3.023   4.807
 3646SOL    HW210959   4.526   3.093   4.711
 3647SOL     OW10960   4.409   2.874   4.389
 3647SOL    HW110961   4.478   2.858   4.459
 3647SOL    HW210962   4.336   2.931   4.427
 3648SOL     OW10963   4.059   3.297   4.785
 3648SOL    HW110964   3.981   3.266   4.732
 3648SOL    HW210965   4.117   3.355   4.728
 3649SOL     OW10966   3.955   3.575   4.207
 3649SOL    HW110967   3.989   3.652   4.261
 3649SOL    HW210968   3.999   3.575   4.117
 3650SOL     OW10969   3.954   3.296   4.262
 3650SOL    HW110970   3.928   3.392   4.262
 3650SOL    HW210971   3.883   3.242   4.307
 3651SOL     OW10972   3.964   2.953   4.610
 3651SOL    HW110973   3.978   2.869   4.662
 3651SOL    HW210974   3.909   3.017   4.665
 3652SOL     OW10975   4.330   2.826   3.847
 3652SOL    HW110976   4.337   2.910   3.793
 3652SOL    HW210977   4.376   2.839   3.935
 3653SOL     OW10978   3.846   2.505   4.287
 3653SOL    HW110979   3.801   2.417   4.304
 3653SOL    HW210980   3.845   2.559   4.371
 3654SOL     OW10981   3.751   3.458   3.841
 3654SOL    HW110982   3.732   3.362   3.862
 3654SOL    HW210983   3.718   3.516   3.916
 3655SOL     OW10984   4.337   3.227   4.450
 3655SOL    HW110985   4.288   3.140   4.459
 3655SOL    HW210986   4.314   3.270   4.363
 3656SOL     OW10987   4.533   1.866   4.226
 3656SOL    HW110988   4.573   1.957   4.217
 3656SOL    HW210989   4.433   1.874   4.232
 3657SOL     OW10990   3.921   2.838   4.988
 3657SOL    HW110991   4.010   2.793   4.974
 3657SOL    HW210992   3.848   2.773   4.969
 3658SOL     OW10993   4.322   2.591   3.994
 3658SOL    HW110994   4.346   2.660   3.926
 3658SOL    HW210995   4.244   2.624   4.048
 3659SOL     OW10996   4.765   2.563   4.153
 3659SOL    HW110997   4.791   2.559   4.249
 3659SOL    HW210998   4.680   2.512   4.139
 3660SOL     OW10999   3.800   2.673   4.513
 3660SOL    HW111000   3.899   2.661   4.522
 3660SOL    HW211001   3.776   2.768   4.534
 3661SOL     OW11002   4.589   2.210   3.919
 3661SOL    HW111003   4.648   2.273   3.870
 3661SOL    HW211004   4.608   2.116   3.890
 3662SOL     OW11005   4.274   2.058   4.609
 3662SOL    HW111006   4.269   2.053   4.709
 3662SOL    HW211007   4.276   2.154   4.580
 3663SOL     OW11008   4.732   3.318   4.201
 3663SOL    HW111009   4.686   3.390   4.149
 3663SOL    HW211010   4.728   3.338   4.299
 3664SOL     OW11011   4.075   3.663   4.577
 3664SOL    HW111012   4.125   3.577   4.583
 3664SOL    HW211013   4.140   3.740   4.574
 3665SOL     OW11014   4.045   2.805   3.966
 3665SOL    HW111015   4.127   2.844   3.924
 3665SOL    HW211016   4.018   2.723   3.917
 3666SOL     OW11017   4.188   3.605   4.047
 3666SOL    HW111018   4.221   3.644   4.133
 3666SOL    HW211019   4.264   3.598   3.982
 3667SOL     OW11020   3.973   3.647   4.965
 3667SOL    HW111021   4.030   3.582   5.015
 3667SOL    HW211022   3.957   3.614   4.872
 3668SOL     OW11023   4.664   3.560   4.628
 3668SOL    HW111024   4.744   3.503   4.649
 3668SOL    HW211025   4.615   3.520   4.551
 3669SOL     OW11026   4.106   2.562   4.204
 3669SOL    HW111027   4.151   2.472   4.201
 3669SOL    HW211028   4.012   2.551   4.237
 3670SOL     OW11029   4.338   1.984   3.841
 3670SOL    HW111030   4.436   1.962   3.848
 3670SOL    HW211031   4.307   1.967   3.748
 3671SOL     OW11032   4.527   3.264   4.648
 3671SOL    HW111033   4.617   3.278   4.606
 3671SOL    HW211034   4.456   3.266   4.577
 3672SOL     OW11035   4.646   2.365   4.623
 3672SOL    HW111036   4.621   2.356   4.527
 3672SOL    HW211037   4.694   2.283   4.654
 3673SOL     OW11038   4.263   1.926   4.236
 3673SOL    HW111039   4.182   1.927   4.294
 3673SOL    HW211040   4.266   2.009   4.181
 3674SOL     OW11041   4.021   1.897   3.895
 3674SOL    HW111042   4.070   1.981   3.874
 3674SOL    HW211043   4.083   1.832   3.940
 3675SOL     OW11044   4.659   2.098   4.204
 3675SOL    HW111045   4.611   2.139   4.126
 3675SOL    HW211046   4.758   2.096   4.185
 3676SOL     OW11047   4.951   3.432   4.517
 3676SOL    HW111048   4.972   3.506   4.452
 3676SOL    HW211049   5.019   3.432   4.590
 3677SOL     OW11050   4.183   3.014   4.465
 3677SOL    HW111051   4.112   2.987   4.530
 3677SOL    HW211052   4.157   2.986   4.372
 3678SOL     OW11053   4.995   3.659   4.315
 3678SOL    HW111054   5.039   3.723   4.251
 3678SOL    HW211055   4.945   3.711   4.385
 3679SOL     OW11056   4.756   2.411   3.740
 3679SOL    HW111057   4.715   2.493   3.701
 3679SOL    HW211058   4.820   2.437   3.813
 3680SOL     OW11059   4.590   2.316   4.366
 3680SOL    HW111060   4.558   2.388   4.304
 3680SOL    HW211061   4.614   2.235   4.313
 3681SOL     OW11062   4.741   1.901   4.477
 3681SOL    HW111063   4.669   1.906   4.408
 3681SOL    HW211064   4.717   1.832   4.546
 3682SOL     OW11065   4.212   3.247   3.898
 3682SOL    HW111066   4.125   3.232   3.945
 3682SOL    HW211067   4.195   3.273   3.803
 3683SOL     OW11068   4.251   2.118   4.052
 3683SOL    HW111069   4.278   2.059   3.977
 3683SOL    HW211070   4.251   2.213   4.021
 3684SOL     OW11071   4.835   3.057   4.824
 3684SOL    HW111072   4.795   3.101   4.905
 3684SOL    HW211073   4.794   3.094   4.741
 3685SOL     OW11074   4.429   2.912   4.092
 3685SOL    HW111075   4.415   2.919   4.191
 3685SOL    HW211076   4.513   2.861   4.074
 3686SOL     OW11077   4.134   2.675   4.975
 3686SOL    HW111078   4.220   2.687   5.025
 3686SOL    HW211079   4.092   2.588   5.002
 3687SOL     OW11080   4.091   2.962   4.225
 3687SOL    HW111081   4.084   3.045   4.169
 3687SOL    HW211082   4.095   2.882   4.165
 3688SOL     OW11083   4.290   2.399   4.589
 3688SOL    HW111084   4.302   2.465   4.515
 3688SOL    HW211085   4.336   2.433   4.672
 3689SOL     OW11086   4.976   3.210   4.112
 3689SOL    HW111087   5.026   3.287   4.152
 3689SOL    HW211088   4.881   3.212   4.144
 3690SOL     OW11089   4.996   3.307   4.866
 3690SOL    HW111090   5.043   3.320   4.953
 3690SOL    HW211091   4.930   3.233   4.875
 3691SOL     OW11092   4.297   2.732   4.753
 3691SOL    HW111093   4.341   2.821   4.744
 3691SOL    HW211094   4.234   2.732   4.830
 3692SOL     OW11095   5.084   2.724   4.769
 3692SOL    HW111096   5.009   2.724   4.703
 3692SOL    HW211097   5.121   2.632   4.778
 3693SOL     OW11098   4.933   2.387   3.999
 3693SOL    HW111099   4.946   2.303   4.053
 3693SOL    HW211100   4.904   2.461   4.059
 3694SOL     OW11101   4.031   2.075   4.955
 3694SOL    HW111102   4.008   2.112   5.045
 3694SOL    HW211103   4.001   1.980   4.949
 3695SOL     OW11104   4.456   2.496   4.788
 3695SOL    HW111105   4.515   2.470   4.712
 3695SOL    HW211106   4.428   2.592   4.777
 3696SOL     OW11107   4.031   1.925   4.342
 3696SOL    HW111108   4.020   2.019   4.375
 3696SOL    HW211109   4.026   1.862   4.419
 3697SOL     OW11110   4.747   2.628   4.690
 3697SOL    HW111111   4.762   2.649   4.786
 3697SOL    HW211112   4.717   2.533   4.681
 3698SOL     OW11113   4.792   3.195   4.573
 3698SOL    HW111114   4.799   3.111   4.518
 3698SOL    HW211115   4.854   3.264   4.537
 3699SOL     OW11116   4.043   2.672   4.673
 3699SOL    HW111117   4.136   2.708   4.678
 3699SOL    HW211118   4.037   2.587   4.725
 3700SOL     OW11119   4.063   2.371   4.730
 3700SOL    HW111120   4.011   2.288   4.713
 3700SOL    HW211121   4.140   2.376   4.666
 3701SOL     OW11122   3.732   3.188   3.924
 3701SOL    HW111123   3.639   3.209   3.893
 3701SOL    HW211124   3.742   3.089   3.937
 3702SOL     OW11125   3.812   3.663   4.651
 3702SOL    HW111126   3.770   3.577   4.624
 3702SOL    HW211127   3.906   3.666   4.617
 3703SOL     OW11128   4.228   3.430   4.634
 3703SOL    HW111129   4.294   3.504   4.643
 3703SOL    HW211130   4.272   3.351   4.592
 3704SOL     OW11131   4.726   2.658   4.962
 3704SOL    HW111132   4.767   2.626   5.048
 3704SOL    HW211133   4.630   2.631   4.959
 3705SOL     OW11134   3.764   2.406   4.838
 3705SOL    HW111135   3.849   2.373   4.797
 3705SOL    HW211136   3.777   2.421   4.936
 3706SOL     OW11137   4.539   2.434   4.049
 3706SOL    HW111138   4.546   2.345   4.003
 3706SOL    HW211139   4.445   2.468   4.041
 3707SOL     OW11140   4.395   2.326   4.993
 3707SOL    HW111141   4.361   2.237   4.963
 3707SOL    HW211142   4.421   2.380   4.913
 3708SOL     OW11143   4.197   2.362   3.915
 3708SOL    HW111144   4.258   2.442   3.919
 3708SOL    HW211145   4.102   2.393   3.922
 3709SOL     OW11146   5.026   2.717   4.033
 3709SOL    HW111147   4.940   2.686   4.075
 3709SOL    HW211148   5.022   2.703   3.934
 3710SOL     OW11149   4.976   3.593   4.852
 3710SOL    HW111150   5.060   3.598   4.798
 3710SOL    HW211151   4.953   3.497   4.870
 3711SOL     OW11152   3.807   3.120   4.746
 3711SOL    HW111153   3.802   3.119   4.846
 3711SOL    HW211154   3.724   3.079   4.708
 3712SOL     OW11155   4.396   3.478   3.878
 3712SOL    HW111156   4.405   3.488   3.779
 3712SOL    HW211157   4.356   3.389   3.899
 3713SOL     OW11158   3.987   2.188   4.444
 3713SOL    HW111159   3.908   2.239   4.410
 3713SOL    HW211160   3.978   2.173   4.542
 3714SOL     OW11161   4.546   2.864   5.096
 3714SOL    HW111162   4.586   2.863   5.004
 3714SOL    HW211163   4.556   2.956   5.136
 3715SOL     OW11164   4.640   2.772   4.015
 3715SOL    HW111165   4.703   2.810   3.947
 3715SOL    HW211166   4.680   2.689   4.054
 3716SOL     OW11167   4.763   2.960   4.420
 3716SOL    HW111168   4.693   2.913   4.474
 3716SOL    HW211169   4.822   2.892   4.377
 3717SOL     OW11170   4.738   2.098   4.695
 3717SOL    HW111171   4.730   2.062   4.602
 3717SOL    HW211172   4.736   2.022   4.760
 3718SOL     OW11173   4.314   3.349   4.215
 3718SOL    HW111174   4.356   3.291   4.145
 3718SOL    HW211175   4.270   3.428   4.171
 3719SOL     OW11176   3.979   3.210   4.014
 3719SOL    HW111177   3.883   3.211   3.987
 3719SOL    HW211178   3.991   3.263   4.098
 3720SOL     OW11179   3.799   2.207   3.757
 3720SOL    HW111180   3.707   2.179   3.728
 3720SOL    HW211181   3.830   2.284   3.701
 3721SOL     OW11182   3.796   2.028   4.042
 3721SOL    HW111183   3.779   2.111   3.988
 3721SOL    HW211184   3.886   1.991   4.020
 3722SOL     OW11185   4.318   2.607   4.376
 3722SOL    HW111186   4.368   2.692   4.357
 3722SOL    HW211187   4.230   2.609   4.328
 3723SOL     OW11188   4.583   3.236   3.740
 3723SOL    HW111189   4.537   3.251   3.828
 3723SOL    HW211190   4.627   3.321   3.710
 3724SOL     OW11191   4.385   3.652   4.677
 3724SOL    HW111192   4.339   3.740   4.664
 3724SOL    HW211193   4.484   3.664   4.670
 3725SOL     OW11194   4.583   2.818   4.585
 3725SOL    HW111195   4.637   2.749   4.633
 3725SOL    HW211196   4.551   2.887   4.651
 3726SOL     OW11197   4.807   2.846   3.811
 3726SOL    HW111198   4.784   2.899   3.729
 3726SOL    HW211199   4.888   2.790   3.792
 3727SOL     OW11200   3.803   3.102   4.377
 3727SOL    HW111201   3.802   3.055   4.465
 3727SOL    HW211202   3.885   3.074   4.326
 3728SOL     OW11203   4.152   2.286   4.244
 3728SOL    HW111204   4.182   2.214   4.182
 3728SOL    HW211205   4.113   2.246   4.327
 3729SOL     OW11206   4.536   3.448   4.411
 3729SOL    HW111207   4.568   3.458   4.317
 3729SOL    HW211208   4.457   3.386   4.413
 3730SOL     OW11209   4.494   3.192   4.025
 3730SOL    HW111210   4.448   3.105   4.042
 3730SOL    HW211211   4.585   3.189   4.066
 3731SOL     OW11212   3.763   2.939   4.024
 3731SOL    HW111213   3.862   2.928   4.015
 3731SOL    HW211214   3.723   2.853   4.056
 3732SOL     OW11215   4.599   3.508   4.061
 3732SOL    HW111216   4.522   3.473   4.007
 3732SOL    HW211217   4.567   3.579   4.123
 3733SOL     OW11218   3.954   4.352   0.113
 3733SOL    HW111219   3.861   4.350   0.150
 3733SOL    HW211220   3.955   4.313   0.021
 3734SOL     OW11221   3.949   3.999   0.996
 3734SOL    HW111222   3.984   3.982   1.088
 3734SOL    HW211223   3.861   3.954   0.984
 3735SOL     OW11224   3.743   4.092   0.647
 3735SOL    HW111225   3.661   4.135   0.686
 3735SOL    HW211226   3.715   4.019   0.584
 3736SOL     OW11227   4.492   4.868   1.023
 3736SOL    HW111228   4.414   4.885   1.083
 3736SOL    HW211229   4.526   4.955   0.987
 3737SOL     OW11230   4.574   4.522   1.823
 3737SOL    HW111231   4.570   4.598   1.888
 3737SOL    HW211232   4.596   4.558   1.732
 3738SOL     OW11233   4.409   4.736   0.665
 3738SOL    HW111234   4.478   4.720   0.735
 3738SOL    HW211235   4.336   4.793   0.703
 3739SOL     OW11236   4.162   4.116   1.499
 3739SOL    HW111237   4.244   4.060   1.508
 3739SOL    HW211238   4.081   4.058   1.503
 3740SOL     OW11239   3.964   4.815   0.886
 3740SOL    HW111240   3.978   4.731   0.938
 3740SOL    HW211241   3.909   4.879   0.941
 3741SOL     OW11242   4.330   4.688   0.123
 3741SOL    HW111243   4.337   4.772   0.069
 3741SOL    HW211244   4.376   4.701   0.211
 3742SOL     OW11245   3.846   4.367   0.563
 3742SOL    HW111246   3.801   4.279   0.580
 3742SOL    HW211247   3.845   4.421   0.647
 3743SOL     OW11248   3.837   4.461   1.597
 3743SOL    HW111249   3.925   4.448   1.642
 3743SOL    HW211250   3.824   4.558   1.575
 3744SOL     OW11251   4.337   5.089   0.726
 3744SOL    HW111252   4.288   5.002   0.735
 3744SOL    HW211253   4.314   5.132   0.639
 3745SOL     OW11254   4.533   3.728   0.502
 3745SOL    HW111255   4.573   3.819   0.493
 3745SOL    HW211256   4.433   3.736   0.508
 3746SOL     OW11257   3.921   4.700   1.264
 3746SOL    HW111258   4.010   4.655   1.250
 3746SOL    HW211259   3.848   4.635   1.245
 3747SOL     OW11260   4.041   3.975   1.801
 3747SOL    HW111261   4.112   4.046   1.807
 3747SOL    HW211262   3.953   4.014   1.829
 3748SOL     OW11263   4.322   4.453   0.270
 3748SOL    HW111264   4.346   4.522   0.202
 3748SOL    HW211265   4.244   4.486   0.324
 3749SOL     OW11266   4.531   4.329   1.465
 3749SOL    HW111267   4.484   4.326   1.554
 3749SOL    HW211268   4.480   4.274   1.399
 3750SOL     OW11269   4.697   4.614   1.572
 3750SOL    HW111270   4.743   4.530   1.543
 3750SOL    HW211271   4.641   4.648   1.497
 3751SOL     OW11272   4.715   4.134   1.242
 3751SOL    HW111273   4.638   4.168   1.296
 3751SOL    HW211274   4.681   4.083   1.163
 3752SOL     OW11275   4.765   4.425   0.429
 3752SOL    HW111276   4.791   4.421   0.525
 3752SOL    HW211277   4.680   4.374   0.415
 3753SOL     OW11278   3.800   4.535   0.789
 3753SOL    HW111279   3.899   4.523   0.798
 3753SOL    HW211280   3.776   4.630   0.810
 3754SOL     OW11281   4.589   4.072   0.195
 3754SOL    HW111282   4.648   4.135   0.146
 3754SOL    HW211283   4.608   3.978   0.166
 3755SOL     OW11284   4.274   3.920   0.885
 3755SOL    HW111285   4.269   3.915   0.985
 3755SOL    HW211286   4.276   4.016   0.856
 3756SOL     OW11287   4.045   4.667   0.242
 3756SOL    HW111288   4.127   4.706   0.200
 3756SOL    HW211289   4.018   4.585   0.193
 3757SOL     OW11290   3.926   4.009   1.498
 3757SOL    HW111291   3.846   4.069   1.485
 3757SOL    HW211292   3.916   3.960   1.584
 3758SOL     OW11293   4.106   4.424   0.480
 3758SOL    HW111294   4.151   4.334   0.477
 3758SOL    HW211295   4.012   4.413   0.513
 3759SOL     OW11296   4.338   3.846   0.117
 3759SOL    HW111297   4.436   3.824   0.124
 3759SOL    HW211298   4.307   3.829   0.024
 3760SOL     OW11299   4.505   3.988   1.749
 3760SOL    HW111300   4.572   3.927   1.792
 3760SOL    HW211301   4.432   4.007   1.814
 3761SOL     OW11302   4.646   4.227   0.899
 3761SOL    HW111303   4.621   4.218   0.803
 3761SOL    HW211304   4.694   4.145   0.930
 3762SOL     OW11305   4.263   3.788   0.512
 3762SOL    HW111306   4.182   3.789   0.570
 3762SOL    HW211307   4.266   3.871   0.457
 3763SOL     OW11308   4.021   3.759   0.171
 3763SOL    HW111309   4.070   3.843   0.150
 3763SOL    HW211310   4.083   3.694   0.216
 3764SOL     OW11311   4.659   3.960   0.480
 3764SOL    HW111312   4.611   4.001   0.402
 3764SOL    HW211313   4.758   3.958   0.461
 3765SOL     OW11314   4.800   4.407   1.464
 3765SOL    HW111315   4.720   4.346   1.467
 3765SOL    HW211316   4.881   4.354   1.440
 3766SOL     OW11317   4.183   4.876   0.741
 3766SOL    HW111318   4.112   4.849   0.806
 3766SOL    HW211319   4.157   4.848   0.648
 3767SOL     OW11320   4.756   4.273   0.016
 3767SOL    HW111321   4.715   4.355  -0.023
 3767SOL    HW211322   4.820   4.299   0.089
 3768SOL     OW11323   3.802   4.280   1.386
 3768SOL    HW111324   3.894   4.279   1.345
 3768SOL    HW211325   3.796   4.354   1.453
 3769SOL     OW11326   4.285   3.946   1.147
 3769SOL    HW111327   4.323   3.862   1.184
 3769SOL    HW211328   4.197   3.965   1.191
 3770SOL     OW11329   4.590   4.178   0.642
 3770SOL    HW111330   4.558   4.250   0.580
 3770SOL    HW211331   4.614   4.097   0.589
 3771SOL     OW11332   4.741   3.763   0.753
 3771SOL    HW111333   4.669   3.768   0.684
 3771SOL    HW211334   4.717   3.694   0.822
 3772SOL     OW11335   4.251   3.980   0.328
 3772SOL    HW111336   4.278   3.921   0.253
 3772SOL    HW211337   4.251   4.075   0.297
 3773SOL     OW11338   4.639   3.813   1.402
 3773SOL    HW111339   4.664   3.793   1.307
 3773SOL    HW211340   4.711   3.869   1.444
 3774SOL     OW11341   4.704   4.840   1.719
 3774SOL    HW111342   4.605   4.846   1.729
 3774SOL    HW211343   4.727   4.760   1.663
 3775SOL     OW11344   4.429   4.774   0.368
 3775SOL    HW111345   4.415   4.781   0.467
 3775SOL    HW211346   4.513   4.723   0.350
 3776SOL     OW11347   4.134   4.537   1.251
 3776SOL    HW111348   4.220   4.549   1.301
 3776SOL    HW211349   4.092   4.450   1.278
 3777SOL     OW11350   4.091   4.824   0.501
 3777SOL    HW111351   4.084   4.907   0.445
 3777SOL    HW211352   4.095   4.744   0.441
 3778SOL     OW11353   4.290   4.261   0.865
 3778SOL    HW111354   4.302   4.327   0.791
 3778SOL    HW211355   4.336   4.295   0.948
 3779SOL     OW11356   4.126   4.475   1.598
 3779SOL    HW111357   4.194   4.530   1.551
 3779SOL    HW211358   4.166   4.387   1.625
 3780SOL     OW11359   4.737   3.829   1.770
 3780SOL    HW111360   4.743   3.914   1.718
 3780SOL    HW211361   4.769   3.753   1.713
 3781SOL     OW11362   4.228   3.774   1.740
 3781SOL    HW111363   4.186   3.717   1.670
 3781SOL    HW211364   4.162   3.843   1.772
 3782SOL     OW11365   4.297   4.594   1.029
 3782SOL    HW111366   4.341   4.683   1.020
 3782SOL    HW211367   4.234   4.594   1.106
 3783SOL     OW11368   5.084   4.586   1.045
 3783SOL    HW111369   5.009   4.586   0.979
 3783SOL    HW211370   5.121   4.494   1.054
 3784SOL     OW11371   4.933   4.249   0.275
 3784SOL    HW111372   4.946   4.165   0.329
 3784SOL    HW211373   4.904   4.323   0.335
 3785SOL     OW11374   4.031   3.937   1.231
 3785SOL    HW111375   4.008   3.974   1.321
 3785SOL    HW211376   4.001   3.842   1.225
 3786SOL     OW11377   4.456   4.358   1.064
 3786SOL    HW111378   4.515   4.332   0.988
 3786SOL    HW211379   4.428   4.454   1.053
 3787SOL     OW11380   4.031   3.787   0.618
 3787SOL    HW111381   4.020   3.881   0.651
 3787SOL    HW211382   4.026   3.724   0.695
 3788SOL     OW11383   4.747   4.490   0.966
 3788SOL    HW111384   4.762   4.511   1.062
 3788SOL    HW211385   4.717   4.395   0.957
 3789SOL     OW11386   4.074   4.622   1.804
 3789SOL    HW111387   4.150   4.666   1.852
 3789SOL    HW211388   4.109   4.575   1.722
 3790SOL     OW11389   4.043   4.534   0.949
 3790SOL    HW111390   4.136   4.570   0.954
 3790SOL    HW211391   4.037   4.449   1.001
 3791SOL     OW11392   4.063   4.233   1.006
 3791SOL    HW111393   4.011   4.150   0.989
 3791SOL    HW211394   4.140   4.238   0.942
 3792SOL     OW11395   4.862   4.104   1.678
 3792SOL    HW111396   4.817   4.167   1.742
 3792SOL    HW211397   4.955   4.135   1.661
 3793SOL     OW11398   4.884   3.931   1.477
 3793SOL    HW111399   4.884   3.995   1.554
 3793SOL    HW211400   4.912   3.979   1.394
 3794SOL     OW11401   4.726   4.520   1.238
 3794SOL    HW111402   4.767   4.488   1.324
 3794SOL    HW211403   4.630   4.493   1.235
 3795SOL     OW11404   3.764   4.268   1.114
 3795SOL    HW111405   3.849   4.235   1.073
 3795SOL    HW211406   3.777   4.283   1.212
 3796SOL     OW11407   3.913   4.244   1.722
 3796SOL    HW111408   3.972   4.204   1.652
 3796SOL    HW211409   3.855   4.315   1.681
 3797SOL     OW11410   4.539   4.296   0.325
 3797SOL    HW111411   4.546   4.207   0.279
 3797SOL    HW211412   4.445   4.330   0.317
 3798SOL     OW11413   4.395   4.188   1.269
 3798SOL    HW111414   4.361   4.099   1.239
 3798SOL    HW211415   4.421   4.242   1.189
 3799SOL     OW11416   4.197   4.224   0.191
 3799SOL    HW111417   4.258   4.304   0.195
 3799SOL    HW211418   4.102   4.255   0.198
 3800SOL     OW11419   3.883   4.861   1.466
 3800SOL    HW111420   3.905   4.800   1.542
 3800SOL    HW211421   3.893   4.812   1.380
 3801SOL     OW11422   5.026   4.579   0.309
 3801SOL    HW111423   4.940   4.548   0.351
 3801SOL    HW211424   5.022   4.565   0.210
 3802SOL     OW11425   4.627   3.810   0.133
 3802SOL    HW111426   4.678   3.811   0.047
 3802SOL    HW211427   4.683   3.768   0.204
 3803SOL     OW11428   3.987   4.050   0.720
 3803SOL    HW111429   3.908   4.101   0.686
 3803SOL    HW211430   3.978   4.035   0.818
 3804SOL     OW11431   4.546   4.726   1.372
 3804SOL    HW111432   4.586   4.725   1.280
 3804SOL    HW211433   4.556   4.818   1.412
 3805SOL     OW11434   4.640   4.634   0.291
 3805SOL    HW111435   4.703   4.672   0.223
 3805SOL    HW211436   4.680   4.551   0.330
 3806SOL     OW11437   4.096   5.012   1.490
 3806SOL    HW111438   4.083   5.105   1.456
 3806SOL    HW211439   4.012   4.960   1.477
 3807SOL     OW11440   4.763   4.822   0.696
 3807SOL    HW111441   4.693   4.775   0.750
 3807SOL    HW211442   4.822   4.754   0.653
 3808SOL     OW11443   4.738   3.960   0.971
 3808SOL    HW111444   4.730   3.924   0.878
 3808SOL    HW211445   4.736   3.884   1.036
 3809SOL     OW11446   3.829   4.737   1.726
 3809SOL    HW111447   3.752   4.704   1.780
 3809SOL    HW211448   3.914   4.707   1.768
 3810SOL     OW11449   4.396   3.927   1.489
 3810SOL    HW111450   4.486   3.911   1.449
 3810SOL    HW211451   4.404   3.932   1.588
 3811SOL     OW11452   3.796   3.890   0.318
 3811SOL    HW111453   3.779   3.973   0.264
 3811SOL    HW211454   3.886   3.853   0.296
 3812SOL     OW11455   4.337   4.566   1.431
 3812SOL    HW111456   4.393   4.647   1.414
 3812SOL    HW211457   4.396   4.486   1.434
 3813SOL     OW11458   4.440   4.289   1.708
 3813SOL    HW111459   4.459   4.354   1.782
 3813SOL    HW211460   4.500   4.209   1.717
 3814SOL     OW11461   4.318   4.469   0.652
 3814SOL    HW111462   4.368   4.554   0.633
 3814SOL    HW211463   4.230   4.471   0.604
 3815SOL     OW11464   4.583   4.680   0.861
 3815SOL    HW111465   4.637   4.611   0.909
 3815SOL    HW211466   4.551   4.749   0.927
 3816SOL     OW11467   4.807   4.708   0.087
 3816SOL    HW111468   4.784   4.761   0.005
 3816SOL    HW211469   4.888   4.652   0.068
 3817SOL     OW11470   3.803   4.964   0.653
 3817SOL    HW111471   3.802   4.917   0.741
 3817SOL    HW211472   3.885   4.936   0.602
 3818SOL     OW11473   4.152   4.148   0.520
 3818SOL    HW111474   4.182   4.076   0.458
 3818SOL    HW211475   4.113   4.108   0.603
 3819SOL     OW11476   4.041   4.271   1.280
 3819SOL    HW111477   4.079   4.212   1.352
 3819SOL    HW211478   4.081   4.245   1.192
 3820SOL     OW11479   4.725   3.758   1.154
 3820SOL    HW111480   4.662   3.686   1.123
 3820SOL    HW211481   4.818   3.722   1.154
 3821SOL     OW11482   4.494   5.054   0.301
 3821SOL    HW111483   4.448   4.967   0.318
 3821SOL    HW211484   4.585   5.051   0.342
 3822SOL     OW11485   3.954   4.352   1.975
 3822SOL    HW111486   3.861   4.350   2.012
 3822SOL    HW211487   3.955   4.313   1.883
 3823SOL     OW11488   3.949   3.999   2.858
 3823SOL    HW111489   3.984   3.982   2.950
 3823SOL    HW211490   3.861   3.954   2.846
 3824SOL     OW11491   3.743   4.092   2.509
 3824SOL    HW111492   3.661   4.135   2.548
 3824SOL    HW211493   3.715   4.019   2.446
 3825SOL     OW11494   4.492   4.868   2.885
 3825SOL    HW111495   4.414   4.885   2.945
 3825SOL    HW211496   4.526   4.955   2.849
 3826SOL     OW11497   4.574   4.522   3.685
 3826SOL    HW111498   4.570   4.598   3.750
 3826SOL    HW211499   4.596   4.558   3.594
 3827SOL     OW11500   4.409   4.736   2.527
 3827SOL    HW111501   4.478   4.720   2.597
 3827SOL    HW211502   4.336   4.793   2.565
 3828SOL     OW11503   4.162   4.116   3.361
 3828SOL    HW111504   4.244   4.060   3.370
 3828SOL    HW211505   4.081   4.058   3.365
 3829SOL     OW11506   3.964   4.815   2.748
 3829SOL    HW111507   3.978   4.731   2.800
 3829SOL    HW211508   3.909   4.879   2.803
 3830SOL     OW11509   4.330   4.688   1.985
 3830SOL    HW111510   4.337   4.772   1.931
 3830SOL    HW211511   4.376   4.701   2.073
 3831SOL     OW11512   3.846   4.367   2.425
 3831SOL    HW111513   3.801   4.279   2.442
 3831SOL    HW211514   3.845   4.421   2.509
 3832SOL     OW11515   3.837   4.461   3.459
 3832SOL    HW111516   3.925   4.448   3.504
 3832SOL    HW211517   3.824   4.558   3.437
 3833SOL     OW11518   4.337   5.089   2.588
 3833SOL    HW111519   4.288   5.002   2.597
 3833SOL    HW211520   4.314   5.132   2.501
 3834SOL     OW11521   4.533   3.728   2.364
 3834SOL    HW111522   4.573   3.819   2.355
 3834SOL    HW211523   4.433   3.736   2.370
 3835SOL     OW11524   3.921   4.700   3.126
 3835SOL    HW111525   4.010   4.655   3.112
 3835SOL    HW211526   3.848   4.635   3.107
 3836SOL     OW11527   4.041   3.975   3.663
 3836SOL    HW111528   4.112   4.046   3.669
 3836SOL    HW211529   3.953   4.014   3.691
 3837SOL     OW11530   4.322   4.453   2.132
 3837SOL    HW111531   4.346   4.522   2.064
 3837SOL    HW211532   4.244   4.486   2.186
 3838SOL     OW11533   4.531   4.329   3.327
 3838SOL    HW111534   4.484   4.326   3.416
 3838SOL    HW211535   4.480   4.274   3.261
 3839SOL     OW11536   4.697   4.614   3.434
 3839SOL    HW111537   4.743   4.530   3.405
 3839SOL    HW211538   4.641   4.648   3.359
 3840SOL     OW11539   4.715   4.134   3.104
 3840SOL    HW111540   4.638   4.168   3.158
 3840SOL    HW211541   4.681   4.083   3.025
 3841SOL     OW11542   4.765   4.425   2.291
 3841SOL    HW111543   4.791   4.421   2.387
 3841SOL    HW211544   4.680   4.374   2.277
 3842SOL     OW11545   3.800   4.535   2.651
 3842SOL    HW111546   3.899   4.523   2.660
 3842SOL    HW211547   3.776   4.630   2.672
 3843SOL     OW11548   4.589   4.072   2.057
 3843SOL    HW111549   4.648   4.135   2.008
 3843SOL    HW211550   4.608   3.978   2.028
 3844SOL     OW11551   4.274   3.920   2.747
 3844SOL    HW111552   4.269   3.915   2.847
 3844SOL    HW211553   4.276   4.016   2.718
 3845SOL     OW11554   4.045   4.667   2.104
 3845SOL    HW111555   4.127   4.706   2.062
 3845SOL    HW211556   4.018   4.585   2.055
 3846SOL     OW11557   3.926   4.009   3.360
 3846SOL    HW111558   3.846   4.069   3.347
 3846SOL    HW211559   3.916   3.960   3.446
 3847SOL     OW11560   4.106   4.424   2.342
 3847SOL    HW111561   4.151   4.334   2.339
 3847SOL    HW211562   4.012   4.413   2.375
 3848SOL     OW11563   4.338   3.846   1.979
 3848SOL    HW111564   4.436   3.824   1.986
 3848SOL    HW211565   4.307   3.829   1.886
 3849SOL     OW11566   4.505   3.988   3.611
 3849SOL    HW111567   4.572   3.927   3.654
 3849SOL    HW211568   4.432   4.007   3.676
 3850SOL     OW11569   4.646   4.227   2.761
 3850SOL    HW111570   4.621   4.218   2.665
 3850SOL    HW211571   4.694   4.145   2.792
 3851SOL     OW11572   4.263   3.788   2.374
 3851SOL    HW111573   4.182   3.789   2.432
 3851SOL    HW211574   4.266   3.871   2.319
 3852SOL     OW11575   5.158   4.912   1.903
 3852SOL    HW111576   5.190   4.836   1.960
 3852SOL    HW211577   5.066   4.939   1.933
 3853SOL     OW11578   4.021   3.759   2.033
 3853SOL    HW111579   4.070   3.843   2.012
 3853SOL    HW211580   4.083   3.694   2.078
 3854SOL     OW11581   4.659   3.960   2.342
 3854SOL    HW111582   4.611   4.001   2.264
 3854SOL    HW211583   4.758   3.958   2.323
 3855SOL     OW11584   4.800   4.407   3.326
 3855SOL    HW111585   4.720   4.346   3.329
 3855SOL    HW211586   4.881   4.354   3.302
 3856SOL     OW11587   4.183   4.876   2.603
 3856SOL    HW111588   4.112   4.849   2.668
 3856SOL    HW211589   4.157   4.848   2.510
 3857SOL     OW11590   4.756   4.273   1.878
 3857SOL    HW111591   4.715   4.355   1.839
 3857SOL    HW211592   4.820   4.299   1.951
 3858SOL     OW11593   3.802   4.280   3.248
 3858SOL    HW111594   3.894   4.279   3.207
 3858SOL    HW211595   3.796   4.354   3.315
 3859SOL     OW11596   4.285   3.946   3.009
 3859SOL    HW111597   4.323   3.862   3.046
 3859SOL    HW211598   4.197   3.965   3.053
 3860SOL     OW11599   4.590   4.178   2.504
 3860SOL    HW111600   4.558   4.250   2.442
 3860SOL    HW211601   4.614   4.097   2.451
 3861SOL     OW11602   4.741   3.763   2.615
 3861SOL    HW111603   4.669   3.768   2.546
 3861SOL    HW211604   4.717   3.694   2.684
 3862SOL     OW11605   4.251   3.980   2.190
 3862SOL    HW111606   4.278   3.921   2.115
 3862SOL    HW211607   4.251   4.075   2.159
 3863SOL     OW11608   4.639   3.813   3.264
 3863SOL    HW111609   4.664   3.793   3.169
 3863SOL    HW211610   4.711   3.869   3.306
 3864SOL     OW11611   4.704   4.840   3.581
 3864SOL    HW111612   4.605   4.846   3.591
 3864SOL    HW211613   4.727   4.760   3.525
 3865SOL     OW11614   4.429   4.774   2.230
 3865SOL    HW111615   4.415   4.781   2.329
 3865SOL    HW211616   4.513   4.723   2.212
 3866SOL     OW11617   4.134   4.537   3.113
 3866SOL    HW111618   4.220   4.549   3.163
 3866SOL    HW211619   4.092   4.450   3.140
 3867SOL     OW11620   4.091   4.824   2.363
 3867SOL    HW111621   4.084   4.907   2.307
 3867SOL    HW211622   4.095   4.744   2.303
 3868SOL     OW11623   4.290   4.261   2.727
 3868SOL    HW111624   4.302   4.327   2.653
 3868SOL    HW211625   4.336   4.295   2.810
 3869SOL     OW11626   4.126   4.475   3.460
 3869SOL    HW111627   4.194   4.530   3.413
 3869SOL    HW211628   4.166   4.387   3.487
 3870SOL     OW11629   4.737   3.829   3.632
 3870SOL    HW111630   4.743   3.914   3.580
 3870SOL    HW211631   4.769   3.753   3.575
 3871SOL     OW11632   4.228   3.774   3.602
 3871SOL    HW111633   4.186   3.717   3.532
 3871SOL    HW211634   4.162   3.843   3.634
 3872SOL     OW11635   4.297   4.594   2.891
 3872SOL    HW111636   4.341   4.683   2.882
 3872SOL    HW211637   4.234   4.594   2.968
 3873SOL     OW11638   5.084   4.586   2.907
 3873SOL    HW111639   5.009   4.586   2.841
 3873SOL    HW211640   5.121   4.494   2.916
 3874SOL     OW11641   4.933   4.249   2.137
 3874SOL    HW111642   4.946   4.165   2.191
 3874SOL    HW211643   4.904   4.323   2.197
 3875SOL     OW11644   4.031   3.937   3.093
 3875SOL    HW111645   4.008   3.974   3.183
 3875SOL    HW211646   4.001   3.842   3.087
 3876SOL     OW11647   4.456   4.358   2.926
 3876SOL    HW111648   4.515   4.332   2.850
 3876SOL    HW211649   4.428   4.454   2.915
 3877SOL     OW11650   4.031   3.787   2.480
 3877SOL    HW111651   4.020   3.881   2.513
 3877SOL    HW211652   4.026   3.724   2.557
 3878SOL     OW11653   4.747   4.490   2.828
 3878SOL    HW111654   4.762   4.511   2.924
 3878SOL    HW211655   4.717   4.395   2.819
 3879SOL     OW11656   4.074   4.622   3.666
 3879SOL    HW111657   4.150   4.666   3.714
 3879SOL    HW211658   4.109   4.575   3.584
 3880SOL     OW11659   4.043   4.534   2.811
 3880SOL    HW111660   4.136   4.570   2.816
 3880SOL    HW211661   4.037   4.449   2.863
 3881SOL     OW11662   4.063   4.233   2.868
 3881SOL    HW111663   4.011   4.150   2.851
 3881SOL    HW211664   4.140   4.238   2.804
 3882SOL     OW11665   4.862   4.104   3.540
 3882SOL    HW111666   4.817   4.167   3.604
 3882SOL    HW211667   4.955   4.135   3.523
 3883SOL     OW11668   4.884   3.931   3.339
 3883SOL    HW111669   4.884   3.995   3.416
 3883SOL    HW211670   4.912   3.979   3.256
 3884SOL     OW11671   4.726   4.520   3.100
 3884SOL    HW111672   4.767   4.488   3.186
 3884SOL    HW211673   4.630   4.493   3.097
 3885SOL     OW11674   3.764   4.268   2.976
 3885SOL    HW111675   3.849   4.235   2.935
 3885SOL    HW211676   3.777   4.283   3.074
 3886SOL     OW11677   3.913   4.244   3.584
 3886SOL    HW111678   3.972   4.204   3.514
 3886SOL    HW211679   3.855   4.315   3.543
 3887SOL     OW11680   4.539   4.296   2.187
 3887SOL    HW111681   4.546   4.207   2.141
 3887SOL    HW211682   4.445   4.330   2.179
 3888SOL     OW11683   4.395   4.188   3.131
 3888SOL    HW111684   4.361   4.099   3.101
 3888SOL    HW211685   4.421   4.242   3.051
 3889SOL     OW11686   4.197   4.224   2.053
 3889SOL    HW111687   4.258   4.304   2.057
 3889SOL    HW211688   4.102   4.255   2.060
 3890SOL     OW11689   3.883   4.861   3.328
 3890SOL    HW111690   3.905   4.800   3.404
 3890SOL    HW211691   3.893   4.812   3.242
 3891SOL     OW11692   5.026   4.579   2.171
 3891SOL    HW111693   4.940   4.548   2.213
 3891SOL    HW211694   5.022   4.565   2.072
 3892SOL     OW11695   3.987   4.050   2.582
 3892SOL    HW111696   3.908   4.101   2.548
 3892SOL    HW211697   3.978   4.035   2.680
 3893SOL     OW11698   4.546   4.726   3.234
 3893SOL    HW111699   4.586   4.725   3.142
 3893SOL    HW211700   4.556   4.818   3.274
 3894SOL     OW11701   4.640   4.634   2.153
 3894SOL    HW111702   4.703   4.672   2.085
 3894SOL    HW211703   4.680   4.551   2.192
 3895SOL     OW11704   4.096   5.012   3.352
 3895SOL    HW111705   4.083   5.105   3.318
 3895SOL    HW211706   4.012   4.960   3.339
 3896SOL     OW11707   4.763   4.822   2.558
 3896SOL    HW111708   4.693   4.775   2.612
 3896SOL    HW211709   4.822   4.754   2.515
 3897SOL     OW11710   4.738   3.960   2.833
 3897SOL    HW111711   4.730   3.924   2.740
 3897SOL    HW211712   4.736   3.884   2.898
 3898SOL     OW11713   3.829   4.737   3.588
 3898SOL    HW111714   3.752   4.704   3.642
 3898SOL    HW211715   3.914   4.707   3.630
 3899SOL     OW11716   4.396   3.927   3.351
 3899SOL    HW111717   4.486   3.911   3.311
 3899SOL    HW211718   4.404   3.932   3.450
 3900SOL     OW11719   3.799   4.069   1.895
 3900SOL    HW111720   3.707   4.041   1.866
 3900SOL    HW211721   3.830   4.146   1.839
 3901SOL     OW11722   3.796   3.890   2.180
 3901SOL    HW111723   3.779   3.973   2.126
 3901SOL    HW211724   3.886   3.853   2.158
 3902SOL     OW11725   4.337   4.566   3.293
 3902SOL    HW111726   4.393   4.647   3.276
 3902SOL    HW211727   4.396   4.486   3.296
 3903SOL     OW11728   4.440   4.289   3.570
 3903SOL    HW111729   4.459   4.354   3.644
 3903SOL    HW211730   4.500   4.209   3.579
 3904SOL     OW11731   4.318   4.469   2.514
 3904SOL    HW111732   4.368   4.554   2.495
 3904SOL    HW211733   4.230   4.471   2.466
 3905SOL     OW11734   4.583   4.680   2.723
 3905SOL    HW111735   4.637   4.611   2.771
 3905SOL    HW211736   4.551   4.749   2.789
 3906SOL     OW11737   4.807   4.708   1.949
 3906SOL    HW111738   4.784   4.761   1.867
 3906SOL    HW211739   4.888   4.652   1.930
 3907SOL     OW11740   3.803   4.964   2.515
 3907SOL    HW111741   3.802   4.917   2.603
 3907SOL    HW211742   3.885   4.936   2.464
 3908SOL     OW11743   4.152   4.148   2.382
 3908SOL    HW111744   4.182   4.076   2.320
 3908SOL    HW211745   4.113   4.108   2.465
 3909SOL     OW11746   4.041   4.271   3.142
 3909SOL    HW111747   4.079   4.212   3.214
 3909SOL    HW211748   4.081   4.245   3.054
 3910SOL     OW11749   4.725   3.758   3.016
 3910SOL    HW111750   4.662   3.686   2.985
 3910SOL    HW211751   4.818   3.722   3.016
 3911SOL     OW11752   4.494   5.054   2.163
 3911SOL    HW111753   4.448   4.967   2.180
 3911SOL    HW211754   4.585   5.051   2.204
 3912SOL     OW11755   3.763   4.801   2.162
 3912SOL    HW111756   3.862   4.790   2.153
 3912SOL    HW211757   3.723   4.715   2.194
 3913SOL     OW11758   3.954   4.352   3.837
 3913SOL    HW111759   3.861   4.350   3.874
 3913SOL    HW211760   3.955   4.313   3.745
 3914SOL     OW11761   3.949   3.999   4.720
 3914SOL    HW111762   3.984   3.982   4.812
 3914SOL    HW211763   3.861   3.954   4.708
 3915SOL     OW11764   3.743   4.092   4.371
 3915SOL    HW111765   3.661   4.135   4.410
 3915SOL    HW211766   3.715   4.019   4.308
 3916SOL     OW11767   4.492   4.868   4.747
 3916SOL    HW111768   4.414   4.885   4.807
 3916SOL    HW211769   4.526   4.955   4.711
 3917SOL     OW11770   4.409   4.736   4.389
 3917SOL    HW111771   4.478   4.720   4.459
 3917SOL    HW211772   4.336   4.793   4.427
 3918SOL     OW11773   3.964   4.815   4.610
 3918SOL    HW111774   3.978   4.731   4.662
 3918SOL    HW211775   3.909   4.879   4.665
 3919SOL     OW11776   4.330   4.688   3.847
 3919SOL    HW111777   4.337   4.772   3.793
 3919SOL    HW211778   4.376   4.701   3.935
 3920SOL     OW11779   3.846   4.367   4.287
 3920SOL    HW111780   3.801   4.279   4.304
 3920SOL    HW211781   3.845   4.421   4.371
 3921SOL     OW11782   4.337   5.089   4.450
 3921SOL    HW111783   4.288   5.002   4.459
 3921SOL    HW211784   4.314   5.132   4.363
 3922SOL     OW11785   4.533   3.728   4.226
 3922SOL    HW111786   4.573   3.819   4.217
 3922SOL    HW211787   4.433   3.736   4.232
 3923SOL     OW11788   3.921   4.700   4.988
 3923SOL    HW111789   4.010   4.655   4.974
 3923SOL    HW211790   3.848   4.635   4.969
 3924SOL     OW11791   4.322   4.453   3.994
 3924SOL    HW111792   4.346   4.522   3.926
 3924SOL    HW211793   4.244   4.486   4.048
 3925SOL     OW11794   4.765   4.425   4.153
 3925SOL    HW111795   4.791   4.421   4.249
 3925SOL    HW211796   4.680   4.374   4.139
 3926SOL     OW11797   3.800   4.535   4.513
 3926SOL    HW111798   3.899   4.523   4.522
 3926SOL    HW211799   3.776   4.630   4.534
 3927SOL     OW11800   4.589   4.072   3.919
 3927SOL    HW111801   4.648   4.135   3.870
 3927SOL    HW211802   4.608   3.978   3.890
 3928SOL     OW11803   4.274   3.920   4.609
 3928SOL    HW111804   4.269   3.915   4.709
 3928SOL    HW211805   4.276   4.016   4.580
 3929SOL     OW11806   4.045   4.667   3.966
 3929SOL    HW111807   4.127   4.706   3.924
 3929SOL    HW211808   4.018   4.585   3.917
 3930SOL     OW11809   4.106   4.424   4.204
 3930SOL    HW111810   4.151   4.334   4.201
 3930SOL    HW211811   4.012   4.413   4.237
 3931SOL     OW11812   4.338   3.846   3.841
 3931SOL    HW111813   4.436   3.824   3.848
 3931SOL    HW211814   4.307   3.829   3.748
 3932SOL     OW11815   4.646   4.227   4.623
 3932SOL    HW111816   4.621   4.218   4.527
 3932SOL    HW211817   4.694   4.145   4.654
 3933SOL     OW11818   4.263   3.788   4.236
 3933SOL    HW111819   4.182   3.789   4.294
 3933SOL    HW211820   4.266   3.871   4.181
 3934SOL     OW11821   5.158   4.912   3.765
 3934SOL    HW111822   5.190   4.836   3.822
 3934SOL    HW211823   5.066   4.939   3.795
 3935SOL     OW11824   4.021   3.759   3.895
 3935SOL    HW111825   4.070   3.843   3.874
 3935SOL    HW211826   4.083   3.694   3.940
 3936SOL     OW11827   4.659   3.960   4.204
 3936SOL    HW111828   4.611   4.001   4.126
 3936SOL    HW211829   4.758   3.958   4.185
 3937SOL     OW11830   4.183   4.876   4.465
 3937SOL    HW111831   4.112   4.849   4.530
 3937SOL    HW211832   4.157   4.848   4.372
 3938SOL     OW11833   4.756   4.273   3.740
 3938SOL    HW111834   4.715   4.355   3.701
 3938SOL    HW211835   4.820   4.299   3.813
 3939SOL     OW11836   4.590   4.178   4.366
 3939SOL    HW111837   4.558   4.250   4.304
 3939SOL    HW211838   4.614   4.097   4.313
 3940SOL     OW11839   4.741   3.763   4.477
 3940SOL    HW111840   4.669   3.768   4.408
 3940SOL    HW211841   4.717   3.694   4.546
 3941SOL     OW11842   4.251   3.980   4.052
 3941SOL    HW111843   4.278   3.921   3.977
 3941SOL    HW211844   4.251   4.075   4.021
 3942SOL     OW11845   4.835   4.919   4.824
 3942SOL    HW111846   4.795   4.963   4.905
 3942SOL    HW211847   4.794   4.956   4.741
 3943SOL     OW11848   4.429   4.774   4.092
 3943SOL    HW111849   4.415   4.781   4.191
 3943SOL    HW211850   4.513   4.723   4.074
 3944SOL     OW11851   4.134   4.537   4.975
 3944SOL    HW111852   4.220   4.549   5.025
 3944SOL    HW211853   4.092   4.450   5.002
 3945SOL     OW11854   4.091   4.824   4.225
 3945SOL    HW111855   4.084   4.907   4.169
 3945SOL    HW211856   4.095   4.744   4.165
 3946SOL     OW11857   4.290   4.261   4.589
 3946SOL    HW111858   4.302   4.327   4.515
 3946SOL    HW211859   4.336   4.295   4.672
 3947SOL     OW11860   4.297   4.594   4.753
 3947SOL    HW111861   4.341   4.683   4.744
 3947SOL    HW211862   4.234   4.594   4.830
 3948SOL     OW11863   5.084   4.586   4.769
 3948SOL    HW111864   5.009   4.586   4.703
 3948SOL    HW211865   5.121   4.494   4.778
 3949SOL     OW11866   4.933   4.249   3.999
 3949SOL    HW111867   4.946   4.165   4.053
 3949SOL    HW211868   4.904   4.323   4.059
 3950SOL     OW11869   4.031   3.937   4.955
 3950SOL    HW111870   4.008   3.974   5.045
 3950SOL    HW211871   4.001   3.842   4.949
 3951SOL     OW11872   4.456   4.358   4.788
 3951SOL    HW111873   4.515   4.332   4.712
 3951SOL    HW211874   4.428   4.454   4.777
 3952SOL     OW11875   4.031   3.787   4.342
 3952SOL    HW111876   4.020   3.881   4.375
 3952SOL    HW211877   4.026   3.724   4.419
 3953SOL     OW11878   4.747   4.490   4.690
 3953SOL    HW111879   4.762   4.511   4.786
 3953SOL    HW211880   4.717   4.395   4.681
 3954SOL     OW11881   4.043   4.534   4.673
 3954SOL    HW111882   4.136   4.570   4.678
 3954SOL    HW211883   4.037   4.449   4.725
 3955SOL     OW11884   4.063   4.233   4.730
 3955SOL    HW111885   4.011   4.150   4.713
 3955SOL    HW211886   4.140   4.238   4.666
 3956SOL     OW11887   4.726   4.520   4.962
 3956SOL    HW111888   4.767   4.488   5.048
 3956SOL    HW211889   4.630   4.493   4.959
 3957SOL     OW11890   3.764   4.268   4.838
 3957SOL    HW111891   3.849   4.235   4.797
 3957SOL    HW211892   3.777   4.283   4.936
 3958SOL     OW11893   4.539   4.296   4.049
 3958SOL    HW111894   4.546   4.207   4.003
 3958SOL    HW211895   4.445   4.330   4.041
 3959SOL     OW11896   4.395   4.188   4.993
 3959SOL    HW111897   4.361   4.099   4.963
 3959SOL    HW211898   4.421   4.242   4.913
 3960SOL     OW11899   4.197   4.224   3.915
 3960SOL    HW111900   4.258   4.304   3.919
 3960SOL    HW211901   4.102   4.255   3.922
 3961SOL     OW11902   3.883   4.861   5.190
 3961SOL    HW111903   3.905   4.800   5.266
 3961SOL    HW211904   3.893   4.812   5.104
 3962SOL     OW11905   5.026   4.579   4.033
 3962SOL    HW111906   4.940   4.548   4.075
 3962SOL    HW211907   5.022   4.565   3.934
 3963SOL     OW11908   3.987   4.050   4.444
 3963SOL    HW111909   3.908   4.101   4.410
 3963SOL    HW211910   3.978   4.035   4.542
 3964SOL     OW11911   4.546   4.726   5.096
 3964SOL    HW111912   4.586   4.725   5.004
 3964SOL    HW211913   4.556   4.818   5.136
 3965SOL     OW11914   4.640   4.634   4.015
 3965SOL    HW111915   4.703   4.672   3.947
 3965SOL    HW211916   4.680   4.551   4.054
 3966SOL     OW11917   4.763   4.822   4.420
 3966SOL    HW111918   4.693   4.775   4.474
 3966SOL    HW211919   4.822   4.754   4.377
 3967SOL     OW11920   4.738   3.960   4.695
 3967SOL    HW111921   4.730   3.924   4.602
 3967SOL    HW211922   4.736   3.884   4.760
 3968SOL     OW11923   3.799   4.069   3.757
 3968SOL    HW111924   3.707   4.041   3.728
 3968SOL    HW211925   3.830   4.146   3.701
 3969SOL     OW11926   3.796   3.890   4.042
 3969SOL    HW111927   3.779   3.973   3.988
 3969SOL    HW211928   3.886   3.853   4.020
 3970SOL     OW11929   4.318   4.469   4.376
 3970SOL    HW111930   4.368   4.554   4.357
 3970SOL    HW211931   4.230   4.471   4.328
 3971SOL     OW11932   4.583   4.680   4.585
 3971SOL    HW111933   4.637   4.611   4.633
 3971SOL    HW211934   4.551   4.749   4.651
 3972SOL     OW11935   4.807   4.708   3.811
 3972SOL    HW111936   4.784   4.761   3.729
 3972SOL    HW211937   4.888   4.652   3.792
 3973SOL     OW11938   3.803   4.964   4.377
 3973SOL    HW111939   3.802   4.917   4.465
 3973SOL    HW211940   3.885   4.936   4.326
 3974SOL     OW11941   4.152   4.148   4.244
 3974SOL    HW111942   4.182   4.076   4.182
 3974SOL    HW211943   4.113   4.108   4.327
 3975SOL     OW11944   4.494   5.054   4.025
 3975SOL    HW111945   4.448   4.967   4.042
 3975SOL    HW211946   4.585   5.051   4.066
 3976SOL     OW11947   3.763   4.801   4.024
 3976SOL    HW111948   3.862   4.790   4.015
 3976SOL    HW211949   3.723   4.715   4.056
   4.95416   4.95416   4.95416
