mobley_8809190_GMX.gro created by acpype (v: 2023.10.27) on Wed May 20 23:51:19 2026
   24
    1MOL     C1    1   2.639   2.519   2.139
    1MOL     C2    2   2.664   2.614   2.238
    1MOL     C3    3   2.534   2.429   2.154
    1MOL     C4    4   2.584   2.619   2.352
    1MOL     C5    5   2.454   2.433   2.268
    1MOL     C6    6   2.480   2.528   2.366
    1MOL     C7    7   2.410   2.356   2.833
    1MOL     C8    8   2.393   2.533   2.489
    1MOL     C9    9   2.358   2.447   2.723
    1MOL    C10   10   2.448   2.444   2.600
    1MOL     H1   11   2.702   2.516   2.050
    1MOL     H2   12   2.746   2.685   2.226
    1MOL     H3   13   2.515   2.355   2.077
    1MOL     H4   14   2.604   2.693   2.428
    1MOL     H5   15   2.372   2.362   2.279
    1MOL     H6   16   2.510   2.386   2.866
    1MOL     H7   17   2.415   2.252   2.799
    1MOL     H8   18   2.343   2.359   2.920
    1MOL     H9   19   2.385   2.637   2.524
    1MOL    H10   20   2.291   2.503   2.463
    1MOL    H11   21   2.351   2.549   2.762
    1MOL    H12   22   2.256   2.416   2.696
    1MOL    H13   23   2.549   2.477   2.628
    1MOL    H14   24   2.458   2.341   2.564
   4.95416   4.95416   4.95416
