; mobley_1636752_GMX_OPLS.itp created by acpype (v: 2023.10.27) on Wed May 20 23:42:52 2026

; For OPLS atomtypes manual fine tuning
; AC_at:OPLS_at:OPLScode: Possible_Alternatives (see ffoplsaa.atp and ffoplsaanb.itp)
; c3:CT:opls_135: ['136', '137', '149', '157', '158', '206', '209', '210', '223B', '224B', '245', '246', '274', '283', '284', '285', '292', '292B', '293B', '296', '307', '308', '505']
; oh:OH:opls_154: ['167']
; h1:HC:opls_140: []
; ho:HO:opls_155: ['168']

[ moleculetype ]
;name            nrexcl
 mobley_1636752   3

[ atoms ]
;   nr  type  resi  res  atom  cgnr     charge      mass       ; qtot   bond_type
     1 opls_135     1   MOL    C1    1     0.116700     12.01100 ; qtot  0.117  CT  
     2 opls_154     1   MOL    O1    2    -0.598800     15.99940 ; qtot -0.482  OH  
     3 opls_140     1   MOL    H1    3     0.028700      1.00800 ; qtot -0.453  HC  
     4 opls_140     1   MOL    H2    4     0.028700      1.00800 ; qtot -0.425  HC  
     5 opls_140     1   MOL    H3    5     0.028700      1.00800 ; qtot -0.396  HC  
     6 opls_155     1   MOL    H4    6     0.396000      1.00800 ; qtot -0.000  HO  

[ bonds ]
;   ai     aj funct   r             k
     1      2   1 ;    1.4242e-01    2.3861e+05 ;     C1 - O1         CT - OH    
     1      3   1 ;    1.0969e-01    2.8804e+05 ;     C1 - H1         CT - HC    
     1      4   1 ;    1.0969e-01    2.8804e+05 ;     C1 - H2         CT - HC    
     1      5   1 ;    1.0969e-01    2.8804e+05 ;     C1 - H3         CT - HC    
     2      6   1 ;    9.7250e-02    4.4811e+05 ;     O1 - H4         OH - HO    

[ pairs ]
;   ai     aj    funct
     3      6      1 ;     H1 - H4    
     4      6      1 ;     H2 - H4    
     5      6      1 ;     H3 - H4    

[ angles ]
;   ai     aj     ak    funct   theta         cth
     1      2      6      1 ;    1.0739e+02    5.4501e+02 ;     C1 - O1   - H4       CT -   OH - HO  
     2      1      3      1 ;    1.1038e+02    4.7103e+02 ;     O1 - C1   - H1       OH -   CT - HC  
     2      1      4      1 ;    1.1038e+02    4.7103e+02 ;     O1 - C1   - H2       OH -   CT - HC  
     2      1      5      1 ;    1.1038e+02    4.7103e+02 ;     O1 - C1   - H3       OH -   CT - HC  
     3      1      4      1 ;    1.0855e+02    2.9824e+02 ;     H1 - C1   - H2       HC -   CT - HC  
     3      1      5      1 ;    1.0855e+02    2.9824e+02 ;     H1 - C1   - H3       HC -   CT - HC  
     4      1      5      1 ;    1.0855e+02    2.9824e+02 ;     H2 - C1   - H3       HC -   CT - HC  

[ dihedrals ] ; propers
; for gromacs 4.5 or higher, using funct 9
;    i      j      k      l   func   phase     kd      pn
     3      1      2      6      9 ;     0.00   0.51463   3 ;     H1-    C1-    O1-    H4
     4      1      2      6      9 ;     0.00   0.51463   3 ;     H2-    C1-    O1-    H4
     5      1      2      6      9 ;     0.00   0.51463   3 ;     H3-    C1-    O1-    H4
