; mobley_1636752_GMX_OPLS.top created by acpype (v: 2023.10.27) on Wed May 20 23:42:52 2026

; Include forcefield parameters
#include "ffoplsaa.itp"

; Include mobley_1636752_GMX.itp topology
#include "mobley_1636752_GMX.itp"

; Ligand position restraints
#ifdef POSRES_LIG
#include "posre_mobley_1636752.itp"
#endif

[ system ]
 mobley_1636752

[ molecules ]
; Compound        nmols
 mobley_1636752   1     
