mobley_1636752_GMX.gro created by acpype (v: 2023.10.27) on Wed May 20 23:42:52 2026
 6
    1  MOL   C1    1   0.028   0.077   0.072
    1  MOL   O1    2  -0.031   0.200   0.036
    1  MOL   H1    3   0.137   0.088   0.075
    1  MOL   H2    4  -0.000  -0.000   0.000
    1  MOL   H3    5  -0.007   0.048   0.172
    1  MOL   H4    6   0.002   0.223  -0.052
    3.36200     4.46200     4.47600
