pentanal
    16
   3.9380000  -4.1330000   1.7330000   1.0280000  -0.2940000   0.2370000
   2.5430000  -3.6680000   1.3870000   1.0770000  -1.7590000   0.6390000
   2.4920000  -2.1880000   1.0220000   4.9390000  -3.4260000   1.6980000
   4.0120000  -5.1920000   2.0360000   0.0060000  -0.0090000  -0.0340000
   1.6740000  -0.1020000  -0.6250000   1.3530000   0.3500000   1.0610000
   2.1910000  -4.2810000   0.5500000   1.9040000  -3.8720000   2.2520000
   0.7140000  -2.3730000  -0.1940000   0.3960000  -1.9240000   1.4830000
   2.8440000  -1.5870000   1.8690000   3.1770000  -1.9890000   0.1890000
