; mobley_8492526_GMX.top created by acpype (v: 2023.10.27) on Wed May 20 23:41:31 2026

[ defaults ]
; nbfunc        comb-rule       gen-pairs       fudgeLJ fudgeQQ
1               2               yes             0.5     0.8333333333

; Include mobley_8492526_GMX.itp topology
#include "mobley_8492526_GMX.itp"

; Ligand position restraints
#ifdef POSRES_LIG
#include "posre_mobley_8492526.itp"
#endif

[ system ]
mobley_8492526 in water

[ molecules ]
; Compound        nmols
 mobley_8492526   1     
SOL              3328
