; mobley_8492526_GMX.itp created by acpype (v: 2023.10.27) on Wed May 20 23:41:31 2026

[ atomtypes ]
;name   bond_type     mass     charge   ptype   sigma         epsilon       Amb
 c        c           0.00000  0.00000   A     3.31521e-01   4.13379e-01 ; 1.86  0.0988
 c3       c3          0.00000  0.00000   A     3.39771e-01   4.51035e-01 ; 1.91  0.1078
 o        o           0.00000  0.00000   A     3.04812e-01   6.12119e-01 ; 1.71  0.1463
 h4       h4          0.00000  0.00000   A     2.53639e-01   6.73624e-02 ; 1.42  0.0161
 hc       hc          0.00000  0.00000   A     2.60018e-01   8.70272e-02 ; 1.46  0.0208

[ moleculetype ]
;name            nrexcl
 mobley_8492526   3

[ atoms ]
;   nr  type  resi  res  atom  cgnr     charge      mass       ; qtot   bond_type
     1    c     1   MOL    C1    1     0.560901     12.01000 ; qtot 0.561
     2   c3     1   MOL    C2    2    -0.092100     12.01000 ; qtot 0.469
     3   c3     1   MOL    C3    3    -0.198400     12.01000 ; qtot 0.270
     4   c3     1   MOL    C4    4    -0.079400     12.01000 ; qtot 0.191
     5   c3     1   MOL    C5    5    -0.075400     12.01000 ; qtot 0.116
     6    o     1   MOL    O1    6    -0.524100     16.00000 ; qtot -0.408
     7   h4     1   MOL    H1    7    -0.010800      1.00800 ; qtot -0.419
     8   hc     1   MOL    H2    8     0.035033      1.00800 ; qtot -0.384
     9   hc     1   MOL    H3    9     0.035033      1.00800 ; qtot -0.349
    10   hc     1   MOL    H4   10     0.035033      1.00800 ; qtot -0.314
    11   hc     1   MOL    H5   11     0.065700      1.00800 ; qtot -0.248
    12   hc     1   MOL    H6   12     0.065700      1.00800 ; qtot -0.183
    13   hc     1   MOL    H7   13     0.036700      1.00800 ; qtot -0.146
    14   hc     1   MOL    H8   14     0.036700      1.00800 ; qtot -0.109
    15   hc     1   MOL    H9   15     0.054700      1.00800 ; qtot -0.055
    16   hc     1   MOL   H10   16     0.054700      1.00800 ; qtot 0.000

[ bonds ]
;   ai     aj funct   r             k
     1      3   1    1.5270e-01    1.9652e+05 ;     C1 - C3    
     1      6   1    1.2190e-01    4.9421e+05 ;     C1 - O1    
     1      7   1    1.1123e-01    2.6984e+05 ;     C1 - H1    
     2      4   1    1.5354e-01    1.9154e+05 ;     C2 - C4    
     2      8   1    1.0962e-01    2.8891e+05 ;     C2 - H2    
     2      9   1    1.0962e-01    2.8891e+05 ;     C2 - H3    
     2     10   1    1.0962e-01    2.8891e+05 ;     C2 - H4    
     3      5   1    1.5354e-01    1.9154e+05 ;     C3 - C5    
     3     11   1    1.0962e-01    2.8891e+05 ;     C3 - H5    
     3     12   1    1.0962e-01    2.8891e+05 ;     C3 - H6    
     4      5   1    1.5354e-01    1.9154e+05 ;     C4 - C5    
     4     13   1    1.0962e-01    2.8891e+05 ;     C4 - H7    
     4     14   1    1.0962e-01    2.8891e+05 ;     C4 - H8    
     5     15   1    1.0962e-01    2.8891e+05 ;     C5 - H9    
     5     16   1    1.0962e-01    2.8891e+05 ;     C5 - H10   

[ pairs ]
;   ai     aj    funct
     1      4      1 ;     C1 - C4    
     1     15      1 ;     C1 - H9    
     1     16      1 ;     C1 - H10   
     2      3      1 ;     C2 - C3    
     2     15      1 ;     C2 - H9    
     2     16      1 ;     C2 - H10   
     3     13      1 ;     C3 - H7    
     3     14      1 ;     C3 - H8    
     4     11      1 ;     C4 - H5    
     4     12      1 ;     C4 - H6    
     5      8      1 ;     C5 - H2    
     5      9      1 ;     C5 - H3    
     5     10      1 ;     C5 - H4    
     6      5      1 ;     O1 - C5    
     6     11      1 ;     O1 - H5    
     6     12      1 ;     O1 - H6    
     7      5      1 ;     H1 - C5    
     7     11      1 ;     H1 - H5    
     7     12      1 ;     H1 - H6    
     8     13      1 ;     H2 - H7    
     8     14      1 ;     H2 - H8    
     9     13      1 ;     H3 - H7    
     9     14      1 ;     H3 - H8    
    10     13      1 ;     H4 - H7    
    10     14      1 ;     H4 - H8    
    11     15      1 ;     H5 - H9    
    11     16      1 ;     H5 - H10   
    12     15      1 ;     H6 - H9    
    12     16      1 ;     H6 - H10   
    13     15      1 ;     H7 - H9    
    13     16      1 ;     H7 - H10   
    14     15      1 ;     H8 - H9    
    14     16      1 ;     H8 - H10   

[ angles ]
;   ai     aj     ak    funct   theta         cth
     1      3      5      1    1.1143e+02    5.0509e+02 ;     C1 - C3     - C5    
     1      3     11      1    1.0895e+02    3.6510e+02 ;     C1 - C3     - H5    
     1      3     12      1    1.0895e+02    3.6510e+02 ;     C1 - C3     - H6    
     2      4      5      1    1.1263e+02    5.0099e+02 ;     C2 - C4     - C5    
     2      4     13      1    1.0968e+02    3.6208e+02 ;     C2 - C4     - H7    
     2      4     14      1    1.0968e+02    3.6208e+02 ;     C2 - C4     - H8    
     3      1      6      1    1.2290e+02    6.3973e+02 ;     C3 - C1     - O1    
     3      1      7      1    1.1471e+02    3.5522e+02 ;     C3 - C1     - H1    
     3      5      4      1    1.1263e+02    5.0099e+02 ;     C3 - C5     - C4    
     3      5     15      1    1.0968e+02    3.6208e+02 ;     C3 - C5     - H9    
     3      5     16      1    1.0968e+02    3.6208e+02 ;     C3 - C5     - H10   
     4      2      8      1    1.0968e+02    3.6208e+02 ;     C4 - C2     - H2    
     4      2      9      1    1.0968e+02    3.6208e+02 ;     C4 - C2     - H3    
     4      2     10      1    1.0968e+02    3.6208e+02 ;     C4 - C2     - H4    
     4      5     15      1    1.0968e+02    3.6208e+02 ;     C4 - C5     - H9    
     4      5     16      1    1.0968e+02    3.6208e+02 ;     C4 - C5     - H10   
     5      3     11      1    1.0968e+02    3.6208e+02 ;     C5 - C3     - H5    
     5      3     12      1    1.0968e+02    3.6208e+02 ;     C5 - C3     - H6    
     5      4     13      1    1.0968e+02    3.6208e+02 ;     C5 - C4     - H7    
     5      4     14      1    1.0968e+02    3.6208e+02 ;     C5 - C4     - H8    
     6      1      7      1    1.2062e+02    5.0191e+02 ;     O1 - C1     - H1    
     8      2      9      1    1.0773e+02    2.9957e+02 ;     H2 - C2     - H3    
     8      2     10      1    1.0773e+02    2.9957e+02 ;     H2 - C2     - H4    
     9      2     10      1    1.0773e+02    2.9957e+02 ;     H3 - C2     - H4    
    11      3     12      1    1.0773e+02    2.9957e+02 ;     H5 - C3     - H6    
    13      4     14      1    1.0773e+02    2.9957e+02 ;     H7 - C4     - H8    
    15      5     16      1    1.0773e+02    2.9957e+02 ;     H9 - C5     - H10   

[ dihedrals ] ; propers
; for gromacs 4.5 or higher, using funct 9
;    i      j      k      l   func   phase     kd      pn
     1      3      5      4      9     0.00   0.00000   0 ;     C1-    C3-    C5-    C4
     1      3      5      4      9     0.00   0.16736   2 ;     C1-    C3-    C5-    C4
     1      3      5      4      9   180.00   1.92464   1 ;     C1-    C3-    C5-    C4
     1      3      5     15      9     0.00   0.65084   3 ;     C1-    C3-    C5-    H9
     1      3      5     16      9     0.00   0.65084   3 ;     C1-    C3-    C5-   H10
     2      4      5      3      9     0.00   2.17568   3 ;     C2-    C4-    C5-    C3
     2      4      5     15      9     0.00   0.54392   3 ;     C2-    C4-    C5-    H9
     2      4      5     16      9     0.00   0.54392   3 ;     C2-    C4-    C5-   H10
     3      5      4     13      9     0.00   0.54392   3 ;     C3-    C5-    C4-    H7
     3      5      4     14      9     0.00   0.54392   3 ;     C3-    C5-    C4-    H8
     4      5      3     11      9     0.00   0.54392   3 ;     C4-    C5-    C3-    H5
     4      5      3     12      9     0.00   0.54392   3 ;     C4-    C5-    C3-    H6
     5      4      2      8      9     0.00   0.54392   3 ;     C5-    C4-    C2-    H2
     5      4      2      9      9     0.00   0.54392   3 ;     C5-    C4-    C2-    H3
     5      4      2     10      9     0.00   0.54392   3 ;     C5-    C4-    C2-    H4
     6      1      3      5      9     0.00   2.84512   1 ;     O1-    C1-    C3-    C5
     6      1      3      5      9   180.00   0.83680   2 ;     O1-    C1-    C3-    C5
     6      1      3      5      9   180.00   1.84096   3 ;     O1-    C1-    C3-    C5
     6      1      3     11      9     0.00  16.86152   1 ;     O1-    C1-    C3-    H5
     6      1      3     11      9   180.00  15.31344   2 ;     O1-    C1-    C3-    H5
     6      1      3     12      9     0.00  16.86152   1 ;     O1-    C1-    C3-    H6
     6      1      3     12      9   180.00  15.31344   2 ;     O1-    C1-    C3-    H6
     7      1      3      5      9   180.00   0.00000   2 ;     H1-    C1-    C3-    C5
     7      1      3     11      9   180.00   0.00000   2 ;     H1-    C1-    C3-    H5
     7      1      3     12      9   180.00   0.00000   2 ;     H1-    C1-    C3-    H6
     8      2      4     13      9     0.00   0.50208   3 ;     H2-    C2-    C4-    H7
     8      2      4     14      9     0.00   0.50208   3 ;     H2-    C2-    C4-    H8
     9      2      4     13      9     0.00   0.50208   3 ;     H3-    C2-    C4-    H7
     9      2      4     14      9     0.00   0.50208   3 ;     H3-    C2-    C4-    H8
    10      2      4     13      9     0.00   0.50208   3 ;     H4-    C2-    C4-    H7
    10      2      4     14      9     0.00   0.50208   3 ;     H4-    C2-    C4-    H8
    11      3      5     15      9     0.00   0.50208   3 ;     H5-    C3-    C5-    H9
    11      3      5     16      9     0.00   0.50208   3 ;     H5-    C3-    C5-   H10
    12      3      5     15      9     0.00   0.50208   3 ;     H6-    C3-    C5-    H9
    12      3      5     16      9     0.00   0.50208   3 ;     H6-    C3-    C5-   H10
    13      4      5     15      9     0.00   0.50208   3 ;     H7-    C4-    C5-    H9
    13      4      5     16      9     0.00   0.50208   3 ;     H7-    C4-    C5-   H10
    14      4      5     15      9     0.00   0.50208   3 ;     H8-    C4-    C5-    H9
    14      4      5     16      9     0.00   0.50208   3 ;     H8-    C4-    C5-   H10

[ dihedrals ] ; impropers
; treated as propers in GROMACS to use correct AMBER analytical function
;    i      j      k      l   func   phase     kd      pn
     6      1      7      3      4   180.00   4.60240   2 ;     O1-    C1-    H1-    C3
