mobley_8492526_GMX.gro created by acpype (v: 2023.10.27) on Wed May 20 23:41:31 2026
 16
    1  MOL   C1    1   0.394  -0.413   0.173
    1  MOL   C2    2   0.103  -0.029   0.024
    1  MOL   C3    3   0.254  -0.367   0.139
    1  MOL   C4    4   0.108  -0.176   0.064
    1  MOL   C5    5   0.249  -0.219   0.102
    1  MOL   O1    6   0.494  -0.343   0.170
    1  MOL   H1    7   0.401  -0.519   0.204
    1  MOL   H2    8   0.001  -0.001  -0.003
    1  MOL   H3    9   0.167  -0.010  -0.062
    1  MOL   H4   10   0.135   0.035   0.106
    1  MOL   H5   11   0.219  -0.428   0.055
    1  MOL   H6   12   0.190  -0.387   0.225
    1  MOL   H7   13   0.071  -0.237  -0.019
    1  MOL   H8   14   0.040  -0.192   0.148
    1  MOL   H9   15   0.284  -0.159   0.187
    1  MOL  H10   16   0.318  -0.199   0.019
    9.86600    11.08400     5.75400
