4_chlorophenol
    13
   0.8180000  -0.4390000   0.5640000   2.9370000  -1.5970000   0.6200000
   0.7990000  -0.4060000   1.9590000   2.9180000  -1.5650000   2.0140000
   1.8870000  -1.0340000  -0.1050000   1.8500000  -0.9690000   2.6840000
   1.9060000  -1.0640000  -1.4660000   1.8270000  -0.9290000   4.4040000
  -0.0030000   0.0030000   0.0050000   3.7730000  -2.0620000   0.1040000
  -0.0400000   0.0620000   2.4670000   3.7440000  -2.0070000   2.5660000
   2.6780000  -1.5830000  -1.7580000
