; mobley_7066554_GMX_OPLS.top created by acpype (v: 2023.10.27) on Wed May 20 23:51:09 2026

; Include forcefield parameters
#include "ffoplsaa.itp"

; Include mobley_7066554_GMX.itp topology
#include "mobley_7066554_GMX.itp"

; Ligand position restraints
#ifdef POSRES_LIG
#include "posre_mobley_7066554.itp"
#endif

[ system ]
 mobley_7066554

[ molecules ]
; Compound        nmols
 mobley_7066554   1     
