; mobley_2972906_GMX_OPLS.top created by acpype (v: 2023.10.27) on Wed May 20 23:44:13 2026

; Include forcefield parameters
#include "ffoplsaa.itp"

; Include mobley_2972906_GMX.itp topology
#include "mobley_2972906_GMX.itp"

; Ligand position restraints
#ifdef POSRES_LIG
#include "posre_mobley_2972906.itp"
#endif

[ system ]
 mobley_2972906

[ molecules ]
; Compound        nmols
 mobley_2972906   1     
