mobley_2972906_GMX.gro created by acpype (v: 2023.10.27) on Wed May 20 23:44:13 2026
 9
    1  MOL   C1    1  -0.536  -0.628  -0.165
    1  MOL   C2    2  -0.448  -0.564  -0.256
    1  MOL   C3    3  -0.327  -0.533  -0.198
    1  MOL   S1    4  -0.320  -0.581  -0.034
    1  MOL   C4    5  -0.479  -0.644  -0.040
    1  MOL   H1    6  -0.636  -0.661  -0.189
    1  MOL   H2    7  -0.471  -0.541  -0.359
    1  MOL   H3    8  -0.242  -0.484  -0.244
    1  MOL   H4    9  -0.524  -0.689   0.048
    7.88400     4.10200     8.13200
