ZINC01597767
     9
  -5.3600000  -6.2800000  -1.6460000  -4.4750000  -5.6360000  -2.5590000
  -3.2660000  -5.3250000  -1.9760000  -3.2020000  -5.8080000  -0.3350000
  -4.7930000  -6.4360000  -0.4000000  -6.3600000  -6.6120000  -1.8910000
  -4.7130000  -5.4130000  -3.5910000  -2.4180000  -4.8370000  -2.4350000
  -5.2370000  -6.8880000   0.4750000
