; mobley_2972906_GMX_OPLS.itp created by acpype (v: 2023.10.27) on Wed May 20 23:44:13 2026

; For OPLS atomtypes manual fine tuning
; AC_at:OPLS_at:OPLScode: Possible_Alternatives (see ffoplsaa.atp and ffoplsaanb.itp)
; cc:C*:opls_500: ['506', '507', '508', '514']
; cd:C*:opls_500: ['506', '507', '508', '514']
; ss:S:opls_202: []
; ha:HA:opls_146: []
; h4:HA:opls_146: []

[ moleculetype ]
;name            nrexcl
 mobley_2972906   3

[ atoms ]
;   nr  type  resi  res  atom  cgnr     charge      mass       ; qtot   bond_type
     1 opls_500     1   MOL    C1    1    -0.157000     12.01100 ; qtot -0.157  C*  
     2 opls_500     1   MOL    C2    2    -0.157000     12.01100 ; qtot -0.314  C*  
     3 opls_500     1   MOL    C3    3    -0.168100     12.01100 ; qtot -0.482  C*  
     4 opls_202     1   MOL    S1    4     0.008200     32.06000 ; qtot -0.474  S   
     5 opls_500     1   MOL    C4    5    -0.168100     12.01100 ; qtot -0.642  C*  
     6 opls_146     1   MOL    H1    6     0.152000      1.00800 ; qtot -0.490  HA  
     7 opls_146     1   MOL    H2    7     0.152000      1.00800 ; qtot -0.338  HA  
     8 opls_146     1   MOL    H3    8     0.169000      1.00800 ; qtot -0.169  HA  
     9 opls_146     1   MOL    H4    9     0.169000      1.00800 ; qtot  0.000  HA  

[ bonds ]
;   ai     aj funct   r             k
     1      2   1 ;    1.4274e-01    2.6947e+05 ;     C1 - C2         C* - C*    
     1      5   1 ;    1.3730e-01    3.2321e+05 ;     C1 - C4         C* - C*    
     1      6   1 ;    1.0838e-01    3.0470e+05 ;     C1 - H1         C* - HA    
     2      3   1 ;    1.3730e-01    3.2321e+05 ;     C2 - C3         C* - C*    
     2      7   1 ;    1.0838e-01    3.0470e+05 ;     C2 - H2         C* - HA    
     3      4   1 ;    1.7622e-01    1.8956e+05 ;     C3 - S1         C* - S     
     3      8   1 ;    1.0818e-01    3.0735e+05 ;     C3 - H3         C* - HA    
     4      5   1 ;    1.7622e-01    1.8956e+05 ;     S1 - C4          S - C*    
     5      9   1 ;    1.0818e-01    3.0735e+05 ;     C4 - H4         C* - HA    

[ pairs ]
;   ai     aj    funct
     1      8      1 ;     C1 - H3    
     2      9      1 ;     C2 - H4    
     3      9      1 ;     C3 - H4    
     4      7      1 ;     S1 - H2    
     5      7      1 ;     C4 - H2    
     5      8      1 ;     C4 - H3    
     6      3      1 ;     H1 - C3    
     6      4      1 ;     H1 - S1    
     6      7      1 ;     H1 - H2    
     6      9      1 ;     H1 - H4    
     7      8      1 ;     H2 - H3    

[ angles ]
;   ai     aj     ak    funct   theta         cth
     1      2      3      1 ;    1.1919e+02    5.3363e+02 ;     C1 - C2   - C3       C* -   C* - C*  
     1      2      7      1 ;    1.1971e+02    3.6987e+02 ;     C1 - C2   - H2       C* -   C* - HA  
     1      5      4      1 ;    1.1335e+02    5.5095e+02 ;     C1 - C4   - S1       C* -   C* - S   
     1      5      9      1 ;    1.2764e+02    3.6987e+02 ;     C1 - C4   - H4       C* -   C* - HA  
     2      1      5      1 ;    1.1919e+02    5.3363e+02 ;     C2 - C1   - C4       C* -   C* - C*  
     2      1      6      1 ;    1.1971e+02    3.6987e+02 ;     C2 - C1   - H1       C* -   C* - HA  
     2      3      4      1 ;    1.1335e+02    5.5095e+02 ;     C2 - C3   - S1       C* -   C* - S   
     2      3      8      1 ;    1.2764e+02    3.6987e+02 ;     C2 - C3   - H3       C* -   C* - HA  
     3      2      7      1 ;    1.2140e+02    3.7907e+02 ;     C3 - C2   - H2       C* -   C* - HA  
     3      4      5      1 ;    8.9930e+01    8.5262e+02 ;     C3 - S1   - C4       C* -    S - C*  
     4      3      8      1 ;    1.2020e+02    3.5054e+02 ;     S1 - C3   - H3        S -   C* - HA  
     4      5      9      1 ;    1.2020e+02    3.5054e+02 ;     S1 - C4   - H4        S -   C* - HA  
     5      1      6      1 ;    1.2140e+02    3.7907e+02 ;     C4 - C1   - H1       C* -   C* - HA  

[ dihedrals ] ; propers
; for gromacs 4.5 or higher, using funct 9
;    i      j      k      l   func   phase     kd      pn
     1      2      3      4      9 ;   180.00  16.73600   2 ;     C1-    C2-    C3-    S1
     1      2      3      8      9 ;   180.00  16.73600   2 ;     C1-    C2-    C3-    H3
     1      5      4      3      9 ;   180.00  10.16712   1 ;     C1-    C4-    S1-    C3
     2      1      5      4      9 ;   180.00  16.73600   2 ;     C2-    C1-    C4-    S1
     2      1      5      9      9 ;   180.00  16.73600   2 ;     C2-    C1-    C4-    H4
     2      3      4      5      9 ;   180.00  10.16712   1 ;     C2-    C3-    S1-    C4
     3      4      5      9      9 ;   180.00   4.60240   2 ;     C3-    S1-    C4-    H4
     4      3      2      7      9 ;   180.00  16.73600   2 ;     S1-    C3-    C2-    H2
     5      1      2      3      9 ;   180.00  16.73600   2 ;     C4-    C1-    C2-    C3
     5      1      2      7      9 ;   180.00  16.73600   2 ;     C4-    C1-    C2-    H2
     5      4      3      8      9 ;   180.00   4.60240   2 ;     C4-    S1-    C3-    H3
     6      1      2      3      9 ;   180.00  16.73600   2 ;     H1-    C1-    C2-    C3
     6      1      2      7      9 ;   180.00  16.73600   2 ;     H1-    C1-    C2-    H2
     6      1      5      4      9 ;   180.00  16.73600   2 ;     H1-    C1-    C4-    S1
     6      1      5      9      9 ;   180.00  16.73600   2 ;     H1-    C1-    C4-    H4
     7      2      3      8      9 ;   180.00  16.73600   2 ;     H2-    C2-    C3-    H3

[ dihedrals ] ; impropers
; treated as propers in GROMACS to use correct AMBER analytical function
;    i      j      k      l   func   phase     kd      pn
     1      3      2      7      4 ;   180.00   4.60240   2 ;     C1-    C3-    C2-    H2
     1      9      5      4      4 ;   180.00   4.60240   2 ;     C1-    H4-    C4-    S1
     2      8      3      4      4 ;   180.00   4.60240   2 ;     C2-    H3-    C3-    S1
     6      1      5      2      4 ;   180.00   4.60240   2 ;     H1-    C1-    C4-    C2
