%VERSION  VERSION_STAMP = V0001.000  DATE = 05/20/26  23:44:13                  
%FLAG TITLE                                                                     
%FORMAT(20a4)                                                                   
ZINC01597767                                                                    
%FLAG POINTERS                                                                  
%FORMAT(10I8)                                                                   
       9       4       4       5       8       5      15       5       0       0
      35       1       5       5       5       5       7       4       5       0
       0       0       0       0       0       0       0       0       9       0
       0
%FLAG ATOM_NAME                                                                 
%FORMAT(20a4)                                                                   
C1  C2  C3  S1  C4  H1  H2  H3  H4  
%FLAG CHARGE                                                                    
%FORMAT(5E16.8)                                                                 
 -2.86090110E+00 -2.86090110E+00 -3.08139093E+00  1.49422860E-01 -3.08139093E+00
  2.76978960E+00  2.76978960E+00  3.07956870E+00  3.07956870E+00
%FLAG ATOMIC_NUMBER                                                             
%FORMAT(10I8)                                                                   
       6       6       6      16       6       1       1       1       1
%FLAG MASS                                                                      
%FORMAT(5E16.8)                                                                 
  1.20100000E+01  1.20100000E+01  1.20100000E+01  3.20600000E+01  1.20100000E+01
  1.00800000E+00  1.00800000E+00  1.00800000E+00  1.00800000E+00
%FLAG ATOM_TYPE_INDEX                                                           
%FORMAT(10I8)                                                                   
       1       1       1       2       1       3       3       4       4
%FLAG NUMBER_EXCLUDED_ATOMS                                                     
%FORMAT(10I8)                                                                   
       8       7       6       5       4       2       1       1       1
%FLAG NONBONDED_PARM_INDEX                                                      
%FORMAT(10I8)                                                                   
       1       2       4       7       2       3       5       8       4       5
       6       9       7       8       9      10
%FLAG RESIDUE_LABEL                                                             
%FORMAT(20a4)                                                                   
MOL 
%FLAG RESIDUE_POINTER                                                           
%FORMAT(10I8)                                                                   
       1
%FLAG BOND_FORCE_CONSTANT                                                       
%FORMAT(5E16.8)                                                                 
  3.22020000E+02  3.86240000E+02  3.64120000E+02  2.26530000E+02  3.67290000E+02
%FLAG BOND_EQUIL_VALUE                                                          
%FORMAT(5E16.8)                                                                 
  1.42740000E+00  1.37300000E+00  1.08380000E+00  1.76220000E+00  1.08180000E+00
%FLAG ANGLE_FORCE_CONSTANT                                                      
%FORMAT(5E16.8)                                                                 
  6.37700000E+01  4.42000000E+01  6.58400000E+01  4.42000000E+01  4.53000000E+01
  1.01890000E+02  4.18900000E+01
%FLAG ANGLE_EQUIL_VALUE                                                         
%FORMAT(5E16.8)                                                                 
  2.08025883E+00  2.08933454E+00  1.97833156E+00  2.22773921E+00  2.11883062E+00
  1.56957527E+00  2.09788666E+00
%FLAG DIHEDRAL_FORCE_CONSTANT                                                   
%FORMAT(5E16.8)                                                                 
  4.00000000E+00  2.43000000E+00  1.10000000E+00  1.10000000E+00
%FLAG DIHEDRAL_PERIODICITY                                                      
%FORMAT(5E16.8)                                                                 
  2.00000000E+00  1.00000000E+00  2.00000000E+00  2.00000000E+00
%FLAG DIHEDRAL_PHASE                                                            
%FORMAT(5E16.8)                                                                 
  3.14159400E+00  3.14159400E+00  3.14159400E+00  3.14159400E+00
%FLAG SCEE_SCALE_FACTOR                                                         
%FORMAT(5E16.8)                                                                 
  1.20000000E+00  1.20000000E+00  1.20000000E+00  0.00000000E+00
%FLAG SCNB_SCALE_FACTOR                                                         
%FORMAT(5E16.8)                                                                 
  2.00000000E+00  2.00000000E+00  2.00000000E+00  0.00000000E+00
%FLAG SOLTY                                                                     
%FORMAT(5E16.8)                                                                 
  0.00000000E+00  0.00000000E+00  0.00000000E+00  0.00000000E+00  0.00000000E+00
%FLAG LENNARD_JONES_ACOEF                                                       
%FORMAT(5E16.8)                                                                 
  6.96551276E+05  1.73376823E+06  4.26366419E+06  7.52549148E+04  1.95762765E+05
  6.90855956E+03  6.27751680E+04  1.64354276E+05  5.62610481E+03  4.56536476E+03
%FLAG LENNARD_JONES_BCOEF                                                       
%FORMAT(5E16.8)                                                                 
  5.24668528E+02  1.07629402E+03  2.19459223E+03  1.09570372E+02  2.29782888E+02
  2.10929191E+01  1.00073628E+02  2.10544132E+02  1.90347353E+01  1.71467049E+01
%FLAG BONDS_INC_HYDROGEN                                                        
%FORMAT(10I8)                                                                   
       0      15       3       3      18       3       6      21       5      12
      24       5
%FLAG BONDS_WITHOUT_HYDROGEN                                                    
%FORMAT(10I8)                                                                   
       0       3       1       0      12       2       3       6       2       6
       9       4       9      12       4
%FLAG ANGLES_INC_HYDROGEN                                                       
%FORMAT(10I8)                                                                   
       0       3      18       2       0      12      24       4       3       0
      15       2       3       6      21       4       6       3      18       5
       9       6      21       7       9      12      24       7      12       0
      15       5
%FLAG ANGLES_WITHOUT_HYDROGEN                                                   
%FORMAT(10I8)                                                                   
       0       3       6       1       0      12       9       3       3       0
      12       1       3       6       9       3       6       9      12       6
%FLAG DIHEDRALS_INC_HYDROGEN                                                    
%FORMAT(10I8)                                                                   
       0       3       6      21       1       3       0      12      24       1
      15       0       3       6       1       6       9      12      24       3
       9       6       3      18       1      15       0      12       9       1
      12       0       3      18       1      12       9       6      21       3
      15       0       3      18       1      15       0      12      24       1
      18       3       6      21       1      15       0     -12      -3       4
       0       6      -3     -18       4       3      21      -6      -9       4
       0      24     -12      -9       4
%FLAG DIHEDRALS_WITHOUT_HYDROGEN                                                
%FORMAT(10I8)                                                                   
       0       3      -6       9       1       0      12      -9       6       2
       3       0     -12       9       1       3       6      -9      12       2
      12       0      -3       6       1
%FLAG EXCLUDED_ATOMS_LIST                                                       
%FORMAT(10I8)                                                                   
       2       3       4       5       6       7       8       9       3       4
       5       6       7       8       9       4       5       6       7       8
       9       5       6       7       8       9       6       7       8       9
       7       9       8       0       0
%FLAG HBOND_ACOEF                                                               
%FORMAT(5E16.8)                                                                 

%FLAG HBOND_BCOEF                                                               
%FORMAT(5E16.8)                                                                 

%FLAG HBCUT                                                                     
%FORMAT(5E16.8)                                                                 

%FLAG AMBER_ATOM_TYPE                                                           
%FORMAT(20a4)                                                                   
cc  cc  cd  ss  cd  ha  ha  h4  h4  
%FLAG TREE_CHAIN_CLASSIFICATION                                                 
%FORMAT(20a4)                                                                   
BLA BLA BLA BLA BLA BLA BLA BLA BLA 
%FLAG JOIN_ARRAY                                                                
%FORMAT(10I8)                                                                   
       0       0       0       0       0       0       0       0       0
%FLAG IROTAT                                                                    
%FORMAT(10I8)                                                                   
       0       0       0       0       0       0       0       0       0
%FLAG RADIUS_SET                                                                
%FORMAT(1a80)                                                                   
modified Bondi radii (mbondi)                                                   
%FLAG RADII                                                                     
%FORMAT(5E16.8)                                                                 
  1.70000000E+00  1.70000000E+00  1.70000000E+00  1.80000000E+00  1.70000000E+00
  1.30000000E+00  1.30000000E+00  1.30000000E+00  1.30000000E+00
%FLAG SCREEN                                                                    
%FORMAT(5E16.8)                                                                 
  7.20000000E-01  7.20000000E-01  7.20000000E-01  9.60000000E-01  7.20000000E-01
  8.50000000E-01  8.50000000E-01  8.50000000E-01  8.50000000E-01
%FLAG IPOL                                                                      
%FORMAT(1I8)                                                                    
       0
