; mobley_2972906_GMX.itp created by acpype (v: 2023.10.27) on Wed May 20 23:44:13 2026

[ atomtypes ]
;name   bond_type     mass     charge   ptype   sigma         epsilon       Amb
 cc       cc          0.00000  0.00000   A     3.31521e-01   4.13379e-01 ; 1.86  0.0988
 cd       cd          0.00000  0.00000   A     3.31521e-01   4.13379e-01 ; 1.86  0.0988
 ss       ss          0.00000  0.00000   A     3.53241e-01   1.18156e+00 ; 1.98  0.2824
 ha       ha          0.00000  0.00000   A     2.62548e-01   6.73624e-02 ; 1.47  0.0161
 h4       h4          0.00000  0.00000   A     2.53639e-01   6.73624e-02 ; 1.42  0.0161

[ moleculetype ]
;name            nrexcl
 mobley_2972906   3

[ atoms ]
;   nr  type  resi  res  atom  cgnr     charge      mass       ; qtot   bond_type
     1   cc     1   MOL    C1    1    -0.157000     12.01000 ; qtot -0.157
     2   cc     1   MOL    C2    2    -0.157000     12.01000 ; qtot -0.314
     3   cd     1   MOL    C3    3    -0.168100     12.01000 ; qtot -0.482
     4   ss     1   MOL    S1    4     0.008200     32.06000 ; qtot -0.474
     5   cd     1   MOL    C4    5    -0.168100     12.01000 ; qtot -0.642
     6   ha     1   MOL    H1    6     0.152000      1.00800 ; qtot -0.490
     7   ha     1   MOL    H2    7     0.152000      1.00800 ; qtot -0.338
     8   h4     1   MOL    H3    8     0.169000      1.00800 ; qtot -0.169
     9   h4     1   MOL    H4    9     0.169000      1.00800 ; qtot 0.000

[ bonds ]
;   ai     aj funct   r             k
     1      2   1    1.4274e-01    2.6947e+05 ;     C1 - C2    
     1      5   1    1.3730e-01    3.2321e+05 ;     C1 - C4    
     1      6   1    1.0838e-01    3.0470e+05 ;     C1 - H1    
     2      3   1    1.3730e-01    3.2321e+05 ;     C2 - C3    
     2      7   1    1.0838e-01    3.0470e+05 ;     C2 - H2    
     3      4   1    1.7622e-01    1.8956e+05 ;     C3 - S1    
     3      8   1    1.0818e-01    3.0735e+05 ;     C3 - H3    
     4      5   1    1.7622e-01    1.8956e+05 ;     S1 - C4    
     5      9   1    1.0818e-01    3.0735e+05 ;     C4 - H4    

[ pairs ]
;   ai     aj    funct
     1      8      1 ;     C1 - H3    
     2      9      1 ;     C2 - H4    
     3      9      1 ;     C3 - H4    
     4      7      1 ;     S1 - H2    
     5      7      1 ;     C4 - H2    
     5      8      1 ;     C4 - H3    
     6      3      1 ;     H1 - C3    
     6      4      1 ;     H1 - S1    
     6      7      1 ;     H1 - H2    
     6      9      1 ;     H1 - H4    
     7      8      1 ;     H2 - H3    

[ angles ]
;   ai     aj     ak    funct   theta         cth
     1      2      3      1    1.1919e+02    5.3363e+02 ;     C1 - C2     - C3    
     1      2      7      1    1.1971e+02    3.6987e+02 ;     C1 - C2     - H2    
     1      5      4      1    1.1335e+02    5.5095e+02 ;     C1 - C4     - S1    
     1      5      9      1    1.2764e+02    3.6987e+02 ;     C1 - C4     - H4    
     2      1      5      1    1.1919e+02    5.3363e+02 ;     C2 - C1     - C4    
     2      1      6      1    1.1971e+02    3.6987e+02 ;     C2 - C1     - H1    
     2      3      4      1    1.1335e+02    5.5095e+02 ;     C2 - C3     - S1    
     2      3      8      1    1.2764e+02    3.6987e+02 ;     C2 - C3     - H3    
     3      2      7      1    1.2140e+02    3.7907e+02 ;     C3 - C2     - H2    
     3      4      5      1    8.9930e+01    8.5262e+02 ;     C3 - S1     - C4    
     4      3      8      1    1.2020e+02    3.5054e+02 ;     S1 - C3     - H3    
     4      5      9      1    1.2020e+02    3.5054e+02 ;     S1 - C4     - H4    
     5      1      6      1    1.2140e+02    3.7907e+02 ;     C4 - C1     - H1    

[ dihedrals ] ; propers
; for gromacs 4.5 or higher, using funct 9
;    i      j      k      l   func   phase     kd      pn
     1      2      3      4      9   180.00  16.73600   2 ;     C1-    C2-    C3-    S1
     1      2      3      8      9   180.00  16.73600   2 ;     C1-    C2-    C3-    H3
     1      5      4      3      9   180.00  10.16712   1 ;     C1-    C4-    S1-    C3
     2      1      5      4      9   180.00  16.73600   2 ;     C2-    C1-    C4-    S1
     2      1      5      9      9   180.00  16.73600   2 ;     C2-    C1-    C4-    H4
     2      3      4      5      9   180.00  10.16712   1 ;     C2-    C3-    S1-    C4
     3      4      5      9      9   180.00   4.60240   2 ;     C3-    S1-    C4-    H4
     4      3      2      7      9   180.00  16.73600   2 ;     S1-    C3-    C2-    H2
     5      1      2      3      9   180.00  16.73600   2 ;     C4-    C1-    C2-    C3
     5      1      2      7      9   180.00  16.73600   2 ;     C4-    C1-    C2-    H2
     5      4      3      8      9   180.00   4.60240   2 ;     C4-    S1-    C3-    H3
     6      1      2      3      9   180.00  16.73600   2 ;     H1-    C1-    C2-    C3
     6      1      2      7      9   180.00  16.73600   2 ;     H1-    C1-    C2-    H2
     6      1      5      4      9   180.00  16.73600   2 ;     H1-    C1-    C4-    S1
     6      1      5      9      9   180.00  16.73600   2 ;     H1-    C1-    C4-    H4
     7      2      3      8      9   180.00  16.73600   2 ;     H2-    C2-    C3-    H3

[ dihedrals ] ; impropers
; treated as propers in GROMACS to use correct AMBER analytical function
;    i      j      k      l   func   phase     kd      pn
     1      3      2      7      4   180.00   4.60240   2 ;     C1-    C3-    C2-    H2
     1      9      5      4      4   180.00   4.60240   2 ;     C1-    H4-    C4-    S1
     2      8      3      4      4   180.00   4.60240   2 ;     C2-    H3-    C3-    S1
     6      1      5      2      4   180.00   4.60240   2 ;     H1-    C1-    C4-    C2
