; mobley_2043882_GMX_OPLS.itp created by acpype (v: 2023.10.27) on Wed May 20 23:48:41 2026

; For OPLS atomtypes manual fine tuning
; AC_at:OPLS_at:OPLScode: Possible_Alternatives (see ffoplsaa.atp and ffoplsaanb.itp)
; c:C:opls_235: ['271']
; c6:x:opls_x: []
; c3:CT:opls_135: ['136', '137', '149', '157', '158', '206', '209', '210', '223B', '224B', '245', '246', '274', '283', '284', '285', '292', '292B', '293B', '296', '307', '308', '505']
; o:O:opls_236: ['272']
; hc:HC:opls_140: []

[ moleculetype ]
;name            nrexcl
 mobley_2043882   3

[ atoms ]
;   nr  type  resi  res  atom  cgnr     charge      mass       ; qtot   bond_type
     1 opls_235     1   MOL    C1    1     0.567099     12.01100 ; qtot  0.567  C   
     2 opls_x     1   MOL    C2    2    -0.078400      0.00000 ; qtot  0.489  x   
     3 opls_x     1   MOL    C3    3    -0.075900      0.00000 ; qtot  0.413  x   
     4 opls_x     1   MOL    C4    4    -0.075900      0.00000 ; qtot  0.337  x   
     5 opls_x     1   MOL    C5    5    -0.068900      0.00000 ; qtot  0.268  x   
     6 opls_x     1   MOL    C6    6    -0.068900      0.00000 ; qtot  0.199  x   
     7 opls_x     1   MOL    C7    7    -0.163700      0.00000 ; qtot  0.035  x   
     8 opls_135     1   MOL    C8    8    -0.203100     12.01100 ; qtot -0.168  CT  
     9 opls_236     1   MOL    O1    9    -0.530100     15.99940 ; qtot -0.698  O   
    10 opls_140     1   MOL    H1   10     0.042200      1.00800 ; qtot -0.656  HC  
    11 opls_140     1   MOL    H2   11     0.042200      1.00800 ; qtot -0.613  HC  
    12 opls_140     1   MOL    H3   12     0.040700      1.00800 ; qtot -0.573  HC  
    13 opls_140     1   MOL    H4   13     0.040700      1.00800 ; qtot -0.532  HC  
    14 opls_140     1   MOL    H5   14     0.040700      1.00800 ; qtot -0.491  HC  
    15 opls_140     1   MOL    H6   15     0.040700      1.00800 ; qtot -0.451  HC  
    16 opls_140     1   MOL    H7   16     0.050200      1.00800 ; qtot -0.400  HC  
    17 opls_140     1   MOL    H8   17     0.050200      1.00800 ; qtot -0.350  HC  
    18 opls_140     1   MOL    H9   18     0.050200      1.00800 ; qtot -0.300  HC  
    19 opls_140     1   MOL   H10   19     0.050200      1.00800 ; qtot -0.250  HC  
    20 opls_140     1   MOL   H11   20     0.059700      1.00800 ; qtot -0.190  HC  
    21 opls_140     1   MOL   H12   21     0.063367      1.00800 ; qtot -0.127  HC  
    22 opls_140     1   MOL   H13   22     0.063367      1.00800 ; qtot -0.063  HC  
    23 opls_140     1   MOL   H14   23     0.063367      1.00800 ; qtot  0.000  HC  

[ bonds ]
;   ai     aj funct   r             k
     1      7   1 ;    1.5287e-01    1.9550e+05 ;     C1 - C7          C - x     
     1      8   1 ;    1.5270e-01    1.9652e+05 ;     C1 - C8          C - CT    
     1      9   1 ;    1.2190e-01    4.9421e+05 ;     C1 - O1          C - O     
     2      3   1 ;    1.5384e-01    1.8979e+05 ;     C2 - C3          x - x     
     2      4   1 ;    1.5384e-01    1.8979e+05 ;     C2 - C4          x - x     
     2     10   1 ;    1.0979e-01    2.8681e+05 ;     C2 - H1          x - HC    
     2     11   1 ;    1.0979e-01    2.8681e+05 ;     C2 - H2          x - HC    
     3      5   1 ;    1.5384e-01    1.8979e+05 ;     C3 - C5          x - x     
     3     12   1 ;    1.0979e-01    2.8681e+05 ;     C3 - H3          x - HC    
     3     13   1 ;    1.0979e-01    2.8681e+05 ;     C3 - H4          x - HC    
     4      6   1 ;    1.5384e-01    1.8979e+05 ;     C4 - C6          x - x     
     4     14   1 ;    1.0979e-01    2.8681e+05 ;     C4 - H5          x - HC    
     4     15   1 ;    1.0979e-01    2.8681e+05 ;     C4 - H6          x - HC    
     5      7   1 ;    1.5384e-01    1.8979e+05 ;     C5 - C7          x - x     
     5     16   1 ;    1.0979e-01    2.8681e+05 ;     C5 - H7          x - HC    
     5     17   1 ;    1.0979e-01    2.8681e+05 ;     C5 - H8          x - HC    
     6      7   1 ;    1.5384e-01    1.8979e+05 ;     C6 - C7          x - x     
     6     18   1 ;    1.0979e-01    2.8681e+05 ;     C6 - H9          x - HC    
     6     19   1 ;    1.0979e-01    2.8681e+05 ;     C6 - H10         x - HC    
     7     20   1 ;    1.0979e-01    2.8681e+05 ;     C7 - H11         x - HC    
     8     21   1 ;    1.0962e-01    2.8891e+05 ;     C8 - H12        CT - HC    
     8     22   1 ;    1.0962e-01    2.8891e+05 ;     C8 - H13        CT - HC    
     8     23   1 ;    1.0962e-01    2.8891e+05 ;     C8 - H14        CT - HC    

[ pairs ]
;   ai     aj    funct
     1      3      1 ;     C1 - C3    
     1      4      1 ;     C1 - C4    
     1     16      1 ;     C1 - H7    
     1     17      1 ;     C1 - H8    
     1     18      1 ;     C1 - H9    
     1     19      1 ;     C1 - H10   
     2      7      1 ;     C2 - C7    
     2     16      1 ;     C2 - H7    
     2     17      1 ;     C2 - H8    
     2     18      1 ;     C2 - H9    
     2     19      1 ;     C2 - H10   
     3      6      1 ;     C3 - C6    
     3     14      1 ;     C3 - H5    
     3     15      1 ;     C3 - H6    
     3     20      1 ;     C3 - H11   
     4      5      1 ;     C4 - C5    
     4     12      1 ;     C4 - H3    
     4     13      1 ;     C4 - H4    
     4     20      1 ;     C4 - H11   
     5     10      1 ;     C5 - H1    
     5     11      1 ;     C5 - H2    
     5     18      1 ;     C5 - H9    
     5     19      1 ;     C5 - H10   
     6     10      1 ;     C6 - H1    
     6     11      1 ;     C6 - H2    
     6     16      1 ;     C6 - H7    
     6     17      1 ;     C6 - H8    
     7     12      1 ;     C7 - H3    
     7     13      1 ;     C7 - H4    
     7     14      1 ;     C7 - H5    
     7     15      1 ;     C7 - H6    
     7     21      1 ;     C7 - H12   
     7     22      1 ;     C7 - H13   
     7     23      1 ;     C7 - H14   
     8      5      1 ;     C8 - C5    
     8      6      1 ;     C8 - C6    
     8     20      1 ;     C8 - H11   
     9      5      1 ;     O1 - C5    
     9      6      1 ;     O1 - C6    
     9     20      1 ;     O1 - H11   
     9     21      1 ;     O1 - H12   
     9     22      1 ;     O1 - H13   
     9     23      1 ;     O1 - H14   
    10     12      1 ;     H1 - H3    
    10     13      1 ;     H1 - H4    
    10     14      1 ;     H1 - H5    
    10     15      1 ;     H1 - H6    
    11     12      1 ;     H2 - H3    
    11     13      1 ;     H2 - H4    
    11     14      1 ;     H2 - H5    
    11     15      1 ;     H2 - H6    
    12     16      1 ;     H3 - H7    
    12     17      1 ;     H3 - H8    
    13     16      1 ;     H4 - H7    
    13     17      1 ;     H4 - H8    
    14     18      1 ;     H5 - H9    
    14     19      1 ;     H5 - H10   
    15     18      1 ;     H6 - H9    
    15     19      1 ;     H6 - H10   
    16     20      1 ;     H7 - H11   
    17     20      1 ;     H8 - H11   
    18     20      1 ;     H9 - H11   
    19     20      1 ;    H10 - H11   

[ angles ]
;   ai     aj     ak    funct   theta         cth
     1      7      5      1 ;    1.1143e+02    5.0434e+02 ;     C1 - C7   - C5        C -    x - x   
     1      7      6      1 ;    1.1143e+02    5.0434e+02 ;     C1 - C7   - C6        C -    x - x   
     1      7     20      1 ;    1.0767e+02    3.6685e+02 ;     C1 - C7   - H11       C -    x - HC  
     1      8     21      1 ;    1.0895e+02    3.6510e+02 ;     C1 - C8   - H12       C -   CT - HC  
     1      8     22      1 ;    1.0895e+02    3.6510e+02 ;     C1 - C8   - H13       C -   CT - HC  
     1      8     23      1 ;    1.0895e+02    3.6510e+02 ;     C1 - C8   - H14       C -   CT - HC  
     2      3      5      1 ;    1.1106e+02    5.0359e+02 ;     C2 - C3   - C5        x -    x - x   
     2      3     12      1 ;    1.0945e+02    3.6175e+02 ;     C2 - C3   - H3        x -    x - HC  
     2      3     13      1 ;    1.0945e+02    3.6175e+02 ;     C2 - C3   - H4        x -    x - HC  
     2      4      6      1 ;    1.1106e+02    5.0359e+02 ;     C2 - C4   - C6        x -    x - x   
     2      4     14      1 ;    1.0945e+02    3.6175e+02 ;     C2 - C4   - H5        x -    x - HC  
     2      4     15      1 ;    1.0945e+02    3.6175e+02 ;     C2 - C4   - H6        x -    x - HC  
     3      2      4      1 ;    1.1106e+02    5.0359e+02 ;     C3 - C2   - C4        x -    x - x   
     3      2     10      1 ;    1.0945e+02    3.6175e+02 ;     C3 - C2   - H1        x -    x - HC  
     3      2     11      1 ;    1.0945e+02    3.6175e+02 ;     C3 - C2   - H2        x -    x - HC  
     3      5      7      1 ;    1.1106e+02    5.0359e+02 ;     C3 - C5   - C7        x -    x - x   
     3      5     16      1 ;    1.0945e+02    3.6175e+02 ;     C3 - C5   - H7        x -    x - HC  
     3      5     17      1 ;    1.0945e+02    3.6175e+02 ;     C3 - C5   - H8        x -    x - HC  
     4      2     10      1 ;    1.0945e+02    3.6175e+02 ;     C4 - C2   - H1        x -    x - HC  
     4      2     11      1 ;    1.0945e+02    3.6175e+02 ;     C4 - C2   - H2        x -    x - HC  
     4      6      7      1 ;    1.1106e+02    5.0359e+02 ;     C4 - C6   - C7        x -    x - x   
     4      6     18      1 ;    1.0945e+02    3.6175e+02 ;     C4 - C6   - H9        x -    x - HC  
     4      6     19      1 ;    1.0945e+02    3.6175e+02 ;     C4 - C6   - H10       x -    x - HC  
     5      3     12      1 ;    1.0945e+02    3.6175e+02 ;     C5 - C3   - H3        x -    x - HC  
     5      3     13      1 ;    1.0945e+02    3.6175e+02 ;     C5 - C3   - H4        x -    x - HC  
     5      7      6      1 ;    1.1106e+02    5.0359e+02 ;     C5 - C7   - C6        x -    x - x   
     5      7     20      1 ;    1.0945e+02    3.6175e+02 ;     C5 - C7   - H11       x -    x - HC  
     6      4     14      1 ;    1.0945e+02    3.6175e+02 ;     C6 - C4   - H5        x -    x - HC  
     6      4     15      1 ;    1.0945e+02    3.6175e+02 ;     C6 - C4   - H6        x -    x - HC  
     6      7     20      1 ;    1.0945e+02    3.6175e+02 ;     C6 - C7   - H11       x -    x - HC  
     7      1      8      1 ;    1.1688e+02    4.9430e+02 ;     C7 - C1   - C8        x -    C - CT  
     7      1      9      1 ;    1.2234e+02    6.4065e+02 ;     C7 - C1   - O1        x -    C - O   
     7      5     16      1 ;    1.0945e+02    3.6175e+02 ;     C7 - C5   - H7        x -    x - HC  
     7      5     17      1 ;    1.0945e+02    3.6175e+02 ;     C7 - C5   - H8        x -    x - HC  
     7      6     18      1 ;    1.0945e+02    3.6175e+02 ;     C7 - C6   - H9        x -    x - HC  
     7      6     19      1 ;    1.0945e+02    3.6175e+02 ;     C7 - C6   - H10       x -    x - HC  
     8      1      9      1 ;    1.2290e+02    6.3973e+02 ;     C8 - C1   - O1       CT -    C - O   
    10      2     11      1 ;    1.0662e+02    3.0066e+02 ;     H1 - C2   - H2       HC -    x - HC  
    12      3     13      1 ;    1.0662e+02    3.0066e+02 ;     H3 - C3   - H4       HC -    x - HC  
    14      4     15      1 ;    1.0662e+02    3.0066e+02 ;     H5 - C4   - H6       HC -    x - HC  
    16      5     17      1 ;    1.0662e+02    3.0066e+02 ;     H7 - C5   - H8       HC -    x - HC  
    18      6     19      1 ;    1.0662e+02    3.0066e+02 ;     H9 - C6   - H10      HC -    x - HC  
    21      8     22      1 ;    1.0773e+02    2.9957e+02 ;    H12 - C8   - H13      HC -   CT - HC  
    21      8     23      1 ;    1.0773e+02    2.9957e+02 ;    H12 - C8   - H14      HC -   CT - HC  
    22      8     23      1 ;    1.0773e+02    2.9957e+02 ;    H13 - C8   - H14      HC -   CT - HC  

[ dihedrals ] ; propers
; for gromacs 4.5 or higher, using funct 9
;    i      j      k      l   func   phase     kd      pn
     1      7      5      3      9 ;     0.00   0.00000   0 ;     C1-    C7-    C5-    C3
     1      7      5      3      9 ;     0.00   0.16736   2 ;     C1-    C7-    C5-    C3
     1      7      5      3      9 ;   180.00   1.92464   1 ;     C1-    C7-    C5-    C3
     1      7      5     16      9 ;     0.00   0.65084   3 ;     C1-    C7-    C5-    H7
     1      7      5     17      9 ;     0.00   0.65084   3 ;     C1-    C7-    C5-    H8
     1      7      6      4      9 ;     0.00   0.00000   0 ;     C1-    C7-    C6-    C4
     1      7      6      4      9 ;     0.00   0.16736   2 ;     C1-    C7-    C6-    C4
     1      7      6      4      9 ;   180.00   1.92464   1 ;     C1-    C7-    C6-    C4
     1      7      6     18      9 ;     0.00   0.65084   3 ;     C1-    C7-    C6-    H9
     1      7      6     19      9 ;     0.00   0.65084   3 ;     C1-    C7-    C6-   H10
     2      3      5      7      9 ;     0.00   2.17568   3 ;     C2-    C3-    C5-    C7
     2      3      5     16      9 ;     0.00   0.54392   3 ;     C2-    C3-    C5-    H7
     2      3      5     17      9 ;     0.00   0.54392   3 ;     C2-    C3-    C5-    H8
     2      4      6      7      9 ;     0.00   2.17568   3 ;     C2-    C4-    C6-    C7
     2      4      6     18      9 ;     0.00   0.54392   3 ;     C2-    C4-    C6-    H9
     2      4      6     19      9 ;     0.00   0.54392   3 ;     C2-    C4-    C6-   H10
     3      2      4      6      9 ;     0.00   2.17568   3 ;     C3-    C2-    C4-    C6
     3      2      4     14      9 ;     0.00   0.54392   3 ;     C3-    C2-    C4-    H5
     3      2      4     15      9 ;     0.00   0.54392   3 ;     C3-    C2-    C4-    H6
     3      5      7      6      9 ;     0.00   2.17568   3 ;     C3-    C5-    C7-    C6
     3      5      7     20      9 ;     0.00   0.54392   3 ;     C3-    C5-    C7-   H11
     4      2      3      5      9 ;     0.00   2.17568   3 ;     C4-    C2-    C3-    C5
     4      2      3     12      9 ;     0.00   0.54392   3 ;     C4-    C2-    C3-    H3
     4      2      3     13      9 ;     0.00   0.54392   3 ;     C4-    C2-    C3-    H4
     4      6      7      5      9 ;     0.00   2.17568   3 ;     C4-    C6-    C7-    C5
     4      6      7     20      9 ;     0.00   0.54392   3 ;     C4-    C6-    C7-   H11
     5      3      2     10      9 ;     0.00   0.54392   3 ;     C5-    C3-    C2-    H1
     5      3      2     11      9 ;     0.00   0.54392   3 ;     C5-    C3-    C2-    H2
     5      7      6     18      9 ;     0.00   0.54392   3 ;     C5-    C7-    C6-    H9
     5      7      6     19      9 ;     0.00   0.54392   3 ;     C5-    C7-    C6-   H10
     6      4      2     10      9 ;     0.00   0.54392   3 ;     C6-    C4-    C2-    H1
     6      4      2     11      9 ;     0.00   0.54392   3 ;     C6-    C4-    C2-    H2
     6      7      5     16      9 ;     0.00   0.54392   3 ;     C6-    C7-    C5-    H7
     6      7      5     17      9 ;     0.00   0.54392   3 ;     C6-    C7-    C5-    H8
     7      1      8     21      9 ;   180.00   0.00000   3 ;     C7-    C1-    C8-   H12
     7      1      8     22      9 ;   180.00   0.00000   3 ;     C7-    C1-    C8-   H13
     7      1      8     23      9 ;   180.00   0.00000   3 ;     C7-    C1-    C8-   H14
     7      5      3     12      9 ;     0.00   0.54392   3 ;     C7-    C5-    C3-    H3
     7      5      3     13      9 ;     0.00   0.54392   3 ;     C7-    C5-    C3-    H4
     7      6      4     14      9 ;     0.00   0.54392   3 ;     C7-    C6-    C4-    H5
     7      6      4     15      9 ;     0.00   0.54392   3 ;     C7-    C6-    C4-    H6
     8      1      7      5      9 ;   180.00   1.09621   2 ;     C8-    C1-    C7-    C5
     8      1      7      6      9 ;   180.00   1.09621   2 ;     C8-    C1-    C7-    C6
     8      1      7     20      9 ;   180.00   0.00000   3 ;     C8-    C1-    C7-   H11
     9      1      7      5      9 ;     0.00   0.46024   2 ;     O1-    C1-    C7-    C5
     9      1      7      5      9 ;     0.00  49.12016   1 ;     O1-    C1-    C7-    C5
     9      1      7      5      9 ;   180.00   0.33472   3 ;     O1-    C1-    C7-    C5
     9      1      7      6      9 ;     0.00   0.46024   2 ;     O1-    C1-    C7-    C6
     9      1      7      6      9 ;     0.00  49.12016   1 ;     O1-    C1-    C7-    C6
     9      1      7      6      9 ;   180.00   0.33472   3 ;     O1-    C1-    C7-    C6
     9      1      7     20      9 ;     0.00  16.86152   1 ;     O1-    C1-    C7-   H11
     9      1      7     20      9 ;   180.00  15.31344   2 ;     O1-    C1-    C7-   H11
     9      1      8     21      9 ;     0.00  16.86152   1 ;     O1-    C1-    C8-   H12
     9      1      8     21      9 ;   180.00  15.31344   2 ;     O1-    C1-    C8-   H12
     9      1      8     22      9 ;     0.00  16.86152   1 ;     O1-    C1-    C8-   H13
     9      1      8     22      9 ;   180.00  15.31344   2 ;     O1-    C1-    C8-   H13
     9      1      8     23      9 ;     0.00  16.86152   1 ;     O1-    C1-    C8-   H14
     9      1      8     23      9 ;   180.00  15.31344   2 ;     O1-    C1-    C8-   H14
    10      2      3     12      9 ;     0.00   0.50208   3 ;     H1-    C2-    C3-    H3
    10      2      3     13      9 ;     0.00   0.50208   3 ;     H1-    C2-    C3-    H4
    10      2      4     14      9 ;     0.00   0.50208   3 ;     H1-    C2-    C4-    H5
    10      2      4     15      9 ;     0.00   0.50208   3 ;     H1-    C2-    C4-    H6
    11      2      3     12      9 ;     0.00   0.50208   3 ;     H2-    C2-    C3-    H3
    11      2      3     13      9 ;     0.00   0.50208   3 ;     H2-    C2-    C3-    H4
    11      2      4     14      9 ;     0.00   0.50208   3 ;     H2-    C2-    C4-    H5
    11      2      4     15      9 ;     0.00   0.50208   3 ;     H2-    C2-    C4-    H6
    12      3      5     16      9 ;     0.00   0.50208   3 ;     H3-    C3-    C5-    H7
    12      3      5     17      9 ;     0.00   0.50208   3 ;     H3-    C3-    C5-    H8
    13      3      5     16      9 ;     0.00   0.50208   3 ;     H4-    C3-    C5-    H7
    13      3      5     17      9 ;     0.00   0.50208   3 ;     H4-    C3-    C5-    H8
    14      4      6     18      9 ;     0.00   0.50208   3 ;     H5-    C4-    C6-    H9
    14      4      6     19      9 ;     0.00   0.50208   3 ;     H5-    C4-    C6-   H10
    15      4      6     18      9 ;     0.00   0.50208   3 ;     H6-    C4-    C6-    H9
    15      4      6     19      9 ;     0.00   0.50208   3 ;     H6-    C4-    C6-   H10
    16      5      7     20      9 ;     0.00   0.50208   3 ;     H7-    C5-    C7-   H11
    17      5      7     20      9 ;     0.00   0.50208   3 ;     H8-    C5-    C7-   H11
    18      6      7     20      9 ;     0.00   0.50208   3 ;     H9-    C6-    C7-   H11
    19      6      7     20      9 ;     0.00   0.50208   3 ;    H10-    C6-    C7-   H11

[ dihedrals ] ; impropers
; treated as propers in GROMACS to use correct AMBER analytical function
;    i      j      k      l   func   phase     kd      pn
     9      1      7      8      4 ;   180.00   4.60240   2 ;     O1-    C1-    C7-    C8
