methyl_cyclohexyl_ketone
    23
  -0.9220000   0.2620000  -0.5380000  -3.6080000  -2.8790000  -1.7940000
  -2.1230000  -3.2080000  -1.6770000  -3.8300000  -1.4770000  -2.3550000
  -1.3750000  -2.1560000  -0.8630000  -3.0860000  -0.4210000  -1.5420000
  -1.5960000  -0.7480000  -1.4190000   0.5160000   0.5780000  -0.8480000
  -1.5150000   0.8020000   0.3940000  -4.1010000  -3.6160000  -2.4380000
  -4.0770000  -2.9540000  -0.8050000  -1.9990000  -4.1920000  -1.2120000
  -1.6840000  -3.2710000  -2.6810000  -3.4870000  -1.4430000  -3.3960000
  -4.9020000  -1.2480000  -2.3630000  -1.7070000  -2.2020000   0.1830000
  -0.3040000  -2.3920000  -0.8560000  -3.2170000   0.5620000  -2.0100000
  -3.5360000  -0.3480000  -0.5430000  -1.1250000  -0.6700000  -2.4070000
   1.1180000  -0.3290000  -0.7590000   0.5920000   0.9830000  -1.8610000
   0.8910000   1.3230000  -0.1410000
