; mobley_2043882_GMX_OPLS.top created by acpype (v: 2023.10.27) on Wed May 20 23:48:41 2026

; Include forcefield parameters
#include "ffoplsaa.itp"

; Include mobley_2043882_GMX.itp topology
#include "mobley_2043882_GMX.itp"

; Ligand position restraints
#ifdef POSRES_LIG
#include "posre_mobley_2043882.itp"
#endif

[ system ]
 mobley_2043882

[ molecules ]
; Compound        nmols
 mobley_2043882   1     
