%VERSION  VERSION_STAMP = V0001.000  DATE = 05/20/26  23:48:44                  
%FLAG TITLE                                                                     
%FORMAT(20a4)                                                                   
methyl_cyclohexyl_ketone                                                        
%FLAG POINTERS                                                                  
%FORMAT(10I8)                                                                   
      23       4      14       9      34      11      58      21       0       0
     133       1       9      11      21       6      10      15       5       0
       0       0       0       0       0       0       0       0      23       0
       0
%FLAG ATOM_NAME                                                                 
%FORMAT(20a4)                                                                   
C1  C2  C3  C4  C5  C6  C7  C8  O1  H1  H2  H3  H4  H5  H6  H7  H8  H9  H10 H11 
H12 H13 H14 
%FLAG CHARGE                                                                    
%FORMAT(5E16.8)                                                                 
  1.03338663E+01 -1.42862832E+00 -1.38307257E+00 -1.38307257E+00 -1.25551647E+00
 -1.25551647E+00 -2.98299051E+00 -3.70094913E+00 -9.65964123E+00  7.68981060E-01
  7.68981060E-01  7.41647610E-01  7.41647610E-01  7.41647610E-01  7.41647610E-01
  9.14759460E-01  9.14759460E-01  9.14759460E-01  9.14759460E-01  1.08787131E+00
  1.15469248E+00  1.15469248E+00  1.15469248E+00
%FLAG ATOMIC_NUMBER                                                             
%FORMAT(10I8)                                                                   
       6       6       6       6       6       6       6       6       8       1
       1       1       1       1       1       1       1       1       1       1
       1       1       1
%FLAG MASS                                                                      
%FORMAT(5E16.8)                                                                 
  1.20100000E+01  1.20100000E+01  1.20100000E+01  1.20100000E+01  1.20100000E+01
  1.20100000E+01  1.20100000E+01  1.20100000E+01  1.60000000E+01  1.00800000E+00
  1.00800000E+00  1.00800000E+00  1.00800000E+00  1.00800000E+00  1.00800000E+00
  1.00800000E+00  1.00800000E+00  1.00800000E+00  1.00800000E+00  1.00800000E+00
  1.00800000E+00  1.00800000E+00  1.00800000E+00
%FLAG ATOM_TYPE_INDEX                                                           
%FORMAT(10I8)                                                                   
       1       2       2       2       2       2       2       2       3       4
       4       4       4       4       4       4       4       4       4       4
       4       4       4
%FLAG NUMBER_EXCLUDED_ATOMS                                                     
%FORMAT(10I8)                                                                   
      15      15      13      12      13      12      14       5       4       5
       4       3       2       3       2       2       1       2       1       1
       2       1       1
%FLAG NONBONDED_PARM_INDEX                                                      
%FORMAT(10I8)                                                                   
       1       2       4       7       2       3       5       8       4       5
       6       9       7       8       9      10
%FLAG RESIDUE_LABEL                                                             
%FORMAT(20a4)                                                                   
MOL 
%FLAG RESIDUE_POINTER                                                           
%FORMAT(10I8)                                                                   
       1
%FLAG BOND_FORCE_CONSTANT                                                       
%FORMAT(5E16.8)                                                                 
  2.33630000E+02  2.34850000E+02  5.90600000E+02  2.26810000E+02  3.42750000E+02
  3.45250000E+02
%FLAG BOND_EQUIL_VALUE                                                          
%FORMAT(5E16.8)                                                                 
  1.52870000E+00  1.52700000E+00  1.21900000E+00  1.53840000E+00  1.09790000E+00
  1.09620000E+00
%FLAG ANGLE_FORCE_CONSTANT                                                      
%FORMAT(5E16.8)                                                                 
  6.02700000E+01  4.38400000E+01  4.36300000E+01  6.01800000E+01  4.32300000E+01
  5.90700000E+01  7.65600000E+01  7.64500000E+01  3.59300000E+01  3.58000000E+01
%FLAG ANGLE_EQUIL_VALUE                                                         
%FORMAT(5E16.8)                                                                 
  1.94482122E+00  1.87919681E+00  1.90153704E+00  1.93836350E+00  1.91026369E+00
  2.03994170E+00  2.13523672E+00  2.14501057E+00  1.86087085E+00  1.88024401E+00
%FLAG DIHEDRAL_FORCE_CONSTANT                                                   
%FORMAT(5E16.8)                                                                 
  4.60000000E-01  4.00000000E-02  0.00000000E+00  1.55555556E-01  5.20000000E-01
  1.30000000E-01  2.62000000E-01  1.17400000E+01  1.10000000E-01  8.00000000E-02
  0.00000000E+00  4.03000000E+00  3.66000000E+00  1.20000000E-01  1.10000000E+00
%FLAG DIHEDRAL_PERIODICITY                                                      
%FORMAT(5E16.8)                                                                 
  1.00000000E+00  2.00000000E+00  3.00000000E+00  3.00000000E+00  3.00000000E+00
  3.00000000E+00  2.00000000E+00  1.00000000E+00  2.00000000E+00  3.00000000E+00
  3.00000000E+00  1.00000000E+00  2.00000000E+00  3.00000000E+00  2.00000000E+00
%FLAG DIHEDRAL_PHASE                                                            
%FORMAT(5E16.8)                                                                 
  3.14159400E+00  0.00000000E+00  0.00000000E+00  0.00000000E+00  0.00000000E+00
  0.00000000E+00  3.14159400E+00  0.00000000E+00  0.00000000E+00  3.14159400E+00
  3.14159400E+00  0.00000000E+00  3.14159400E+00  0.00000000E+00  3.14159400E+00
%FLAG SCEE_SCALE_FACTOR                                                         
%FORMAT(5E16.8)                                                                 
  1.20000000E+00  1.20000000E+00  1.20000000E+00  1.20000000E+00  1.20000000E+00
  1.20000000E+00  1.20000000E+00  1.20000000E+00  1.20000000E+00  1.20000000E+00
  1.20000000E+00  1.20000000E+00  1.20000000E+00  1.20000000E+00  0.00000000E+00
%FLAG SCNB_SCALE_FACTOR                                                         
%FORMAT(5E16.8)                                                                 
  2.00000000E+00  2.00000000E+00  2.00000000E+00  2.00000000E+00  2.00000000E+00
  2.00000000E+00  2.00000000E+00  2.00000000E+00  2.00000000E+00  2.00000000E+00
  2.00000000E+00  2.00000000E+00  2.00000000E+00  2.00000000E+00  0.00000000E+00
%FLAG SOLTY                                                                     
%FORMAT(5E16.8)                                                                 
  0.00000000E+00  0.00000000E+00  0.00000000E+00  0.00000000E+00  0.00000000E+00
%FLAG LENNARD_JONES_ACOEF                                                       
%FORMAT(5E16.8)                                                                 
  6.96551276E+05  8.43969952E+05  1.02073671E+06  5.17507491E+05  6.30925504E+05
  3.76435470E+05  8.12662403E+04  1.00235148E+05  5.68021765E+04  7.94617769E+03
%FLAG LENNARD_JONES_BCOEF                                                       
%FORMAT(5E16.8)                                                                 
  5.24668528E+02  5.90251928E+02  6.63431737E+02  4.98871431E+02  5.62969425E+02
  4.69350655E+02  1.21392023E+02  1.37787728E+02  1.11953944E+02  2.57122925E+01
%FLAG BONDS_INC_HYDROGEN                                                        
%FORMAT(10I8)                                                                   
       3      27       5       3      30       5       6      33       5       6
      36       5       9      39       5       9      42       5      12      45
       5      12      48       5      15      51       5      15      54       5
      18      57       5      21      60       6      21      63       6      21
      66       6
%FLAG BONDS_WITHOUT_HYDROGEN                                                    
%FORMAT(10I8)                                                                   
       0      18       1       0      21       2       0      24       3       3
       6       4       3       9       4       6      12       4       9      15
       4      12      18       4      15      18       4
%FLAG ANGLES_INC_HYDROGEN                                                       
%FORMAT(10I8)                                                                   
       0      18      57       2       0      21      60       3       0      21
      63       3       0      21      66       3       3       6      33       5
       3       6      36       5       3       9      39       5       3       9
      42       5       6       3      27       5       6       3      30       5
       6      12      45       5       6      12      48       5       9       3
      27       5       9       3      30       5       9      15      51       5
       9      15      54       5      12       6      33       5      12       6
      36       5      12      18      57       5      15       9      39       5
      15       9      42       5      15      18      57       5      18      12
      45       5      18      12      48       5      18      15      51       5
      18      15      54       5      27       3      30       9      33       6
      36       9      39       9      42       9      45      12      48       9
      51      15      54       9      60      21      63      10      60      21
      66      10      63      21      66      10
%FLAG ANGLES_WITHOUT_HYDROGEN                                                   
%FORMAT(10I8)                                                                   
       0      18      12       1       0      18      15       1       3       6
      12       4       3       9      15       4       6       3       9       4
       6      12      18       4       9      15      18       4      12      18
      15       4      18       0      21       6      18       0      24       7
      21       0      24       8
%FLAG DIHEDRALS_INC_HYDROGEN                                                    
%FORMAT(10I8)                                                                   
       0      18      12      45       4       0      18      12      48       4
       0      18      15      51       4       0      18      15      54       4
       3       6      12      45       6       3       6      12      48       6
       3       9      15      51       6       3       9      15      54       6
       6       3       9      39       6       6       3       9      42       6
       6      12      18      57       6       9       3       6      33       6
       9       3       6      36       6       9      15      18      57       6
      12       6       3      27       6      12       6       3      30       6
      12      18      15      51       6      12      18      15      54       6
      15       9       3      27       6      15       9       3      30       6
      15      18      12      45       6      15      18      12      48       6
      18       0      21      60      11      18       0      21      63      11
      18       0      21      66      11      18      12       6      33       6
      18      12       6      36       6      18      15       9      39       6
      18      15       9      42       6      21       0      18      57      11
      24       0      18      57      12      24       0     -18      57      13
      24       0      21      60      12      24       0     -21      60      13
      24       0      21      63      12      24       0     -21      63      13
      24       0      21      66      12      24       0     -21      66      13
      27       3       6      33      14      27       3       6      36      14
      27       3       9      39      14      27       3       9      42      14
      30       3       6      33      14      30       3       6      36      14
      30       3       9      39      14      30       3       9      42      14
      33       6      12      45      14      33       6      12      48      14
      36       6      12      45      14      36       6      12      48      14
      39       9      15      51      14      39       9      15      54      14
      42       9      15      51      14      42       9      15      54      14
      45      12      18      57      14      48      12      18      57      14
      51      15      18      57      14      54      15      18      57      14
%FLAG DIHEDRALS_WITHOUT_HYDROGEN                                                
%FORMAT(10I8)                                                                   
       0      18      12       6       1       0      18     -12       6       2
       0      18     -12       6       3       0      18      15       9       1
       0      18     -15       9       2       0      18     -15       9       3
       3       6      12      18       5       3       9     -15      18       5
       6       3       9      15       5       6      12     -18      15       5
       9       3       6      12       5       9      15     -18      12       5
      21       0      18      12       7      24       0      18      12       8
      24       0     -18      12       9      24       0     -18      12      10
      21       0      18      15       7      24       0      18      15       8
      24       0     -18      15       9      24       0     -18      15      10
      24       0     -18     -21      15
%FLAG EXCLUDED_ATOMS_LIST                                                       
%FORMAT(10I8)                                                                   
       3       4       5       6       7       8       9      16      17      18
      19      20      21      22      23       3       4       5       6       7
      10      11      12      13      14      15      16      17      18      19
       4       5       6       7      10      11      12      13      14      15
      16      17      20       5       6       7      10      11      12      13
      14      15      18      19      20       6       7       8       9      10
      11      12      13      16      17      18      19      20       7       8
       9      10      11      14      15      16      17      18      19      20
       8       9      12      13      14      15      16      17      18      19
      20      21      22      23       9      20      21      22      23      20
      21      22      23      11      12      13      14      15      12      13
      14      15      13      16      17      16      17      15      18      19
      18      19      17      20      20      19      20      20       0      22
      23      23       0
%FLAG HBOND_ACOEF                                                               
%FORMAT(5E16.8)                                                                 

%FLAG HBOND_BCOEF                                                               
%FORMAT(5E16.8)                                                                 

%FLAG HBCUT                                                                     
%FORMAT(5E16.8)                                                                 

%FLAG AMBER_ATOM_TYPE                                                           
%FORMAT(20a4)                                                                   
c   c6  c6  c6  c6  c6  c6  c3  o   hc  hc  hc  hc  hc  hc  hc  hc  hc  hc  hc  
hc  hc  hc  
%FLAG TREE_CHAIN_CLASSIFICATION                                                 
%FORMAT(20a4)                                                                   
BLA BLA BLA BLA BLA BLA BLA BLA BLA BLA BLA BLA BLA BLA BLA BLA BLA BLA BLA BLA 
BLA BLA BLA 
%FLAG JOIN_ARRAY                                                                
%FORMAT(10I8)                                                                   
       0       0       0       0       0       0       0       0       0       0
       0       0       0       0       0       0       0       0       0       0
       0       0       0
%FLAG IROTAT                                                                    
%FORMAT(10I8)                                                                   
       0       0       0       0       0       0       0       0       0       0
       0       0       0       0       0       0       0       0       0       0
       0       0       0
%FLAG RADIUS_SET                                                                
%FORMAT(1a80)                                                                   
modified Bondi radii (mbondi)                                                   
%FLAG RADII                                                                     
%FORMAT(5E16.8)                                                                 
  1.70000000E+00  1.70000000E+00  1.70000000E+00  1.70000000E+00  1.70000000E+00
  1.70000000E+00  1.70000000E+00  1.70000000E+00  1.50000000E+00  1.30000000E+00
  1.30000000E+00  1.30000000E+00  1.30000000E+00  1.30000000E+00  1.30000000E+00
  1.30000000E+00  1.30000000E+00  1.30000000E+00  1.30000000E+00  1.30000000E+00
  1.30000000E+00  1.30000000E+00  1.30000000E+00
%FLAG SCREEN                                                                    
%FORMAT(5E16.8)                                                                 
  7.20000000E-01  7.20000000E-01  7.20000000E-01  7.20000000E-01  7.20000000E-01
  7.20000000E-01  7.20000000E-01  7.20000000E-01  8.50000000E-01  8.50000000E-01
  8.50000000E-01  8.50000000E-01  8.50000000E-01  8.50000000E-01  8.50000000E-01
  8.50000000E-01  8.50000000E-01  8.50000000E-01  8.50000000E-01  8.50000000E-01
  8.50000000E-01  8.50000000E-01  8.50000000E-01
%FLAG IPOL                                                                      
%FORMAT(1I8)                                                                    
       0
