mobley_5371840_GMX.gro created by acpype (v: 2023.10.27) on Wed May 20 23:44:43 2026
   22
    1MOL     C1    1   2.712   2.796   2.469
    1MOL     C2    2   2.798   2.696   2.422
    1MOL     C3    3   2.583   2.764   2.511
    1MOL     C4    4   2.754   2.564   2.416
    1MOL     C5    5   2.245   2.440   2.582
    1MOL     C6    6   2.202   2.307   2.577
    1MOL     C7    7   2.416   2.240   2.487
    1MOL     C8    8   2.540   2.631   2.505
    1MOL     C9    9   2.625   2.531   2.458
    1MOL    C10   10   2.374   2.472   2.540
    1MOL    C11   11   2.459   2.373   2.493
    1MOL    C12   12   2.287   2.208   2.529
    1MOL     O1   13   2.412   2.604   2.548
    1MOL     O2   14   2.587   2.400   2.451
    1MOL    CL1   15   2.233   2.044   2.522
    1MOL     H1   16   2.746   2.899   2.473
    1MOL     H2   17   2.898   2.722   2.389
    1MOL     H3   18   2.517   2.842   2.548
    1MOL     H4   19   2.821   2.487   2.379
    1MOL     H5   20   2.178   2.517   2.619
    1MOL     H6   21   2.101   2.283   2.610
    1MOL     H7   22   2.483   2.163   2.450
   4.99830   4.99830   4.99830
