mobley_5371840_GMX.gro created by acpype (v: 2023.10.27) on Wed May 20 23:44:43 2026
12163
    1MOL     C1    1   2.712   2.796   2.469
    1MOL     C2    2   2.798   2.696   2.422
    1MOL     C3    3   2.583   2.764   2.511
    1MOL     C4    4   2.754   2.564   2.416
    1MOL     C5    5   2.245   2.440   2.582
    1MOL     C6    6   2.202   2.307   2.577
    1MOL     C7    7   2.416   2.240   2.487
    1MOL     C8    8   2.540   2.631   2.505
    1MOL     C9    9   2.625   2.531   2.458
    1MOL    C10   10   2.374   2.472   2.540
    1MOL    C11   11   2.459   2.373   2.493
    1MOL    C12   12   2.287   2.208   2.529
    1MOL     O1   13   2.412   2.604   2.548
    1MOL     O2   14   2.587   2.400   2.451
    1MOL    CL1   15   2.233   2.044   2.522
    1MOL     H1   16   2.746   2.899   2.473
    1MOL     H2   17   2.898   2.722   2.389
    1MOL     H3   18   2.517   2.842   2.548
    1MOL     H4   19   2.821   2.487   2.379
    1MOL     H5   20   2.178   2.517   2.619
    1MOL     H6   21   2.101   2.283   2.610
    1MOL     H7   22   2.483   2.163   2.450
    2SOL     OW   23   0.230   0.628   0.113
    2SOL    HW1   24   0.137   0.626   0.150
    2SOL    HW2   25   0.231   0.589   0.021
    3SOL     OW   26   0.225   0.275   0.996
    3SOL    HW1   27   0.260   0.258   1.088
    3SOL    HW2   28   0.137   0.230   0.984
    4SOL     OW   29   0.019   0.368   0.647
    4SOL    HW1   30  -0.063   0.411   0.686
    4SOL    HW2   31  -0.009   0.295   0.584
    5SOL     OW   32   0.569   1.275   1.165
    5SOL    HW1   33   0.476   1.268   1.128
    5SOL    HW2   34   0.580   1.364   1.209
    6SOL     OW   35   1.555   1.511   0.703
    6SOL    HW1   36   1.498   1.495   0.784
    6SOL    HW2   37   1.496   1.521   0.623
    7SOL     OW   38   1.135   0.703   0.717
    7SOL    HW1   39   1.192   0.781   0.692
    7SOL    HW2   40   1.075   0.729   0.793
    8SOL     OW   41   1.755   0.607   0.231
    8SOL    HW1   42   1.743   0.594   0.132
    8SOL    HW2   43   1.725   0.526   0.280
    9SOL     OW   44   0.768   1.144   1.023
    9SOL    HW1   45   0.690   1.161   1.083
    9SOL    HW2   46   0.802   1.231   0.987
   10SOL     OW   47   0.850   0.798   1.823
   10SOL    HW1   48   0.846   0.874   1.888
   10SOL    HW2   49   0.872   0.834   1.732
   11SOL     OW   50   0.685   1.012   0.665
   11SOL    HW1   51   0.754   0.996   0.735
   11SOL    HW2   52   0.612   1.069   0.703
   12SOL     OW   53   0.686   1.161   1.803
   12SOL    HW1   54   0.746   1.240   1.817
   12SOL    HW2   55   0.600   1.192   1.762
   13SOL     OW   56   0.335   1.435   1.061
   13SOL    HW1   57   0.257   1.404   1.008
   13SOL    HW2   58   0.393   1.493   1.004
   14SOL     OW   59   1.460   1.505   1.339
   14SOL    HW1   60   1.484   1.599   1.365
   14SOL    HW2   61   1.444   1.451   1.421
   15SOL     OW   62   0.438   0.392   1.499
   15SOL    HW1   63   0.520   0.336   1.508
   15SOL    HW2   64   0.357   0.334   1.503
   16SOL     OW   65   1.603   0.447   0.737
   16SOL    HW1   66   1.529   0.493   0.687
   16SOL    HW2   67   1.654   0.515   0.790
   17SOL     OW   68   0.231   1.713   0.483
   17SOL    HW1   69   0.265   1.790   0.537
   17SOL    HW2   70   0.275   1.713   0.393
   18SOL     OW   71   1.127   1.341   1.690
   18SOL    HW1   72   1.174   1.341   1.778
   18SOL    HW2   73   1.079   1.254   1.679
   19SOL     OW   74   0.230   1.434   0.538
   19SOL    HW1   75   0.204   1.530   0.538
   19SOL    HW2   76   0.159   1.380   0.583
   20SOL     OW   77   0.240   1.091   0.886
   20SOL    HW1   78   0.254   1.007   0.938
   20SOL    HW2   79   0.185   1.155   0.941
   21SOL     OW   80   0.620   1.786   1.439
   21SOL    HW1   81   0.528   1.769   1.474
   21SOL    HW2   82   0.648   1.878   1.465
   22SOL     OW   83   0.606   0.964   0.123
   22SOL    HW1   84   0.613   1.048   0.069
   22SOL    HW2   85   0.652   0.977   0.211
   23SOL     OW   86   1.594   0.114   1.480
   23SOL    HW1   87   1.576   0.181   1.408
   23SOL    HW2   88   1.591   0.160   1.569
   24SOL     OW   89   0.122   0.643   0.563
   24SOL    HW1   90   0.077   0.555   0.580
   24SOL    HW2   91   0.121   0.697   0.647
   25SOL     OW   92   1.842   1.767   0.359
   25SOL    HW1   93   1.896   1.738   0.439
   25SOL    HW2   94   1.872   1.857   0.330
   26SOL     OW   95   0.027   1.596   0.117
   26SOL    HW1   96   0.008   1.500   0.138
   26SOL    HW2   97  -0.006   1.654   0.192
   27SOL     OW   98   1.689   0.922   0.612
   27SOL    HW1   99   1.784   0.893   0.620
   27SOL    HW2  100   1.681   0.987   0.537
   28SOL     OW  101   1.641   1.108   0.432
   28SOL    HW1  102   1.727   1.110   0.380
   28SOL    HW2  103   1.655   1.155   0.520
   29SOL     OW  104   0.113   0.737   1.597
   29SOL    HW1  105   0.201   0.724   1.642
   29SOL    HW2  106   0.100   0.834   1.575
   30SOL     OW  107   0.613   1.365   0.726
   30SOL    HW1  108   0.564   1.278   0.735
   30SOL    HW2  109   0.590   1.408   0.639
   31SOL     OW  110   1.293   1.228   1.423
   31SOL    HW1  111   1.330   1.155   1.365
   31SOL    HW2  112   1.345   1.233   1.508
   32SOL     OW  113   0.809   0.004   0.502
   32SOL    HW1  114   0.849   0.095   0.493
   32SOL    HW2  115   0.709   0.012   0.508
   33SOL     OW  116   0.197   0.976   1.264
   33SOL    HW1  117   0.286   0.931   1.250
   33SOL    HW2  118   0.124   0.911   1.245
   34SOL     OW  119   1.525   0.999   0.190
   34SOL    HW1  120   1.462   0.923   0.203
   34SOL    HW2  121   1.573   1.017   0.276
   35SOL     OW  122   1.187   1.792   1.616
   35SOL    HW1  123   1.211   1.852   1.540
   35SOL    HW2  124   1.194   1.697   1.586
   36SOL     OW  125   0.317   0.251   1.801
   36SOL    HW1  126   0.388   0.322   1.807
   36SOL    HW2  127   0.229   0.290   1.829
   37SOL     OW  128   1.466   1.417   0.953
   37SOL    HW1  129   1.407   1.423   1.033
   37SOL    HW2  130   1.451   1.329   0.907
   38SOL     OW  131   1.667   1.714   0.572
   38SOL    HW1  132   1.626   1.691   0.484
   38SOL    HW2  133   1.649   1.640   0.637
   39SOL     OW  134   0.598   0.729   0.270
   39SOL    HW1  135   0.622   0.798   0.202
   39SOL    HW2  136   0.520   0.762   0.324
   40SOL     OW  137   1.281   0.345   0.944
   40SOL    HW1  138   1.195   0.295   0.931
   40SOL    HW2  139   1.343   0.291   1.000
   41SOL     OW  140   1.576   1.662   0.307
   41SOL    HW1  141   1.665   1.708   0.310
   41SOL    HW2  142   1.555   1.638   0.212
   42SOL     OW  143   0.807   0.605   1.465
   42SOL    HW1  144   0.760   0.602   1.554
   42SOL    HW2  145   0.756   0.550   1.399
   43SOL     OW  146   1.394   0.469   1.674
   43SOL    HW1  147   1.374   0.512   1.762
   43SOL    HW2  148   1.472   0.407   1.683
   44SOL     OW  149   0.973   0.890   1.572
   44SOL    HW1  150   1.019   0.806   1.543
   44SOL    HW2  151   0.917   0.924   1.497
   45SOL     OW  152   0.991   0.410   1.242
   45SOL    HW1  153   0.914   0.444   1.296
   45SOL    HW2  154   0.957   0.359   1.163
   46SOL     OW  155   1.041   0.701   0.429
   46SOL    HW1  156   1.067   0.697   0.525
   46SOL    HW2  157   0.956   0.650   0.415
   47SOL     OW  158   0.076   0.811   0.789
   47SOL    HW1  159   0.175   0.799   0.798
   47SOL    HW2  160   0.052   0.906   0.810
   48SOL     OW  161   0.130   1.821   1.571
   48SOL    HW1  162   0.120   1.806   1.670
   48SOL    HW2  163   0.044   1.857   1.535
   49SOL     OW  164   0.865   0.348   0.195
   49SOL    HW1  165   0.924   0.411   0.146
   49SOL    HW2  166   0.884   0.254   0.166
   50SOL     OW  167   1.719   0.585   1.831
   50SOL    HW1  168   1.693   0.674   1.795
   50SOL    HW2  169   1.717   0.517   1.758
   51SOL     OW  170   1.362   1.144   0.545
   51SOL    HW1  171   1.445   1.115   0.497
   51SOL    HW2  172   1.313   1.211   0.489
   52SOL     OW  173   0.550   0.196   0.885
   52SOL    HW1  174   0.545   0.191   0.985
   52SOL    HW2  175   0.552   0.292   0.856
   53SOL     OW  176   1.008   1.456   0.477
   53SOL    HW1  177   0.962   1.528   0.425
   53SOL    HW2  178   1.004   1.476   0.575
   54SOL     OW  179   0.351   1.801   0.853
   54SOL    HW1  180   0.401   1.715   0.859
   54SOL    HW2  181   0.416   1.878   0.850
   55SOL     OW  182   1.795   1.066   0.873
   55SOL    HW1  183   1.733   1.051   0.797
   55SOL    HW2  184   1.743   1.077   0.958
   56SOL     OW  185   1.227   1.550   1.506
   56SOL    HW1  186   1.233   1.473   1.570
   56SOL    HW2  187   1.175   1.524   1.426
   57SOL     OW  188   0.321   0.943   0.242
   57SOL    HW1  189   0.403   0.982   0.200
   57SOL    HW2  190   0.294   0.861   0.193
   58SOL     OW  191   1.458   0.735   0.728
   58SOL    HW1  192   1.453   0.670   0.803
   58SOL    HW2  193   1.538   0.794   0.741
   59SOL     OW  194   0.461   1.266   1.727
   59SOL    HW1  195   0.411   1.267   1.641
   59SOL    HW2  196   0.398   1.248   1.803
   60SOL     OW  197   1.111   1.776   0.237
   60SOL    HW1  198   1.051   1.714   0.287
   60SOL    HW2  199   1.142   1.732   0.152
   61SOL     OW  200   0.202   0.285   1.498
   61SOL    HW1  201   0.122   0.345   1.485
   61SOL    HW2  202   0.192   0.236   1.584
   62SOL     OW  203   1.632   1.377   0.081
   62SOL    HW1  204   1.600   1.471   0.071
   62SOL    HW2  205   1.556   1.314   0.069
   63SOL     OW  206   0.464   1.743   0.323
   63SOL    HW1  207   0.497   1.782   0.409
   63SOL    HW2  208   0.540   1.736   0.258
   64SOL     OW  209   1.400   0.107   0.426
   64SOL    HW1  210   1.376   0.070   0.336
   64SOL    HW2  211   1.499   0.123   0.430
   65SOL     OW  212   0.249   1.785   1.241
   65SOL    HW1  213   0.306   1.720   1.291
   65SOL    HW2  214   0.233   1.752   1.148
   66SOL     OW  215   0.940   1.698   0.904
   66SOL    HW1  216   1.020   1.641   0.925
   66SOL    HW2  217   0.891   1.658   0.827
   67SOL     OW  218   0.382   0.700   0.480
   67SOL    HW1  219   0.427   0.610   0.477
   67SOL    HW2  220   0.288   0.689   0.513
   68SOL     OW  221   1.547   0.222   1.729
   68SOL    HW1  222   1.542   0.259   1.821
   68SOL    HW2  223   1.475   0.153   1.717
   69SOL     OW  224   0.614   0.122   0.117
   69SOL    HW1  225   0.712   0.100   0.124
   69SOL    HW2  226   0.583   0.105   0.024
   70SOL     OW  227   0.781   0.264   1.749
   70SOL    HW1  228   0.848   0.203   1.792
   70SOL    HW2  229   0.708   0.283   1.814
   71SOL     OW  230   0.888   1.514   1.195
   71SOL    HW1  231   0.865   1.489   1.101
   71SOL    HW2  232   0.949   1.445   1.234
   72SOL     OW  233   1.351   0.590   1.433
   72SOL    HW1  234   1.379   0.547   1.518
   72SOL    HW2  235   1.376   0.686   1.434
   73SOL     OW  236   0.803   1.402   0.924
   73SOL    HW1  237   0.893   1.416   0.882
   73SOL    HW2  238   0.732   1.404   0.853
   74SOL     OW  239   0.922   0.503   0.899
   74SOL    HW1  240   0.897   0.494   0.803
   74SOL    HW2  241   0.970   0.421   0.930
   75SOL     OW  242   0.539   0.064   0.512
   75SOL    HW1  243   0.458   0.065   0.570
   75SOL    HW2  244   0.542   0.147   0.457
   76SOL     OW  245   1.434   1.188   0.041
   76SOL    HW1  246   1.466   1.112   0.098
   76SOL    HW2  247   1.342   1.215   0.071
   77SOL     OW  248   0.297   0.035   0.171
   77SOL    HW1  249   0.346   0.119   0.150
   77SOL    HW2  250   0.359  -0.030   0.216
   78SOL     OW  251   0.935   0.236   0.480
   78SOL    HW1  252   0.887   0.277   0.402
   78SOL    HW2  253   1.034   0.234   0.461
   79SOL     OW  254   1.076   0.683   1.464
   79SOL    HW1  255   0.996   0.622   1.467
   79SOL    HW2  256   1.157   0.630   1.440
   80SOL     OW  257   1.227   1.570   0.793
   80SOL    HW1  258   1.248   1.644   0.728
   80SOL    HW2  259   1.295   1.570   0.866
   81SOL     OW  260   0.459   1.152   0.741
   81SOL    HW1  261   0.388   1.125   0.806
   81SOL    HW2  262   0.433   1.124   0.648
   82SOL     OW  263   1.271   1.797   0.591
   82SOL    HW1  264   1.315   1.861   0.527
   82SOL    HW2  265   1.221   1.849   0.661
   83SOL     OW  266   1.032   0.549   0.016
   83SOL    HW1  267   0.991   0.631  -0.023
   83SOL    HW2  268   1.096   0.575   0.089
   84SOL     OW  269   0.078   0.556   1.386
   84SOL    HW1  270   0.170   0.555   1.345
   84SOL    HW2  271   0.072   0.630   1.453
   85SOL     OW  272   0.561   0.222   1.147
   85SOL    HW1  273   0.599   0.138   1.184
   85SOL    HW2  274   0.473   0.241   1.191
   86SOL     OW  275   0.866   0.454   0.642
   86SOL    HW1  276   0.834   0.526   0.580
   86SOL    HW2  277   0.890   0.373   0.589
   87SOL     OW  278   1.017   0.039   0.753
   87SOL    HW1  279   0.945   0.044   0.684
   87SOL    HW2  280   0.993  -0.030   0.822
   88SOL     OW  281   1.429   1.173   0.867
   88SOL    HW1  282   1.374   1.089   0.860
   88SOL    HW2  283   1.455   1.202   0.775
   89SOL     OW  284   1.466   0.590   0.992
   89SOL    HW1  285   1.436   0.495   0.999
   89SOL    HW2  286   1.539   0.606   1.058
   90SOL     OW  287   1.857   0.833   0.377
   90SOL    HW1  288   1.899   0.769   0.441
   90SOL    HW2  289   1.819   0.782   0.299
   91SOL     OW  290   0.488   1.385   0.174
   91SOL    HW1  291   0.401   1.370   0.221
   91SOL    HW2  292   0.471   1.411   0.079
   92SOL     OW  293   1.664   1.280   0.657
   92SOL    HW1  294   1.763   1.288   0.671
   92SOL    HW2  295   1.619   1.364   0.688
   93SOL     OW  296   1.390   0.575   0.078
   93SOL    HW1  297   1.336   0.554   0.159
   93SOL    HW2  298   1.481   0.534   0.087
   94SOL     OW  299   0.527   0.256   0.328
   94SOL    HW1  300   0.554   0.197   0.253
   94SOL    HW2  301   0.527   0.351   0.297
   95SOL     OW  302   1.754   1.223   1.588
   95SOL    HW1  303   1.845   1.184   1.575
   95SOL    HW2  304   1.762   1.319   1.612
   96SOL     OW  305   1.064   1.347   1.340
   96SOL    HW1  306   0.984   1.324   1.395
   96SOL    HW2  307   1.147   1.321   1.389
   97SOL     OW  308   1.592   1.629   1.625
   97SOL    HW1  309   1.619   1.663   1.535
   97SOL    HW2  310   1.671   1.591   1.671
   98SOL     OW  311   1.111   1.195   1.100
   98SOL    HW1  312   1.071   1.239   1.181
   98SOL    HW2  313   1.070   1.232   1.017
   99SOL     OW  314   1.638   1.099   1.079
   99SOL    HW1  315   1.643   1.180   1.138
   99SOL    HW2  316   1.552   1.101   1.028
  100SOL     OW  317   0.915   0.089   1.402
  100SOL    HW1  318   0.940   0.069   1.307
  100SOL    HW2  319   0.987   0.145   1.444
  101SOL     OW  320   0.980   1.116   1.719
  101SOL    HW1  321   0.881   1.122   1.729
  101SOL    HW2  322   1.003   1.036   1.663
  102SOL     OW  323   0.705   1.050   0.368
  102SOL    HW1  324   0.691   1.057   0.467
  102SOL    HW2  325   0.789   0.999   0.350
  103SOL     OW  326   0.410   0.813   1.251
  103SOL    HW1  327   0.496   0.825   1.301
  103SOL    HW2  328   0.368   0.726   1.278
  104SOL     OW  329   1.274   0.386   1.262
  104SOL    HW1  330   1.295   0.460   1.326
  104SOL    HW2  331   1.185   0.403   1.219
  105SOL     OW  332   0.064   1.564   1.331
  105SOL    HW1  333   0.018   1.646   1.297
  105SOL    HW2  334   0.162   1.583   1.340
  106SOL     OW  335   0.367   1.100   0.501
  106SOL    HW1  336   0.360   1.183   0.445
  106SOL    HW2  337   0.371   1.020   0.441
  107SOL     OW  338   0.566   0.537   0.865
  107SOL    HW1  339   0.578   0.603   0.791
  107SOL    HW2  340   0.612   0.571   0.948
  108SOL     OW  341   1.252   1.348   0.388
  108SOL    HW1  342   1.302   1.425   0.428
  108SOL    HW2  343   1.157   1.350   0.420
  109SOL     OW  344   1.272   1.445   1.142
  109SOL    HW1  345   1.319   1.458   1.229
  109SOL    HW2  346   1.206   1.371   1.151
  110SOL     OW  347   1.582   0.639   0.472
  110SOL    HW1  348   1.551   0.700   0.545
  110SOL    HW2  349   1.632   0.691   0.403
  111SOL     OW  350   0.354   1.510   1.329
  111SOL    HW1  351   0.333   1.466   1.242
  111SOL    HW2  352   0.451   1.536   1.332
  112SOL     OW  353   0.402   0.751   1.598
  112SOL    HW1  354   0.470   0.806   1.551
  112SOL    HW2  355   0.442   0.663   1.625
  113SOL     OW  356   1.587   0.779   1.670
  113SOL    HW1  357   1.495   0.817   1.665
  113SOL    HW2  358   1.647   0.826   1.605
  114SOL     OW  359   1.013   0.105   1.770
  114SOL    HW1  360   1.019   0.190   1.718
  114SOL    HW2  361   1.045   0.029   1.713
  115SOL     OW  362   0.504   0.050   1.740
  115SOL    HW1  363   0.462  -0.007   1.670
  115SOL    HW2  364   0.438   0.119   1.772
  116SOL     OW  365   0.573   0.870   1.029
  116SOL    HW1  366   0.617   0.959   1.020
  116SOL    HW2  367   0.510   0.870   1.106
  117SOL     OW  368   1.360   0.862   1.045
  117SOL    HW1  369   1.285   0.862   0.979
  117SOL    HW2  370   1.397   0.770   1.054
  118SOL     OW  371   1.209   0.525   0.275
  118SOL    HW1  372   1.222   0.441   0.329
  118SOL    HW2  373   1.180   0.599   0.335
  119SOL     OW  374   0.307   0.213   1.231
  119SOL    HW1  375   0.284   0.250   1.321
  119SOL    HW2  376   0.277   0.118   1.225
  120SOL     OW  377   0.037   1.310   1.282
  120SOL    HW1  378   0.090   1.261   1.350
  120SOL    HW2  379   0.059   1.408   1.287
  121SOL     OW  380   0.732   0.634   1.064
  121SOL    HW1  381   0.791   0.608   0.988
  121SOL    HW2  382   0.704   0.730   1.053
  122SOL     OW  383   1.728   0.935   1.854
  122SOL    HW1  384   1.682   0.928   1.765
  122SOL    HW2  385   1.666   0.979   1.920
  123SOL     OW  386   0.307   0.063   0.618
  123SOL    HW1  387   0.296   0.157   0.651
  123SOL    HW2  388   0.302   0.000   0.695
  124SOL     OW  389   1.622   0.367   0.374
  124SOL    HW1  390   1.624   0.291   0.438
  124SOL    HW2  391   1.574   0.444   0.414
  125SOL     OW  392   1.023   0.766   0.966
  125SOL    HW1  393   1.038   0.787   1.062
  125SOL    HW2  394   0.993   0.671   0.957
  126SOL     OW  395   0.980   1.573   1.700
  126SOL    HW1  396   0.960   1.617   1.612
  126SOL    HW2  397   1.019   1.482   1.684
  127SOL     OW  398   1.859   1.518   1.605
  127SOL    HW1  399   1.873   1.545   1.510
  127SOL    HW2  400   1.942   1.540   1.658
  128SOL     OW  401   0.350   0.898   1.804
  128SOL    HW1  402   0.426   0.942   1.852
  128SOL    HW2  403   0.385   0.851   1.722
  129SOL     OW  404   1.540   0.274   0.125
  129SOL    HW1  405   1.479   0.199   0.148
  129SOL    HW2  406   1.562   0.326   0.208
  130SOL     OW  407   1.303   0.838   0.042
  130SOL    HW1  408   1.337   0.745   0.057
  130SOL    HW2  409   1.321   0.865  -0.053
  131SOL     OW  410   1.068   1.333   0.849
  131SOL    HW1  411   1.075   1.249   0.794
  131SOL    HW2  412   1.130   1.402   0.813
  132SOL     OW  413   0.319   0.810   0.949
  132SOL    HW1  414   0.412   0.846   0.954
  132SOL    HW2  415   0.313   0.725   1.001
  133SOL     OW  416   0.339   0.509   1.006
  133SOL    HW1  417   0.287   0.426   0.989
  133SOL    HW2  418   0.416   0.514   0.942
  134SOL     OW  419   1.138   0.380   1.678
  134SOL    HW1  420   1.093   0.443   1.742
  134SOL    HW2  421   1.231   0.411   1.661
  135SOL     OW  422   1.160   0.207   1.477
  135SOL    HW1  423   1.160   0.271   1.554
  135SOL    HW2  424   1.188   0.255   1.394
  136SOL     OW  425   0.008   1.326   0.200
  136SOL    HW1  426  -0.085   1.347   0.169
  136SOL    HW2  427   0.018   1.227   0.213
  137SOL     OW  428   0.088   1.801   0.927
  137SOL    HW1  429   0.046   1.715   0.900
  137SOL    HW2  430   0.182   1.804   0.893
  138SOL     OW  431   0.504   1.568   0.910
  138SOL    HW1  432   0.570   1.642   0.919
  138SOL    HW2  433   0.548   1.489   0.868
  139SOL     OW  434   1.002   0.796   1.238
  139SOL    HW1  435   1.043   0.764   1.324
  139SOL    HW2  436   0.906   0.769   1.235
  140SOL     OW  437   0.040   0.544   1.114
  140SOL    HW1  438   0.125   0.511   1.073
  140SOL    HW2  439   0.053   0.559   1.212
  141SOL     OW  440   0.189   0.520   1.722
  141SOL    HW1  441   0.248   0.480   1.652
  141SOL    HW2  442   0.131   0.591   1.681
  142SOL     OW  443   1.369   0.950   1.660
  142SOL    HW1  444   1.408   1.039   1.680
  142SOL    HW2  445   1.379   0.930   1.563
  143SOL     OW  446   0.815   0.572   0.325
  143SOL    HW1  447   0.822   0.483   0.279
  143SOL    HW2  448   0.721   0.606   0.317
  144SOL     OW  449   1.657   0.604   1.206
  144SOL    HW1  450   1.619   0.535   1.268
  144SOL    HW2  451   1.739   0.568   1.162
  145SOL     OW  452   0.252   1.564   1.744
  145SOL    HW1  453   0.222   1.621   1.820
  145SOL    HW2  454   0.245   1.467   1.770
  146SOL     OW  455   0.671   0.464   1.269
  146SOL    HW1  456   0.637   0.375   1.239
  146SOL    HW2  457   0.697   0.518   1.189
  147SOL     OW  458   0.930   1.678   1.465
  147SOL    HW1  459   0.906   1.660   1.370
  147SOL    HW2  460   0.960   1.772   1.475
  148SOL     OW  461   0.473   0.500   0.191
  148SOL    HW1  462   0.534   0.580   0.195
  148SOL    HW2  463   0.378   0.531   0.198
  149SOL     OW  464   0.159   1.137   1.466
  149SOL    HW1  465   0.181   1.076   1.542
  149SOL    HW2  466   0.169   1.088   1.380
  150SOL     OW  467   1.347   1.059   1.234
  150SOL    HW1  468   1.371   0.996   1.160
  150SOL    HW2  469   1.257   1.099   1.216
  151SOL     OW  470   1.302   0.855   0.309
  151SOL    HW1  471   1.216   0.824   0.351
  151SOL    HW2  472   1.298   0.841   0.210
  152SOL     OW  473   1.759   1.747   1.154
  152SOL    HW1  474   1.820   1.777   1.081
  152SOL    HW2  475   1.721   1.658   1.132
  153SOL     OW  476   1.252   1.731   1.128
  153SOL    HW1  477   1.336   1.736   1.074
  153SOL    HW2  478   1.229   1.635   1.146
  154SOL     OW  479   0.083   1.258   1.022
  154SOL    HW1  480   0.078   1.257   1.122
  154SOL    HW2  481   0.000   1.217   0.984
  155SOL     OW  482   0.688   1.662   1.716
  155SOL    HW1  483   0.632   1.743   1.725
  155SOL    HW2  484   0.740   1.666   1.630
  156SOL     OW  485   0.903   0.086   0.133
  156SOL    HW1  486   0.954   0.087   0.047
  156SOL    HW2  487   0.959   0.044   0.204
  157SOL     OW  488   1.726   0.135   0.523
  157SOL    HW1  489   1.799   0.118   0.456
  157SOL    HW2  490   1.695   0.048   0.561
  158SOL     OW  491   1.388   1.573   0.477
  158SOL    HW1  492   1.455   1.585   0.403
  158SOL    HW2  493   1.348   1.662   0.500
  159SOL     OW  494   0.130   1.794   1.851
  159SOL    HW1  495   0.089   1.720   1.904
  159SOL    HW2  496   0.194   1.845   1.909
  160SOL     OW  497   1.280   0.927   0.672
  160SOL    HW1  498   1.340   0.846   0.674
  160SOL    HW2  499   1.320   0.996   0.612
  161SOL     OW  500   0.830   1.273   1.422
  161SOL    HW1  501   0.825   1.306   1.517
  161SOL    HW2  502   0.744   1.292   1.376
  162SOL     OW  503   0.672   1.616   0.154
  162SOL    HW1  504   0.681   1.626   0.055
  162SOL    HW2  505   0.632   1.527   0.175
  163SOL     OW  506   1.650   1.720   1.394
  163SOL    HW1  507   1.703   1.730   1.310
  163SOL    HW2  508   1.623   1.810   1.428
  164SOL     OW  509   1.841   0.175   0.963
  164SOL    HW1  510   1.880   0.090   0.927
  164SOL    HW2  511   1.743   0.177   0.944
  165SOL     OW  512   0.263   0.326   0.720
  165SOL    HW1  513   0.184   0.377   0.686
  165SOL    HW2  514   0.254   0.311   0.818
  166SOL     OW  515   1.194   1.612   0.031
  166SOL    HW1  516   1.200   1.519   0.068
  166SOL    HW2  517   1.135   1.612  -0.049
  167SOL     OW  518   0.822   1.002   1.372
  167SOL    HW1  519   0.862   1.001   1.280
  167SOL    HW2  520   0.832   1.094   1.412
  168SOL     OW  521   0.916   0.910   0.291
  168SOL    HW1  522   0.979   0.948   0.223
  168SOL    HW2  523   0.956   0.827   0.330
  169SOL     OW  524   1.504   1.607   0.044
  169SOL    HW1  525   1.412   1.644   0.051
  169SOL    HW2  526   1.542   1.627  -0.046
  170SOL     OW  527   0.372   1.288   1.490
  170SOL    HW1  528   0.359   1.381   1.456
  170SOL    HW2  529   0.288   1.236   1.477
  171SOL     OW  530   1.614   1.292   1.289
  171SOL    HW1  531   1.674   1.295   1.369
  171SOL    HW2  532   1.539   1.356   1.302
  172SOL     OW  533   1.039   1.098   0.696
  172SOL    HW1  534   0.969   1.051   0.750
  172SOL    HW2  535   1.098   1.030   0.653
  173SOL     OW  536   1.014   0.236   0.971
  173SOL    HW1  537   1.006   0.200   0.878
  173SOL    HW2  538   1.012   0.160   1.036
  174SOL     OW  539   0.590   1.487   0.491
  174SOL    HW1  540   0.632   1.429   0.421
  174SOL    HW2  541   0.546   1.566   0.447
  175SOL     OW  542   1.709   0.385   1.381
  175SOL    HW1  543   1.782   0.454   1.385
  175SOL    HW2  544   1.737   0.310   1.322
  176SOL     OW  545   0.255   1.348   0.290
  176SOL    HW1  546   0.159   1.349   0.263
  176SOL    HW2  547   0.267   1.401   0.374
  177SOL     OW  548   0.105   1.013   1.726
  177SOL    HW1  549   0.028   0.980   1.780
  177SOL    HW2  550   0.190   0.983   1.768
  178SOL     OW  551   0.672   0.203   1.489
  178SOL    HW1  552   0.762   0.187   1.449
  178SOL    HW2  553   0.680   0.208   1.588
  179SOL     OW  554   0.075   0.345   0.033
  179SOL    HW1  555  -0.017   0.317   0.004
  179SOL    HW2  556   0.106   0.422  -0.023
  180SOL     OW  557   1.440   0.856   1.398
  180SOL    HW1  558   1.383   0.908   1.335
  180SOL    HW2  559   1.536   0.868   1.374
  181SOL     OW  560   0.072   0.166   0.318
  181SOL    HW1  561   0.055   0.249   0.264
  181SOL    HW2  562   0.162   0.129   0.296
  182SOL     OW  563   1.183   1.335   0.119
  182SOL    HW1  564   1.084   1.324   0.121
  182SOL    HW2  565   1.217   1.350   0.212
  183SOL     OW  566   0.613   0.842   1.431
  183SOL    HW1  567   0.669   0.923   1.414
  183SOL    HW2  568   0.672   0.762   1.434
  184SOL     OW  569   1.493   1.767   0.959
  184SOL    HW1  570   1.526   1.831   0.890
  184SOL    HW2  571   1.559   1.761   1.034
  185SOL     OW  572   0.716   0.565   1.708
  185SOL    HW1  573   0.735   0.630   1.782
  185SOL    HW2  574   0.776   0.485   1.717
  186SOL     OW  575   1.450   1.220   1.633
  186SOL    HW1  576   1.441   1.210   1.732
  186SOL    HW2  577   1.546   1.213   1.607
  187SOL     OW  578   0.390   1.741   1.560
  187SOL    HW1  579   0.299   1.782   1.558
  187SOL    HW2  580   0.383   1.647   1.592
  188SOL     OW  581   1.674   0.883   1.254
  188SOL    HW1  582   1.647   0.794   1.217
  188SOL    HW2  583   1.675   0.951   1.181
  189SOL     OW  584   1.225   0.325   0.449
  189SOL    HW1  585   1.290   0.251   0.438
  189SOL    HW2  586   1.245   0.375   0.533
  190SOL     OW  587   0.594   0.745   0.652
  190SOL    HW1  588   0.644   0.830   0.633
  190SOL    HW2  589   0.506   0.747   0.604
  191SOL     OW  590   1.777   0.342   1.642
  191SOL    HW1  591   1.760   0.373   1.548
  191SOL    HW2  592   1.693   0.305   1.680
  192SOL     OW  593   1.730   0.934   1.517
  192SOL    HW1  594   1.768   1.025   1.532
  192SOL    HW2  595   1.722   0.917   1.418
  193SOL     OW  596   0.859   1.374   0.016
  193SOL    HW1  597   0.813   1.389   0.104
  193SOL    HW2  598   0.903   1.459  -0.014
  194SOL     OW  599   0.661   1.790   0.953
  194SOL    HW1  600   0.615   1.878   0.940
  194SOL    HW2  601   0.760   1.802   0.946
  195SOL     OW  602   0.859   0.956   0.861
  195SOL    HW1  603   0.913   0.887   0.909
  195SOL    HW2  604   0.827   1.025   0.927
  196SOL     OW  605   1.083   0.984   0.087
  196SOL    HW1  606   1.060   1.037   0.005
  196SOL    HW2  607   1.164   0.928   0.068
  197SOL     OW  608   1.861   1.569   0.851
  197SOL    HW1  609   1.790   1.557   0.781
  197SOL    HW2  610   1.862   1.490   0.911
  198SOL     OW  611   0.221   1.314   1.844
  198SOL    HW1  612   0.156   1.241   1.823
  198SOL    HW2  613   0.225   1.328   1.942
  199SOL     OW  614   0.079   1.240   0.653
  199SOL    HW1  615   0.078   1.193   0.741
  199SOL    HW2  616   0.161   1.212   0.602
  200SOL     OW  617   0.672   1.391   1.624
  200SOL    HW1  618   0.594   1.341   1.662
  200SOL    HW2  619   0.669   1.486   1.655
  201SOL     OW  620   1.824   0.192   1.227
  201SOL    HW1  621   1.820   0.102   1.271
  201SOL    HW2  622   1.827   0.181   1.128
  202SOL     OW  623   0.428   0.424   0.520
  202SOL    HW1  624   0.458   0.352   0.458
  202SOL    HW2  625   0.389   0.384   0.603
  203SOL     OW  626   1.705   1.487   1.104
  203SOL    HW1  627   1.612   1.462   1.077
  203SOL    HW2  628   1.731   1.437   1.186
  204SOL     OW  629   0.317   0.547   1.280
  204SOL    HW1  630   0.355   0.488   1.352
  204SOL    HW2  631   0.357   0.521   1.192
  205SOL     OW  632   0.812   1.586   0.687
  205SOL    HW1  633   0.844   1.596   0.593
  205SOL    HW2  634   0.733   1.524   0.689
  206SOL     OW  635   1.424   0.214   1.112
  206SOL    HW1  636   1.476   0.149   1.167
  206SOL    HW2  637   1.375   0.277   1.173
  207SOL     OW  638   1.001   0.034   1.154
  207SOL    HW1  639   0.938  -0.038   1.123
  207SOL    HW2  640   1.094  -0.002   1.154
  208SOL     OW  641   0.770   1.330   0.301
  208SOL    HW1  642   0.724   1.243   0.318
  208SOL    HW2  643   0.861   1.327   0.342
  209SOL     OW  644   0.618   1.567   1.284
  209SOL    HW1  645   0.613   1.649   1.341
  209SOL    HW2  646   0.707   1.564   1.239
  210SOL     OW  647   1.352   0.052   0.168
  210SOL    HW1  648   1.387   0.011   0.084
  210SOL    HW2  649   1.262   0.014   0.188
  211SOL     OW  650   1.300   0.453   0.691
  211SOL    HW1  651   1.241   0.533   0.695
  211SOL    HW2  652   1.315   0.418   0.784
  212SOL     OW  653   1.593   0.221   0.882
  212SOL    HW1  654   1.509   0.220   0.936
  212SOL    HW2  655   1.595   0.304   0.826
  213SOL     OW  656   0.039   1.077   0.300
  213SOL    HW1  657   0.138   1.066   0.291
  213SOL    HW2  658  -0.001   0.991   0.332
  214SOL     OW  659   0.875   1.646   0.337
  214SOL    HW1  660   0.798   1.611   0.283
  214SOL    HW2  661   0.843   1.717   0.399
  215SOL     OW  662   0.230   0.628   1.975
  215SOL    HW1  663   0.137   0.626   2.012
  215SOL    HW2  664   0.231   0.589   1.883
  216SOL     OW  665   0.225   0.275   2.858
  216SOL    HW1  666   0.260   0.258   2.950
  216SOL    HW2  667   0.137   0.230   2.846
  217SOL     OW  668   0.019   0.368   2.509
  217SOL    HW1  669  -0.063   0.411   2.548
  217SOL    HW2  670  -0.009   0.295   2.446
  218SOL     OW  671   0.569   1.275   3.027
  218SOL    HW1  672   0.476   1.268   2.990
  218SOL    HW2  673   0.580   1.364   3.071
  219SOL     OW  674   1.555   1.511   2.565
  219SOL    HW1  675   1.498   1.495   2.646
  219SOL    HW2  676   1.496   1.521   2.485
  220SOL     OW  677   1.135   0.703   2.579
  220SOL    HW1  678   1.192   0.781   2.554
  220SOL    HW2  679   1.075   0.729   2.655
  221SOL     OW  680   1.755   0.607   2.093
  221SOL    HW1  681   1.743   0.594   1.994
  221SOL    HW2  682   1.725   0.526   2.142
  222SOL     OW  683   0.768   1.144   2.885
  222SOL    HW1  684   0.690   1.161   2.945
  222SOL    HW2  685   0.802   1.231   2.849
  223SOL     OW  686   0.850   0.798   3.685
  223SOL    HW1  687   0.846   0.874   3.750
  223SOL    HW2  688   0.872   0.834   3.594
  224SOL     OW  689   0.685   1.012   2.527
  224SOL    HW1  690   0.754   0.996   2.597
  224SOL    HW2  691   0.612   1.069   2.565
  225SOL     OW  692   0.686   1.161   3.665
  225SOL    HW1  693   0.746   1.240   3.679
  225SOL    HW2  694   0.600   1.192   3.624
  226SOL     OW  695   0.335   1.435   2.923
  226SOL    HW1  696   0.257   1.404   2.870
  226SOL    HW2  697   0.393   1.493   2.866
  227SOL     OW  698   1.460   1.505   3.201
  227SOL    HW1  699   1.484   1.599   3.227
  227SOL    HW2  700   1.444   1.451   3.283
  228SOL     OW  701   0.438   0.392   3.361
  228SOL    HW1  702   0.520   0.336   3.370
  228SOL    HW2  703   0.357   0.334   3.365
  229SOL     OW  704   1.603   0.447   2.599
  229SOL    HW1  705   1.529   0.493   2.549
  229SOL    HW2  706   1.654   0.515   2.652
  230SOL     OW  707   0.231   1.713   2.345
  230SOL    HW1  708   0.265   1.790   2.399
  230SOL    HW2  709   0.275   1.713   2.255
  231SOL     OW  710   1.127   1.341   3.552
  231SOL    HW1  711   1.174   1.341   3.640
  231SOL    HW2  712   1.079   1.254   3.541
  232SOL     OW  713   0.230   1.434   2.400
  232SOL    HW1  714   0.204   1.530   2.400
  232SOL    HW2  715   0.159   1.380   2.445
  233SOL     OW  716   0.240   1.091   2.748
  233SOL    HW1  717   0.254   1.007   2.800
  233SOL    HW2  718   0.185   1.155   2.803
  234SOL     OW  719   0.620   1.786   3.301
  234SOL    HW1  720   0.528   1.769   3.336
  234SOL    HW2  721   0.648   1.878   3.327
  235SOL     OW  722   0.606   0.964   1.985
  235SOL    HW1  723   0.613   1.048   1.931
  235SOL    HW2  724   0.652   0.977   2.073
  236SOL     OW  725   1.594   0.114   3.342
  236SOL    HW1  726   1.576   0.181   3.270
  236SOL    HW2  727   1.591   0.160   3.431
  237SOL     OW  728   0.122   0.643   2.425
  237SOL    HW1  729   0.077   0.555   2.442
  237SOL    HW2  730   0.121   0.697   2.509
  238SOL     OW  731   1.842   1.767   2.221
  238SOL    HW1  732   1.896   1.738   2.301
  238SOL    HW2  733   1.872   1.857   2.192
  239SOL     OW  734   0.027   1.596   1.979
  239SOL    HW1  735   0.008   1.500   2.000
  239SOL    HW2  736  -0.006   1.654   2.054
  240SOL     OW  737   1.689   0.922   2.474
  240SOL    HW1  738   1.784   0.893   2.482
  240SOL    HW2  739   1.681   0.987   2.399
  241SOL     OW  740   1.641   1.108   2.294
  241SOL    HW1  741   1.727   1.110   2.242
  241SOL    HW2  742   1.655   1.155   2.382
  242SOL     OW  743   0.113   0.737   3.459
  242SOL    HW1  744   0.201   0.724   3.504
  242SOL    HW2  745   0.100   0.834   3.437
  243SOL     OW  746   0.613   1.365   2.588
  243SOL    HW1  747   0.564   1.278   2.597
  243SOL    HW2  748   0.590   1.408   2.501
  244SOL     OW  749   1.293   1.228   3.285
  244SOL    HW1  750   1.330   1.155   3.227
  244SOL    HW2  751   1.345   1.233   3.370
  245SOL     OW  752   0.809   0.004   2.364
  245SOL    HW1  753   0.849   0.095   2.355
  245SOL    HW2  754   0.709   0.012   2.370
  246SOL     OW  755   0.197   0.976   3.126
  246SOL    HW1  756   0.286   0.931   3.112
  246SOL    HW2  757   0.124   0.911   3.107
  247SOL     OW  758   1.525   0.999   2.052
  247SOL    HW1  759   1.462   0.923   2.065
  247SOL    HW2  760   1.573   1.017   2.138
  248SOL     OW  761   1.187   1.792   3.478
  248SOL    HW1  762   1.211   1.852   3.402
  248SOL    HW2  763   1.194   1.697   3.448
  249SOL     OW  764   0.317   0.251   3.663
  249SOL    HW1  765   0.388   0.322   3.669
  249SOL    HW2  766   0.229   0.290   3.691
  250SOL     OW  767   1.466   1.417   2.815
  250SOL    HW1  768   1.407   1.423   2.895
  250SOL    HW2  769   1.451   1.329   2.769
  251SOL     OW  770   1.667   1.714   2.434
  251SOL    HW1  771   1.626   1.691   2.346
  251SOL    HW2  772   1.649   1.640   2.499
  252SOL     OW  773   0.598   0.729   2.132
  252SOL    HW1  774   0.622   0.798   2.064
  252SOL    HW2  775   0.520   0.762   2.186
  253SOL     OW  776   1.281   0.345   2.806
  253SOL    HW1  777   1.195   0.295   2.793
  253SOL    HW2  778   1.343   0.291   2.862
  254SOL     OW  779   1.576   1.662   2.169
  254SOL    HW1  780   1.665   1.708   2.172
  254SOL    HW2  781   1.555   1.638   2.074
  255SOL     OW  782   0.807   0.605   3.327
  255SOL    HW1  783   0.760   0.602   3.416
  255SOL    HW2  784   0.756   0.550   3.261
  256SOL     OW  785   1.394   0.469   3.536
  256SOL    HW1  786   1.374   0.512   3.624
  256SOL    HW2  787   1.472   0.407   3.545
  257SOL     OW  788   0.973   0.890   3.434
  257SOL    HW1  789   1.019   0.806   3.405
  257SOL    HW2  790   0.917   0.924   3.359
  258SOL     OW  791   0.991   0.410   3.104
  258SOL    HW1  792   0.914   0.444   3.158
  258SOL    HW2  793   0.957   0.359   3.025
  259SOL     OW  794   1.041   0.701   2.291
  259SOL    HW1  795   1.067   0.697   2.387
  259SOL    HW2  796   0.956   0.650   2.277
  260SOL     OW  797   0.076   0.811   2.651
  260SOL    HW1  798   0.175   0.799   2.660
  260SOL    HW2  799   0.052   0.906   2.672
  261SOL     OW  800   0.130   1.821   3.433
  261SOL    HW1  801   0.120   1.806   3.532
  261SOL    HW2  802   0.044   1.857   3.397
  262SOL     OW  803   0.865   0.348   2.057
  262SOL    HW1  804   0.924   0.411   2.008
  262SOL    HW2  805   0.884   0.254   2.028
  263SOL     OW  806   1.719   0.585   3.693
  263SOL    HW1  807   1.693   0.674   3.657
  263SOL    HW2  808   1.717   0.517   3.620
  264SOL     OW  809   1.362   1.144   2.407
  264SOL    HW1  810   1.445   1.115   2.359
  264SOL    HW2  811   1.313   1.211   2.351
  265SOL     OW  812   0.550   0.196   2.747
  265SOL    HW1  813   0.545   0.191   2.847
  265SOL    HW2  814   0.552   0.292   2.718
  266SOL     OW  815   1.008   1.456   2.339
  266SOL    HW1  816   0.962   1.528   2.287
  266SOL    HW2  817   1.004   1.476   2.437
  267SOL     OW  818   0.351   1.801   2.715
  267SOL    HW1  819   0.401   1.715   2.721
  267SOL    HW2  820   0.416   1.878   2.712
  268SOL     OW  821   1.795   1.066   2.735
  268SOL    HW1  822   1.733   1.051   2.659
  268SOL    HW2  823   1.743   1.077   2.820
  269SOL     OW  824   1.227   1.550   3.368
  269SOL    HW1  825   1.233   1.473   3.432
  269SOL    HW2  826   1.175   1.524   3.288
  270SOL     OW  827   0.321   0.943   2.104
  270SOL    HW1  828   0.403   0.982   2.062
  270SOL    HW2  829   0.294   0.861   2.055
  271SOL     OW  830   1.458   0.735   2.590
  271SOL    HW1  831   1.453   0.670   2.665
  271SOL    HW2  832   1.538   0.794   2.603
  272SOL     OW  833   0.461   1.266   3.589
  272SOL    HW1  834   0.411   1.267   3.503
  272SOL    HW2  835   0.398   1.248   3.665
  273SOL     OW  836   1.111   1.776   2.099
  273SOL    HW1  837   1.051   1.714   2.149
  273SOL    HW2  838   1.142   1.732   2.014
  274SOL     OW  839   0.202   0.285   3.360
  274SOL    HW1  840   0.122   0.345   3.347
  274SOL    HW2  841   0.192   0.236   3.446
  275SOL     OW  842   1.632   1.377   1.943
  275SOL    HW1  843   1.600   1.471   1.933
  275SOL    HW2  844   1.556   1.314   1.931
  276SOL     OW  845   0.464   1.743   2.185
  276SOL    HW1  846   0.497   1.782   2.271
  276SOL    HW2  847   0.540   1.736   2.120
  277SOL     OW  848   1.400   0.107   2.288
  277SOL    HW1  849   1.376   0.070   2.198
  277SOL    HW2  850   1.499   0.123   2.292
  278SOL     OW  851   0.249   1.785   3.103
  278SOL    HW1  852   0.306   1.720   3.153
  278SOL    HW2  853   0.233   1.752   3.010
  279SOL     OW  854   0.940   1.698   2.766
  279SOL    HW1  855   1.020   1.641   2.787
  279SOL    HW2  856   0.891   1.658   2.689
  280SOL     OW  857   0.382   0.700   2.342
  280SOL    HW1  858   0.427   0.610   2.339
  280SOL    HW2  859   0.288   0.689   2.375
  281SOL     OW  860   1.547   0.222   3.591
  281SOL    HW1  861   1.542   0.259   3.683
  281SOL    HW2  862   1.475   0.153   3.579
  282SOL     OW  863   0.614   0.122   1.979
  282SOL    HW1  864   0.712   0.100   1.986
  282SOL    HW2  865   0.583   0.105   1.886
  283SOL     OW  866   0.781   0.264   3.611
  283SOL    HW1  867   0.848   0.203   3.654
  283SOL    HW2  868   0.708   0.283   3.676
  284SOL     OW  869   0.888   1.514   3.057
  284SOL    HW1  870   0.865   1.489   2.963
  284SOL    HW2  871   0.949   1.445   3.096
  285SOL     OW  872   1.351   0.590   3.295
  285SOL    HW1  873   1.379   0.547   3.380
  285SOL    HW2  874   1.376   0.686   3.296
  286SOL     OW  875   0.803   1.402   2.786
  286SOL    HW1  876   0.893   1.416   2.744
  286SOL    HW2  877   0.732   1.404   2.715
  287SOL     OW  878   0.922   0.503   2.761
  287SOL    HW1  879   0.897   0.494   2.665
  287SOL    HW2  880   0.970   0.421   2.792
  288SOL     OW  881   0.539   0.064   2.374
  288SOL    HW1  882   0.458   0.065   2.432
  288SOL    HW2  883   0.542   0.147   2.319
  289SOL     OW  884   1.434   1.188   1.903
  289SOL    HW1  885   1.466   1.112   1.960
  289SOL    HW2  886   1.342   1.215   1.933
  290SOL     OW  887   0.297   0.035   2.033
  290SOL    HW1  888   0.346   0.119   2.012
  290SOL    HW2  889   0.359  -0.030   2.078
  291SOL     OW  890   0.935   0.236   2.342
  291SOL    HW1  891   0.887   0.277   2.264
  291SOL    HW2  892   1.034   0.234   2.323
  292SOL     OW  893   1.076   0.683   3.326
  292SOL    HW1  894   0.996   0.622   3.329
  292SOL    HW2  895   1.157   0.630   3.302
  293SOL     OW  896   1.227   1.570   2.655
  293SOL    HW1  897   1.248   1.644   2.590
  293SOL    HW2  898   1.295   1.570   2.728
  294SOL     OW  899   0.459   1.152   2.603
  294SOL    HW1  900   0.388   1.125   2.668
  294SOL    HW2  901   0.433   1.124   2.510
  295SOL     OW  902   1.271   1.797   2.453
  295SOL    HW1  903   1.315   1.861   2.389
  295SOL    HW2  904   1.221   1.849   2.523
  296SOL     OW  905   1.032   0.549   1.878
  296SOL    HW1  906   0.991   0.631   1.839
  296SOL    HW2  907   1.096   0.575   1.951
  297SOL     OW  908   0.078   0.556   3.248
  297SOL    HW1  909   0.170   0.555   3.207
  297SOL    HW2  910   0.072   0.630   3.315
  298SOL     OW  911   0.561   0.222   3.009
  298SOL    HW1  912   0.599   0.138   3.046
  298SOL    HW2  913   0.473   0.241   3.053
  299SOL     OW  914   0.866   0.454   2.504
  299SOL    HW1  915   0.834   0.526   2.442
  299SOL    HW2  916   0.890   0.373   2.451
  300SOL     OW  917   1.017   0.039   2.615
  300SOL    HW1  918   0.945   0.044   2.546
  300SOL    HW2  919   0.993  -0.030   2.684
  301SOL     OW  920   1.429   1.173   2.729
  301SOL    HW1  921   1.374   1.089   2.722
  301SOL    HW2  922   1.455   1.202   2.637
  302SOL     OW  923   1.466   0.590   2.854
  302SOL    HW1  924   1.436   0.495   2.861
  302SOL    HW2  925   1.539   0.606   2.920
  303SOL     OW  926   1.857   0.833   2.239
  303SOL    HW1  927   1.899   0.769   2.303
  303SOL    HW2  928   1.819   0.782   2.161
  304SOL     OW  929   0.488   1.385   2.036
  304SOL    HW1  930   0.401   1.370   2.083
  304SOL    HW2  931   0.471   1.411   1.941
  305SOL     OW  932   1.664   1.280   2.519
  305SOL    HW1  933   1.763   1.288   2.533
  305SOL    HW2  934   1.619   1.364   2.550
  306SOL     OW  935   1.390   0.575   1.940
  306SOL    HW1  936   1.336   0.554   2.021
  306SOL    HW2  937   1.481   0.534   1.949
  307SOL     OW  938   0.527   0.256   2.190
  307SOL    HW1  939   0.554   0.197   2.115
  307SOL    HW2  940   0.527   0.351   2.159
  308SOL     OW  941   1.754   1.223   3.450
  308SOL    HW1  942   1.845   1.184   3.437
  308SOL    HW2  943   1.762   1.319   3.474
  309SOL     OW  944   1.064   1.347   3.202
  309SOL    HW1  945   0.984   1.324   3.257
  309SOL    HW2  946   1.147   1.321   3.251
  310SOL     OW  947   1.592   1.629   3.487
  310SOL    HW1  948   1.619   1.663   3.397
  310SOL    HW2  949   1.671   1.591   3.533
  311SOL     OW  950   1.111   1.195   2.962
  311SOL    HW1  951   1.071   1.239   3.043
  311SOL    HW2  952   1.070   1.232   2.879
  312SOL     OW  953   1.638   1.099   2.941
  312SOL    HW1  954   1.643   1.180   3.000
  312SOL    HW2  955   1.552   1.101   2.890
  313SOL     OW  956   0.915   0.089   3.264
  313SOL    HW1  957   0.940   0.069   3.169
  313SOL    HW2  958   0.987   0.145   3.306
  314SOL     OW  959   0.980   1.116   3.581
  314SOL    HW1  960   0.881   1.122   3.591
  314SOL    HW2  961   1.003   1.036   3.525
  315SOL     OW  962   0.705   1.050   2.230
  315SOL    HW1  963   0.691   1.057   2.329
  315SOL    HW2  964   0.789   0.999   2.212
  316SOL     OW  965   0.410   0.813   3.113
  316SOL    HW1  966   0.496   0.825   3.163
  316SOL    HW2  967   0.368   0.726   3.140
  317SOL     OW  968   1.274   0.386   3.124
  317SOL    HW1  969   1.295   0.460   3.188
  317SOL    HW2  970   1.185   0.403   3.081
  318SOL     OW  971   0.064   1.564   3.193
  318SOL    HW1  972   0.018   1.646   3.159
  318SOL    HW2  973   0.162   1.583   3.202
  319SOL     OW  974   0.367   1.100   2.363
  319SOL    HW1  975   0.360   1.183   2.307
  319SOL    HW2  976   0.371   1.020   2.303
  320SOL     OW  977   0.566   0.537   2.727
  320SOL    HW1  978   0.578   0.603   2.653
  320SOL    HW2  979   0.612   0.571   2.810
  321SOL     OW  980   1.252   1.348   2.250
  321SOL    HW1  981   1.302   1.425   2.290
  321SOL    HW2  982   1.157   1.350   2.282
  322SOL     OW  983   1.272   1.445   3.004
  322SOL    HW1  984   1.319   1.458   3.091
  322SOL    HW2  985   1.206   1.371   3.013
  323SOL     OW  986   1.582   0.639   2.334
  323SOL    HW1  987   1.551   0.700   2.407
  323SOL    HW2  988   1.632   0.691   2.265
  324SOL     OW  989   0.354   1.510   3.191
  324SOL    HW1  990   0.333   1.466   3.104
  324SOL    HW2  991   0.451   1.536   3.194
  325SOL     OW  992   0.402   0.751   3.460
  325SOL    HW1  993   0.470   0.806   3.413
  325SOL    HW2  994   0.442   0.663   3.487
  326SOL     OW  995   1.587   0.779   3.532
  326SOL    HW1  996   1.495   0.817   3.527
  326SOL    HW2  997   1.647   0.826   3.467
  327SOL     OW  998   1.013   0.105   3.632
  327SOL    HW1  999   1.019   0.190   3.580
  327SOL    HW2 1000   1.045   0.029   3.575
  328SOL     OW 1001   0.504   0.050   3.602
  328SOL    HW1 1002   0.462  -0.007   3.532
  328SOL    HW2 1003   0.438   0.119   3.634
  329SOL     OW 1004   0.573   0.870   2.891
  329SOL    HW1 1005   0.617   0.959   2.882
  329SOL    HW2 1006   0.510   0.870   2.968
  330SOL     OW 1007   1.360   0.862   2.907
  330SOL    HW1 1008   1.285   0.862   2.841
  330SOL    HW2 1009   1.397   0.770   2.916
  331SOL     OW 1010   1.209   0.525   2.137
  331SOL    HW1 1011   1.222   0.441   2.191
  331SOL    HW2 1012   1.180   0.599   2.197
  332SOL     OW 1013   0.307   0.213   3.093
  332SOL    HW1 1014   0.284   0.250   3.183
  332SOL    HW2 1015   0.277   0.118   3.087
  333SOL     OW 1016   0.037   1.310   3.144
  333SOL    HW1 1017   0.090   1.261   3.212
  333SOL    HW2 1018   0.059   1.408   3.149
  334SOL     OW 1019   0.732   0.634   2.926
  334SOL    HW1 1020   0.791   0.608   2.850
  334SOL    HW2 1021   0.704   0.730   2.915
  335SOL     OW 1022   1.728   0.935   3.716
  335SOL    HW1 1023   1.682   0.928   3.627
  335SOL    HW2 1024   1.666   0.979   3.782
  336SOL     OW 1025   0.307   0.063   2.480
  336SOL    HW1 1026   0.296   0.157   2.513
  336SOL    HW2 1027   0.302   0.000   2.557
  337SOL     OW 1028   1.622   0.367   2.236
  337SOL    HW1 1029   1.624   0.291   2.300
  337SOL    HW2 1030   1.574   0.444   2.276
  338SOL     OW 1031   1.023   0.766   2.828
  338SOL    HW1 1032   1.038   0.787   2.924
  338SOL    HW2 1033   0.993   0.671   2.819
  339SOL     OW 1034   0.980   1.573   3.562
  339SOL    HW1 1035   0.960   1.617   3.474
  339SOL    HW2 1036   1.019   1.482   3.546
  340SOL     OW 1037   1.859   1.518   3.467
  340SOL    HW1 1038   1.873   1.545   3.372
  340SOL    HW2 1039   1.942   1.540   3.520
  341SOL     OW 1040   0.350   0.898   3.666
  341SOL    HW1 1041   0.426   0.942   3.714
  341SOL    HW2 1042   0.385   0.851   3.584
  342SOL     OW 1043   1.540   0.274   1.987
  342SOL    HW1 1044   1.479   0.199   2.010
  342SOL    HW2 1045   1.562   0.326   2.070
  343SOL     OW 1046   1.303   0.838   1.904
  343SOL    HW1 1047   1.337   0.745   1.919
  343SOL    HW2 1048   1.321   0.865   1.809
  344SOL     OW 1049   1.068   1.333   2.711
  344SOL    HW1 1050   1.075   1.249   2.656
  344SOL    HW2 1051   1.130   1.402   2.675
  345SOL     OW 1052   0.319   0.810   2.811
  345SOL    HW1 1053   0.412   0.846   2.816
  345SOL    HW2 1054   0.313   0.725   2.863
  346SOL     OW 1055   0.339   0.509   2.868
  346SOL    HW1 1056   0.287   0.426   2.851
  346SOL    HW2 1057   0.416   0.514   2.804
  347SOL     OW 1058   1.138   0.380   3.540
  347SOL    HW1 1059   1.093   0.443   3.604
  347SOL    HW2 1060   1.231   0.411   3.523
  348SOL     OW 1061   1.160   0.207   3.339
  348SOL    HW1 1062   1.160   0.271   3.416
  348SOL    HW2 1063   1.188   0.255   3.256
  349SOL     OW 1064   0.008   1.326   2.062
  349SOL    HW1 1065  -0.085   1.347   2.031
  349SOL    HW2 1066   0.018   1.227   2.075
  350SOL     OW 1067   0.088   1.801   2.789
  350SOL    HW1 1068   0.046   1.715   2.762
  350SOL    HW2 1069   0.182   1.804   2.755
  351SOL     OW 1070   0.504   1.568   2.772
  351SOL    HW1 1071   0.570   1.642   2.781
  351SOL    HW2 1072   0.548   1.489   2.730
  352SOL     OW 1073   1.002   0.796   3.100
  352SOL    HW1 1074   1.043   0.764   3.186
  352SOL    HW2 1075   0.906   0.769   3.097
  353SOL     OW 1076   0.040   0.544   2.976
  353SOL    HW1 1077   0.125   0.511   2.935
  353SOL    HW2 1078   0.053   0.559   3.074
  354SOL     OW 1079   0.189   0.520   3.584
  354SOL    HW1 1080   0.248   0.480   3.514
  354SOL    HW2 1081   0.131   0.591   3.543
  355SOL     OW 1082   1.369   0.950   3.522
  355SOL    HW1 1083   1.408   1.039   3.542
  355SOL    HW2 1084   1.379   0.930   3.425
  356SOL     OW 1085   0.815   0.572   2.187
  356SOL    HW1 1086   0.822   0.483   2.141
  356SOL    HW2 1087   0.721   0.606   2.179
  357SOL     OW 1088   1.657   0.604   3.068
  357SOL    HW1 1089   1.619   0.535   3.130
  357SOL    HW2 1090   1.739   0.568   3.024
  358SOL     OW 1091   0.252   1.564   3.606
  358SOL    HW1 1092   0.222   1.621   3.682
  358SOL    HW2 1093   0.245   1.467   3.632
  359SOL     OW 1094   0.671   0.464   3.131
  359SOL    HW1 1095   0.637   0.375   3.101
  359SOL    HW2 1096   0.697   0.518   3.051
  360SOL     OW 1097   0.930   1.678   3.327
  360SOL    HW1 1098   0.906   1.660   3.232
  360SOL    HW2 1099   0.960   1.772   3.337
  361SOL     OW 1100   0.473   0.500   2.053
  361SOL    HW1 1101   0.534   0.580   2.057
  361SOL    HW2 1102   0.378   0.531   2.060
  362SOL     OW 1103   0.159   1.137   3.328
  362SOL    HW1 1104   0.181   1.076   3.404
  362SOL    HW2 1105   0.169   1.088   3.242
  363SOL     OW 1106   1.347   1.059   3.096
  363SOL    HW1 1107   1.371   0.996   3.022
  363SOL    HW2 1108   1.257   1.099   3.078
  364SOL     OW 1109   1.302   0.855   2.171
  364SOL    HW1 1110   1.216   0.824   2.213
  364SOL    HW2 1111   1.298   0.841   2.072
  365SOL     OW 1112   1.759   1.747   3.016
  365SOL    HW1 1113   1.820   1.777   2.943
  365SOL    HW2 1114   1.721   1.658   2.994
  366SOL     OW 1115   1.252   1.731   2.990
  366SOL    HW1 1116   1.336   1.736   2.936
  366SOL    HW2 1117   1.229   1.635   3.008
  367SOL     OW 1118   0.083   1.258   2.884
  367SOL    HW1 1119   0.078   1.257   2.984
  367SOL    HW2 1120   0.000   1.217   2.846
  368SOL     OW 1121   0.688   1.662   3.578
  368SOL    HW1 1122   0.632   1.743   3.587
  368SOL    HW2 1123   0.740   1.666   3.492
  369SOL     OW 1124   1.726   0.135   2.385
  369SOL    HW1 1125   1.799   0.118   2.318
  369SOL    HW2 1126   1.695   0.048   2.423
  370SOL     OW 1127   1.388   1.573   2.339
  370SOL    HW1 1128   1.455   1.585   2.265
  370SOL    HW2 1129   1.348   1.662   2.362
  371SOL     OW 1130   0.130   1.794   3.713
  371SOL    HW1 1131   0.089   1.720   3.766
  371SOL    HW2 1132   0.194   1.845   3.771
  372SOL     OW 1133   1.280   0.927   2.534
  372SOL    HW1 1134   1.340   0.846   2.536
  372SOL    HW2 1135   1.320   0.996   2.474
  373SOL     OW 1136   0.830   1.273   3.284
  373SOL    HW1 1137   0.825   1.306   3.379
  373SOL    HW2 1138   0.744   1.292   3.238
  374SOL     OW 1139   0.672   1.616   2.016
  374SOL    HW1 1140   0.681   1.626   1.917
  374SOL    HW2 1141   0.632   1.527   2.037
  375SOL     OW 1142   1.650   1.720   3.256
  375SOL    HW1 1143   1.703   1.730   3.172
  375SOL    HW2 1144   1.623   1.810   3.290
  376SOL     OW 1145   1.841   0.175   2.825
  376SOL    HW1 1146   1.880   0.090   2.789
  376SOL    HW2 1147   1.743   0.177   2.806
  377SOL     OW 1148   0.263   0.326   2.582
  377SOL    HW1 1149   0.184   0.377   2.548
  377SOL    HW2 1150   0.254   0.311   2.680
  378SOL     OW 1151   1.194   1.612   1.893
  378SOL    HW1 1152   1.200   1.519   1.930
  378SOL    HW2 1153   1.135   1.612   1.813
  379SOL     OW 1154   0.822   1.002   3.234
  379SOL    HW1 1155   0.862   1.001   3.142
  379SOL    HW2 1156   0.832   1.094   3.274
  380SOL     OW 1157   0.916   0.910   2.153
  380SOL    HW1 1158   0.979   0.948   2.085
  380SOL    HW2 1159   0.956   0.827   2.192
  381SOL     OW 1160   1.504   1.607   1.906
  381SOL    HW1 1161   1.412   1.644   1.913
  381SOL    HW2 1162   1.542   1.627   1.816
  382SOL     OW 1163   0.372   1.288   3.352
  382SOL    HW1 1164   0.359   1.381   3.318
  382SOL    HW2 1165   0.288   1.236   3.339
  383SOL     OW 1166   1.614   1.292   3.151
  383SOL    HW1 1167   1.674   1.295   3.231
  383SOL    HW2 1168   1.539   1.356   3.164
  384SOL     OW 1169   1.039   1.098   2.558
  384SOL    HW1 1170   0.969   1.051   2.612
  384SOL    HW2 1171   1.098   1.030   2.515
  385SOL     OW 1172   1.014   0.236   2.833
  385SOL    HW1 1173   1.006   0.200   2.740
  385SOL    HW2 1174   1.012   0.160   2.898
  386SOL     OW 1175   0.590   1.487   2.353
  386SOL    HW1 1176   0.632   1.429   2.283
  386SOL    HW2 1177   0.546   1.566   2.309
  387SOL     OW 1178   1.709   0.385   3.243
  387SOL    HW1 1179   1.782   0.454   3.247
  387SOL    HW2 1180   1.737   0.310   3.184
  388SOL     OW 1181   0.255   1.348   2.152
  388SOL    HW1 1182   0.159   1.349   2.125
  388SOL    HW2 1183   0.267   1.401   2.236
  389SOL     OW 1184   0.105   1.013   3.588
  389SOL    HW1 1185   0.028   0.980   3.642
  389SOL    HW2 1186   0.190   0.983   3.630
  390SOL     OW 1187   0.672   0.203   3.351
  390SOL    HW1 1188   0.762   0.187   3.311
  390SOL    HW2 1189   0.680   0.208   3.450
  391SOL     OW 1190   0.075   0.345   1.895
  391SOL    HW1 1191  -0.017   0.317   1.866
  391SOL    HW2 1192   0.106   0.422   1.839
  392SOL     OW 1193   1.440   0.856   3.260
  392SOL    HW1 1194   1.383   0.908   3.197
  392SOL    HW2 1195   1.536   0.868   3.236
  393SOL     OW 1196   0.072   0.166   2.180
  393SOL    HW1 1197   0.055   0.249   2.126
  393SOL    HW2 1198   0.162   0.129   2.158
  394SOL     OW 1199   1.183   1.335   1.981
  394SOL    HW1 1200   1.084   1.324   1.983
  394SOL    HW2 1201   1.217   1.350   2.074
  395SOL     OW 1202   0.613   0.842   3.293
  395SOL    HW1 1203   0.669   0.923   3.276
  395SOL    HW2 1204   0.672   0.762   3.296
  396SOL     OW 1205   1.493   1.767   2.821
  396SOL    HW1 1206   1.526   1.831   2.752
  396SOL    HW2 1207   1.559   1.761   2.896
  397SOL     OW 1208   0.716   0.565   3.570
  397SOL    HW1 1209   0.735   0.630   3.644
  397SOL    HW2 1210   0.776   0.485   3.579
  398SOL     OW 1211   1.450   1.220   3.495
  398SOL    HW1 1212   1.441   1.210   3.594
  398SOL    HW2 1213   1.546   1.213   3.469
  399SOL     OW 1214   0.390   1.741   3.422
  399SOL    HW1 1215   0.299   1.782   3.420
  399SOL    HW2 1216   0.383   1.647   3.454
  400SOL     OW 1217   1.674   0.883   3.116
  400SOL    HW1 1218   1.647   0.794   3.079
  400SOL    HW2 1219   1.675   0.951   3.043
  401SOL     OW 1220   1.225   0.325   2.311
  401SOL    HW1 1221   1.290   0.251   2.300
  401SOL    HW2 1222   1.245   0.375   2.395
  402SOL     OW 1223   0.594   0.745   2.514
  402SOL    HW1 1224   0.644   0.830   2.495
  402SOL    HW2 1225   0.506   0.747   2.466
  403SOL     OW 1226   1.777   0.342   3.504
  403SOL    HW1 1227   1.760   0.373   3.410
  403SOL    HW2 1228   1.693   0.305   3.542
  404SOL     OW 1229   1.730   0.934   3.379
  404SOL    HW1 1230   1.768   1.025   3.394
  404SOL    HW2 1231   1.722   0.917   3.280
  405SOL     OW 1232   0.859   1.374   1.878
  405SOL    HW1 1233   0.813   1.389   1.966
  405SOL    HW2 1234   0.903   1.459   1.848
  406SOL     OW 1235   0.661   1.790   2.815
  406SOL    HW1 1236   0.615   1.878   2.802
  406SOL    HW2 1237   0.760   1.802   2.808
  407SOL     OW 1238   0.859   0.956   2.723
  407SOL    HW1 1239   0.913   0.887   2.771
  407SOL    HW2 1240   0.827   1.025   2.789
  408SOL     OW 1241   1.083   0.984   1.949
  408SOL    HW1 1242   1.060   1.037   1.867
  408SOL    HW2 1243   1.164   0.928   1.930
  409SOL     OW 1244   1.861   1.569   2.713
  409SOL    HW1 1245   1.790   1.557   2.643
  409SOL    HW2 1246   1.862   1.490   2.773
  410SOL     OW 1247   0.221   1.314   3.706
  410SOL    HW1 1248   0.156   1.241   3.685
  410SOL    HW2 1249   0.225   1.328   3.804
  411SOL     OW 1250   0.079   1.240   2.515
  411SOL    HW1 1251   0.078   1.193   2.603
  411SOL    HW2 1252   0.161   1.212   2.464
  412SOL     OW 1253   0.672   1.391   3.486
  412SOL    HW1 1254   0.594   1.341   3.524
  412SOL    HW2 1255   0.669   1.486   3.517
  413SOL     OW 1256   1.824   0.192   3.089
  413SOL    HW1 1257   1.820   0.102   3.133
  413SOL    HW2 1258   1.827   0.181   2.990
  414SOL     OW 1259   0.428   0.424   2.382
  414SOL    HW1 1260   0.458   0.352   2.320
  414SOL    HW2 1261   0.389   0.384   2.465
  415SOL     OW 1262   1.705   1.487   2.966
  415SOL    HW1 1263   1.612   1.462   2.939
  415SOL    HW2 1264   1.731   1.437   3.048
  416SOL     OW 1265   0.317   0.547   3.142
  416SOL    HW1 1266   0.355   0.488   3.214
  416SOL    HW2 1267   0.357   0.521   3.054
  417SOL     OW 1268   0.812   1.586   2.549
  417SOL    HW1 1269   0.844   1.596   2.455
  417SOL    HW2 1270   0.733   1.524   2.551
  418SOL     OW 1271   1.424   0.214   2.974
  418SOL    HW1 1272   1.476   0.149   3.029
  418SOL    HW2 1273   1.375   0.277   3.035
  419SOL     OW 1274   1.001   0.034   3.016
  419SOL    HW1 1275   0.938  -0.038   2.985
  419SOL    HW2 1276   1.094  -0.002   3.016
  420SOL     OW 1277   0.770   1.330   2.163
  420SOL    HW1 1278   0.724   1.243   2.180
  420SOL    HW2 1279   0.861   1.327   2.204
  421SOL     OW 1280   0.618   1.567   3.146
  421SOL    HW1 1281   0.613   1.649   3.203
  421SOL    HW2 1282   0.707   1.564   3.101
  422SOL     OW 1283   1.352   0.052   2.030
  422SOL    HW1 1284   1.387   0.011   1.946
  422SOL    HW2 1285   1.262   0.014   2.050
  423SOL     OW 1286   1.300   0.453   2.553
  423SOL    HW1 1287   1.241   0.533   2.557
  423SOL    HW2 1288   1.315   0.418   2.646
  424SOL     OW 1289   1.593   0.221   2.744
  424SOL    HW1 1290   1.509   0.220   2.798
  424SOL    HW2 1291   1.595   0.304   2.688
  425SOL     OW 1292   0.039   1.077   2.162
  425SOL    HW1 1293   0.138   1.066   2.153
  425SOL    HW2 1294  -0.001   0.991   2.194
  426SOL     OW 1295   0.875   1.646   2.199
  426SOL    HW1 1296   0.798   1.611   2.145
  426SOL    HW2 1297   0.843   1.717   2.261
  427SOL     OW 1298   0.230   0.628   3.837
  427SOL    HW1 1299   0.137   0.626   3.874
  427SOL    HW2 1300   0.231   0.589   3.745
  428SOL     OW 1301   0.225   0.275   4.720
  428SOL    HW1 1302   0.260   0.258   4.812
  428SOL    HW2 1303   0.137   0.230   4.708
  429SOL     OW 1304   0.019   0.368   4.371
  429SOL    HW1 1305  -0.063   0.411   4.410
  429SOL    HW2 1306  -0.009   0.295   4.308
  430SOL     OW 1307   0.569   1.275   4.889
  430SOL    HW1 1308   0.476   1.268   4.852
  430SOL    HW2 1309   0.580   1.364   4.933
  431SOL     OW 1310   1.555   1.511   4.427
  431SOL    HW1 1311   1.498   1.495   4.508
  431SOL    HW2 1312   1.496   1.521   4.347
  432SOL     OW 1313   1.135   0.703   4.441
  432SOL    HW1 1314   1.192   0.781   4.416
  432SOL    HW2 1315   1.075   0.729   4.517
  433SOL     OW 1316   1.755   0.607   3.955
  433SOL    HW1 1317   1.743   0.594   3.856
  433SOL    HW2 1318   1.725   0.526   4.004
  434SOL     OW 1319   0.768   1.144   4.747
  434SOL    HW1 1320   0.690   1.161   4.807
  434SOL    HW2 1321   0.802   1.231   4.711
  435SOL     OW 1322   0.685   1.012   4.389
  435SOL    HW1 1323   0.754   0.996   4.459
  435SOL    HW2 1324   0.612   1.069   4.427
  436SOL     OW 1325   0.335   1.435   4.785
  436SOL    HW1 1326   0.257   1.404   4.732
  436SOL    HW2 1327   0.393   1.493   4.728
  437SOL     OW 1328   1.603   0.447   4.461
  437SOL    HW1 1329   1.529   0.493   4.411
  437SOL    HW2 1330   1.654   0.515   4.514
  438SOL     OW 1331   0.231   1.713   4.207
  438SOL    HW1 1332   0.265   1.790   4.261
  438SOL    HW2 1333   0.275   1.713   4.117
  439SOL     OW 1334   0.230   1.434   4.262
  439SOL    HW1 1335   0.204   1.530   4.262
  439SOL    HW2 1336   0.159   1.380   4.307
  440SOL     OW 1337   0.240   1.091   4.610
  440SOL    HW1 1338   0.254   1.007   4.662
  440SOL    HW2 1339   0.185   1.155   4.665
  441SOL     OW 1340   0.606   0.964   3.847
  441SOL    HW1 1341   0.613   1.048   3.793
  441SOL    HW2 1342   0.652   0.977   3.935
  442SOL     OW 1343   0.122   0.643   4.287
  442SOL    HW1 1344   0.077   0.555   4.304
  442SOL    HW2 1345   0.121   0.697   4.371
  443SOL     OW 1346   1.842   1.767   4.083
  443SOL    HW1 1347   1.896   1.738   4.163
  443SOL    HW2 1348   1.872   1.857   4.054
  444SOL     OW 1349   0.027   1.596   3.841
  444SOL    HW1 1350   0.008   1.500   3.862
  444SOL    HW2 1351  -0.006   1.654   3.916
  445SOL     OW 1352   1.689   0.922   4.336
  445SOL    HW1 1353   1.784   0.893   4.344
  445SOL    HW2 1354   1.681   0.987   4.261
  446SOL     OW 1355   1.641   1.108   4.156
  446SOL    HW1 1356   1.727   1.110   4.104
  446SOL    HW2 1357   1.655   1.155   4.244
  447SOL     OW 1358   0.613   1.365   4.450
  447SOL    HW1 1359   0.564   1.278   4.459
  447SOL    HW2 1360   0.590   1.408   4.363
  448SOL     OW 1361   0.809   0.004   4.226
  448SOL    HW1 1362   0.849   0.095   4.217
  448SOL    HW2 1363   0.709   0.012   4.232
  449SOL     OW 1364   0.197   0.976   4.988
  449SOL    HW1 1365   0.286   0.931   4.974
  449SOL    HW2 1366   0.124   0.911   4.969
  450SOL     OW 1367   1.525   0.999   3.914
  450SOL    HW1 1368   1.462   0.923   3.927
  450SOL    HW2 1369   1.573   1.017   4.000
  451SOL     OW 1370   1.466   1.417   4.677
  451SOL    HW1 1371   1.407   1.423   4.757
  451SOL    HW2 1372   1.451   1.329   4.631
  452SOL     OW 1373   1.667   1.714   4.296
  452SOL    HW1 1374   1.626   1.691   4.208
  452SOL    HW2 1375   1.649   1.640   4.361
  453SOL     OW 1376   0.598   0.729   3.994
  453SOL    HW1 1377   0.622   0.798   3.926
  453SOL    HW2 1378   0.520   0.762   4.048
  454SOL     OW 1379   1.281   0.345   4.668
  454SOL    HW1 1380   1.195   0.295   4.655
  454SOL    HW2 1381   1.343   0.291   4.724
  455SOL     OW 1382   1.576   1.662   4.031
  455SOL    HW1 1383   1.665   1.708   4.034
  455SOL    HW2 1384   1.555   1.638   3.936
  456SOL     OW 1385   1.041   0.701   4.153
  456SOL    HW1 1386   1.067   0.697   4.249
  456SOL    HW2 1387   0.956   0.650   4.139
  457SOL     OW 1388   0.076   0.811   4.513
  457SOL    HW1 1389   0.175   0.799   4.522
  457SOL    HW2 1390   0.052   0.906   4.534
  458SOL     OW 1391   0.865   0.348   3.919
  458SOL    HW1 1392   0.924   0.411   3.870
  458SOL    HW2 1393   0.884   0.254   3.890
  459SOL     OW 1394   1.362   1.144   4.269
  459SOL    HW1 1395   1.445   1.115   4.221
  459SOL    HW2 1396   1.313   1.211   4.213
  460SOL     OW 1397   0.550   0.196   4.609
  460SOL    HW1 1398   0.545   0.191   4.709
  460SOL    HW2 1399   0.552   0.292   4.580
  461SOL     OW 1400   1.008   1.456   4.201
  461SOL    HW1 1401   0.962   1.528   4.149
  461SOL    HW2 1402   1.004   1.476   4.299
  462SOL     OW 1403   0.351   1.801   4.577
  462SOL    HW1 1404   0.401   1.715   4.583
  462SOL    HW2 1405   0.416   1.878   4.574
  463SOL     OW 1406   1.795   1.066   4.597
  463SOL    HW1 1407   1.733   1.051   4.521
  463SOL    HW2 1408   1.743   1.077   4.682
  464SOL     OW 1409   0.321   0.943   3.966
  464SOL    HW1 1410   0.403   0.982   3.924
  464SOL    HW2 1411   0.294   0.861   3.917
  465SOL     OW 1412   1.458   0.735   4.452
  465SOL    HW1 1413   1.453   0.670   4.527
  465SOL    HW2 1414   1.538   0.794   4.465
  466SOL     OW 1415   1.111   1.776   3.961
  466SOL    HW1 1416   1.051   1.714   4.011
  466SOL    HW2 1417   1.142   1.732   3.876
  467SOL     OW 1418   1.632   1.377   3.805
  467SOL    HW1 1419   1.600   1.471   3.795
  467SOL    HW2 1420   1.556   1.314   3.793
  468SOL     OW 1421   0.464   1.743   4.047
  468SOL    HW1 1422   0.497   1.782   4.133
  468SOL    HW2 1423   0.540   1.736   3.982
  469SOL     OW 1424   1.400   0.107   4.150
  469SOL    HW1 1425   1.376   0.070   4.060
  469SOL    HW2 1426   1.499   0.123   4.154
  470SOL     OW 1427   0.249   1.785   4.965
  470SOL    HW1 1428   0.306   1.720   5.015
  470SOL    HW2 1429   0.233   1.752   4.872
  471SOL     OW 1430   0.940   1.698   4.628
  471SOL    HW1 1431   1.020   1.641   4.649
  471SOL    HW2 1432   0.891   1.658   4.551
  472SOL     OW 1433   0.382   0.700   4.204
  472SOL    HW1 1434   0.427   0.610   4.201
  472SOL    HW2 1435   0.288   0.689   4.237
  473SOL     OW 1436   0.614   0.122   3.841
  473SOL    HW1 1437   0.712   0.100   3.848
  473SOL    HW2 1438   0.583   0.105   3.748
  474SOL     OW 1439   0.803   1.402   4.648
  474SOL    HW1 1440   0.893   1.416   4.606
  474SOL    HW2 1441   0.732   1.404   4.577
  475SOL     OW 1442   0.922   0.503   4.623
  475SOL    HW1 1443   0.897   0.494   4.527
  475SOL    HW2 1444   0.970   0.421   4.654
  476SOL     OW 1445   0.539   0.064   4.236
  476SOL    HW1 1446   0.458   0.065   4.294
  476SOL    HW2 1447   0.542   0.147   4.181
  477SOL     OW 1448   1.434   1.188   3.765
  477SOL    HW1 1449   1.466   1.112   3.822
  477SOL    HW2 1450   1.342   1.215   3.795
  478SOL     OW 1451   0.297   0.035   3.895
  478SOL    HW1 1452   0.346   0.119   3.874
  478SOL    HW2 1453   0.359  -0.030   3.940
  479SOL     OW 1454   0.935   0.236   4.204
  479SOL    HW1 1455   0.887   0.277   4.126
  479SOL    HW2 1456   1.034   0.234   4.185
  480SOL     OW 1457   1.227   1.570   4.517
  480SOL    HW1 1458   1.248   1.644   4.452
  480SOL    HW2 1459   1.295   1.570   4.590
  481SOL     OW 1460   0.459   1.152   4.465
  481SOL    HW1 1461   0.388   1.125   4.530
  481SOL    HW2 1462   0.433   1.124   4.372
  482SOL     OW 1463   1.271   1.797   4.315
  482SOL    HW1 1464   1.315   1.861   4.251
  482SOL    HW2 1465   1.221   1.849   4.385
  483SOL     OW 1466   1.032   0.549   3.740
  483SOL    HW1 1467   0.991   0.631   3.701
  483SOL    HW2 1468   1.096   0.575   3.813
  484SOL     OW 1469   0.866   0.454   4.366
  484SOL    HW1 1470   0.834   0.526   4.304
  484SOL    HW2 1471   0.890   0.373   4.313
  485SOL     OW 1472   1.017   0.039   4.477
  485SOL    HW1 1473   0.945   0.044   4.408
  485SOL    HW2 1474   0.993  -0.030   4.546
  486SOL     OW 1475   1.429   1.173   4.591
  486SOL    HW1 1476   1.374   1.089   4.584
  486SOL    HW2 1477   1.455   1.202   4.499
  487SOL     OW 1478   1.466   0.590   4.716
  487SOL    HW1 1479   1.436   0.495   4.723
  487SOL    HW2 1480   1.539   0.606   4.782
  488SOL     OW 1481   1.857   0.833   4.101
  488SOL    HW1 1482   1.899   0.769   4.165
  488SOL    HW2 1483   1.819   0.782   4.023
  489SOL     OW 1484   0.488   1.385   3.898
  489SOL    HW1 1485   0.401   1.370   3.945
  489SOL    HW2 1486   0.471   1.411   3.803
  490SOL     OW 1487   1.664   1.280   4.381
  490SOL    HW1 1488   1.763   1.288   4.395
  490SOL    HW2 1489   1.619   1.364   4.412
  491SOL     OW 1490   1.390   0.575   3.802
  491SOL    HW1 1491   1.336   0.554   3.883
  491SOL    HW2 1492   1.481   0.534   3.811
  492SOL     OW 1493   0.527   0.256   4.052
  492SOL    HW1 1494   0.554   0.197   3.977
  492SOL    HW2 1495   0.527   0.351   4.021
  493SOL     OW 1496   1.111   1.195   4.824
  493SOL    HW1 1497   1.071   1.239   4.905
  493SOL    HW2 1498   1.070   1.232   4.741
  494SOL     OW 1499   1.638   1.099   4.803
  494SOL    HW1 1500   1.643   1.180   4.862
  494SOL    HW2 1501   1.552   1.101   4.752
  495SOL     OW 1502   0.705   1.050   4.092
  495SOL    HW1 1503   0.691   1.057   4.191
  495SOL    HW2 1504   0.789   0.999   4.074
  496SOL     OW 1505   0.410   0.813   4.975
  496SOL    HW1 1506   0.496   0.825   5.025
  496SOL    HW2 1507   0.368   0.726   5.002
  497SOL     OW 1508   0.367   1.100   4.225
  497SOL    HW1 1509   0.360   1.183   4.169
  497SOL    HW2 1510   0.371   1.020   4.165
  498SOL     OW 1511   0.566   0.537   4.589
  498SOL    HW1 1512   0.578   0.603   4.515
  498SOL    HW2 1513   0.612   0.571   4.672
  499SOL     OW 1514   1.252   1.348   4.112
  499SOL    HW1 1515   1.302   1.425   4.152
  499SOL    HW2 1516   1.157   1.350   4.144
  500SOL     OW 1517   1.272   1.445   4.866
  500SOL    HW1 1518   1.319   1.458   4.953
  500SOL    HW2 1519   1.206   1.371   4.875
  501SOL     OW 1520   1.582   0.639   4.196
  501SOL    HW1 1521   1.551   0.700   4.269
  501SOL    HW2 1522   1.632   0.691   4.127
  502SOL     OW 1523   0.573   0.870   4.753
  502SOL    HW1 1524   0.617   0.959   4.744
  502SOL    HW2 1525   0.510   0.870   4.830
  503SOL     OW 1526   1.360   0.862   4.769
  503SOL    HW1 1527   1.285   0.862   4.703
  503SOL    HW2 1528   1.397   0.770   4.778
  504SOL     OW 1529   1.209   0.525   3.999
  504SOL    HW1 1530   1.222   0.441   4.053
  504SOL    HW2 1531   1.180   0.599   4.059
  505SOL     OW 1532   0.307   0.213   4.955
  505SOL    HW1 1533   0.284   0.250   5.045
  505SOL    HW2 1534   0.277   0.118   4.949
  506SOL     OW 1535   0.037   1.310   5.006
  506SOL    HW1 1536   0.090   1.261   5.074
  506SOL    HW2 1537   0.059   1.408   5.011
  507SOL     OW 1538   0.732   0.634   4.788
  507SOL    HW1 1539   0.791   0.608   4.712
  507SOL    HW2 1540   0.704   0.730   4.777
  508SOL     OW 1541   0.307   0.063   4.342
  508SOL    HW1 1542   0.296   0.157   4.375
  508SOL    HW2 1543   0.302   0.000   4.419
  509SOL     OW 1544   1.622   0.367   4.098
  509SOL    HW1 1545   1.624   0.291   4.162
  509SOL    HW2 1546   1.574   0.444   4.138
  510SOL     OW 1547   1.023   0.766   4.690
  510SOL    HW1 1548   1.038   0.787   4.786
  510SOL    HW2 1549   0.993   0.671   4.681
  511SOL     OW 1550   1.540   0.274   3.849
  511SOL    HW1 1551   1.479   0.199   3.872
  511SOL    HW2 1552   1.562   0.326   3.932
  512SOL     OW 1553   1.303   0.838   3.766
  512SOL    HW1 1554   1.337   0.745   3.781
  512SOL    HW2 1555   1.321   0.865   3.671
  513SOL     OW 1556   1.068   1.333   4.573
  513SOL    HW1 1557   1.075   1.249   4.518
  513SOL    HW2 1558   1.130   1.402   4.537
  514SOL     OW 1559   0.319   0.810   4.673
  514SOL    HW1 1560   0.412   0.846   4.678
  514SOL    HW2 1561   0.313   0.725   4.725
  515SOL     OW 1562   0.339   0.509   4.730
  515SOL    HW1 1563   0.287   0.426   4.713
  515SOL    HW2 1564   0.416   0.514   4.666
  516SOL     OW 1565   1.160   0.207   5.201
  516SOL    HW1 1566   1.160   0.271   5.278
  516SOL    HW2 1567   1.188   0.255   5.118
  517SOL     OW 1568   0.008   1.326   3.924
  517SOL    HW1 1569  -0.085   1.347   3.893
  517SOL    HW2 1570   0.018   1.227   3.937
  518SOL     OW 1571   0.088   1.801   4.651
  518SOL    HW1 1572   0.046   1.715   4.624
  518SOL    HW2 1573   0.182   1.804   4.617
  519SOL     OW 1574   0.504   1.568   4.634
  519SOL    HW1 1575   0.570   1.642   4.643
  519SOL    HW2 1576   0.548   1.489   4.592
  520SOL     OW 1577   1.002   0.796   4.962
  520SOL    HW1 1578   1.043   0.764   5.048
  520SOL    HW2 1579   0.906   0.769   4.959
  521SOL     OW 1580   0.040   0.544   4.838
  521SOL    HW1 1581   0.125   0.511   4.797
  521SOL    HW2 1582   0.053   0.559   4.936
  522SOL     OW 1583   0.815   0.572   4.049
  522SOL    HW1 1584   0.822   0.483   4.003
  522SOL    HW2 1585   0.721   0.606   4.041
  523SOL     OW 1586   1.657   0.604   4.930
  523SOL    HW1 1587   1.619   0.535   4.992
  523SOL    HW2 1588   1.739   0.568   4.886
  524SOL     OW 1589   0.671   0.464   4.993
  524SOL    HW1 1590   0.637   0.375   4.963
  524SOL    HW2 1591   0.697   0.518   4.913
  525SOL     OW 1592   0.473   0.500   3.915
  525SOL    HW1 1593   0.534   0.580   3.919
  525SOL    HW2 1594   0.378   0.531   3.922
  526SOL     OW 1595   1.347   1.059   4.958
  526SOL    HW1 1596   1.371   0.996   4.884
  526SOL    HW2 1597   1.257   1.099   4.940
  527SOL     OW 1598   1.302   0.855   4.033
  527SOL    HW1 1599   1.216   0.824   4.075
  527SOL    HW2 1600   1.298   0.841   3.934
  528SOL     OW 1601   1.759   1.747   4.878
  528SOL    HW1 1602   1.820   1.777   4.805
  528SOL    HW2 1603   1.721   1.658   4.856
  529SOL     OW 1604   0.083   1.258   4.746
  529SOL    HW1 1605   0.078   1.257   4.846
  529SOL    HW2 1606   0.000   1.217   4.708
  530SOL     OW 1607   1.726   0.135   4.247
  530SOL    HW1 1608   1.799   0.118   4.180
  530SOL    HW2 1609   1.695   0.048   4.285
  531SOL     OW 1610   1.388   1.573   4.201
  531SOL    HW1 1611   1.455   1.585   4.127
  531SOL    HW2 1612   1.348   1.662   4.224
  532SOL     OW 1613   1.280   0.927   4.396
  532SOL    HW1 1614   1.340   0.846   4.398
  532SOL    HW2 1615   1.320   0.996   4.336
  533SOL     OW 1616   0.672   1.616   3.878
  533SOL    HW1 1617   0.681   1.626   3.779
  533SOL    HW2 1618   0.632   1.527   3.899
  534SOL     OW 1619   1.650   1.720   5.118
  534SOL    HW1 1620   1.703   1.730   5.034
  534SOL    HW2 1621   1.623   1.810   5.152
  535SOL     OW 1622   1.841   0.175   4.687
  535SOL    HW1 1623   1.880   0.090   4.651
  535SOL    HW2 1624   1.743   0.177   4.668
  536SOL     OW 1625   0.263   0.326   4.444
  536SOL    HW1 1626   0.184   0.377   4.410
  536SOL    HW2 1627   0.254   0.311   4.542
  537SOL     OW 1628   1.194   1.612   3.755
  537SOL    HW1 1629   1.200   1.519   3.792
  537SOL    HW2 1630   1.135   1.612   3.675
  538SOL     OW 1631   0.822   1.002   5.096
  538SOL    HW1 1632   0.862   1.001   5.004
  538SOL    HW2 1633   0.832   1.094   5.136
  539SOL     OW 1634   0.916   0.910   4.015
  539SOL    HW1 1635   0.979   0.948   3.947
  539SOL    HW2 1636   0.956   0.827   4.054
  540SOL     OW 1637   1.504   1.607   3.768
  540SOL    HW1 1638   1.412   1.644   3.775
  540SOL    HW2 1639   1.542   1.627   3.678
  541SOL     OW 1640   1.039   1.098   4.420
  541SOL    HW1 1641   0.969   1.051   4.474
  541SOL    HW2 1642   1.098   1.030   4.377
  542SOL     OW 1643   1.014   0.236   4.695
  542SOL    HW1 1644   1.006   0.200   4.602
  542SOL    HW2 1645   1.012   0.160   4.760
  543SOL     OW 1646   0.590   1.487   4.215
  543SOL    HW1 1647   0.632   1.429   4.145
  543SOL    HW2 1648   0.546   1.566   4.171
  544SOL     OW 1649   1.709   0.385   5.105
  544SOL    HW1 1650   1.782   0.454   5.109
  544SOL    HW2 1651   1.737   0.310   5.046
  545SOL     OW 1652   0.255   1.348   4.014
  545SOL    HW1 1653   0.159   1.349   3.987
  545SOL    HW2 1654   0.267   1.401   4.098
  546SOL     OW 1655   0.075   0.345   3.757
  546SOL    HW1 1656  -0.017   0.317   3.728
  546SOL    HW2 1657   0.106   0.422   3.701
  547SOL     OW 1658   0.072   0.166   4.042
  547SOL    HW1 1659   0.055   0.249   3.988
  547SOL    HW2 1660   0.162   0.129   4.020
  548SOL     OW 1661   1.183   1.335   3.843
  548SOL    HW1 1662   1.084   1.324   3.845
  548SOL    HW2 1663   1.217   1.350   3.936
  549SOL     OW 1664   1.493   1.767   4.683
  549SOL    HW1 1665   1.526   1.831   4.614
  549SOL    HW2 1666   1.559   1.761   4.758
  550SOL     OW 1667   1.674   0.883   4.978
  550SOL    HW1 1668   1.647   0.794   4.941
  550SOL    HW2 1669   1.675   0.951   4.905
  551SOL     OW 1670   1.225   0.325   4.173
  551SOL    HW1 1671   1.290   0.251   4.162
  551SOL    HW2 1672   1.245   0.375   4.257
  552SOL     OW 1673   0.594   0.745   4.376
  552SOL    HW1 1674   0.644   0.830   4.357
  552SOL    HW2 1675   0.506   0.747   4.328
  553SOL     OW 1676   1.730   0.934   5.241
  553SOL    HW1 1677   1.768   1.025   5.256
  553SOL    HW2 1678   1.722   0.917   5.142
  554SOL     OW 1679   0.859   1.374   3.740
  554SOL    HW1 1680   0.813   1.389   3.828
  554SOL    HW2 1681   0.903   1.459   3.710
  555SOL     OW 1682   0.661   1.790   4.677
  555SOL    HW1 1683   0.615   1.878   4.664
  555SOL    HW2 1684   0.760   1.802   4.670
  556SOL     OW 1685   0.859   0.956   4.585
  556SOL    HW1 1686   0.913   0.887   4.633
  556SOL    HW2 1687   0.827   1.025   4.651
  557SOL     OW 1688   1.083   0.984   3.811
  557SOL    HW1 1689   1.060   1.037   3.729
  557SOL    HW2 1690   1.164   0.928   3.792
  558SOL     OW 1691   1.861   1.569   4.575
  558SOL    HW1 1692   1.790   1.557   4.505
  558SOL    HW2 1693   1.862   1.490   4.635
  559SOL     OW 1694   0.079   1.240   4.377
  559SOL    HW1 1695   0.078   1.193   4.465
  559SOL    HW2 1696   0.161   1.212   4.326
  560SOL     OW 1697   1.824   0.192   4.951
  560SOL    HW1 1698   1.820   0.102   4.995
  560SOL    HW2 1699   1.827   0.181   4.852
  561SOL     OW 1700   0.428   0.424   4.244
  561SOL    HW1 1701   0.458   0.352   4.182
  561SOL    HW2 1702   0.389   0.384   4.327
  562SOL     OW 1703   1.705   1.487   4.828
  562SOL    HW1 1704   1.612   1.462   4.801
  562SOL    HW2 1705   1.731   1.437   4.910
  563SOL     OW 1706   0.812   1.586   4.411
  563SOL    HW1 1707   0.844   1.596   4.317
  563SOL    HW2 1708   0.733   1.524   4.413
  564SOL     OW 1709   1.424   0.214   4.836
  564SOL    HW1 1710   1.476   0.149   4.891
  564SOL    HW2 1711   1.375   0.277   4.897
  565SOL     OW 1712   1.001   0.034   4.878
  565SOL    HW1 1713   0.938  -0.038   4.847
  565SOL    HW2 1714   1.094  -0.002   4.878
  566SOL     OW 1715   0.770   1.330   4.025
  566SOL    HW1 1716   0.724   1.243   4.042
  566SOL    HW2 1717   0.861   1.327   4.066
  567SOL     OW 1718   1.352   0.052   3.892
  567SOL    HW1 1719   1.387   0.011   3.808
  567SOL    HW2 1720   1.262   0.014   3.912
  568SOL     OW 1721   1.300   0.453   4.415
  568SOL    HW1 1722   1.241   0.533   4.419
  568SOL    HW2 1723   1.315   0.418   4.508
  569SOL     OW 1724   1.593   0.221   4.606
  569SOL    HW1 1725   1.509   0.220   4.660
  569SOL    HW2 1726   1.595   0.304   4.550
  570SOL     OW 1727   0.039   1.077   4.024
  570SOL    HW1 1728   0.138   1.066   4.015
  570SOL    HW2 1729  -0.001   0.991   4.056
  571SOL     OW 1730   0.875   1.646   4.061
  571SOL    HW1 1731   0.798   1.611   4.007
  571SOL    HW2 1732   0.843   1.717   4.123
  572SOL     OW 1733   0.230   2.490   0.113
  572SOL    HW1 1734   0.137   2.488   0.150
  572SOL    HW2 1735   0.231   2.451   0.021
  573SOL     OW 1736   0.225   2.137   0.996
  573SOL    HW1 1737   0.260   2.120   1.088
  573SOL    HW2 1738   0.137   2.092   0.984
  574SOL     OW 1739   0.019   2.230   0.647
  574SOL    HW1 1740  -0.063   2.273   0.686
  574SOL    HW2 1741  -0.009   2.157   0.584
  575SOL     OW 1742   0.569   3.137   1.165
  575SOL    HW1 1743   0.476   3.130   1.128
  575SOL    HW2 1744   0.580   3.226   1.209
  576SOL     OW 1745   1.555   3.373   0.703
  576SOL    HW1 1746   1.498   3.357   0.784
  576SOL    HW2 1747   1.496   3.383   0.623
  577SOL     OW 1748   1.135   2.565   0.717
  577SOL    HW1 1749   1.192   2.643   0.692
  577SOL    HW2 1750   1.075   2.591   0.793
  578SOL     OW 1751   1.755   2.469   0.231
  578SOL    HW1 1752   1.743   2.456   0.132
  578SOL    HW2 1753   1.725   2.388   0.280
  579SOL     OW 1754   0.768   3.006   1.023
  579SOL    HW1 1755   0.690   3.023   1.083
  579SOL    HW2 1756   0.802   3.093   0.987
  580SOL     OW 1757   0.850   2.660   1.823
  580SOL    HW1 1758   0.846   2.736   1.888
  580SOL    HW2 1759   0.872   2.696   1.732
  581SOL     OW 1760   0.685   2.874   0.665
  581SOL    HW1 1761   0.754   2.858   0.735
  581SOL    HW2 1762   0.612   2.931   0.703
  582SOL     OW 1763   0.686   3.023   1.803
  582SOL    HW1 1764   0.746   3.102   1.817
  582SOL    HW2 1765   0.600   3.054   1.762
  583SOL     OW 1766   0.335   3.297   1.061
  583SOL    HW1 1767   0.257   3.266   1.008
  583SOL    HW2 1768   0.393   3.355   1.004
  584SOL     OW 1769   1.460   3.367   1.339
  584SOL    HW1 1770   1.484   3.461   1.365
  584SOL    HW2 1771   1.444   3.313   1.421
  585SOL     OW 1772   0.438   2.254   1.499
  585SOL    HW1 1773   0.520   2.198   1.508
  585SOL    HW2 1774   0.357   2.196   1.503
  586SOL     OW 1775   1.603   2.309   0.737
  586SOL    HW1 1776   1.529   2.355   0.687
  586SOL    HW2 1777   1.654   2.377   0.790
  587SOL     OW 1778   0.231   3.575   0.483
  587SOL    HW1 1779   0.265   3.652   0.537
  587SOL    HW2 1780   0.275   3.575   0.393
  588SOL     OW 1781   1.127   3.203   1.690
  588SOL    HW1 1782   1.174   3.203   1.778
  588SOL    HW2 1783   1.079   3.116   1.679
  589SOL     OW 1784   0.230   3.296   0.538
  589SOL    HW1 1785   0.204   3.392   0.538
  589SOL    HW2 1786   0.159   3.242   0.583
  590SOL     OW 1787   0.240   2.953   0.886
  590SOL    HW1 1788   0.254   2.869   0.938
  590SOL    HW2 1789   0.185   3.017   0.941
  591SOL     OW 1790   0.620   3.648   1.439
  591SOL    HW1 1791   0.528   3.631   1.474
  591SOL    HW2 1792   0.648   3.740   1.465
  592SOL     OW 1793   0.606   2.826   0.123
  592SOL    HW1 1794   0.613   2.910   0.069
  592SOL    HW2 1795   0.652   2.839   0.211
  593SOL     OW 1796   1.594   1.976   1.480
  593SOL    HW1 1797   1.576   2.043   1.408
  593SOL    HW2 1798   1.591   2.022   1.569
  594SOL     OW 1799   0.122   2.505   0.563
  594SOL    HW1 1800   0.077   2.417   0.580
  594SOL    HW2 1801   0.121   2.559   0.647
  595SOL     OW 1802   1.842   3.629   0.359
  595SOL    HW1 1803   1.896   3.600   0.439
  595SOL    HW2 1804   1.872   3.719   0.330
  596SOL     OW 1805   0.027   3.458   0.117
  596SOL    HW1 1806   0.008   3.362   0.138
  596SOL    HW2 1807  -0.006   3.516   0.192
  597SOL     OW 1808   1.689   2.784   0.612
  597SOL    HW1 1809   1.784   2.755   0.620
  597SOL    HW2 1810   1.681   2.849   0.537
  598SOL     OW 1811   1.641   2.970   0.432
  598SOL    HW1 1812   1.727   2.972   0.380
  598SOL    HW2 1813   1.655   3.017   0.520
  599SOL     OW 1814   0.113   2.599   1.597
  599SOL    HW1 1815   0.201   2.586   1.642
  599SOL    HW2 1816   0.100   2.696   1.575
  600SOL     OW 1817   0.613   3.227   0.726
  600SOL    HW1 1818   0.564   3.140   0.735
  600SOL    HW2 1819   0.590   3.270   0.639
  601SOL     OW 1820   1.293   3.090   1.423
  601SOL    HW1 1821   1.330   3.017   1.365
  601SOL    HW2 1822   1.345   3.095   1.508
  602SOL     OW 1823   0.809   1.866   0.502
  602SOL    HW1 1824   0.849   1.957   0.493
  602SOL    HW2 1825   0.709   1.874   0.508
  603SOL     OW 1826   0.197   2.838   1.264
  603SOL    HW1 1827   0.286   2.793   1.250
  603SOL    HW2 1828   0.124   2.773   1.245
  604SOL     OW 1829   1.525   2.861   0.190
  604SOL    HW1 1830   1.462   2.785   0.203
  604SOL    HW2 1831   1.573   2.879   0.276
  605SOL     OW 1832   1.187   3.654   1.616
  605SOL    HW1 1833   1.211   3.714   1.540
  605SOL    HW2 1834   1.194   3.559   1.586
  606SOL     OW 1835   0.317   2.113   1.801
  606SOL    HW1 1836   0.388   2.184   1.807
  606SOL    HW2 1837   0.229   2.152   1.829
  607SOL     OW 1838   1.466   3.279   0.953
  607SOL    HW1 1839   1.407   3.285   1.033
  607SOL    HW2 1840   1.451   3.191   0.907
  608SOL     OW 1841   1.667   3.576   0.572
  608SOL    HW1 1842   1.626   3.553   0.484
  608SOL    HW2 1843   1.649   3.502   0.637
  609SOL     OW 1844   0.598   2.591   0.270
  609SOL    HW1 1845   0.622   2.660   0.202
  609SOL    HW2 1846   0.520   2.624   0.324
  610SOL     OW 1847   1.281   2.207   0.944
  610SOL    HW1 1848   1.195   2.157   0.931
  610SOL    HW2 1849   1.343   2.153   1.000
  611SOL     OW 1850   1.576   3.524   0.307
  611SOL    HW1 1851   1.665   3.570   0.310
  611SOL    HW2 1852   1.555   3.500   0.212
  612SOL     OW 1853   0.807   2.467   1.465
  612SOL    HW1 1854   0.760   2.464   1.554
  612SOL    HW2 1855   0.756   2.412   1.399
  613SOL     OW 1856   1.394   2.331   1.674
  613SOL    HW1 1857   1.374   2.374   1.762
  613SOL    HW2 1858   1.472   2.269   1.683
  614SOL     OW 1859   0.973   2.752   1.572
  614SOL    HW1 1860   1.019   2.668   1.543
  614SOL    HW2 1861   0.917   2.786   1.497
  615SOL     OW 1862   0.991   2.272   1.242
  615SOL    HW1 1863   0.914   2.306   1.296
  615SOL    HW2 1864   0.957   2.221   1.163
  616SOL     OW 1865   1.041   2.563   0.429
  616SOL    HW1 1866   1.067   2.559   0.525
  616SOL    HW2 1867   0.956   2.512   0.415
  617SOL     OW 1868   0.076   2.673   0.789
  617SOL    HW1 1869   0.175   2.661   0.798
  617SOL    HW2 1870   0.052   2.768   0.810
  618SOL     OW 1871   0.130   3.683   1.571
  618SOL    HW1 1872   0.120   3.668   1.670
  618SOL    HW2 1873   0.044   3.719   1.535
  619SOL     OW 1874   0.865   2.210   0.195
  619SOL    HW1 1875   0.924   2.273   0.146
  619SOL    HW2 1876   0.884   2.116   0.166
  620SOL     OW 1877   1.719   2.447   1.831
  620SOL    HW1 1878   1.693   2.536   1.795
  620SOL    HW2 1879   1.717   2.379   1.758
  621SOL     OW 1880   1.362   3.006   0.545
  621SOL    HW1 1881   1.445   2.977   0.497
  621SOL    HW2 1882   1.313   3.073   0.489
  622SOL     OW 1883   0.550   2.058   0.885
  622SOL    HW1 1884   0.545   2.053   0.985
  622SOL    HW2 1885   0.552   2.154   0.856
  623SOL     OW 1886   1.008   3.318   0.477
  623SOL    HW1 1887   0.962   3.390   0.425
  623SOL    HW2 1888   1.004   3.338   0.575
  624SOL     OW 1889   0.351   3.663   0.853
  624SOL    HW1 1890   0.401   3.577   0.859
  624SOL    HW2 1891   0.416   3.740   0.850
  625SOL     OW 1892   1.795   2.928   0.873
  625SOL    HW1 1893   1.733   2.913   0.797
  625SOL    HW2 1894   1.743   2.939   0.958
  626SOL     OW 1895   1.227   3.412   1.506
  626SOL    HW1 1896   1.233   3.335   1.570
  626SOL    HW2 1897   1.175   3.386   1.426
  627SOL     OW 1898   0.321   2.805   0.242
  627SOL    HW1 1899   0.403   2.844   0.200
  627SOL    HW2 1900   0.294   2.723   0.193
  628SOL     OW 1901   1.458   2.597   0.728
  628SOL    HW1 1902   1.453   2.532   0.803
  628SOL    HW2 1903   1.538   2.656   0.741
  629SOL     OW 1904   0.461   3.128   1.727
  629SOL    HW1 1905   0.411   3.129   1.641
  629SOL    HW2 1906   0.398   3.110   1.803
  630SOL     OW 1907   1.111   3.638   0.237
  630SOL    HW1 1908   1.051   3.576   0.287
  630SOL    HW2 1909   1.142   3.594   0.152
  631SOL     OW 1910   0.202   2.147   1.498
  631SOL    HW1 1911   0.122   2.207   1.485
  631SOL    HW2 1912   0.192   2.098   1.584
  632SOL     OW 1913   1.632   3.239   0.081
  632SOL    HW1 1914   1.600   3.333   0.071
  632SOL    HW2 1915   1.556   3.176   0.069
  633SOL     OW 1916   0.464   3.605   0.323
  633SOL    HW1 1917   0.497   3.644   0.409
  633SOL    HW2 1918   0.540   3.598   0.258
  634SOL     OW 1919   1.400   1.969   0.426
  634SOL    HW1 1920   1.376   1.932   0.336
  634SOL    HW2 1921   1.499   1.985   0.430
  635SOL     OW 1922   0.249   3.647   1.241
  635SOL    HW1 1923   0.306   3.582   1.291
  635SOL    HW2 1924   0.233   3.614   1.148
  636SOL     OW 1925   0.940   3.560   0.904
  636SOL    HW1 1926   1.020   3.503   0.925
  636SOL    HW2 1927   0.891   3.520   0.827
  637SOL     OW 1928   0.382   2.562   0.480
  637SOL    HW1 1929   0.427   2.472   0.477
  637SOL    HW2 1930   0.288   2.551   0.513
  638SOL     OW 1931   1.547   2.084   1.729
  638SOL    HW1 1932   1.542   2.121   1.821
  638SOL    HW2 1933   1.475   2.015   1.717
  639SOL     OW 1934   0.614   1.984   0.117
  639SOL    HW1 1935   0.712   1.962   0.124
  639SOL    HW2 1936   0.583   1.967   0.024
  640SOL     OW 1937   0.781   2.126   1.749
  640SOL    HW1 1938   0.848   2.065   1.792
  640SOL    HW2 1939   0.708   2.145   1.814
  641SOL     OW 1940   0.888   3.376   1.195
  641SOL    HW1 1941   0.865   3.351   1.101
  641SOL    HW2 1942   0.949   3.307   1.234
  642SOL     OW 1943   1.351   2.452   1.433
  642SOL    HW1 1944   1.379   2.409   1.518
  642SOL    HW2 1945   1.376   2.548   1.434
  643SOL     OW 1946   0.803   3.264   0.924
  643SOL    HW1 1947   0.893   3.278   0.882
  643SOL    HW2 1948   0.732   3.266   0.853
  644SOL     OW 1949   0.922   2.365   0.899
  644SOL    HW1 1950   0.897   2.356   0.803
  644SOL    HW2 1951   0.970   2.283   0.930
  645SOL     OW 1952   0.539   1.926   0.512
  645SOL    HW1 1953   0.458   1.927   0.570
  645SOL    HW2 1954   0.542   2.009   0.457
  646SOL     OW 1955   1.434   3.050   0.041
  646SOL    HW1 1956   1.466   2.974   0.098
  646SOL    HW2 1957   1.342   3.077   0.071
  647SOL     OW 1958   0.297   1.897   0.171
  647SOL    HW1 1959   0.346   1.981   0.150
  647SOL    HW2 1960   0.359   1.832   0.216
  648SOL     OW 1961   0.935   2.098   0.480
  648SOL    HW1 1962   0.887   2.139   0.402
  648SOL    HW2 1963   1.034   2.096   0.461
  649SOL     OW 1964   1.076   2.545   1.464
  649SOL    HW1 1965   0.996   2.484   1.467
  649SOL    HW2 1966   1.157   2.492   1.440
  650SOL     OW 1967   1.227   3.432   0.793
  650SOL    HW1 1968   1.248   3.506   0.728
  650SOL    HW2 1969   1.295   3.432   0.866
  651SOL     OW 1970   0.459   3.014   0.741
  651SOL    HW1 1971   0.388   2.987   0.806
  651SOL    HW2 1972   0.433   2.986   0.648
  652SOL     OW 1973   1.271   3.659   0.591
  652SOL    HW1 1974   1.315   3.723   0.527
  652SOL    HW2 1975   1.221   3.711   0.661
  653SOL     OW 1976   1.032   2.411   0.016
  653SOL    HW1 1977   0.991   2.493  -0.023
  653SOL    HW2 1978   1.096   2.437   0.089
  654SOL     OW 1979   0.078   2.418   1.386
  654SOL    HW1 1980   0.170   2.417   1.345
  654SOL    HW2 1981   0.072   2.492   1.453
  655SOL     OW 1982   0.561   2.084   1.147
  655SOL    HW1 1983   0.599   2.000   1.184
  655SOL    HW2 1984   0.473   2.103   1.191
  656SOL     OW 1985   0.866   2.316   0.642
  656SOL    HW1 1986   0.834   2.388   0.580
  656SOL    HW2 1987   0.890   2.235   0.589
  657SOL     OW 1988   1.017   1.901   0.753
  657SOL    HW1 1989   0.945   1.906   0.684
  657SOL    HW2 1990   0.993   1.832   0.822
  658SOL     OW 1991   1.429   3.035   0.867
  658SOL    HW1 1992   1.374   2.951   0.860
  658SOL    HW2 1993   1.455   3.064   0.775
  659SOL     OW 1994   1.466   2.452   0.992
  659SOL    HW1 1995   1.436   2.357   0.999
  659SOL    HW2 1996   1.539   2.468   1.058
  660SOL     OW 1997   1.857   2.695   0.377
  660SOL    HW1 1998   1.899   2.631   0.441
  660SOL    HW2 1999   1.819   2.644   0.299
  661SOL     OW 2000   0.488   3.247   0.174
  661SOL    HW1 2001   0.401   3.232   0.221
  661SOL    HW2 2002   0.471   3.273   0.079
  662SOL     OW 2003   1.664   3.142   0.657
  662SOL    HW1 2004   1.763   3.150   0.671
  662SOL    HW2 2005   1.619   3.226   0.688
  663SOL     OW 2006   1.390   2.437   0.078
  663SOL    HW1 2007   1.336   2.416   0.159
  663SOL    HW2 2008   1.481   2.396   0.087
  664SOL     OW 2009   0.527   2.118   0.328
  664SOL    HW1 2010   0.554   2.059   0.253
  664SOL    HW2 2011   0.527   2.213   0.297
  665SOL     OW 2012   1.754   3.085   1.588
  665SOL    HW1 2013   1.845   3.046   1.575
  665SOL    HW2 2014   1.762   3.181   1.612
  666SOL     OW 2015   1.064   3.209   1.340
  666SOL    HW1 2016   0.984   3.186   1.395
  666SOL    HW2 2017   1.147   3.183   1.389
  667SOL     OW 2018   1.592   3.491   1.625
  667SOL    HW1 2019   1.619   3.525   1.535
  667SOL    HW2 2020   1.671   3.453   1.671
  668SOL     OW 2021   1.111   3.057   1.100
  668SOL    HW1 2022   1.071   3.101   1.181
  668SOL    HW2 2023   1.070   3.094   1.017
  669SOL     OW 2024   1.638   2.961   1.079
  669SOL    HW1 2025   1.643   3.042   1.138
  669SOL    HW2 2026   1.552   2.963   1.028
  670SOL     OW 2027   0.915   1.951   1.402
  670SOL    HW1 2028   0.940   1.931   1.307
  670SOL    HW2 2029   0.987   2.007   1.444
  671SOL     OW 2030   0.980   2.978   1.719
  671SOL    HW1 2031   0.881   2.984   1.729
  671SOL    HW2 2032   1.003   2.898   1.663
  672SOL     OW 2033   0.705   2.912   0.368
  672SOL    HW1 2034   0.691   2.919   0.467
  672SOL    HW2 2035   0.789   2.861   0.350
  673SOL     OW 2036   0.410   2.675   1.251
  673SOL    HW1 2037   0.496   2.687   1.301
  673SOL    HW2 2038   0.368   2.588   1.278
  674SOL     OW 2039   1.274   2.248   1.262
  674SOL    HW1 2040   1.295   2.322   1.326
  674SOL    HW2 2041   1.185   2.265   1.219
  675SOL     OW 2042   0.064   3.426   1.331
  675SOL    HW1 2043   0.018   3.508   1.297
  675SOL    HW2 2044   0.162   3.445   1.340
  676SOL     OW 2045   0.367   2.962   0.501
  676SOL    HW1 2046   0.360   3.045   0.445
  676SOL    HW2 2047   0.371   2.882   0.441
  677SOL     OW 2048   0.566   2.399   0.865
  677SOL    HW1 2049   0.578   2.465   0.791
  677SOL    HW2 2050   0.612   2.433   0.948
  678SOL     OW 2051   1.252   3.210   0.388
  678SOL    HW1 2052   1.302   3.287   0.428
  678SOL    HW2 2053   1.157   3.212   0.420
  679SOL     OW 2054   1.272   3.307   1.142
  679SOL    HW1 2055   1.319   3.320   1.229
  679SOL    HW2 2056   1.206   3.233   1.151
  680SOL     OW 2057   1.582   2.501   0.472
  680SOL    HW1 2058   1.551   2.562   0.545
  680SOL    HW2 2059   1.632   2.553   0.403
  681SOL     OW 2060   0.354   3.372   1.329
  681SOL    HW1 2061   0.333   3.328   1.242
  681SOL    HW2 2062   0.451   3.398   1.332
  682SOL     OW 2063   0.402   2.613   1.598
  682SOL    HW1 2064   0.470   2.668   1.551
  682SOL    HW2 2065   0.442   2.525   1.625
  683SOL     OW 2066   1.587   2.641   1.670
  683SOL    HW1 2067   1.495   2.679   1.665
  683SOL    HW2 2068   1.647   2.688   1.605
  684SOL     OW 2069   1.013   1.967   1.770
  684SOL    HW1 2070   1.019   2.052   1.718
  684SOL    HW2 2071   1.045   1.891   1.713
  685SOL     OW 2072   0.504   1.912   1.740
  685SOL    HW1 2073   0.462   1.855   1.670
  685SOL    HW2 2074   0.438   1.981   1.772
  686SOL     OW 2075   0.573   2.732   1.029
  686SOL    HW1 2076   0.617   2.821   1.020
  686SOL    HW2 2077   0.510   2.732   1.106
  687SOL     OW 2078   1.360   2.724   1.045
  687SOL    HW1 2079   1.285   2.724   0.979
  687SOL    HW2 2080   1.397   2.632   1.054
  688SOL     OW 2081   1.209   2.387   0.275
  688SOL    HW1 2082   1.222   2.303   0.329
  688SOL    HW2 2083   1.180   2.461   0.335
  689SOL     OW 2084   0.307   2.075   1.231
  689SOL    HW1 2085   0.284   2.112   1.321
  689SOL    HW2 2086   0.277   1.980   1.225
  690SOL     OW 2087   0.037   3.172   1.282
  690SOL    HW1 2088   0.090   3.123   1.350
  690SOL    HW2 2089   0.059   3.270   1.287
  691SOL     OW 2090   0.732   2.496   1.064
  691SOL    HW1 2091   0.791   2.470   0.988
  691SOL    HW2 2092   0.704   2.592   1.053
  692SOL     OW 2093   1.728   2.797   1.854
  692SOL    HW1 2094   1.682   2.790   1.765
  692SOL    HW2 2095   1.666   2.841   1.920
  693SOL     OW 2096   0.307   1.925   0.618
  693SOL    HW1 2097   0.296   2.019   0.651
  693SOL    HW2 2098   0.302   1.862   0.695
  694SOL     OW 2099   1.622   2.229   0.374
  694SOL    HW1 2100   1.624   2.153   0.438
  694SOL    HW2 2101   1.574   2.306   0.414
  695SOL     OW 2102   1.023   2.628   0.966
  695SOL    HW1 2103   1.038   2.649   1.062
  695SOL    HW2 2104   0.993   2.533   0.957
  696SOL     OW 2105   0.980   3.435   1.700
  696SOL    HW1 2106   0.960   3.479   1.612
  696SOL    HW2 2107   1.019   3.344   1.684
  697SOL     OW 2108   1.859   3.380   1.605
  697SOL    HW1 2109   1.873   3.407   1.510
  697SOL    HW2 2110   1.942   3.402   1.658
  698SOL     OW 2111   0.350   2.760   1.804
  698SOL    HW1 2112   0.426   2.804   1.852
  698SOL    HW2 2113   0.385   2.713   1.722
  699SOL     OW 2114   1.540   2.136   0.125
  699SOL    HW1 2115   1.479   2.061   0.148
  699SOL    HW2 2116   1.562   2.188   0.208
  700SOL     OW 2117   1.303   2.700   0.042
  700SOL    HW1 2118   1.337   2.607   0.057
  700SOL    HW2 2119   1.321   2.727  -0.053
  701SOL     OW 2120   1.068   3.195   0.849
  701SOL    HW1 2121   1.075   3.111   0.794
  701SOL    HW2 2122   1.130   3.264   0.813
  702SOL     OW 2123   0.319   2.672   0.949
  702SOL    HW1 2124   0.412   2.708   0.954
  702SOL    HW2 2125   0.313   2.587   1.001
  703SOL     OW 2126   0.339   2.371   1.006
  703SOL    HW1 2127   0.287   2.288   0.989
  703SOL    HW2 2128   0.416   2.376   0.942
  704SOL     OW 2129   1.138   2.242   1.678
  704SOL    HW1 2130   1.093   2.305   1.742
  704SOL    HW2 2131   1.231   2.273   1.661
  705SOL     OW 2132   1.160   2.069   1.477
  705SOL    HW1 2133   1.160   2.133   1.554
  705SOL    HW2 2134   1.188   2.117   1.394
  706SOL     OW 2135   0.008   3.188   0.200
  706SOL    HW1 2136  -0.085   3.209   0.169
  706SOL    HW2 2137   0.018   3.089   0.213
  707SOL     OW 2138   0.088   3.663   0.927
  707SOL    HW1 2139   0.046   3.577   0.900
  707SOL    HW2 2140   0.182   3.666   0.893
  708SOL     OW 2141   0.504   3.430   0.910
  708SOL    HW1 2142   0.570   3.504   0.919
  708SOL    HW2 2143   0.548   3.351   0.868
  709SOL     OW 2144   1.002   2.658   1.238
  709SOL    HW1 2145   1.043   2.626   1.324
  709SOL    HW2 2146   0.906   2.631   1.235
  710SOL     OW 2147   0.040   2.406   1.114
  710SOL    HW1 2148   0.125   2.373   1.073
  710SOL    HW2 2149   0.053   2.421   1.212
  711SOL     OW 2150   0.189   2.382   1.722
  711SOL    HW1 2151   0.248   2.342   1.652
  711SOL    HW2 2152   0.131   2.453   1.681
  712SOL     OW 2153   1.369   2.812   1.660
  712SOL    HW1 2154   1.408   2.901   1.680
  712SOL    HW2 2155   1.379   2.792   1.563
  713SOL     OW 2156   0.815   2.434   0.325
  713SOL    HW1 2157   0.822   2.345   0.279
  713SOL    HW2 2158   0.721   2.468   0.317
  714SOL     OW 2159   1.657   2.466   1.206
  714SOL    HW1 2160   1.619   2.397   1.268
  714SOL    HW2 2161   1.739   2.430   1.162
  715SOL     OW 2162   0.252   3.426   1.744
  715SOL    HW1 2163   0.222   3.483   1.820
  715SOL    HW2 2164   0.245   3.329   1.770
  716SOL     OW 2165   0.671   2.326   1.269
  716SOL    HW1 2166   0.637   2.237   1.239
  716SOL    HW2 2167   0.697   2.380   1.189
  717SOL     OW 2168   0.930   3.540   1.465
  717SOL    HW1 2169   0.906   3.522   1.370
  717SOL    HW2 2170   0.960   3.634   1.475
  718SOL     OW 2171   0.473   2.362   0.191
  718SOL    HW1 2172   0.534   2.442   0.195
  718SOL    HW2 2173   0.378   2.393   0.198
  719SOL     OW 2174   0.159   2.999   1.466
  719SOL    HW1 2175   0.181   2.938   1.542
  719SOL    HW2 2176   0.169   2.950   1.380
  720SOL     OW 2177   1.347   2.921   1.234
  720SOL    HW1 2178   1.371   2.858   1.160
  720SOL    HW2 2179   1.257   2.961   1.216
  721SOL     OW 2180   1.302   2.717   0.309
  721SOL    HW1 2181   1.216   2.686   0.351
  721SOL    HW2 2182   1.298   2.703   0.210
  722SOL     OW 2183   1.759   3.609   1.154
  722SOL    HW1 2184   1.820   3.639   1.081
  722SOL    HW2 2185   1.721   3.520   1.132
  723SOL     OW 2186   1.252   3.593   1.128
  723SOL    HW1 2187   1.336   3.598   1.074
  723SOL    HW2 2188   1.229   3.497   1.146
  724SOL     OW 2189   0.083   3.120   1.022
  724SOL    HW1 2190   0.078   3.119   1.122
  724SOL    HW2 2191   0.000   3.079   0.984
  725SOL     OW 2192   0.688   3.524   1.716
  725SOL    HW1 2193   0.632   3.605   1.725
  725SOL    HW2 2194   0.740   3.528   1.630
  726SOL     OW 2195   0.903   1.948   0.133
  726SOL    HW1 2196   0.954   1.949   0.047
  726SOL    HW2 2197   0.959   1.906   0.204
  727SOL     OW 2198   1.726   1.997   0.523
  727SOL    HW1 2199   1.799   1.980   0.456
  727SOL    HW2 2200   1.695   1.910   0.561
  728SOL     OW 2201   1.388   3.435   0.477
  728SOL    HW1 2202   1.455   3.447   0.403
  728SOL    HW2 2203   1.348   3.524   0.500
  729SOL     OW 2204   0.130   3.656   1.851
  729SOL    HW1 2205   0.089   3.582   1.904
  729SOL    HW2 2206   0.194   3.707   1.909
  730SOL     OW 2207   1.280   2.789   0.672
  730SOL    HW1 2208   1.340   2.708   0.674
  730SOL    HW2 2209   1.320   2.858   0.612
  731SOL     OW 2210   0.830   3.135   1.422
  731SOL    HW1 2211   0.825   3.168   1.517
  731SOL    HW2 2212   0.744   3.154   1.376
  732SOL     OW 2213   0.672   3.478   0.154
  732SOL    HW1 2214   0.681   3.488   0.055
  732SOL    HW2 2215   0.632   3.389   0.175
  733SOL     OW 2216   1.650   3.582   1.394
  733SOL    HW1 2217   1.703   3.592   1.310
  733SOL    HW2 2218   1.623   3.672   1.428
  734SOL     OW 2219   1.841   2.037   0.963
  734SOL    HW1 2220   1.880   1.952   0.927
  734SOL    HW2 2221   1.743   2.039   0.944
  735SOL     OW 2222   0.263   2.188   0.720
  735SOL    HW1 2223   0.184   2.239   0.686
  735SOL    HW2 2224   0.254   2.173   0.818
  736SOL     OW 2225   1.194   3.474   0.031
  736SOL    HW1 2226   1.200   3.381   0.068
  736SOL    HW2 2227   1.135   3.474  -0.049
  737SOL     OW 2228   0.822   2.864   1.372
  737SOL    HW1 2229   0.862   2.863   1.280
  737SOL    HW2 2230   0.832   2.956   1.412
  738SOL     OW 2231   0.916   2.772   0.291
  738SOL    HW1 2232   0.979   2.810   0.223
  738SOL    HW2 2233   0.956   2.689   0.330
  739SOL     OW 2234   1.504   3.469   0.044
  739SOL    HW1 2235   1.412   3.506   0.051
  739SOL    HW2 2236   1.542   3.489  -0.046
  740SOL     OW 2237   0.372   3.150   1.490
  740SOL    HW1 2238   0.359   3.243   1.456
  740SOL    HW2 2239   0.288   3.098   1.477
  741SOL     OW 2240   1.614   3.154   1.289
  741SOL    HW1 2241   1.674   3.157   1.369
  741SOL    HW2 2242   1.539   3.218   1.302
  742SOL     OW 2243   1.039   2.960   0.696
  742SOL    HW1 2244   0.969   2.913   0.750
  742SOL    HW2 2245   1.098   2.892   0.653
  743SOL     OW 2246   1.014   2.098   0.971
  743SOL    HW1 2247   1.006   2.062   0.878
  743SOL    HW2 2248   1.012   2.022   1.036
  744SOL     OW 2249   0.590   3.349   0.491
  744SOL    HW1 2250   0.632   3.291   0.421
  744SOL    HW2 2251   0.546   3.428   0.447
  745SOL     OW 2252   1.709   2.247   1.381
  745SOL    HW1 2253   1.782   2.316   1.385
  745SOL    HW2 2254   1.737   2.172   1.322
  746SOL     OW 2255   0.255   3.210   0.290
  746SOL    HW1 2256   0.159   3.211   0.263
  746SOL    HW2 2257   0.267   3.263   0.374
  747SOL     OW 2258   0.105   2.875   1.726
  747SOL    HW1 2259   0.028   2.842   1.780
  747SOL    HW2 2260   0.190   2.845   1.768
  748SOL     OW 2261   0.672   2.065   1.489
  748SOL    HW1 2262   0.762   2.049   1.449
  748SOL    HW2 2263   0.680   2.070   1.588
  749SOL     OW 2264   0.075   2.207   0.033
  749SOL    HW1 2265  -0.017   2.179   0.004
  749SOL    HW2 2266   0.106   2.284  -0.023
  750SOL     OW 2267   1.440   2.718   1.398
  750SOL    HW1 2268   1.383   2.770   1.335
  750SOL    HW2 2269   1.536   2.730   1.374
  751SOL     OW 2270   0.072   2.028   0.318
  751SOL    HW1 2271   0.055   2.111   0.264
  751SOL    HW2 2272   0.162   1.991   0.296
  752SOL     OW 2273   1.183   3.197   0.119
  752SOL    HW1 2274   1.084   3.186   0.121
  752SOL    HW2 2275   1.217   3.212   0.212
  753SOL     OW 2276   0.613   2.704   1.431
  753SOL    HW1 2277   0.669   2.785   1.414
  753SOL    HW2 2278   0.672   2.624   1.434
  754SOL     OW 2279   1.493   3.629   0.959
  754SOL    HW1 2280   1.526   3.693   0.890
  754SOL    HW2 2281   1.559   3.623   1.034
  755SOL     OW 2282   0.716   2.427   1.708
  755SOL    HW1 2283   0.735   2.492   1.782
  755SOL    HW2 2284   0.776   2.347   1.717
  756SOL     OW 2285   1.450   3.082   1.633
  756SOL    HW1 2286   1.441   3.072   1.732
  756SOL    HW2 2287   1.546   3.075   1.607
  757SOL     OW 2288   0.390   3.603   1.560
  757SOL    HW1 2289   0.299   3.644   1.558
  757SOL    HW2 2290   0.383   3.509   1.592
  758SOL     OW 2291   1.674   2.745   1.254
  758SOL    HW1 2292   1.647   2.656   1.217
  758SOL    HW2 2293   1.675   2.813   1.181
  759SOL     OW 2294   1.225   2.187   0.449
  759SOL    HW1 2295   1.290   2.113   0.438
  759SOL    HW2 2296   1.245   2.237   0.533
  760SOL     OW 2297   0.594   2.607   0.652
  760SOL    HW1 2298   0.644   2.692   0.633
  760SOL    HW2 2299   0.506   2.609   0.604
  761SOL     OW 2300   1.777   2.204   1.642
  761SOL    HW1 2301   1.760   2.235   1.548
  761SOL    HW2 2302   1.693   2.167   1.680
  762SOL     OW 2303   1.730   2.796   1.517
  762SOL    HW1 2304   1.768   2.887   1.532
  762SOL    HW2 2305   1.722   2.779   1.418
  763SOL     OW 2306   0.859   3.236   0.016
  763SOL    HW1 2307   0.813   3.251   0.104
  763SOL    HW2 2308   0.903   3.321  -0.014
  764SOL     OW 2309   0.661   3.652   0.953
  764SOL    HW1 2310   0.615   3.740   0.940
  764SOL    HW2 2311   0.760   3.664   0.946
  765SOL     OW 2312   0.859   2.818   0.861
  765SOL    HW1 2313   0.913   2.749   0.909
  765SOL    HW2 2314   0.827   2.887   0.927
  766SOL     OW 2315   1.083   2.846   0.087
  766SOL    HW1 2316   1.060   2.899   0.005
  766SOL    HW2 2317   1.164   2.790   0.068
  767SOL     OW 2318   1.861   3.431   0.851
  767SOL    HW1 2319   1.790   3.419   0.781
  767SOL    HW2 2320   1.862   3.352   0.911
  768SOL     OW 2321   0.221   3.176   1.844
  768SOL    HW1 2322   0.156   3.103   1.823
  768SOL    HW2 2323   0.225   3.190   1.942
  769SOL     OW 2324   0.079   3.102   0.653
  769SOL    HW1 2325   0.078   3.055   0.741
  769SOL    HW2 2326   0.161   3.074   0.602
  770SOL     OW 2327   0.672   3.253   1.624
  770SOL    HW1 2328   0.594   3.203   1.662
  770SOL    HW2 2329   0.669   3.348   1.655
  771SOL     OW 2330   1.824   2.054   1.227
  771SOL    HW1 2331   1.820   1.964   1.271
  771SOL    HW2 2332   1.827   2.043   1.128
  772SOL     OW 2333   0.428   2.286   0.520
  772SOL    HW1 2334   0.458   2.214   0.458
  772SOL    HW2 2335   0.389   2.246   0.603
  773SOL     OW 2336   1.705   3.349   1.104
  773SOL    HW1 2337   1.612   3.324   1.077
  773SOL    HW2 2338   1.731   3.299   1.186
  774SOL     OW 2339   0.317   2.409   1.280
  774SOL    HW1 2340   0.355   2.350   1.352
  774SOL    HW2 2341   0.357   2.383   1.192
  775SOL     OW 2342   0.812   3.448   0.687
  775SOL    HW1 2343   0.844   3.458   0.593
  775SOL    HW2 2344   0.733   3.386   0.689
  776SOL     OW 2345   1.424   2.076   1.112
  776SOL    HW1 2346   1.476   2.011   1.167
  776SOL    HW2 2347   1.375   2.139   1.173
  777SOL     OW 2348   1.001   1.896   1.154
  777SOL    HW1 2349   0.938   1.824   1.123
  777SOL    HW2 2350   1.094   1.860   1.154
  778SOL     OW 2351   0.770   3.192   0.301
  778SOL    HW1 2352   0.724   3.105   0.318
  778SOL    HW2 2353   0.861   3.189   0.342
  779SOL     OW 2354   0.618   3.429   1.284
  779SOL    HW1 2355   0.613   3.511   1.341
  779SOL    HW2 2356   0.707   3.426   1.239
  780SOL     OW 2357   1.352   1.914   0.168
  780SOL    HW1 2358   1.387   1.873   0.084
  780SOL    HW2 2359   1.262   1.876   0.188
  781SOL     OW 2360   1.300   2.315   0.691
  781SOL    HW1 2361   1.241   2.395   0.695
  781SOL    HW2 2362   1.315   2.280   0.784
  782SOL     OW 2363   1.593   2.083   0.882
  782SOL    HW1 2364   1.509   2.082   0.936
  782SOL    HW2 2365   1.595   2.166   0.826
  783SOL     OW 2366   0.039   2.939   0.300
  783SOL    HW1 2367   0.138   2.928   0.291
  783SOL    HW2 2368  -0.001   2.853   0.332
  784SOL     OW 2369   0.875   3.508   0.337
  784SOL    HW1 2370   0.798   3.473   0.283
  784SOL    HW2 2371   0.843   3.579   0.399
  785SOL     OW 2372   0.230   2.490   1.975
  785SOL    HW1 2373   0.137   2.488   2.012
  785SOL    HW2 2374   0.231   2.451   1.883
  786SOL     OW 2375   0.225   2.137   2.858
  786SOL    HW1 2376   0.260   2.120   2.950
  786SOL    HW2 2377   0.137   2.092   2.846
  787SOL     OW 2378   0.019   2.230   2.509
  787SOL    HW1 2379  -0.063   2.273   2.548
  787SOL    HW2 2380  -0.009   2.157   2.446
  788SOL     OW 2381   0.569   3.137   3.027
  788SOL    HW1 2382   0.476   3.130   2.990
  788SOL    HW2 2383   0.580   3.226   3.071
  789SOL     OW 2384   1.555   3.373   2.565
  789SOL    HW1 2385   1.498   3.357   2.646
  789SOL    HW2 2386   1.496   3.383   2.485
  790SOL     OW 2387   1.135   2.565   2.579
  790SOL    HW1 2388   1.192   2.643   2.554
  790SOL    HW2 2389   1.075   2.591   2.655
  791SOL     OW 2390   1.755   2.469   2.093
  791SOL    HW1 2391   1.743   2.456   1.994
  791SOL    HW2 2392   1.725   2.388   2.142
  792SOL     OW 2393   0.768   3.006   2.885
  792SOL    HW1 2394   0.690   3.023   2.945
  792SOL    HW2 2395   0.802   3.093   2.849
  793SOL     OW 2396   0.850   2.660   3.685
  793SOL    HW1 2397   0.846   2.736   3.750
  793SOL    HW2 2398   0.872   2.696   3.594
  794SOL     OW 2399   0.685   2.874   2.527
  794SOL    HW1 2400   0.754   2.858   2.597
  794SOL    HW2 2401   0.612   2.931   2.565
  795SOL     OW 2402   0.686   3.023   3.665
  795SOL    HW1 2403   0.746   3.102   3.679
  795SOL    HW2 2404   0.600   3.054   3.624
  796SOL     OW 2405   0.335   3.297   2.923
  796SOL    HW1 2406   0.257   3.266   2.870
  796SOL    HW2 2407   0.393   3.355   2.866
  797SOL     OW 2408   1.460   3.367   3.201
  797SOL    HW1 2409   1.484   3.461   3.227
  797SOL    HW2 2410   1.444   3.313   3.283
  798SOL     OW 2411   0.438   2.254   3.361
  798SOL    HW1 2412   0.520   2.198   3.370
  798SOL    HW2 2413   0.357   2.196   3.365
  799SOL     OW 2414   1.603   2.309   2.599
  799SOL    HW1 2415   1.529   2.355   2.549
  799SOL    HW2 2416   1.654   2.377   2.652
  800SOL     OW 2417   0.231   3.575   2.345
  800SOL    HW1 2418   0.265   3.652   2.399
  800SOL    HW2 2419   0.275   3.575   2.255
  801SOL     OW 2420   1.127   3.203   3.552
  801SOL    HW1 2421   1.174   3.203   3.640
  801SOL    HW2 2422   1.079   3.116   3.541
  802SOL     OW 2423   0.230   3.296   2.400
  802SOL    HW1 2424   0.204   3.392   2.400
  802SOL    HW2 2425   0.159   3.242   2.445
  803SOL     OW 2426   0.240   2.953   2.748
  803SOL    HW1 2427   0.254   2.869   2.800
  803SOL    HW2 2428   0.185   3.017   2.803
  804SOL     OW 2429   0.620   3.648   3.301
  804SOL    HW1 2430   0.528   3.631   3.336
  804SOL    HW2 2431   0.648   3.740   3.327
  805SOL     OW 2432   0.606   2.826   1.985
  805SOL    HW1 2433   0.613   2.910   1.931
  805SOL    HW2 2434   0.652   2.839   2.073
  806SOL     OW 2435   1.594   1.976   3.342
  806SOL    HW1 2436   1.576   2.043   3.270
  806SOL    HW2 2437   1.591   2.022   3.431
  807SOL     OW 2438   0.122   2.505   2.425
  807SOL    HW1 2439   0.077   2.417   2.442
  807SOL    HW2 2440   0.121   2.559   2.509
  808SOL     OW 2441   1.842   3.629   2.221
  808SOL    HW1 2442   1.896   3.600   2.301
  808SOL    HW2 2443   1.872   3.719   2.192
  809SOL     OW 2444   0.027   3.458   1.979
  809SOL    HW1 2445   0.008   3.362   2.000
  809SOL    HW2 2446  -0.006   3.516   2.054
  810SOL     OW 2447   1.689   2.784   2.474
  810SOL    HW1 2448   1.784   2.755   2.482
  810SOL    HW2 2449   1.681   2.849   2.399
  811SOL     OW 2450   1.641   2.970   2.294
  811SOL    HW1 2451   1.727   2.972   2.242
  811SOL    HW2 2452   1.655   3.017   2.382
  812SOL     OW 2453   0.113   2.599   3.459
  812SOL    HW1 2454   0.201   2.586   3.504
  812SOL    HW2 2455   0.100   2.696   3.437
  813SOL     OW 2456   0.613   3.227   2.588
  813SOL    HW1 2457   0.564   3.140   2.597
  813SOL    HW2 2458   0.590   3.270   2.501
  814SOL     OW 2459   1.293   3.090   3.285
  814SOL    HW1 2460   1.330   3.017   3.227
  814SOL    HW2 2461   1.345   3.095   3.370
  815SOL     OW 2462   0.809   1.866   2.364
  815SOL    HW1 2463   0.849   1.957   2.355
  815SOL    HW2 2464   0.709   1.874   2.370
  816SOL     OW 2465   0.197   2.838   3.126
  816SOL    HW1 2466   0.286   2.793   3.112
  816SOL    HW2 2467   0.124   2.773   3.107
  817SOL     OW 2468   1.525   2.861   2.052
  817SOL    HW1 2469   1.462   2.785   2.065
  817SOL    HW2 2470   1.573   2.879   2.138
  818SOL     OW 2471   1.187   3.654   3.478
  818SOL    HW1 2472   1.211   3.714   3.402
  818SOL    HW2 2473   1.194   3.559   3.448
  819SOL     OW 2474   0.317   2.113   3.663
  819SOL    HW1 2475   0.388   2.184   3.669
  819SOL    HW2 2476   0.229   2.152   3.691
  820SOL     OW 2477   1.466   3.279   2.815
  820SOL    HW1 2478   1.407   3.285   2.895
  820SOL    HW2 2479   1.451   3.191   2.769
  821SOL     OW 2480   1.667   3.576   2.434
  821SOL    HW1 2481   1.626   3.553   2.346
  821SOL    HW2 2482   1.649   3.502   2.499
  822SOL     OW 2483   0.598   2.591   2.132
  822SOL    HW1 2484   0.622   2.660   2.064
  822SOL    HW2 2485   0.520   2.624   2.186
  823SOL     OW 2486   1.281   2.207   2.806
  823SOL    HW1 2487   1.195   2.157   2.793
  823SOL    HW2 2488   1.343   2.153   2.862
  824SOL     OW 2489   1.576   3.524   2.169
  824SOL    HW1 2490   1.665   3.570   2.172
  824SOL    HW2 2491   1.555   3.500   2.074
  825SOL     OW 2492   0.807   2.467   3.327
  825SOL    HW1 2493   0.760   2.464   3.416
  825SOL    HW2 2494   0.756   2.412   3.261
  826SOL     OW 2495   1.394   2.331   3.536
  826SOL    HW1 2496   1.374   2.374   3.624
  826SOL    HW2 2497   1.472   2.269   3.545
  827SOL     OW 2498   0.973   2.752   3.434
  827SOL    HW1 2499   1.019   2.668   3.405
  827SOL    HW2 2500   0.917   2.786   3.359
  828SOL     OW 2501   0.991   2.272   3.104
  828SOL    HW1 2502   0.914   2.306   3.158
  828SOL    HW2 2503   0.957   2.221   3.025
  829SOL     OW 2504   1.041   2.563   2.291
  829SOL    HW1 2505   1.067   2.559   2.387
  829SOL    HW2 2506   0.956   2.512   2.277
  830SOL     OW 2507   0.076   2.673   2.651
  830SOL    HW1 2508   0.175   2.661   2.660
  830SOL    HW2 2509   0.052   2.768   2.672
  831SOL     OW 2510   0.130   3.683   3.433
  831SOL    HW1 2511   0.120   3.668   3.532
  831SOL    HW2 2512   0.044   3.719   3.397
  832SOL     OW 2513   0.865   2.210   2.057
  832SOL    HW1 2514   0.924   2.273   2.008
  832SOL    HW2 2515   0.884   2.116   2.028
  833SOL     OW 2516   1.719   2.447   3.693
  833SOL    HW1 2517   1.693   2.536   3.657
  833SOL    HW2 2518   1.717   2.379   3.620
  834SOL     OW 2519   1.362   3.006   2.407
  834SOL    HW1 2520   1.445   2.977   2.359
  834SOL    HW2 2521   1.313   3.073   2.351
  835SOL     OW 2522   0.550   2.058   2.747
  835SOL    HW1 2523   0.545   2.053   2.847
  835SOL    HW2 2524   0.552   2.154   2.718
  836SOL     OW 2525   1.008   3.318   2.339
  836SOL    HW1 2526   0.962   3.390   2.287
  836SOL    HW2 2527   1.004   3.338   2.437
  837SOL     OW 2528   0.351   3.663   2.715
  837SOL    HW1 2529   0.401   3.577   2.721
  837SOL    HW2 2530   0.416   3.740   2.712
  838SOL     OW 2531   1.795   2.928   2.735
  838SOL    HW1 2532   1.733   2.913   2.659
  838SOL    HW2 2533   1.743   2.939   2.820
  839SOL     OW 2534   1.227   3.412   3.368
  839SOL    HW1 2535   1.233   3.335   3.432
  839SOL    HW2 2536   1.175   3.386   3.288
  840SOL     OW 2537   0.321   2.805   2.104
  840SOL    HW1 2538   0.403   2.844   2.062
  840SOL    HW2 2539   0.294   2.723   2.055
  841SOL     OW 2540   1.458   2.597   2.590
  841SOL    HW1 2541   1.453   2.532   2.665
  841SOL    HW2 2542   1.538   2.656   2.603
  842SOL     OW 2543   0.461   3.128   3.589
  842SOL    HW1 2544   0.411   3.129   3.503
  842SOL    HW2 2545   0.398   3.110   3.665
  843SOL     OW 2546   1.111   3.638   2.099
  843SOL    HW1 2547   1.051   3.576   2.149
  843SOL    HW2 2548   1.142   3.594   2.014
  844SOL     OW 2549   0.202   2.147   3.360
  844SOL    HW1 2550   0.122   2.207   3.347
  844SOL    HW2 2551   0.192   2.098   3.446
  845SOL     OW 2552   1.632   3.239   1.943
  845SOL    HW1 2553   1.600   3.333   1.933
  845SOL    HW2 2554   1.556   3.176   1.931
  846SOL     OW 2555   0.464   3.605   2.185
  846SOL    HW1 2556   0.497   3.644   2.271
  846SOL    HW2 2557   0.540   3.598   2.120
  847SOL     OW 2558   1.400   1.969   2.288
  847SOL    HW1 2559   1.376   1.932   2.198
  847SOL    HW2 2560   1.499   1.985   2.292
  848SOL     OW 2561   0.249   3.647   3.103
  848SOL    HW1 2562   0.306   3.582   3.153
  848SOL    HW2 2563   0.233   3.614   3.010
  849SOL     OW 2564   0.940   3.560   2.766
  849SOL    HW1 2565   1.020   3.503   2.787
  849SOL    HW2 2566   0.891   3.520   2.689
  850SOL     OW 2567   0.382   2.562   2.342
  850SOL    HW1 2568   0.427   2.472   2.339
  850SOL    HW2 2569   0.288   2.551   2.375
  851SOL     OW 2570   1.547   2.084   3.591
  851SOL    HW1 2571   1.542   2.121   3.683
  851SOL    HW2 2572   1.475   2.015   3.579
  852SOL     OW 2573   0.614   1.984   1.979
  852SOL    HW1 2574   0.712   1.962   1.986
  852SOL    HW2 2575   0.583   1.967   1.886
  853SOL     OW 2576   0.781   2.126   3.611
  853SOL    HW1 2577   0.848   2.065   3.654
  853SOL    HW2 2578   0.708   2.145   3.676
  854SOL     OW 2579   0.888   3.376   3.057
  854SOL    HW1 2580   0.865   3.351   2.963
  854SOL    HW2 2581   0.949   3.307   3.096
  855SOL     OW 2582   1.351   2.452   3.295
  855SOL    HW1 2583   1.379   2.409   3.380
  855SOL    HW2 2584   1.376   2.548   3.296
  856SOL     OW 2585   0.803   3.264   2.786
  856SOL    HW1 2586   0.893   3.278   2.744
  856SOL    HW2 2587   0.732   3.266   2.715
  857SOL     OW 2588   0.922   2.365   2.761
  857SOL    HW1 2589   0.897   2.356   2.665
  857SOL    HW2 2590   0.970   2.283   2.792
  858SOL     OW 2591   0.539   1.926   2.374
  858SOL    HW1 2592   0.458   1.927   2.432
  858SOL    HW2 2593   0.542   2.009   2.319
  859SOL     OW 2594   1.434   3.050   1.903
  859SOL    HW1 2595   1.466   2.974   1.960
  859SOL    HW2 2596   1.342   3.077   1.933
  860SOL     OW 2597   0.297   1.897   2.033
  860SOL    HW1 2598   0.346   1.981   2.012
  860SOL    HW2 2599   0.359   1.832   2.078
  861SOL     OW 2600   0.935   2.098   2.342
  861SOL    HW1 2601   0.887   2.139   2.264
  861SOL    HW2 2602   1.034   2.096   2.323
  862SOL     OW 2603   1.076   2.545   3.326
  862SOL    HW1 2604   0.996   2.484   3.329
  862SOL    HW2 2605   1.157   2.492   3.302
  863SOL     OW 2606   1.227   3.432   2.655
  863SOL    HW1 2607   1.248   3.506   2.590
  863SOL    HW2 2608   1.295   3.432   2.728
  864SOL     OW 2609   0.459   3.014   2.603
  864SOL    HW1 2610   0.388   2.987   2.668
  864SOL    HW2 2611   0.433   2.986   2.510
  865SOL     OW 2612   1.271   3.659   2.453
  865SOL    HW1 2613   1.315   3.723   2.389
  865SOL    HW2 2614   1.221   3.711   2.523
  866SOL     OW 2615   1.032   2.411   1.878
  866SOL    HW1 2616   0.991   2.493   1.839
  866SOL    HW2 2617   1.096   2.437   1.951
  867SOL     OW 2618   0.078   2.418   3.248
  867SOL    HW1 2619   0.170   2.417   3.207
  867SOL    HW2 2620   0.072   2.492   3.315
  868SOL     OW 2621   0.561   2.084   3.009
  868SOL    HW1 2622   0.599   2.000   3.046
  868SOL    HW2 2623   0.473   2.103   3.053
  869SOL     OW 2624   0.866   2.316   2.504
  869SOL    HW1 2625   0.834   2.388   2.442
  869SOL    HW2 2626   0.890   2.235   2.451
  870SOL     OW 2627   1.017   1.901   2.615
  870SOL    HW1 2628   0.945   1.906   2.546
  870SOL    HW2 2629   0.993   1.832   2.684
  871SOL     OW 2630   1.429   3.035   2.729
  871SOL    HW1 2631   1.374   2.951   2.722
  871SOL    HW2 2632   1.455   3.064   2.637
  872SOL     OW 2633   1.466   2.452   2.854
  872SOL    HW1 2634   1.436   2.357   2.861
  872SOL    HW2 2635   1.539   2.468   2.920
  873SOL     OW 2636   1.857   2.695   2.239
  873SOL    HW1 2637   1.899   2.631   2.303
  873SOL    HW2 2638   1.819   2.644   2.161
  874SOL     OW 2639   0.488   3.247   2.036
  874SOL    HW1 2640   0.401   3.232   2.083
  874SOL    HW2 2641   0.471   3.273   1.941
  875SOL     OW 2642   1.664   3.142   2.519
  875SOL    HW1 2643   1.763   3.150   2.533
  875SOL    HW2 2644   1.619   3.226   2.550
  876SOL     OW 2645   1.390   2.437   1.940
  876SOL    HW1 2646   1.336   2.416   2.021
  876SOL    HW2 2647   1.481   2.396   1.949
  877SOL     OW 2648   0.527   2.118   2.190
  877SOL    HW1 2649   0.554   2.059   2.115
  877SOL    HW2 2650   0.527   2.213   2.159
  878SOL     OW 2651   1.754   3.085   3.450
  878SOL    HW1 2652   1.845   3.046   3.437
  878SOL    HW2 2653   1.762   3.181   3.474
  879SOL     OW 2654   1.064   3.209   3.202
  879SOL    HW1 2655   0.984   3.186   3.257
  879SOL    HW2 2656   1.147   3.183   3.251
  880SOL     OW 2657   1.592   3.491   3.487
  880SOL    HW1 2658   1.619   3.525   3.397
  880SOL    HW2 2659   1.671   3.453   3.533
  881SOL     OW 2660   1.111   3.057   2.962
  881SOL    HW1 2661   1.071   3.101   3.043
  881SOL    HW2 2662   1.070   3.094   2.879
  882SOL     OW 2663   1.638   2.961   2.941
  882SOL    HW1 2664   1.643   3.042   3.000
  882SOL    HW2 2665   1.552   2.963   2.890
  883SOL     OW 2666   0.915   1.951   3.264
  883SOL    HW1 2667   0.940   1.931   3.169
  883SOL    HW2 2668   0.987   2.007   3.306
  884SOL     OW 2669   0.980   2.978   3.581
  884SOL    HW1 2670   0.881   2.984   3.591
  884SOL    HW2 2671   1.003   2.898   3.525
  885SOL     OW 2672   0.705   2.912   2.230
  885SOL    HW1 2673   0.691   2.919   2.329
  885SOL    HW2 2674   0.789   2.861   2.212
  886SOL     OW 2675   0.410   2.675   3.113
  886SOL    HW1 2676   0.496   2.687   3.163
  886SOL    HW2 2677   0.368   2.588   3.140
  887SOL     OW 2678   1.274   2.248   3.124
  887SOL    HW1 2679   1.295   2.322   3.188
  887SOL    HW2 2680   1.185   2.265   3.081
  888SOL     OW 2681   0.064   3.426   3.193
  888SOL    HW1 2682   0.018   3.508   3.159
  888SOL    HW2 2683   0.162   3.445   3.202
  889SOL     OW 2684   0.367   2.962   2.363
  889SOL    HW1 2685   0.360   3.045   2.307
  889SOL    HW2 2686   0.371   2.882   2.303
  890SOL     OW 2687   0.566   2.399   2.727
  890SOL    HW1 2688   0.578   2.465   2.653
  890SOL    HW2 2689   0.612   2.433   2.810
  891SOL     OW 2690   1.252   3.210   2.250
  891SOL    HW1 2691   1.302   3.287   2.290
  891SOL    HW2 2692   1.157   3.212   2.282
  892SOL     OW 2693   1.272   3.307   3.004
  892SOL    HW1 2694   1.319   3.320   3.091
  892SOL    HW2 2695   1.206   3.233   3.013
  893SOL     OW 2696   1.582   2.501   2.334
  893SOL    HW1 2697   1.551   2.562   2.407
  893SOL    HW2 2698   1.632   2.553   2.265
  894SOL     OW 2699   0.354   3.372   3.191
  894SOL    HW1 2700   0.333   3.328   3.104
  894SOL    HW2 2701   0.451   3.398   3.194
  895SOL     OW 2702   0.402   2.613   3.460
  895SOL    HW1 2703   0.470   2.668   3.413
  895SOL    HW2 2704   0.442   2.525   3.487
  896SOL     OW 2705   1.587   2.641   3.532
  896SOL    HW1 2706   1.495   2.679   3.527
  896SOL    HW2 2707   1.647   2.688   3.467
  897SOL     OW 2708   1.013   1.967   3.632
  897SOL    HW1 2709   1.019   2.052   3.580
  897SOL    HW2 2710   1.045   1.891   3.575
  898SOL     OW 2711   0.504   1.912   3.602
  898SOL    HW1 2712   0.462   1.855   3.532
  898SOL    HW2 2713   0.438   1.981   3.634
  899SOL     OW 2714   0.573   2.732   2.891
  899SOL    HW1 2715   0.617   2.821   2.882
  899SOL    HW2 2716   0.510   2.732   2.968
  900SOL     OW 2717   1.360   2.724   2.907
  900SOL    HW1 2718   1.285   2.724   2.841
  900SOL    HW2 2719   1.397   2.632   2.916
  901SOL     OW 2720   1.209   2.387   2.137
  901SOL    HW1 2721   1.222   2.303   2.191
  901SOL    HW2 2722   1.180   2.461   2.197
  902SOL     OW 2723   0.307   2.075   3.093
  902SOL    HW1 2724   0.284   2.112   3.183
  902SOL    HW2 2725   0.277   1.980   3.087
  903SOL     OW 2726   0.037   3.172   3.144
  903SOL    HW1 2727   0.090   3.123   3.212
  903SOL    HW2 2728   0.059   3.270   3.149
  904SOL     OW 2729   0.732   2.496   2.926
  904SOL    HW1 2730   0.791   2.470   2.850
  904SOL    HW2 2731   0.704   2.592   2.915
  905SOL     OW 2732   1.728   2.797   3.716
  905SOL    HW1 2733   1.682   2.790   3.627
  905SOL    HW2 2734   1.666   2.841   3.782
  906SOL     OW 2735   0.307   1.925   2.480
  906SOL    HW1 2736   0.296   2.019   2.513
  906SOL    HW2 2737   0.302   1.862   2.557
  907SOL     OW 2738   1.622   2.229   2.236
  907SOL    HW1 2739   1.624   2.153   2.300
  907SOL    HW2 2740   1.574   2.306   2.276
  908SOL     OW 2741   1.023   2.628   2.828
  908SOL    HW1 2742   1.038   2.649   2.924
  908SOL    HW2 2743   0.993   2.533   2.819
  909SOL     OW 2744   0.980   3.435   3.562
  909SOL    HW1 2745   0.960   3.479   3.474
  909SOL    HW2 2746   1.019   3.344   3.546
  910SOL     OW 2747   1.859   3.380   3.467
  910SOL    HW1 2748   1.873   3.407   3.372
  910SOL    HW2 2749   1.942   3.402   3.520
  911SOL     OW 2750   0.350   2.760   3.666
  911SOL    HW1 2751   0.426   2.804   3.714
  911SOL    HW2 2752   0.385   2.713   3.584
  912SOL     OW 2753   1.540   2.136   1.987
  912SOL    HW1 2754   1.479   2.061   2.010
  912SOL    HW2 2755   1.562   2.188   2.070
  913SOL     OW 2756   1.303   2.700   1.904
  913SOL    HW1 2757   1.337   2.607   1.919
  913SOL    HW2 2758   1.321   2.727   1.809
  914SOL     OW 2759   1.068   3.195   2.711
  914SOL    HW1 2760   1.075   3.111   2.656
  914SOL    HW2 2761   1.130   3.264   2.675
  915SOL     OW 2762   0.319   2.672   2.811
  915SOL    HW1 2763   0.412   2.708   2.816
  915SOL    HW2 2764   0.313   2.587   2.863
  916SOL     OW 2765   0.339   2.371   2.868
  916SOL    HW1 2766   0.287   2.288   2.851
  916SOL    HW2 2767   0.416   2.376   2.804
  917SOL     OW 2768   1.138   2.242   3.540
  917SOL    HW1 2769   1.093   2.305   3.604
  917SOL    HW2 2770   1.231   2.273   3.523
  918SOL     OW 2771   1.160   2.069   3.339
  918SOL    HW1 2772   1.160   2.133   3.416
  918SOL    HW2 2773   1.188   2.117   3.256
  919SOL     OW 2774   0.008   3.188   2.062
  919SOL    HW1 2775  -0.085   3.209   2.031
  919SOL    HW2 2776   0.018   3.089   2.075
  920SOL     OW 2777   0.088   3.663   2.789
  920SOL    HW1 2778   0.046   3.577   2.762
  920SOL    HW2 2779   0.182   3.666   2.755
  921SOL     OW 2780   0.504   3.430   2.772
  921SOL    HW1 2781   0.570   3.504   2.781
  921SOL    HW2 2782   0.548   3.351   2.730
  922SOL     OW 2783   1.002   2.658   3.100
  922SOL    HW1 2784   1.043   2.626   3.186
  922SOL    HW2 2785   0.906   2.631   3.097
  923SOL     OW 2786   0.040   2.406   2.976
  923SOL    HW1 2787   0.125   2.373   2.935
  923SOL    HW2 2788   0.053   2.421   3.074
  924SOL     OW 2789   0.189   2.382   3.584
  924SOL    HW1 2790   0.248   2.342   3.514
  924SOL    HW2 2791   0.131   2.453   3.543
  925SOL     OW 2792   1.369   2.812   3.522
  925SOL    HW1 2793   1.408   2.901   3.542
  925SOL    HW2 2794   1.379   2.792   3.425
  926SOL     OW 2795   0.815   2.434   2.187
  926SOL    HW1 2796   0.822   2.345   2.141
  926SOL    HW2 2797   0.721   2.468   2.179
  927SOL     OW 2798   1.657   2.466   3.068
  927SOL    HW1 2799   1.619   2.397   3.130
  927SOL    HW2 2800   1.739   2.430   3.024
  928SOL     OW 2801   0.252   3.426   3.606
  928SOL    HW1 2802   0.222   3.483   3.682
  928SOL    HW2 2803   0.245   3.329   3.632
  929SOL     OW 2804   0.671   2.326   3.131
  929SOL    HW1 2805   0.637   2.237   3.101
  929SOL    HW2 2806   0.697   2.380   3.051
  930SOL     OW 2807   0.930   3.540   3.327
  930SOL    HW1 2808   0.906   3.522   3.232
  930SOL    HW2 2809   0.960   3.634   3.337
  931SOL     OW 2810   0.473   2.362   2.053
  931SOL    HW1 2811   0.534   2.442   2.057
  931SOL    HW2 2812   0.378   2.393   2.060
  932SOL     OW 2813   0.159   2.999   3.328
  932SOL    HW1 2814   0.181   2.938   3.404
  932SOL    HW2 2815   0.169   2.950   3.242
  933SOL     OW 2816   1.347   2.921   3.096
  933SOL    HW1 2817   1.371   2.858   3.022
  933SOL    HW2 2818   1.257   2.961   3.078
  934SOL     OW 2819   1.302   2.717   2.171
  934SOL    HW1 2820   1.216   2.686   2.213
  934SOL    HW2 2821   1.298   2.703   2.072
  935SOL     OW 2822   1.759   3.609   3.016
  935SOL    HW1 2823   1.820   3.639   2.943
  935SOL    HW2 2824   1.721   3.520   2.994
  936SOL     OW 2825   1.252   3.593   2.990
  936SOL    HW1 2826   1.336   3.598   2.936
  936SOL    HW2 2827   1.229   3.497   3.008
  937SOL     OW 2828   0.083   3.120   2.884
  937SOL    HW1 2829   0.078   3.119   2.984
  937SOL    HW2 2830   0.000   3.079   2.846
  938SOL     OW 2831   0.688   3.524   3.578
  938SOL    HW1 2832   0.632   3.605   3.587
  938SOL    HW2 2833   0.740   3.528   3.492
  939SOL     OW 2834   1.726   1.997   2.385
  939SOL    HW1 2835   1.799   1.980   2.318
  939SOL    HW2 2836   1.695   1.910   2.423
  940SOL     OW 2837   1.388   3.435   2.339
  940SOL    HW1 2838   1.455   3.447   2.265
  940SOL    HW2 2839   1.348   3.524   2.362
  941SOL     OW 2840   0.130   3.656   3.713
  941SOL    HW1 2841   0.089   3.582   3.766
  941SOL    HW2 2842   0.194   3.707   3.771
  942SOL     OW 2843   1.280   2.789   2.534
  942SOL    HW1 2844   1.340   2.708   2.536
  942SOL    HW2 2845   1.320   2.858   2.474
  943SOL     OW 2846   0.830   3.135   3.284
  943SOL    HW1 2847   0.825   3.168   3.379
  943SOL    HW2 2848   0.744   3.154   3.238
  944SOL     OW 2849   0.672   3.478   2.016
  944SOL    HW1 2850   0.681   3.488   1.917
  944SOL    HW2 2851   0.632   3.389   2.037
  945SOL     OW 2852   1.650   3.582   3.256
  945SOL    HW1 2853   1.703   3.592   3.172
  945SOL    HW2 2854   1.623   3.672   3.290
  946SOL     OW 2855   1.841   2.037   2.825
  946SOL    HW1 2856   1.880   1.952   2.789
  946SOL    HW2 2857   1.743   2.039   2.806
  947SOL     OW 2858   0.263   2.188   2.582
  947SOL    HW1 2859   0.184   2.239   2.548
  947SOL    HW2 2860   0.254   2.173   2.680
  948SOL     OW 2861   1.194   3.474   1.893
  948SOL    HW1 2862   1.200   3.381   1.930
  948SOL    HW2 2863   1.135   3.474   1.813
  949SOL     OW 2864   0.822   2.864   3.234
  949SOL    HW1 2865   0.862   2.863   3.142
  949SOL    HW2 2866   0.832   2.956   3.274
  950SOL     OW 2867   0.916   2.772   2.153
  950SOL    HW1 2868   0.979   2.810   2.085
  950SOL    HW2 2869   0.956   2.689   2.192
  951SOL     OW 2870   1.504   3.469   1.906
  951SOL    HW1 2871   1.412   3.506   1.913
  951SOL    HW2 2872   1.542   3.489   1.816
  952SOL     OW 2873   0.372   3.150   3.352
  952SOL    HW1 2874   0.359   3.243   3.318
  952SOL    HW2 2875   0.288   3.098   3.339
  953SOL     OW 2876   1.614   3.154   3.151
  953SOL    HW1 2877   1.674   3.157   3.231
  953SOL    HW2 2878   1.539   3.218   3.164
  954SOL     OW 2879   1.039   2.960   2.558
  954SOL    HW1 2880   0.969   2.913   2.612
  954SOL    HW2 2881   1.098   2.892   2.515
  955SOL     OW 2882   1.014   2.098   2.833
  955SOL    HW1 2883   1.006   2.062   2.740
  955SOL    HW2 2884   1.012   2.022   2.898
  956SOL     OW 2885   0.590   3.349   2.353
  956SOL    HW1 2886   0.632   3.291   2.283
  956SOL    HW2 2887   0.546   3.428   2.309
  957SOL     OW 2888   1.709   2.247   3.243
  957SOL    HW1 2889   1.782   2.316   3.247
  957SOL    HW2 2890   1.737   2.172   3.184
  958SOL     OW 2891   0.255   3.210   2.152
  958SOL    HW1 2892   0.159   3.211   2.125
  958SOL    HW2 2893   0.267   3.263   2.236
  959SOL     OW 2894   0.105   2.875   3.588
  959SOL    HW1 2895   0.028   2.842   3.642
  959SOL    HW2 2896   0.190   2.845   3.630
  960SOL     OW 2897   0.672   2.065   3.351
  960SOL    HW1 2898   0.762   2.049   3.311
  960SOL    HW2 2899   0.680   2.070   3.450
  961SOL     OW 2900   0.075   2.207   1.895
  961SOL    HW1 2901  -0.017   2.179   1.866
  961SOL    HW2 2902   0.106   2.284   1.839
  962SOL     OW 2903   1.440   2.718   3.260
  962SOL    HW1 2904   1.383   2.770   3.197
  962SOL    HW2 2905   1.536   2.730   3.236
  963SOL     OW 2906   0.072   2.028   2.180
  963SOL    HW1 2907   0.055   2.111   2.126
  963SOL    HW2 2908   0.162   1.991   2.158
  964SOL     OW 2909   1.183   3.197   1.981
  964SOL    HW1 2910   1.084   3.186   1.983
  964SOL    HW2 2911   1.217   3.212   2.074
  965SOL     OW 2912   0.613   2.704   3.293
  965SOL    HW1 2913   0.669   2.785   3.276
  965SOL    HW2 2914   0.672   2.624   3.296
  966SOL     OW 2915   1.493   3.629   2.821
  966SOL    HW1 2916   1.526   3.693   2.752
  966SOL    HW2 2917   1.559   3.623   2.896
  967SOL     OW 2918   0.716   2.427   3.570
  967SOL    HW1 2919   0.735   2.492   3.644
  967SOL    HW2 2920   0.776   2.347   3.579
  968SOL     OW 2921   1.450   3.082   3.495
  968SOL    HW1 2922   1.441   3.072   3.594
  968SOL    HW2 2923   1.546   3.075   3.469
  969SOL     OW 2924   0.390   3.603   3.422
  969SOL    HW1 2925   0.299   3.644   3.420
  969SOL    HW2 2926   0.383   3.509   3.454
  970SOL     OW 2927   1.674   2.745   3.116
  970SOL    HW1 2928   1.647   2.656   3.079
  970SOL    HW2 2929   1.675   2.813   3.043
  971SOL     OW 2930   1.225   2.187   2.311
  971SOL    HW1 2931   1.290   2.113   2.300
  971SOL    HW2 2932   1.245   2.237   2.395
  972SOL     OW 2933   0.594   2.607   2.514
  972SOL    HW1 2934   0.644   2.692   2.495
  972SOL    HW2 2935   0.506   2.609   2.466
  973SOL     OW 2936   1.777   2.204   3.504
  973SOL    HW1 2937   1.760   2.235   3.410
  973SOL    HW2 2938   1.693   2.167   3.542
  974SOL     OW 2939   1.730   2.796   3.379
  974SOL    HW1 2940   1.768   2.887   3.394
  974SOL    HW2 2941   1.722   2.779   3.280
  975SOL     OW 2942   0.859   3.236   1.878
  975SOL    HW1 2943   0.813   3.251   1.966
  975SOL    HW2 2944   0.903   3.321   1.848
  976SOL     OW 2945   0.661   3.652   2.815
  976SOL    HW1 2946   0.615   3.740   2.802
  976SOL    HW2 2947   0.760   3.664   2.808
  977SOL     OW 2948   0.859   2.818   2.723
  977SOL    HW1 2949   0.913   2.749   2.771
  977SOL    HW2 2950   0.827   2.887   2.789
  978SOL     OW 2951   1.083   2.846   1.949
  978SOL    HW1 2952   1.060   2.899   1.867
  978SOL    HW2 2953   1.164   2.790   1.930
  979SOL     OW 2954   1.861   3.431   2.713
  979SOL    HW1 2955   1.790   3.419   2.643
  979SOL    HW2 2956   1.862   3.352   2.773
  980SOL     OW 2957   0.221   3.176   3.706
  980SOL    HW1 2958   0.156   3.103   3.685
  980SOL    HW2 2959   0.225   3.190   3.804
  981SOL     OW 2960   0.079   3.102   2.515
  981SOL    HW1 2961   0.078   3.055   2.603
  981SOL    HW2 2962   0.161   3.074   2.464
  982SOL     OW 2963   0.672   3.253   3.486
  982SOL    HW1 2964   0.594   3.203   3.524
  982SOL    HW2 2965   0.669   3.348   3.517
  983SOL     OW 2966   1.824   2.054   3.089
  983SOL    HW1 2967   1.820   1.964   3.133
  983SOL    HW2 2968   1.827   2.043   2.990
  984SOL     OW 2969   0.428   2.286   2.382
  984SOL    HW1 2970   0.458   2.214   2.320
  984SOL    HW2 2971   0.389   2.246   2.465
  985SOL     OW 2972   1.705   3.349   2.966
  985SOL    HW1 2973   1.612   3.324   2.939
  985SOL    HW2 2974   1.731   3.299   3.048
  986SOL     OW 2975   0.317   2.409   3.142
  986SOL    HW1 2976   0.355   2.350   3.214
  986SOL    HW2 2977   0.357   2.383   3.054
  987SOL     OW 2978   0.812   3.448   2.549
  987SOL    HW1 2979   0.844   3.458   2.455
  987SOL    HW2 2980   0.733   3.386   2.551
  988SOL     OW 2981   1.424   2.076   2.974
  988SOL    HW1 2982   1.476   2.011   3.029
  988SOL    HW2 2983   1.375   2.139   3.035
  989SOL     OW 2984   1.001   1.896   3.016
  989SOL    HW1 2985   0.938   1.824   2.985
  989SOL    HW2 2986   1.094   1.860   3.016
  990SOL     OW 2987   0.770   3.192   2.163
  990SOL    HW1 2988   0.724   3.105   2.180
  990SOL    HW2 2989   0.861   3.189   2.204
  991SOL     OW 2990   0.618   3.429   3.146
  991SOL    HW1 2991   0.613   3.511   3.203
  991SOL    HW2 2992   0.707   3.426   3.101
  992SOL     OW 2993   1.352   1.914   2.030
  992SOL    HW1 2994   1.387   1.873   1.946
  992SOL    HW2 2995   1.262   1.876   2.050
  993SOL     OW 2996   1.300   2.315   2.553
  993SOL    HW1 2997   1.241   2.395   2.557
  993SOL    HW2 2998   1.315   2.280   2.646
  994SOL     OW 2999   1.593   2.083   2.744
  994SOL    HW1 3000   1.509   2.082   2.798
  994SOL    HW2 3001   1.595   2.166   2.688
  995SOL     OW 3002   0.039   2.939   2.162
  995SOL    HW1 3003   0.138   2.928   2.153
  995SOL    HW2 3004  -0.001   2.853   2.194
  996SOL     OW 3005   0.875   3.508   2.199
  996SOL    HW1 3006   0.798   3.473   2.145
  996SOL    HW2 3007   0.843   3.579   2.261
  997SOL     OW 3008   0.230   2.490   3.837
  997SOL    HW1 3009   0.137   2.488   3.874
  997SOL    HW2 3010   0.231   2.451   3.745
  998SOL     OW 3011   0.225   2.137   4.720
  998SOL    HW1 3012   0.260   2.120   4.812
  998SOL    HW2 3013   0.137   2.092   4.708
  999SOL     OW 3014   0.019   2.230   4.371
  999SOL    HW1 3015  -0.063   2.273   4.410
  999SOL    HW2 3016  -0.009   2.157   4.308
 1000SOL     OW 3017   0.569   3.137   4.889
 1000SOL    HW1 3018   0.476   3.130   4.852
 1000SOL    HW2 3019   0.580   3.226   4.933
 1001SOL     OW 3020   1.555   3.373   4.427
 1001SOL    HW1 3021   1.498   3.357   4.508
 1001SOL    HW2 3022   1.496   3.383   4.347
 1002SOL     OW 3023   1.135   2.565   4.441
 1002SOL    HW1 3024   1.192   2.643   4.416
 1002SOL    HW2 3025   1.075   2.591   4.517
 1003SOL     OW 3026   1.755   2.469   3.955
 1003SOL    HW1 3027   1.743   2.456   3.856
 1003SOL    HW2 3028   1.725   2.388   4.004
 1004SOL     OW 3029   0.768   3.006   4.747
 1004SOL    HW1 3030   0.690   3.023   4.807
 1004SOL    HW2 3031   0.802   3.093   4.711
 1005SOL     OW 3032   0.685   2.874   4.389
 1005SOL    HW1 3033   0.754   2.858   4.459
 1005SOL    HW2 3034   0.612   2.931   4.427
 1006SOL     OW 3035   0.335   3.297   4.785
 1006SOL    HW1 3036   0.257   3.266   4.732
 1006SOL    HW2 3037   0.393   3.355   4.728
 1007SOL     OW 3038   1.603   2.309   4.461
 1007SOL    HW1 3039   1.529   2.355   4.411
 1007SOL    HW2 3040   1.654   2.377   4.514
 1008SOL     OW 3041   0.231   3.575   4.207
 1008SOL    HW1 3042   0.265   3.652   4.261
 1008SOL    HW2 3043   0.275   3.575   4.117
 1009SOL     OW 3044   0.230   3.296   4.262
 1009SOL    HW1 3045   0.204   3.392   4.262
 1009SOL    HW2 3046   0.159   3.242   4.307
 1010SOL     OW 3047   0.240   2.953   4.610
 1010SOL    HW1 3048   0.254   2.869   4.662
 1010SOL    HW2 3049   0.185   3.017   4.665
 1011SOL     OW 3050   0.606   2.826   3.847
 1011SOL    HW1 3051   0.613   2.910   3.793
 1011SOL    HW2 3052   0.652   2.839   3.935
 1012SOL     OW 3053   0.122   2.505   4.287
 1012SOL    HW1 3054   0.077   2.417   4.304
 1012SOL    HW2 3055   0.121   2.559   4.371
 1013SOL     OW 3056   1.842   3.629   4.083
 1013SOL    HW1 3057   1.896   3.600   4.163
 1013SOL    HW2 3058   1.872   3.719   4.054
 1014SOL     OW 3059   0.027   3.458   3.841
 1014SOL    HW1 3060   0.008   3.362   3.862
 1014SOL    HW2 3061  -0.006   3.516   3.916
 1015SOL     OW 3062   1.689   2.784   4.336
 1015SOL    HW1 3063   1.784   2.755   4.344
 1015SOL    HW2 3064   1.681   2.849   4.261
 1016SOL     OW 3065   1.641   2.970   4.156
 1016SOL    HW1 3066   1.727   2.972   4.104
 1016SOL    HW2 3067   1.655   3.017   4.244
 1017SOL     OW 3068   0.613   3.227   4.450
 1017SOL    HW1 3069   0.564   3.140   4.459
 1017SOL    HW2 3070   0.590   3.270   4.363
 1018SOL     OW 3071   0.809   1.866   4.226
 1018SOL    HW1 3072   0.849   1.957   4.217
 1018SOL    HW2 3073   0.709   1.874   4.232
 1019SOL     OW 3074   0.197   2.838   4.988
 1019SOL    HW1 3075   0.286   2.793   4.974
 1019SOL    HW2 3076   0.124   2.773   4.969
 1020SOL     OW 3077   1.525   2.861   3.914
 1020SOL    HW1 3078   1.462   2.785   3.927
 1020SOL    HW2 3079   1.573   2.879   4.000
 1021SOL     OW 3080   1.466   3.279   4.677
 1021SOL    HW1 3081   1.407   3.285   4.757
 1021SOL    HW2 3082   1.451   3.191   4.631
 1022SOL     OW 3083   1.667   3.576   4.296
 1022SOL    HW1 3084   1.626   3.553   4.208
 1022SOL    HW2 3085   1.649   3.502   4.361
 1023SOL     OW 3086   0.598   2.591   3.994
 1023SOL    HW1 3087   0.622   2.660   3.926
 1023SOL    HW2 3088   0.520   2.624   4.048
 1024SOL     OW 3089   1.281   2.207   4.668
 1024SOL    HW1 3090   1.195   2.157   4.655
 1024SOL    HW2 3091   1.343   2.153   4.724
 1025SOL     OW 3092   1.576   3.524   4.031
 1025SOL    HW1 3093   1.665   3.570   4.034
 1025SOL    HW2 3094   1.555   3.500   3.936
 1026SOL     OW 3095   1.041   2.563   4.153
 1026SOL    HW1 3096   1.067   2.559   4.249
 1026SOL    HW2 3097   0.956   2.512   4.139
 1027SOL     OW 3098   0.076   2.673   4.513
 1027SOL    HW1 3099   0.175   2.661   4.522
 1027SOL    HW2 3100   0.052   2.768   4.534
 1028SOL     OW 3101   0.865   2.210   3.919
 1028SOL    HW1 3102   0.924   2.273   3.870
 1028SOL    HW2 3103   0.884   2.116   3.890
 1029SOL     OW 3104   1.362   3.006   4.269
 1029SOL    HW1 3105   1.445   2.977   4.221
 1029SOL    HW2 3106   1.313   3.073   4.213
 1030SOL     OW 3107   0.550   2.058   4.609
 1030SOL    HW1 3108   0.545   2.053   4.709
 1030SOL    HW2 3109   0.552   2.154   4.580
 1031SOL     OW 3110   1.008   3.318   4.201
 1031SOL    HW1 3111   0.962   3.390   4.149
 1031SOL    HW2 3112   1.004   3.338   4.299
 1032SOL     OW 3113   0.351   3.663   4.577
 1032SOL    HW1 3114   0.401   3.577   4.583
 1032SOL    HW2 3115   0.416   3.740   4.574
 1033SOL     OW 3116   1.795   2.928   4.597
 1033SOL    HW1 3117   1.733   2.913   4.521
 1033SOL    HW2 3118   1.743   2.939   4.682
 1034SOL     OW 3119   0.321   2.805   3.966
 1034SOL    HW1 3120   0.403   2.844   3.924
 1034SOL    HW2 3121   0.294   2.723   3.917
 1035SOL     OW 3122   1.458   2.597   4.452
 1035SOL    HW1 3123   1.453   2.532   4.527
 1035SOL    HW2 3124   1.538   2.656   4.465
 1036SOL     OW 3125   1.111   3.638   3.961
 1036SOL    HW1 3126   1.051   3.576   4.011
 1036SOL    HW2 3127   1.142   3.594   3.876
 1037SOL     OW 3128   1.632   3.239   3.805
 1037SOL    HW1 3129   1.600   3.333   3.795
 1037SOL    HW2 3130   1.556   3.176   3.793
 1038SOL     OW 3131   0.464   3.605   4.047
 1038SOL    HW1 3132   0.497   3.644   4.133
 1038SOL    HW2 3133   0.540   3.598   3.982
 1039SOL     OW 3134   1.400   1.969   4.150
 1039SOL    HW1 3135   1.376   1.932   4.060
 1039SOL    HW2 3136   1.499   1.985   4.154
 1040SOL     OW 3137   0.249   3.647   4.965
 1040SOL    HW1 3138   0.306   3.582   5.015
 1040SOL    HW2 3139   0.233   3.614   4.872
 1041SOL     OW 3140   0.940   3.560   4.628
 1041SOL    HW1 3141   1.020   3.503   4.649
 1041SOL    HW2 3142   0.891   3.520   4.551
 1042SOL     OW 3143   0.382   2.562   4.204
 1042SOL    HW1 3144   0.427   2.472   4.201
 1042SOL    HW2 3145   0.288   2.551   4.237
 1043SOL     OW 3146   0.614   1.984   3.841
 1043SOL    HW1 3147   0.712   1.962   3.848
 1043SOL    HW2 3148   0.583   1.967   3.748
 1044SOL     OW 3149   0.803   3.264   4.648
 1044SOL    HW1 3150   0.893   3.278   4.606
 1044SOL    HW2 3151   0.732   3.266   4.577
 1045SOL     OW 3152   0.922   2.365   4.623
 1045SOL    HW1 3153   0.897   2.356   4.527
 1045SOL    HW2 3154   0.970   2.283   4.654
 1046SOL     OW 3155   0.539   1.926   4.236
 1046SOL    HW1 3156   0.458   1.927   4.294
 1046SOL    HW2 3157   0.542   2.009   4.181
 1047SOL     OW 3158   1.434   3.050   3.765
 1047SOL    HW1 3159   1.466   2.974   3.822
 1047SOL    HW2 3160   1.342   3.077   3.795
 1048SOL     OW 3161   0.297   1.897   3.895
 1048SOL    HW1 3162   0.346   1.981   3.874
 1048SOL    HW2 3163   0.359   1.832   3.940
 1049SOL     OW 3164   0.935   2.098   4.204
 1049SOL    HW1 3165   0.887   2.139   4.126
 1049SOL    HW2 3166   1.034   2.096   4.185
 1050SOL     OW 3167   1.227   3.432   4.517
 1050SOL    HW1 3168   1.248   3.506   4.452
 1050SOL    HW2 3169   1.295   3.432   4.590
 1051SOL     OW 3170   0.459   3.014   4.465
 1051SOL    HW1 3171   0.388   2.987   4.530
 1051SOL    HW2 3172   0.433   2.986   4.372
 1052SOL     OW 3173   1.271   3.659   4.315
 1052SOL    HW1 3174   1.315   3.723   4.251
 1052SOL    HW2 3175   1.221   3.711   4.385
 1053SOL     OW 3176   1.032   2.411   3.740
 1053SOL    HW1 3177   0.991   2.493   3.701
 1053SOL    HW2 3178   1.096   2.437   3.813
 1054SOL     OW 3179   0.866   2.316   4.366
 1054SOL    HW1 3180   0.834   2.388   4.304
 1054SOL    HW2 3181   0.890   2.235   4.313
 1055SOL     OW 3182   1.017   1.901   4.477
 1055SOL    HW1 3183   0.945   1.906   4.408
 1055SOL    HW2 3184   0.993   1.832   4.546
 1056SOL     OW 3185   1.429   3.035   4.591
 1056SOL    HW1 3186   1.374   2.951   4.584
 1056SOL    HW2 3187   1.455   3.064   4.499
 1057SOL     OW 3188   1.466   2.452   4.716
 1057SOL    HW1 3189   1.436   2.357   4.723
 1057SOL    HW2 3190   1.539   2.468   4.782
 1058SOL     OW 3191   1.857   2.695   4.101
 1058SOL    HW1 3192   1.899   2.631   4.165
 1058SOL    HW2 3193   1.819   2.644   4.023
 1059SOL     OW 3194   0.488   3.247   3.898
 1059SOL    HW1 3195   0.401   3.232   3.945
 1059SOL    HW2 3196   0.471   3.273   3.803
 1060SOL     OW 3197   1.664   3.142   4.381
 1060SOL    HW1 3198   1.763   3.150   4.395
 1060SOL    HW2 3199   1.619   3.226   4.412
 1061SOL     OW 3200   1.390   2.437   3.802
 1061SOL    HW1 3201   1.336   2.416   3.883
 1061SOL    HW2 3202   1.481   2.396   3.811
 1062SOL     OW 3203   0.527   2.118   4.052
 1062SOL    HW1 3204   0.554   2.059   3.977
 1062SOL    HW2 3205   0.527   2.213   4.021
 1063SOL     OW 3206   1.111   3.057   4.824
 1063SOL    HW1 3207   1.071   3.101   4.905
 1063SOL    HW2 3208   1.070   3.094   4.741
 1064SOL     OW 3209   1.638   2.961   4.803
 1064SOL    HW1 3210   1.643   3.042   4.862
 1064SOL    HW2 3211   1.552   2.963   4.752
 1065SOL     OW 3212   0.705   2.912   4.092
 1065SOL    HW1 3213   0.691   2.919   4.191
 1065SOL    HW2 3214   0.789   2.861   4.074
 1066SOL     OW 3215   0.410   2.675   4.975
 1066SOL    HW1 3216   0.496   2.687   5.025
 1066SOL    HW2 3217   0.368   2.588   5.002
 1067SOL     OW 3218   0.367   2.962   4.225
 1067SOL    HW1 3219   0.360   3.045   4.169
 1067SOL    HW2 3220   0.371   2.882   4.165
 1068SOL     OW 3221   0.566   2.399   4.589
 1068SOL    HW1 3222   0.578   2.465   4.515
 1068SOL    HW2 3223   0.612   2.433   4.672
 1069SOL     OW 3224   1.252   3.210   4.112
 1069SOL    HW1 3225   1.302   3.287   4.152
 1069SOL    HW2 3226   1.157   3.212   4.144
 1070SOL     OW 3227   1.272   3.307   4.866
 1070SOL    HW1 3228   1.319   3.320   4.953
 1070SOL    HW2 3229   1.206   3.233   4.875
 1071SOL     OW 3230   1.582   2.501   4.196
 1071SOL    HW1 3231   1.551   2.562   4.269
 1071SOL    HW2 3232   1.632   2.553   4.127
 1072SOL     OW 3233   0.573   2.732   4.753
 1072SOL    HW1 3234   0.617   2.821   4.744
 1072SOL    HW2 3235   0.510   2.732   4.830
 1073SOL     OW 3236   1.360   2.724   4.769
 1073SOL    HW1 3237   1.285   2.724   4.703
 1073SOL    HW2 3238   1.397   2.632   4.778
 1074SOL     OW 3239   1.209   2.387   3.999
 1074SOL    HW1 3240   1.222   2.303   4.053
 1074SOL    HW2 3241   1.180   2.461   4.059
 1075SOL     OW 3242   0.307   2.075   4.955
 1075SOL    HW1 3243   0.284   2.112   5.045
 1075SOL    HW2 3244   0.277   1.980   4.949
 1076SOL     OW 3245   0.037   3.172   5.006
 1076SOL    HW1 3246   0.090   3.123   5.074
 1076SOL    HW2 3247   0.059   3.270   5.011
 1077SOL     OW 3248   0.732   2.496   4.788
 1077SOL    HW1 3249   0.791   2.470   4.712
 1077SOL    HW2 3250   0.704   2.592   4.777
 1078SOL     OW 3251   0.307   1.925   4.342
 1078SOL    HW1 3252   0.296   2.019   4.375
 1078SOL    HW2 3253   0.302   1.862   4.419
 1079SOL     OW 3254   1.622   2.229   4.098
 1079SOL    HW1 3255   1.624   2.153   4.162
 1079SOL    HW2 3256   1.574   2.306   4.138
 1080SOL     OW 3257   1.023   2.628   4.690
 1080SOL    HW1 3258   1.038   2.649   4.786
 1080SOL    HW2 3259   0.993   2.533   4.681
 1081SOL     OW 3260   1.540   2.136   3.849
 1081SOL    HW1 3261   1.479   2.061   3.872
 1081SOL    HW2 3262   1.562   2.188   3.932
 1082SOL     OW 3263   1.303   2.700   3.766
 1082SOL    HW1 3264   1.337   2.607   3.781
 1082SOL    HW2 3265   1.321   2.727   3.671
 1083SOL     OW 3266   1.068   3.195   4.573
 1083SOL    HW1 3267   1.075   3.111   4.518
 1083SOL    HW2 3268   1.130   3.264   4.537
 1084SOL     OW 3269   0.319   2.672   4.673
 1084SOL    HW1 3270   0.412   2.708   4.678
 1084SOL    HW2 3271   0.313   2.587   4.725
 1085SOL     OW 3272   0.339   2.371   4.730
 1085SOL    HW1 3273   0.287   2.288   4.713
 1085SOL    HW2 3274   0.416   2.376   4.666
 1086SOL     OW 3275   1.160   2.069   5.201
 1086SOL    HW1 3276   1.160   2.133   5.278
 1086SOL    HW2 3277   1.188   2.117   5.118
 1087SOL     OW 3278   0.008   3.188   3.924
 1087SOL    HW1 3279  -0.085   3.209   3.893
 1087SOL    HW2 3280   0.018   3.089   3.937
 1088SOL     OW 3281   0.088   3.663   4.651
 1088SOL    HW1 3282   0.046   3.577   4.624
 1088SOL    HW2 3283   0.182   3.666   4.617
 1089SOL     OW 3284   0.504   3.430   4.634
 1089SOL    HW1 3285   0.570   3.504   4.643
 1089SOL    HW2 3286   0.548   3.351   4.592
 1090SOL     OW 3287   1.002   2.658   4.962
 1090SOL    HW1 3288   1.043   2.626   5.048
 1090SOL    HW2 3289   0.906   2.631   4.959
 1091SOL     OW 3290   0.040   2.406   4.838
 1091SOL    HW1 3291   0.125   2.373   4.797
 1091SOL    HW2 3292   0.053   2.421   4.936
 1092SOL     OW 3293   0.815   2.434   4.049
 1092SOL    HW1 3294   0.822   2.345   4.003
 1092SOL    HW2 3295   0.721   2.468   4.041
 1093SOL     OW 3296   1.657   2.466   4.930
 1093SOL    HW1 3297   1.619   2.397   4.992
 1093SOL    HW2 3298   1.739   2.430   4.886
 1094SOL     OW 3299   0.671   2.326   4.993
 1094SOL    HW1 3300   0.637   2.237   4.963
 1094SOL    HW2 3301   0.697   2.380   4.913
 1095SOL     OW 3302   0.473   2.362   3.915
 1095SOL    HW1 3303   0.534   2.442   3.919
 1095SOL    HW2 3304   0.378   2.393   3.922
 1096SOL     OW 3305   1.347   2.921   4.958
 1096SOL    HW1 3306   1.371   2.858   4.884
 1096SOL    HW2 3307   1.257   2.961   4.940
 1097SOL     OW 3308   1.302   2.717   4.033
 1097SOL    HW1 3309   1.216   2.686   4.075
 1097SOL    HW2 3310   1.298   2.703   3.934
 1098SOL     OW 3311   1.759   3.609   4.878
 1098SOL    HW1 3312   1.820   3.639   4.805
 1098SOL    HW2 3313   1.721   3.520   4.856
 1099SOL     OW 3314   0.083   3.120   4.746
 1099SOL    HW1 3315   0.078   3.119   4.846
 1099SOL    HW2 3316   0.000   3.079   4.708
 1100SOL     OW 3317   1.726   1.997   4.247
 1100SOL    HW1 3318   1.799   1.980   4.180
 1100SOL    HW2 3319   1.695   1.910   4.285
 1101SOL     OW 3320   1.388   3.435   4.201
 1101SOL    HW1 3321   1.455   3.447   4.127
 1101SOL    HW2 3322   1.348   3.524   4.224
 1102SOL     OW 3323   1.280   2.789   4.396
 1102SOL    HW1 3324   1.340   2.708   4.398
 1102SOL    HW2 3325   1.320   2.858   4.336
 1103SOL     OW 3326   0.672   3.478   3.878
 1103SOL    HW1 3327   0.681   3.488   3.779
 1103SOL    HW2 3328   0.632   3.389   3.899
 1104SOL     OW 3329   1.650   3.582   5.118
 1104SOL    HW1 3330   1.703   3.592   5.034
 1104SOL    HW2 3331   1.623   3.672   5.152
 1105SOL     OW 3332   1.841   2.037   4.687
 1105SOL    HW1 3333   1.880   1.952   4.651
 1105SOL    HW2 3334   1.743   2.039   4.668
 1106SOL     OW 3335   0.263   2.188   4.444
 1106SOL    HW1 3336   0.184   2.239   4.410
 1106SOL    HW2 3337   0.254   2.173   4.542
 1107SOL     OW 3338   1.194   3.474   3.755
 1107SOL    HW1 3339   1.200   3.381   3.792
 1107SOL    HW2 3340   1.135   3.474   3.675
 1108SOL     OW 3341   0.822   2.864   5.096
 1108SOL    HW1 3342   0.862   2.863   5.004
 1108SOL    HW2 3343   0.832   2.956   5.136
 1109SOL     OW 3344   0.916   2.772   4.015
 1109SOL    HW1 3345   0.979   2.810   3.947
 1109SOL    HW2 3346   0.956   2.689   4.054
 1110SOL     OW 3347   1.504   3.469   3.768
 1110SOL    HW1 3348   1.412   3.506   3.775
 1110SOL    HW2 3349   1.542   3.489   3.678
 1111SOL     OW 3350   1.039   2.960   4.420
 1111SOL    HW1 3351   0.969   2.913   4.474
 1111SOL    HW2 3352   1.098   2.892   4.377
 1112SOL     OW 3353   1.014   2.098   4.695
 1112SOL    HW1 3354   1.006   2.062   4.602
 1112SOL    HW2 3355   1.012   2.022   4.760
 1113SOL     OW 3356   0.590   3.349   4.215
 1113SOL    HW1 3357   0.632   3.291   4.145
 1113SOL    HW2 3358   0.546   3.428   4.171
 1114SOL     OW 3359   1.709   2.247   5.105
 1114SOL    HW1 3360   1.782   2.316   5.109
 1114SOL    HW2 3361   1.737   2.172   5.046
 1115SOL     OW 3362   0.255   3.210   4.014
 1115SOL    HW1 3363   0.159   3.211   3.987
 1115SOL    HW2 3364   0.267   3.263   4.098
 1116SOL     OW 3365   0.075   2.207   3.757
 1116SOL    HW1 3366  -0.017   2.179   3.728
 1116SOL    HW2 3367   0.106   2.284   3.701
 1117SOL     OW 3368   0.072   2.028   4.042
 1117SOL    HW1 3369   0.055   2.111   3.988
 1117SOL    HW2 3370   0.162   1.991   4.020
 1118SOL     OW 3371   1.183   3.197   3.843
 1118SOL    HW1 3372   1.084   3.186   3.845
 1118SOL    HW2 3373   1.217   3.212   3.936
 1119SOL     OW 3374   1.493   3.629   4.683
 1119SOL    HW1 3375   1.526   3.693   4.614
 1119SOL    HW2 3376   1.559   3.623   4.758
 1120SOL     OW 3377   1.674   2.745   4.978
 1120SOL    HW1 3378   1.647   2.656   4.941
 1120SOL    HW2 3379   1.675   2.813   4.905
 1121SOL     OW 3380   1.225   2.187   4.173
 1121SOL    HW1 3381   1.290   2.113   4.162
 1121SOL    HW2 3382   1.245   2.237   4.257
 1122SOL     OW 3383   0.594   2.607   4.376
 1122SOL    HW1 3384   0.644   2.692   4.357
 1122SOL    HW2 3385   0.506   2.609   4.328
 1123SOL     OW 3386   1.730   2.796   5.241
 1123SOL    HW1 3387   1.768   2.887   5.256
 1123SOL    HW2 3388   1.722   2.779   5.142
 1124SOL     OW 3389   0.859   3.236   3.740
 1124SOL    HW1 3390   0.813   3.251   3.828
 1124SOL    HW2 3391   0.903   3.321   3.710
 1125SOL     OW 3392   0.661   3.652   4.677
 1125SOL    HW1 3393   0.615   3.740   4.664
 1125SOL    HW2 3394   0.760   3.664   4.670
 1126SOL     OW 3395   0.859   2.818   4.585
 1126SOL    HW1 3396   0.913   2.749   4.633
 1126SOL    HW2 3397   0.827   2.887   4.651
 1127SOL     OW 3398   1.083   2.846   3.811
 1127SOL    HW1 3399   1.060   2.899   3.729
 1127SOL    HW2 3400   1.164   2.790   3.792
 1128SOL     OW 3401   1.861   3.431   4.575
 1128SOL    HW1 3402   1.790   3.419   4.505
 1128SOL    HW2 3403   1.862   3.352   4.635
 1129SOL     OW 3404   0.079   3.102   4.377
 1129SOL    HW1 3405   0.078   3.055   4.465
 1129SOL    HW2 3406   0.161   3.074   4.326
 1130SOL     OW 3407   1.824   2.054   4.951
 1130SOL    HW1 3408   1.820   1.964   4.995
 1130SOL    HW2 3409   1.827   2.043   4.852
 1131SOL     OW 3410   0.428   2.286   4.244
 1131SOL    HW1 3411   0.458   2.214   4.182
 1131SOL    HW2 3412   0.389   2.246   4.327
 1132SOL     OW 3413   1.705   3.349   4.828
 1132SOL    HW1 3414   1.612   3.324   4.801
 1132SOL    HW2 3415   1.731   3.299   4.910
 1133SOL     OW 3416   0.812   3.448   4.411
 1133SOL    HW1 3417   0.844   3.458   4.317
 1133SOL    HW2 3418   0.733   3.386   4.413
 1134SOL     OW 3419   1.424   2.076   4.836
 1134SOL    HW1 3420   1.476   2.011   4.891
 1134SOL    HW2 3421   1.375   2.139   4.897
 1135SOL     OW 3422   1.001   1.896   4.878
 1135SOL    HW1 3423   0.938   1.824   4.847
 1135SOL    HW2 3424   1.094   1.860   4.878
 1136SOL     OW 3425   0.770   3.192   4.025
 1136SOL    HW1 3426   0.724   3.105   4.042
 1136SOL    HW2 3427   0.861   3.189   4.066
 1137SOL     OW 3428   1.352   1.914   3.892
 1137SOL    HW1 3429   1.387   1.873   3.808
 1137SOL    HW2 3430   1.262   1.876   3.912
 1138SOL     OW 3431   1.300   2.315   4.415
 1138SOL    HW1 3432   1.241   2.395   4.419
 1138SOL    HW2 3433   1.315   2.280   4.508
 1139SOL     OW 3434   1.593   2.083   4.606
 1139SOL    HW1 3435   1.509   2.082   4.660
 1139SOL    HW2 3436   1.595   2.166   4.550
 1140SOL     OW 3437   0.039   2.939   4.024
 1140SOL    HW1 3438   0.138   2.928   4.015
 1140SOL    HW2 3439  -0.001   2.853   4.056
 1141SOL     OW 3440   0.875   3.508   4.061
 1141SOL    HW1 3441   0.798   3.473   4.007
 1141SOL    HW2 3442   0.843   3.579   4.123
 1142SOL     OW 3443   0.230   4.352   0.113
 1142SOL    HW1 3444   0.137   4.350   0.150
 1142SOL    HW2 3445   0.231   4.313   0.021
 1143SOL     OW 3446   0.225   3.999   0.996
 1143SOL    HW1 3447   0.260   3.982   1.088
 1143SOL    HW2 3448   0.137   3.954   0.984
 1144SOL     OW 3449   0.019   4.092   0.647
 1144SOL    HW1 3450  -0.063   4.135   0.686
 1144SOL    HW2 3451  -0.009   4.019   0.584
 1145SOL     OW 3452   1.135   4.427   0.717
 1145SOL    HW1 3453   1.192   4.505   0.692
 1145SOL    HW2 3454   1.075   4.453   0.793
 1146SOL     OW 3455   1.755   4.331   0.231
 1146SOL    HW1 3456   1.743   4.318   0.132
 1146SOL    HW2 3457   1.725   4.250   0.280
 1147SOL     OW 3458   0.768   4.868   1.023
 1147SOL    HW1 3459   0.690   4.885   1.083
 1147SOL    HW2 3460   0.802   4.955   0.987
 1148SOL     OW 3461   0.850   4.522   1.823
 1148SOL    HW1 3462   0.846   4.598   1.888
 1148SOL    HW2 3463   0.872   4.558   1.732
 1149SOL     OW 3464   0.685   4.736   0.665
 1149SOL    HW1 3465   0.754   4.720   0.735
 1149SOL    HW2 3466   0.612   4.793   0.703
 1150SOL     OW 3467   0.686   4.885   1.803
 1150SOL    HW1 3468   0.746   4.964   1.817
 1150SOL    HW2 3469   0.600   4.916   1.762
 1151SOL     OW 3470   0.438   4.116   1.499
 1151SOL    HW1 3471   0.520   4.060   1.508
 1151SOL    HW2 3472   0.357   4.058   1.503
 1152SOL     OW 3473   1.603   4.171   0.737
 1152SOL    HW1 3474   1.529   4.217   0.687
 1152SOL    HW2 3475   1.654   4.239   0.790
 1153SOL     OW 3476   0.240   4.815   0.886
 1153SOL    HW1 3477   0.254   4.731   0.938
 1153SOL    HW2 3478   0.185   4.879   0.941
 1154SOL     OW 3479   0.606   4.688   0.123
 1154SOL    HW1 3480   0.613   4.772   0.069
 1154SOL    HW2 3481   0.652   4.701   0.211
 1155SOL     OW 3482   1.594   3.838   1.480
 1155SOL    HW1 3483   1.576   3.905   1.408
 1155SOL    HW2 3484   1.591   3.884   1.569
 1156SOL     OW 3485   0.122   4.367   0.563
 1156SOL    HW1 3486   0.077   4.279   0.580
 1156SOL    HW2 3487   0.121   4.421   0.647
 1157SOL     OW 3488   1.689   4.646   0.612
 1157SOL    HW1 3489   1.784   4.617   0.620
 1157SOL    HW2 3490   1.681   4.711   0.537
 1158SOL     OW 3491   1.641   4.832   0.432
 1158SOL    HW1 3492   1.727   4.834   0.380
 1158SOL    HW2 3493   1.655   4.879   0.520
 1159SOL     OW 3494   0.113   4.461   1.597
 1159SOL    HW1 3495   0.201   4.448   1.642
 1159SOL    HW2 3496   0.100   4.558   1.575
 1160SOL     OW 3497   1.293   4.952   1.423
 1160SOL    HW1 3498   1.330   4.879   1.365
 1160SOL    HW2 3499   1.345   4.957   1.508
 1161SOL     OW 3500   0.809   3.728   0.502
 1161SOL    HW1 3501   0.849   3.819   0.493
 1161SOL    HW2 3502   0.709   3.736   0.508
 1162SOL     OW 3503   0.197   4.700   1.264
 1162SOL    HW1 3504   0.286   4.655   1.250
 1162SOL    HW2 3505   0.124   4.635   1.245
 1163SOL     OW 3506   1.525   4.723   0.190
 1163SOL    HW1 3507   1.462   4.647   0.203
 1163SOL    HW2 3508   1.573   4.741   0.276
 1164SOL     OW 3509   0.317   3.975   1.801
 1164SOL    HW1 3510   0.388   4.046   1.807
 1164SOL    HW2 3511   0.229   4.014   1.829
 1165SOL     OW 3512   0.598   4.453   0.270
 1165SOL    HW1 3513   0.622   4.522   0.202
 1165SOL    HW2 3514   0.520   4.486   0.324
 1166SOL     OW 3515   1.281   4.069   0.944
 1166SOL    HW1 3516   1.195   4.019   0.931
 1166SOL    HW2 3517   1.343   4.015   1.000
 1167SOL     OW 3518   0.807   4.329   1.465
 1167SOL    HW1 3519   0.760   4.326   1.554
 1167SOL    HW2 3520   0.756   4.274   1.399
 1168SOL     OW 3521   1.394   4.193   1.674
 1168SOL    HW1 3522   1.374   4.236   1.762
 1168SOL    HW2 3523   1.472   4.131   1.683
 1169SOL     OW 3524   0.973   4.614   1.572
 1169SOL    HW1 3525   1.019   4.530   1.543
 1169SOL    HW2 3526   0.917   4.648   1.497
 1170SOL     OW 3527   0.991   4.134   1.242
 1170SOL    HW1 3528   0.914   4.168   1.296
 1170SOL    HW2 3529   0.957   4.083   1.163
 1171SOL     OW 3530   1.041   4.425   0.429
 1171SOL    HW1 3531   1.067   4.421   0.525
 1171SOL    HW2 3532   0.956   4.374   0.415
 1172SOL     OW 3533   0.076   4.535   0.789
 1172SOL    HW1 3534   0.175   4.523   0.798
 1172SOL    HW2 3535   0.052   4.630   0.810
 1173SOL     OW 3536   0.865   4.072   0.195
 1173SOL    HW1 3537   0.924   4.135   0.146
 1173SOL    HW2 3538   0.884   3.978   0.166
 1174SOL     OW 3539   1.719   4.309   1.831
 1174SOL    HW1 3540   1.693   4.398   1.795
 1174SOL    HW2 3541   1.717   4.241   1.758
 1175SOL     OW 3542   1.362   4.868   0.545
 1175SOL    HW1 3543   1.445   4.839   0.497
 1175SOL    HW2 3544   1.313   4.935   0.489
 1176SOL     OW 3545   0.550   3.920   0.885
 1176SOL    HW1 3546   0.545   3.915   0.985
 1176SOL    HW2 3547   0.552   4.016   0.856
 1177SOL     OW 3548   1.795   4.790   0.873
 1177SOL    HW1 3549   1.733   4.775   0.797
 1177SOL    HW2 3550   1.743   4.801   0.958
 1178SOL     OW 3551   0.321   4.667   0.242
 1178SOL    HW1 3552   0.403   4.706   0.200
 1178SOL    HW2 3553   0.294   4.585   0.193
 1179SOL     OW 3554   1.458   4.459   0.728
 1179SOL    HW1 3555   1.453   4.394   0.803
 1179SOL    HW2 3556   1.538   4.518   0.741
 1180SOL     OW 3557   0.202   4.009   1.498
 1180SOL    HW1 3558   0.122   4.069   1.485
 1180SOL    HW2 3559   0.192   3.960   1.584
 1181SOL     OW 3560   1.400   3.831   0.426
 1181SOL    HW1 3561   1.376   3.794   0.336
 1181SOL    HW2 3562   1.499   3.847   0.430
 1182SOL     OW 3563   0.382   4.424   0.480
 1182SOL    HW1 3564   0.427   4.334   0.477
 1182SOL    HW2 3565   0.288   4.413   0.513
 1183SOL     OW 3566   1.547   3.946   1.729
 1183SOL    HW1 3567   1.542   3.983   1.821
 1183SOL    HW2 3568   1.475   3.877   1.717
 1184SOL     OW 3569   0.614   3.846   0.117
 1184SOL    HW1 3570   0.712   3.824   0.124
 1184SOL    HW2 3571   0.583   3.829   0.024
 1185SOL     OW 3572   0.781   3.988   1.749
 1185SOL    HW1 3573   0.848   3.927   1.792
 1185SOL    HW2 3574   0.708   4.007   1.814
 1186SOL     OW 3575   1.351   4.314   1.433
 1186SOL    HW1 3576   1.379   4.271   1.518
 1186SOL    HW2 3577   1.376   4.410   1.434
 1187SOL     OW 3578   0.922   4.227   0.899
 1187SOL    HW1 3579   0.897   4.218   0.803
 1187SOL    HW2 3580   0.970   4.145   0.930
 1188SOL     OW 3581   0.539   3.788   0.512
 1188SOL    HW1 3582   0.458   3.789   0.570
 1188SOL    HW2 3583   0.542   3.871   0.457
 1189SOL     OW 3584   0.297   3.759   0.171
 1189SOL    HW1 3585   0.346   3.843   0.150
 1189SOL    HW2 3586   0.359   3.694   0.216
 1190SOL     OW 3587   0.935   3.960   0.480
 1190SOL    HW1 3588   0.887   4.001   0.402
 1190SOL    HW2 3589   1.034   3.958   0.461
 1191SOL     OW 3590   1.076   4.407   1.464
 1191SOL    HW1 3591   0.996   4.346   1.467
 1191SOL    HW2 3592   1.157   4.354   1.440
 1192SOL     OW 3593   0.459   4.876   0.741
 1192SOL    HW1 3594   0.388   4.849   0.806
 1192SOL    HW2 3595   0.433   4.848   0.648
 1193SOL     OW 3596   1.032   4.273   0.016
 1193SOL    HW1 3597   0.991   4.355  -0.023
 1193SOL    HW2 3598   1.096   4.299   0.089
 1194SOL     OW 3599   0.078   4.280   1.386
 1194SOL    HW1 3600   0.170   4.279   1.345
 1194SOL    HW2 3601   0.072   4.354   1.453
 1195SOL     OW 3602   0.561   3.946   1.147
 1195SOL    HW1 3603   0.599   3.862   1.184
 1195SOL    HW2 3604   0.473   3.965   1.191
 1196SOL     OW 3605   0.866   4.178   0.642
 1196SOL    HW1 3606   0.834   4.250   0.580
 1196SOL    HW2 3607   0.890   4.097   0.589
 1197SOL     OW 3608   1.017   3.763   0.753
 1197SOL    HW1 3609   0.945   3.768   0.684
 1197SOL    HW2 3610   0.993   3.694   0.822
 1198SOL     OW 3611   1.429   4.897   0.867
 1198SOL    HW1 3612   1.374   4.813   0.860
 1198SOL    HW2 3613   1.455   4.926   0.775
 1199SOL     OW 3614   1.466   4.314   0.992
 1199SOL    HW1 3615   1.436   4.219   0.999
 1199SOL    HW2 3616   1.539   4.330   1.058
 1200SOL     OW 3617   1.857   4.557   0.377
 1200SOL    HW1 3618   1.899   4.493   0.441
 1200SOL    HW2 3619   1.819   4.506   0.299
 1201SOL     OW 3620   1.390   4.299   0.078
 1201SOL    HW1 3621   1.336   4.278   0.159
 1201SOL    HW2 3622   1.481   4.258   0.087
 1202SOL     OW 3623   0.527   3.980   0.328
 1202SOL    HW1 3624   0.554   3.921   0.253
 1202SOL    HW2 3625   0.527   4.075   0.297
 1203SOL     OW 3626   1.754   4.947   1.588
 1203SOL    HW1 3627   1.845   4.908   1.575
 1203SOL    HW2 3628   1.762   5.043   1.612
 1204SOL     OW 3629   1.638   4.823   1.079
 1204SOL    HW1 3630   1.643   4.904   1.138
 1204SOL    HW2 3631   1.552   4.825   1.028
 1205SOL     OW 3632   0.915   3.813   1.402
 1205SOL    HW1 3633   0.940   3.793   1.307
 1205SOL    HW2 3634   0.987   3.869   1.444
 1206SOL     OW 3635   0.980   4.840   1.719
 1206SOL    HW1 3636   0.881   4.846   1.729
 1206SOL    HW2 3637   1.003   4.760   1.663
 1207SOL     OW 3638   0.705   4.774   0.368
 1207SOL    HW1 3639   0.691   4.781   0.467
 1207SOL    HW2 3640   0.789   4.723   0.350
 1208SOL     OW 3641   0.410   4.537   1.251
 1208SOL    HW1 3642   0.496   4.549   1.301
 1208SOL    HW2 3643   0.368   4.450   1.278
 1209SOL     OW 3644   1.274   4.110   1.262
 1209SOL    HW1 3645   1.295   4.184   1.326
 1209SOL    HW2 3646   1.185   4.127   1.219
 1210SOL     OW 3647   0.367   4.824   0.501
 1210SOL    HW1 3648   0.360   4.907   0.445
 1210SOL    HW2 3649   0.371   4.744   0.441
 1211SOL     OW 3650   0.566   4.261   0.865
 1211SOL    HW1 3651   0.578   4.327   0.791
 1211SOL    HW2 3652   0.612   4.295   0.948
 1212SOL     OW 3653   1.582   4.363   0.472
 1212SOL    HW1 3654   1.551   4.424   0.545
 1212SOL    HW2 3655   1.632   4.415   0.403
 1213SOL     OW 3656   0.402   4.475   1.598
 1213SOL    HW1 3657   0.470   4.530   1.551
 1213SOL    HW2 3658   0.442   4.387   1.625
 1214SOL     OW 3659   1.587   4.503   1.670
 1214SOL    HW1 3660   1.495   4.541   1.665
 1214SOL    HW2 3661   1.647   4.550   1.605
 1215SOL     OW 3662   1.013   3.829   1.770
 1215SOL    HW1 3663   1.019   3.914   1.718
 1215SOL    HW2 3664   1.045   3.753   1.713
 1216SOL     OW 3665   0.504   3.774   1.740
 1216SOL    HW1 3666   0.462   3.717   1.670
 1216SOL    HW2 3667   0.438   3.843   1.772
 1217SOL     OW 3668   0.573   4.594   1.029
 1217SOL    HW1 3669   0.617   4.683   1.020
 1217SOL    HW2 3670   0.510   4.594   1.106
 1218SOL     OW 3671   1.360   4.586   1.045
 1218SOL    HW1 3672   1.285   4.586   0.979
 1218SOL    HW2 3673   1.397   4.494   1.054
 1219SOL     OW 3674   1.209   4.249   0.275
 1219SOL    HW1 3675   1.222   4.165   0.329
 1219SOL    HW2 3676   1.180   4.323   0.335
 1220SOL     OW 3677   0.307   3.937   1.231
 1220SOL    HW1 3678   0.284   3.974   1.321
 1220SOL    HW2 3679   0.277   3.842   1.225
 1221SOL     OW 3680   0.037   5.034   1.282
 1221SOL    HW1 3681   0.090   4.985   1.350
 1221SOL    HW2 3682   0.059   5.132   1.287
 1222SOL     OW 3683   0.732   4.358   1.064
 1222SOL    HW1 3684   0.791   4.332   0.988
 1222SOL    HW2 3685   0.704   4.454   1.053
 1223SOL     OW 3686   1.728   4.659   1.854
 1223SOL    HW1 3687   1.682   4.652   1.765
 1223SOL    HW2 3688   1.666   4.703   1.920
 1224SOL     OW 3689   0.307   3.787   0.618
 1224SOL    HW1 3690   0.296   3.881   0.651
 1224SOL    HW2 3691   0.302   3.724   0.695
 1225SOL     OW 3692   1.622   4.091   0.374
 1225SOL    HW1 3693   1.624   4.015   0.438
 1225SOL    HW2 3694   1.574   4.168   0.414
 1226SOL     OW 3695   1.023   4.490   0.966
 1226SOL    HW1 3696   1.038   4.511   1.062
 1226SOL    HW2 3697   0.993   4.395   0.957
 1227SOL     OW 3698   0.350   4.622   1.804
 1227SOL    HW1 3699   0.426   4.666   1.852
 1227SOL    HW2 3700   0.385   4.575   1.722
 1228SOL     OW 3701   1.540   3.998   0.125
 1228SOL    HW1 3702   1.479   3.923   0.148
 1228SOL    HW2 3703   1.562   4.050   0.208
 1229SOL     OW 3704   1.303   4.562   0.042
 1229SOL    HW1 3705   1.337   4.469   0.057
 1229SOL    HW2 3706   1.321   4.589  -0.053
 1230SOL     OW 3707   0.319   4.534   0.949
 1230SOL    HW1 3708   0.412   4.570   0.954
 1230SOL    HW2 3709   0.313   4.449   1.001
 1231SOL     OW 3710   0.339   4.233   1.006
 1231SOL    HW1 3711   0.287   4.150   0.989
 1231SOL    HW2 3712   0.416   4.238   0.942
 1232SOL     OW 3713   1.138   4.104   1.678
 1232SOL    HW1 3714   1.093   4.167   1.742
 1232SOL    HW2 3715   1.231   4.135   1.661
 1233SOL     OW 3716   1.160   3.931   1.477
 1233SOL    HW1 3717   1.160   3.995   1.554
 1233SOL    HW2 3718   1.188   3.979   1.394
 1234SOL     OW 3719   0.008   5.050   0.200
 1234SOL    HW1 3720  -0.085   5.071   0.169
 1234SOL    HW2 3721   0.018   4.951   0.213
 1235SOL     OW 3722   1.002   4.520   1.238
 1235SOL    HW1 3723   1.043   4.488   1.324
 1235SOL    HW2 3724   0.906   4.493   1.235
 1236SOL     OW 3725   0.040   4.268   1.114
 1236SOL    HW1 3726   0.125   4.235   1.073
 1236SOL    HW2 3727   0.053   4.283   1.212
 1237SOL     OW 3728   0.189   4.244   1.722
 1237SOL    HW1 3729   0.248   4.204   1.652
 1237SOL    HW2 3730   0.131   4.315   1.681
 1238SOL     OW 3731   1.369   4.674   1.660
 1238SOL    HW1 3732   1.408   4.763   1.680
 1238SOL    HW2 3733   1.379   4.654   1.563
 1239SOL     OW 3734   0.815   4.296   0.325
 1239SOL    HW1 3735   0.822   4.207   0.279
 1239SOL    HW2 3736   0.721   4.330   0.317
 1240SOL     OW 3737   1.657   4.328   1.206
 1240SOL    HW1 3738   1.619   4.259   1.268
 1240SOL    HW2 3739   1.739   4.292   1.162
 1241SOL     OW 3740   0.671   4.188   1.269
 1241SOL    HW1 3741   0.637   4.099   1.239
 1241SOL    HW2 3742   0.697   4.242   1.189
 1242SOL     OW 3743   0.473   4.224   0.191
 1242SOL    HW1 3744   0.534   4.304   0.195
 1242SOL    HW2 3745   0.378   4.255   0.198
 1243SOL     OW 3746   0.159   4.861   1.466
 1243SOL    HW1 3747   0.181   4.800   1.542
 1243SOL    HW2 3748   0.169   4.812   1.380
 1244SOL     OW 3749   1.347   4.783   1.234
 1244SOL    HW1 3750   1.371   4.720   1.160
 1244SOL    HW2 3751   1.257   4.823   1.216
 1245SOL     OW 3752   1.302   4.579   0.309
 1245SOL    HW1 3753   1.216   4.548   0.351
 1245SOL    HW2 3754   1.298   4.565   0.210
 1246SOL     OW 3755   0.083   4.982   1.022
 1246SOL    HW1 3756   0.078   4.981   1.122
 1246SOL    HW2 3757   0.000   4.941   0.984
 1247SOL     OW 3758   0.903   3.810   0.133
 1247SOL    HW1 3759   0.954   3.811   0.047
 1247SOL    HW2 3760   0.959   3.768   0.204
 1248SOL     OW 3761   1.726   3.859   0.523
 1248SOL    HW1 3762   1.799   3.842   0.456
 1248SOL    HW2 3763   1.695   3.772   0.561
 1249SOL     OW 3764   1.280   4.651   0.672
 1249SOL    HW1 3765   1.340   4.570   0.674
 1249SOL    HW2 3766   1.320   4.720   0.612
 1250SOL     OW 3767   1.841   3.899   0.963
 1250SOL    HW1 3768   1.880   3.814   0.927
 1250SOL    HW2 3769   1.743   3.901   0.944
 1251SOL     OW 3770   0.263   4.050   0.720
 1251SOL    HW1 3771   0.184   4.101   0.686
 1251SOL    HW2 3772   0.254   4.035   0.818
 1252SOL     OW 3773   0.822   4.726   1.372
 1252SOL    HW1 3774   0.862   4.725   1.280
 1252SOL    HW2 3775   0.832   4.818   1.412
 1253SOL     OW 3776   0.916   4.634   0.291
 1253SOL    HW1 3777   0.979   4.672   0.223
 1253SOL    HW2 3778   0.956   4.551   0.330
 1254SOL     OW 3779   0.372   5.012   1.490
 1254SOL    HW1 3780   0.359   5.105   1.456
 1254SOL    HW2 3781   0.288   4.960   1.477
 1255SOL     OW 3782   1.614   5.016   1.289
 1255SOL    HW1 3783   1.674   5.019   1.369
 1255SOL    HW2 3784   1.539   5.080   1.302
 1256SOL     OW 3785   1.039   4.822   0.696
 1256SOL    HW1 3786   0.969   4.775   0.750
 1256SOL    HW2 3787   1.098   4.754   0.653
 1257SOL     OW 3788   1.014   3.960   0.971
 1257SOL    HW1 3789   1.006   3.924   0.878
 1257SOL    HW2 3790   1.012   3.884   1.036
 1258SOL     OW 3791   1.709   4.109   1.381
 1258SOL    HW1 3792   1.782   4.178   1.385
 1258SOL    HW2 3793   1.737   4.034   1.322
 1259SOL     OW 3794   0.105   4.737   1.726
 1259SOL    HW1 3795   0.028   4.704   1.780
 1259SOL    HW2 3796   0.190   4.707   1.768
 1260SOL     OW 3797   0.672   3.927   1.489
 1260SOL    HW1 3798   0.762   3.911   1.449
 1260SOL    HW2 3799   0.680   3.932   1.588
 1261SOL     OW 3800   0.075   4.069   0.033
 1261SOL    HW1 3801  -0.017   4.041   0.004
 1261SOL    HW2 3802   0.106   4.146  -0.023
 1262SOL     OW 3803   1.440   4.580   1.398
 1262SOL    HW1 3804   1.383   4.632   1.335
 1262SOL    HW2 3805   1.536   4.592   1.374
 1263SOL     OW 3806   0.072   3.890   0.318
 1263SOL    HW1 3807   0.055   3.973   0.264
 1263SOL    HW2 3808   0.162   3.853   0.296
 1264SOL     OW 3809   0.613   4.566   1.431
 1264SOL    HW1 3810   0.669   4.647   1.414
 1264SOL    HW2 3811   0.672   4.486   1.434
 1265SOL     OW 3812   0.716   4.289   1.708
 1265SOL    HW1 3813   0.735   4.354   1.782
 1265SOL    HW2 3814   0.776   4.209   1.717
 1266SOL     OW 3815   1.450   4.944   1.633
 1266SOL    HW1 3816   1.441   4.934   1.732
 1266SOL    HW2 3817   1.546   4.937   1.607
 1267SOL     OW 3818   1.674   4.607   1.254
 1267SOL    HW1 3819   1.647   4.518   1.217
 1267SOL    HW2 3820   1.675   4.675   1.181
 1268SOL     OW 3821   1.225   4.049   0.449
 1268SOL    HW1 3822   1.290   3.975   0.438
 1268SOL    HW2 3823   1.245   4.099   0.533
 1269SOL     OW 3824   0.594   4.469   0.652
 1269SOL    HW1 3825   0.644   4.554   0.633
 1269SOL    HW2 3826   0.506   4.471   0.604
 1270SOL     OW 3827   1.777   4.066   1.642
 1270SOL    HW1 3828   1.760   4.097   1.548
 1270SOL    HW2 3829   1.693   4.029   1.680
 1271SOL     OW 3830   1.730   4.658   1.517
 1271SOL    HW1 3831   1.768   4.749   1.532
 1271SOL    HW2 3832   1.722   4.641   1.418
 1272SOL     OW 3833   0.859   4.680   0.861
 1272SOL    HW1 3834   0.913   4.611   0.909
 1272SOL    HW2 3835   0.827   4.749   0.927
 1273SOL     OW 3836   1.083   4.708   0.087
 1273SOL    HW1 3837   1.060   4.761   0.005
 1273SOL    HW2 3838   1.164   4.652   0.068
 1274SOL     OW 3839   0.079   4.964   0.653
 1274SOL    HW1 3840   0.078   4.917   0.741
 1274SOL    HW2 3841   0.161   4.936   0.602
 1275SOL     OW 3842   1.824   3.916   1.227
 1275SOL    HW1 3843   1.820   3.826   1.271
 1275SOL    HW2 3844   1.827   3.905   1.128
 1276SOL     OW 3845   0.428   4.148   0.520
 1276SOL    HW1 3846   0.458   4.076   0.458
 1276SOL    HW2 3847   0.389   4.108   0.603
 1277SOL     OW 3848   0.317   4.271   1.280
 1277SOL    HW1 3849   0.355   4.212   1.352
 1277SOL    HW2 3850   0.357   4.245   1.192
 1278SOL     OW 3851   1.424   3.938   1.112
 1278SOL    HW1 3852   1.476   3.873   1.167
 1278SOL    HW2 3853   1.375   4.001   1.173
 1279SOL     OW 3854   1.001   3.758   1.154
 1279SOL    HW1 3855   0.938   3.686   1.123
 1279SOL    HW2 3856   1.094   3.722   1.154
 1280SOL     OW 3857   0.770   5.054   0.301
 1280SOL    HW1 3858   0.724   4.967   0.318
 1280SOL    HW2 3859   0.861   5.051   0.342
 1281SOL     OW 3860   1.352   3.776   0.168
 1281SOL    HW1 3861   1.387   3.735   0.084
 1281SOL    HW2 3862   1.262   3.738   0.188
 1282SOL     OW 3863   1.300   4.177   0.691
 1282SOL    HW1 3864   1.241   4.257   0.695
 1282SOL    HW2 3865   1.315   4.142   0.784
 1283SOL     OW 3866   1.593   3.945   0.882
 1283SOL    HW1 3867   1.509   3.944   0.936
 1283SOL    HW2 3868   1.595   4.028   0.826
 1284SOL     OW 3869   0.039   4.801   0.300
 1284SOL    HW1 3870   0.138   4.790   0.291
 1284SOL    HW2 3871  -0.001   4.715   0.332
 1285SOL     OW 3872   0.230   4.352   1.975
 1285SOL    HW1 3873   0.137   4.350   2.012
 1285SOL    HW2 3874   0.231   4.313   1.883
 1286SOL     OW 3875   0.225   3.999   2.858
 1286SOL    HW1 3876   0.260   3.982   2.950
 1286SOL    HW2 3877   0.137   3.954   2.846
 1287SOL     OW 3878   0.019   4.092   2.509
 1287SOL    HW1 3879  -0.063   4.135   2.548
 1287SOL    HW2 3880  -0.009   4.019   2.446
 1288SOL     OW 3881   1.135   4.427   2.579
 1288SOL    HW1 3882   1.192   4.505   2.554
 1288SOL    HW2 3883   1.075   4.453   2.655
 1289SOL     OW 3884   1.755   4.331   2.093
 1289SOL    HW1 3885   1.743   4.318   1.994
 1289SOL    HW2 3886   1.725   4.250   2.142
 1290SOL     OW 3887   0.768   4.868   2.885
 1290SOL    HW1 3888   0.690   4.885   2.945
 1290SOL    HW2 3889   0.802   4.955   2.849
 1291SOL     OW 3890   0.850   4.522   3.685
 1291SOL    HW1 3891   0.846   4.598   3.750
 1291SOL    HW2 3892   0.872   4.558   3.594
 1292SOL     OW 3893   0.685   4.736   2.527
 1292SOL    HW1 3894   0.754   4.720   2.597
 1292SOL    HW2 3895   0.612   4.793   2.565
 1293SOL     OW 3896   0.686   4.885   3.665
 1293SOL    HW1 3897   0.746   4.964   3.679
 1293SOL    HW2 3898   0.600   4.916   3.624
 1294SOL     OW 3899   0.438   4.116   3.361
 1294SOL    HW1 3900   0.520   4.060   3.370
 1294SOL    HW2 3901   0.357   4.058   3.365
 1295SOL     OW 3902   1.603   4.171   2.599
 1295SOL    HW1 3903   1.529   4.217   2.549
 1295SOL    HW2 3904   1.654   4.239   2.652
 1296SOL     OW 3905   0.240   4.815   2.748
 1296SOL    HW1 3906   0.254   4.731   2.800
 1296SOL    HW2 3907   0.185   4.879   2.803
 1297SOL     OW 3908   0.606   4.688   1.985
 1297SOL    HW1 3909   0.613   4.772   1.931
 1297SOL    HW2 3910   0.652   4.701   2.073
 1298SOL     OW 3911   1.594   3.838   3.342
 1298SOL    HW1 3912   1.576   3.905   3.270
 1298SOL    HW2 3913   1.591   3.884   3.431
 1299SOL     OW 3914   0.122   4.367   2.425
 1299SOL    HW1 3915   0.077   4.279   2.442
 1299SOL    HW2 3916   0.121   4.421   2.509
 1300SOL     OW 3917   1.689   4.646   2.474
 1300SOL    HW1 3918   1.784   4.617   2.482
 1300SOL    HW2 3919   1.681   4.711   2.399
 1301SOL     OW 3920   1.641   4.832   2.294
 1301SOL    HW1 3921   1.727   4.834   2.242
 1301SOL    HW2 3922   1.655   4.879   2.382
 1302SOL     OW 3923   0.113   4.461   3.459
 1302SOL    HW1 3924   0.201   4.448   3.504
 1302SOL    HW2 3925   0.100   4.558   3.437
 1303SOL     OW 3926   1.293   4.952   3.285
 1303SOL    HW1 3927   1.330   4.879   3.227
 1303SOL    HW2 3928   1.345   4.957   3.370
 1304SOL     OW 3929   0.809   3.728   2.364
 1304SOL    HW1 3930   0.849   3.819   2.355
 1304SOL    HW2 3931   0.709   3.736   2.370
 1305SOL     OW 3932   0.197   4.700   3.126
 1305SOL    HW1 3933   0.286   4.655   3.112
 1305SOL    HW2 3934   0.124   4.635   3.107
 1306SOL     OW 3935   1.525   4.723   2.052
 1306SOL    HW1 3936   1.462   4.647   2.065
 1306SOL    HW2 3937   1.573   4.741   2.138
 1307SOL     OW 3938   0.317   3.975   3.663
 1307SOL    HW1 3939   0.388   4.046   3.669
 1307SOL    HW2 3940   0.229   4.014   3.691
 1308SOL     OW 3941   0.598   4.453   2.132
 1308SOL    HW1 3942   0.622   4.522   2.064
 1308SOL    HW2 3943   0.520   4.486   2.186
 1309SOL     OW 3944   1.281   4.069   2.806
 1309SOL    HW1 3945   1.195   4.019   2.793
 1309SOL    HW2 3946   1.343   4.015   2.862
 1310SOL     OW 3947   0.807   4.329   3.327
 1310SOL    HW1 3948   0.760   4.326   3.416
 1310SOL    HW2 3949   0.756   4.274   3.261
 1311SOL     OW 3950   1.394   4.193   3.536
 1311SOL    HW1 3951   1.374   4.236   3.624
 1311SOL    HW2 3952   1.472   4.131   3.545
 1312SOL     OW 3953   0.973   4.614   3.434
 1312SOL    HW1 3954   1.019   4.530   3.405
 1312SOL    HW2 3955   0.917   4.648   3.359
 1313SOL     OW 3956   0.991   4.134   3.104
 1313SOL    HW1 3957   0.914   4.168   3.158
 1313SOL    HW2 3958   0.957   4.083   3.025
 1314SOL     OW 3959   1.041   4.425   2.291
 1314SOL    HW1 3960   1.067   4.421   2.387
 1314SOL    HW2 3961   0.956   4.374   2.277
 1315SOL     OW 3962   0.076   4.535   2.651
 1315SOL    HW1 3963   0.175   4.523   2.660
 1315SOL    HW2 3964   0.052   4.630   2.672
 1316SOL     OW 3965   0.865   4.072   2.057
 1316SOL    HW1 3966   0.924   4.135   2.008
 1316SOL    HW2 3967   0.884   3.978   2.028
 1317SOL     OW 3968   1.719   4.309   3.693
 1317SOL    HW1 3969   1.693   4.398   3.657
 1317SOL    HW2 3970   1.717   4.241   3.620
 1318SOL     OW 3971   1.362   4.868   2.407
 1318SOL    HW1 3972   1.445   4.839   2.359
 1318SOL    HW2 3973   1.313   4.935   2.351
 1319SOL     OW 3974   0.550   3.920   2.747
 1319SOL    HW1 3975   0.545   3.915   2.847
 1319SOL    HW2 3976   0.552   4.016   2.718
 1320SOL     OW 3977   1.795   4.790   2.735
 1320SOL    HW1 3978   1.733   4.775   2.659
 1320SOL    HW2 3979   1.743   4.801   2.820
 1321SOL     OW 3980   0.321   4.667   2.104
 1321SOL    HW1 3981   0.403   4.706   2.062
 1321SOL    HW2 3982   0.294   4.585   2.055
 1322SOL     OW 3983   1.458   4.459   2.590
 1322SOL    HW1 3984   1.453   4.394   2.665
 1322SOL    HW2 3985   1.538   4.518   2.603
 1323SOL     OW 3986   0.202   4.009   3.360
 1323SOL    HW1 3987   0.122   4.069   3.347
 1323SOL    HW2 3988   0.192   3.960   3.446
 1324SOL     OW 3989   1.400   3.831   2.288
 1324SOL    HW1 3990   1.376   3.794   2.198
 1324SOL    HW2 3991   1.499   3.847   2.292
 1325SOL     OW 3992   0.382   4.424   2.342
 1325SOL    HW1 3993   0.427   4.334   2.339
 1325SOL    HW2 3994   0.288   4.413   2.375
 1326SOL     OW 3995   1.547   3.946   3.591
 1326SOL    HW1 3996   1.542   3.983   3.683
 1326SOL    HW2 3997   1.475   3.877   3.579
 1327SOL     OW 3998   0.614   3.846   1.979
 1327SOL    HW1 3999   0.712   3.824   1.986
 1327SOL    HW2 4000   0.583   3.829   1.886
 1328SOL     OW 4001   0.781   3.988   3.611
 1328SOL    HW1 4002   0.848   3.927   3.654
 1328SOL    HW2 4003   0.708   4.007   3.676
 1329SOL     OW 4004   1.351   4.314   3.295
 1329SOL    HW1 4005   1.379   4.271   3.380
 1329SOL    HW2 4006   1.376   4.410   3.296
 1330SOL     OW 4007   0.922   4.227   2.761
 1330SOL    HW1 4008   0.897   4.218   2.665
 1330SOL    HW2 4009   0.970   4.145   2.792
 1331SOL     OW 4010   0.539   3.788   2.374
 1331SOL    HW1 4011   0.458   3.789   2.432
 1331SOL    HW2 4012   0.542   3.871   2.319
 1332SOL     OW 4013   0.297   3.759   2.033
 1332SOL    HW1 4014   0.346   3.843   2.012
 1332SOL    HW2 4015   0.359   3.694   2.078
 1333SOL     OW 4016   0.935   3.960   2.342
 1333SOL    HW1 4017   0.887   4.001   2.264
 1333SOL    HW2 4018   1.034   3.958   2.323
 1334SOL     OW 4019   1.076   4.407   3.326
 1334SOL    HW1 4020   0.996   4.346   3.329
 1334SOL    HW2 4021   1.157   4.354   3.302
 1335SOL     OW 4022   0.459   4.876   2.603
 1335SOL    HW1 4023   0.388   4.849   2.668
 1335SOL    HW2 4024   0.433   4.848   2.510
 1336SOL     OW 4025   1.032   4.273   1.878
 1336SOL    HW1 4026   0.991   4.355   1.839
 1336SOL    HW2 4027   1.096   4.299   1.951
 1337SOL     OW 4028   0.078   4.280   3.248
 1337SOL    HW1 4029   0.170   4.279   3.207
 1337SOL    HW2 4030   0.072   4.354   3.315
 1338SOL     OW 4031   0.561   3.946   3.009
 1338SOL    HW1 4032   0.599   3.862   3.046
 1338SOL    HW2 4033   0.473   3.965   3.053
 1339SOL     OW 4034   0.866   4.178   2.504
 1339SOL    HW1 4035   0.834   4.250   2.442
 1339SOL    HW2 4036   0.890   4.097   2.451
 1340SOL     OW 4037   1.017   3.763   2.615
 1340SOL    HW1 4038   0.945   3.768   2.546
 1340SOL    HW2 4039   0.993   3.694   2.684
 1341SOL     OW 4040   1.429   4.897   2.729
 1341SOL    HW1 4041   1.374   4.813   2.722
 1341SOL    HW2 4042   1.455   4.926   2.637
 1342SOL     OW 4043   1.466   4.314   2.854
 1342SOL    HW1 4044   1.436   4.219   2.861
 1342SOL    HW2 4045   1.539   4.330   2.920
 1343SOL     OW 4046   1.857   4.557   2.239
 1343SOL    HW1 4047   1.899   4.493   2.303
 1343SOL    HW2 4048   1.819   4.506   2.161
 1344SOL     OW 4049   1.390   4.299   1.940
 1344SOL    HW1 4050   1.336   4.278   2.021
 1344SOL    HW2 4051   1.481   4.258   1.949
 1345SOL     OW 4052   0.527   3.980   2.190
 1345SOL    HW1 4053   0.554   3.921   2.115
 1345SOL    HW2 4054   0.527   4.075   2.159
 1346SOL     OW 4055   1.754   4.947   3.450
 1346SOL    HW1 4056   1.845   4.908   3.437
 1346SOL    HW2 4057   1.762   5.043   3.474
 1347SOL     OW 4058   1.638   4.823   2.941
 1347SOL    HW1 4059   1.643   4.904   3.000
 1347SOL    HW2 4060   1.552   4.825   2.890
 1348SOL     OW 4061   0.915   3.813   3.264
 1348SOL    HW1 4062   0.940   3.793   3.169
 1348SOL    HW2 4063   0.987   3.869   3.306
 1349SOL     OW 4064   0.980   4.840   3.581
 1349SOL    HW1 4065   0.881   4.846   3.591
 1349SOL    HW2 4066   1.003   4.760   3.525
 1350SOL     OW 4067   0.705   4.774   2.230
 1350SOL    HW1 4068   0.691   4.781   2.329
 1350SOL    HW2 4069   0.789   4.723   2.212
 1351SOL     OW 4070   0.410   4.537   3.113
 1351SOL    HW1 4071   0.496   4.549   3.163
 1351SOL    HW2 4072   0.368   4.450   3.140
 1352SOL     OW 4073   1.274   4.110   3.124
 1352SOL    HW1 4074   1.295   4.184   3.188
 1352SOL    HW2 4075   1.185   4.127   3.081
 1353SOL     OW 4076   0.367   4.824   2.363
 1353SOL    HW1 4077   0.360   4.907   2.307
 1353SOL    HW2 4078   0.371   4.744   2.303
 1354SOL     OW 4079   0.566   4.261   2.727
 1354SOL    HW1 4080   0.578   4.327   2.653
 1354SOL    HW2 4081   0.612   4.295   2.810
 1355SOL     OW 4082   1.582   4.363   2.334
 1355SOL    HW1 4083   1.551   4.424   2.407
 1355SOL    HW2 4084   1.632   4.415   2.265
 1356SOL     OW 4085   0.402   4.475   3.460
 1356SOL    HW1 4086   0.470   4.530   3.413
 1356SOL    HW2 4087   0.442   4.387   3.487
 1357SOL     OW 4088   1.587   4.503   3.532
 1357SOL    HW1 4089   1.495   4.541   3.527
 1357SOL    HW2 4090   1.647   4.550   3.467
 1358SOL     OW 4091   1.013   3.829   3.632
 1358SOL    HW1 4092   1.019   3.914   3.580
 1358SOL    HW2 4093   1.045   3.753   3.575
 1359SOL     OW 4094   0.504   3.774   3.602
 1359SOL    HW1 4095   0.462   3.717   3.532
 1359SOL    HW2 4096   0.438   3.843   3.634
 1360SOL     OW 4097   0.573   4.594   2.891
 1360SOL    HW1 4098   0.617   4.683   2.882
 1360SOL    HW2 4099   0.510   4.594   2.968
 1361SOL     OW 4100   1.360   4.586   2.907
 1361SOL    HW1 4101   1.285   4.586   2.841
 1361SOL    HW2 4102   1.397   4.494   2.916
 1362SOL     OW 4103   1.209   4.249   2.137
 1362SOL    HW1 4104   1.222   4.165   2.191
 1362SOL    HW2 4105   1.180   4.323   2.197
 1363SOL     OW 4106   0.307   3.937   3.093
 1363SOL    HW1 4107   0.284   3.974   3.183
 1363SOL    HW2 4108   0.277   3.842   3.087
 1364SOL     OW 4109   0.037   5.034   3.144
 1364SOL    HW1 4110   0.090   4.985   3.212
 1364SOL    HW2 4111   0.059   5.132   3.149
 1365SOL     OW 4112   0.732   4.358   2.926
 1365SOL    HW1 4113   0.791   4.332   2.850
 1365SOL    HW2 4114   0.704   4.454   2.915
 1366SOL     OW 4115   1.728   4.659   3.716
 1366SOL    HW1 4116   1.682   4.652   3.627
 1366SOL    HW2 4117   1.666   4.703   3.782
 1367SOL     OW 4118   0.307   3.787   2.480
 1367SOL    HW1 4119   0.296   3.881   2.513
 1367SOL    HW2 4120   0.302   3.724   2.557
 1368SOL     OW 4121   1.622   4.091   2.236
 1368SOL    HW1 4122   1.624   4.015   2.300
 1368SOL    HW2 4123   1.574   4.168   2.276
 1369SOL     OW 4124   1.023   4.490   2.828
 1369SOL    HW1 4125   1.038   4.511   2.924
 1369SOL    HW2 4126   0.993   4.395   2.819
 1370SOL     OW 4127   0.350   4.622   3.666
 1370SOL    HW1 4128   0.426   4.666   3.714
 1370SOL    HW2 4129   0.385   4.575   3.584
 1371SOL     OW 4130   1.540   3.998   1.987
 1371SOL    HW1 4131   1.479   3.923   2.010
 1371SOL    HW2 4132   1.562   4.050   2.070
 1372SOL     OW 4133   1.303   4.562   1.904
 1372SOL    HW1 4134   1.337   4.469   1.919
 1372SOL    HW2 4135   1.321   4.589   1.809
 1373SOL     OW 4136   0.319   4.534   2.811
 1373SOL    HW1 4137   0.412   4.570   2.816
 1373SOL    HW2 4138   0.313   4.449   2.863
 1374SOL     OW 4139   0.339   4.233   2.868
 1374SOL    HW1 4140   0.287   4.150   2.851
 1374SOL    HW2 4141   0.416   4.238   2.804
 1375SOL     OW 4142   1.138   4.104   3.540
 1375SOL    HW1 4143   1.093   4.167   3.604
 1375SOL    HW2 4144   1.231   4.135   3.523
 1376SOL     OW 4145   1.160   3.931   3.339
 1376SOL    HW1 4146   1.160   3.995   3.416
 1376SOL    HW2 4147   1.188   3.979   3.256
 1377SOL     OW 4148   0.008   5.050   2.062
 1377SOL    HW1 4149  -0.085   5.071   2.031
 1377SOL    HW2 4150   0.018   4.951   2.075
 1378SOL     OW 4151   1.002   4.520   3.100
 1378SOL    HW1 4152   1.043   4.488   3.186
 1378SOL    HW2 4153   0.906   4.493   3.097
 1379SOL     OW 4154   0.040   4.268   2.976
 1379SOL    HW1 4155   0.125   4.235   2.935
 1379SOL    HW2 4156   0.053   4.283   3.074
 1380SOL     OW 4157   0.189   4.244   3.584
 1380SOL    HW1 4158   0.248   4.204   3.514
 1380SOL    HW2 4159   0.131   4.315   3.543
 1381SOL     OW 4160   1.369   4.674   3.522
 1381SOL    HW1 4161   1.408   4.763   3.542
 1381SOL    HW2 4162   1.379   4.654   3.425
 1382SOL     OW 4163   0.815   4.296   2.187
 1382SOL    HW1 4164   0.822   4.207   2.141
 1382SOL    HW2 4165   0.721   4.330   2.179
 1383SOL     OW 4166   1.657   4.328   3.068
 1383SOL    HW1 4167   1.619   4.259   3.130
 1383SOL    HW2 4168   1.739   4.292   3.024
 1384SOL     OW 4169   0.671   4.188   3.131
 1384SOL    HW1 4170   0.637   4.099   3.101
 1384SOL    HW2 4171   0.697   4.242   3.051
 1385SOL     OW 4172   0.473   4.224   2.053
 1385SOL    HW1 4173   0.534   4.304   2.057
 1385SOL    HW2 4174   0.378   4.255   2.060
 1386SOL     OW 4175   0.159   4.861   3.328
 1386SOL    HW1 4176   0.181   4.800   3.404
 1386SOL    HW2 4177   0.169   4.812   3.242
 1387SOL     OW 4178   1.347   4.783   3.096
 1387SOL    HW1 4179   1.371   4.720   3.022
 1387SOL    HW2 4180   1.257   4.823   3.078
 1388SOL     OW 4181   1.302   4.579   2.171
 1388SOL    HW1 4182   1.216   4.548   2.213
 1388SOL    HW2 4183   1.298   4.565   2.072
 1389SOL     OW 4184   0.083   4.982   2.884
 1389SOL    HW1 4185   0.078   4.981   2.984
 1389SOL    HW2 4186   0.000   4.941   2.846
 1390SOL     OW 4187   1.726   3.859   2.385
 1390SOL    HW1 4188   1.799   3.842   2.318
 1390SOL    HW2 4189   1.695   3.772   2.423
 1391SOL     OW 4190   1.280   4.651   2.534
 1391SOL    HW1 4191   1.340   4.570   2.536
 1391SOL    HW2 4192   1.320   4.720   2.474
 1392SOL     OW 4193   1.841   3.899   2.825
 1392SOL    HW1 4194   1.880   3.814   2.789
 1392SOL    HW2 4195   1.743   3.901   2.806
 1393SOL     OW 4196   0.263   4.050   2.582
 1393SOL    HW1 4197   0.184   4.101   2.548
 1393SOL    HW2 4198   0.254   4.035   2.680
 1394SOL     OW 4199   0.822   4.726   3.234
 1394SOL    HW1 4200   0.862   4.725   3.142
 1394SOL    HW2 4201   0.832   4.818   3.274
 1395SOL     OW 4202   0.916   4.634   2.153
 1395SOL    HW1 4203   0.979   4.672   2.085
 1395SOL    HW2 4204   0.956   4.551   2.192
 1396SOL     OW 4205   0.372   5.012   3.352
 1396SOL    HW1 4206   0.359   5.105   3.318
 1396SOL    HW2 4207   0.288   4.960   3.339
 1397SOL     OW 4208   1.614   5.016   3.151
 1397SOL    HW1 4209   1.674   5.019   3.231
 1397SOL    HW2 4210   1.539   5.080   3.164
 1398SOL     OW 4211   1.039   4.822   2.558
 1398SOL    HW1 4212   0.969   4.775   2.612
 1398SOL    HW2 4213   1.098   4.754   2.515
 1399SOL     OW 4214   1.014   3.960   2.833
 1399SOL    HW1 4215   1.006   3.924   2.740
 1399SOL    HW2 4216   1.012   3.884   2.898
 1400SOL     OW 4217   1.709   4.109   3.243
 1400SOL    HW1 4218   1.782   4.178   3.247
 1400SOL    HW2 4219   1.737   4.034   3.184
 1401SOL     OW 4220   0.105   4.737   3.588
 1401SOL    HW1 4221   0.028   4.704   3.642
 1401SOL    HW2 4222   0.190   4.707   3.630
 1402SOL     OW 4223   0.672   3.927   3.351
 1402SOL    HW1 4224   0.762   3.911   3.311
 1402SOL    HW2 4225   0.680   3.932   3.450
 1403SOL     OW 4226   0.075   4.069   1.895
 1403SOL    HW1 4227  -0.017   4.041   1.866
 1403SOL    HW2 4228   0.106   4.146   1.839
 1404SOL     OW 4229   1.440   4.580   3.260
 1404SOL    HW1 4230   1.383   4.632   3.197
 1404SOL    HW2 4231   1.536   4.592   3.236
 1405SOL     OW 4232   0.072   3.890   2.180
 1405SOL    HW1 4233   0.055   3.973   2.126
 1405SOL    HW2 4234   0.162   3.853   2.158
 1406SOL     OW 4235   0.613   4.566   3.293
 1406SOL    HW1 4236   0.669   4.647   3.276
 1406SOL    HW2 4237   0.672   4.486   3.296
 1407SOL     OW 4238   0.716   4.289   3.570
 1407SOL    HW1 4239   0.735   4.354   3.644
 1407SOL    HW2 4240   0.776   4.209   3.579
 1408SOL     OW 4241   1.450   4.944   3.495
 1408SOL    HW1 4242   1.441   4.934   3.594
 1408SOL    HW2 4243   1.546   4.937   3.469
 1409SOL     OW 4244   1.674   4.607   3.116
 1409SOL    HW1 4245   1.647   4.518   3.079
 1409SOL    HW2 4246   1.675   4.675   3.043
 1410SOL     OW 4247   1.225   4.049   2.311
 1410SOL    HW1 4248   1.290   3.975   2.300
 1410SOL    HW2 4249   1.245   4.099   2.395
 1411SOL     OW 4250   0.594   4.469   2.514
 1411SOL    HW1 4251   0.644   4.554   2.495
 1411SOL    HW2 4252   0.506   4.471   2.466
 1412SOL     OW 4253   1.777   4.066   3.504
 1412SOL    HW1 4254   1.760   4.097   3.410
 1412SOL    HW2 4255   1.693   4.029   3.542
 1413SOL     OW 4256   1.730   4.658   3.379
 1413SOL    HW1 4257   1.768   4.749   3.394
 1413SOL    HW2 4258   1.722   4.641   3.280
 1414SOL     OW 4259   0.859   4.680   2.723
 1414SOL    HW1 4260   0.913   4.611   2.771
 1414SOL    HW2 4261   0.827   4.749   2.789
 1415SOL     OW 4262   1.083   4.708   1.949
 1415SOL    HW1 4263   1.060   4.761   1.867
 1415SOL    HW2 4264   1.164   4.652   1.930
 1416SOL     OW 4265   0.079   4.964   2.515
 1416SOL    HW1 4266   0.078   4.917   2.603
 1416SOL    HW2 4267   0.161   4.936   2.464
 1417SOL     OW 4268   1.824   3.916   3.089
 1417SOL    HW1 4269   1.820   3.826   3.133
 1417SOL    HW2 4270   1.827   3.905   2.990
 1418SOL     OW 4271   0.428   4.148   2.382
 1418SOL    HW1 4272   0.458   4.076   2.320
 1418SOL    HW2 4273   0.389   4.108   2.465
 1419SOL     OW 4274   0.317   4.271   3.142
 1419SOL    HW1 4275   0.355   4.212   3.214
 1419SOL    HW2 4276   0.357   4.245   3.054
 1420SOL     OW 4277   1.424   3.938   2.974
 1420SOL    HW1 4278   1.476   3.873   3.029
 1420SOL    HW2 4279   1.375   4.001   3.035
 1421SOL     OW 4280   1.001   3.758   3.016
 1421SOL    HW1 4281   0.938   3.686   2.985
 1421SOL    HW2 4282   1.094   3.722   3.016
 1422SOL     OW 4283   0.770   5.054   2.163
 1422SOL    HW1 4284   0.724   4.967   2.180
 1422SOL    HW2 4285   0.861   5.051   2.204
 1423SOL     OW 4286   1.352   3.776   2.030
 1423SOL    HW1 4287   1.387   3.735   1.946
 1423SOL    HW2 4288   1.262   3.738   2.050
 1424SOL     OW 4289   1.300   4.177   2.553
 1424SOL    HW1 4290   1.241   4.257   2.557
 1424SOL    HW2 4291   1.315   4.142   2.646
 1425SOL     OW 4292   1.593   3.945   2.744
 1425SOL    HW1 4293   1.509   3.944   2.798
 1425SOL    HW2 4294   1.595   4.028   2.688
 1426SOL     OW 4295   0.039   4.801   2.162
 1426SOL    HW1 4296   0.138   4.790   2.153
 1426SOL    HW2 4297  -0.001   4.715   2.194
 1427SOL     OW 4298   0.230   4.352   3.837
 1427SOL    HW1 4299   0.137   4.350   3.874
 1427SOL    HW2 4300   0.231   4.313   3.745
 1428SOL     OW 4301   0.225   3.999   4.720
 1428SOL    HW1 4302   0.260   3.982   4.812
 1428SOL    HW2 4303   0.137   3.954   4.708
 1429SOL     OW 4304   0.019   4.092   4.371
 1429SOL    HW1 4305  -0.063   4.135   4.410
 1429SOL    HW2 4306  -0.009   4.019   4.308
 1430SOL     OW 4307   1.135   4.427   4.441
 1430SOL    HW1 4308   1.192   4.505   4.416
 1430SOL    HW2 4309   1.075   4.453   4.517
 1431SOL     OW 4310   1.755   4.331   3.955
 1431SOL    HW1 4311   1.743   4.318   3.856
 1431SOL    HW2 4312   1.725   4.250   4.004
 1432SOL     OW 4313   0.768   4.868   4.747
 1432SOL    HW1 4314   0.690   4.885   4.807
 1432SOL    HW2 4315   0.802   4.955   4.711
 1433SOL     OW 4316   0.685   4.736   4.389
 1433SOL    HW1 4317   0.754   4.720   4.459
 1433SOL    HW2 4318   0.612   4.793   4.427
 1434SOL     OW 4319   1.603   4.171   4.461
 1434SOL    HW1 4320   1.529   4.217   4.411
 1434SOL    HW2 4321   1.654   4.239   4.514
 1435SOL     OW 4322   0.240   4.815   4.610
 1435SOL    HW1 4323   0.254   4.731   4.662
 1435SOL    HW2 4324   0.185   4.879   4.665
 1436SOL     OW 4325   0.606   4.688   3.847
 1436SOL    HW1 4326   0.613   4.772   3.793
 1436SOL    HW2 4327   0.652   4.701   3.935
 1437SOL     OW 4328   0.122   4.367   4.287
 1437SOL    HW1 4329   0.077   4.279   4.304
 1437SOL    HW2 4330   0.121   4.421   4.371
 1438SOL     OW 4331   1.689   4.646   4.336
 1438SOL    HW1 4332   1.784   4.617   4.344
 1438SOL    HW2 4333   1.681   4.711   4.261
 1439SOL     OW 4334   1.641   4.832   4.156
 1439SOL    HW1 4335   1.727   4.834   4.104
 1439SOL    HW2 4336   1.655   4.879   4.244
 1440SOL     OW 4337   0.809   3.728   4.226
 1440SOL    HW1 4338   0.849   3.819   4.217
 1440SOL    HW2 4339   0.709   3.736   4.232
 1441SOL     OW 4340   0.197   4.700   4.988
 1441SOL    HW1 4341   0.286   4.655   4.974
 1441SOL    HW2 4342   0.124   4.635   4.969
 1442SOL     OW 4343   1.525   4.723   3.914
 1442SOL    HW1 4344   1.462   4.647   3.927
 1442SOL    HW2 4345   1.573   4.741   4.000
 1443SOL     OW 4346   0.598   4.453   3.994
 1443SOL    HW1 4347   0.622   4.522   3.926
 1443SOL    HW2 4348   0.520   4.486   4.048
 1444SOL     OW 4349   1.281   4.069   4.668
 1444SOL    HW1 4350   1.195   4.019   4.655
 1444SOL    HW2 4351   1.343   4.015   4.724
 1445SOL     OW 4352   1.041   4.425   4.153
 1445SOL    HW1 4353   1.067   4.421   4.249
 1445SOL    HW2 4354   0.956   4.374   4.139
 1446SOL     OW 4355   0.076   4.535   4.513
 1446SOL    HW1 4356   0.175   4.523   4.522
 1446SOL    HW2 4357   0.052   4.630   4.534
 1447SOL     OW 4358   0.865   4.072   3.919
 1447SOL    HW1 4359   0.924   4.135   3.870
 1447SOL    HW2 4360   0.884   3.978   3.890
 1448SOL     OW 4361   1.362   4.868   4.269
 1448SOL    HW1 4362   1.445   4.839   4.221
 1448SOL    HW2 4363   1.313   4.935   4.213
 1449SOL     OW 4364   0.550   3.920   4.609
 1449SOL    HW1 4365   0.545   3.915   4.709
 1449SOL    HW2 4366   0.552   4.016   4.580
 1450SOL     OW 4367   1.795   4.790   4.597
 1450SOL    HW1 4368   1.733   4.775   4.521
 1450SOL    HW2 4369   1.743   4.801   4.682
 1451SOL     OW 4370   0.321   4.667   3.966
 1451SOL    HW1 4371   0.403   4.706   3.924
 1451SOL    HW2 4372   0.294   4.585   3.917
 1452SOL     OW 4373   1.458   4.459   4.452
 1452SOL    HW1 4374   1.453   4.394   4.527
 1452SOL    HW2 4375   1.538   4.518   4.465
 1453SOL     OW 4376   1.400   3.831   4.150
 1453SOL    HW1 4377   1.376   3.794   4.060
 1453SOL    HW2 4378   1.499   3.847   4.154
 1454SOL     OW 4379   0.382   4.424   4.204
 1454SOL    HW1 4380   0.427   4.334   4.201
 1454SOL    HW2 4381   0.288   4.413   4.237
 1455SOL     OW 4382   0.614   3.846   3.841
 1455SOL    HW1 4383   0.712   3.824   3.848
 1455SOL    HW2 4384   0.583   3.829   3.748
 1456SOL     OW 4385   0.922   4.227   4.623
 1456SOL    HW1 4386   0.897   4.218   4.527
 1456SOL    HW2 4387   0.970   4.145   4.654
 1457SOL     OW 4388   0.539   3.788   4.236
 1457SOL    HW1 4389   0.458   3.789   4.294
 1457SOL    HW2 4390   0.542   3.871   4.181
 1458SOL     OW 4391   0.297   3.759   3.895
 1458SOL    HW1 4392   0.346   3.843   3.874
 1458SOL    HW2 4393   0.359   3.694   3.940
 1459SOL     OW 4394   0.935   3.960   4.204
 1459SOL    HW1 4395   0.887   4.001   4.126
 1459SOL    HW2 4396   1.034   3.958   4.185
 1460SOL     OW 4397   0.459   4.876   4.465
 1460SOL    HW1 4398   0.388   4.849   4.530
 1460SOL    HW2 4399   0.433   4.848   4.372
 1461SOL     OW 4400   1.032   4.273   3.740
 1461SOL    HW1 4401   0.991   4.355   3.701
 1461SOL    HW2 4402   1.096   4.299   3.813
 1462SOL     OW 4403   0.866   4.178   4.366
 1462SOL    HW1 4404   0.834   4.250   4.304
 1462SOL    HW2 4405   0.890   4.097   4.313
 1463SOL     OW 4406   1.017   3.763   4.477
 1463SOL    HW1 4407   0.945   3.768   4.408
 1463SOL    HW2 4408   0.993   3.694   4.546
 1464SOL     OW 4409   1.429   4.897   4.591
 1464SOL    HW1 4410   1.374   4.813   4.584
 1464SOL    HW2 4411   1.455   4.926   4.499
 1465SOL     OW 4412   1.466   4.314   4.716
 1465SOL    HW1 4413   1.436   4.219   4.723
 1465SOL    HW2 4414   1.539   4.330   4.782
 1466SOL     OW 4415   1.857   4.557   4.101
 1466SOL    HW1 4416   1.899   4.493   4.165
 1466SOL    HW2 4417   1.819   4.506   4.023
 1467SOL     OW 4418   1.390   4.299   3.802
 1467SOL    HW1 4419   1.336   4.278   3.883
 1467SOL    HW2 4420   1.481   4.258   3.811
 1468SOL     OW 4421   0.527   3.980   4.052
 1468SOL    HW1 4422   0.554   3.921   3.977
 1468SOL    HW2 4423   0.527   4.075   4.021
 1469SOL     OW 4424   1.638   4.823   4.803
 1469SOL    HW1 4425   1.643   4.904   4.862
 1469SOL    HW2 4426   1.552   4.825   4.752
 1470SOL     OW 4427   0.705   4.774   4.092
 1470SOL    HW1 4428   0.691   4.781   4.191
 1470SOL    HW2 4429   0.789   4.723   4.074
 1471SOL     OW 4430   0.410   4.537   4.975
 1471SOL    HW1 4431   0.496   4.549   5.025
 1471SOL    HW2 4432   0.368   4.450   5.002
 1472SOL     OW 4433   0.367   4.824   4.225
 1472SOL    HW1 4434   0.360   4.907   4.169
 1472SOL    HW2 4435   0.371   4.744   4.165
 1473SOL     OW 4436   0.566   4.261   4.589
 1473SOL    HW1 4437   0.578   4.327   4.515
 1473SOL    HW2 4438   0.612   4.295   4.672
 1474SOL     OW 4439   1.582   4.363   4.196
 1474SOL    HW1 4440   1.551   4.424   4.269
 1474SOL    HW2 4441   1.632   4.415   4.127
 1475SOL     OW 4442   0.573   4.594   4.753
 1475SOL    HW1 4443   0.617   4.683   4.744
 1475SOL    HW2 4444   0.510   4.594   4.830
 1476SOL     OW 4445   1.360   4.586   4.769
 1476SOL    HW1 4446   1.285   4.586   4.703
 1476SOL    HW2 4447   1.397   4.494   4.778
 1477SOL     OW 4448   1.209   4.249   3.999
 1477SOL    HW1 4449   1.222   4.165   4.053
 1477SOL    HW2 4450   1.180   4.323   4.059
 1478SOL     OW 4451   0.307   3.937   4.955
 1478SOL    HW1 4452   0.284   3.974   5.045
 1478SOL    HW2 4453   0.277   3.842   4.949
 1479SOL     OW 4454   0.037   5.034   5.006
 1479SOL    HW1 4455   0.090   4.985   5.074
 1479SOL    HW2 4456   0.059   5.132   5.011
 1480SOL     OW 4457   0.732   4.358   4.788
 1480SOL    HW1 4458   0.791   4.332   4.712
 1480SOL    HW2 4459   0.704   4.454   4.777
 1481SOL     OW 4460   0.307   3.787   4.342
 1481SOL    HW1 4461   0.296   3.881   4.375
 1481SOL    HW2 4462   0.302   3.724   4.419
 1482SOL     OW 4463   1.622   4.091   4.098
 1482SOL    HW1 4464   1.624   4.015   4.162
 1482SOL    HW2 4465   1.574   4.168   4.138
 1483SOL     OW 4466   1.023   4.490   4.690
 1483SOL    HW1 4467   1.038   4.511   4.786
 1483SOL    HW2 4468   0.993   4.395   4.681
 1484SOL     OW 4469   1.540   3.998   3.849
 1484SOL    HW1 4470   1.479   3.923   3.872
 1484SOL    HW2 4471   1.562   4.050   3.932
 1485SOL     OW 4472   1.303   4.562   3.766
 1485SOL    HW1 4473   1.337   4.469   3.781
 1485SOL    HW2 4474   1.321   4.589   3.671
 1486SOL     OW 4475   0.319   4.534   4.673
 1486SOL    HW1 4476   0.412   4.570   4.678
 1486SOL    HW2 4477   0.313   4.449   4.725
 1487SOL     OW 4478   0.339   4.233   4.730
 1487SOL    HW1 4479   0.287   4.150   4.713
 1487SOL    HW2 4480   0.416   4.238   4.666
 1488SOL     OW 4481   1.160   3.931   5.201
 1488SOL    HW1 4482   1.160   3.995   5.278
 1488SOL    HW2 4483   1.188   3.979   5.118
 1489SOL     OW 4484   0.008   5.050   3.924
 1489SOL    HW1 4485  -0.085   5.071   3.893
 1489SOL    HW2 4486   0.018   4.951   3.937
 1490SOL     OW 4487   1.002   4.520   4.962
 1490SOL    HW1 4488   1.043   4.488   5.048
 1490SOL    HW2 4489   0.906   4.493   4.959
 1491SOL     OW 4490   0.040   4.268   4.838
 1491SOL    HW1 4491   0.125   4.235   4.797
 1491SOL    HW2 4492   0.053   4.283   4.936
 1492SOL     OW 4493   0.815   4.296   4.049
 1492SOL    HW1 4494   0.822   4.207   4.003
 1492SOL    HW2 4495   0.721   4.330   4.041
 1493SOL     OW 4496   1.657   4.328   4.930
 1493SOL    HW1 4497   1.619   4.259   4.992
 1493SOL    HW2 4498   1.739   4.292   4.886
 1494SOL     OW 4499   0.671   4.188   4.993
 1494SOL    HW1 4500   0.637   4.099   4.963
 1494SOL    HW2 4501   0.697   4.242   4.913
 1495SOL     OW 4502   0.473   4.224   3.915
 1495SOL    HW1 4503   0.534   4.304   3.919
 1495SOL    HW2 4504   0.378   4.255   3.922
 1496SOL     OW 4505   1.347   4.783   4.958
 1496SOL    HW1 4506   1.371   4.720   4.884
 1496SOL    HW2 4507   1.257   4.823   4.940
 1497SOL     OW 4508   1.302   4.579   4.033
 1497SOL    HW1 4509   1.216   4.548   4.075
 1497SOL    HW2 4510   1.298   4.565   3.934
 1498SOL     OW 4511   0.083   4.982   4.746
 1498SOL    HW1 4512   0.078   4.981   4.846
 1498SOL    HW2 4513   0.000   4.941   4.708
 1499SOL     OW 4514   1.726   3.859   4.247
 1499SOL    HW1 4515   1.799   3.842   4.180
 1499SOL    HW2 4516   1.695   3.772   4.285
 1500SOL     OW 4517   1.280   4.651   4.396
 1500SOL    HW1 4518   1.340   4.570   4.398
 1500SOL    HW2 4519   1.320   4.720   4.336
 1501SOL     OW 4520   1.841   3.899   4.687
 1501SOL    HW1 4521   1.880   3.814   4.651
 1501SOL    HW2 4522   1.743   3.901   4.668
 1502SOL     OW 4523   0.263   4.050   4.444
 1502SOL    HW1 4524   0.184   4.101   4.410
 1502SOL    HW2 4525   0.254   4.035   4.542
 1503SOL     OW 4526   0.822   4.726   5.096
 1503SOL    HW1 4527   0.862   4.725   5.004
 1503SOL    HW2 4528   0.832   4.818   5.136
 1504SOL     OW 4529   0.916   4.634   4.015
 1504SOL    HW1 4530   0.979   4.672   3.947
 1504SOL    HW2 4531   0.956   4.551   4.054
 1505SOL     OW 4532   1.614   5.016   5.013
 1505SOL    HW1 4533   1.674   5.019   5.093
 1505SOL    HW2 4534   1.539   5.080   5.026
 1506SOL     OW 4535   1.039   4.822   4.420
 1506SOL    HW1 4536   0.969   4.775   4.474
 1506SOL    HW2 4537   1.098   4.754   4.377
 1507SOL     OW 4538   1.014   3.960   4.695
 1507SOL    HW1 4539   1.006   3.924   4.602
 1507SOL    HW2 4540   1.012   3.884   4.760
 1508SOL     OW 4541   1.709   4.109   5.105
 1508SOL    HW1 4542   1.782   4.178   5.109
 1508SOL    HW2 4543   1.737   4.034   5.046
 1509SOL     OW 4544   0.075   4.069   3.757
 1509SOL    HW1 4545  -0.017   4.041   3.728
 1509SOL    HW2 4546   0.106   4.146   3.701
 1510SOL     OW 4547   0.072   3.890   4.042
 1510SOL    HW1 4548   0.055   3.973   3.988
 1510SOL    HW2 4549   0.162   3.853   4.020
 1511SOL     OW 4550   1.674   4.607   4.978
 1511SOL    HW1 4551   1.647   4.518   4.941
 1511SOL    HW2 4552   1.675   4.675   4.905
 1512SOL     OW 4553   1.225   4.049   4.173
 1512SOL    HW1 4554   1.290   3.975   4.162
 1512SOL    HW2 4555   1.245   4.099   4.257
 1513SOL     OW 4556   0.594   4.469   4.376
 1513SOL    HW1 4557   0.644   4.554   4.357
 1513SOL    HW2 4558   0.506   4.471   4.328
 1514SOL     OW 4559   1.730   4.658   5.241
 1514SOL    HW1 4560   1.768   4.749   5.256
 1514SOL    HW2 4561   1.722   4.641   5.142
 1515SOL     OW 4562   0.859   4.680   4.585
 1515SOL    HW1 4563   0.913   4.611   4.633
 1515SOL    HW2 4564   0.827   4.749   4.651
 1516SOL     OW 4565   1.083   4.708   3.811
 1516SOL    HW1 4566   1.060   4.761   3.729
 1516SOL    HW2 4567   1.164   4.652   3.792
 1517SOL     OW 4568   0.079   4.964   4.377
 1517SOL    HW1 4569   0.078   4.917   4.465
 1517SOL    HW2 4570   0.161   4.936   4.326
 1518SOL     OW 4571   1.824   3.916   4.951
 1518SOL    HW1 4572   1.820   3.826   4.995
 1518SOL    HW2 4573   1.827   3.905   4.852
 1519SOL     OW 4574   0.428   4.148   4.244
 1519SOL    HW1 4575   0.458   4.076   4.182
 1519SOL    HW2 4576   0.389   4.108   4.327
 1520SOL     OW 4577   1.424   3.938   4.836
 1520SOL    HW1 4578   1.476   3.873   4.891
 1520SOL    HW2 4579   1.375   4.001   4.897
 1521SOL     OW 4580   1.001   3.758   4.878
 1521SOL    HW1 4581   0.938   3.686   4.847
 1521SOL    HW2 4582   1.094   3.722   4.878
 1522SOL     OW 4583   0.770   5.054   4.025
 1522SOL    HW1 4584   0.724   4.967   4.042
 1522SOL    HW2 4585   0.861   5.051   4.066
 1523SOL     OW 4586   1.352   3.776   3.892
 1523SOL    HW1 4587   1.387   3.735   3.808
 1523SOL    HW2 4588   1.262   3.738   3.912
 1524SOL     OW 4589   1.300   4.177   4.415
 1524SOL    HW1 4590   1.241   4.257   4.419
 1524SOL    HW2 4591   1.315   4.142   4.508
 1525SOL     OW 4592   1.593   3.945   4.606
 1525SOL    HW1 4593   1.509   3.944   4.660
 1525SOL    HW2 4594   1.595   4.028   4.550
 1526SOL     OW 4595   0.039   4.801   4.024
 1526SOL    HW1 4596   0.138   4.790   4.015
 1526SOL    HW2 4597  -0.001   4.715   4.056
 1527SOL     OW 4598   2.092   0.628   0.113
 1527SOL    HW1 4599   1.999   0.626   0.150
 1527SOL    HW2 4600   2.093   0.589   0.021
 1528SOL     OW 4601   2.087   0.275   0.996
 1528SOL    HW1 4602   2.122   0.258   1.088
 1528SOL    HW2 4603   1.999   0.230   0.984
 1529SOL     OW 4604   1.881   0.368   0.647
 1529SOL    HW1 4605   1.799   0.411   0.686
 1529SOL    HW2 4606   1.853   0.295   0.584
 1530SOL     OW 4607   2.431   1.275   1.165
 1530SOL    HW1 4608   2.338   1.268   1.128
 1530SOL    HW2 4609   2.442   1.364   1.209
 1531SOL     OW 4610   3.417   1.511   0.703
 1531SOL    HW1 4611   3.360   1.495   0.784
 1531SOL    HW2 4612   3.358   1.521   0.623
 1532SOL     OW 4613   2.997   0.703   0.717
 1532SOL    HW1 4614   3.054   0.781   0.692
 1532SOL    HW2 4615   2.937   0.729   0.793
 1533SOL     OW 4616   3.617   0.607   0.231
 1533SOL    HW1 4617   3.605   0.594   0.132
 1533SOL    HW2 4618   3.587   0.526   0.280
 1534SOL     OW 4619   2.630   1.144   1.023
 1534SOL    HW1 4620   2.552   1.161   1.083
 1534SOL    HW2 4621   2.664   1.231   0.987
 1535SOL     OW 4622   2.712   0.798   1.823
 1535SOL    HW1 4623   2.708   0.874   1.888
 1535SOL    HW2 4624   2.734   0.834   1.732
 1536SOL     OW 4625   2.547   1.012   0.665
 1536SOL    HW1 4626   2.616   0.996   0.735
 1536SOL    HW2 4627   2.474   1.069   0.703
 1537SOL     OW 4628   2.548   1.161   1.803
 1537SOL    HW1 4629   2.608   1.240   1.817
 1537SOL    HW2 4630   2.462   1.192   1.762
 1538SOL     OW 4631   2.197   1.435   1.061
 1538SOL    HW1 4632   2.119   1.404   1.008
 1538SOL    HW2 4633   2.255   1.493   1.004
 1539SOL     OW 4634   3.322   1.505   1.339
 1539SOL    HW1 4635   3.346   1.599   1.365
 1539SOL    HW2 4636   3.306   1.451   1.421
 1540SOL     OW 4637   2.300   0.392   1.499
 1540SOL    HW1 4638   2.382   0.336   1.508
 1540SOL    HW2 4639   2.219   0.334   1.503
 1541SOL     OW 4640   3.465   0.447   0.737
 1541SOL    HW1 4641   3.391   0.493   0.687
 1541SOL    HW2 4642   3.516   0.515   0.790
 1542SOL     OW 4643   2.093   1.713   0.483
 1542SOL    HW1 4644   2.127   1.790   0.537
 1542SOL    HW2 4645   2.137   1.713   0.393
 1543SOL     OW 4646   2.989   1.341   1.690
 1543SOL    HW1 4647   3.036   1.341   1.778
 1543SOL    HW2 4648   2.941   1.254   1.679
 1544SOL     OW 4649   2.092   1.434   0.538
 1544SOL    HW1 4650   2.066   1.530   0.538
 1544SOL    HW2 4651   2.021   1.380   0.583
 1545SOL     OW 4652   2.102   1.091   0.886
 1545SOL    HW1 4653   2.116   1.007   0.938
 1545SOL    HW2 4654   2.047   1.155   0.941
 1546SOL     OW 4655   2.482   1.786   1.439
 1546SOL    HW1 4656   2.390   1.769   1.474
 1546SOL    HW2 4657   2.510   1.878   1.465
 1547SOL     OW 4658   2.468   0.964   0.123
 1547SOL    HW1 4659   2.475   1.048   0.069
 1547SOL    HW2 4660   2.514   0.977   0.211
 1548SOL     OW 4661   3.456   0.114   1.480
 1548SOL    HW1 4662   3.438   0.181   1.408
 1548SOL    HW2 4663   3.453   0.160   1.569
 1549SOL     OW 4664   1.984   0.643   0.563
 1549SOL    HW1 4665   1.939   0.555   0.580
 1549SOL    HW2 4666   1.983   0.697   0.647
 1550SOL     OW 4667   3.704   1.767   0.359
 1550SOL    HW1 4668   3.758   1.738   0.439
 1550SOL    HW2 4669   3.734   1.857   0.330
 1551SOL     OW 4670   1.889   1.596   0.117
 1551SOL    HW1 4671   1.870   1.500   0.138
 1551SOL    HW2 4672   1.856   1.654   0.192
 1552SOL     OW 4673   3.551   0.922   0.612
 1552SOL    HW1 4674   3.646   0.893   0.620
 1552SOL    HW2 4675   3.543   0.987   0.537
 1553SOL     OW 4676   3.503   1.108   0.432
 1553SOL    HW1 4677   3.589   1.110   0.380
 1553SOL    HW2 4678   3.517   1.155   0.520
 1554SOL     OW 4679   1.975   0.737   1.597
 1554SOL    HW1 4680   2.063   0.724   1.642
 1554SOL    HW2 4681   1.962   0.834   1.575
 1555SOL     OW 4682   2.475   1.365   0.726
 1555SOL    HW1 4683   2.426   1.278   0.735
 1555SOL    HW2 4684   2.452   1.408   0.639
 1556SOL     OW 4685   3.155   1.228   1.423
 1556SOL    HW1 4686   3.192   1.155   1.365
 1556SOL    HW2 4687   3.207   1.233   1.508
 1557SOL     OW 4688   2.671   0.004   0.502
 1557SOL    HW1 4689   2.711   0.095   0.493
 1557SOL    HW2 4690   2.571   0.012   0.508
 1558SOL     OW 4691   2.059   0.976   1.264
 1558SOL    HW1 4692   2.148   0.931   1.250
 1558SOL    HW2 4693   1.986   0.911   1.245
 1559SOL     OW 4694   3.387   0.999   0.190
 1559SOL    HW1 4695   3.324   0.923   0.203
 1559SOL    HW2 4696   3.435   1.017   0.276
 1560SOL     OW 4697   3.049   1.792   1.616
 1560SOL    HW1 4698   3.073   1.852   1.540
 1560SOL    HW2 4699   3.056   1.697   1.586
 1561SOL     OW 4700   2.179   0.251   1.801
 1561SOL    HW1 4701   2.250   0.322   1.807
 1561SOL    HW2 4702   2.091   0.290   1.829
 1562SOL     OW 4703   3.328   1.417   0.953
 1562SOL    HW1 4704   3.269   1.423   1.033
 1562SOL    HW2 4705   3.313   1.329   0.907
 1563SOL     OW 4706   3.529   1.714   0.572
 1563SOL    HW1 4707   3.488   1.691   0.484
 1563SOL    HW2 4708   3.511   1.640   0.637
 1564SOL     OW 4709   2.460   0.729   0.270
 1564SOL    HW1 4710   2.484   0.798   0.202
 1564SOL    HW2 4711   2.382   0.762   0.324
 1565SOL     OW 4712   3.143   0.345   0.944
 1565SOL    HW1 4713   3.057   0.295   0.931
 1565SOL    HW2 4714   3.205   0.291   1.000
 1566SOL     OW 4715   3.438   1.662   0.307
 1566SOL    HW1 4716   3.527   1.708   0.310
 1566SOL    HW2 4717   3.417   1.638   0.212
 1567SOL     OW 4718   2.669   0.605   1.465
 1567SOL    HW1 4719   2.622   0.602   1.554
 1567SOL    HW2 4720   2.618   0.550   1.399
 1568SOL     OW 4721   3.256   0.469   1.674
 1568SOL    HW1 4722   3.236   0.512   1.762
 1568SOL    HW2 4723   3.334   0.407   1.683
 1569SOL     OW 4724   2.835   0.890   1.572
 1569SOL    HW1 4725   2.881   0.806   1.543
 1569SOL    HW2 4726   2.779   0.924   1.497
 1570SOL     OW 4727   2.853   0.410   1.242
 1570SOL    HW1 4728   2.776   0.444   1.296
 1570SOL    HW2 4729   2.819   0.359   1.163
 1571SOL     OW 4730   2.903   0.701   0.429
 1571SOL    HW1 4731   2.929   0.697   0.525
 1571SOL    HW2 4732   2.818   0.650   0.415
 1572SOL     OW 4733   1.938   0.811   0.789
 1572SOL    HW1 4734   2.037   0.799   0.798
 1572SOL    HW2 4735   1.914   0.906   0.810
 1573SOL     OW 4736   1.992   1.821   1.571
 1573SOL    HW1 4737   1.982   1.806   1.670
 1573SOL    HW2 4738   1.906   1.857   1.535
 1574SOL     OW 4739   2.727   0.348   0.195
 1574SOL    HW1 4740   2.786   0.411   0.146
 1574SOL    HW2 4741   2.746   0.254   0.166
 1575SOL     OW 4742   3.581   0.585   1.831
 1575SOL    HW1 4743   3.555   0.674   1.795
 1575SOL    HW2 4744   3.579   0.517   1.758
 1576SOL     OW 4745   3.224   1.144   0.545
 1576SOL    HW1 4746   3.307   1.115   0.497
 1576SOL    HW2 4747   3.175   1.211   0.489
 1577SOL     OW 4748   2.412   0.196   0.885
 1577SOL    HW1 4749   2.407   0.191   0.985
 1577SOL    HW2 4750   2.414   0.292   0.856
 1578SOL     OW 4751   2.870   1.456   0.477
 1578SOL    HW1 4752   2.824   1.528   0.425
 1578SOL    HW2 4753   2.866   1.476   0.575
 1579SOL     OW 4754   2.213   1.801   0.853
 1579SOL    HW1 4755   2.263   1.715   0.859
 1579SOL    HW2 4756   2.278   1.878   0.850
 1580SOL     OW 4757   3.657   1.066   0.873
 1580SOL    HW1 4758   3.595   1.051   0.797
 1580SOL    HW2 4759   3.605   1.077   0.958
 1581SOL     OW 4760   3.089   1.550   1.506
 1581SOL    HW1 4761   3.095   1.473   1.570
 1581SOL    HW2 4762   3.037   1.524   1.426
 1582SOL     OW 4763   2.183   0.943   0.242
 1582SOL    HW1 4764   2.265   0.982   0.200
 1582SOL    HW2 4765   2.156   0.861   0.193
 1583SOL     OW 4766   3.320   0.735   0.728
 1583SOL    HW1 4767   3.315   0.670   0.803
 1583SOL    HW2 4768   3.400   0.794   0.741
 1584SOL     OW 4769   2.323   1.266   1.727
 1584SOL    HW1 4770   2.273   1.267   1.641
 1584SOL    HW2 4771   2.260   1.248   1.803
 1585SOL     OW 4772   2.973   1.776   0.237
 1585SOL    HW1 4773   2.913   1.714   0.287
 1585SOL    HW2 4774   3.004   1.732   0.152
 1586SOL     OW 4775   2.064   0.285   1.498
 1586SOL    HW1 4776   1.984   0.345   1.485
 1586SOL    HW2 4777   2.054   0.236   1.584
 1587SOL     OW 4778   3.494   1.377   0.081
 1587SOL    HW1 4779   3.462   1.471   0.071
 1587SOL    HW2 4780   3.418   1.314   0.069
 1588SOL     OW 4781   2.326   1.743   0.323
 1588SOL    HW1 4782   2.359   1.782   0.409
 1588SOL    HW2 4783   2.402   1.736   0.258
 1589SOL     OW 4784   3.262   0.107   0.426
 1589SOL    HW1 4785   3.238   0.070   0.336
 1589SOL    HW2 4786   3.361   0.123   0.430
 1590SOL     OW 4787   2.111   1.785   1.241
 1590SOL    HW1 4788   2.168   1.720   1.291
 1590SOL    HW2 4789   2.095   1.752   1.148
 1591SOL     OW 4790   2.802   1.698   0.904
 1591SOL    HW1 4791   2.882   1.641   0.925
 1591SOL    HW2 4792   2.753   1.658   0.827
 1592SOL     OW 4793   2.244   0.700   0.480
 1592SOL    HW1 4794   2.289   0.610   0.477
 1592SOL    HW2 4795   2.150   0.689   0.513
 1593SOL     OW 4796   3.409   0.222   1.729
 1593SOL    HW1 4797   3.404   0.259   1.821
 1593SOL    HW2 4798   3.337   0.153   1.717
 1594SOL     OW 4799   2.476   0.122   0.117
 1594SOL    HW1 4800   2.574   0.100   0.124
 1594SOL    HW2 4801   2.445   0.105   0.024
 1595SOL     OW 4802   2.643   0.264   1.749
 1595SOL    HW1 4803   2.710   0.203   1.792
 1595SOL    HW2 4804   2.570   0.283   1.814
 1596SOL     OW 4805   2.750   1.514   1.195
 1596SOL    HW1 4806   2.727   1.489   1.101
 1596SOL    HW2 4807   2.811   1.445   1.234
 1597SOL     OW 4808   3.213   0.590   1.433
 1597SOL    HW1 4809   3.241   0.547   1.518
 1597SOL    HW2 4810   3.238   0.686   1.434
 1598SOL     OW 4811   2.665   1.402   0.924
 1598SOL    HW1 4812   2.755   1.416   0.882
 1598SOL    HW2 4813   2.594   1.404   0.853
 1599SOL     OW 4814   2.784   0.503   0.899
 1599SOL    HW1 4815   2.759   0.494   0.803
 1599SOL    HW2 4816   2.832   0.421   0.930
 1600SOL     OW 4817   2.401   0.064   0.512
 1600SOL    HW1 4818   2.320   0.065   0.570
 1600SOL    HW2 4819   2.404   0.147   0.457
 1601SOL     OW 4820   3.296   1.188   0.041
 1601SOL    HW1 4821   3.328   1.112   0.098
 1601SOL    HW2 4822   3.204   1.215   0.071
 1602SOL     OW 4823   2.159   0.035   0.171
 1602SOL    HW1 4824   2.208   0.119   0.150
 1602SOL    HW2 4825   2.221  -0.030   0.216
 1603SOL     OW 4826   2.797   0.236   0.480
 1603SOL    HW1 4827   2.749   0.277   0.402
 1603SOL    HW2 4828   2.896   0.234   0.461
 1604SOL     OW 4829   2.938   0.683   1.464
 1604SOL    HW1 4830   2.858   0.622   1.467
 1604SOL    HW2 4831   3.019   0.630   1.440
 1605SOL     OW 4832   3.089   1.570   0.793
 1605SOL    HW1 4833   3.110   1.644   0.728
 1605SOL    HW2 4834   3.157   1.570   0.866
 1606SOL     OW 4835   2.321   1.152   0.741
 1606SOL    HW1 4836   2.250   1.125   0.806
 1606SOL    HW2 4837   2.295   1.124   0.648
 1607SOL     OW 4838   3.133   1.797   0.591
 1607SOL    HW1 4839   3.177   1.861   0.527
 1607SOL    HW2 4840   3.083   1.849   0.661
 1608SOL     OW 4841   2.894   0.549   0.016
 1608SOL    HW1 4842   2.853   0.631  -0.023
 1608SOL    HW2 4843   2.958   0.575   0.089
 1609SOL     OW 4844   1.940   0.556   1.386
 1609SOL    HW1 4845   2.032   0.555   1.345
 1609SOL    HW2 4846   1.934   0.630   1.453
 1610SOL     OW 4847   2.423   0.222   1.147
 1610SOL    HW1 4848   2.461   0.138   1.184
 1610SOL    HW2 4849   2.335   0.241   1.191
 1611SOL     OW 4850   2.728   0.454   0.642
 1611SOL    HW1 4851   2.696   0.526   0.580
 1611SOL    HW2 4852   2.752   0.373   0.589
 1612SOL     OW 4853   2.879   0.039   0.753
 1612SOL    HW1 4854   2.807   0.044   0.684
 1612SOL    HW2 4855   2.855  -0.030   0.822
 1613SOL     OW 4856   3.291   1.173   0.867
 1613SOL    HW1 4857   3.236   1.089   0.860
 1613SOL    HW2 4858   3.317   1.202   0.775
 1614SOL     OW 4859   3.328   0.590   0.992
 1614SOL    HW1 4860   3.298   0.495   0.999
 1614SOL    HW2 4861   3.401   0.606   1.058
 1615SOL     OW 4862   3.719   0.833   0.377
 1615SOL    HW1 4863   3.761   0.769   0.441
 1615SOL    HW2 4864   3.681   0.782   0.299
 1616SOL     OW 4865   2.350   1.385   0.174
 1616SOL    HW1 4866   2.263   1.370   0.221
 1616SOL    HW2 4867   2.333   1.411   0.079
 1617SOL     OW 4868   3.526   1.280   0.657
 1617SOL    HW1 4869   3.625   1.288   0.671
 1617SOL    HW2 4870   3.481   1.364   0.688
 1618SOL     OW 4871   3.252   0.575   0.078
 1618SOL    HW1 4872   3.198   0.554   0.159
 1618SOL    HW2 4873   3.343   0.534   0.087
 1619SOL     OW 4874   2.389   0.256   0.328
 1619SOL    HW1 4875   2.416   0.197   0.253
 1619SOL    HW2 4876   2.389   0.351   0.297
 1620SOL     OW 4877   3.616   1.223   1.588
 1620SOL    HW1 4878   3.707   1.184   1.575
 1620SOL    HW2 4879   3.624   1.319   1.612
 1621SOL     OW 4880   2.926   1.347   1.340
 1621SOL    HW1 4881   2.846   1.324   1.395
 1621SOL    HW2 4882   3.009   1.321   1.389
 1622SOL     OW 4883   3.454   1.629   1.625
 1622SOL    HW1 4884   3.481   1.663   1.535
 1622SOL    HW2 4885   3.533   1.591   1.671
 1623SOL     OW 4886   2.973   1.195   1.100
 1623SOL    HW1 4887   2.933   1.239   1.181
 1623SOL    HW2 4888   2.932   1.232   1.017
 1624SOL     OW 4889   3.500   1.099   1.079
 1624SOL    HW1 4890   3.505   1.180   1.138
 1624SOL    HW2 4891   3.414   1.101   1.028
 1625SOL     OW 4892   2.777   0.089   1.402
 1625SOL    HW1 4893   2.802   0.069   1.307
 1625SOL    HW2 4894   2.849   0.145   1.444
 1626SOL     OW 4895   2.842   1.116   1.719
 1626SOL    HW1 4896   2.743   1.122   1.729
 1626SOL    HW2 4897   2.865   1.036   1.663
 1627SOL     OW 4898   2.567   1.050   0.368
 1627SOL    HW1 4899   2.553   1.057   0.467
 1627SOL    HW2 4900   2.651   0.999   0.350
 1628SOL     OW 4901   2.272   0.813   1.251
 1628SOL    HW1 4902   2.358   0.825   1.301
 1628SOL    HW2 4903   2.230   0.726   1.278
 1629SOL     OW 4904   3.136   0.386   1.262
 1629SOL    HW1 4905   3.157   0.460   1.326
 1629SOL    HW2 4906   3.047   0.403   1.219
 1630SOL     OW 4907   1.926   1.564   1.331
 1630SOL    HW1 4908   1.880   1.646   1.297
 1630SOL    HW2 4909   2.024   1.583   1.340
 1631SOL     OW 4910   2.229   1.100   0.501
 1631SOL    HW1 4911   2.222   1.183   0.445
 1631SOL    HW2 4912   2.233   1.020   0.441
 1632SOL     OW 4913   2.428   0.537   0.865
 1632SOL    HW1 4914   2.440   0.603   0.791
 1632SOL    HW2 4915   2.474   0.571   0.948
 1633SOL     OW 4916   3.114   1.348   0.388
 1633SOL    HW1 4917   3.164   1.425   0.428
 1633SOL    HW2 4918   3.019   1.350   0.420
 1634SOL     OW 4919   3.134   1.445   1.142
 1634SOL    HW1 4920   3.181   1.458   1.229
 1634SOL    HW2 4921   3.068   1.371   1.151
 1635SOL     OW 4922   3.444   0.639   0.472
 1635SOL    HW1 4923   3.413   0.700   0.545
 1635SOL    HW2 4924   3.494   0.691   0.403
 1636SOL     OW 4925   2.216   1.510   1.329
 1636SOL    HW1 4926   2.195   1.466   1.242
 1636SOL    HW2 4927   2.313   1.536   1.332
 1637SOL     OW 4928   2.264   0.751   1.598
 1637SOL    HW1 4929   2.332   0.806   1.551
 1637SOL    HW2 4930   2.304   0.663   1.625
 1638SOL     OW 4931   3.449   0.779   1.670
 1638SOL    HW1 4932   3.357   0.817   1.665
 1638SOL    HW2 4933   3.509   0.826   1.605
 1639SOL     OW 4934   2.875   0.105   1.770
 1639SOL    HW1 4935   2.881   0.190   1.718
 1639SOL    HW2 4936   2.907   0.029   1.713
 1640SOL     OW 4937   2.366   0.050   1.740
 1640SOL    HW1 4938   2.324  -0.007   1.670
 1640SOL    HW2 4939   2.300   0.119   1.772
 1641SOL     OW 4940   2.435   0.870   1.029
 1641SOL    HW1 4941   2.479   0.959   1.020
 1641SOL    HW2 4942   2.372   0.870   1.106
 1642SOL     OW 4943   3.222   0.862   1.045
 1642SOL    HW1 4944   3.147   0.862   0.979
 1642SOL    HW2 4945   3.259   0.770   1.054
 1643SOL     OW 4946   3.071   0.525   0.275
 1643SOL    HW1 4947   3.084   0.441   0.329
 1643SOL    HW2 4948   3.042   0.599   0.335
 1644SOL     OW 4949   2.169   0.213   1.231
 1644SOL    HW1 4950   2.146   0.250   1.321
 1644SOL    HW2 4951   2.139   0.118   1.225
 1645SOL     OW 4952   1.899   1.310   1.282
 1645SOL    HW1 4953   1.952   1.261   1.350
 1645SOL    HW2 4954   1.921   1.408   1.287
 1646SOL     OW 4955   2.594   0.634   1.064
 1646SOL    HW1 4956   2.653   0.608   0.988
 1646SOL    HW2 4957   2.566   0.730   1.053
 1647SOL     OW 4958   3.590   0.935   1.854
 1647SOL    HW1 4959   3.544   0.928   1.765
 1647SOL    HW2 4960   3.528   0.979   1.920
 1648SOL     OW 4961   2.169   0.063   0.618
 1648SOL    HW1 4962   2.158   0.157   0.651
 1648SOL    HW2 4963   2.164   0.000   0.695
 1649SOL     OW 4964   3.484   0.367   0.374
 1649SOL    HW1 4965   3.486   0.291   0.438
 1649SOL    HW2 4966   3.436   0.444   0.414
 1650SOL     OW 4967   2.885   0.766   0.966
 1650SOL    HW1 4968   2.900   0.787   1.062
 1650SOL    HW2 4969   2.855   0.671   0.957
 1651SOL     OW 4970   2.842   1.573   1.700
 1651SOL    HW1 4971   2.822   1.617   1.612
 1651SOL    HW2 4972   2.881   1.482   1.684
 1652SOL     OW 4973   3.721   1.518   1.605
 1652SOL    HW1 4974   3.735   1.545   1.510
 1652SOL    HW2 4975   3.804   1.540   1.658
 1653SOL     OW 4976   2.212   0.898   1.804
 1653SOL    HW1 4977   2.288   0.942   1.852
 1653SOL    HW2 4978   2.247   0.851   1.722
 1654SOL     OW 4979   3.402   0.274   0.125
 1654SOL    HW1 4980   3.341   0.199   0.148
 1654SOL    HW2 4981   3.424   0.326   0.208
 1655SOL     OW 4982   3.165   0.838   0.042
 1655SOL    HW1 4983   3.199   0.745   0.057
 1655SOL    HW2 4984   3.183   0.865  -0.053
 1656SOL     OW 4985   2.930   1.333   0.849
 1656SOL    HW1 4986   2.937   1.249   0.794
 1656SOL    HW2 4987   2.992   1.402   0.813
 1657SOL     OW 4988   2.181   0.810   0.949
 1657SOL    HW1 4989   2.274   0.846   0.954
 1657SOL    HW2 4990   2.175   0.725   1.001
 1658SOL     OW 4991   2.201   0.509   1.006
 1658SOL    HW1 4992   2.149   0.426   0.989
 1658SOL    HW2 4993   2.278   0.514   0.942
 1659SOL     OW 4994   3.000   0.380   1.678
 1659SOL    HW1 4995   2.955   0.443   1.742
 1659SOL    HW2 4996   3.093   0.411   1.661
 1660SOL     OW 4997   3.022   0.207   1.477
 1660SOL    HW1 4998   3.022   0.271   1.554
 1660SOL    HW2 4999   3.050   0.255   1.394
 1661SOL     OW 5000   1.870   1.326   0.200
 1661SOL    HW1 5001   1.777   1.347   0.169
 1661SOL    HW2 5002   1.880   1.227   0.213
 1662SOL     OW 5003   1.950   1.801   0.927
 1662SOL    HW1 5004   1.908   1.715   0.900
 1662SOL    HW2 5005   2.044   1.804   0.893
 1663SOL     OW 5006   2.366   1.568   0.910
 1663SOL    HW1 5007   2.432   1.642   0.919
 1663SOL    HW2 5008   2.410   1.489   0.868
 1664SOL     OW 5009   2.864   0.796   1.238
 1664SOL    HW1 5010   2.905   0.764   1.324
 1664SOL    HW2 5011   2.768   0.769   1.235
 1665SOL     OW 5012   1.902   0.544   1.114
 1665SOL    HW1 5013   1.987   0.511   1.073
 1665SOL    HW2 5014   1.915   0.559   1.212
 1666SOL     OW 5015   2.051   0.520   1.722
 1666SOL    HW1 5016   2.110   0.480   1.652
 1666SOL    HW2 5017   1.993   0.591   1.681
 1667SOL     OW 5018   3.231   0.950   1.660
 1667SOL    HW1 5019   3.270   1.039   1.680
 1667SOL    HW2 5020   3.241   0.930   1.563
 1668SOL     OW 5021   2.677   0.572   0.325
 1668SOL    HW1 5022   2.684   0.483   0.279
 1668SOL    HW2 5023   2.583   0.606   0.317
 1669SOL     OW 5024   3.519   0.604   1.206
 1669SOL    HW1 5025   3.481   0.535   1.268
 1669SOL    HW2 5026   3.601   0.568   1.162
 1670SOL     OW 5027   2.114   1.564   1.744
 1670SOL    HW1 5028   2.084   1.621   1.820
 1670SOL    HW2 5029   2.107   1.467   1.770
 1671SOL     OW 5030   2.533   0.464   1.269
 1671SOL    HW1 5031   2.499   0.375   1.239
 1671SOL    HW2 5032   2.559   0.518   1.189
 1672SOL     OW 5033   2.792   1.678   1.465
 1672SOL    HW1 5034   2.768   1.660   1.370
 1672SOL    HW2 5035   2.822   1.772   1.475
 1673SOL     OW 5036   2.335   0.500   0.191
 1673SOL    HW1 5037   2.396   0.580   0.195
 1673SOL    HW2 5038   2.240   0.531   0.198
 1674SOL     OW 5039   2.021   1.137   1.466
 1674SOL    HW1 5040   2.043   1.076   1.542
 1674SOL    HW2 5041   2.031   1.088   1.380
 1675SOL     OW 5042   3.209   1.059   1.234
 1675SOL    HW1 5043   3.233   0.996   1.160
 1675SOL    HW2 5044   3.119   1.099   1.216
 1676SOL     OW 5045   3.164   0.855   0.309
 1676SOL    HW1 5046   3.078   0.824   0.351
 1676SOL    HW2 5047   3.160   0.841   0.210
 1677SOL     OW 5048   3.621   1.747   1.154
 1677SOL    HW1 5049   3.682   1.777   1.081
 1677SOL    HW2 5050   3.583   1.658   1.132
 1678SOL     OW 5051   3.114   1.731   1.128
 1678SOL    HW1 5052   3.198   1.736   1.074
 1678SOL    HW2 5053   3.091   1.635   1.146
 1679SOL     OW 5054   1.945   1.258   1.022
 1679SOL    HW1 5055   1.940   1.257   1.122
 1679SOL    HW2 5056   1.862   1.217   0.984
 1680SOL     OW 5057   2.550   1.662   1.716
 1680SOL    HW1 5058   2.494   1.743   1.725
 1680SOL    HW2 5059   2.602   1.666   1.630
 1681SOL     OW 5060   2.765   0.086   0.133
 1681SOL    HW1 5061   2.816   0.087   0.047
 1681SOL    HW2 5062   2.821   0.044   0.204
 1682SOL     OW 5063   3.588   0.135   0.523
 1682SOL    HW1 5064   3.661   0.118   0.456
 1682SOL    HW2 5065   3.557   0.048   0.561
 1683SOL     OW 5066   3.250   1.573   0.477
 1683SOL    HW1 5067   3.317   1.585   0.403
 1683SOL    HW2 5068   3.210   1.662   0.500
 1684SOL     OW 5069   1.992   1.794   1.851
 1684SOL    HW1 5070   1.951   1.720   1.904
 1684SOL    HW2 5071   2.056   1.845   1.909
 1685SOL     OW 5072   3.142   0.927   0.672
 1685SOL    HW1 5073   3.202   0.846   0.674
 1685SOL    HW2 5074   3.182   0.996   0.612
 1686SOL     OW 5075   2.692   1.273   1.422
 1686SOL    HW1 5076   2.687   1.306   1.517
 1686SOL    HW2 5077   2.606   1.292   1.376
 1687SOL     OW 5078   2.534   1.616   0.154
 1687SOL    HW1 5079   2.543   1.626   0.055
 1687SOL    HW2 5080   2.494   1.527   0.175
 1688SOL     OW 5081   3.512   1.720   1.394
 1688SOL    HW1 5082   3.565   1.730   1.310
 1688SOL    HW2 5083   3.485   1.810   1.428
 1689SOL     OW 5084   3.703   0.175   0.963
 1689SOL    HW1 5085   3.742   0.090   0.927
 1689SOL    HW2 5086   3.605   0.177   0.944
 1690SOL     OW 5087   2.125   0.326   0.720
 1690SOL    HW1 5088   2.046   0.377   0.686
 1690SOL    HW2 5089   2.116   0.311   0.818
 1691SOL     OW 5090   3.056   1.612   0.031
 1691SOL    HW1 5091   3.062   1.519   0.068
 1691SOL    HW2 5092   2.997   1.612  -0.049
 1692SOL     OW 5093   2.684   1.002   1.372
 1692SOL    HW1 5094   2.724   1.001   1.280
 1692SOL    HW2 5095   2.694   1.094   1.412
 1693SOL     OW 5096   2.778   0.910   0.291
 1693SOL    HW1 5097   2.841   0.948   0.223
 1693SOL    HW2 5098   2.818   0.827   0.330
 1694SOL     OW 5099   3.366   1.607   0.044
 1694SOL    HW1 5100   3.274   1.644   0.051
 1694SOL    HW2 5101   3.404   1.627  -0.046
 1695SOL     OW 5102   2.234   1.288   1.490
 1695SOL    HW1 5103   2.221   1.381   1.456
 1695SOL    HW2 5104   2.150   1.236   1.477
 1696SOL     OW 5105   3.476   1.292   1.289
 1696SOL    HW1 5106   3.536   1.295   1.369
 1696SOL    HW2 5107   3.401   1.356   1.302
 1697SOL     OW 5108   2.901   1.098   0.696
 1697SOL    HW1 5109   2.831   1.051   0.750
 1697SOL    HW2 5110   2.960   1.030   0.653
 1698SOL     OW 5111   2.876   0.236   0.971
 1698SOL    HW1 5112   2.868   0.200   0.878
 1698SOL    HW2 5113   2.874   0.160   1.036
 1699SOL     OW 5114   2.452   1.487   0.491
 1699SOL    HW1 5115   2.494   1.429   0.421
 1699SOL    HW2 5116   2.408   1.566   0.447
 1700SOL     OW 5117   3.571   0.385   1.381
 1700SOL    HW1 5118   3.644   0.454   1.385
 1700SOL    HW2 5119   3.599   0.310   1.322
 1701SOL     OW 5120   2.117   1.348   0.290
 1701SOL    HW1 5121   2.021   1.349   0.263
 1701SOL    HW2 5122   2.129   1.401   0.374
 1702SOL     OW 5123   1.967   1.013   1.726
 1702SOL    HW1 5124   1.890   0.980   1.780
 1702SOL    HW2 5125   2.052   0.983   1.768
 1703SOL     OW 5126   2.534   0.203   1.489
 1703SOL    HW1 5127   2.624   0.187   1.449
 1703SOL    HW2 5128   2.542   0.208   1.588
 1704SOL     OW 5129   3.302   0.856   1.398
 1704SOL    HW1 5130   3.245   0.908   1.335
 1704SOL    HW2 5131   3.398   0.868   1.374
 1705SOL     OW 5132   1.934   0.166   0.318
 1705SOL    HW1 5133   1.917   0.249   0.264
 1705SOL    HW2 5134   2.024   0.129   0.296
 1706SOL     OW 5135   3.045   1.335   0.119
 1706SOL    HW1 5136   2.946   1.324   0.121
 1706SOL    HW2 5137   3.079   1.350   0.212
 1707SOL     OW 5138   2.475   0.842   1.431
 1707SOL    HW1 5139   2.531   0.923   1.414
 1707SOL    HW2 5140   2.534   0.762   1.434
 1708SOL     OW 5141   3.355   1.767   0.959
 1708SOL    HW1 5142   3.388   1.831   0.890
 1708SOL    HW2 5143   3.421   1.761   1.034
 1709SOL     OW 5144   2.578   0.565   1.708
 1709SOL    HW1 5145   2.597   0.630   1.782
 1709SOL    HW2 5146   2.638   0.485   1.717
 1710SOL     OW 5147   3.312   1.220   1.633
 1710SOL    HW1 5148   3.303   1.210   1.732
 1710SOL    HW2 5149   3.408   1.213   1.607
 1711SOL     OW 5150   2.252   1.741   1.560
 1711SOL    HW1 5151   2.161   1.782   1.558
 1711SOL    HW2 5152   2.245   1.647   1.592
 1712SOL     OW 5153   3.536   0.883   1.254
 1712SOL    HW1 5154   3.509   0.794   1.217
 1712SOL    HW2 5155   3.537   0.951   1.181
 1713SOL     OW 5156   3.087   0.325   0.449
 1713SOL    HW1 5157   3.152   0.251   0.438
 1713SOL    HW2 5158   3.107   0.375   0.533
 1714SOL     OW 5159   2.456   0.745   0.652
 1714SOL    HW1 5160   2.506   0.830   0.633
 1714SOL    HW2 5161   2.368   0.747   0.604
 1715SOL     OW 5162   3.639   0.342   1.642
 1715SOL    HW1 5163   3.622   0.373   1.548
 1715SOL    HW2 5164   3.555   0.305   1.680
 1716SOL     OW 5165   3.592   0.934   1.517
 1716SOL    HW1 5166   3.630   1.025   1.532
 1716SOL    HW2 5167   3.584   0.917   1.418
 1717SOL     OW 5168   2.721   1.374   0.016
 1717SOL    HW1 5169   2.675   1.389   0.104
 1717SOL    HW2 5170   2.765   1.459  -0.014
 1718SOL     OW 5171   2.523   1.790   0.953
 1718SOL    HW1 5172   2.477   1.878   0.940
 1718SOL    HW2 5173   2.622   1.802   0.946
 1719SOL     OW 5174   2.721   0.956   0.861
 1719SOL    HW1 5175   2.775   0.887   0.909
 1719SOL    HW2 5176   2.689   1.025   0.927
 1720SOL     OW 5177   2.945   0.984   0.087
 1720SOL    HW1 5178   2.922   1.037   0.005
 1720SOL    HW2 5179   3.026   0.928   0.068
 1721SOL     OW 5180   3.723   1.569   0.851
 1721SOL    HW1 5181   3.652   1.557   0.781
 1721SOL    HW2 5182   3.724   1.490   0.911
 1722SOL     OW 5183   2.083   1.314   1.844
 1722SOL    HW1 5184   2.018   1.241   1.823
 1722SOL    HW2 5185   2.087   1.328   1.942
 1723SOL     OW 5186   1.941   1.240   0.653
 1723SOL    HW1 5187   1.940   1.193   0.741
 1723SOL    HW2 5188   2.023   1.212   0.602
 1724SOL     OW 5189   2.534   1.391   1.624
 1724SOL    HW1 5190   2.456   1.341   1.662
 1724SOL    HW2 5191   2.531   1.486   1.655
 1725SOL     OW 5192   3.686   0.192   1.227
 1725SOL    HW1 5193   3.682   0.102   1.271
 1725SOL    HW2 5194   3.689   0.181   1.128
 1726SOL     OW 5195   2.290   0.424   0.520
 1726SOL    HW1 5196   2.320   0.352   0.458
 1726SOL    HW2 5197   2.251   0.384   0.603
 1727SOL     OW 5198   3.567   1.487   1.104
 1727SOL    HW1 5199   3.474   1.462   1.077
 1727SOL    HW2 5200   3.593   1.437   1.186
 1728SOL     OW 5201   2.179   0.547   1.280
 1728SOL    HW1 5202   2.217   0.488   1.352
 1728SOL    HW2 5203   2.219   0.521   1.192
 1729SOL     OW 5204   2.674   1.586   0.687
 1729SOL    HW1 5205   2.706   1.596   0.593
 1729SOL    HW2 5206   2.595   1.524   0.689
 1730SOL     OW 5207   3.286   0.214   1.112
 1730SOL    HW1 5208   3.338   0.149   1.167
 1730SOL    HW2 5209   3.237   0.277   1.173
 1731SOL     OW 5210   2.863   0.034   1.154
 1731SOL    HW1 5211   2.800  -0.038   1.123
 1731SOL    HW2 5212   2.956  -0.002   1.154
 1732SOL     OW 5213   2.632   1.330   0.301
 1732SOL    HW1 5214   2.586   1.243   0.318
 1732SOL    HW2 5215   2.723   1.327   0.342
 1733SOL     OW 5216   2.480   1.567   1.284
 1733SOL    HW1 5217   2.475   1.649   1.341
 1733SOL    HW2 5218   2.569   1.564   1.239
 1734SOL     OW 5219   3.214   0.052   0.168
 1734SOL    HW1 5220   3.249   0.011   0.084
 1734SOL    HW2 5221   3.124   0.014   0.188
 1735SOL     OW 5222   3.162   0.453   0.691
 1735SOL    HW1 5223   3.103   0.533   0.695
 1735SOL    HW2 5224   3.177   0.418   0.784
 1736SOL     OW 5225   3.455   0.221   0.882
 1736SOL    HW1 5226   3.371   0.220   0.936
 1736SOL    HW2 5227   3.457   0.304   0.826
 1737SOL     OW 5228   2.737   1.646   0.337
 1737SOL    HW1 5229   2.660   1.611   0.283
 1737SOL    HW2 5230   2.705   1.717   0.399
 1738SOL     OW 5231   2.092   0.628   1.975
 1738SOL    HW1 5232   1.999   0.626   2.012
 1738SOL    HW2 5233   2.093   0.589   1.883
 1739SOL     OW 5234   2.087   0.275   2.858
 1739SOL    HW1 5235   2.122   0.258   2.950
 1739SOL    HW2 5236   1.999   0.230   2.846
 1740SOL     OW 5237   1.881   0.368   2.509
 1740SOL    HW1 5238   1.799   0.411   2.548
 1740SOL    HW2 5239   1.853   0.295   2.446
 1741SOL     OW 5240   2.431   1.275   3.027
 1741SOL    HW1 5241   2.338   1.268   2.990
 1741SOL    HW2 5242   2.442   1.364   3.071
 1742SOL     OW 5243   3.417   1.511   2.565
 1742SOL    HW1 5244   3.360   1.495   2.646
 1742SOL    HW2 5245   3.358   1.521   2.485
 1743SOL     OW 5246   2.997   0.703   2.579
 1743SOL    HW1 5247   3.054   0.781   2.554
 1743SOL    HW2 5248   2.937   0.729   2.655
 1744SOL     OW 5249   3.617   0.607   2.093
 1744SOL    HW1 5250   3.605   0.594   1.994
 1744SOL    HW2 5251   3.587   0.526   2.142
 1745SOL     OW 5252   2.630   1.144   2.885
 1745SOL    HW1 5253   2.552   1.161   2.945
 1745SOL    HW2 5254   2.664   1.231   2.849
 1746SOL     OW 5255   2.712   0.798   3.685
 1746SOL    HW1 5256   2.708   0.874   3.750
 1746SOL    HW2 5257   2.734   0.834   3.594
 1747SOL     OW 5258   2.547   1.012   2.527
 1747SOL    HW1 5259   2.616   0.996   2.597
 1747SOL    HW2 5260   2.474   1.069   2.565
 1748SOL     OW 5261   2.548   1.161   3.665
 1748SOL    HW1 5262   2.608   1.240   3.679
 1748SOL    HW2 5263   2.462   1.192   3.624
 1749SOL     OW 5264   2.197   1.435   2.923
 1749SOL    HW1 5265   2.119   1.404   2.870
 1749SOL    HW2 5266   2.255   1.493   2.866
 1750SOL     OW 5267   3.322   1.505   3.201
 1750SOL    HW1 5268   3.346   1.599   3.227
 1750SOL    HW2 5269   3.306   1.451   3.283
 1751SOL     OW 5270   2.300   0.392   3.361
 1751SOL    HW1 5271   2.382   0.336   3.370
 1751SOL    HW2 5272   2.219   0.334   3.365
 1752SOL     OW 5273   3.465   0.447   2.599
 1752SOL    HW1 5274   3.391   0.493   2.549
 1752SOL    HW2 5275   3.516   0.515   2.652
 1753SOL     OW 5276   2.093   1.713   2.345
 1753SOL    HW1 5277   2.127   1.790   2.399
 1753SOL    HW2 5278   2.137   1.713   2.255
 1754SOL     OW 5279   2.989   1.341   3.552
 1754SOL    HW1 5280   3.036   1.341   3.640
 1754SOL    HW2 5281   2.941   1.254   3.541
 1755SOL     OW 5282   2.092   1.434   2.400
 1755SOL    HW1 5283   2.066   1.530   2.400
 1755SOL    HW2 5284   2.021   1.380   2.445
 1756SOL     OW 5285   2.102   1.091   2.748
 1756SOL    HW1 5286   2.116   1.007   2.800
 1756SOL    HW2 5287   2.047   1.155   2.803
 1757SOL     OW 5288   2.482   1.786   3.301
 1757SOL    HW1 5289   2.390   1.769   3.336
 1757SOL    HW2 5290   2.510   1.878   3.327
 1758SOL     OW 5291   2.468   0.964   1.985
 1758SOL    HW1 5292   2.475   1.048   1.931
 1758SOL    HW2 5293   2.514   0.977   2.073
 1759SOL     OW 5294   3.456   0.114   3.342
 1759SOL    HW1 5295   3.438   0.181   3.270
 1759SOL    HW2 5296   3.453   0.160   3.431
 1760SOL     OW 5297   1.984   0.643   2.425
 1760SOL    HW1 5298   1.939   0.555   2.442
 1760SOL    HW2 5299   1.983   0.697   2.509
 1761SOL     OW 5300   3.704   1.767   2.221
 1761SOL    HW1 5301   3.758   1.738   2.301
 1761SOL    HW2 5302   3.734   1.857   2.192
 1762SOL     OW 5303   1.889   1.596   1.979
 1762SOL    HW1 5304   1.870   1.500   2.000
 1762SOL    HW2 5305   1.856   1.654   2.054
 1763SOL     OW 5306   3.551   0.922   2.474
 1763SOL    HW1 5307   3.646   0.893   2.482
 1763SOL    HW2 5308   3.543   0.987   2.399
 1764SOL     OW 5309   3.503   1.108   2.294
 1764SOL    HW1 5310   3.589   1.110   2.242
 1764SOL    HW2 5311   3.517   1.155   2.382
 1765SOL     OW 5312   1.975   0.737   3.459
 1765SOL    HW1 5313   2.063   0.724   3.504
 1765SOL    HW2 5314   1.962   0.834   3.437
 1766SOL     OW 5315   2.475   1.365   2.588
 1766SOL    HW1 5316   2.426   1.278   2.597
 1766SOL    HW2 5317   2.452   1.408   2.501
 1767SOL     OW 5318   3.155   1.228   3.285
 1767SOL    HW1 5319   3.192   1.155   3.227
 1767SOL    HW2 5320   3.207   1.233   3.370
 1768SOL     OW 5321   2.671   0.004   2.364
 1768SOL    HW1 5322   2.711   0.095   2.355
 1768SOL    HW2 5323   2.571   0.012   2.370
 1769SOL     OW 5324   2.059   0.976   3.126
 1769SOL    HW1 5325   2.148   0.931   3.112
 1769SOL    HW2 5326   1.986   0.911   3.107
 1770SOL     OW 5327   3.387   0.999   2.052
 1770SOL    HW1 5328   3.324   0.923   2.065
 1770SOL    HW2 5329   3.435   1.017   2.138
 1771SOL     OW 5330   3.049   1.792   3.478
 1771SOL    HW1 5331   3.073   1.852   3.402
 1771SOL    HW2 5332   3.056   1.697   3.448
 1772SOL     OW 5333   2.179   0.251   3.663
 1772SOL    HW1 5334   2.250   0.322   3.669
 1772SOL    HW2 5335   2.091   0.290   3.691
 1773SOL     OW 5336   3.328   1.417   2.815
 1773SOL    HW1 5337   3.269   1.423   2.895
 1773SOL    HW2 5338   3.313   1.329   2.769
 1774SOL     OW 5339   3.529   1.714   2.434
 1774SOL    HW1 5340   3.488   1.691   2.346
 1774SOL    HW2 5341   3.511   1.640   2.499
 1775SOL     OW 5342   2.460   0.729   2.132
 1775SOL    HW1 5343   2.484   0.798   2.064
 1775SOL    HW2 5344   2.382   0.762   2.186
 1776SOL     OW 5345   3.143   0.345   2.806
 1776SOL    HW1 5346   3.057   0.295   2.793
 1776SOL    HW2 5347   3.205   0.291   2.862
 1777SOL     OW 5348   3.438   1.662   2.169
 1777SOL    HW1 5349   3.527   1.708   2.172
 1777SOL    HW2 5350   3.417   1.638   2.074
 1778SOL     OW 5351   2.669   0.605   3.327
 1778SOL    HW1 5352   2.622   0.602   3.416
 1778SOL    HW2 5353   2.618   0.550   3.261
 1779SOL     OW 5354   3.256   0.469   3.536
 1779SOL    HW1 5355   3.236   0.512   3.624
 1779SOL    HW2 5356   3.334   0.407   3.545
 1780SOL     OW 5357   2.835   0.890   3.434
 1780SOL    HW1 5358   2.881   0.806   3.405
 1780SOL    HW2 5359   2.779   0.924   3.359
 1781SOL     OW 5360   2.853   0.410   3.104
 1781SOL    HW1 5361   2.776   0.444   3.158
 1781SOL    HW2 5362   2.819   0.359   3.025
 1782SOL     OW 5363   2.903   0.701   2.291
 1782SOL    HW1 5364   2.929   0.697   2.387
 1782SOL    HW2 5365   2.818   0.650   2.277
 1783SOL     OW 5366   1.938   0.811   2.651
 1783SOL    HW1 5367   2.037   0.799   2.660
 1783SOL    HW2 5368   1.914   0.906   2.672
 1784SOL     OW 5369   1.992   1.821   3.433
 1784SOL    HW1 5370   1.982   1.806   3.532
 1784SOL    HW2 5371   1.906   1.857   3.397
 1785SOL     OW 5372   2.727   0.348   2.057
 1785SOL    HW1 5373   2.786   0.411   2.008
 1785SOL    HW2 5374   2.746   0.254   2.028
 1786SOL     OW 5375   3.581   0.585   3.693
 1786SOL    HW1 5376   3.555   0.674   3.657
 1786SOL    HW2 5377   3.579   0.517   3.620
 1787SOL     OW 5378   3.224   1.144   2.407
 1787SOL    HW1 5379   3.307   1.115   2.359
 1787SOL    HW2 5380   3.175   1.211   2.351
 1788SOL     OW 5381   2.412   0.196   2.747
 1788SOL    HW1 5382   2.407   0.191   2.847
 1788SOL    HW2 5383   2.414   0.292   2.718
 1789SOL     OW 5384   2.870   1.456   2.339
 1789SOL    HW1 5385   2.824   1.528   2.287
 1789SOL    HW2 5386   2.866   1.476   2.437
 1790SOL     OW 5387   2.213   1.801   2.715
 1790SOL    HW1 5388   2.263   1.715   2.721
 1790SOL    HW2 5389   2.278   1.878   2.712
 1791SOL     OW 5390   3.657   1.066   2.735
 1791SOL    HW1 5391   3.595   1.051   2.659
 1791SOL    HW2 5392   3.605   1.077   2.820
 1792SOL     OW 5393   3.089   1.550   3.368
 1792SOL    HW1 5394   3.095   1.473   3.432
 1792SOL    HW2 5395   3.037   1.524   3.288
 1793SOL     OW 5396   2.183   0.943   2.104
 1793SOL    HW1 5397   2.265   0.982   2.062
 1793SOL    HW2 5398   2.156   0.861   2.055
 1794SOL     OW 5399   3.320   0.735   2.590
 1794SOL    HW1 5400   3.315   0.670   2.665
 1794SOL    HW2 5401   3.400   0.794   2.603
 1795SOL     OW 5402   2.323   1.266   3.589
 1795SOL    HW1 5403   2.273   1.267   3.503
 1795SOL    HW2 5404   2.260   1.248   3.665
 1796SOL     OW 5405   2.973   1.776   2.099
 1796SOL    HW1 5406   2.913   1.714   2.149
 1796SOL    HW2 5407   3.004   1.732   2.014
 1797SOL     OW 5408   2.064   0.285   3.360
 1797SOL    HW1 5409   1.984   0.345   3.347
 1797SOL    HW2 5410   2.054   0.236   3.446
 1798SOL     OW 5411   3.494   1.377   1.943
 1798SOL    HW1 5412   3.462   1.471   1.933
 1798SOL    HW2 5413   3.418   1.314   1.931
 1799SOL     OW 5414   2.326   1.743   2.185
 1799SOL    HW1 5415   2.359   1.782   2.271
 1799SOL    HW2 5416   2.402   1.736   2.120
 1800SOL     OW 5417   3.262   0.107   2.288
 1800SOL    HW1 5418   3.238   0.070   2.198
 1800SOL    HW2 5419   3.361   0.123   2.292
 1801SOL     OW 5420   2.111   1.785   3.103
 1801SOL    HW1 5421   2.168   1.720   3.153
 1801SOL    HW2 5422   2.095   1.752   3.010
 1802SOL     OW 5423   2.802   1.698   2.766
 1802SOL    HW1 5424   2.882   1.641   2.787
 1802SOL    HW2 5425   2.753   1.658   2.689
 1803SOL     OW 5426   2.244   0.700   2.342
 1803SOL    HW1 5427   2.289   0.610   2.339
 1803SOL    HW2 5428   2.150   0.689   2.375
 1804SOL     OW 5429   3.409   0.222   3.591
 1804SOL    HW1 5430   3.404   0.259   3.683
 1804SOL    HW2 5431   3.337   0.153   3.579
 1805SOL     OW 5432   2.476   0.122   1.979
 1805SOL    HW1 5433   2.574   0.100   1.986
 1805SOL    HW2 5434   2.445   0.105   1.886
 1806SOL     OW 5435   2.643   0.264   3.611
 1806SOL    HW1 5436   2.710   0.203   3.654
 1806SOL    HW2 5437   2.570   0.283   3.676
 1807SOL     OW 5438   2.750   1.514   3.057
 1807SOL    HW1 5439   2.727   1.489   2.963
 1807SOL    HW2 5440   2.811   1.445   3.096
 1808SOL     OW 5441   3.213   0.590   3.295
 1808SOL    HW1 5442   3.241   0.547   3.380
 1808SOL    HW2 5443   3.238   0.686   3.296
 1809SOL     OW 5444   2.665   1.402   2.786
 1809SOL    HW1 5445   2.755   1.416   2.744
 1809SOL    HW2 5446   2.594   1.404   2.715
 1810SOL     OW 5447   2.784   0.503   2.761
 1810SOL    HW1 5448   2.759   0.494   2.665
 1810SOL    HW2 5449   2.832   0.421   2.792
 1811SOL     OW 5450   2.401   0.064   2.374
 1811SOL    HW1 5451   2.320   0.065   2.432
 1811SOL    HW2 5452   2.404   0.147   2.319
 1812SOL     OW 5453   3.296   1.188   1.903
 1812SOL    HW1 5454   3.328   1.112   1.960
 1812SOL    HW2 5455   3.204   1.215   1.933
 1813SOL     OW 5456   2.159   0.035   2.033
 1813SOL    HW1 5457   2.208   0.119   2.012
 1813SOL    HW2 5458   2.221  -0.030   2.078
 1814SOL     OW 5459   2.797   0.236   2.342
 1814SOL    HW1 5460   2.749   0.277   2.264
 1814SOL    HW2 5461   2.896   0.234   2.323
 1815SOL     OW 5462   2.938   0.683   3.326
 1815SOL    HW1 5463   2.858   0.622   3.329
 1815SOL    HW2 5464   3.019   0.630   3.302
 1816SOL     OW 5465   3.089   1.570   2.655
 1816SOL    HW1 5466   3.110   1.644   2.590
 1816SOL    HW2 5467   3.157   1.570   2.728
 1817SOL     OW 5468   2.321   1.152   2.603
 1817SOL    HW1 5469   2.250   1.125   2.668
 1817SOL    HW2 5470   2.295   1.124   2.510
 1818SOL     OW 5471   3.133   1.797   2.453
 1818SOL    HW1 5472   3.177   1.861   2.389
 1818SOL    HW2 5473   3.083   1.849   2.523
 1819SOL     OW 5474   2.894   0.549   1.878
 1819SOL    HW1 5475   2.853   0.631   1.839
 1819SOL    HW2 5476   2.958   0.575   1.951
 1820SOL     OW 5477   1.940   0.556   3.248
 1820SOL    HW1 5478   2.032   0.555   3.207
 1820SOL    HW2 5479   1.934   0.630   3.315
 1821SOL     OW 5480   2.423   0.222   3.009
 1821SOL    HW1 5481   2.461   0.138   3.046
 1821SOL    HW2 5482   2.335   0.241   3.053
 1822SOL     OW 5483   2.728   0.454   2.504
 1822SOL    HW1 5484   2.696   0.526   2.442
 1822SOL    HW2 5485   2.752   0.373   2.451
 1823SOL     OW 5486   2.879   0.039   2.615
 1823SOL    HW1 5487   2.807   0.044   2.546
 1823SOL    HW2 5488   2.855  -0.030   2.684
 1824SOL     OW 5489   3.291   1.173   2.729
 1824SOL    HW1 5490   3.236   1.089   2.722
 1824SOL    HW2 5491   3.317   1.202   2.637
 1825SOL     OW 5492   3.328   0.590   2.854
 1825SOL    HW1 5493   3.298   0.495   2.861
 1825SOL    HW2 5494   3.401   0.606   2.920
 1826SOL     OW 5495   3.719   0.833   2.239
 1826SOL    HW1 5496   3.761   0.769   2.303
 1826SOL    HW2 5497   3.681   0.782   2.161
 1827SOL     OW 5498   2.350   1.385   2.036
 1827SOL    HW1 5499   2.263   1.370   2.083
 1827SOL    HW2 5500   2.333   1.411   1.941
 1828SOL     OW 5501   3.526   1.280   2.519
 1828SOL    HW1 5502   3.625   1.288   2.533
 1828SOL    HW2 5503   3.481   1.364   2.550
 1829SOL     OW 5504   3.252   0.575   1.940
 1829SOL    HW1 5505   3.198   0.554   2.021
 1829SOL    HW2 5506   3.343   0.534   1.949
 1830SOL     OW 5507   2.389   0.256   2.190
 1830SOL    HW1 5508   2.416   0.197   2.115
 1830SOL    HW2 5509   2.389   0.351   2.159
 1831SOL     OW 5510   3.616   1.223   3.450
 1831SOL    HW1 5511   3.707   1.184   3.437
 1831SOL    HW2 5512   3.624   1.319   3.474
 1832SOL     OW 5513   2.926   1.347   3.202
 1832SOL    HW1 5514   2.846   1.324   3.257
 1832SOL    HW2 5515   3.009   1.321   3.251
 1833SOL     OW 5516   3.454   1.629   3.487
 1833SOL    HW1 5517   3.481   1.663   3.397
 1833SOL    HW2 5518   3.533   1.591   3.533
 1834SOL     OW 5519   2.973   1.195   2.962
 1834SOL    HW1 5520   2.933   1.239   3.043
 1834SOL    HW2 5521   2.932   1.232   2.879
 1835SOL     OW 5522   3.500   1.099   2.941
 1835SOL    HW1 5523   3.505   1.180   3.000
 1835SOL    HW2 5524   3.414   1.101   2.890
 1836SOL     OW 5525   2.777   0.089   3.264
 1836SOL    HW1 5526   2.802   0.069   3.169
 1836SOL    HW2 5527   2.849   0.145   3.306
 1837SOL     OW 5528   2.842   1.116   3.581
 1837SOL    HW1 5529   2.743   1.122   3.591
 1837SOL    HW2 5530   2.865   1.036   3.525
 1838SOL     OW 5531   2.567   1.050   2.230
 1838SOL    HW1 5532   2.553   1.057   2.329
 1838SOL    HW2 5533   2.651   0.999   2.212
 1839SOL     OW 5534   2.272   0.813   3.113
 1839SOL    HW1 5535   2.358   0.825   3.163
 1839SOL    HW2 5536   2.230   0.726   3.140
 1840SOL     OW 5537   3.136   0.386   3.124
 1840SOL    HW1 5538   3.157   0.460   3.188
 1840SOL    HW2 5539   3.047   0.403   3.081
 1841SOL     OW 5540   1.926   1.564   3.193
 1841SOL    HW1 5541   1.880   1.646   3.159
 1841SOL    HW2 5542   2.024   1.583   3.202
 1842SOL     OW 5543   2.229   1.100   2.363
 1842SOL    HW1 5544   2.222   1.183   2.307
 1842SOL    HW2 5545   2.233   1.020   2.303
 1843SOL     OW 5546   2.428   0.537   2.727
 1843SOL    HW1 5547   2.440   0.603   2.653
 1843SOL    HW2 5548   2.474   0.571   2.810
 1844SOL     OW 5549   3.114   1.348   2.250
 1844SOL    HW1 5550   3.164   1.425   2.290
 1844SOL    HW2 5551   3.019   1.350   2.282
 1845SOL     OW 5552   3.134   1.445   3.004
 1845SOL    HW1 5553   3.181   1.458   3.091
 1845SOL    HW2 5554   3.068   1.371   3.013
 1846SOL     OW 5555   3.444   0.639   2.334
 1846SOL    HW1 5556   3.413   0.700   2.407
 1846SOL    HW2 5557   3.494   0.691   2.265
 1847SOL     OW 5558   2.216   1.510   3.191
 1847SOL    HW1 5559   2.195   1.466   3.104
 1847SOL    HW2 5560   2.313   1.536   3.194
 1848SOL     OW 5561   2.264   0.751   3.460
 1848SOL    HW1 5562   2.332   0.806   3.413
 1848SOL    HW2 5563   2.304   0.663   3.487
 1849SOL     OW 5564   3.449   0.779   3.532
 1849SOL    HW1 5565   3.357   0.817   3.527
 1849SOL    HW2 5566   3.509   0.826   3.467
 1850SOL     OW 5567   2.875   0.105   3.632
 1850SOL    HW1 5568   2.881   0.190   3.580
 1850SOL    HW2 5569   2.907   0.029   3.575
 1851SOL     OW 5570   2.366   0.050   3.602
 1851SOL    HW1 5571   2.324  -0.007   3.532
 1851SOL    HW2 5572   2.300   0.119   3.634
 1852SOL     OW 5573   2.435   0.870   2.891
 1852SOL    HW1 5574   2.479   0.959   2.882
 1852SOL    HW2 5575   2.372   0.870   2.968
 1853SOL     OW 5576   3.222   0.862   2.907
 1853SOL    HW1 5577   3.147   0.862   2.841
 1853SOL    HW2 5578   3.259   0.770   2.916
 1854SOL     OW 5579   3.071   0.525   2.137
 1854SOL    HW1 5580   3.084   0.441   2.191
 1854SOL    HW2 5581   3.042   0.599   2.197
 1855SOL     OW 5582   2.169   0.213   3.093
 1855SOL    HW1 5583   2.146   0.250   3.183
 1855SOL    HW2 5584   2.139   0.118   3.087
 1856SOL     OW 5585   1.899   1.310   3.144
 1856SOL    HW1 5586   1.952   1.261   3.212
 1856SOL    HW2 5587   1.921   1.408   3.149
 1857SOL     OW 5588   2.594   0.634   2.926
 1857SOL    HW1 5589   2.653   0.608   2.850
 1857SOL    HW2 5590   2.566   0.730   2.915
 1858SOL     OW 5591   3.590   0.935   3.716
 1858SOL    HW1 5592   3.544   0.928   3.627
 1858SOL    HW2 5593   3.528   0.979   3.782
 1859SOL     OW 5594   2.169   0.063   2.480
 1859SOL    HW1 5595   2.158   0.157   2.513
 1859SOL    HW2 5596   2.164   0.000   2.557
 1860SOL     OW 5597   3.484   0.367   2.236
 1860SOL    HW1 5598   3.486   0.291   2.300
 1860SOL    HW2 5599   3.436   0.444   2.276
 1861SOL     OW 5600   2.885   0.766   2.828
 1861SOL    HW1 5601   2.900   0.787   2.924
 1861SOL    HW2 5602   2.855   0.671   2.819
 1862SOL     OW 5603   2.842   1.573   3.562
 1862SOL    HW1 5604   2.822   1.617   3.474
 1862SOL    HW2 5605   2.881   1.482   3.546
 1863SOL     OW 5606   3.721   1.518   3.467
 1863SOL    HW1 5607   3.735   1.545   3.372
 1863SOL    HW2 5608   3.804   1.540   3.520
 1864SOL     OW 5609   2.212   0.898   3.666
 1864SOL    HW1 5610   2.288   0.942   3.714
 1864SOL    HW2 5611   2.247   0.851   3.584
 1865SOL     OW 5612   3.402   0.274   1.987
 1865SOL    HW1 5613   3.341   0.199   2.010
 1865SOL    HW2 5614   3.424   0.326   2.070
 1866SOL     OW 5615   3.165   0.838   1.904
 1866SOL    HW1 5616   3.199   0.745   1.919
 1866SOL    HW2 5617   3.183   0.865   1.809
 1867SOL     OW 5618   2.930   1.333   2.711
 1867SOL    HW1 5619   2.937   1.249   2.656
 1867SOL    HW2 5620   2.992   1.402   2.675
 1868SOL     OW 5621   2.181   0.810   2.811
 1868SOL    HW1 5622   2.274   0.846   2.816
 1868SOL    HW2 5623   2.175   0.725   2.863
 1869SOL     OW 5624   2.201   0.509   2.868
 1869SOL    HW1 5625   2.149   0.426   2.851
 1869SOL    HW2 5626   2.278   0.514   2.804
 1870SOL     OW 5627   3.000   0.380   3.540
 1870SOL    HW1 5628   2.955   0.443   3.604
 1870SOL    HW2 5629   3.093   0.411   3.523
 1871SOL     OW 5630   3.022   0.207   3.339
 1871SOL    HW1 5631   3.022   0.271   3.416
 1871SOL    HW2 5632   3.050   0.255   3.256
 1872SOL     OW 5633   1.870   1.326   2.062
 1872SOL    HW1 5634   1.777   1.347   2.031
 1872SOL    HW2 5635   1.880   1.227   2.075
 1873SOL     OW 5636   1.950   1.801   2.789
 1873SOL    HW1 5637   1.908   1.715   2.762
 1873SOL    HW2 5638   2.044   1.804   2.755
 1874SOL     OW 5639   2.366   1.568   2.772
 1874SOL    HW1 5640   2.432   1.642   2.781
 1874SOL    HW2 5641   2.410   1.489   2.730
 1875SOL     OW 5642   2.864   0.796   3.100
 1875SOL    HW1 5643   2.905   0.764   3.186
 1875SOL    HW2 5644   2.768   0.769   3.097
 1876SOL     OW 5645   1.902   0.544   2.976
 1876SOL    HW1 5646   1.987   0.511   2.935
 1876SOL    HW2 5647   1.915   0.559   3.074
 1877SOL     OW 5648   2.051   0.520   3.584
 1877SOL    HW1 5649   2.110   0.480   3.514
 1877SOL    HW2 5650   1.993   0.591   3.543
 1878SOL     OW 5651   3.231   0.950   3.522
 1878SOL    HW1 5652   3.270   1.039   3.542
 1878SOL    HW2 5653   3.241   0.930   3.425
 1879SOL     OW 5654   2.677   0.572   2.187
 1879SOL    HW1 5655   2.684   0.483   2.141
 1879SOL    HW2 5656   2.583   0.606   2.179
 1880SOL     OW 5657   3.519   0.604   3.068
 1880SOL    HW1 5658   3.481   0.535   3.130
 1880SOL    HW2 5659   3.601   0.568   3.024
 1881SOL     OW 5660   2.114   1.564   3.606
 1881SOL    HW1 5661   2.084   1.621   3.682
 1881SOL    HW2 5662   2.107   1.467   3.632
 1882SOL     OW 5663   2.533   0.464   3.131
 1882SOL    HW1 5664   2.499   0.375   3.101
 1882SOL    HW2 5665   2.559   0.518   3.051
 1883SOL     OW 5666   2.792   1.678   3.327
 1883SOL    HW1 5667   2.768   1.660   3.232
 1883SOL    HW2 5668   2.822   1.772   3.337
 1884SOL     OW 5669   2.335   0.500   2.053
 1884SOL    HW1 5670   2.396   0.580   2.057
 1884SOL    HW2 5671   2.240   0.531   2.060
 1885SOL     OW 5672   2.021   1.137   3.328
 1885SOL    HW1 5673   2.043   1.076   3.404
 1885SOL    HW2 5674   2.031   1.088   3.242
 1886SOL     OW 5675   3.209   1.059   3.096
 1886SOL    HW1 5676   3.233   0.996   3.022
 1886SOL    HW2 5677   3.119   1.099   3.078
 1887SOL     OW 5678   3.164   0.855   2.171
 1887SOL    HW1 5679   3.078   0.824   2.213
 1887SOL    HW2 5680   3.160   0.841   2.072
 1888SOL     OW 5681   3.621   1.747   3.016
 1888SOL    HW1 5682   3.682   1.777   2.943
 1888SOL    HW2 5683   3.583   1.658   2.994
 1889SOL     OW 5684   3.114   1.731   2.990
 1889SOL    HW1 5685   3.198   1.736   2.936
 1889SOL    HW2 5686   3.091   1.635   3.008
 1890SOL     OW 5687   1.945   1.258   2.884
 1890SOL    HW1 5688   1.940   1.257   2.984
 1890SOL    HW2 5689   1.862   1.217   2.846
 1891SOL     OW 5690   2.550   1.662   3.578
 1891SOL    HW1 5691   2.494   1.743   3.587
 1891SOL    HW2 5692   2.602   1.666   3.492
 1892SOL     OW 5693   3.588   0.135   2.385
 1892SOL    HW1 5694   3.661   0.118   2.318
 1892SOL    HW2 5695   3.557   0.048   2.423
 1893SOL     OW 5696   3.250   1.573   2.339
 1893SOL    HW1 5697   3.317   1.585   2.265
 1893SOL    HW2 5698   3.210   1.662   2.362
 1894SOL     OW 5699   1.992   1.794   3.713
 1894SOL    HW1 5700   1.951   1.720   3.766
 1894SOL    HW2 5701   2.056   1.845   3.771
 1895SOL     OW 5702   3.142   0.927   2.534
 1895SOL    HW1 5703   3.202   0.846   2.536
 1895SOL    HW2 5704   3.182   0.996   2.474
 1896SOL     OW 5705   2.692   1.273   3.284
 1896SOL    HW1 5706   2.687   1.306   3.379
 1896SOL    HW2 5707   2.606   1.292   3.238
 1897SOL     OW 5708   2.534   1.616   2.016
 1897SOL    HW1 5709   2.543   1.626   1.917
 1897SOL    HW2 5710   2.494   1.527   2.037
 1898SOL     OW 5711   3.512   1.720   3.256
 1898SOL    HW1 5712   3.565   1.730   3.172
 1898SOL    HW2 5713   3.485   1.810   3.290
 1899SOL     OW 5714   3.703   0.175   2.825
 1899SOL    HW1 5715   3.742   0.090   2.789
 1899SOL    HW2 5716   3.605   0.177   2.806
 1900SOL     OW 5717   2.125   0.326   2.582
 1900SOL    HW1 5718   2.046   0.377   2.548
 1900SOL    HW2 5719   2.116   0.311   2.680
 1901SOL     OW 5720   3.056   1.612   1.893
 1901SOL    HW1 5721   3.062   1.519   1.930
 1901SOL    HW2 5722   2.997   1.612   1.813
 1902SOL     OW 5723   2.684   1.002   3.234
 1902SOL    HW1 5724   2.724   1.001   3.142
 1902SOL    HW2 5725   2.694   1.094   3.274
 1903SOL     OW 5726   2.778   0.910   2.153
 1903SOL    HW1 5727   2.841   0.948   2.085
 1903SOL    HW2 5728   2.818   0.827   2.192
 1904SOL     OW 5729   3.366   1.607   1.906
 1904SOL    HW1 5730   3.274   1.644   1.913
 1904SOL    HW2 5731   3.404   1.627   1.816
 1905SOL     OW 5732   2.234   1.288   3.352
 1905SOL    HW1 5733   2.221   1.381   3.318
 1905SOL    HW2 5734   2.150   1.236   3.339
 1906SOL     OW 5735   3.476   1.292   3.151
 1906SOL    HW1 5736   3.536   1.295   3.231
 1906SOL    HW2 5737   3.401   1.356   3.164
 1907SOL     OW 5738   2.901   1.098   2.558
 1907SOL    HW1 5739   2.831   1.051   2.612
 1907SOL    HW2 5740   2.960   1.030   2.515
 1908SOL     OW 5741   2.876   0.236   2.833
 1908SOL    HW1 5742   2.868   0.200   2.740
 1908SOL    HW2 5743   2.874   0.160   2.898
 1909SOL     OW 5744   2.452   1.487   2.353
 1909SOL    HW1 5745   2.494   1.429   2.283
 1909SOL    HW2 5746   2.408   1.566   2.309
 1910SOL     OW 5747   3.571   0.385   3.243
 1910SOL    HW1 5748   3.644   0.454   3.247
 1910SOL    HW2 5749   3.599   0.310   3.184
 1911SOL     OW 5750   2.117   1.348   2.152
 1911SOL    HW1 5751   2.021   1.349   2.125
 1911SOL    HW2 5752   2.129   1.401   2.236
 1912SOL     OW 5753   1.967   1.013   3.588
 1912SOL    HW1 5754   1.890   0.980   3.642
 1912SOL    HW2 5755   2.052   0.983   3.630
 1913SOL     OW 5756   2.534   0.203   3.351
 1913SOL    HW1 5757   2.624   0.187   3.311
 1913SOL    HW2 5758   2.542   0.208   3.450
 1914SOL     OW 5759   1.937   0.345   1.895
 1914SOL    HW1 5760   1.845   0.317   1.866
 1914SOL    HW2 5761   1.968   0.422   1.839
 1915SOL     OW 5762   3.302   0.856   3.260
 1915SOL    HW1 5763   3.245   0.908   3.197
 1915SOL    HW2 5764   3.398   0.868   3.236
 1916SOL     OW 5765   1.934   0.166   2.180
 1916SOL    HW1 5766   1.917   0.249   2.126
 1916SOL    HW2 5767   2.024   0.129   2.158
 1917SOL     OW 5768   3.045   1.335   1.981
 1917SOL    HW1 5769   2.946   1.324   1.983
 1917SOL    HW2 5770   3.079   1.350   2.074
 1918SOL     OW 5771   2.475   0.842   3.293
 1918SOL    HW1 5772   2.531   0.923   3.276
 1918SOL    HW2 5773   2.534   0.762   3.296
 1919SOL     OW 5774   3.355   1.767   2.821
 1919SOL    HW1 5775   3.388   1.831   2.752
 1919SOL    HW2 5776   3.421   1.761   2.896
 1920SOL     OW 5777   2.578   0.565   3.570
 1920SOL    HW1 5778   2.597   0.630   3.644
 1920SOL    HW2 5779   2.638   0.485   3.579
 1921SOL     OW 5780   3.312   1.220   3.495
 1921SOL    HW1 5781   3.303   1.210   3.594
 1921SOL    HW2 5782   3.408   1.213   3.469
 1922SOL     OW 5783   2.252   1.741   3.422
 1922SOL    HW1 5784   2.161   1.782   3.420
 1922SOL    HW2 5785   2.245   1.647   3.454
 1923SOL     OW 5786   3.536   0.883   3.116
 1923SOL    HW1 5787   3.509   0.794   3.079
 1923SOL    HW2 5788   3.537   0.951   3.043
 1924SOL     OW 5789   3.087   0.325   2.311
 1924SOL    HW1 5790   3.152   0.251   2.300
 1924SOL    HW2 5791   3.107   0.375   2.395
 1925SOL     OW 5792   2.456   0.745   2.514
 1925SOL    HW1 5793   2.506   0.830   2.495
 1925SOL    HW2 5794   2.368   0.747   2.466
 1926SOL     OW 5795   3.639   0.342   3.504
 1926SOL    HW1 5796   3.622   0.373   3.410
 1926SOL    HW2 5797   3.555   0.305   3.542
 1927SOL     OW 5798   3.592   0.934   3.379
 1927SOL    HW1 5799   3.630   1.025   3.394
 1927SOL    HW2 5800   3.584   0.917   3.280
 1928SOL     OW 5801   2.721   1.374   1.878
 1928SOL    HW1 5802   2.675   1.389   1.966
 1928SOL    HW2 5803   2.765   1.459   1.848
 1929SOL     OW 5804   2.523   1.790   2.815
 1929SOL    HW1 5805   2.477   1.878   2.802
 1929SOL    HW2 5806   2.622   1.802   2.808
 1930SOL     OW 5807   2.721   0.956   2.723
 1930SOL    HW1 5808   2.775   0.887   2.771
 1930SOL    HW2 5809   2.689   1.025   2.789
 1931SOL     OW 5810   2.945   0.984   1.949
 1931SOL    HW1 5811   2.922   1.037   1.867
 1931SOL    HW2 5812   3.026   0.928   1.930
 1932SOL     OW 5813   3.723   1.569   2.713
 1932SOL    HW1 5814   3.652   1.557   2.643
 1932SOL    HW2 5815   3.724   1.490   2.773
 1933SOL     OW 5816   2.083   1.314   3.706
 1933SOL    HW1 5817   2.018   1.241   3.685
 1933SOL    HW2 5818   2.087   1.328   3.804
 1934SOL     OW 5819   1.941   1.240   2.515
 1934SOL    HW1 5820   1.940   1.193   2.603
 1934SOL    HW2 5821   2.023   1.212   2.464
 1935SOL     OW 5822   2.534   1.391   3.486
 1935SOL    HW1 5823   2.456   1.341   3.524
 1935SOL    HW2 5824   2.531   1.486   3.517
 1936SOL     OW 5825   3.686   0.192   3.089
 1936SOL    HW1 5826   3.682   0.102   3.133
 1936SOL    HW2 5827   3.689   0.181   2.990
 1937SOL     OW 5828   2.290   0.424   2.382
 1937SOL    HW1 5829   2.320   0.352   2.320
 1937SOL    HW2 5830   2.251   0.384   2.465
 1938SOL     OW 5831   3.567   1.487   2.966
 1938SOL    HW1 5832   3.474   1.462   2.939
 1938SOL    HW2 5833   3.593   1.437   3.048
 1939SOL     OW 5834   2.179   0.547   3.142
 1939SOL    HW1 5835   2.217   0.488   3.214
 1939SOL    HW2 5836   2.219   0.521   3.054
 1940SOL     OW 5837   2.674   1.586   2.549
 1940SOL    HW1 5838   2.706   1.596   2.455
 1940SOL    HW2 5839   2.595   1.524   2.551
 1941SOL     OW 5840   3.286   0.214   2.974
 1941SOL    HW1 5841   3.338   0.149   3.029
 1941SOL    HW2 5842   3.237   0.277   3.035
 1942SOL     OW 5843   2.863   0.034   3.016
 1942SOL    HW1 5844   2.800  -0.038   2.985
 1942SOL    HW2 5845   2.956  -0.002   3.016
 1943SOL     OW 5846   2.632   1.330   2.163
 1943SOL    HW1 5847   2.586   1.243   2.180
 1943SOL    HW2 5848   2.723   1.327   2.204
 1944SOL     OW 5849   2.480   1.567   3.146
 1944SOL    HW1 5850   2.475   1.649   3.203
 1944SOL    HW2 5851   2.569   1.564   3.101
 1945SOL     OW 5852   3.214   0.052   2.030
 1945SOL    HW1 5853   3.249   0.011   1.946
 1945SOL    HW2 5854   3.124   0.014   2.050
 1946SOL     OW 5855   3.162   0.453   2.553
 1946SOL    HW1 5856   3.103   0.533   2.557
 1946SOL    HW2 5857   3.177   0.418   2.646
 1947SOL     OW 5858   3.455   0.221   2.744
 1947SOL    HW1 5859   3.371   0.220   2.798
 1947SOL    HW2 5860   3.457   0.304   2.688
 1948SOL     OW 5861   1.901   1.077   2.162
 1948SOL    HW1 5862   2.000   1.066   2.153
 1948SOL    HW2 5863   1.861   0.991   2.194
 1949SOL     OW 5864   2.737   1.646   2.199
 1949SOL    HW1 5865   2.660   1.611   2.145
 1949SOL    HW2 5866   2.705   1.717   2.261
 1950SOL     OW 5867   2.092   0.628   3.837
 1950SOL    HW1 5868   1.999   0.626   3.874
 1950SOL    HW2 5869   2.093   0.589   3.745
 1951SOL     OW 5870   2.087   0.275   4.720
 1951SOL    HW1 5871   2.122   0.258   4.812
 1951SOL    HW2 5872   1.999   0.230   4.708
 1952SOL     OW 5873   1.881   0.368   4.371
 1952SOL    HW1 5874   1.799   0.411   4.410
 1952SOL    HW2 5875   1.853   0.295   4.308
 1953SOL     OW 5876   2.431   1.275   4.889
 1953SOL    HW1 5877   2.338   1.268   4.852
 1953SOL    HW2 5878   2.442   1.364   4.933
 1954SOL     OW 5879   3.417   1.511   4.427
 1954SOL    HW1 5880   3.360   1.495   4.508
 1954SOL    HW2 5881   3.358   1.521   4.347
 1955SOL     OW 5882   2.997   0.703   4.441
 1955SOL    HW1 5883   3.054   0.781   4.416
 1955SOL    HW2 5884   2.937   0.729   4.517
 1956SOL     OW 5885   3.617   0.607   3.955
 1956SOL    HW1 5886   3.605   0.594   3.856
 1956SOL    HW2 5887   3.587   0.526   4.004
 1957SOL     OW 5888   2.630   1.144   4.747
 1957SOL    HW1 5889   2.552   1.161   4.807
 1957SOL    HW2 5890   2.664   1.231   4.711
 1958SOL     OW 5891   2.547   1.012   4.389
 1958SOL    HW1 5892   2.616   0.996   4.459
 1958SOL    HW2 5893   2.474   1.069   4.427
 1959SOL     OW 5894   2.197   1.435   4.785
 1959SOL    HW1 5895   2.119   1.404   4.732
 1959SOL    HW2 5896   2.255   1.493   4.728
 1960SOL     OW 5897   3.465   0.447   4.461
 1960SOL    HW1 5898   3.391   0.493   4.411
 1960SOL    HW2 5899   3.516   0.515   4.514
 1961SOL     OW 5900   2.093   1.713   4.207
 1961SOL    HW1 5901   2.127   1.790   4.261
 1961SOL    HW2 5902   2.137   1.713   4.117
 1962SOL     OW 5903   2.092   1.434   4.262
 1962SOL    HW1 5904   2.066   1.530   4.262
 1962SOL    HW2 5905   2.021   1.380   4.307
 1963SOL     OW 5906   2.102   1.091   4.610
 1963SOL    HW1 5907   2.116   1.007   4.662
 1963SOL    HW2 5908   2.047   1.155   4.665
 1964SOL     OW 5909   2.468   0.964   3.847
 1964SOL    HW1 5910   2.475   1.048   3.793
 1964SOL    HW2 5911   2.514   0.977   3.935
 1965SOL     OW 5912   1.984   0.643   4.287
 1965SOL    HW1 5913   1.939   0.555   4.304
 1965SOL    HW2 5914   1.983   0.697   4.371
 1966SOL     OW 5915   3.704   1.767   4.083
 1966SOL    HW1 5916   3.758   1.738   4.163
 1966SOL    HW2 5917   3.734   1.857   4.054
 1967SOL     OW 5918   1.889   1.596   3.841
 1967SOL    HW1 5919   1.870   1.500   3.862
 1967SOL    HW2 5920   1.856   1.654   3.916
 1968SOL     OW 5921   3.551   0.922   4.336
 1968SOL    HW1 5922   3.646   0.893   4.344
 1968SOL    HW2 5923   3.543   0.987   4.261
 1969SOL     OW 5924   3.503   1.108   4.156
 1969SOL    HW1 5925   3.589   1.110   4.104
 1969SOL    HW2 5926   3.517   1.155   4.244
 1970SOL     OW 5927   2.475   1.365   4.450
 1970SOL    HW1 5928   2.426   1.278   4.459
 1970SOL    HW2 5929   2.452   1.408   4.363
 1971SOL     OW 5930   2.671   0.004   4.226
 1971SOL    HW1 5931   2.711   0.095   4.217
 1971SOL    HW2 5932   2.571   0.012   4.232
 1972SOL     OW 5933   2.059   0.976   4.988
 1972SOL    HW1 5934   2.148   0.931   4.974
 1972SOL    HW2 5935   1.986   0.911   4.969
 1973SOL     OW 5936   3.387   0.999   3.914
 1973SOL    HW1 5937   3.324   0.923   3.927
 1973SOL    HW2 5938   3.435   1.017   4.000
 1974SOL     OW 5939   3.328   1.417   4.677
 1974SOL    HW1 5940   3.269   1.423   4.757
 1974SOL    HW2 5941   3.313   1.329   4.631
 1975SOL     OW 5942   3.529   1.714   4.296
 1975SOL    HW1 5943   3.488   1.691   4.208
 1975SOL    HW2 5944   3.511   1.640   4.361
 1976SOL     OW 5945   2.460   0.729   3.994
 1976SOL    HW1 5946   2.484   0.798   3.926
 1976SOL    HW2 5947   2.382   0.762   4.048
 1977SOL     OW 5948   3.143   0.345   4.668
 1977SOL    HW1 5949   3.057   0.295   4.655
 1977SOL    HW2 5950   3.205   0.291   4.724
 1978SOL     OW 5951   3.438   1.662   4.031
 1978SOL    HW1 5952   3.527   1.708   4.034
 1978SOL    HW2 5953   3.417   1.638   3.936
 1979SOL     OW 5954   2.903   0.701   4.153
 1979SOL    HW1 5955   2.929   0.697   4.249
 1979SOL    HW2 5956   2.818   0.650   4.139
 1980SOL     OW 5957   1.938   0.811   4.513
 1980SOL    HW1 5958   2.037   0.799   4.522
 1980SOL    HW2 5959   1.914   0.906   4.534
 1981SOL     OW 5960   2.727   0.348   3.919
 1981SOL    HW1 5961   2.786   0.411   3.870
 1981SOL    HW2 5962   2.746   0.254   3.890
 1982SOL     OW 5963   3.224   1.144   4.269
 1982SOL    HW1 5964   3.307   1.115   4.221
 1982SOL    HW2 5965   3.175   1.211   4.213
 1983SOL     OW 5966   2.412   0.196   4.609
 1983SOL    HW1 5967   2.407   0.191   4.709
 1983SOL    HW2 5968   2.414   0.292   4.580
 1984SOL     OW 5969   2.870   1.456   4.201
 1984SOL    HW1 5970   2.824   1.528   4.149
 1984SOL    HW2 5971   2.866   1.476   4.299
 1985SOL     OW 5972   2.213   1.801   4.577
 1985SOL    HW1 5973   2.263   1.715   4.583
 1985SOL    HW2 5974   2.278   1.878   4.574
 1986SOL     OW 5975   3.657   1.066   4.597
 1986SOL    HW1 5976   3.595   1.051   4.521
 1986SOL    HW2 5977   3.605   1.077   4.682
 1987SOL     OW 5978   2.183   0.943   3.966
 1987SOL    HW1 5979   2.265   0.982   3.924
 1987SOL    HW2 5980   2.156   0.861   3.917
 1988SOL     OW 5981   3.320   0.735   4.452
 1988SOL    HW1 5982   3.315   0.670   4.527
 1988SOL    HW2 5983   3.400   0.794   4.465
 1989SOL     OW 5984   2.973   1.776   3.961
 1989SOL    HW1 5985   2.913   1.714   4.011
 1989SOL    HW2 5986   3.004   1.732   3.876
 1990SOL     OW 5987   3.494   1.377   3.805
 1990SOL    HW1 5988   3.462   1.471   3.795
 1990SOL    HW2 5989   3.418   1.314   3.793
 1991SOL     OW 5990   2.326   1.743   4.047
 1991SOL    HW1 5991   2.359   1.782   4.133
 1991SOL    HW2 5992   2.402   1.736   3.982
 1992SOL     OW 5993   3.262   0.107   4.150
 1992SOL    HW1 5994   3.238   0.070   4.060
 1992SOL    HW2 5995   3.361   0.123   4.154
 1993SOL     OW 5996   2.111   1.785   4.965
 1993SOL    HW1 5997   2.168   1.720   5.015
 1993SOL    HW2 5998   2.095   1.752   4.872
 1994SOL     OW 5999   2.802   1.698   4.628
 1994SOL    HW1 6000   2.882   1.641   4.649
 1994SOL    HW2 6001   2.753   1.658   4.551
 1995SOL     OW 6002   2.244   0.700   4.204
 1995SOL    HW1 6003   2.289   0.610   4.201
 1995SOL    HW2 6004   2.150   0.689   4.237
 1996SOL     OW 6005   2.476   0.122   3.841
 1996SOL    HW1 6006   2.574   0.100   3.848
 1996SOL    HW2 6007   2.445   0.105   3.748
 1997SOL     OW 6008   2.665   1.402   4.648
 1997SOL    HW1 6009   2.755   1.416   4.606
 1997SOL    HW2 6010   2.594   1.404   4.577
 1998SOL     OW 6011   2.784   0.503   4.623
 1998SOL    HW1 6012   2.759   0.494   4.527
 1998SOL    HW2 6013   2.832   0.421   4.654
 1999SOL     OW 6014   2.401   0.064   4.236
 1999SOL    HW1 6015   2.320   0.065   4.294
 1999SOL    HW2 6016   2.404   0.147   4.181
 2000SOL     OW 6017   3.296   1.188   3.765
 2000SOL    HW1 6018   3.328   1.112   3.822
 2000SOL    HW2 6019   3.204   1.215   3.795
 2001SOL     OW 6020   2.159   0.035   3.895
 2001SOL    HW1 6021   2.208   0.119   3.874
 2001SOL    HW2 6022   2.221  -0.030   3.940
 2002SOL     OW 6023   2.797   0.236   4.204
 2002SOL    HW1 6024   2.749   0.277   4.126
 2002SOL    HW2 6025   2.896   0.234   4.185
 2003SOL     OW 6026   3.089   1.570   4.517
 2003SOL    HW1 6027   3.110   1.644   4.452
 2003SOL    HW2 6028   3.157   1.570   4.590
 2004SOL     OW 6029   2.321   1.152   4.465
 2004SOL    HW1 6030   2.250   1.125   4.530
 2004SOL    HW2 6031   2.295   1.124   4.372
 2005SOL     OW 6032   3.133   1.797   4.315
 2005SOL    HW1 6033   3.177   1.861   4.251
 2005SOL    HW2 6034   3.083   1.849   4.385
 2006SOL     OW 6035   2.894   0.549   3.740
 2006SOL    HW1 6036   2.853   0.631   3.701
 2006SOL    HW2 6037   2.958   0.575   3.813
 2007SOL     OW 6038   2.728   0.454   4.366
 2007SOL    HW1 6039   2.696   0.526   4.304
 2007SOL    HW2 6040   2.752   0.373   4.313
 2008SOL     OW 6041   2.879   0.039   4.477
 2008SOL    HW1 6042   2.807   0.044   4.408
 2008SOL    HW2 6043   2.855  -0.030   4.546
 2009SOL     OW 6044   3.291   1.173   4.591
 2009SOL    HW1 6045   3.236   1.089   4.584
 2009SOL    HW2 6046   3.317   1.202   4.499
 2010SOL     OW 6047   3.328   0.590   4.716
 2010SOL    HW1 6048   3.298   0.495   4.723
 2010SOL    HW2 6049   3.401   0.606   4.782
 2011SOL     OW 6050   3.719   0.833   4.101
 2011SOL    HW1 6051   3.761   0.769   4.165
 2011SOL    HW2 6052   3.681   0.782   4.023
 2012SOL     OW 6053   2.350   1.385   3.898
 2012SOL    HW1 6054   2.263   1.370   3.945
 2012SOL    HW2 6055   2.333   1.411   3.803
 2013SOL     OW 6056   3.526   1.280   4.381
 2013SOL    HW1 6057   3.625   1.288   4.395
 2013SOL    HW2 6058   3.481   1.364   4.412
 2014SOL     OW 6059   3.252   0.575   3.802
 2014SOL    HW1 6060   3.198   0.554   3.883
 2014SOL    HW2 6061   3.343   0.534   3.811
 2015SOL     OW 6062   2.389   0.256   4.052
 2015SOL    HW1 6063   2.416   0.197   3.977
 2015SOL    HW2 6064   2.389   0.351   4.021
 2016SOL     OW 6065   2.973   1.195   4.824
 2016SOL    HW1 6066   2.933   1.239   4.905
 2016SOL    HW2 6067   2.932   1.232   4.741
 2017SOL     OW 6068   3.500   1.099   4.803
 2017SOL    HW1 6069   3.505   1.180   4.862
 2017SOL    HW2 6070   3.414   1.101   4.752
 2018SOL     OW 6071   2.567   1.050   4.092
 2018SOL    HW1 6072   2.553   1.057   4.191
 2018SOL    HW2 6073   2.651   0.999   4.074
 2019SOL     OW 6074   2.272   0.813   4.975
 2019SOL    HW1 6075   2.358   0.825   5.025
 2019SOL    HW2 6076   2.230   0.726   5.002
 2020SOL     OW 6077   2.229   1.100   4.225
 2020SOL    HW1 6078   2.222   1.183   4.169
 2020SOL    HW2 6079   2.233   1.020   4.165
 2021SOL     OW 6080   2.428   0.537   4.589
 2021SOL    HW1 6081   2.440   0.603   4.515
 2021SOL    HW2 6082   2.474   0.571   4.672
 2022SOL     OW 6083   3.114   1.348   4.112
 2022SOL    HW1 6084   3.164   1.425   4.152
 2022SOL    HW2 6085   3.019   1.350   4.144
 2023SOL     OW 6086   3.134   1.445   4.866
 2023SOL    HW1 6087   3.181   1.458   4.953
 2023SOL    HW2 6088   3.068   1.371   4.875
 2024SOL     OW 6089   3.444   0.639   4.196
 2024SOL    HW1 6090   3.413   0.700   4.269
 2024SOL    HW2 6091   3.494   0.691   4.127
 2025SOL     OW 6092   2.435   0.870   4.753
 2025SOL    HW1 6093   2.479   0.959   4.744
 2025SOL    HW2 6094   2.372   0.870   4.830
 2026SOL     OW 6095   3.222   0.862   4.769
 2026SOL    HW1 6096   3.147   0.862   4.703
 2026SOL    HW2 6097   3.259   0.770   4.778
 2027SOL     OW 6098   3.071   0.525   3.999
 2027SOL    HW1 6099   3.084   0.441   4.053
 2027SOL    HW2 6100   3.042   0.599   4.059
 2028SOL     OW 6101   2.169   0.213   4.955
 2028SOL    HW1 6102   2.146   0.250   5.045
 2028SOL    HW2 6103   2.139   0.118   4.949
 2029SOL     OW 6104   1.899   1.310   5.006
 2029SOL    HW1 6105   1.952   1.261   5.074
 2029SOL    HW2 6106   1.921   1.408   5.011
 2030SOL     OW 6107   2.594   0.634   4.788
 2030SOL    HW1 6108   2.653   0.608   4.712
 2030SOL    HW2 6109   2.566   0.730   4.777
 2031SOL     OW 6110   2.169   0.063   4.342
 2031SOL    HW1 6111   2.158   0.157   4.375
 2031SOL    HW2 6112   2.164   0.000   4.419
 2032SOL     OW 6113   3.484   0.367   4.098
 2032SOL    HW1 6114   3.486   0.291   4.162
 2032SOL    HW2 6115   3.436   0.444   4.138
 2033SOL     OW 6116   2.885   0.766   4.690
 2033SOL    HW1 6117   2.900   0.787   4.786
 2033SOL    HW2 6118   2.855   0.671   4.681
 2034SOL     OW 6119   3.402   0.274   3.849
 2034SOL    HW1 6120   3.341   0.199   3.872
 2034SOL    HW2 6121   3.424   0.326   3.932
 2035SOL     OW 6122   3.165   0.838   3.766
 2035SOL    HW1 6123   3.199   0.745   3.781
 2035SOL    HW2 6124   3.183   0.865   3.671
 2036SOL     OW 6125   2.930   1.333   4.573
 2036SOL    HW1 6126   2.937   1.249   4.518
 2036SOL    HW2 6127   2.992   1.402   4.537
 2037SOL     OW 6128   2.181   0.810   4.673
 2037SOL    HW1 6129   2.274   0.846   4.678
 2037SOL    HW2 6130   2.175   0.725   4.725
 2038SOL     OW 6131   2.201   0.509   4.730
 2038SOL    HW1 6132   2.149   0.426   4.713
 2038SOL    HW2 6133   2.278   0.514   4.666
 2039SOL     OW 6134   3.022   0.207   5.201
 2039SOL    HW1 6135   3.022   0.271   5.278
 2039SOL    HW2 6136   3.050   0.255   5.118
 2040SOL     OW 6137   1.870   1.326   3.924
 2040SOL    HW1 6138   1.777   1.347   3.893
 2040SOL    HW2 6139   1.880   1.227   3.937
 2041SOL     OW 6140   1.950   1.801   4.651
 2041SOL    HW1 6141   1.908   1.715   4.624
 2041SOL    HW2 6142   2.044   1.804   4.617
 2042SOL     OW 6143   2.366   1.568   4.634
 2042SOL    HW1 6144   2.432   1.642   4.643
 2042SOL    HW2 6145   2.410   1.489   4.592
 2043SOL     OW 6146   2.864   0.796   4.962
 2043SOL    HW1 6147   2.905   0.764   5.048
 2043SOL    HW2 6148   2.768   0.769   4.959
 2044SOL     OW 6149   1.902   0.544   4.838
 2044SOL    HW1 6150   1.987   0.511   4.797
 2044SOL    HW2 6151   1.915   0.559   4.936
 2045SOL     OW 6152   2.677   0.572   4.049
 2045SOL    HW1 6153   2.684   0.483   4.003
 2045SOL    HW2 6154   2.583   0.606   4.041
 2046SOL     OW 6155   3.519   0.604   4.930
 2046SOL    HW1 6156   3.481   0.535   4.992
 2046SOL    HW2 6157   3.601   0.568   4.886
 2047SOL     OW 6158   2.533   0.464   4.993
 2047SOL    HW1 6159   2.499   0.375   4.963
 2047SOL    HW2 6160   2.559   0.518   4.913
 2048SOL     OW 6161   2.335   0.500   3.915
 2048SOL    HW1 6162   2.396   0.580   3.919
 2048SOL    HW2 6163   2.240   0.531   3.922
 2049SOL     OW 6164   2.021   1.137   5.190
 2049SOL    HW1 6165   2.043   1.076   5.266
 2049SOL    HW2 6166   2.031   1.088   5.104
 2050SOL     OW 6167   3.209   1.059   4.958
 2050SOL    HW1 6168   3.233   0.996   4.884
 2050SOL    HW2 6169   3.119   1.099   4.940
 2051SOL     OW 6170   3.164   0.855   4.033
 2051SOL    HW1 6171   3.078   0.824   4.075
 2051SOL    HW2 6172   3.160   0.841   3.934
 2052SOL     OW 6173   3.621   1.747   4.878
 2052SOL    HW1 6174   3.682   1.777   4.805
 2052SOL    HW2 6175   3.583   1.658   4.856
 2053SOL     OW 6176   1.945   1.258   4.746
 2053SOL    HW1 6177   1.940   1.257   4.846
 2053SOL    HW2 6178   1.862   1.217   4.708
 2054SOL     OW 6179   3.588   0.135   4.247
 2054SOL    HW1 6180   3.661   0.118   4.180
 2054SOL    HW2 6181   3.557   0.048   4.285
 2055SOL     OW 6182   3.250   1.573   4.201
 2055SOL    HW1 6183   3.317   1.585   4.127
 2055SOL    HW2 6184   3.210   1.662   4.224
 2056SOL     OW 6185   3.142   0.927   4.396
 2056SOL    HW1 6186   3.202   0.846   4.398
 2056SOL    HW2 6187   3.182   0.996   4.336
 2057SOL     OW 6188   2.534   1.616   3.878
 2057SOL    HW1 6189   2.543   1.626   3.779
 2057SOL    HW2 6190   2.494   1.527   3.899
 2058SOL     OW 6191   3.512   1.720   5.118
 2058SOL    HW1 6192   3.565   1.730   5.034
 2058SOL    HW2 6193   3.485   1.810   5.152
 2059SOL     OW 6194   3.703   0.175   4.687
 2059SOL    HW1 6195   3.742   0.090   4.651
 2059SOL    HW2 6196   3.605   0.177   4.668
 2060SOL     OW 6197   2.125   0.326   4.444
 2060SOL    HW1 6198   2.046   0.377   4.410
 2060SOL    HW2 6199   2.116   0.311   4.542
 2061SOL     OW 6200   3.056   1.612   3.755
 2061SOL    HW1 6201   3.062   1.519   3.792
 2061SOL    HW2 6202   2.997   1.612   3.675
 2062SOL     OW 6203   2.684   1.002   5.096
 2062SOL    HW1 6204   2.724   1.001   5.004
 2062SOL    HW2 6205   2.694   1.094   5.136
 2063SOL     OW 6206   2.778   0.910   4.015
 2063SOL    HW1 6207   2.841   0.948   3.947
 2063SOL    HW2 6208   2.818   0.827   4.054
 2064SOL     OW 6209   3.366   1.607   3.768
 2064SOL    HW1 6210   3.274   1.644   3.775
 2064SOL    HW2 6211   3.404   1.627   3.678
 2065SOL     OW 6212   2.901   1.098   4.420
 2065SOL    HW1 6213   2.831   1.051   4.474
 2065SOL    HW2 6214   2.960   1.030   4.377
 2066SOL     OW 6215   2.876   0.236   4.695
 2066SOL    HW1 6216   2.868   0.200   4.602
 2066SOL    HW2 6217   2.874   0.160   4.760
 2067SOL     OW 6218   2.452   1.487   4.215
 2067SOL    HW1 6219   2.494   1.429   4.145
 2067SOL    HW2 6220   2.408   1.566   4.171
 2068SOL     OW 6221   3.571   0.385   5.105
 2068SOL    HW1 6222   3.644   0.454   5.109
 2068SOL    HW2 6223   3.599   0.310   5.046
 2069SOL     OW 6224   2.117   1.348   4.014
 2069SOL    HW1 6225   2.021   1.349   3.987
 2069SOL    HW2 6226   2.129   1.401   4.098
 2070SOL     OW 6227   1.937   0.345   3.757
 2070SOL    HW1 6228   1.845   0.317   3.728
 2070SOL    HW2 6229   1.968   0.422   3.701
 2071SOL     OW 6230   1.934   0.166   4.042
 2071SOL    HW1 6231   1.917   0.249   3.988
 2071SOL    HW2 6232   2.024   0.129   4.020
 2072SOL     OW 6233   3.045   1.335   3.843
 2072SOL    HW1 6234   2.946   1.324   3.845
 2072SOL    HW2 6235   3.079   1.350   3.936
 2073SOL     OW 6236   3.355   1.767   4.683
 2073SOL    HW1 6237   3.388   1.831   4.614
 2073SOL    HW2 6238   3.421   1.761   4.758
 2074SOL     OW 6239   3.536   0.883   4.978
 2074SOL    HW1 6240   3.509   0.794   4.941
 2074SOL    HW2 6241   3.537   0.951   4.905
 2075SOL     OW 6242   3.087   0.325   4.173
 2075SOL    HW1 6243   3.152   0.251   4.162
 2075SOL    HW2 6244   3.107   0.375   4.257
 2076SOL     OW 6245   2.456   0.745   4.376
 2076SOL    HW1 6246   2.506   0.830   4.357
 2076SOL    HW2 6247   2.368   0.747   4.328
 2077SOL     OW 6248   3.592   0.934   5.241
 2077SOL    HW1 6249   3.630   1.025   5.256
 2077SOL    HW2 6250   3.584   0.917   5.142
 2078SOL     OW 6251   2.721   1.374   3.740
 2078SOL    HW1 6252   2.675   1.389   3.828
 2078SOL    HW2 6253   2.765   1.459   3.710
 2079SOL     OW 6254   2.523   1.790   4.677
 2079SOL    HW1 6255   2.477   1.878   4.664
 2079SOL    HW2 6256   2.622   1.802   4.670
 2080SOL     OW 6257   2.721   0.956   4.585
 2080SOL    HW1 6258   2.775   0.887   4.633
 2080SOL    HW2 6259   2.689   1.025   4.651
 2081SOL     OW 6260   2.945   0.984   3.811
 2081SOL    HW1 6261   2.922   1.037   3.729
 2081SOL    HW2 6262   3.026   0.928   3.792
 2082SOL     OW 6263   3.723   1.569   4.575
 2082SOL    HW1 6264   3.652   1.557   4.505
 2082SOL    HW2 6265   3.724   1.490   4.635
 2083SOL     OW 6266   1.941   1.240   4.377
 2083SOL    HW1 6267   1.940   1.193   4.465
 2083SOL    HW2 6268   2.023   1.212   4.326
 2084SOL     OW 6269   3.686   0.192   4.951
 2084SOL    HW1 6270   3.682   0.102   4.995
 2084SOL    HW2 6271   3.689   0.181   4.852
 2085SOL     OW 6272   2.290   0.424   4.244
 2085SOL    HW1 6273   2.320   0.352   4.182
 2085SOL    HW2 6274   2.251   0.384   4.327
 2086SOL     OW 6275   3.567   1.487   4.828
 2086SOL    HW1 6276   3.474   1.462   4.801
 2086SOL    HW2 6277   3.593   1.437   4.910
 2087SOL     OW 6278   2.674   1.586   4.411
 2087SOL    HW1 6279   2.706   1.596   4.317
 2087SOL    HW2 6280   2.595   1.524   4.413
 2088SOL     OW 6281   3.286   0.214   4.836
 2088SOL    HW1 6282   3.338   0.149   4.891
 2088SOL    HW2 6283   3.237   0.277   4.897
 2089SOL     OW 6284   2.863   0.034   4.878
 2089SOL    HW1 6285   2.800  -0.038   4.847
 2089SOL    HW2 6286   2.956  -0.002   4.878
 2090SOL     OW 6287   2.632   1.330   4.025
 2090SOL    HW1 6288   2.586   1.243   4.042
 2090SOL    HW2 6289   2.723   1.327   4.066
 2091SOL     OW 6290   3.214   0.052   3.892
 2091SOL    HW1 6291   3.249   0.011   3.808
 2091SOL    HW2 6292   3.124   0.014   3.912
 2092SOL     OW 6293   3.162   0.453   4.415
 2092SOL    HW1 6294   3.103   0.533   4.419
 2092SOL    HW2 6295   3.177   0.418   4.508
 2093SOL     OW 6296   3.455   0.221   4.606
 2093SOL    HW1 6297   3.371   0.220   4.660
 2093SOL    HW2 6298   3.457   0.304   4.550
 2094SOL     OW 6299   1.901   1.077   4.024
 2094SOL    HW1 6300   2.000   1.066   4.015
 2094SOL    HW2 6301   1.861   0.991   4.056
 2095SOL     OW 6302   2.737   1.646   4.061
 2095SOL    HW1 6303   2.660   1.611   4.007
 2095SOL    HW2 6304   2.705   1.717   4.123
 2096SOL     OW 6305   2.092   2.490   0.113
 2096SOL    HW1 6306   1.999   2.488   0.150
 2096SOL    HW2 6307   2.093   2.451   0.021
 2097SOL     OW 6308   2.087   2.137   0.996
 2097SOL    HW1 6309   2.122   2.120   1.088
 2097SOL    HW2 6310   1.999   2.092   0.984
 2098SOL     OW 6311   1.881   2.230   0.647
 2098SOL    HW1 6312   1.799   2.273   0.686
 2098SOL    HW2 6313   1.853   2.157   0.584
 2099SOL     OW 6314   2.431   3.137   1.165
 2099SOL    HW1 6315   2.338   3.130   1.128
 2099SOL    HW2 6316   2.442   3.226   1.209
 2100SOL     OW 6317   3.417   3.373   0.703
 2100SOL    HW1 6318   3.360   3.357   0.784
 2100SOL    HW2 6319   3.358   3.383   0.623
 2101SOL     OW 6320   2.997   2.565   0.717
 2101SOL    HW1 6321   3.054   2.643   0.692
 2101SOL    HW2 6322   2.937   2.591   0.793
 2102SOL     OW 6323   3.617   2.469   0.231
 2102SOL    HW1 6324   3.605   2.456   0.132
 2102SOL    HW2 6325   3.587   2.388   0.280
 2103SOL     OW 6326   2.630   3.006   1.023
 2103SOL    HW1 6327   2.552   3.023   1.083
 2103SOL    HW2 6328   2.664   3.093   0.987
 2104SOL     OW 6329   2.712   2.660   1.823
 2104SOL    HW1 6330   2.708   2.736   1.888
 2104SOL    HW2 6331   2.734   2.696   1.732
 2105SOL     OW 6332   2.547   2.874   0.665
 2105SOL    HW1 6333   2.616   2.858   0.735
 2105SOL    HW2 6334   2.474   2.931   0.703
 2106SOL     OW 6335   2.548   3.023   1.803
 2106SOL    HW1 6336   2.608   3.102   1.817
 2106SOL    HW2 6337   2.462   3.054   1.762
 2107SOL     OW 6338   2.197   3.297   1.061
 2107SOL    HW1 6339   2.119   3.266   1.008
 2107SOL    HW2 6340   2.255   3.355   1.004
 2108SOL     OW 6341   3.322   3.367   1.339
 2108SOL    HW1 6342   3.346   3.461   1.365
 2108SOL    HW2 6343   3.306   3.313   1.421
 2109SOL     OW 6344   2.300   2.254   1.499
 2109SOL    HW1 6345   2.382   2.198   1.508
 2109SOL    HW2 6346   2.219   2.196   1.503
 2110SOL     OW 6347   3.465   2.309   0.737
 2110SOL    HW1 6348   3.391   2.355   0.687
 2110SOL    HW2 6349   3.516   2.377   0.790
 2111SOL     OW 6350   2.093   3.575   0.483
 2111SOL    HW1 6351   2.127   3.652   0.537
 2111SOL    HW2 6352   2.137   3.575   0.393
 2112SOL     OW 6353   2.989   3.203   1.690
 2112SOL    HW1 6354   3.036   3.203   1.778
 2112SOL    HW2 6355   2.941   3.116   1.679
 2113SOL     OW 6356   2.092   3.296   0.538
 2113SOL    HW1 6357   2.066   3.392   0.538
 2113SOL    HW2 6358   2.021   3.242   0.583
 2114SOL     OW 6359   2.102   2.953   0.886
 2114SOL    HW1 6360   2.116   2.869   0.938
 2114SOL    HW2 6361   2.047   3.017   0.941
 2115SOL     OW 6362   2.482   3.648   1.439
 2115SOL    HW1 6363   2.390   3.631   1.474
 2115SOL    HW2 6364   2.510   3.740   1.465
 2116SOL     OW 6365   2.468   2.826   0.123
 2116SOL    HW1 6366   2.475   2.910   0.069
 2116SOL    HW2 6367   2.514   2.839   0.211
 2117SOL     OW 6368   3.456   1.976   1.480
 2117SOL    HW1 6369   3.438   2.043   1.408
 2117SOL    HW2 6370   3.453   2.022   1.569
 2118SOL     OW 6371   1.984   2.505   0.563
 2118SOL    HW1 6372   1.939   2.417   0.580
 2118SOL    HW2 6373   1.983   2.559   0.647
 2119SOL     OW 6374   3.704   3.629   0.359
 2119SOL    HW1 6375   3.758   3.600   0.439
 2119SOL    HW2 6376   3.734   3.719   0.330
 2120SOL     OW 6377   1.889   3.458   0.117
 2120SOL    HW1 6378   1.870   3.362   0.138
 2120SOL    HW2 6379   1.856   3.516   0.192
 2121SOL     OW 6380   3.551   2.784   0.612
 2121SOL    HW1 6381   3.646   2.755   0.620
 2121SOL    HW2 6382   3.543   2.849   0.537
 2122SOL     OW 6383   3.503   2.970   0.432
 2122SOL    HW1 6384   3.589   2.972   0.380
 2122SOL    HW2 6385   3.517   3.017   0.520
 2123SOL     OW 6386   1.975   2.599   1.597
 2123SOL    HW1 6387   2.063   2.586   1.642
 2123SOL    HW2 6388   1.962   2.696   1.575
 2124SOL     OW 6389   2.475   3.227   0.726
 2124SOL    HW1 6390   2.426   3.140   0.735
 2124SOL    HW2 6391   2.452   3.270   0.639
 2125SOL     OW 6392   3.155   3.090   1.423
 2125SOL    HW1 6393   3.192   3.017   1.365
 2125SOL    HW2 6394   3.207   3.095   1.508
 2126SOL     OW 6395   2.671   1.866   0.502
 2126SOL    HW1 6396   2.711   1.957   0.493
 2126SOL    HW2 6397   2.571   1.874   0.508
 2127SOL     OW 6398   2.059   2.838   1.264
 2127SOL    HW1 6399   2.148   2.793   1.250
 2127SOL    HW2 6400   1.986   2.773   1.245
 2128SOL     OW 6401   3.387   2.861   0.190
 2128SOL    HW1 6402   3.324   2.785   0.203
 2128SOL    HW2 6403   3.435   2.879   0.276
 2129SOL     OW 6404   3.049   3.654   1.616
 2129SOL    HW1 6405   3.073   3.714   1.540
 2129SOL    HW2 6406   3.056   3.559   1.586
 2130SOL     OW 6407   2.179   2.113   1.801
 2130SOL    HW1 6408   2.250   2.184   1.807
 2130SOL    HW2 6409   2.091   2.152   1.829
 2131SOL     OW 6410   3.328   3.279   0.953
 2131SOL    HW1 6411   3.269   3.285   1.033
 2131SOL    HW2 6412   3.313   3.191   0.907
 2132SOL     OW 6413   3.529   3.576   0.572
 2132SOL    HW1 6414   3.488   3.553   0.484
 2132SOL    HW2 6415   3.511   3.502   0.637
 2133SOL     OW 6416   2.460   2.591   0.270
 2133SOL    HW1 6417   2.484   2.660   0.202
 2133SOL    HW2 6418   2.382   2.624   0.324
 2134SOL     OW 6419   3.143   2.207   0.944
 2134SOL    HW1 6420   3.057   2.157   0.931
 2134SOL    HW2 6421   3.205   2.153   1.000
 2135SOL     OW 6422   3.438   3.524   0.307
 2135SOL    HW1 6423   3.527   3.570   0.310
 2135SOL    HW2 6424   3.417   3.500   0.212
 2136SOL     OW 6425   2.669   2.467   1.465
 2136SOL    HW1 6426   2.622   2.464   1.554
 2136SOL    HW2 6427   2.618   2.412   1.399
 2137SOL     OW 6428   3.256   2.331   1.674
 2137SOL    HW1 6429   3.236   2.374   1.762
 2137SOL    HW2 6430   3.334   2.269   1.683
 2138SOL     OW 6431   2.835   2.752   1.572
 2138SOL    HW1 6432   2.881   2.668   1.543
 2138SOL    HW2 6433   2.779   2.786   1.497
 2139SOL     OW 6434   2.853   2.272   1.242
 2139SOL    HW1 6435   2.776   2.306   1.296
 2139SOL    HW2 6436   2.819   2.221   1.163
 2140SOL     OW 6437   2.903   2.563   0.429
 2140SOL    HW1 6438   2.929   2.559   0.525
 2140SOL    HW2 6439   2.818   2.512   0.415
 2141SOL     OW 6440   1.938   2.673   0.789
 2141SOL    HW1 6441   2.037   2.661   0.798
 2141SOL    HW2 6442   1.914   2.768   0.810
 2142SOL     OW 6443   1.992   3.683   1.571
 2142SOL    HW1 6444   1.982   3.668   1.670
 2142SOL    HW2 6445   1.906   3.719   1.535
 2143SOL     OW 6446   2.727   2.210   0.195
 2143SOL    HW1 6447   2.786   2.273   0.146
 2143SOL    HW2 6448   2.746   2.116   0.166
 2144SOL     OW 6449   3.581   2.447   1.831
 2144SOL    HW1 6450   3.555   2.536   1.795
 2144SOL    HW2 6451   3.579   2.379   1.758
 2145SOL     OW 6452   3.224   3.006   0.545
 2145SOL    HW1 6453   3.307   2.977   0.497
 2145SOL    HW2 6454   3.175   3.073   0.489
 2146SOL     OW 6455   2.412   2.058   0.885
 2146SOL    HW1 6456   2.407   2.053   0.985
 2146SOL    HW2 6457   2.414   2.154   0.856
 2147SOL     OW 6458   2.870   3.318   0.477
 2147SOL    HW1 6459   2.824   3.390   0.425
 2147SOL    HW2 6460   2.866   3.338   0.575
 2148SOL     OW 6461   2.213   3.663   0.853
 2148SOL    HW1 6462   2.263   3.577   0.859
 2148SOL    HW2 6463   2.278   3.740   0.850
 2149SOL     OW 6464   3.657   2.928   0.873
 2149SOL    HW1 6465   3.595   2.913   0.797
 2149SOL    HW2 6466   3.605   2.939   0.958
 2150SOL     OW 6467   3.089   3.412   1.506
 2150SOL    HW1 6468   3.095   3.335   1.570
 2150SOL    HW2 6469   3.037   3.386   1.426
 2151SOL     OW 6470   2.183   2.805   0.242
 2151SOL    HW1 6471   2.265   2.844   0.200
 2151SOL    HW2 6472   2.156   2.723   0.193
 2152SOL     OW 6473   3.320   2.597   0.728
 2152SOL    HW1 6474   3.315   2.532   0.803
 2152SOL    HW2 6475   3.400   2.656   0.741
 2153SOL     OW 6476   2.323   3.128   1.727
 2153SOL    HW1 6477   2.273   3.129   1.641
 2153SOL    HW2 6478   2.260   3.110   1.803
 2154SOL     OW 6479   2.973   3.638   0.237
 2154SOL    HW1 6480   2.913   3.576   0.287
 2154SOL    HW2 6481   3.004   3.594   0.152
 2155SOL     OW 6482   2.064   2.147   1.498
 2155SOL    HW1 6483   1.984   2.207   1.485
 2155SOL    HW2 6484   2.054   2.098   1.584
 2156SOL     OW 6485   3.494   3.239   0.081
 2156SOL    HW1 6486   3.462   3.333   0.071
 2156SOL    HW2 6487   3.418   3.176   0.069
 2157SOL     OW 6488   2.326   3.605   0.323
 2157SOL    HW1 6489   2.359   3.644   0.409
 2157SOL    HW2 6490   2.402   3.598   0.258
 2158SOL     OW 6491   3.262   1.969   0.426
 2158SOL    HW1 6492   3.238   1.932   0.336
 2158SOL    HW2 6493   3.361   1.985   0.430
 2159SOL     OW 6494   2.111   3.647   1.241
 2159SOL    HW1 6495   2.168   3.582   1.291
 2159SOL    HW2 6496   2.095   3.614   1.148
 2160SOL     OW 6497   2.802   3.560   0.904
 2160SOL    HW1 6498   2.882   3.503   0.925
 2160SOL    HW2 6499   2.753   3.520   0.827
 2161SOL     OW 6500   2.244   2.562   0.480
 2161SOL    HW1 6501   2.289   2.472   0.477
 2161SOL    HW2 6502   2.150   2.551   0.513
 2162SOL     OW 6503   3.409   2.084   1.729
 2162SOL    HW1 6504   3.404   2.121   1.821
 2162SOL    HW2 6505   3.337   2.015   1.717
 2163SOL     OW 6506   2.476   1.984   0.117
 2163SOL    HW1 6507   2.574   1.962   0.124
 2163SOL    HW2 6508   2.445   1.967   0.024
 2164SOL     OW 6509   2.643   2.126   1.749
 2164SOL    HW1 6510   2.710   2.065   1.792
 2164SOL    HW2 6511   2.570   2.145   1.814
 2165SOL     OW 6512   2.750   3.376   1.195
 2165SOL    HW1 6513   2.727   3.351   1.101
 2165SOL    HW2 6514   2.811   3.307   1.234
 2166SOL     OW 6515   3.213   2.452   1.433
 2166SOL    HW1 6516   3.241   2.409   1.518
 2166SOL    HW2 6517   3.238   2.548   1.434
 2167SOL     OW 6518   2.665   3.264   0.924
 2167SOL    HW1 6519   2.755   3.278   0.882
 2167SOL    HW2 6520   2.594   3.266   0.853
 2168SOL     OW 6521   2.784   2.365   0.899
 2168SOL    HW1 6522   2.759   2.356   0.803
 2168SOL    HW2 6523   2.832   2.283   0.930
 2169SOL     OW 6524   2.401   1.926   0.512
 2169SOL    HW1 6525   2.320   1.927   0.570
 2169SOL    HW2 6526   2.404   2.009   0.457
 2170SOL     OW 6527   3.296   3.050   0.041
 2170SOL    HW1 6528   3.328   2.974   0.098
 2170SOL    HW2 6529   3.204   3.077   0.071
 2171SOL     OW 6530   2.159   1.897   0.171
 2171SOL    HW1 6531   2.208   1.981   0.150
 2171SOL    HW2 6532   2.221   1.832   0.216
 2172SOL     OW 6533   2.797   2.098   0.480
 2172SOL    HW1 6534   2.749   2.139   0.402
 2172SOL    HW2 6535   2.896   2.096   0.461
 2173SOL     OW 6536   2.938   2.545   1.464
 2173SOL    HW1 6537   2.858   2.484   1.467
 2173SOL    HW2 6538   3.019   2.492   1.440
 2174SOL     OW 6539   3.089   3.432   0.793
 2174SOL    HW1 6540   3.110   3.506   0.728
 2174SOL    HW2 6541   3.157   3.432   0.866
 2175SOL     OW 6542   2.321   3.014   0.741
 2175SOL    HW1 6543   2.250   2.987   0.806
 2175SOL    HW2 6544   2.295   2.986   0.648
 2176SOL     OW 6545   3.133   3.659   0.591
 2176SOL    HW1 6546   3.177   3.723   0.527
 2176SOL    HW2 6547   3.083   3.711   0.661
 2177SOL     OW 6548   2.894   2.411   0.016
 2177SOL    HW1 6549   2.853   2.493  -0.023
 2177SOL    HW2 6550   2.958   2.437   0.089
 2178SOL     OW 6551   1.940   2.418   1.386
 2178SOL    HW1 6552   2.032   2.417   1.345
 2178SOL    HW2 6553   1.934   2.492   1.453
 2179SOL     OW 6554   2.423   2.084   1.147
 2179SOL    HW1 6555   2.461   2.000   1.184
 2179SOL    HW2 6556   2.335   2.103   1.191
 2180SOL     OW 6557   2.728   2.316   0.642
 2180SOL    HW1 6558   2.696   2.388   0.580
 2180SOL    HW2 6559   2.752   2.235   0.589
 2181SOL     OW 6560   2.879   1.901   0.753
 2181SOL    HW1 6561   2.807   1.906   0.684
 2181SOL    HW2 6562   2.855   1.832   0.822
 2182SOL     OW 6563   3.291   3.035   0.867
 2182SOL    HW1 6564   3.236   2.951   0.860
 2182SOL    HW2 6565   3.317   3.064   0.775
 2183SOL     OW 6566   3.328   2.452   0.992
 2183SOL    HW1 6567   3.298   2.357   0.999
 2183SOL    HW2 6568   3.401   2.468   1.058
 2184SOL     OW 6569   3.719   2.695   0.377
 2184SOL    HW1 6570   3.761   2.631   0.441
 2184SOL    HW2 6571   3.681   2.644   0.299
 2185SOL     OW 6572   2.350   3.247   0.174
 2185SOL    HW1 6573   2.263   3.232   0.221
 2185SOL    HW2 6574   2.333   3.273   0.079
 2186SOL     OW 6575   3.526   3.142   0.657
 2186SOL    HW1 6576   3.625   3.150   0.671
 2186SOL    HW2 6577   3.481   3.226   0.688
 2187SOL     OW 6578   3.252   2.437   0.078
 2187SOL    HW1 6579   3.198   2.416   0.159
 2187SOL    HW2 6580   3.343   2.396   0.087
 2188SOL     OW 6581   2.389   2.118   0.328
 2188SOL    HW1 6582   2.416   2.059   0.253
 2188SOL    HW2 6583   2.389   2.213   0.297
 2189SOL     OW 6584   3.616   3.085   1.588
 2189SOL    HW1 6585   3.707   3.046   1.575
 2189SOL    HW2 6586   3.624   3.181   1.612
 2190SOL     OW 6587   2.926   3.209   1.340
 2190SOL    HW1 6588   2.846   3.186   1.395
 2190SOL    HW2 6589   3.009   3.183   1.389
 2191SOL     OW 6590   3.454   3.491   1.625
 2191SOL    HW1 6591   3.481   3.525   1.535
 2191SOL    HW2 6592   3.533   3.453   1.671
 2192SOL     OW 6593   2.973   3.057   1.100
 2192SOL    HW1 6594   2.933   3.101   1.181
 2192SOL    HW2 6595   2.932   3.094   1.017
 2193SOL     OW 6596   3.500   2.961   1.079
 2193SOL    HW1 6597   3.505   3.042   1.138
 2193SOL    HW2 6598   3.414   2.963   1.028
 2194SOL     OW 6599   2.777   1.951   1.402
 2194SOL    HW1 6600   2.802   1.931   1.307
 2194SOL    HW2 6601   2.849   2.007   1.444
 2195SOL     OW 6602   2.842   2.978   1.719
 2195SOL    HW1 6603   2.743   2.984   1.729
 2195SOL    HW2 6604   2.865   2.898   1.663
 2196SOL     OW 6605   2.567   2.912   0.368
 2196SOL    HW1 6606   2.553   2.919   0.467
 2196SOL    HW2 6607   2.651   2.861   0.350
 2197SOL     OW 6608   2.272   2.675   1.251
 2197SOL    HW1 6609   2.358   2.687   1.301
 2197SOL    HW2 6610   2.230   2.588   1.278
 2198SOL     OW 6611   3.136   2.248   1.262
 2198SOL    HW1 6612   3.157   2.322   1.326
 2198SOL    HW2 6613   3.047   2.265   1.219
 2199SOL     OW 6614   1.926   3.426   1.331
 2199SOL    HW1 6615   1.880   3.508   1.297
 2199SOL    HW2 6616   2.024   3.445   1.340
 2200SOL     OW 6617   2.229   2.962   0.501
 2200SOL    HW1 6618   2.222   3.045   0.445
 2200SOL    HW2 6619   2.233   2.882   0.441
 2201SOL     OW 6620   2.428   2.399   0.865
 2201SOL    HW1 6621   2.440   2.465   0.791
 2201SOL    HW2 6622   2.474   2.433   0.948
 2202SOL     OW 6623   3.114   3.210   0.388
 2202SOL    HW1 6624   3.164   3.287   0.428
 2202SOL    HW2 6625   3.019   3.212   0.420
 2203SOL     OW 6626   3.134   3.307   1.142
 2203SOL    HW1 6627   3.181   3.320   1.229
 2203SOL    HW2 6628   3.068   3.233   1.151
 2204SOL     OW 6629   3.444   2.501   0.472
 2204SOL    HW1 6630   3.413   2.562   0.545
 2204SOL    HW2 6631   3.494   2.553   0.403
 2205SOL     OW 6632   2.216   3.372   1.329
 2205SOL    HW1 6633   2.195   3.328   1.242
 2205SOL    HW2 6634   2.313   3.398   1.332
 2206SOL     OW 6635   2.264   2.613   1.598
 2206SOL    HW1 6636   2.332   2.668   1.551
 2206SOL    HW2 6637   2.304   2.525   1.625
 2207SOL     OW 6638   3.449   2.641   1.670
 2207SOL    HW1 6639   3.357   2.679   1.665
 2207SOL    HW2 6640   3.509   2.688   1.605
 2208SOL     OW 6641   2.875   1.967   1.770
 2208SOL    HW1 6642   2.881   2.052   1.718
 2208SOL    HW2 6643   2.907   1.891   1.713
 2209SOL     OW 6644   2.366   1.912   1.740
 2209SOL    HW1 6645   2.324   1.855   1.670
 2209SOL    HW2 6646   2.300   1.981   1.772
 2210SOL     OW 6647   2.435   2.732   1.029
 2210SOL    HW1 6648   2.479   2.821   1.020
 2210SOL    HW2 6649   2.372   2.732   1.106
 2211SOL     OW 6650   3.222   2.724   1.045
 2211SOL    HW1 6651   3.147   2.724   0.979
 2211SOL    HW2 6652   3.259   2.632   1.054
 2212SOL     OW 6653   3.071   2.387   0.275
 2212SOL    HW1 6654   3.084   2.303   0.329
 2212SOL    HW2 6655   3.042   2.461   0.335
 2213SOL     OW 6656   2.169   2.075   1.231
 2213SOL    HW1 6657   2.146   2.112   1.321
 2213SOL    HW2 6658   2.139   1.980   1.225
 2214SOL     OW 6659   1.899   3.172   1.282
 2214SOL    HW1 6660   1.952   3.123   1.350
 2214SOL    HW2 6661   1.921   3.270   1.287
 2215SOL     OW 6662   2.594   2.496   1.064
 2215SOL    HW1 6663   2.653   2.470   0.988
 2215SOL    HW2 6664   2.566   2.592   1.053
 2216SOL     OW 6665   3.590   2.797   1.854
 2216SOL    HW1 6666   3.544   2.790   1.765
 2216SOL    HW2 6667   3.528   2.841   1.920
 2217SOL     OW 6668   2.169   1.925   0.618
 2217SOL    HW1 6669   2.158   2.019   0.651
 2217SOL    HW2 6670   2.164   1.862   0.695
 2218SOL     OW 6671   3.484   2.229   0.374
 2218SOL    HW1 6672   3.486   2.153   0.438
 2218SOL    HW2 6673   3.436   2.306   0.414
 2219SOL     OW 6674   2.885   2.628   0.966
 2219SOL    HW1 6675   2.900   2.649   1.062
 2219SOL    HW2 6676   2.855   2.533   0.957
 2220SOL     OW 6677   2.842   3.435   1.700
 2220SOL    HW1 6678   2.822   3.479   1.612
 2220SOL    HW2 6679   2.881   3.344   1.684
 2221SOL     OW 6680   3.721   3.380   1.605
 2221SOL    HW1 6681   3.735   3.407   1.510
 2221SOL    HW2 6682   3.804   3.402   1.658
 2222SOL     OW 6683   2.212   2.760   1.804
 2222SOL    HW1 6684   2.288   2.804   1.852
 2222SOL    HW2 6685   2.247   2.713   1.722
 2223SOL     OW 6686   3.402   2.136   0.125
 2223SOL    HW1 6687   3.341   2.061   0.148
 2223SOL    HW2 6688   3.424   2.188   0.208
 2224SOL     OW 6689   3.165   2.700   0.042
 2224SOL    HW1 6690   3.199   2.607   0.057
 2224SOL    HW2 6691   3.183   2.727  -0.053
 2225SOL     OW 6692   2.930   3.195   0.849
 2225SOL    HW1 6693   2.937   3.111   0.794
 2225SOL    HW2 6694   2.992   3.264   0.813
 2226SOL     OW 6695   2.181   2.672   0.949
 2226SOL    HW1 6696   2.274   2.708   0.954
 2226SOL    HW2 6697   2.175   2.587   1.001
 2227SOL     OW 6698   2.201   2.371   1.006
 2227SOL    HW1 6699   2.149   2.288   0.989
 2227SOL    HW2 6700   2.278   2.376   0.942
 2228SOL     OW 6701   3.000   2.242   1.678
 2228SOL    HW1 6702   2.955   2.305   1.742
 2228SOL    HW2 6703   3.093   2.273   1.661
 2229SOL     OW 6704   3.022   2.069   1.477
 2229SOL    HW1 6705   3.022   2.133   1.554
 2229SOL    HW2 6706   3.050   2.117   1.394
 2230SOL     OW 6707   1.870   3.188   0.200
 2230SOL    HW1 6708   1.777   3.209   0.169
 2230SOL    HW2 6709   1.880   3.089   0.213
 2231SOL     OW 6710   1.950   3.663   0.927
 2231SOL    HW1 6711   1.908   3.577   0.900
 2231SOL    HW2 6712   2.044   3.666   0.893
 2232SOL     OW 6713   2.366   3.430   0.910
 2232SOL    HW1 6714   2.432   3.504   0.919
 2232SOL    HW2 6715   2.410   3.351   0.868
 2233SOL     OW 6716   2.864   2.658   1.238
 2233SOL    HW1 6717   2.905   2.626   1.324
 2233SOL    HW2 6718   2.768   2.631   1.235
 2234SOL     OW 6719   1.902   2.406   1.114
 2234SOL    HW1 6720   1.987   2.373   1.073
 2234SOL    HW2 6721   1.915   2.421   1.212
 2235SOL     OW 6722   2.051   2.382   1.722
 2235SOL    HW1 6723   2.110   2.342   1.652
 2235SOL    HW2 6724   1.993   2.453   1.681
 2236SOL     OW 6725   3.231   2.812   1.660
 2236SOL    HW1 6726   3.270   2.901   1.680
 2236SOL    HW2 6727   3.241   2.792   1.563
 2237SOL     OW 6728   2.677   2.434   0.325
 2237SOL    HW1 6729   2.684   2.345   0.279
 2237SOL    HW2 6730   2.583   2.468   0.317
 2238SOL     OW 6731   3.519   2.466   1.206
 2238SOL    HW1 6732   3.481   2.397   1.268
 2238SOL    HW2 6733   3.601   2.430   1.162
 2239SOL     OW 6734   2.114   3.426   1.744
 2239SOL    HW1 6735   2.084   3.483   1.820
 2239SOL    HW2 6736   2.107   3.329   1.770
 2240SOL     OW 6737   2.533   2.326   1.269
 2240SOL    HW1 6738   2.499   2.237   1.239
 2240SOL    HW2 6739   2.559   2.380   1.189
 2241SOL     OW 6740   2.792   3.540   1.465
 2241SOL    HW1 6741   2.768   3.522   1.370
 2241SOL    HW2 6742   2.822   3.634   1.475
 2242SOL     OW 6743   2.335   2.362   0.191
 2242SOL    HW1 6744   2.396   2.442   0.195
 2242SOL    HW2 6745   2.240   2.393   0.198
 2243SOL     OW 6746   2.021   2.999   1.466
 2243SOL    HW1 6747   2.043   2.938   1.542
 2243SOL    HW2 6748   2.031   2.950   1.380
 2244SOL     OW 6749   3.209   2.921   1.234
 2244SOL    HW1 6750   3.233   2.858   1.160
 2244SOL    HW2 6751   3.119   2.961   1.216
 2245SOL     OW 6752   3.164   2.717   0.309
 2245SOL    HW1 6753   3.078   2.686   0.351
 2245SOL    HW2 6754   3.160   2.703   0.210
 2246SOL     OW 6755   3.621   3.609   1.154
 2246SOL    HW1 6756   3.682   3.639   1.081
 2246SOL    HW2 6757   3.583   3.520   1.132
 2247SOL     OW 6758   3.114   3.593   1.128
 2247SOL    HW1 6759   3.198   3.598   1.074
 2247SOL    HW2 6760   3.091   3.497   1.146
 2248SOL     OW 6761   1.945   3.120   1.022
 2248SOL    HW1 6762   1.940   3.119   1.122
 2248SOL    HW2 6763   1.862   3.079   0.984
 2249SOL     OW 6764   2.550   3.524   1.716
 2249SOL    HW1 6765   2.494   3.605   1.725
 2249SOL    HW2 6766   2.602   3.528   1.630
 2250SOL     OW 6767   2.765   1.948   0.133
 2250SOL    HW1 6768   2.816   1.949   0.047
 2250SOL    HW2 6769   2.821   1.906   0.204
 2251SOL     OW 6770   3.588   1.997   0.523
 2251SOL    HW1 6771   3.661   1.980   0.456
 2251SOL    HW2 6772   3.557   1.910   0.561
 2252SOL     OW 6773   3.250   3.435   0.477
 2252SOL    HW1 6774   3.317   3.447   0.403
 2252SOL    HW2 6775   3.210   3.524   0.500
 2253SOL     OW 6776   1.992   3.656   1.851
 2253SOL    HW1 6777   1.951   3.582   1.904
 2253SOL    HW2 6778   2.056   3.707   1.909
 2254SOL     OW 6779   3.142   2.789   0.672
 2254SOL    HW1 6780   3.202   2.708   0.674
 2254SOL    HW2 6781   3.182   2.858   0.612
 2255SOL     OW 6782   2.692   3.135   1.422
 2255SOL    HW1 6783   2.687   3.168   1.517
 2255SOL    HW2 6784   2.606   3.154   1.376
 2256SOL     OW 6785   2.534   3.478   0.154
 2256SOL    HW1 6786   2.543   3.488   0.055
 2256SOL    HW2 6787   2.494   3.389   0.175
 2257SOL     OW 6788   3.512   3.582   1.394
 2257SOL    HW1 6789   3.565   3.592   1.310
 2257SOL    HW2 6790   3.485   3.672   1.428
 2258SOL     OW 6791   3.703   2.037   0.963
 2258SOL    HW1 6792   3.742   1.952   0.927
 2258SOL    HW2 6793   3.605   2.039   0.944
 2259SOL     OW 6794   2.125   2.188   0.720
 2259SOL    HW1 6795   2.046   2.239   0.686
 2259SOL    HW2 6796   2.116   2.173   0.818
 2260SOL     OW 6797   3.056   3.474   0.031
 2260SOL    HW1 6798   3.062   3.381   0.068
 2260SOL    HW2 6799   2.997   3.474  -0.049
 2261SOL     OW 6800   2.684   2.864   1.372
 2261SOL    HW1 6801   2.724   2.863   1.280
 2261SOL    HW2 6802   2.694   2.956   1.412
 2262SOL     OW 6803   2.778   2.772   0.291
 2262SOL    HW1 6804   2.841   2.810   0.223
 2262SOL    HW2 6805   2.818   2.689   0.330
 2263SOL     OW 6806   3.366   3.469   0.044
 2263SOL    HW1 6807   3.274   3.506   0.051
 2263SOL    HW2 6808   3.404   3.489  -0.046
 2264SOL     OW 6809   2.234   3.150   1.490
 2264SOL    HW1 6810   2.221   3.243   1.456
 2264SOL    HW2 6811   2.150   3.098   1.477
 2265SOL     OW 6812   3.476   3.154   1.289
 2265SOL    HW1 6813   3.536   3.157   1.369
 2265SOL    HW2 6814   3.401   3.218   1.302
 2266SOL     OW 6815   2.901   2.960   0.696
 2266SOL    HW1 6816   2.831   2.913   0.750
 2266SOL    HW2 6817   2.960   2.892   0.653
 2267SOL     OW 6818   2.876   2.098   0.971
 2267SOL    HW1 6819   2.868   2.062   0.878
 2267SOL    HW2 6820   2.874   2.022   1.036
 2268SOL     OW 6821   2.452   3.349   0.491
 2268SOL    HW1 6822   2.494   3.291   0.421
 2268SOL    HW2 6823   2.408   3.428   0.447
 2269SOL     OW 6824   3.571   2.247   1.381
 2269SOL    HW1 6825   3.644   2.316   1.385
 2269SOL    HW2 6826   3.599   2.172   1.322
 2270SOL     OW 6827   2.117   3.210   0.290
 2270SOL    HW1 6828   2.021   3.211   0.263
 2270SOL    HW2 6829   2.129   3.263   0.374
 2271SOL     OW 6830   1.967   2.875   1.726
 2271SOL    HW1 6831   1.890   2.842   1.780
 2271SOL    HW2 6832   2.052   2.845   1.768
 2272SOL     OW 6833   2.534   2.065   1.489
 2272SOL    HW1 6834   2.624   2.049   1.449
 2272SOL    HW2 6835   2.542   2.070   1.588
 2273SOL     OW 6836   3.302   2.718   1.398
 2273SOL    HW1 6837   3.245   2.770   1.335
 2273SOL    HW2 6838   3.398   2.730   1.374
 2274SOL     OW 6839   1.934   2.028   0.318
 2274SOL    HW1 6840   1.917   2.111   0.264
 2274SOL    HW2 6841   2.024   1.991   0.296
 2275SOL     OW 6842   3.045   3.197   0.119
 2275SOL    HW1 6843   2.946   3.186   0.121
 2275SOL    HW2 6844   3.079   3.212   0.212
 2276SOL     OW 6845   2.475   2.704   1.431
 2276SOL    HW1 6846   2.531   2.785   1.414
 2276SOL    HW2 6847   2.534   2.624   1.434
 2277SOL     OW 6848   3.355   3.629   0.959
 2277SOL    HW1 6849   3.388   3.693   0.890
 2277SOL    HW2 6850   3.421   3.623   1.034
 2278SOL     OW 6851   2.578   2.427   1.708
 2278SOL    HW1 6852   2.597   2.492   1.782
 2278SOL    HW2 6853   2.638   2.347   1.717
 2279SOL     OW 6854   3.312   3.082   1.633
 2279SOL    HW1 6855   3.303   3.072   1.732
 2279SOL    HW2 6856   3.408   3.075   1.607
 2280SOL     OW 6857   2.252   3.603   1.560
 2280SOL    HW1 6858   2.161   3.644   1.558
 2280SOL    HW2 6859   2.245   3.509   1.592
 2281SOL     OW 6860   3.536   2.745   1.254
 2281SOL    HW1 6861   3.509   2.656   1.217
 2281SOL    HW2 6862   3.537   2.813   1.181
 2282SOL     OW 6863   3.087   2.187   0.449
 2282SOL    HW1 6864   3.152   2.113   0.438
 2282SOL    HW2 6865   3.107   2.237   0.533
 2283SOL     OW 6866   2.456   2.607   0.652
 2283SOL    HW1 6867   2.506   2.692   0.633
 2283SOL    HW2 6868   2.368   2.609   0.604
 2284SOL     OW 6869   3.639   2.204   1.642
 2284SOL    HW1 6870   3.622   2.235   1.548
 2284SOL    HW2 6871   3.555   2.167   1.680
 2285SOL     OW 6872   3.592   2.796   1.517
 2285SOL    HW1 6873   3.630   2.887   1.532
 2285SOL    HW2 6874   3.584   2.779   1.418
 2286SOL     OW 6875   2.721   3.236   0.016
 2286SOL    HW1 6876   2.675   3.251   0.104
 2286SOL    HW2 6877   2.765   3.321  -0.014
 2287SOL     OW 6878   2.523   3.652   0.953
 2287SOL    HW1 6879   2.477   3.740   0.940
 2287SOL    HW2 6880   2.622   3.664   0.946
 2288SOL     OW 6881   2.721   2.818   0.861
 2288SOL    HW1 6882   2.775   2.749   0.909
 2288SOL    HW2 6883   2.689   2.887   0.927
 2289SOL     OW 6884   2.945   2.846   0.087
 2289SOL    HW1 6885   2.922   2.899   0.005
 2289SOL    HW2 6886   3.026   2.790   0.068
 2290SOL     OW 6887   3.723   3.431   0.851
 2290SOL    HW1 6888   3.652   3.419   0.781
 2290SOL    HW2 6889   3.724   3.352   0.911
 2291SOL     OW 6890   2.083   3.176   1.844
 2291SOL    HW1 6891   2.018   3.103   1.823
 2291SOL    HW2 6892   2.087   3.190   1.942
 2292SOL     OW 6893   1.941   3.102   0.653
 2292SOL    HW1 6894   1.940   3.055   0.741
 2292SOL    HW2 6895   2.023   3.074   0.602
 2293SOL     OW 6896   2.534   3.253   1.624
 2293SOL    HW1 6897   2.456   3.203   1.662
 2293SOL    HW2 6898   2.531   3.348   1.655
 2294SOL     OW 6899   3.686   2.054   1.227
 2294SOL    HW1 6900   3.682   1.964   1.271
 2294SOL    HW2 6901   3.689   2.043   1.128
 2295SOL     OW 6902   2.290   2.286   0.520
 2295SOL    HW1 6903   2.320   2.214   0.458
 2295SOL    HW2 6904   2.251   2.246   0.603
 2296SOL     OW 6905   3.567   3.349   1.104
 2296SOL    HW1 6906   3.474   3.324   1.077
 2296SOL    HW2 6907   3.593   3.299   1.186
 2297SOL     OW 6908   2.179   2.409   1.280
 2297SOL    HW1 6909   2.217   2.350   1.352
 2297SOL    HW2 6910   2.219   2.383   1.192
 2298SOL     OW 6911   2.674   3.448   0.687
 2298SOL    HW1 6912   2.706   3.458   0.593
 2298SOL    HW2 6913   2.595   3.386   0.689
 2299SOL     OW 6914   3.286   2.076   1.112
 2299SOL    HW1 6915   3.338   2.011   1.167
 2299SOL    HW2 6916   3.237   2.139   1.173
 2300SOL     OW 6917   2.863   1.896   1.154
 2300SOL    HW1 6918   2.800   1.824   1.123
 2300SOL    HW2 6919   2.956   1.860   1.154
 2301SOL     OW 6920   2.632   3.192   0.301
 2301SOL    HW1 6921   2.586   3.105   0.318
 2301SOL    HW2 6922   2.723   3.189   0.342
 2302SOL     OW 6923   2.480   3.429   1.284
 2302SOL    HW1 6924   2.475   3.511   1.341
 2302SOL    HW2 6925   2.569   3.426   1.239
 2303SOL     OW 6926   3.214   1.914   0.168
 2303SOL    HW1 6927   3.249   1.873   0.084
 2303SOL    HW2 6928   3.124   1.876   0.188
 2304SOL     OW 6929   3.162   2.315   0.691
 2304SOL    HW1 6930   3.103   2.395   0.695
 2304SOL    HW2 6931   3.177   2.280   0.784
 2305SOL     OW 6932   3.455   2.083   0.882
 2305SOL    HW1 6933   3.371   2.082   0.936
 2305SOL    HW2 6934   3.457   2.166   0.826
 2306SOL     OW 6935   2.737   3.508   0.337
 2306SOL    HW1 6936   2.660   3.473   0.283
 2306SOL    HW2 6937   2.705   3.579   0.399
 2307SOL     OW 6938   2.092   2.490   1.975
 2307SOL    HW1 6939   1.999   2.488   2.012
 2307SOL    HW2 6940   2.093   2.451   1.883
 2308SOL     OW 6941   2.087   2.137   2.858
 2308SOL    HW1 6942   2.122   2.120   2.950
 2308SOL    HW2 6943   1.999   2.092   2.846
 2309SOL     OW 6944   1.881   2.230   2.509
 2309SOL    HW1 6945   1.799   2.273   2.548
 2309SOL    HW2 6946   1.853   2.157   2.446
 2310SOL     OW 6947   2.431   3.137   3.027
 2310SOL    HW1 6948   2.338   3.130   2.990
 2310SOL    HW2 6949   2.442   3.226   3.071
 2311SOL     OW 6950   3.417   3.373   2.565
 2311SOL    HW1 6951   3.360   3.357   2.646
 2311SOL    HW2 6952   3.358   3.383   2.485
 2312SOL     OW 6953   2.997   2.565   2.579
 2312SOL    HW1 6954   3.054   2.643   2.554
 2312SOL    HW2 6955   2.937   2.591   2.655
 2313SOL     OW 6956   3.617   2.469   2.093
 2313SOL    HW1 6957   3.605   2.456   1.994
 2313SOL    HW2 6958   3.587   2.388   2.142
 2314SOL     OW 6959   2.630   3.006   2.885
 2314SOL    HW1 6960   2.552   3.023   2.945
 2314SOL    HW2 6961   2.664   3.093   2.849
 2315SOL     OW 6962   2.712   2.660   3.685
 2315SOL    HW1 6963   2.708   2.736   3.750
 2315SOL    HW2 6964   2.734   2.696   3.594
 2316SOL     OW 6965   2.548   3.023   3.665
 2316SOL    HW1 6966   2.608   3.102   3.679
 2316SOL    HW2 6967   2.462   3.054   3.624
 2317SOL     OW 6968   2.197   3.297   2.923
 2317SOL    HW1 6969   2.119   3.266   2.870
 2317SOL    HW2 6970   2.255   3.355   2.866
 2318SOL     OW 6971   3.322   3.367   3.201
 2318SOL    HW1 6972   3.346   3.461   3.227
 2318SOL    HW2 6973   3.306   3.313   3.283
 2319SOL     OW 6974   2.300   2.254   3.361
 2319SOL    HW1 6975   2.382   2.198   3.370
 2319SOL    HW2 6976   2.219   2.196   3.365
 2320SOL     OW 6977   3.465   2.309   2.599
 2320SOL    HW1 6978   3.391   2.355   2.549
 2320SOL    HW2 6979   3.516   2.377   2.652
 2321SOL     OW 6980   2.093   3.575   2.345
 2321SOL    HW1 6981   2.127   3.652   2.399
 2321SOL    HW2 6982   2.137   3.575   2.255
 2322SOL     OW 6983   2.989   3.203   3.552
 2322SOL    HW1 6984   3.036   3.203   3.640
 2322SOL    HW2 6985   2.941   3.116   3.541
 2323SOL     OW 6986   2.092   3.296   2.400
 2323SOL    HW1 6987   2.066   3.392   2.400
 2323SOL    HW2 6988   2.021   3.242   2.445
 2324SOL     OW 6989   2.102   2.953   2.748
 2324SOL    HW1 6990   2.116   2.869   2.800
 2324SOL    HW2 6991   2.047   3.017   2.803
 2325SOL     OW 6992   2.482   3.648   3.301
 2325SOL    HW1 6993   2.390   3.631   3.336
 2325SOL    HW2 6994   2.510   3.740   3.327
 2326SOL     OW 6995   2.468   2.826   1.985
 2326SOL    HW1 6996   2.475   2.910   1.931
 2326SOL    HW2 6997   2.514   2.839   2.073
 2327SOL     OW 6998   3.456   1.976   3.342
 2327SOL    HW1 6999   3.438   2.043   3.270
 2327SOL    HW2 7000   3.453   2.022   3.431
 2328SOL     OW 7001   1.984   2.505   2.425
 2328SOL    HW1 7002   1.939   2.417   2.442
 2328SOL    HW2 7003   1.983   2.559   2.509
 2329SOL     OW 7004   3.704   3.629   2.221
 2329SOL    HW1 7005   3.758   3.600   2.301
 2329SOL    HW2 7006   3.734   3.719   2.192
 2330SOL     OW 7007   1.889   3.458   1.979
 2330SOL    HW1 7008   1.870   3.362   2.000
 2330SOL    HW2 7009   1.856   3.516   2.054
 2331SOL     OW 7010   3.551   2.784   2.474
 2331SOL    HW1 7011   3.646   2.755   2.482
 2331SOL    HW2 7012   3.543   2.849   2.399
 2332SOL     OW 7013   3.503   2.970   2.294
 2332SOL    HW1 7014   3.589   2.972   2.242
 2332SOL    HW2 7015   3.517   3.017   2.382
 2333SOL     OW 7016   1.975   2.599   3.459
 2333SOL    HW1 7017   2.063   2.586   3.504
 2333SOL    HW2 7018   1.962   2.696   3.437
 2334SOL     OW 7019   2.475   3.227   2.588
 2334SOL    HW1 7020   2.426   3.140   2.597
 2334SOL    HW2 7021   2.452   3.270   2.501
 2335SOL     OW 7022   3.155   3.090   3.285
 2335SOL    HW1 7023   3.192   3.017   3.227
 2335SOL    HW2 7024   3.207   3.095   3.370
 2336SOL     OW 7025   2.671   1.866   2.364
 2336SOL    HW1 7026   2.711   1.957   2.355
 2336SOL    HW2 7027   2.571   1.874   2.370
 2337SOL     OW 7028   2.059   2.838   3.126
 2337SOL    HW1 7029   2.148   2.793   3.112
 2337SOL    HW2 7030   1.986   2.773   3.107
 2338SOL     OW 7031   3.387   2.861   2.052
 2338SOL    HW1 7032   3.324   2.785   2.065
 2338SOL    HW2 7033   3.435   2.879   2.138
 2339SOL     OW 7034   3.049   3.654   3.478
 2339SOL    HW1 7035   3.073   3.714   3.402
 2339SOL    HW2 7036   3.056   3.559   3.448
 2340SOL     OW 7037   2.179   2.113   3.663
 2340SOL    HW1 7038   2.250   2.184   3.669
 2340SOL    HW2 7039   2.091   2.152   3.691
 2341SOL     OW 7040   3.328   3.279   2.815
 2341SOL    HW1 7041   3.269   3.285   2.895
 2341SOL    HW2 7042   3.313   3.191   2.769
 2342SOL     OW 7043   3.529   3.576   2.434
 2342SOL    HW1 7044   3.488   3.553   2.346
 2342SOL    HW2 7045   3.511   3.502   2.499
 2343SOL     OW 7046   2.460   2.591   2.132
 2343SOL    HW1 7047   2.484   2.660   2.064
 2343SOL    HW2 7048   2.382   2.624   2.186
 2344SOL     OW 7049   3.143   2.207   2.806
 2344SOL    HW1 7050   3.057   2.157   2.793
 2344SOL    HW2 7051   3.205   2.153   2.862
 2345SOL     OW 7052   3.438   3.524   2.169
 2345SOL    HW1 7053   3.527   3.570   2.172
 2345SOL    HW2 7054   3.417   3.500   2.074
 2346SOL     OW 7055   2.669   2.467   3.327
 2346SOL    HW1 7056   2.622   2.464   3.416
 2346SOL    HW2 7057   2.618   2.412   3.261
 2347SOL     OW 7058   3.256   2.331   3.536
 2347SOL    HW1 7059   3.236   2.374   3.624
 2347SOL    HW2 7060   3.334   2.269   3.545
 2348SOL     OW 7061   2.835   2.752   3.434
 2348SOL    HW1 7062   2.881   2.668   3.405
 2348SOL    HW2 7063   2.779   2.786   3.359
 2349SOL     OW 7064   2.853   2.272   3.104
 2349SOL    HW1 7065   2.776   2.306   3.158
 2349SOL    HW2 7066   2.819   2.221   3.025
 2350SOL     OW 7067   1.938   2.673   2.651
 2350SOL    HW1 7068   2.037   2.661   2.660
 2350SOL    HW2 7069   1.914   2.768   2.672
 2351SOL     OW 7070   1.992   3.683   3.433
 2351SOL    HW1 7071   1.982   3.668   3.532
 2351SOL    HW2 7072   1.906   3.719   3.397
 2352SOL     OW 7073   2.727   2.210   2.057
 2352SOL    HW1 7074   2.786   2.273   2.008
 2352SOL    HW2 7075   2.746   2.116   2.028
 2353SOL     OW 7076   3.581   2.447   3.693
 2353SOL    HW1 7077   3.555   2.536   3.657
 2353SOL    HW2 7078   3.579   2.379   3.620
 2354SOL     OW 7079   3.224   3.006   2.407
 2354SOL    HW1 7080   3.307   2.977   2.359
 2354SOL    HW2 7081   3.175   3.073   2.351
 2355SOL     OW 7082   2.412   2.058   2.747
 2355SOL    HW1 7083   2.407   2.053   2.847
 2355SOL    HW2 7084   2.414   2.154   2.718
 2356SOL     OW 7085   2.870   3.318   2.339
 2356SOL    HW1 7086   2.824   3.390   2.287
 2356SOL    HW2 7087   2.866   3.338   2.437
 2357SOL     OW 7088   2.213   3.663   2.715
 2357SOL    HW1 7089   2.263   3.577   2.721
 2357SOL    HW2 7090   2.278   3.740   2.712
 2358SOL     OW 7091   3.657   2.928   2.735
 2358SOL    HW1 7092   3.595   2.913   2.659
 2358SOL    HW2 7093   3.605   2.939   2.820
 2359SOL     OW 7094   3.089   3.412   3.368
 2359SOL    HW1 7095   3.095   3.335   3.432
 2359SOL    HW2 7096   3.037   3.386   3.288
 2360SOL     OW 7097   2.183   2.805   2.104
 2360SOL    HW1 7098   2.265   2.844   2.062
 2360SOL    HW2 7099   2.156   2.723   2.055
 2361SOL     OW 7100   3.320   2.597   2.590
 2361SOL    HW1 7101   3.315   2.532   2.665
 2361SOL    HW2 7102   3.400   2.656   2.603
 2362SOL     OW 7103   2.323   3.128   3.589
 2362SOL    HW1 7104   2.273   3.129   3.503
 2362SOL    HW2 7105   2.260   3.110   3.665
 2363SOL     OW 7106   2.973   3.638   2.099
 2363SOL    HW1 7107   2.913   3.576   2.149
 2363SOL    HW2 7108   3.004   3.594   2.014
 2364SOL     OW 7109   2.064   2.147   3.360
 2364SOL    HW1 7110   1.984   2.207   3.347
 2364SOL    HW2 7111   2.054   2.098   3.446
 2365SOL     OW 7112   3.494   3.239   1.943
 2365SOL    HW1 7113   3.462   3.333   1.933
 2365SOL    HW2 7114   3.418   3.176   1.931
 2366SOL     OW 7115   2.326   3.605   2.185
 2366SOL    HW1 7116   2.359   3.644   2.271
 2366SOL    HW2 7117   2.402   3.598   2.120
 2367SOL     OW 7118   3.262   1.969   2.288
 2367SOL    HW1 7119   3.238   1.932   2.198
 2367SOL    HW2 7120   3.361   1.985   2.292
 2368SOL     OW 7121   2.111   3.647   3.103
 2368SOL    HW1 7122   2.168   3.582   3.153
 2368SOL    HW2 7123   2.095   3.614   3.010
 2369SOL     OW 7124   2.802   3.560   2.766
 2369SOL    HW1 7125   2.882   3.503   2.787
 2369SOL    HW2 7126   2.753   3.520   2.689
 2370SOL     OW 7127   2.244   2.562   2.342
 2370SOL    HW1 7128   2.289   2.472   2.339
 2370SOL    HW2 7129   2.150   2.551   2.375
 2371SOL     OW 7130   3.409   2.084   3.591
 2371SOL    HW1 7131   3.404   2.121   3.683
 2371SOL    HW2 7132   3.337   2.015   3.579
 2372SOL     OW 7133   2.476   1.984   1.979
 2372SOL    HW1 7134   2.574   1.962   1.986
 2372SOL    HW2 7135   2.445   1.967   1.886
 2373SOL     OW 7136   2.643   2.126   3.611
 2373SOL    HW1 7137   2.710   2.065   3.654
 2373SOL    HW2 7138   2.570   2.145   3.676
 2374SOL     OW 7139   2.750   3.376   3.057
 2374SOL    HW1 7140   2.727   3.351   2.963
 2374SOL    HW2 7141   2.811   3.307   3.096
 2375SOL     OW 7142   3.213   2.452   3.295
 2375SOL    HW1 7143   3.241   2.409   3.380
 2375SOL    HW2 7144   3.238   2.548   3.296
 2376SOL     OW 7145   2.665   3.264   2.786
 2376SOL    HW1 7146   2.755   3.278   2.744
 2376SOL    HW2 7147   2.594   3.266   2.715
 2377SOL     OW 7148   2.784   2.365   2.761
 2377SOL    HW1 7149   2.759   2.356   2.665
 2377SOL    HW2 7150   2.832   2.283   2.792
 2378SOL     OW 7151   2.401   1.926   2.374
 2378SOL    HW1 7152   2.320   1.927   2.432
 2378SOL    HW2 7153   2.404   2.009   2.319
 2379SOL     OW 7154   3.296   3.050   1.903
 2379SOL    HW1 7155   3.328   2.974   1.960
 2379SOL    HW2 7156   3.204   3.077   1.933
 2380SOL     OW 7157   2.159   1.897   2.033
 2380SOL    HW1 7158   2.208   1.981   2.012
 2380SOL    HW2 7159   2.221   1.832   2.078
 2381SOL     OW 7160   2.797   2.098   2.342
 2381SOL    HW1 7161   2.749   2.139   2.264
 2381SOL    HW2 7162   2.896   2.096   2.323
 2382SOL     OW 7163   2.938   2.545   3.326
 2382SOL    HW1 7164   2.858   2.484   3.329
 2382SOL    HW2 7165   3.019   2.492   3.302
 2383SOL     OW 7166   3.089   3.432   2.655
 2383SOL    HW1 7167   3.110   3.506   2.590
 2383SOL    HW2 7168   3.157   3.432   2.728
 2384SOL     OW 7169   2.321   3.014   2.603
 2384SOL    HW1 7170   2.250   2.987   2.668
 2384SOL    HW2 7171   2.295   2.986   2.510
 2385SOL     OW 7172   3.133   3.659   2.453
 2385SOL    HW1 7173   3.177   3.723   2.389
 2385SOL    HW2 7174   3.083   3.711   2.523
 2386SOL     OW 7175   2.894   2.411   1.878
 2386SOL    HW1 7176   2.853   2.493   1.839
 2386SOL    HW2 7177   2.958   2.437   1.951
 2387SOL     OW 7178   1.940   2.418   3.248
 2387SOL    HW1 7179   2.032   2.417   3.207
 2387SOL    HW2 7180   1.934   2.492   3.315
 2388SOL     OW 7181   2.423   2.084   3.009
 2388SOL    HW1 7182   2.461   2.000   3.046
 2388SOL    HW2 7183   2.335   2.103   3.053
 2389SOL     OW 7184   2.879   1.901   2.615
 2389SOL    HW1 7185   2.807   1.906   2.546
 2389SOL    HW2 7186   2.855   1.832   2.684
 2390SOL     OW 7187   3.291   3.035   2.729
 2390SOL    HW1 7188   3.236   2.951   2.722
 2390SOL    HW2 7189   3.317   3.064   2.637
 2391SOL     OW 7190   3.328   2.452   2.854
 2391SOL    HW1 7191   3.298   2.357   2.861
 2391SOL    HW2 7192   3.401   2.468   2.920
 2392SOL     OW 7193   3.719   2.695   2.239
 2392SOL    HW1 7194   3.761   2.631   2.303
 2392SOL    HW2 7195   3.681   2.644   2.161
 2393SOL     OW 7196   2.350   3.247   2.036
 2393SOL    HW1 7197   2.263   3.232   2.083
 2393SOL    HW2 7198   2.333   3.273   1.941
 2394SOL     OW 7199   3.526   3.142   2.519
 2394SOL    HW1 7200   3.625   3.150   2.533
 2394SOL    HW2 7201   3.481   3.226   2.550
 2395SOL     OW 7202   3.252   2.437   1.940
 2395SOL    HW1 7203   3.198   2.416   2.021
 2395SOL    HW2 7204   3.343   2.396   1.949
 2396SOL     OW 7205   2.389   2.118   2.190
 2396SOL    HW1 7206   2.416   2.059   2.115
 2396SOL    HW2 7207   2.389   2.213   2.159
 2397SOL     OW 7208   3.616   3.085   3.450
 2397SOL    HW1 7209   3.707   3.046   3.437
 2397SOL    HW2 7210   3.624   3.181   3.474
 2398SOL     OW 7211   2.926   3.209   3.202
 2398SOL    HW1 7212   2.846   3.186   3.257
 2398SOL    HW2 7213   3.009   3.183   3.251
 2399SOL     OW 7214   3.454   3.491   3.487
 2399SOL    HW1 7215   3.481   3.525   3.397
 2399SOL    HW2 7216   3.533   3.453   3.533
 2400SOL     OW 7217   2.973   3.057   2.962
 2400SOL    HW1 7218   2.933   3.101   3.043
 2400SOL    HW2 7219   2.932   3.094   2.879
 2401SOL     OW 7220   3.500   2.961   2.941
 2401SOL    HW1 7221   3.505   3.042   3.000
 2401SOL    HW2 7222   3.414   2.963   2.890
 2402SOL     OW 7223   2.777   1.951   3.264
 2402SOL    HW1 7224   2.802   1.931   3.169
 2402SOL    HW2 7225   2.849   2.007   3.306
 2403SOL     OW 7226   2.842   2.978   3.581
 2403SOL    HW1 7227   2.743   2.984   3.591
 2403SOL    HW2 7228   2.865   2.898   3.525
 2404SOL     OW 7229   2.567   2.912   2.230
 2404SOL    HW1 7230   2.553   2.919   2.329
 2404SOL    HW2 7231   2.651   2.861   2.212
 2405SOL     OW 7232   2.272   2.675   3.113
 2405SOL    HW1 7233   2.358   2.687   3.163
 2405SOL    HW2 7234   2.230   2.588   3.140
 2406SOL     OW 7235   3.136   2.248   3.124
 2406SOL    HW1 7236   3.157   2.322   3.188
 2406SOL    HW2 7237   3.047   2.265   3.081
 2407SOL     OW 7238   1.926   3.426   3.193
 2407SOL    HW1 7239   1.880   3.508   3.159
 2407SOL    HW2 7240   2.024   3.445   3.202
 2408SOL     OW 7241   2.229   2.962   2.363
 2408SOL    HW1 7242   2.222   3.045   2.307
 2408SOL    HW2 7243   2.233   2.882   2.303
 2409SOL     OW 7244   3.114   3.210   2.250
 2409SOL    HW1 7245   3.164   3.287   2.290
 2409SOL    HW2 7246   3.019   3.212   2.282
 2410SOL     OW 7247   3.134   3.307   3.004
 2410SOL    HW1 7248   3.181   3.320   3.091
 2410SOL    HW2 7249   3.068   3.233   3.013
 2411SOL     OW 7250   3.444   2.501   2.334
 2411SOL    HW1 7251   3.413   2.562   2.407
 2411SOL    HW2 7252   3.494   2.553   2.265
 2412SOL     OW 7253   2.216   3.372   3.191
 2412SOL    HW1 7254   2.195   3.328   3.104
 2412SOL    HW2 7255   2.313   3.398   3.194
 2413SOL     OW 7256   2.264   2.613   3.460
 2413SOL    HW1 7257   2.332   2.668   3.413
 2413SOL    HW2 7258   2.304   2.525   3.487
 2414SOL     OW 7259   3.449   2.641   3.532
 2414SOL    HW1 7260   3.357   2.679   3.527
 2414SOL    HW2 7261   3.509   2.688   3.467
 2415SOL     OW 7262   2.875   1.967   3.632
 2415SOL    HW1 7263   2.881   2.052   3.580
 2415SOL    HW2 7264   2.907   1.891   3.575
 2416SOL     OW 7265   2.366   1.912   3.602
 2416SOL    HW1 7266   2.324   1.855   3.532
 2416SOL    HW2 7267   2.300   1.981   3.634
 2417SOL     OW 7268   2.435   2.732   2.891
 2417SOL    HW1 7269   2.479   2.821   2.882
 2417SOL    HW2 7270   2.372   2.732   2.968
 2418SOL     OW 7271   3.222   2.724   2.907
 2418SOL    HW1 7272   3.147   2.724   2.841
 2418SOL    HW2 7273   3.259   2.632   2.916
 2419SOL     OW 7274   3.071   2.387   2.137
 2419SOL    HW1 7275   3.084   2.303   2.191
 2419SOL    HW2 7276   3.042   2.461   2.197
 2420SOL     OW 7277   2.169   2.075   3.093
 2420SOL    HW1 7278   2.146   2.112   3.183
 2420SOL    HW2 7279   2.139   1.980   3.087
 2421SOL     OW 7280   1.899   3.172   3.144
 2421SOL    HW1 7281   1.952   3.123   3.212
 2421SOL    HW2 7282   1.921   3.270   3.149
 2422SOL     OW 7283   2.594   2.496   2.926
 2422SOL    HW1 7284   2.653   2.470   2.850
 2422SOL    HW2 7285   2.566   2.592   2.915
 2423SOL     OW 7286   3.590   2.797   3.716
 2423SOL    HW1 7287   3.544   2.790   3.627
 2423SOL    HW2 7288   3.528   2.841   3.782
 2424SOL     OW 7289   3.484   2.229   2.236
 2424SOL    HW1 7290   3.486   2.153   2.300
 2424SOL    HW2 7291   3.436   2.306   2.276
 2425SOL     OW 7292   2.885   2.628   2.828
 2425SOL    HW1 7293   2.900   2.649   2.924
 2425SOL    HW2 7294   2.855   2.533   2.819
 2426SOL     OW 7295   2.842   3.435   3.562
 2426SOL    HW1 7296   2.822   3.479   3.474
 2426SOL    HW2 7297   2.881   3.344   3.546
 2427SOL     OW 7298   3.721   3.380   3.467
 2427SOL    HW1 7299   3.735   3.407   3.372
 2427SOL    HW2 7300   3.804   3.402   3.520
 2428SOL     OW 7301   2.212   2.760   3.666
 2428SOL    HW1 7302   2.288   2.804   3.714
 2428SOL    HW2 7303   2.247   2.713   3.584
 2429SOL     OW 7304   3.402   2.136   1.987
 2429SOL    HW1 7305   3.341   2.061   2.010
 2429SOL    HW2 7306   3.424   2.188   2.070
 2430SOL     OW 7307   3.165   2.700   1.904
 2430SOL    HW1 7308   3.199   2.607   1.919
 2430SOL    HW2 7309   3.183   2.727   1.809
 2431SOL     OW 7310   2.930   3.195   2.711
 2431SOL    HW1 7311   2.937   3.111   2.656
 2431SOL    HW2 7312   2.992   3.264   2.675
 2432SOL     OW 7313   2.181   2.672   2.811
 2432SOL    HW1 7314   2.274   2.708   2.816
 2432SOL    HW2 7315   2.175   2.587   2.863
 2433SOL     OW 7316   2.201   2.371   2.868
 2433SOL    HW1 7317   2.149   2.288   2.851
 2433SOL    HW2 7318   2.278   2.376   2.804
 2434SOL     OW 7319   3.000   2.242   3.540
 2434SOL    HW1 7320   2.955   2.305   3.604
 2434SOL    HW2 7321   3.093   2.273   3.523
 2435SOL     OW 7322   3.022   2.069   3.339
 2435SOL    HW1 7323   3.022   2.133   3.416
 2435SOL    HW2 7324   3.050   2.117   3.256
 2436SOL     OW 7325   1.870   3.188   2.062
 2436SOL    HW1 7326   1.777   3.209   2.031
 2436SOL    HW2 7327   1.880   3.089   2.075
 2437SOL     OW 7328   1.950   3.663   2.789
 2437SOL    HW1 7329   1.908   3.577   2.762
 2437SOL    HW2 7330   2.044   3.666   2.755
 2438SOL     OW 7331   2.366   3.430   2.772
 2438SOL    HW1 7332   2.432   3.504   2.781
 2438SOL    HW2 7333   2.410   3.351   2.730
 2439SOL     OW 7334   2.864   2.658   3.100
 2439SOL    HW1 7335   2.905   2.626   3.186
 2439SOL    HW2 7336   2.768   2.631   3.097
 2440SOL     OW 7337   1.902   2.406   2.976
 2440SOL    HW1 7338   1.987   2.373   2.935
 2440SOL    HW2 7339   1.915   2.421   3.074
 2441SOL     OW 7340   2.051   2.382   3.584
 2441SOL    HW1 7341   2.110   2.342   3.514
 2441SOL    HW2 7342   1.993   2.453   3.543
 2442SOL     OW 7343   3.231   2.812   3.522
 2442SOL    HW1 7344   3.270   2.901   3.542
 2442SOL    HW2 7345   3.241   2.792   3.425
 2443SOL     OW 7346   2.677   2.434   2.187
 2443SOL    HW1 7347   2.684   2.345   2.141
 2443SOL    HW2 7348   2.583   2.468   2.179
 2444SOL     OW 7349   3.519   2.466   3.068
 2444SOL    HW1 7350   3.481   2.397   3.130
 2444SOL    HW2 7351   3.601   2.430   3.024
 2445SOL     OW 7352   2.114   3.426   3.606
 2445SOL    HW1 7353   2.084   3.483   3.682
 2445SOL    HW2 7354   2.107   3.329   3.632
 2446SOL     OW 7355   2.533   2.326   3.131
 2446SOL    HW1 7356   2.499   2.237   3.101
 2446SOL    HW2 7357   2.559   2.380   3.051
 2447SOL     OW 7358   2.792   3.540   3.327
 2447SOL    HW1 7359   2.768   3.522   3.232
 2447SOL    HW2 7360   2.822   3.634   3.337
 2448SOL     OW 7361   2.335   2.362   2.053
 2448SOL    HW1 7362   2.396   2.442   2.057
 2448SOL    HW2 7363   2.240   2.393   2.060
 2449SOL     OW 7364   2.021   2.999   3.328
 2449SOL    HW1 7365   2.043   2.938   3.404
 2449SOL    HW2 7366   2.031   2.950   3.242
 2450SOL     OW 7367   3.209   2.921   3.096
 2450SOL    HW1 7368   3.233   2.858   3.022
 2450SOL    HW2 7369   3.119   2.961   3.078
 2451SOL     OW 7370   3.164   2.717   2.171
 2451SOL    HW1 7371   3.078   2.686   2.213
 2451SOL    HW2 7372   3.160   2.703   2.072
 2452SOL     OW 7373   3.621   3.609   3.016
 2452SOL    HW1 7374   3.682   3.639   2.943
 2452SOL    HW2 7375   3.583   3.520   2.994
 2453SOL     OW 7376   3.114   3.593   2.990
 2453SOL    HW1 7377   3.198   3.598   2.936
 2453SOL    HW2 7378   3.091   3.497   3.008
 2454SOL     OW 7379   1.945   3.120   2.884
 2454SOL    HW1 7380   1.940   3.119   2.984
 2454SOL    HW2 7381   1.862   3.079   2.846
 2455SOL     OW 7382   2.550   3.524   3.578
 2455SOL    HW1 7383   2.494   3.605   3.587
 2455SOL    HW2 7384   2.602   3.528   3.492
 2456SOL     OW 7385   3.588   1.997   2.385
 2456SOL    HW1 7386   3.661   1.980   2.318
 2456SOL    HW2 7387   3.557   1.910   2.423
 2457SOL     OW 7388   3.250   3.435   2.339
 2457SOL    HW1 7389   3.317   3.447   2.265
 2457SOL    HW2 7390   3.210   3.524   2.362
 2458SOL     OW 7391   1.992   3.656   3.713
 2458SOL    HW1 7392   1.951   3.582   3.766
 2458SOL    HW2 7393   2.056   3.707   3.771
 2459SOL     OW 7394   3.142   2.789   2.534
 2459SOL    HW1 7395   3.202   2.708   2.536
 2459SOL    HW2 7396   3.182   2.858   2.474
 2460SOL     OW 7397   2.692   3.135   3.284
 2460SOL    HW1 7398   2.687   3.168   3.379
 2460SOL    HW2 7399   2.606   3.154   3.238
 2461SOL     OW 7400   2.534   3.478   2.016
 2461SOL    HW1 7401   2.543   3.488   1.917
 2461SOL    HW2 7402   2.494   3.389   2.037
 2462SOL     OW 7403   3.512   3.582   3.256
 2462SOL    HW1 7404   3.565   3.592   3.172
 2462SOL    HW2 7405   3.485   3.672   3.290
 2463SOL     OW 7406   3.703   2.037   2.825
 2463SOL    HW1 7407   3.742   1.952   2.789
 2463SOL    HW2 7408   3.605   2.039   2.806
 2464SOL     OW 7409   3.056   3.474   1.893
 2464SOL    HW1 7410   3.062   3.381   1.930
 2464SOL    HW2 7411   2.997   3.474   1.813
 2465SOL     OW 7412   2.684   2.864   3.234
 2465SOL    HW1 7413   2.724   2.863   3.142
 2465SOL    HW2 7414   2.694   2.956   3.274
 2466SOL     OW 7415   2.778   2.772   2.153
 2466SOL    HW1 7416   2.841   2.810   2.085
 2466SOL    HW2 7417   2.818   2.689   2.192
 2467SOL     OW 7418   3.366   3.469   1.906
 2467SOL    HW1 7419   3.274   3.506   1.913
 2467SOL    HW2 7420   3.404   3.489   1.816
 2468SOL     OW 7421   2.234   3.150   3.352
 2468SOL    HW1 7422   2.221   3.243   3.318
 2468SOL    HW2 7423   2.150   3.098   3.339
 2469SOL     OW 7424   3.476   3.154   3.151
 2469SOL    HW1 7425   3.536   3.157   3.231
 2469SOL    HW2 7426   3.401   3.218   3.164
 2470SOL     OW 7427   2.901   2.960   2.558
 2470SOL    HW1 7428   2.831   2.913   2.612
 2470SOL    HW2 7429   2.960   2.892   2.515
 2471SOL     OW 7430   2.876   2.098   2.833
 2471SOL    HW1 7431   2.868   2.062   2.740
 2471SOL    HW2 7432   2.874   2.022   2.898
 2472SOL     OW 7433   2.452   3.349   2.353
 2472SOL    HW1 7434   2.494   3.291   2.283
 2472SOL    HW2 7435   2.408   3.428   2.309
 2473SOL     OW 7436   3.571   2.247   3.243
 2473SOL    HW1 7437   3.644   2.316   3.247
 2473SOL    HW2 7438   3.599   2.172   3.184
 2474SOL     OW 7439   2.117   3.210   2.152
 2474SOL    HW1 7440   2.021   3.211   2.125
 2474SOL    HW2 7441   2.129   3.263   2.236
 2475SOL     OW 7442   1.967   2.875   3.588
 2475SOL    HW1 7443   1.890   2.842   3.642
 2475SOL    HW2 7444   2.052   2.845   3.630
 2476SOL     OW 7445   2.534   2.065   3.351
 2476SOL    HW1 7446   2.624   2.049   3.311
 2476SOL    HW2 7447   2.542   2.070   3.450
 2477SOL     OW 7448   1.937   2.207   1.895
 2477SOL    HW1 7449   1.845   2.179   1.866
 2477SOL    HW2 7450   1.968   2.284   1.839
 2478SOL     OW 7451   3.302   2.718   3.260
 2478SOL    HW1 7452   3.245   2.770   3.197
 2478SOL    HW2 7453   3.398   2.730   3.236
 2479SOL     OW 7454   1.934   2.028   2.180
 2479SOL    HW1 7455   1.917   2.111   2.126
 2479SOL    HW2 7456   2.024   1.991   2.158
 2480SOL     OW 7457   3.045   3.197   1.981
 2480SOL    HW1 7458   2.946   3.186   1.983
 2480SOL    HW2 7459   3.079   3.212   2.074
 2481SOL     OW 7460   2.475   2.704   3.293
 2481SOL    HW1 7461   2.531   2.785   3.276
 2481SOL    HW2 7462   2.534   2.624   3.296
 2482SOL     OW 7463   3.355   3.629   2.821
 2482SOL    HW1 7464   3.388   3.693   2.752
 2482SOL    HW2 7465   3.421   3.623   2.896
 2483SOL     OW 7466   2.578   2.427   3.570
 2483SOL    HW1 7467   2.597   2.492   3.644
 2483SOL    HW2 7468   2.638   2.347   3.579
 2484SOL     OW 7469   3.312   3.082   3.495
 2484SOL    HW1 7470   3.303   3.072   3.594
 2484SOL    HW2 7471   3.408   3.075   3.469
 2485SOL     OW 7472   2.252   3.603   3.422
 2485SOL    HW1 7473   2.161   3.644   3.420
 2485SOL    HW2 7474   2.245   3.509   3.454
 2486SOL     OW 7475   3.536   2.745   3.116
 2486SOL    HW1 7476   3.509   2.656   3.079
 2486SOL    HW2 7477   3.537   2.813   3.043
 2487SOL     OW 7478   3.087   2.187   2.311
 2487SOL    HW1 7479   3.152   2.113   2.300
 2487SOL    HW2 7480   3.107   2.237   2.395
 2488SOL     OW 7481   3.639   2.204   3.504
 2488SOL    HW1 7482   3.622   2.235   3.410
 2488SOL    HW2 7483   3.555   2.167   3.542
 2489SOL     OW 7484   3.592   2.796   3.379
 2489SOL    HW1 7485   3.630   2.887   3.394
 2489SOL    HW2 7486   3.584   2.779   3.280
 2490SOL     OW 7487   2.721   3.236   1.878
 2490SOL    HW1 7488   2.675   3.251   1.966
 2490SOL    HW2 7489   2.765   3.321   1.848
 2491SOL     OW 7490   2.523   3.652   2.815
 2491SOL    HW1 7491   2.477   3.740   2.802
 2491SOL    HW2 7492   2.622   3.664   2.808
 2492SOL     OW 7493   2.721   2.818   2.723
 2492SOL    HW1 7494   2.775   2.749   2.771
 2492SOL    HW2 7495   2.689   2.887   2.789
 2493SOL     OW 7496   2.945   2.846   1.949
 2493SOL    HW1 7497   2.922   2.899   1.867
 2493SOL    HW2 7498   3.026   2.790   1.930
 2494SOL     OW 7499   3.723   3.431   2.713
 2494SOL    HW1 7500   3.652   3.419   2.643
 2494SOL    HW2 7501   3.724   3.352   2.773
 2495SOL     OW 7502   2.083   3.176   3.706
 2495SOL    HW1 7503   2.018   3.103   3.685
 2495SOL    HW2 7504   2.087   3.190   3.804
 2496SOL     OW 7505   1.941   3.102   2.515
 2496SOL    HW1 7506   1.940   3.055   2.603
 2496SOL    HW2 7507   2.023   3.074   2.464
 2497SOL     OW 7508   2.534   3.253   3.486
 2497SOL    HW1 7509   2.456   3.203   3.524
 2497SOL    HW2 7510   2.531   3.348   3.517
 2498SOL     OW 7511   3.686   2.054   3.089
 2498SOL    HW1 7512   3.682   1.964   3.133
 2498SOL    HW2 7513   3.689   2.043   2.990
 2499SOL     OW 7514   3.567   3.349   2.966
 2499SOL    HW1 7515   3.474   3.324   2.939
 2499SOL    HW2 7516   3.593   3.299   3.048
 2500SOL     OW 7517   2.179   2.409   3.142
 2500SOL    HW1 7518   2.217   2.350   3.214
 2500SOL    HW2 7519   2.219   2.383   3.054
 2501SOL     OW 7520   2.674   3.448   2.549
 2501SOL    HW1 7521   2.706   3.458   2.455
 2501SOL    HW2 7522   2.595   3.386   2.551
 2502SOL     OW 7523   3.286   2.076   2.974
 2502SOL    HW1 7524   3.338   2.011   3.029
 2502SOL    HW2 7525   3.237   2.139   3.035
 2503SOL     OW 7526   2.863   1.896   3.016
 2503SOL    HW1 7527   2.800   1.824   2.985
 2503SOL    HW2 7528   2.956   1.860   3.016
 2504SOL     OW 7529   2.632   3.192   2.163
 2504SOL    HW1 7530   2.586   3.105   2.180
 2504SOL    HW2 7531   2.723   3.189   2.204
 2505SOL     OW 7532   2.480   3.429   3.146
 2505SOL    HW1 7533   2.475   3.511   3.203
 2505SOL    HW2 7534   2.569   3.426   3.101
 2506SOL     OW 7535   3.214   1.914   2.030
 2506SOL    HW1 7536   3.249   1.873   1.946
 2506SOL    HW2 7537   3.124   1.876   2.050
 2507SOL     OW 7538   3.162   2.315   2.553
 2507SOL    HW1 7539   3.103   2.395   2.557
 2507SOL    HW2 7540   3.177   2.280   2.646
 2508SOL     OW 7541   3.455   2.083   2.744
 2508SOL    HW1 7542   3.371   2.082   2.798
 2508SOL    HW2 7543   3.457   2.166   2.688
 2509SOL     OW 7544   1.901   2.939   2.162
 2509SOL    HW1 7545   2.000   2.928   2.153
 2509SOL    HW2 7546   1.861   2.853   2.194
 2510SOL     OW 7547   2.737   3.508   2.199
 2510SOL    HW1 7548   2.660   3.473   2.145
 2510SOL    HW2 7549   2.705   3.579   2.261
 2511SOL     OW 7550   2.092   2.490   3.837
 2511SOL    HW1 7551   1.999   2.488   3.874
 2511SOL    HW2 7552   2.093   2.451   3.745
 2512SOL     OW 7553   2.087   2.137   4.720
 2512SOL    HW1 7554   2.122   2.120   4.812
 2512SOL    HW2 7555   1.999   2.092   4.708
 2513SOL     OW 7556   1.881   2.230   4.371
 2513SOL    HW1 7557   1.799   2.273   4.410
 2513SOL    HW2 7558   1.853   2.157   4.308
 2514SOL     OW 7559   2.431   3.137   4.889
 2514SOL    HW1 7560   2.338   3.130   4.852
 2514SOL    HW2 7561   2.442   3.226   4.933
 2515SOL     OW 7562   3.417   3.373   4.427
 2515SOL    HW1 7563   3.360   3.357   4.508
 2515SOL    HW2 7564   3.358   3.383   4.347
 2516SOL     OW 7565   2.997   2.565   4.441
 2516SOL    HW1 7566   3.054   2.643   4.416
 2516SOL    HW2 7567   2.937   2.591   4.517
 2517SOL     OW 7568   3.617   2.469   3.955
 2517SOL    HW1 7569   3.605   2.456   3.856
 2517SOL    HW2 7570   3.587   2.388   4.004
 2518SOL     OW 7571   2.630   3.006   4.747
 2518SOL    HW1 7572   2.552   3.023   4.807
 2518SOL    HW2 7573   2.664   3.093   4.711
 2519SOL     OW 7574   2.547   2.874   4.389
 2519SOL    HW1 7575   2.616   2.858   4.459
 2519SOL    HW2 7576   2.474   2.931   4.427
 2520SOL     OW 7577   2.197   3.297   4.785
 2520SOL    HW1 7578   2.119   3.266   4.732
 2520SOL    HW2 7579   2.255   3.355   4.728
 2521SOL     OW 7580   3.465   2.309   4.461
 2521SOL    HW1 7581   3.391   2.355   4.411
 2521SOL    HW2 7582   3.516   2.377   4.514
 2522SOL     OW 7583   2.093   3.575   4.207
 2522SOL    HW1 7584   2.127   3.652   4.261
 2522SOL    HW2 7585   2.137   3.575   4.117
 2523SOL     OW 7586   2.092   3.296   4.262
 2523SOL    HW1 7587   2.066   3.392   4.262
 2523SOL    HW2 7588   2.021   3.242   4.307
 2524SOL     OW 7589   2.102   2.953   4.610
 2524SOL    HW1 7590   2.116   2.869   4.662
 2524SOL    HW2 7591   2.047   3.017   4.665
 2525SOL     OW 7592   2.468   2.826   3.847
 2525SOL    HW1 7593   2.475   2.910   3.793
 2525SOL    HW2 7594   2.514   2.839   3.935
 2526SOL     OW 7595   1.984   2.505   4.287
 2526SOL    HW1 7596   1.939   2.417   4.304
 2526SOL    HW2 7597   1.983   2.559   4.371
 2527SOL     OW 7598   3.704   3.629   4.083
 2527SOL    HW1 7599   3.758   3.600   4.163
 2527SOL    HW2 7600   3.734   3.719   4.054
 2528SOL     OW 7601   1.889   3.458   3.841
 2528SOL    HW1 7602   1.870   3.362   3.862
 2528SOL    HW2 7603   1.856   3.516   3.916
 2529SOL     OW 7604   3.551   2.784   4.336
 2529SOL    HW1 7605   3.646   2.755   4.344
 2529SOL    HW2 7606   3.543   2.849   4.261
 2530SOL     OW 7607   3.503   2.970   4.156
 2530SOL    HW1 7608   3.589   2.972   4.104
 2530SOL    HW2 7609   3.517   3.017   4.244
 2531SOL     OW 7610   2.475   3.227   4.450
 2531SOL    HW1 7611   2.426   3.140   4.459
 2531SOL    HW2 7612   2.452   3.270   4.363
 2532SOL     OW 7613   2.671   1.866   4.226
 2532SOL    HW1 7614   2.711   1.957   4.217
 2532SOL    HW2 7615   2.571   1.874   4.232
 2533SOL     OW 7616   2.059   2.838   4.988
 2533SOL    HW1 7617   2.148   2.793   4.974
 2533SOL    HW2 7618   1.986   2.773   4.969
 2534SOL     OW 7619   3.387   2.861   3.914
 2534SOL    HW1 7620   3.324   2.785   3.927
 2534SOL    HW2 7621   3.435   2.879   4.000
 2535SOL     OW 7622   3.328   3.279   4.677
 2535SOL    HW1 7623   3.269   3.285   4.757
 2535SOL    HW2 7624   3.313   3.191   4.631
 2536SOL     OW 7625   3.529   3.576   4.296
 2536SOL    HW1 7626   3.488   3.553   4.208
 2536SOL    HW2 7627   3.511   3.502   4.361
 2537SOL     OW 7628   2.460   2.591   3.994
 2537SOL    HW1 7629   2.484   2.660   3.926
 2537SOL    HW2 7630   2.382   2.624   4.048
 2538SOL     OW 7631   3.143   2.207   4.668
 2538SOL    HW1 7632   3.057   2.157   4.655
 2538SOL    HW2 7633   3.205   2.153   4.724
 2539SOL     OW 7634   3.438   3.524   4.031
 2539SOL    HW1 7635   3.527   3.570   4.034
 2539SOL    HW2 7636   3.417   3.500   3.936
 2540SOL     OW 7637   2.903   2.563   4.153
 2540SOL    HW1 7638   2.929   2.559   4.249
 2540SOL    HW2 7639   2.818   2.512   4.139
 2541SOL     OW 7640   1.938   2.673   4.513
 2541SOL    HW1 7641   2.037   2.661   4.522
 2541SOL    HW2 7642   1.914   2.768   4.534
 2542SOL     OW 7643   2.727   2.210   3.919
 2542SOL    HW1 7644   2.786   2.273   3.870
 2542SOL    HW2 7645   2.746   2.116   3.890
 2543SOL     OW 7646   3.224   3.006   4.269
 2543SOL    HW1 7647   3.307   2.977   4.221
 2543SOL    HW2 7648   3.175   3.073   4.213
 2544SOL     OW 7649   2.412   2.058   4.609
 2544SOL    HW1 7650   2.407   2.053   4.709
 2544SOL    HW2 7651   2.414   2.154   4.580
 2545SOL     OW 7652   2.870   3.318   4.201
 2545SOL    HW1 7653   2.824   3.390   4.149
 2545SOL    HW2 7654   2.866   3.338   4.299
 2546SOL     OW 7655   2.213   3.663   4.577
 2546SOL    HW1 7656   2.263   3.577   4.583
 2546SOL    HW2 7657   2.278   3.740   4.574
 2547SOL     OW 7658   3.657   2.928   4.597
 2547SOL    HW1 7659   3.595   2.913   4.521
 2547SOL    HW2 7660   3.605   2.939   4.682
 2548SOL     OW 7661   2.183   2.805   3.966
 2548SOL    HW1 7662   2.265   2.844   3.924
 2548SOL    HW2 7663   2.156   2.723   3.917
 2549SOL     OW 7664   3.320   2.597   4.452
 2549SOL    HW1 7665   3.315   2.532   4.527
 2549SOL    HW2 7666   3.400   2.656   4.465
 2550SOL     OW 7667   2.973   3.638   3.961
 2550SOL    HW1 7668   2.913   3.576   4.011
 2550SOL    HW2 7669   3.004   3.594   3.876
 2551SOL     OW 7670   3.494   3.239   3.805
 2551SOL    HW1 7671   3.462   3.333   3.795
 2551SOL    HW2 7672   3.418   3.176   3.793
 2552SOL     OW 7673   2.326   3.605   4.047
 2552SOL    HW1 7674   2.359   3.644   4.133
 2552SOL    HW2 7675   2.402   3.598   3.982
 2553SOL     OW 7676   3.262   1.969   4.150
 2553SOL    HW1 7677   3.238   1.932   4.060
 2553SOL    HW2 7678   3.361   1.985   4.154
 2554SOL     OW 7679   2.111   3.647   4.965
 2554SOL    HW1 7680   2.168   3.582   5.015
 2554SOL    HW2 7681   2.095   3.614   4.872
 2555SOL     OW 7682   2.802   3.560   4.628
 2555SOL    HW1 7683   2.882   3.503   4.649
 2555SOL    HW2 7684   2.753   3.520   4.551
 2556SOL     OW 7685   2.244   2.562   4.204
 2556SOL    HW1 7686   2.289   2.472   4.201
 2556SOL    HW2 7687   2.150   2.551   4.237
 2557SOL     OW 7688   2.476   1.984   3.841
 2557SOL    HW1 7689   2.574   1.962   3.848
 2557SOL    HW2 7690   2.445   1.967   3.748
 2558SOL     OW 7691   2.665   3.264   4.648
 2558SOL    HW1 7692   2.755   3.278   4.606
 2558SOL    HW2 7693   2.594   3.266   4.577
 2559SOL     OW 7694   2.784   2.365   4.623
 2559SOL    HW1 7695   2.759   2.356   4.527
 2559SOL    HW2 7696   2.832   2.283   4.654
 2560SOL     OW 7697   2.401   1.926   4.236
 2560SOL    HW1 7698   2.320   1.927   4.294
 2560SOL    HW2 7699   2.404   2.009   4.181
 2561SOL     OW 7700   3.296   3.050   3.765
 2561SOL    HW1 7701   3.328   2.974   3.822
 2561SOL    HW2 7702   3.204   3.077   3.795
 2562SOL     OW 7703   2.159   1.897   3.895
 2562SOL    HW1 7704   2.208   1.981   3.874
 2562SOL    HW2 7705   2.221   1.832   3.940
 2563SOL     OW 7706   2.797   2.098   4.204
 2563SOL    HW1 7707   2.749   2.139   4.126
 2563SOL    HW2 7708   2.896   2.096   4.185
 2564SOL     OW 7709   3.089   3.432   4.517
 2564SOL    HW1 7710   3.110   3.506   4.452
 2564SOL    HW2 7711   3.157   3.432   4.590
 2565SOL     OW 7712   2.321   3.014   4.465
 2565SOL    HW1 7713   2.250   2.987   4.530
 2565SOL    HW2 7714   2.295   2.986   4.372
 2566SOL     OW 7715   3.133   3.659   4.315
 2566SOL    HW1 7716   3.177   3.723   4.251
 2566SOL    HW2 7717   3.083   3.711   4.385
 2567SOL     OW 7718   2.894   2.411   3.740
 2567SOL    HW1 7719   2.853   2.493   3.701
 2567SOL    HW2 7720   2.958   2.437   3.813
 2568SOL     OW 7721   2.728   2.316   4.366
 2568SOL    HW1 7722   2.696   2.388   4.304
 2568SOL    HW2 7723   2.752   2.235   4.313
 2569SOL     OW 7724   2.879   1.901   4.477
 2569SOL    HW1 7725   2.807   1.906   4.408
 2569SOL    HW2 7726   2.855   1.832   4.546
 2570SOL     OW 7727   3.291   3.035   4.591
 2570SOL    HW1 7728   3.236   2.951   4.584
 2570SOL    HW2 7729   3.317   3.064   4.499
 2571SOL     OW 7730   3.328   2.452   4.716
 2571SOL    HW1 7731   3.298   2.357   4.723
 2571SOL    HW2 7732   3.401   2.468   4.782
 2572SOL     OW 7733   3.719   2.695   4.101
 2572SOL    HW1 7734   3.761   2.631   4.165
 2572SOL    HW2 7735   3.681   2.644   4.023
 2573SOL     OW 7736   2.350   3.247   3.898
 2573SOL    HW1 7737   2.263   3.232   3.945
 2573SOL    HW2 7738   2.333   3.273   3.803
 2574SOL     OW 7739   3.526   3.142   4.381
 2574SOL    HW1 7740   3.625   3.150   4.395
 2574SOL    HW2 7741   3.481   3.226   4.412
 2575SOL     OW 7742   3.252   2.437   3.802
 2575SOL    HW1 7743   3.198   2.416   3.883
 2575SOL    HW2 7744   3.343   2.396   3.811
 2576SOL     OW 7745   2.389   2.118   4.052
 2576SOL    HW1 7746   2.416   2.059   3.977
 2576SOL    HW2 7747   2.389   2.213   4.021
 2577SOL     OW 7748   2.973   3.057   4.824
 2577SOL    HW1 7749   2.933   3.101   4.905
 2577SOL    HW2 7750   2.932   3.094   4.741
 2578SOL     OW 7751   3.500   2.961   4.803
 2578SOL    HW1 7752   3.505   3.042   4.862
 2578SOL    HW2 7753   3.414   2.963   4.752
 2579SOL     OW 7754   2.567   2.912   4.092
 2579SOL    HW1 7755   2.553   2.919   4.191
 2579SOL    HW2 7756   2.651   2.861   4.074
 2580SOL     OW 7757   2.272   2.675   4.975
 2580SOL    HW1 7758   2.358   2.687   5.025
 2580SOL    HW2 7759   2.230   2.588   5.002
 2581SOL     OW 7760   2.229   2.962   4.225
 2581SOL    HW1 7761   2.222   3.045   4.169
 2581SOL    HW2 7762   2.233   2.882   4.165
 2582SOL     OW 7763   2.428   2.399   4.589
 2582SOL    HW1 7764   2.440   2.465   4.515
 2582SOL    HW2 7765   2.474   2.433   4.672
 2583SOL     OW 7766   3.114   3.210   4.112
 2583SOL    HW1 7767   3.164   3.287   4.152
 2583SOL    HW2 7768   3.019   3.212   4.144
 2584SOL     OW 7769   3.134   3.307   4.866
 2584SOL    HW1 7770   3.181   3.320   4.953
 2584SOL    HW2 7771   3.068   3.233   4.875
 2585SOL     OW 7772   3.444   2.501   4.196
 2585SOL    HW1 7773   3.413   2.562   4.269
 2585SOL    HW2 7774   3.494   2.553   4.127
 2586SOL     OW 7775   2.435   2.732   4.753
 2586SOL    HW1 7776   2.479   2.821   4.744
 2586SOL    HW2 7777   2.372   2.732   4.830
 2587SOL     OW 7778   3.222   2.724   4.769
 2587SOL    HW1 7779   3.147   2.724   4.703
 2587SOL    HW2 7780   3.259   2.632   4.778
 2588SOL     OW 7781   3.071   2.387   3.999
 2588SOL    HW1 7782   3.084   2.303   4.053
 2588SOL    HW2 7783   3.042   2.461   4.059
 2589SOL     OW 7784   2.169   2.075   4.955
 2589SOL    HW1 7785   2.146   2.112   5.045
 2589SOL    HW2 7786   2.139   1.980   4.949
 2590SOL     OW 7787   1.899   3.172   5.006
 2590SOL    HW1 7788   1.952   3.123   5.074
 2590SOL    HW2 7789   1.921   3.270   5.011
 2591SOL     OW 7790   2.594   2.496   4.788
 2591SOL    HW1 7791   2.653   2.470   4.712
 2591SOL    HW2 7792   2.566   2.592   4.777
 2592SOL     OW 7793   2.169   1.925   4.342
 2592SOL    HW1 7794   2.158   2.019   4.375
 2592SOL    HW2 7795   2.164   1.862   4.419
 2593SOL     OW 7796   3.484   2.229   4.098
 2593SOL    HW1 7797   3.486   2.153   4.162
 2593SOL    HW2 7798   3.436   2.306   4.138
 2594SOL     OW 7799   2.885   2.628   4.690
 2594SOL    HW1 7800   2.900   2.649   4.786
 2594SOL    HW2 7801   2.855   2.533   4.681
 2595SOL     OW 7802   3.402   2.136   3.849
 2595SOL    HW1 7803   3.341   2.061   3.872
 2595SOL    HW2 7804   3.424   2.188   3.932
 2596SOL     OW 7805   3.165   2.700   3.766
 2596SOL    HW1 7806   3.199   2.607   3.781
 2596SOL    HW2 7807   3.183   2.727   3.671
 2597SOL     OW 7808   2.930   3.195   4.573
 2597SOL    HW1 7809   2.937   3.111   4.518
 2597SOL    HW2 7810   2.992   3.264   4.537
 2598SOL     OW 7811   2.181   2.672   4.673
 2598SOL    HW1 7812   2.274   2.708   4.678
 2598SOL    HW2 7813   2.175   2.587   4.725
 2599SOL     OW 7814   2.201   2.371   4.730
 2599SOL    HW1 7815   2.149   2.288   4.713
 2599SOL    HW2 7816   2.278   2.376   4.666
 2600SOL     OW 7817   3.022   2.069   5.201
 2600SOL    HW1 7818   3.022   2.133   5.278
 2600SOL    HW2 7819   3.050   2.117   5.118
 2601SOL     OW 7820   1.870   3.188   3.924
 2601SOL    HW1 7821   1.777   3.209   3.893
 2601SOL    HW2 7822   1.880   3.089   3.937
 2602SOL     OW 7823   1.950   3.663   4.651
 2602SOL    HW1 7824   1.908   3.577   4.624
 2602SOL    HW2 7825   2.044   3.666   4.617
 2603SOL     OW 7826   2.366   3.430   4.634
 2603SOL    HW1 7827   2.432   3.504   4.643
 2603SOL    HW2 7828   2.410   3.351   4.592
 2604SOL     OW 7829   2.864   2.658   4.962
 2604SOL    HW1 7830   2.905   2.626   5.048
 2604SOL    HW2 7831   2.768   2.631   4.959
 2605SOL     OW 7832   1.902   2.406   4.838
 2605SOL    HW1 7833   1.987   2.373   4.797
 2605SOL    HW2 7834   1.915   2.421   4.936
 2606SOL     OW 7835   2.677   2.434   4.049
 2606SOL    HW1 7836   2.684   2.345   4.003
 2606SOL    HW2 7837   2.583   2.468   4.041
 2607SOL     OW 7838   3.519   2.466   4.930
 2607SOL    HW1 7839   3.481   2.397   4.992
 2607SOL    HW2 7840   3.601   2.430   4.886
 2608SOL     OW 7841   2.533   2.326   4.993
 2608SOL    HW1 7842   2.499   2.237   4.963
 2608SOL    HW2 7843   2.559   2.380   4.913
 2609SOL     OW 7844   2.335   2.362   3.915
 2609SOL    HW1 7845   2.396   2.442   3.919
 2609SOL    HW2 7846   2.240   2.393   3.922
 2610SOL     OW 7847   2.021   2.999   5.190
 2610SOL    HW1 7848   2.043   2.938   5.266
 2610SOL    HW2 7849   2.031   2.950   5.104
 2611SOL     OW 7850   3.209   2.921   4.958
 2611SOL    HW1 7851   3.233   2.858   4.884
 2611SOL    HW2 7852   3.119   2.961   4.940
 2612SOL     OW 7853   3.164   2.717   4.033
 2612SOL    HW1 7854   3.078   2.686   4.075
 2612SOL    HW2 7855   3.160   2.703   3.934
 2613SOL     OW 7856   3.621   3.609   4.878
 2613SOL    HW1 7857   3.682   3.639   4.805
 2613SOL    HW2 7858   3.583   3.520   4.856
 2614SOL     OW 7859   1.945   3.120   4.746
 2614SOL    HW1 7860   1.940   3.119   4.846
 2614SOL    HW2 7861   1.862   3.079   4.708
 2615SOL     OW 7862   3.588   1.997   4.247
 2615SOL    HW1 7863   3.661   1.980   4.180
 2615SOL    HW2 7864   3.557   1.910   4.285
 2616SOL     OW 7865   3.250   3.435   4.201
 2616SOL    HW1 7866   3.317   3.447   4.127
 2616SOL    HW2 7867   3.210   3.524   4.224
 2617SOL     OW 7868   3.142   2.789   4.396
 2617SOL    HW1 7869   3.202   2.708   4.398
 2617SOL    HW2 7870   3.182   2.858   4.336
 2618SOL     OW 7871   2.534   3.478   3.878
 2618SOL    HW1 7872   2.543   3.488   3.779
 2618SOL    HW2 7873   2.494   3.389   3.899
 2619SOL     OW 7874   3.512   3.582   5.118
 2619SOL    HW1 7875   3.565   3.592   5.034
 2619SOL    HW2 7876   3.485   3.672   5.152
 2620SOL     OW 7877   3.703   2.037   4.687
 2620SOL    HW1 7878   3.742   1.952   4.651
 2620SOL    HW2 7879   3.605   2.039   4.668
 2621SOL     OW 7880   2.125   2.188   4.444
 2621SOL    HW1 7881   2.046   2.239   4.410
 2621SOL    HW2 7882   2.116   2.173   4.542
 2622SOL     OW 7883   3.056   3.474   3.755
 2622SOL    HW1 7884   3.062   3.381   3.792
 2622SOL    HW2 7885   2.997   3.474   3.675
 2623SOL     OW 7886   2.684   2.864   5.096
 2623SOL    HW1 7887   2.724   2.863   5.004
 2623SOL    HW2 7888   2.694   2.956   5.136
 2624SOL     OW 7889   2.778   2.772   4.015
 2624SOL    HW1 7890   2.841   2.810   3.947
 2624SOL    HW2 7891   2.818   2.689   4.054
 2625SOL     OW 7892   3.366   3.469   3.768
 2625SOL    HW1 7893   3.274   3.506   3.775
 2625SOL    HW2 7894   3.404   3.489   3.678
 2626SOL     OW 7895   2.901   2.960   4.420
 2626SOL    HW1 7896   2.831   2.913   4.474
 2626SOL    HW2 7897   2.960   2.892   4.377
 2627SOL     OW 7898   2.876   2.098   4.695
 2627SOL    HW1 7899   2.868   2.062   4.602
 2627SOL    HW2 7900   2.874   2.022   4.760
 2628SOL     OW 7901   2.452   3.349   4.215
 2628SOL    HW1 7902   2.494   3.291   4.145
 2628SOL    HW2 7903   2.408   3.428   4.171
 2629SOL     OW 7904   3.571   2.247   5.105
 2629SOL    HW1 7905   3.644   2.316   5.109
 2629SOL    HW2 7906   3.599   2.172   5.046
 2630SOL     OW 7907   2.117   3.210   4.014
 2630SOL    HW1 7908   2.021   3.211   3.987
 2630SOL    HW2 7909   2.129   3.263   4.098
 2631SOL     OW 7910   1.937   2.207   3.757
 2631SOL    HW1 7911   1.845   2.179   3.728
 2631SOL    HW2 7912   1.968   2.284   3.701
 2632SOL     OW 7913   1.934   2.028   4.042
 2632SOL    HW1 7914   1.917   2.111   3.988
 2632SOL    HW2 7915   2.024   1.991   4.020
 2633SOL     OW 7916   3.045   3.197   3.843
 2633SOL    HW1 7917   2.946   3.186   3.845
 2633SOL    HW2 7918   3.079   3.212   3.936
 2634SOL     OW 7919   3.355   3.629   4.683
 2634SOL    HW1 7920   3.388   3.693   4.614
 2634SOL    HW2 7921   3.421   3.623   4.758
 2635SOL     OW 7922   3.536   2.745   4.978
 2635SOL    HW1 7923   3.509   2.656   4.941
 2635SOL    HW2 7924   3.537   2.813   4.905
 2636SOL     OW 7925   3.087   2.187   4.173
 2636SOL    HW1 7926   3.152   2.113   4.162
 2636SOL    HW2 7927   3.107   2.237   4.257
 2637SOL     OW 7928   2.456   2.607   4.376
 2637SOL    HW1 7929   2.506   2.692   4.357
 2637SOL    HW2 7930   2.368   2.609   4.328
 2638SOL     OW 7931   3.592   2.796   5.241
 2638SOL    HW1 7932   3.630   2.887   5.256
 2638SOL    HW2 7933   3.584   2.779   5.142
 2639SOL     OW 7934   2.721   3.236   3.740
 2639SOL    HW1 7935   2.675   3.251   3.828
 2639SOL    HW2 7936   2.765   3.321   3.710
 2640SOL     OW 7937   2.523   3.652   4.677
 2640SOL    HW1 7938   2.477   3.740   4.664
 2640SOL    HW2 7939   2.622   3.664   4.670
 2641SOL     OW 7940   2.721   2.818   4.585
 2641SOL    HW1 7941   2.775   2.749   4.633
 2641SOL    HW2 7942   2.689   2.887   4.651
 2642SOL     OW 7943   2.945   2.846   3.811
 2642SOL    HW1 7944   2.922   2.899   3.729
 2642SOL    HW2 7945   3.026   2.790   3.792
 2643SOL     OW 7946   3.723   3.431   4.575
 2643SOL    HW1 7947   3.652   3.419   4.505
 2643SOL    HW2 7948   3.724   3.352   4.635
 2644SOL     OW 7949   1.941   3.102   4.377
 2644SOL    HW1 7950   1.940   3.055   4.465
 2644SOL    HW2 7951   2.023   3.074   4.326
 2645SOL     OW 7952   3.686   2.054   4.951
 2645SOL    HW1 7953   3.682   1.964   4.995
 2645SOL    HW2 7954   3.689   2.043   4.852
 2646SOL     OW 7955   2.290   2.286   4.244
 2646SOL    HW1 7956   2.320   2.214   4.182
 2646SOL    HW2 7957   2.251   2.246   4.327
 2647SOL     OW 7958   3.567   3.349   4.828
 2647SOL    HW1 7959   3.474   3.324   4.801
 2647SOL    HW2 7960   3.593   3.299   4.910
 2648SOL     OW 7961   2.674   3.448   4.411
 2648SOL    HW1 7962   2.706   3.458   4.317
 2648SOL    HW2 7963   2.595   3.386   4.413
 2649SOL     OW 7964   3.286   2.076   4.836
 2649SOL    HW1 7965   3.338   2.011   4.891
 2649SOL    HW2 7966   3.237   2.139   4.897
 2650SOL     OW 7967   2.863   1.896   4.878
 2650SOL    HW1 7968   2.800   1.824   4.847
 2650SOL    HW2 7969   2.956   1.860   4.878
 2651SOL     OW 7970   2.632   3.192   4.025
 2651SOL    HW1 7971   2.586   3.105   4.042
 2651SOL    HW2 7972   2.723   3.189   4.066
 2652SOL     OW 7973   3.214   1.914   3.892
 2652SOL    HW1 7974   3.249   1.873   3.808
 2652SOL    HW2 7975   3.124   1.876   3.912
 2653SOL     OW 7976   3.162   2.315   4.415
 2653SOL    HW1 7977   3.103   2.395   4.419
 2653SOL    HW2 7978   3.177   2.280   4.508
 2654SOL     OW 7979   3.455   2.083   4.606
 2654SOL    HW1 7980   3.371   2.082   4.660
 2654SOL    HW2 7981   3.457   2.166   4.550
 2655SOL     OW 7982   1.901   2.939   4.024
 2655SOL    HW1 7983   2.000   2.928   4.015
 2655SOL    HW2 7984   1.861   2.853   4.056
 2656SOL     OW 7985   2.737   3.508   4.061
 2656SOL    HW1 7986   2.660   3.473   4.007
 2656SOL    HW2 7987   2.705   3.579   4.123
 2657SOL     OW 7988   2.092   4.352   0.113
 2657SOL    HW1 7989   1.999   4.350   0.150
 2657SOL    HW2 7990   2.093   4.313   0.021
 2658SOL     OW 7991   2.087   3.999   0.996
 2658SOL    HW1 7992   2.122   3.982   1.088
 2658SOL    HW2 7993   1.999   3.954   0.984
 2659SOL     OW 7994   1.881   4.092   0.647
 2659SOL    HW1 7995   1.799   4.135   0.686
 2659SOL    HW2 7996   1.853   4.019   0.584
 2660SOL     OW 7997   2.997   4.427   0.717
 2660SOL    HW1 7998   3.054   4.505   0.692
 2660SOL    HW2 7999   2.937   4.453   0.793
 2661SOL     OW 8000   3.617   4.331   0.231
 2661SOL    HW1 8001   3.605   4.318   0.132
 2661SOL    HW2 8002   3.587   4.250   0.280
 2662SOL     OW 8003   2.630   4.868   1.023
 2662SOL    HW1 8004   2.552   4.885   1.083
 2662SOL    HW2 8005   2.664   4.955   0.987
 2663SOL     OW 8006   2.712   4.522   1.823
 2663SOL    HW1 8007   2.708   4.598   1.888
 2663SOL    HW2 8008   2.734   4.558   1.732
 2664SOL     OW 8009   2.547   4.736   0.665
 2664SOL    HW1 8010   2.616   4.720   0.735
 2664SOL    HW2 8011   2.474   4.793   0.703
 2665SOL     OW 8012   2.548   4.885   1.803
 2665SOL    HW1 8013   2.608   4.964   1.817
 2665SOL    HW2 8014   2.462   4.916   1.762
 2666SOL     OW 8015   2.300   4.116   1.499
 2666SOL    HW1 8016   2.382   4.060   1.508
 2666SOL    HW2 8017   2.219   4.058   1.503
 2667SOL     OW 8018   3.465   4.171   0.737
 2667SOL    HW1 8019   3.391   4.217   0.687
 2667SOL    HW2 8020   3.516   4.239   0.790
 2668SOL     OW 8021   2.102   4.815   0.886
 2668SOL    HW1 8022   2.116   4.731   0.938
 2668SOL    HW2 8023   2.047   4.879   0.941
 2669SOL     OW 8024   2.468   4.688   0.123
 2669SOL    HW1 8025   2.475   4.772   0.069
 2669SOL    HW2 8026   2.514   4.701   0.211
 2670SOL     OW 8027   3.456   3.838   1.480
 2670SOL    HW1 8028   3.438   3.905   1.408
 2670SOL    HW2 8029   3.453   3.884   1.569
 2671SOL     OW 8030   1.984   4.367   0.563
 2671SOL    HW1 8031   1.939   4.279   0.580
 2671SOL    HW2 8032   1.983   4.421   0.647
 2672SOL     OW 8033   3.551   4.646   0.612
 2672SOL    HW1 8034   3.646   4.617   0.620
 2672SOL    HW2 8035   3.543   4.711   0.537
 2673SOL     OW 8036   3.503   4.832   0.432
 2673SOL    HW1 8037   3.589   4.834   0.380
 2673SOL    HW2 8038   3.517   4.879   0.520
 2674SOL     OW 8039   1.975   4.461   1.597
 2674SOL    HW1 8040   2.063   4.448   1.642
 2674SOL    HW2 8041   1.962   4.558   1.575
 2675SOL     OW 8042   3.155   4.952   1.423
 2675SOL    HW1 8043   3.192   4.879   1.365
 2675SOL    HW2 8044   3.207   4.957   1.508
 2676SOL     OW 8045   2.671   3.728   0.502
 2676SOL    HW1 8046   2.711   3.819   0.493
 2676SOL    HW2 8047   2.571   3.736   0.508
 2677SOL     OW 8048   2.059   4.700   1.264
 2677SOL    HW1 8049   2.148   4.655   1.250
 2677SOL    HW2 8050   1.986   4.635   1.245
 2678SOL     OW 8051   3.387   4.723   0.190
 2678SOL    HW1 8052   3.324   4.647   0.203
 2678SOL    HW2 8053   3.435   4.741   0.276
 2679SOL     OW 8054   2.179   3.975   1.801
 2679SOL    HW1 8055   2.250   4.046   1.807
 2679SOL    HW2 8056   2.091   4.014   1.829
 2680SOL     OW 8057   2.460   4.453   0.270
 2680SOL    HW1 8058   2.484   4.522   0.202
 2680SOL    HW2 8059   2.382   4.486   0.324
 2681SOL     OW 8060   3.143   4.069   0.944
 2681SOL    HW1 8061   3.057   4.019   0.931
 2681SOL    HW2 8062   3.205   4.015   1.000
 2682SOL     OW 8063   2.669   4.329   1.465
 2682SOL    HW1 8064   2.622   4.326   1.554
 2682SOL    HW2 8065   2.618   4.274   1.399
 2683SOL     OW 8066   3.256   4.193   1.674
 2683SOL    HW1 8067   3.236   4.236   1.762
 2683SOL    HW2 8068   3.334   4.131   1.683
 2684SOL     OW 8069   2.835   4.614   1.572
 2684SOL    HW1 8070   2.881   4.530   1.543
 2684SOL    HW2 8071   2.779   4.648   1.497
 2685SOL     OW 8072   2.853   4.134   1.242
 2685SOL    HW1 8073   2.776   4.168   1.296
 2685SOL    HW2 8074   2.819   4.083   1.163
 2686SOL     OW 8075   2.903   4.425   0.429
 2686SOL    HW1 8076   2.929   4.421   0.525
 2686SOL    HW2 8077   2.818   4.374   0.415
 2687SOL     OW 8078   1.938   4.535   0.789
 2687SOL    HW1 8079   2.037   4.523   0.798
 2687SOL    HW2 8080   1.914   4.630   0.810
 2688SOL     OW 8081   2.727   4.072   0.195
 2688SOL    HW1 8082   2.786   4.135   0.146
 2688SOL    HW2 8083   2.746   3.978   0.166
 2689SOL     OW 8084   3.581   4.309   1.831
 2689SOL    HW1 8085   3.555   4.398   1.795
 2689SOL    HW2 8086   3.579   4.241   1.758
 2690SOL     OW 8087   3.224   4.868   0.545
 2690SOL    HW1 8088   3.307   4.839   0.497
 2690SOL    HW2 8089   3.175   4.935   0.489
 2691SOL     OW 8090   2.412   3.920   0.885
 2691SOL    HW1 8091   2.407   3.915   0.985
 2691SOL    HW2 8092   2.414   4.016   0.856
 2692SOL     OW 8093   3.657   4.790   0.873
 2692SOL    HW1 8094   3.595   4.775   0.797
 2692SOL    HW2 8095   3.605   4.801   0.958
 2693SOL     OW 8096   2.183   4.667   0.242
 2693SOL    HW1 8097   2.265   4.706   0.200
 2693SOL    HW2 8098   2.156   4.585   0.193
 2694SOL     OW 8099   3.320   4.459   0.728
 2694SOL    HW1 8100   3.315   4.394   0.803
 2694SOL    HW2 8101   3.400   4.518   0.741
 2695SOL     OW 8102   2.064   4.009   1.498
 2695SOL    HW1 8103   1.984   4.069   1.485
 2695SOL    HW2 8104   2.054   3.960   1.584
 2696SOL     OW 8105   3.262   3.831   0.426
 2696SOL    HW1 8106   3.238   3.794   0.336
 2696SOL    HW2 8107   3.361   3.847   0.430
 2697SOL     OW 8108   2.244   4.424   0.480
 2697SOL    HW1 8109   2.289   4.334   0.477
 2697SOL    HW2 8110   2.150   4.413   0.513
 2698SOL     OW 8111   3.409   3.946   1.729
 2698SOL    HW1 8112   3.404   3.983   1.821
 2698SOL    HW2 8113   3.337   3.877   1.717
 2699SOL     OW 8114   2.476   3.846   0.117
 2699SOL    HW1 8115   2.574   3.824   0.124
 2699SOL    HW2 8116   2.445   3.829   0.024
 2700SOL     OW 8117   2.643   3.988   1.749
 2700SOL    HW1 8118   2.710   3.927   1.792
 2700SOL    HW2 8119   2.570   4.007   1.814
 2701SOL     OW 8120   3.213   4.314   1.433
 2701SOL    HW1 8121   3.241   4.271   1.518
 2701SOL    HW2 8122   3.238   4.410   1.434
 2702SOL     OW 8123   2.784   4.227   0.899
 2702SOL    HW1 8124   2.759   4.218   0.803
 2702SOL    HW2 8125   2.832   4.145   0.930
 2703SOL     OW 8126   2.401   3.788   0.512
 2703SOL    HW1 8127   2.320   3.789   0.570
 2703SOL    HW2 8128   2.404   3.871   0.457
 2704SOL     OW 8129   2.159   3.759   0.171
 2704SOL    HW1 8130   2.208   3.843   0.150
 2704SOL    HW2 8131   2.221   3.694   0.216
 2705SOL     OW 8132   2.797   3.960   0.480
 2705SOL    HW1 8133   2.749   4.001   0.402
 2705SOL    HW2 8134   2.896   3.958   0.461
 2706SOL     OW 8135   2.938   4.407   1.464
 2706SOL    HW1 8136   2.858   4.346   1.467
 2706SOL    HW2 8137   3.019   4.354   1.440
 2707SOL     OW 8138   2.321   4.876   0.741
 2707SOL    HW1 8139   2.250   4.849   0.806
 2707SOL    HW2 8140   2.295   4.848   0.648
 2708SOL     OW 8141   2.894   4.273   0.016
 2708SOL    HW1 8142   2.853   4.355  -0.023
 2708SOL    HW2 8143   2.958   4.299   0.089
 2709SOL     OW 8144   1.940   4.280   1.386
 2709SOL    HW1 8145   2.032   4.279   1.345
 2709SOL    HW2 8146   1.934   4.354   1.453
 2710SOL     OW 8147   2.423   3.946   1.147
 2710SOL    HW1 8148   2.461   3.862   1.184
 2710SOL    HW2 8149   2.335   3.965   1.191
 2711SOL     OW 8150   2.728   4.178   0.642
 2711SOL    HW1 8151   2.696   4.250   0.580
 2711SOL    HW2 8152   2.752   4.097   0.589
 2712SOL     OW 8153   2.879   3.763   0.753
 2712SOL    HW1 8154   2.807   3.768   0.684
 2712SOL    HW2 8155   2.855   3.694   0.822
 2713SOL     OW 8156   3.291   4.897   0.867
 2713SOL    HW1 8157   3.236   4.813   0.860
 2713SOL    HW2 8158   3.317   4.926   0.775
 2714SOL     OW 8159   3.328   4.314   0.992
 2714SOL    HW1 8160   3.298   4.219   0.999
 2714SOL    HW2 8161   3.401   4.330   1.058
 2715SOL     OW 8162   3.719   4.557   0.377
 2715SOL    HW1 8163   3.761   4.493   0.441
 2715SOL    HW2 8164   3.681   4.506   0.299
 2716SOL     OW 8165   3.252   4.299   0.078
 2716SOL    HW1 8166   3.198   4.278   0.159
 2716SOL    HW2 8167   3.343   4.258   0.087
 2717SOL     OW 8168   2.389   3.980   0.328
 2717SOL    HW1 8169   2.416   3.921   0.253
 2717SOL    HW2 8170   2.389   4.075   0.297
 2718SOL     OW 8171   3.616   4.947   1.588
 2718SOL    HW1 8172   3.707   4.908   1.575
 2718SOL    HW2 8173   3.624   5.043   1.612
 2719SOL     OW 8174   3.500   4.823   1.079
 2719SOL    HW1 8175   3.505   4.904   1.138
 2719SOL    HW2 8176   3.414   4.825   1.028
 2720SOL     OW 8177   2.777   3.813   1.402
 2720SOL    HW1 8178   2.802   3.793   1.307
 2720SOL    HW2 8179   2.849   3.869   1.444
 2721SOL     OW 8180   2.842   4.840   1.719
 2721SOL    HW1 8181   2.743   4.846   1.729
 2721SOL    HW2 8182   2.865   4.760   1.663
 2722SOL     OW 8183   2.567   4.774   0.368
 2722SOL    HW1 8184   2.553   4.781   0.467
 2722SOL    HW2 8185   2.651   4.723   0.350
 2723SOL     OW 8186   2.272   4.537   1.251
 2723SOL    HW1 8187   2.358   4.549   1.301
 2723SOL    HW2 8188   2.230   4.450   1.278
 2724SOL     OW 8189   3.136   4.110   1.262
 2724SOL    HW1 8190   3.157   4.184   1.326
 2724SOL    HW2 8191   3.047   4.127   1.219
 2725SOL     OW 8192   2.229   4.824   0.501
 2725SOL    HW1 8193   2.222   4.907   0.445
 2725SOL    HW2 8194   2.233   4.744   0.441
 2726SOL     OW 8195   2.428   4.261   0.865
 2726SOL    HW1 8196   2.440   4.327   0.791
 2726SOL    HW2 8197   2.474   4.295   0.948
 2727SOL     OW 8198   3.444   4.363   0.472
 2727SOL    HW1 8199   3.413   4.424   0.545
 2727SOL    HW2 8200   3.494   4.415   0.403
 2728SOL     OW 8201   2.264   4.475   1.598
 2728SOL    HW1 8202   2.332   4.530   1.551
 2728SOL    HW2 8203   2.304   4.387   1.625
 2729SOL     OW 8204   3.449   4.503   1.670
 2729SOL    HW1 8205   3.357   4.541   1.665
 2729SOL    HW2 8206   3.509   4.550   1.605
 2730SOL     OW 8207   2.875   3.829   1.770
 2730SOL    HW1 8208   2.881   3.914   1.718
 2730SOL    HW2 8209   2.907   3.753   1.713
 2731SOL     OW 8210   2.366   3.774   1.740
 2731SOL    HW1 8211   2.324   3.717   1.670
 2731SOL    HW2 8212   2.300   3.843   1.772
 2732SOL     OW 8213   2.435   4.594   1.029
 2732SOL    HW1 8214   2.479   4.683   1.020
 2732SOL    HW2 8215   2.372   4.594   1.106
 2733SOL     OW 8216   3.222   4.586   1.045
 2733SOL    HW1 8217   3.147   4.586   0.979
 2733SOL    HW2 8218   3.259   4.494   1.054
 2734SOL     OW 8219   3.071   4.249   0.275
 2734SOL    HW1 8220   3.084   4.165   0.329
 2734SOL    HW2 8221   3.042   4.323   0.335
 2735SOL     OW 8222   2.169   3.937   1.231
 2735SOL    HW1 8223   2.146   3.974   1.321
 2735SOL    HW2 8224   2.139   3.842   1.225
 2736SOL     OW 8225   2.594   4.358   1.064
 2736SOL    HW1 8226   2.653   4.332   0.988
 2736SOL    HW2 8227   2.566   4.454   1.053
 2737SOL     OW 8228   3.590   4.659   1.854
 2737SOL    HW1 8229   3.544   4.652   1.765
 2737SOL    HW2 8230   3.528   4.703   1.920
 2738SOL     OW 8231   2.169   3.787   0.618
 2738SOL    HW1 8232   2.158   3.881   0.651
 2738SOL    HW2 8233   2.164   3.724   0.695
 2739SOL     OW 8234   3.484   4.091   0.374
 2739SOL    HW1 8235   3.486   4.015   0.438
 2739SOL    HW2 8236   3.436   4.168   0.414
 2740SOL     OW 8237   2.885   4.490   0.966
 2740SOL    HW1 8238   2.900   4.511   1.062
 2740SOL    HW2 8239   2.855   4.395   0.957
 2741SOL     OW 8240   2.212   4.622   1.804
 2741SOL    HW1 8241   2.288   4.666   1.852
 2741SOL    HW2 8242   2.247   4.575   1.722
 2742SOL     OW 8243   3.402   3.998   0.125
 2742SOL    HW1 8244   3.341   3.923   0.148
 2742SOL    HW2 8245   3.424   4.050   0.208
 2743SOL     OW 8246   3.165   4.562   0.042
 2743SOL    HW1 8247   3.199   4.469   0.057
 2743SOL    HW2 8248   3.183   4.589  -0.053
 2744SOL     OW 8249   2.181   4.534   0.949
 2744SOL    HW1 8250   2.274   4.570   0.954
 2744SOL    HW2 8251   2.175   4.449   1.001
 2745SOL     OW 8252   2.201   4.233   1.006
 2745SOL    HW1 8253   2.149   4.150   0.989
 2745SOL    HW2 8254   2.278   4.238   0.942
 2746SOL     OW 8255   3.000   4.104   1.678
 2746SOL    HW1 8256   2.955   4.167   1.742
 2746SOL    HW2 8257   3.093   4.135   1.661
 2747SOL     OW 8258   3.022   3.931   1.477
 2747SOL    HW1 8259   3.022   3.995   1.554
 2747SOL    HW2 8260   3.050   3.979   1.394
 2748SOL     OW 8261   1.870   5.050   0.200
 2748SOL    HW1 8262   1.777   5.071   0.169
 2748SOL    HW2 8263   1.880   4.951   0.213
 2749SOL     OW 8264   2.864   4.520   1.238
 2749SOL    HW1 8265   2.905   4.488   1.324
 2749SOL    HW2 8266   2.768   4.493   1.235
 2750SOL     OW 8267   1.902   4.268   1.114
 2750SOL    HW1 8268   1.987   4.235   1.073
 2750SOL    HW2 8269   1.915   4.283   1.212
 2751SOL     OW 8270   2.051   4.244   1.722
 2751SOL    HW1 8271   2.110   4.204   1.652
 2751SOL    HW2 8272   1.993   4.315   1.681
 2752SOL     OW 8273   3.231   4.674   1.660
 2752SOL    HW1 8274   3.270   4.763   1.680
 2752SOL    HW2 8275   3.241   4.654   1.563
 2753SOL     OW 8276   2.677   4.296   0.325
 2753SOL    HW1 8277   2.684   4.207   0.279
 2753SOL    HW2 8278   2.583   4.330   0.317
 2754SOL     OW 8279   3.519   4.328   1.206
 2754SOL    HW1 8280   3.481   4.259   1.268
 2754SOL    HW2 8281   3.601   4.292   1.162
 2755SOL     OW 8282   2.533   4.188   1.269
 2755SOL    HW1 8283   2.499   4.099   1.239
 2755SOL    HW2 8284   2.559   4.242   1.189
 2756SOL     OW 8285   2.335   4.224   0.191
 2756SOL    HW1 8286   2.396   4.304   0.195
 2756SOL    HW2 8287   2.240   4.255   0.198
 2757SOL     OW 8288   2.021   4.861   1.466
 2757SOL    HW1 8289   2.043   4.800   1.542
 2757SOL    HW2 8290   2.031   4.812   1.380
 2758SOL     OW 8291   3.209   4.783   1.234
 2758SOL    HW1 8292   3.233   4.720   1.160
 2758SOL    HW2 8293   3.119   4.823   1.216
 2759SOL     OW 8294   3.164   4.579   0.309
 2759SOL    HW1 8295   3.078   4.548   0.351
 2759SOL    HW2 8296   3.160   4.565   0.210
 2760SOL     OW 8297   1.945   4.982   1.022
 2760SOL    HW1 8298   1.940   4.981   1.122
 2760SOL    HW2 8299   1.862   4.941   0.984
 2761SOL     OW 8300   2.765   3.810   0.133
 2761SOL    HW1 8301   2.816   3.811   0.047
 2761SOL    HW2 8302   2.821   3.768   0.204
 2762SOL     OW 8303   3.588   3.859   0.523
 2762SOL    HW1 8304   3.661   3.842   0.456
 2762SOL    HW2 8305   3.557   3.772   0.561
 2763SOL     OW 8306   3.142   4.651   0.672
 2763SOL    HW1 8307   3.202   4.570   0.674
 2763SOL    HW2 8308   3.182   4.720   0.612
 2764SOL     OW 8309   3.703   3.899   0.963
 2764SOL    HW1 8310   3.742   3.814   0.927
 2764SOL    HW2 8311   3.605   3.901   0.944
 2765SOL     OW 8312   2.125   4.050   0.720
 2765SOL    HW1 8313   2.046   4.101   0.686
 2765SOL    HW2 8314   2.116   4.035   0.818
 2766SOL     OW 8315   2.684   4.726   1.372
 2766SOL    HW1 8316   2.724   4.725   1.280
 2766SOL    HW2 8317   2.694   4.818   1.412
 2767SOL     OW 8318   2.778   4.634   0.291
 2767SOL    HW1 8319   2.841   4.672   0.223
 2767SOL    HW2 8320   2.818   4.551   0.330
 2768SOL     OW 8321   2.234   5.012   1.490
 2768SOL    HW1 8322   2.221   5.105   1.456
 2768SOL    HW2 8323   2.150   4.960   1.477
 2769SOL     OW 8324   3.476   5.016   1.289
 2769SOL    HW1 8325   3.536   5.019   1.369
 2769SOL    HW2 8326   3.401   5.080   1.302
 2770SOL     OW 8327   2.901   4.822   0.696
 2770SOL    HW1 8328   2.831   4.775   0.750
 2770SOL    HW2 8329   2.960   4.754   0.653
 2771SOL     OW 8330   2.876   3.960   0.971
 2771SOL    HW1 8331   2.868   3.924   0.878
 2771SOL    HW2 8332   2.874   3.884   1.036
 2772SOL     OW 8333   3.571   4.109   1.381
 2772SOL    HW1 8334   3.644   4.178   1.385
 2772SOL    HW2 8335   3.599   4.034   1.322
 2773SOL     OW 8336   1.967   4.737   1.726
 2773SOL    HW1 8337   1.890   4.704   1.780
 2773SOL    HW2 8338   2.052   4.707   1.768
 2774SOL     OW 8339   2.534   3.927   1.489
 2774SOL    HW1 8340   2.624   3.911   1.449
 2774SOL    HW2 8341   2.542   3.932   1.588
 2775SOL     OW 8342   3.302   4.580   1.398
 2775SOL    HW1 8343   3.245   4.632   1.335
 2775SOL    HW2 8344   3.398   4.592   1.374
 2776SOL     OW 8345   1.934   3.890   0.318
 2776SOL    HW1 8346   1.917   3.973   0.264
 2776SOL    HW2 8347   2.024   3.853   0.296
 2777SOL     OW 8348   2.475   4.566   1.431
 2777SOL    HW1 8349   2.531   4.647   1.414
 2777SOL    HW2 8350   2.534   4.486   1.434
 2778SOL     OW 8351   2.578   4.289   1.708
 2778SOL    HW1 8352   2.597   4.354   1.782
 2778SOL    HW2 8353   2.638   4.209   1.717
 2779SOL     OW 8354   3.312   4.944   1.633
 2779SOL    HW1 8355   3.303   4.934   1.732
 2779SOL    HW2 8356   3.408   4.937   1.607
 2780SOL     OW 8357   3.536   4.607   1.254
 2780SOL    HW1 8358   3.509   4.518   1.217
 2780SOL    HW2 8359   3.537   4.675   1.181
 2781SOL     OW 8360   3.087   4.049   0.449
 2781SOL    HW1 8361   3.152   3.975   0.438
 2781SOL    HW2 8362   3.107   4.099   0.533
 2782SOL     OW 8363   2.456   4.469   0.652
 2782SOL    HW1 8364   2.506   4.554   0.633
 2782SOL    HW2 8365   2.368   4.471   0.604
 2783SOL     OW 8366   3.639   4.066   1.642
 2783SOL    HW1 8367   3.622   4.097   1.548
 2783SOL    HW2 8368   3.555   4.029   1.680
 2784SOL     OW 8369   3.592   4.658   1.517
 2784SOL    HW1 8370   3.630   4.749   1.532
 2784SOL    HW2 8371   3.584   4.641   1.418
 2785SOL     OW 8372   2.721   4.680   0.861
 2785SOL    HW1 8373   2.775   4.611   0.909
 2785SOL    HW2 8374   2.689   4.749   0.927
 2786SOL     OW 8375   2.945   4.708   0.087
 2786SOL    HW1 8376   2.922   4.761   0.005
 2786SOL    HW2 8377   3.026   4.652   0.068
 2787SOL     OW 8378   1.941   4.964   0.653
 2787SOL    HW1 8379   1.940   4.917   0.741
 2787SOL    HW2 8380   2.023   4.936   0.602
 2788SOL     OW 8381   3.686   3.916   1.227
 2788SOL    HW1 8382   3.682   3.826   1.271
 2788SOL    HW2 8383   3.689   3.905   1.128
 2789SOL     OW 8384   2.290   4.148   0.520
 2789SOL    HW1 8385   2.320   4.076   0.458
 2789SOL    HW2 8386   2.251   4.108   0.603
 2790SOL     OW 8387   2.179   4.271   1.280
 2790SOL    HW1 8388   2.217   4.212   1.352
 2790SOL    HW2 8389   2.219   4.245   1.192
 2791SOL     OW 8390   3.286   3.938   1.112
 2791SOL    HW1 8391   3.338   3.873   1.167
 2791SOL    HW2 8392   3.237   4.001   1.173
 2792SOL     OW 8393   2.863   3.758   1.154
 2792SOL    HW1 8394   2.800   3.686   1.123
 2792SOL    HW2 8395   2.956   3.722   1.154
 2793SOL     OW 8396   2.632   5.054   0.301
 2793SOL    HW1 8397   2.586   4.967   0.318
 2793SOL    HW2 8398   2.723   5.051   0.342
 2794SOL     OW 8399   3.214   3.776   0.168
 2794SOL    HW1 8400   3.249   3.735   0.084
 2794SOL    HW2 8401   3.124   3.738   0.188
 2795SOL     OW 8402   3.162   4.177   0.691
 2795SOL    HW1 8403   3.103   4.257   0.695
 2795SOL    HW2 8404   3.177   4.142   0.784
 2796SOL     OW 8405   3.455   3.945   0.882
 2796SOL    HW1 8406   3.371   3.944   0.936
 2796SOL    HW2 8407   3.457   4.028   0.826
 2797SOL     OW 8408   2.092   4.352   1.975
 2797SOL    HW1 8409   1.999   4.350   2.012
 2797SOL    HW2 8410   2.093   4.313   1.883
 2798SOL     OW 8411   2.087   3.999   2.858
 2798SOL    HW1 8412   2.122   3.982   2.950
 2798SOL    HW2 8413   1.999   3.954   2.846
 2799SOL     OW 8414   1.881   4.092   2.509
 2799SOL    HW1 8415   1.799   4.135   2.548
 2799SOL    HW2 8416   1.853   4.019   2.446
 2800SOL     OW 8417   2.997   4.427   2.579
 2800SOL    HW1 8418   3.054   4.505   2.554
 2800SOL    HW2 8419   2.937   4.453   2.655
 2801SOL     OW 8420   3.617   4.331   2.093
 2801SOL    HW1 8421   3.605   4.318   1.994
 2801SOL    HW2 8422   3.587   4.250   2.142
 2802SOL     OW 8423   2.630   4.868   2.885
 2802SOL    HW1 8424   2.552   4.885   2.945
 2802SOL    HW2 8425   2.664   4.955   2.849
 2803SOL     OW 8426   2.712   4.522   3.685
 2803SOL    HW1 8427   2.708   4.598   3.750
 2803SOL    HW2 8428   2.734   4.558   3.594
 2804SOL     OW 8429   2.547   4.736   2.527
 2804SOL    HW1 8430   2.616   4.720   2.597
 2804SOL    HW2 8431   2.474   4.793   2.565
 2805SOL     OW 8432   2.548   4.885   3.665
 2805SOL    HW1 8433   2.608   4.964   3.679
 2805SOL    HW2 8434   2.462   4.916   3.624
 2806SOL     OW 8435   2.300   4.116   3.361
 2806SOL    HW1 8436   2.382   4.060   3.370
 2806SOL    HW2 8437   2.219   4.058   3.365
 2807SOL     OW 8438   3.465   4.171   2.599
 2807SOL    HW1 8439   3.391   4.217   2.549
 2807SOL    HW2 8440   3.516   4.239   2.652
 2808SOL     OW 8441   2.102   4.815   2.748
 2808SOL    HW1 8442   2.116   4.731   2.800
 2808SOL    HW2 8443   2.047   4.879   2.803
 2809SOL     OW 8444   2.468   4.688   1.985
 2809SOL    HW1 8445   2.475   4.772   1.931
 2809SOL    HW2 8446   2.514   4.701   2.073
 2810SOL     OW 8447   3.456   3.838   3.342
 2810SOL    HW1 8448   3.438   3.905   3.270
 2810SOL    HW2 8449   3.453   3.884   3.431
 2811SOL     OW 8450   1.984   4.367   2.425
 2811SOL    HW1 8451   1.939   4.279   2.442
 2811SOL    HW2 8452   1.983   4.421   2.509
 2812SOL     OW 8453   3.551   4.646   2.474
 2812SOL    HW1 8454   3.646   4.617   2.482
 2812SOL    HW2 8455   3.543   4.711   2.399
 2813SOL     OW 8456   3.503   4.832   2.294
 2813SOL    HW1 8457   3.589   4.834   2.242
 2813SOL    HW2 8458   3.517   4.879   2.382
 2814SOL     OW 8459   1.975   4.461   3.459
 2814SOL    HW1 8460   2.063   4.448   3.504
 2814SOL    HW2 8461   1.962   4.558   3.437
 2815SOL     OW 8462   3.155   4.952   3.285
 2815SOL    HW1 8463   3.192   4.879   3.227
 2815SOL    HW2 8464   3.207   4.957   3.370
 2816SOL     OW 8465   2.671   3.728   2.364
 2816SOL    HW1 8466   2.711   3.819   2.355
 2816SOL    HW2 8467   2.571   3.736   2.370
 2817SOL     OW 8468   2.059   4.700   3.126
 2817SOL    HW1 8469   2.148   4.655   3.112
 2817SOL    HW2 8470   1.986   4.635   3.107
 2818SOL     OW 8471   3.387   4.723   2.052
 2818SOL    HW1 8472   3.324   4.647   2.065
 2818SOL    HW2 8473   3.435   4.741   2.138
 2819SOL     OW 8474   2.179   3.975   3.663
 2819SOL    HW1 8475   2.250   4.046   3.669
 2819SOL    HW2 8476   2.091   4.014   3.691
 2820SOL     OW 8477   2.460   4.453   2.132
 2820SOL    HW1 8478   2.484   4.522   2.064
 2820SOL    HW2 8479   2.382   4.486   2.186
 2821SOL     OW 8480   3.143   4.069   2.806
 2821SOL    HW1 8481   3.057   4.019   2.793
 2821SOL    HW2 8482   3.205   4.015   2.862
 2822SOL     OW 8483   2.669   4.329   3.327
 2822SOL    HW1 8484   2.622   4.326   3.416
 2822SOL    HW2 8485   2.618   4.274   3.261
 2823SOL     OW 8486   3.256   4.193   3.536
 2823SOL    HW1 8487   3.236   4.236   3.624
 2823SOL    HW2 8488   3.334   4.131   3.545
 2824SOL     OW 8489   2.835   4.614   3.434
 2824SOL    HW1 8490   2.881   4.530   3.405
 2824SOL    HW2 8491   2.779   4.648   3.359
 2825SOL     OW 8492   2.853   4.134   3.104
 2825SOL    HW1 8493   2.776   4.168   3.158
 2825SOL    HW2 8494   2.819   4.083   3.025
 2826SOL     OW 8495   2.903   4.425   2.291
 2826SOL    HW1 8496   2.929   4.421   2.387
 2826SOL    HW2 8497   2.818   4.374   2.277
 2827SOL     OW 8498   1.938   4.535   2.651
 2827SOL    HW1 8499   2.037   4.523   2.660
 2827SOL    HW2 8500   1.914   4.630   2.672
 2828SOL     OW 8501   2.727   4.072   2.057
 2828SOL    HW1 8502   2.786   4.135   2.008
 2828SOL    HW2 8503   2.746   3.978   2.028
 2829SOL     OW 8504   3.581   4.309   3.693
 2829SOL    HW1 8505   3.555   4.398   3.657
 2829SOL    HW2 8506   3.579   4.241   3.620
 2830SOL     OW 8507   3.224   4.868   2.407
 2830SOL    HW1 8508   3.307   4.839   2.359
 2830SOL    HW2 8509   3.175   4.935   2.351
 2831SOL     OW 8510   2.412   3.920   2.747
 2831SOL    HW1 8511   2.407   3.915   2.847
 2831SOL    HW2 8512   2.414   4.016   2.718
 2832SOL     OW 8513   3.657   4.790   2.735
 2832SOL    HW1 8514   3.595   4.775   2.659
 2832SOL    HW2 8515   3.605   4.801   2.820
 2833SOL     OW 8516   2.183   4.667   2.104
 2833SOL    HW1 8517   2.265   4.706   2.062
 2833SOL    HW2 8518   2.156   4.585   2.055
 2834SOL     OW 8519   3.320   4.459   2.590
 2834SOL    HW1 8520   3.315   4.394   2.665
 2834SOL    HW2 8521   3.400   4.518   2.603
 2835SOL     OW 8522   2.064   4.009   3.360
 2835SOL    HW1 8523   1.984   4.069   3.347
 2835SOL    HW2 8524   2.054   3.960   3.446
 2836SOL     OW 8525   3.262   3.831   2.288
 2836SOL    HW1 8526   3.238   3.794   2.198
 2836SOL    HW2 8527   3.361   3.847   2.292
 2837SOL     OW 8528   2.244   4.424   2.342
 2837SOL    HW1 8529   2.289   4.334   2.339
 2837SOL    HW2 8530   2.150   4.413   2.375
 2838SOL     OW 8531   3.409   3.946   3.591
 2838SOL    HW1 8532   3.404   3.983   3.683
 2838SOL    HW2 8533   3.337   3.877   3.579
 2839SOL     OW 8534   2.476   3.846   1.979
 2839SOL    HW1 8535   2.574   3.824   1.986
 2839SOL    HW2 8536   2.445   3.829   1.886
 2840SOL     OW 8537   2.643   3.988   3.611
 2840SOL    HW1 8538   2.710   3.927   3.654
 2840SOL    HW2 8539   2.570   4.007   3.676
 2841SOL     OW 8540   3.213   4.314   3.295
 2841SOL    HW1 8541   3.241   4.271   3.380
 2841SOL    HW2 8542   3.238   4.410   3.296
 2842SOL     OW 8543   2.784   4.227   2.761
 2842SOL    HW1 8544   2.759   4.218   2.665
 2842SOL    HW2 8545   2.832   4.145   2.792
 2843SOL     OW 8546   2.401   3.788   2.374
 2843SOL    HW1 8547   2.320   3.789   2.432
 2843SOL    HW2 8548   2.404   3.871   2.319
 2844SOL     OW 8549   2.159   3.759   2.033
 2844SOL    HW1 8550   2.208   3.843   2.012
 2844SOL    HW2 8551   2.221   3.694   2.078
 2845SOL     OW 8552   2.797   3.960   2.342
 2845SOL    HW1 8553   2.749   4.001   2.264
 2845SOL    HW2 8554   2.896   3.958   2.323
 2846SOL     OW 8555   2.938   4.407   3.326
 2846SOL    HW1 8556   2.858   4.346   3.329
 2846SOL    HW2 8557   3.019   4.354   3.302
 2847SOL     OW 8558   2.321   4.876   2.603
 2847SOL    HW1 8559   2.250   4.849   2.668
 2847SOL    HW2 8560   2.295   4.848   2.510
 2848SOL     OW 8561   2.894   4.273   1.878
 2848SOL    HW1 8562   2.853   4.355   1.839
 2848SOL    HW2 8563   2.958   4.299   1.951
 2849SOL     OW 8564   1.940   4.280   3.248
 2849SOL    HW1 8565   2.032   4.279   3.207
 2849SOL    HW2 8566   1.934   4.354   3.315
 2850SOL     OW 8567   2.423   3.946   3.009
 2850SOL    HW1 8568   2.461   3.862   3.046
 2850SOL    HW2 8569   2.335   3.965   3.053
 2851SOL     OW 8570   2.728   4.178   2.504
 2851SOL    HW1 8571   2.696   4.250   2.442
 2851SOL    HW2 8572   2.752   4.097   2.451
 2852SOL     OW 8573   2.879   3.763   2.615
 2852SOL    HW1 8574   2.807   3.768   2.546
 2852SOL    HW2 8575   2.855   3.694   2.684
 2853SOL     OW 8576   3.291   4.897   2.729
 2853SOL    HW1 8577   3.236   4.813   2.722
 2853SOL    HW2 8578   3.317   4.926   2.637
 2854SOL     OW 8579   3.328   4.314   2.854
 2854SOL    HW1 8580   3.298   4.219   2.861
 2854SOL    HW2 8581   3.401   4.330   2.920
 2855SOL     OW 8582   3.719   4.557   2.239
 2855SOL    HW1 8583   3.761   4.493   2.303
 2855SOL    HW2 8584   3.681   4.506   2.161
 2856SOL     OW 8585   3.252   4.299   1.940
 2856SOL    HW1 8586   3.198   4.278   2.021
 2856SOL    HW2 8587   3.343   4.258   1.949
 2857SOL     OW 8588   2.389   3.980   2.190
 2857SOL    HW1 8589   2.416   3.921   2.115
 2857SOL    HW2 8590   2.389   4.075   2.159
 2858SOL     OW 8591   3.616   4.947   3.450
 2858SOL    HW1 8592   3.707   4.908   3.437
 2858SOL    HW2 8593   3.624   5.043   3.474
 2859SOL     OW 8594   3.500   4.823   2.941
 2859SOL    HW1 8595   3.505   4.904   3.000
 2859SOL    HW2 8596   3.414   4.825   2.890
 2860SOL     OW 8597   2.777   3.813   3.264
 2860SOL    HW1 8598   2.802   3.793   3.169
 2860SOL    HW2 8599   2.849   3.869   3.306
 2861SOL     OW 8600   2.842   4.840   3.581
 2861SOL    HW1 8601   2.743   4.846   3.591
 2861SOL    HW2 8602   2.865   4.760   3.525
 2862SOL     OW 8603   2.567   4.774   2.230
 2862SOL    HW1 8604   2.553   4.781   2.329
 2862SOL    HW2 8605   2.651   4.723   2.212
 2863SOL     OW 8606   2.272   4.537   3.113
 2863SOL    HW1 8607   2.358   4.549   3.163
 2863SOL    HW2 8608   2.230   4.450   3.140
 2864SOL     OW 8609   3.136   4.110   3.124
 2864SOL    HW1 8610   3.157   4.184   3.188
 2864SOL    HW2 8611   3.047   4.127   3.081
 2865SOL     OW 8612   2.229   4.824   2.363
 2865SOL    HW1 8613   2.222   4.907   2.307
 2865SOL    HW2 8614   2.233   4.744   2.303
 2866SOL     OW 8615   2.428   4.261   2.727
 2866SOL    HW1 8616   2.440   4.327   2.653
 2866SOL    HW2 8617   2.474   4.295   2.810
 2867SOL     OW 8618   3.444   4.363   2.334
 2867SOL    HW1 8619   3.413   4.424   2.407
 2867SOL    HW2 8620   3.494   4.415   2.265
 2868SOL     OW 8621   2.264   4.475   3.460
 2868SOL    HW1 8622   2.332   4.530   3.413
 2868SOL    HW2 8623   2.304   4.387   3.487
 2869SOL     OW 8624   3.449   4.503   3.532
 2869SOL    HW1 8625   3.357   4.541   3.527
 2869SOL    HW2 8626   3.509   4.550   3.467
 2870SOL     OW 8627   2.875   3.829   3.632
 2870SOL    HW1 8628   2.881   3.914   3.580
 2870SOL    HW2 8629   2.907   3.753   3.575
 2871SOL     OW 8630   2.366   3.774   3.602
 2871SOL    HW1 8631   2.324   3.717   3.532
 2871SOL    HW2 8632   2.300   3.843   3.634
 2872SOL     OW 8633   2.435   4.594   2.891
 2872SOL    HW1 8634   2.479   4.683   2.882
 2872SOL    HW2 8635   2.372   4.594   2.968
 2873SOL     OW 8636   3.222   4.586   2.907
 2873SOL    HW1 8637   3.147   4.586   2.841
 2873SOL    HW2 8638   3.259   4.494   2.916
 2874SOL     OW 8639   3.071   4.249   2.137
 2874SOL    HW1 8640   3.084   4.165   2.191
 2874SOL    HW2 8641   3.042   4.323   2.197
 2875SOL     OW 8642   2.169   3.937   3.093
 2875SOL    HW1 8643   2.146   3.974   3.183
 2875SOL    HW2 8644   2.139   3.842   3.087
 2876SOL     OW 8645   2.594   4.358   2.926
 2876SOL    HW1 8646   2.653   4.332   2.850
 2876SOL    HW2 8647   2.566   4.454   2.915
 2877SOL     OW 8648   3.590   4.659   3.716
 2877SOL    HW1 8649   3.544   4.652   3.627
 2877SOL    HW2 8650   3.528   4.703   3.782
 2878SOL     OW 8651   2.169   3.787   2.480
 2878SOL    HW1 8652   2.158   3.881   2.513
 2878SOL    HW2 8653   2.164   3.724   2.557
 2879SOL     OW 8654   3.484   4.091   2.236
 2879SOL    HW1 8655   3.486   4.015   2.300
 2879SOL    HW2 8656   3.436   4.168   2.276
 2880SOL     OW 8657   2.885   4.490   2.828
 2880SOL    HW1 8658   2.900   4.511   2.924
 2880SOL    HW2 8659   2.855   4.395   2.819
 2881SOL     OW 8660   2.212   4.622   3.666
 2881SOL    HW1 8661   2.288   4.666   3.714
 2881SOL    HW2 8662   2.247   4.575   3.584
 2882SOL     OW 8663   3.402   3.998   1.987
 2882SOL    HW1 8664   3.341   3.923   2.010
 2882SOL    HW2 8665   3.424   4.050   2.070
 2883SOL     OW 8666   3.165   4.562   1.904
 2883SOL    HW1 8667   3.199   4.469   1.919
 2883SOL    HW2 8668   3.183   4.589   1.809
 2884SOL     OW 8669   2.181   4.534   2.811
 2884SOL    HW1 8670   2.274   4.570   2.816
 2884SOL    HW2 8671   2.175   4.449   2.863
 2885SOL     OW 8672   2.201   4.233   2.868
 2885SOL    HW1 8673   2.149   4.150   2.851
 2885SOL    HW2 8674   2.278   4.238   2.804
 2886SOL     OW 8675   3.000   4.104   3.540
 2886SOL    HW1 8676   2.955   4.167   3.604
 2886SOL    HW2 8677   3.093   4.135   3.523
 2887SOL     OW 8678   3.022   3.931   3.339
 2887SOL    HW1 8679   3.022   3.995   3.416
 2887SOL    HW2 8680   3.050   3.979   3.256
 2888SOL     OW 8681   1.870   5.050   2.062
 2888SOL    HW1 8682   1.777   5.071   2.031
 2888SOL    HW2 8683   1.880   4.951   2.075
 2889SOL     OW 8684   2.864   4.520   3.100
 2889SOL    HW1 8685   2.905   4.488   3.186
 2889SOL    HW2 8686   2.768   4.493   3.097
 2890SOL     OW 8687   1.902   4.268   2.976
 2890SOL    HW1 8688   1.987   4.235   2.935
 2890SOL    HW2 8689   1.915   4.283   3.074
 2891SOL     OW 8690   2.051   4.244   3.584
 2891SOL    HW1 8691   2.110   4.204   3.514
 2891SOL    HW2 8692   1.993   4.315   3.543
 2892SOL     OW 8693   3.231   4.674   3.522
 2892SOL    HW1 8694   3.270   4.763   3.542
 2892SOL    HW2 8695   3.241   4.654   3.425
 2893SOL     OW 8696   2.677   4.296   2.187
 2893SOL    HW1 8697   2.684   4.207   2.141
 2893SOL    HW2 8698   2.583   4.330   2.179
 2894SOL     OW 8699   3.519   4.328   3.068
 2894SOL    HW1 8700   3.481   4.259   3.130
 2894SOL    HW2 8701   3.601   4.292   3.024
 2895SOL     OW 8702   2.533   4.188   3.131
 2895SOL    HW1 8703   2.499   4.099   3.101
 2895SOL    HW2 8704   2.559   4.242   3.051
 2896SOL     OW 8705   2.335   4.224   2.053
 2896SOL    HW1 8706   2.396   4.304   2.057
 2896SOL    HW2 8707   2.240   4.255   2.060
 2897SOL     OW 8708   2.021   4.861   3.328
 2897SOL    HW1 8709   2.043   4.800   3.404
 2897SOL    HW2 8710   2.031   4.812   3.242
 2898SOL     OW 8711   3.209   4.783   3.096
 2898SOL    HW1 8712   3.233   4.720   3.022
 2898SOL    HW2 8713   3.119   4.823   3.078
 2899SOL     OW 8714   3.164   4.579   2.171
 2899SOL    HW1 8715   3.078   4.548   2.213
 2899SOL    HW2 8716   3.160   4.565   2.072
 2900SOL     OW 8717   1.945   4.982   2.884
 2900SOL    HW1 8718   1.940   4.981   2.984
 2900SOL    HW2 8719   1.862   4.941   2.846
 2901SOL     OW 8720   3.588   3.859   2.385
 2901SOL    HW1 8721   3.661   3.842   2.318
 2901SOL    HW2 8722   3.557   3.772   2.423
 2902SOL     OW 8723   3.142   4.651   2.534
 2902SOL    HW1 8724   3.202   4.570   2.536
 2902SOL    HW2 8725   3.182   4.720   2.474
 2903SOL     OW 8726   3.703   3.899   2.825
 2903SOL    HW1 8727   3.742   3.814   2.789
 2903SOL    HW2 8728   3.605   3.901   2.806
 2904SOL     OW 8729   2.125   4.050   2.582
 2904SOL    HW1 8730   2.046   4.101   2.548
 2904SOL    HW2 8731   2.116   4.035   2.680
 2905SOL     OW 8732   2.684   4.726   3.234
 2905SOL    HW1 8733   2.724   4.725   3.142
 2905SOL    HW2 8734   2.694   4.818   3.274
 2906SOL     OW 8735   2.778   4.634   2.153
 2906SOL    HW1 8736   2.841   4.672   2.085
 2906SOL    HW2 8737   2.818   4.551   2.192
 2907SOL     OW 8738   2.234   5.012   3.352
 2907SOL    HW1 8739   2.221   5.105   3.318
 2907SOL    HW2 8740   2.150   4.960   3.339
 2908SOL     OW 8741   3.476   5.016   3.151
 2908SOL    HW1 8742   3.536   5.019   3.231
 2908SOL    HW2 8743   3.401   5.080   3.164
 2909SOL     OW 8744   2.901   4.822   2.558
 2909SOL    HW1 8745   2.831   4.775   2.612
 2909SOL    HW2 8746   2.960   4.754   2.515
 2910SOL     OW 8747   2.876   3.960   2.833
 2910SOL    HW1 8748   2.868   3.924   2.740
 2910SOL    HW2 8749   2.874   3.884   2.898
 2911SOL     OW 8750   3.571   4.109   3.243
 2911SOL    HW1 8751   3.644   4.178   3.247
 2911SOL    HW2 8752   3.599   4.034   3.184
 2912SOL     OW 8753   1.967   4.737   3.588
 2912SOL    HW1 8754   1.890   4.704   3.642
 2912SOL    HW2 8755   2.052   4.707   3.630
 2913SOL     OW 8756   2.534   3.927   3.351
 2913SOL    HW1 8757   2.624   3.911   3.311
 2913SOL    HW2 8758   2.542   3.932   3.450
 2914SOL     OW 8759   1.937   4.069   1.895
 2914SOL    HW1 8760   1.845   4.041   1.866
 2914SOL    HW2 8761   1.968   4.146   1.839
 2915SOL     OW 8762   3.302   4.580   3.260
 2915SOL    HW1 8763   3.245   4.632   3.197
 2915SOL    HW2 8764   3.398   4.592   3.236
 2916SOL     OW 8765   1.934   3.890   2.180
 2916SOL    HW1 8766   1.917   3.973   2.126
 2916SOL    HW2 8767   2.024   3.853   2.158
 2917SOL     OW 8768   2.475   4.566   3.293
 2917SOL    HW1 8769   2.531   4.647   3.276
 2917SOL    HW2 8770   2.534   4.486   3.296
 2918SOL     OW 8771   2.578   4.289   3.570
 2918SOL    HW1 8772   2.597   4.354   3.644
 2918SOL    HW2 8773   2.638   4.209   3.579
 2919SOL     OW 8774   3.312   4.944   3.495
 2919SOL    HW1 8775   3.303   4.934   3.594
 2919SOL    HW2 8776   3.408   4.937   3.469
 2920SOL     OW 8777   3.536   4.607   3.116
 2920SOL    HW1 8778   3.509   4.518   3.079
 2920SOL    HW2 8779   3.537   4.675   3.043
 2921SOL     OW 8780   3.087   4.049   2.311
 2921SOL    HW1 8781   3.152   3.975   2.300
 2921SOL    HW2 8782   3.107   4.099   2.395
 2922SOL     OW 8783   2.456   4.469   2.514
 2922SOL    HW1 8784   2.506   4.554   2.495
 2922SOL    HW2 8785   2.368   4.471   2.466
 2923SOL     OW 8786   3.639   4.066   3.504
 2923SOL    HW1 8787   3.622   4.097   3.410
 2923SOL    HW2 8788   3.555   4.029   3.542
 2924SOL     OW 8789   3.592   4.658   3.379
 2924SOL    HW1 8790   3.630   4.749   3.394
 2924SOL    HW2 8791   3.584   4.641   3.280
 2925SOL     OW 8792   2.721   4.680   2.723
 2925SOL    HW1 8793   2.775   4.611   2.771
 2925SOL    HW2 8794   2.689   4.749   2.789
 2926SOL     OW 8795   2.945   4.708   1.949
 2926SOL    HW1 8796   2.922   4.761   1.867
 2926SOL    HW2 8797   3.026   4.652   1.930
 2927SOL     OW 8798   1.941   4.964   2.515
 2927SOL    HW1 8799   1.940   4.917   2.603
 2927SOL    HW2 8800   2.023   4.936   2.464
 2928SOL     OW 8801   3.686   3.916   3.089
 2928SOL    HW1 8802   3.682   3.826   3.133
 2928SOL    HW2 8803   3.689   3.905   2.990
 2929SOL     OW 8804   2.290   4.148   2.382
 2929SOL    HW1 8805   2.320   4.076   2.320
 2929SOL    HW2 8806   2.251   4.108   2.465
 2930SOL     OW 8807   2.179   4.271   3.142
 2930SOL    HW1 8808   2.217   4.212   3.214
 2930SOL    HW2 8809   2.219   4.245   3.054
 2931SOL     OW 8810   3.286   3.938   2.974
 2931SOL    HW1 8811   3.338   3.873   3.029
 2931SOL    HW2 8812   3.237   4.001   3.035
 2932SOL     OW 8813   2.863   3.758   3.016
 2932SOL    HW1 8814   2.800   3.686   2.985
 2932SOL    HW2 8815   2.956   3.722   3.016
 2933SOL     OW 8816   2.632   5.054   2.163
 2933SOL    HW1 8817   2.586   4.967   2.180
 2933SOL    HW2 8818   2.723   5.051   2.204
 2934SOL     OW 8819   3.214   3.776   2.030
 2934SOL    HW1 8820   3.249   3.735   1.946
 2934SOL    HW2 8821   3.124   3.738   2.050
 2935SOL     OW 8822   3.162   4.177   2.553
 2935SOL    HW1 8823   3.103   4.257   2.557
 2935SOL    HW2 8824   3.177   4.142   2.646
 2936SOL     OW 8825   3.455   3.945   2.744
 2936SOL    HW1 8826   3.371   3.944   2.798
 2936SOL    HW2 8827   3.457   4.028   2.688
 2937SOL     OW 8828   1.901   4.801   2.162
 2937SOL    HW1 8829   2.000   4.790   2.153
 2937SOL    HW2 8830   1.861   4.715   2.194
 2938SOL     OW 8831   2.092   4.352   3.837
 2938SOL    HW1 8832   1.999   4.350   3.874
 2938SOL    HW2 8833   2.093   4.313   3.745
 2939SOL     OW 8834   2.087   3.999   4.720
 2939SOL    HW1 8835   2.122   3.982   4.812
 2939SOL    HW2 8836   1.999   3.954   4.708
 2940SOL     OW 8837   1.881   4.092   4.371
 2940SOL    HW1 8838   1.799   4.135   4.410
 2940SOL    HW2 8839   1.853   4.019   4.308
 2941SOL     OW 8840   2.997   4.427   4.441
 2941SOL    HW1 8841   3.054   4.505   4.416
 2941SOL    HW2 8842   2.937   4.453   4.517
 2942SOL     OW 8843   3.617   4.331   3.955
 2942SOL    HW1 8844   3.605   4.318   3.856
 2942SOL    HW2 8845   3.587   4.250   4.004
 2943SOL     OW 8846   2.630   4.868   4.747
 2943SOL    HW1 8847   2.552   4.885   4.807
 2943SOL    HW2 8848   2.664   4.955   4.711
 2944SOL     OW 8849   2.547   4.736   4.389
 2944SOL    HW1 8850   2.616   4.720   4.459
 2944SOL    HW2 8851   2.474   4.793   4.427
 2945SOL     OW 8852   3.465   4.171   4.461
 2945SOL    HW1 8853   3.391   4.217   4.411
 2945SOL    HW2 8854   3.516   4.239   4.514
 2946SOL     OW 8855   2.102   4.815   4.610
 2946SOL    HW1 8856   2.116   4.731   4.662
 2946SOL    HW2 8857   2.047   4.879   4.665
 2947SOL     OW 8858   2.468   4.688   3.847
 2947SOL    HW1 8859   2.475   4.772   3.793
 2947SOL    HW2 8860   2.514   4.701   3.935
 2948SOL     OW 8861   1.984   4.367   4.287
 2948SOL    HW1 8862   1.939   4.279   4.304
 2948SOL    HW2 8863   1.983   4.421   4.371
 2949SOL     OW 8864   3.551   4.646   4.336
 2949SOL    HW1 8865   3.646   4.617   4.344
 2949SOL    HW2 8866   3.543   4.711   4.261
 2950SOL     OW 8867   3.503   4.832   4.156
 2950SOL    HW1 8868   3.589   4.834   4.104
 2950SOL    HW2 8869   3.517   4.879   4.244
 2951SOL     OW 8870   2.671   3.728   4.226
 2951SOL    HW1 8871   2.711   3.819   4.217
 2951SOL    HW2 8872   2.571   3.736   4.232
 2952SOL     OW 8873   2.059   4.700   4.988
 2952SOL    HW1 8874   2.148   4.655   4.974
 2952SOL    HW2 8875   1.986   4.635   4.969
 2953SOL     OW 8876   3.387   4.723   3.914
 2953SOL    HW1 8877   3.324   4.647   3.927
 2953SOL    HW2 8878   3.435   4.741   4.000
 2954SOL     OW 8879   2.460   4.453   3.994
 2954SOL    HW1 8880   2.484   4.522   3.926
 2954SOL    HW2 8881   2.382   4.486   4.048
 2955SOL     OW 8882   3.143   4.069   4.668
 2955SOL    HW1 8883   3.057   4.019   4.655
 2955SOL    HW2 8884   3.205   4.015   4.724
 2956SOL     OW 8885   2.903   4.425   4.153
 2956SOL    HW1 8886   2.929   4.421   4.249
 2956SOL    HW2 8887   2.818   4.374   4.139
 2957SOL     OW 8888   1.938   4.535   4.513
 2957SOL    HW1 8889   2.037   4.523   4.522
 2957SOL    HW2 8890   1.914   4.630   4.534
 2958SOL     OW 8891   2.727   4.072   3.919
 2958SOL    HW1 8892   2.786   4.135   3.870
 2958SOL    HW2 8893   2.746   3.978   3.890
 2959SOL     OW 8894   3.224   4.868   4.269
 2959SOL    HW1 8895   3.307   4.839   4.221
 2959SOL    HW2 8896   3.175   4.935   4.213
 2960SOL     OW 8897   2.412   3.920   4.609
 2960SOL    HW1 8898   2.407   3.915   4.709
 2960SOL    HW2 8899   2.414   4.016   4.580
 2961SOL     OW 8900   3.657   4.790   4.597
 2961SOL    HW1 8901   3.595   4.775   4.521
 2961SOL    HW2 8902   3.605   4.801   4.682
 2962SOL     OW 8903   2.183   4.667   3.966
 2962SOL    HW1 8904   2.265   4.706   3.924
 2962SOL    HW2 8905   2.156   4.585   3.917
 2963SOL     OW 8906   3.320   4.459   4.452
 2963SOL    HW1 8907   3.315   4.394   4.527
 2963SOL    HW2 8908   3.400   4.518   4.465
 2964SOL     OW 8909   3.262   3.831   4.150
 2964SOL    HW1 8910   3.238   3.794   4.060
 2964SOL    HW2 8911   3.361   3.847   4.154
 2965SOL     OW 8912   2.244   4.424   4.204
 2965SOL    HW1 8913   2.289   4.334   4.201
 2965SOL    HW2 8914   2.150   4.413   4.237
 2966SOL     OW 8915   2.476   3.846   3.841
 2966SOL    HW1 8916   2.574   3.824   3.848
 2966SOL    HW2 8917   2.445   3.829   3.748
 2967SOL     OW 8918   2.784   4.227   4.623
 2967SOL    HW1 8919   2.759   4.218   4.527
 2967SOL    HW2 8920   2.832   4.145   4.654
 2968SOL     OW 8921   2.401   3.788   4.236
 2968SOL    HW1 8922   2.320   3.789   4.294
 2968SOL    HW2 8923   2.404   3.871   4.181
 2969SOL     OW 8924   2.159   3.759   3.895
 2969SOL    HW1 8925   2.208   3.843   3.874
 2969SOL    HW2 8926   2.221   3.694   3.940
 2970SOL     OW 8927   2.797   3.960   4.204
 2970SOL    HW1 8928   2.749   4.001   4.126
 2970SOL    HW2 8929   2.896   3.958   4.185
 2971SOL     OW 8930   2.321   4.876   4.465
 2971SOL    HW1 8931   2.250   4.849   4.530
 2971SOL    HW2 8932   2.295   4.848   4.372
 2972SOL     OW 8933   2.894   4.273   3.740
 2972SOL    HW1 8934   2.853   4.355   3.701
 2972SOL    HW2 8935   2.958   4.299   3.813
 2973SOL     OW 8936   2.728   4.178   4.366
 2973SOL    HW1 8937   2.696   4.250   4.304
 2973SOL    HW2 8938   2.752   4.097   4.313
 2974SOL     OW 8939   2.879   3.763   4.477
 2974SOL    HW1 8940   2.807   3.768   4.408
 2974SOL    HW2 8941   2.855   3.694   4.546
 2975SOL     OW 8942   3.291   4.897   4.591
 2975SOL    HW1 8943   3.236   4.813   4.584
 2975SOL    HW2 8944   3.317   4.926   4.499
 2976SOL     OW 8945   3.328   4.314   4.716
 2976SOL    HW1 8946   3.298   4.219   4.723
 2976SOL    HW2 8947   3.401   4.330   4.782
 2977SOL     OW 8948   3.719   4.557   4.101
 2977SOL    HW1 8949   3.761   4.493   4.165
 2977SOL    HW2 8950   3.681   4.506   4.023
 2978SOL     OW 8951   3.252   4.299   3.802
 2978SOL    HW1 8952   3.198   4.278   3.883
 2978SOL    HW2 8953   3.343   4.258   3.811
 2979SOL     OW 8954   2.389   3.980   4.052
 2979SOL    HW1 8955   2.416   3.921   3.977
 2979SOL    HW2 8956   2.389   4.075   4.021
 2980SOL     OW 8957   3.500   4.823   4.803
 2980SOL    HW1 8958   3.505   4.904   4.862
 2980SOL    HW2 8959   3.414   4.825   4.752
 2981SOL     OW 8960   2.567   4.774   4.092
 2981SOL    HW1 8961   2.553   4.781   4.191
 2981SOL    HW2 8962   2.651   4.723   4.074
 2982SOL     OW 8963   2.272   4.537   4.975
 2982SOL    HW1 8964   2.358   4.549   5.025
 2982SOL    HW2 8965   2.230   4.450   5.002
 2983SOL     OW 8966   2.229   4.824   4.225
 2983SOL    HW1 8967   2.222   4.907   4.169
 2983SOL    HW2 8968   2.233   4.744   4.165
 2984SOL     OW 8969   2.428   4.261   4.589
 2984SOL    HW1 8970   2.440   4.327   4.515
 2984SOL    HW2 8971   2.474   4.295   4.672
 2985SOL     OW 8972   3.444   4.363   4.196
 2985SOL    HW1 8973   3.413   4.424   4.269
 2985SOL    HW2 8974   3.494   4.415   4.127
 2986SOL     OW 8975   2.435   4.594   4.753
 2986SOL    HW1 8976   2.479   4.683   4.744
 2986SOL    HW2 8977   2.372   4.594   4.830
 2987SOL     OW 8978   3.222   4.586   4.769
 2987SOL    HW1 8979   3.147   4.586   4.703
 2987SOL    HW2 8980   3.259   4.494   4.778
 2988SOL     OW 8981   3.071   4.249   3.999
 2988SOL    HW1 8982   3.084   4.165   4.053
 2988SOL    HW2 8983   3.042   4.323   4.059
 2989SOL     OW 8984   2.169   3.937   4.955
 2989SOL    HW1 8985   2.146   3.974   5.045
 2989SOL    HW2 8986   2.139   3.842   4.949
 2990SOL     OW 8987   2.594   4.358   4.788
 2990SOL    HW1 8988   2.653   4.332   4.712
 2990SOL    HW2 8989   2.566   4.454   4.777
 2991SOL     OW 8990   2.169   3.787   4.342
 2991SOL    HW1 8991   2.158   3.881   4.375
 2991SOL    HW2 8992   2.164   3.724   4.419
 2992SOL     OW 8993   3.484   4.091   4.098
 2992SOL    HW1 8994   3.486   4.015   4.162
 2992SOL    HW2 8995   3.436   4.168   4.138
 2993SOL     OW 8996   2.885   4.490   4.690
 2993SOL    HW1 8997   2.900   4.511   4.786
 2993SOL    HW2 8998   2.855   4.395   4.681
 2994SOL     OW 8999   3.402   3.998   3.849
 2994SOL    HW1 9000   3.341   3.923   3.872
 2994SOL    HW2 9001   3.424   4.050   3.932
 2995SOL     OW 9002   3.165   4.562   3.766
 2995SOL    HW1 9003   3.199   4.469   3.781
 2995SOL    HW2 9004   3.183   4.589   3.671
 2996SOL     OW 9005   2.181   4.534   4.673
 2996SOL    HW1 9006   2.274   4.570   4.678
 2996SOL    HW2 9007   2.175   4.449   4.725
 2997SOL     OW 9008   2.201   4.233   4.730
 2997SOL    HW1 9009   2.149   4.150   4.713
 2997SOL    HW2 9010   2.278   4.238   4.666
 2998SOL     OW 9011   3.022   3.931   5.201
 2998SOL    HW1 9012   3.022   3.995   5.278
 2998SOL    HW2 9013   3.050   3.979   5.118
 2999SOL     OW 9014   1.870   5.050   3.924
 2999SOL    HW1 9015   1.777   5.071   3.893
 2999SOL    HW2 9016   1.880   4.951   3.937
 3000SOL     OW 9017   2.864   4.520   4.962
 3000SOL    HW1 9018   2.905   4.488   5.048
 3000SOL    HW2 9019   2.768   4.493   4.959
 3001SOL     OW 9020   1.902   4.268   4.838
 3001SOL    HW1 9021   1.987   4.235   4.797
 3001SOL    HW2 9022   1.915   4.283   4.936
 3002SOL     OW 9023   2.677   4.296   4.049
 3002SOL    HW1 9024   2.684   4.207   4.003
 3002SOL    HW2 9025   2.583   4.330   4.041
 3003SOL     OW 9026   3.519   4.328   4.930
 3003SOL    HW1 9027   3.481   4.259   4.992
 3003SOL    HW2 9028   3.601   4.292   4.886
 3004SOL     OW 9029   2.533   4.188   4.993
 3004SOL    HW1 9030   2.499   4.099   4.963
 3004SOL    HW2 9031   2.559   4.242   4.913
 3005SOL     OW 9032   2.335   4.224   3.915
 3005SOL    HW1 9033   2.396   4.304   3.919
 3005SOL    HW2 9034   2.240   4.255   3.922
 3006SOL     OW 9035   2.021   4.861   5.190
 3006SOL    HW1 9036   2.043   4.800   5.266
 3006SOL    HW2 9037   2.031   4.812   5.104
 3007SOL     OW 9038   3.209   4.783   4.958
 3007SOL    HW1 9039   3.233   4.720   4.884
 3007SOL    HW2 9040   3.119   4.823   4.940
 3008SOL     OW 9041   3.164   4.579   4.033
 3008SOL    HW1 9042   3.078   4.548   4.075
 3008SOL    HW2 9043   3.160   4.565   3.934
 3009SOL     OW 9044   1.945   4.982   4.746
 3009SOL    HW1 9045   1.940   4.981   4.846
 3009SOL    HW2 9046   1.862   4.941   4.708
 3010SOL     OW 9047   3.588   3.859   4.247
 3010SOL    HW1 9048   3.661   3.842   4.180
 3010SOL    HW2 9049   3.557   3.772   4.285
 3011SOL     OW 9050   3.142   4.651   4.396
 3011SOL    HW1 9051   3.202   4.570   4.398
 3011SOL    HW2 9052   3.182   4.720   4.336
 3012SOL     OW 9053   3.703   3.899   4.687
 3012SOL    HW1 9054   3.742   3.814   4.651
 3012SOL    HW2 9055   3.605   3.901   4.668
 3013SOL     OW 9056   2.125   4.050   4.444
 3013SOL    HW1 9057   2.046   4.101   4.410
 3013SOL    HW2 9058   2.116   4.035   4.542
 3014SOL     OW 9059   2.684   4.726   5.096
 3014SOL    HW1 9060   2.724   4.725   5.004
 3014SOL    HW2 9061   2.694   4.818   5.136
 3015SOL     OW 9062   2.778   4.634   4.015
 3015SOL    HW1 9063   2.841   4.672   3.947
 3015SOL    HW2 9064   2.818   4.551   4.054
 3016SOL     OW 9065   3.476   5.016   5.013
 3016SOL    HW1 9066   3.536   5.019   5.093
 3016SOL    HW2 9067   3.401   5.080   5.026
 3017SOL     OW 9068   2.901   4.822   4.420
 3017SOL    HW1 9069   2.831   4.775   4.474
 3017SOL    HW2 9070   2.960   4.754   4.377
 3018SOL     OW 9071   2.876   3.960   4.695
 3018SOL    HW1 9072   2.868   3.924   4.602
 3018SOL    HW2 9073   2.874   3.884   4.760
 3019SOL     OW 9074   3.571   4.109   5.105
 3019SOL    HW1 9075   3.644   4.178   5.109
 3019SOL    HW2 9076   3.599   4.034   5.046
 3020SOL     OW 9077   1.937   4.069   3.757
 3020SOL    HW1 9078   1.845   4.041   3.728
 3020SOL    HW2 9079   1.968   4.146   3.701
 3021SOL     OW 9080   1.934   3.890   4.042
 3021SOL    HW1 9081   1.917   3.973   3.988
 3021SOL    HW2 9082   2.024   3.853   4.020
 3022SOL     OW 9083   3.536   4.607   4.978
 3022SOL    HW1 9084   3.509   4.518   4.941
 3022SOL    HW2 9085   3.537   4.675   4.905
 3023SOL     OW 9086   3.087   4.049   4.173
 3023SOL    HW1 9087   3.152   3.975   4.162
 3023SOL    HW2 9088   3.107   4.099   4.257
 3024SOL     OW 9089   2.456   4.469   4.376
 3024SOL    HW1 9090   2.506   4.554   4.357
 3024SOL    HW2 9091   2.368   4.471   4.328
 3025SOL     OW 9092   3.592   4.658   5.241
 3025SOL    HW1 9093   3.630   4.749   5.256
 3025SOL    HW2 9094   3.584   4.641   5.142
 3026SOL     OW 9095   2.721   4.680   4.585
 3026SOL    HW1 9096   2.775   4.611   4.633
 3026SOL    HW2 9097   2.689   4.749   4.651
 3027SOL     OW 9098   2.945   4.708   3.811
 3027SOL    HW1 9099   2.922   4.761   3.729
 3027SOL    HW2 9100   3.026   4.652   3.792
 3028SOL     OW 9101   1.941   4.964   4.377
 3028SOL    HW1 9102   1.940   4.917   4.465
 3028SOL    HW2 9103   2.023   4.936   4.326
 3029SOL     OW 9104   3.686   3.916   4.951
 3029SOL    HW1 9105   3.682   3.826   4.995
 3029SOL    HW2 9106   3.689   3.905   4.852
 3030SOL     OW 9107   2.290   4.148   4.244
 3030SOL    HW1 9108   2.320   4.076   4.182
 3030SOL    HW2 9109   2.251   4.108   4.327
 3031SOL     OW 9110   3.286   3.938   4.836
 3031SOL    HW1 9111   3.338   3.873   4.891
 3031SOL    HW2 9112   3.237   4.001   4.897
 3032SOL     OW 9113   2.863   3.758   4.878
 3032SOL    HW1 9114   2.800   3.686   4.847
 3032SOL    HW2 9115   2.956   3.722   4.878
 3033SOL     OW 9116   2.632   5.054   4.025
 3033SOL    HW1 9117   2.586   4.967   4.042
 3033SOL    HW2 9118   2.723   5.051   4.066
 3034SOL     OW 9119   3.214   3.776   3.892
 3034SOL    HW1 9120   3.249   3.735   3.808
 3034SOL    HW2 9121   3.124   3.738   3.912
 3035SOL     OW 9122   3.162   4.177   4.415
 3035SOL    HW1 9123   3.103   4.257   4.419
 3035SOL    HW2 9124   3.177   4.142   4.508
 3036SOL     OW 9125   3.455   3.945   4.606
 3036SOL    HW1 9126   3.371   3.944   4.660
 3036SOL    HW2 9127   3.457   4.028   4.550
 3037SOL     OW 9128   1.901   4.801   4.024
 3037SOL    HW1 9129   2.000   4.790   4.015
 3037SOL    HW2 9130   1.861   4.715   4.056
 3038SOL     OW 9131   3.954   0.628   0.113
 3038SOL    HW1 9132   3.861   0.626   0.150
 3038SOL    HW2 9133   3.955   0.589   0.021
 3039SOL     OW 9134   3.949   0.275   0.996
 3039SOL    HW1 9135   3.984   0.258   1.088
 3039SOL    HW2 9136   3.861   0.230   0.984
 3040SOL     OW 9137   3.743   0.368   0.647
 3040SOL    HW1 9138   3.661   0.411   0.686
 3040SOL    HW2 9139   3.715   0.295   0.584
 3041SOL     OW 9140   4.293   1.275   1.165
 3041SOL    HW1 9141   4.200   1.268   1.128
 3041SOL    HW2 9142   4.304   1.364   1.209
 3042SOL     OW 9143   4.859   0.703   0.717
 3042SOL    HW1 9144   4.916   0.781   0.692
 3042SOL    HW2 9145   4.799   0.729   0.793
 3043SOL     OW 9146   4.492   1.144   1.023
 3043SOL    HW1 9147   4.414   1.161   1.083
 3043SOL    HW2 9148   4.526   1.231   0.987
 3044SOL     OW 9149   4.574   0.798   1.823
 3044SOL    HW1 9150   4.570   0.874   1.888
 3044SOL    HW2 9151   4.596   0.834   1.732
 3045SOL     OW 9152   4.409   1.012   0.665
 3045SOL    HW1 9153   4.478   0.996   0.735
 3045SOL    HW2 9154   4.336   1.069   0.703
 3046SOL     OW 9155   4.410   1.161   1.803
 3046SOL    HW1 9156   4.470   1.240   1.817
 3046SOL    HW2 9157   4.324   1.192   1.762
 3047SOL     OW 9158   4.059   1.435   1.061
 3047SOL    HW1 9159   3.981   1.404   1.008
 3047SOL    HW2 9160   4.117   1.493   1.004
 3048SOL     OW 9161   4.162   0.392   1.499
 3048SOL    HW1 9162   4.244   0.336   1.508
 3048SOL    HW2 9163   4.081   0.334   1.503
 3049SOL     OW 9164   3.955   1.713   0.483
 3049SOL    HW1 9165   3.989   1.790   0.537
 3049SOL    HW2 9166   3.999   1.713   0.393
 3050SOL     OW 9167   4.851   1.341   1.690
 3050SOL    HW1 9168   4.898   1.341   1.778
 3050SOL    HW2 9169   4.803   1.254   1.679
 3051SOL     OW 9170   3.954   1.434   0.538
 3051SOL    HW1 9171   3.928   1.530   0.538
 3051SOL    HW2 9172   3.883   1.380   0.583
 3052SOL     OW 9173   3.964   1.091   0.886
 3052SOL    HW1 9174   3.978   1.007   0.938
 3052SOL    HW2 9175   3.909   1.155   0.941
 3053SOL     OW 9176   4.344   1.786   1.439
 3053SOL    HW1 9177   4.252   1.769   1.474
 3053SOL    HW2 9178   4.372   1.878   1.465
 3054SOL     OW 9179   4.330   0.964   0.123
 3054SOL    HW1 9180   4.337   1.048   0.069
 3054SOL    HW2 9181   4.376   0.977   0.211
 3055SOL     OW 9182   3.846   0.643   0.563
 3055SOL    HW1 9183   3.801   0.555   0.580
 3055SOL    HW2 9184   3.845   0.697   0.647
 3056SOL     OW 9185   3.751   1.596   0.117
 3056SOL    HW1 9186   3.732   1.500   0.138
 3056SOL    HW2 9187   3.718   1.654   0.192
 3057SOL     OW 9188   3.837   0.737   1.597
 3057SOL    HW1 9189   3.925   0.724   1.642
 3057SOL    HW2 9190   3.824   0.834   1.575
 3058SOL     OW 9191   4.337   1.365   0.726
 3058SOL    HW1 9192   4.288   1.278   0.735
 3058SOL    HW2 9193   4.314   1.408   0.639
 3059SOL     OW 9194   4.533   0.004   0.502
 3059SOL    HW1 9195   4.573   0.095   0.493
 3059SOL    HW2 9196   4.433   0.012   0.508
 3060SOL     OW 9197   3.921   0.976   1.264
 3060SOL    HW1 9198   4.010   0.931   1.250
 3060SOL    HW2 9199   3.848   0.911   1.245
 3061SOL     OW 9200   4.041   0.251   1.801
 3061SOL    HW1 9201   4.112   0.322   1.807
 3061SOL    HW2 9202   3.953   0.290   1.829
 3062SOL     OW 9203   4.322   0.729   0.270
 3062SOL    HW1 9204   4.346   0.798   0.202
 3062SOL    HW2 9205   4.244   0.762   0.324
 3063SOL     OW 9206   4.531   0.605   1.465
 3063SOL    HW1 9207   4.484   0.602   1.554
 3063SOL    HW2 9208   4.480   0.550   1.399
 3064SOL     OW 9209   4.697   0.890   1.572
 3064SOL    HW1 9210   4.743   0.806   1.543
 3064SOL    HW2 9211   4.641   0.924   1.497
 3065SOL     OW 9212   4.715   0.410   1.242
 3065SOL    HW1 9213   4.638   0.444   1.296
 3065SOL    HW2 9214   4.681   0.359   1.163
 3066SOL     OW 9215   4.765   0.701   0.429
 3066SOL    HW1 9216   4.791   0.697   0.525
 3066SOL    HW2 9217   4.680   0.650   0.415
 3067SOL     OW 9218   3.800   0.811   0.789
 3067SOL    HW1 9219   3.899   0.799   0.798
 3067SOL    HW2 9220   3.776   0.906   0.810
 3068SOL     OW 9221   3.854   1.821   1.571
 3068SOL    HW1 9222   3.844   1.806   1.670
 3068SOL    HW2 9223   3.768   1.857   1.535
 3069SOL     OW 9224   4.589   0.348   0.195
 3069SOL    HW1 9225   4.648   0.411   0.146
 3069SOL    HW2 9226   4.608   0.254   0.166
 3070SOL     OW 9227   4.274   0.196   0.885
 3070SOL    HW1 9228   4.269   0.191   0.985
 3070SOL    HW2 9229   4.276   0.292   0.856
 3071SOL     OW 9230   4.732   1.456   0.477
 3071SOL    HW1 9231   4.686   1.528   0.425
 3071SOL    HW2 9232   4.728   1.476   0.575
 3072SOL     OW 9233   4.075   1.801   0.853
 3072SOL    HW1 9234   4.125   1.715   0.859
 3072SOL    HW2 9235   4.140   1.878   0.850
 3073SOL     OW 9236   4.951   1.550   1.506
 3073SOL    HW1 9237   4.957   1.473   1.570
 3073SOL    HW2 9238   4.899   1.524   1.426
 3074SOL     OW 9239   4.045   0.943   0.242
 3074SOL    HW1 9240   4.127   0.982   0.200
 3074SOL    HW2 9241   4.018   0.861   0.193
 3075SOL     OW 9242   4.185   1.266   1.727
 3075SOL    HW1 9243   4.135   1.267   1.641
 3075SOL    HW2 9244   4.122   1.248   1.803
 3076SOL     OW 9245   4.835   1.776   0.237
 3076SOL    HW1 9246   4.775   1.714   0.287
 3076SOL    HW2 9247   4.866   1.732   0.152
 3077SOL     OW 9248   3.926   0.285   1.498
 3077SOL    HW1 9249   3.846   0.345   1.485
 3077SOL    HW2 9250   3.916   0.236   1.584
 3078SOL     OW 9251   4.188   1.743   0.323
 3078SOL    HW1 9252   4.221   1.782   0.409
 3078SOL    HW2 9253   4.264   1.736   0.258
 3079SOL     OW 9254   3.973   1.785   1.241
 3079SOL    HW1 9255   4.030   1.720   1.291
 3079SOL    HW2 9256   3.957   1.752   1.148
 3080SOL     OW 9257   4.664   1.698   0.904
 3080SOL    HW1 9258   4.744   1.641   0.925
 3080SOL    HW2 9259   4.615   1.658   0.827
 3081SOL     OW 9260   4.106   0.700   0.480
 3081SOL    HW1 9261   4.151   0.610   0.477
 3081SOL    HW2 9262   4.012   0.689   0.513
 3082SOL     OW 9263   4.338   0.122   0.117
 3082SOL    HW1 9264   4.436   0.100   0.124
 3082SOL    HW2 9265   4.307   0.105   0.024
 3083SOL     OW 9266   4.505   0.264   1.749
 3083SOL    HW1 9267   4.572   0.203   1.792
 3083SOL    HW2 9268   4.432   0.283   1.814
 3084SOL     OW 9269   4.612   1.514   1.195
 3084SOL    HW1 9270   4.589   1.489   1.101
 3084SOL    HW2 9271   4.673   1.445   1.234
 3085SOL     OW 9272   4.527   1.402   0.924
 3085SOL    HW1 9273   4.617   1.416   0.882
 3085SOL    HW2 9274   4.456   1.404   0.853
 3086SOL     OW 9275   4.646   0.503   0.899
 3086SOL    HW1 9276   4.621   0.494   0.803
 3086SOL    HW2 9277   4.694   0.421   0.930
 3087SOL     OW 9278   4.263   0.064   0.512
 3087SOL    HW1 9279   4.182   0.065   0.570
 3087SOL    HW2 9280   4.266   0.147   0.457
 3088SOL     OW 9281   4.021   0.035   0.171
 3088SOL    HW1 9282   4.070   0.119   0.150
 3088SOL    HW2 9283   4.083  -0.030   0.216
 3089SOL     OW 9284   4.659   0.236   0.480
 3089SOL    HW1 9285   4.611   0.277   0.402
 3089SOL    HW2 9286   4.758   0.234   0.461
 3090SOL     OW 9287   4.800   0.683   1.464
 3090SOL    HW1 9288   4.720   0.622   1.467
 3090SOL    HW2 9289   4.881   0.630   1.440
 3091SOL     OW 9290   4.951   1.570   0.793
 3091SOL    HW1 9291   4.972   1.644   0.728
 3091SOL    HW2 9292   5.019   1.570   0.866
 3092SOL     OW 9293   4.183   1.152   0.741
 3092SOL    HW1 9294   4.112   1.125   0.806
 3092SOL    HW2 9295   4.157   1.124   0.648
 3093SOL     OW 9296   4.995   1.797   0.591
 3093SOL    HW1 9297   5.039   1.861   0.527
 3093SOL    HW2 9298   4.945   1.849   0.661
 3094SOL     OW 9299   4.756   0.549   0.016
 3094SOL    HW1 9300   4.715   0.631  -0.023
 3094SOL    HW2 9301   4.820   0.575   0.089
 3095SOL     OW 9302   3.802   0.556   1.386
 3095SOL    HW1 9303   3.894   0.555   1.345
 3095SOL    HW2 9304   3.796   0.630   1.453
 3096SOL     OW 9305   4.285   0.222   1.147
 3096SOL    HW1 9306   4.323   0.138   1.184
 3096SOL    HW2 9307   4.197   0.241   1.191
 3097SOL     OW 9308   4.590   0.454   0.642
 3097SOL    HW1 9309   4.558   0.526   0.580
 3097SOL    HW2 9310   4.614   0.373   0.589
 3098SOL     OW 9311   4.741   0.039   0.753
 3098SOL    HW1 9312   4.669   0.044   0.684
 3098SOL    HW2 9313   4.717  -0.030   0.822
 3099SOL     OW 9314   4.212   1.385   0.174
 3099SOL    HW1 9315   4.125   1.370   0.221
 3099SOL    HW2 9316   4.195   1.411   0.079
 3100SOL     OW 9317   4.251   0.256   0.328
 3100SOL    HW1 9318   4.278   0.197   0.253
 3100SOL    HW2 9319   4.251   0.351   0.297
 3101SOL     OW 9320   4.788   1.347   1.340
 3101SOL    HW1 9321   4.708   1.324   1.395
 3101SOL    HW2 9322   4.871   1.321   1.389
 3102SOL     OW 9323   4.835   1.195   1.100
 3102SOL    HW1 9324   4.795   1.239   1.181
 3102SOL    HW2 9325   4.794   1.232   1.017
 3103SOL     OW 9326   4.639   0.089   1.402
 3103SOL    HW1 9327   4.664   0.069   1.307
 3103SOL    HW2 9328   4.711   0.145   1.444
 3104SOL     OW 9329   4.704   1.116   1.719
 3104SOL    HW1 9330   4.605   1.122   1.729
 3104SOL    HW2 9331   4.727   1.036   1.663
 3105SOL     OW 9332   4.429   1.050   0.368
 3105SOL    HW1 9333   4.415   1.057   0.467
 3105SOL    HW2 9334   4.513   0.999   0.350
 3106SOL     OW 9335   4.134   0.813   1.251
 3106SOL    HW1 9336   4.220   0.825   1.301
 3106SOL    HW2 9337   4.092   0.726   1.278
 3107SOL     OW 9338   3.788   1.564   1.331
 3107SOL    HW1 9339   3.742   1.646   1.297
 3107SOL    HW2 9340   3.886   1.583   1.340
 3108SOL     OW 9341   4.091   1.100   0.501
 3108SOL    HW1 9342   4.084   1.183   0.445
 3108SOL    HW2 9343   4.095   1.020   0.441
 3109SOL     OW 9344   4.290   0.537   0.865
 3109SOL    HW1 9345   4.302   0.603   0.791
 3109SOL    HW2 9346   4.336   0.571   0.948
 3110SOL     OW 9347   4.976   1.348   0.388
 3110SOL    HW1 9348   5.026   1.425   0.428
 3110SOL    HW2 9349   4.881   1.350   0.420
 3111SOL     OW 9350   4.078   1.510   1.329
 3111SOL    HW1 9351   4.057   1.466   1.242
 3111SOL    HW2 9352   4.175   1.536   1.332
 3112SOL     OW 9353   4.126   0.751   1.598
 3112SOL    HW1 9354   4.194   0.806   1.551
 3112SOL    HW2 9355   4.166   0.663   1.625
 3113SOL     OW 9356   4.737   0.105   1.770
 3113SOL    HW1 9357   4.743   0.190   1.718
 3113SOL    HW2 9358   4.769   0.029   1.713
 3114SOL     OW 9359   4.228   0.050   1.740
 3114SOL    HW1 9360   4.186  -0.007   1.670
 3114SOL    HW2 9361   4.162   0.119   1.772
 3115SOL     OW 9362   4.297   0.870   1.029
 3115SOL    HW1 9363   4.341   0.959   1.020
 3115SOL    HW2 9364   4.234   0.870   1.106
 3116SOL     OW 9365   5.084   0.862   1.045
 3116SOL    HW1 9366   5.009   0.862   0.979
 3116SOL    HW2 9367   5.121   0.770   1.054
 3117SOL     OW 9368   4.933   0.525   0.275
 3117SOL    HW1 9369   4.946   0.441   0.329
 3117SOL    HW2 9370   4.904   0.599   0.335
 3118SOL     OW 9371   4.031   0.213   1.231
 3118SOL    HW1 9372   4.008   0.250   1.321
 3118SOL    HW2 9373   4.001   0.118   1.225
 3119SOL     OW 9374   3.761   1.310   1.282
 3119SOL    HW1 9375   3.814   1.261   1.350
 3119SOL    HW2 9376   3.783   1.408   1.287
 3120SOL     OW 9377   4.456   0.634   1.064
 3120SOL    HW1 9378   4.515   0.608   0.988
 3120SOL    HW2 9379   4.428   0.730   1.053
 3121SOL     OW 9380   4.031   0.063   0.618
 3121SOL    HW1 9381   4.020   0.157   0.651
 3121SOL    HW2 9382   4.026   0.000   0.695
 3122SOL     OW 9383   4.747   0.766   0.966
 3122SOL    HW1 9384   4.762   0.787   1.062
 3122SOL    HW2 9385   4.717   0.671   0.957
 3123SOL     OW 9386   4.704   1.573   1.700
 3123SOL    HW1 9387   4.684   1.617   1.612
 3123SOL    HW2 9388   4.743   1.482   1.684
 3124SOL     OW 9389   4.074   0.898   1.804
 3124SOL    HW1 9390   4.150   0.942   1.852
 3124SOL    HW2 9391   4.109   0.851   1.722
 3125SOL     OW 9392   4.792   1.333   0.849
 3125SOL    HW1 9393   4.799   1.249   0.794
 3125SOL    HW2 9394   4.854   1.402   0.813
 3126SOL     OW 9395   4.043   0.810   0.949
 3126SOL    HW1 9396   4.136   0.846   0.954
 3126SOL    HW2 9397   4.037   0.725   1.001
 3127SOL     OW 9398   4.063   0.509   1.006
 3127SOL    HW1 9399   4.011   0.426   0.989
 3127SOL    HW2 9400   4.140   0.514   0.942
 3128SOL     OW 9401   4.862   0.380   1.678
 3128SOL    HW1 9402   4.817   0.443   1.742
 3128SOL    HW2 9403   4.955   0.411   1.661
 3129SOL     OW 9404   4.884   0.207   1.477
 3129SOL    HW1 9405   4.884   0.271   1.554
 3129SOL    HW2 9406   4.912   0.255   1.394
 3130SOL     OW 9407   3.732   1.326   0.200
 3130SOL    HW1 9408   3.639   1.347   0.169
 3130SOL    HW2 9409   3.742   1.227   0.213
 3131SOL     OW 9410   3.812   1.801   0.927
 3131SOL    HW1 9411   3.770   1.715   0.900
 3131SOL    HW2 9412   3.906   1.804   0.893
 3132SOL     OW 9413   4.228   1.568   0.910
 3132SOL    HW1 9414   4.294   1.642   0.919
 3132SOL    HW2 9415   4.272   1.489   0.868
 3133SOL     OW 9416   4.726   0.796   1.238
 3133SOL    HW1 9417   4.767   0.764   1.324
 3133SOL    HW2 9418   4.630   0.769   1.235
 3134SOL     OW 9419   3.764   0.544   1.114
 3134SOL    HW1 9420   3.849   0.511   1.073
 3134SOL    HW2 9421   3.777   0.559   1.212
 3135SOL     OW 9422   3.913   0.520   1.722
 3135SOL    HW1 9423   3.972   0.480   1.652
 3135SOL    HW2 9424   3.855   0.591   1.681
 3136SOL     OW 9425   4.539   0.572   0.325
 3136SOL    HW1 9426   4.546   0.483   0.279
 3136SOL    HW2 9427   4.445   0.606   0.317
 3137SOL     OW 9428   3.976   1.564   1.744
 3137SOL    HW1 9429   3.946   1.621   1.820
 3137SOL    HW2 9430   3.969   1.467   1.770
 3138SOL     OW 9431   4.395   0.464   1.269
 3138SOL    HW1 9432   4.361   0.375   1.239
 3138SOL    HW2 9433   4.421   0.518   1.189
 3139SOL     OW 9434   4.654   1.678   1.465
 3139SOL    HW1 9435   4.630   1.660   1.370
 3139SOL    HW2 9436   4.684   1.772   1.475
 3140SOL     OW 9437   4.197   0.500   0.191
 3140SOL    HW1 9438   4.258   0.580   0.195
 3140SOL    HW2 9439   4.102   0.531   0.198
 3141SOL     OW 9440   3.883   1.137   1.466
 3141SOL    HW1 9441   3.905   1.076   1.542
 3141SOL    HW2 9442   3.893   1.088   1.380
 3142SOL     OW 9443   4.976   1.731   1.128
 3142SOL    HW1 9444   5.060   1.736   1.074
 3142SOL    HW2 9445   4.953   1.635   1.146
 3143SOL     OW 9446   3.807   1.258   1.022
 3143SOL    HW1 9447   3.802   1.257   1.122
 3143SOL    HW2 9448   3.724   1.217   0.984
 3144SOL     OW 9449   4.412   1.662   1.716
 3144SOL    HW1 9450   4.356   1.743   1.725
 3144SOL    HW2 9451   4.464   1.666   1.630
 3145SOL     OW 9452   4.627   0.086   0.133
 3145SOL    HW1 9453   4.678   0.087   0.047
 3145SOL    HW2 9454   4.683   0.044   0.204
 3146SOL     OW 9455   3.854   1.794   1.851
 3146SOL    HW1 9456   3.813   1.720   1.904
 3146SOL    HW2 9457   3.918   1.845   1.909
 3147SOL     OW 9458   4.554   1.273   1.422
 3147SOL    HW1 9459   4.549   1.306   1.517
 3147SOL    HW2 9460   4.468   1.292   1.376
 3148SOL     OW 9461   4.396   1.616   0.154
 3148SOL    HW1 9462   4.405   1.626   0.055
 3148SOL    HW2 9463   4.356   1.527   0.175
 3149SOL     OW 9464   3.987   0.326   0.720
 3149SOL    HW1 9465   3.908   0.377   0.686
 3149SOL    HW2 9466   3.978   0.311   0.818
 3150SOL     OW 9467   4.546   1.002   1.372
 3150SOL    HW1 9468   4.586   1.001   1.280
 3150SOL    HW2 9469   4.556   1.094   1.412
 3151SOL     OW 9470   4.640   0.910   0.291
 3151SOL    HW1 9471   4.703   0.948   0.223
 3151SOL    HW2 9472   4.680   0.827   0.330
 3152SOL     OW 9473   4.096   1.288   1.490
 3152SOL    HW1 9474   4.083   1.381   1.456
 3152SOL    HW2 9475   4.012   1.236   1.477
 3153SOL     OW 9476   4.763   1.098   0.696
 3153SOL    HW1 9477   4.693   1.051   0.750
 3153SOL    HW2 9478   4.822   1.030   0.653
 3154SOL     OW 9479   4.738   0.236   0.971
 3154SOL    HW1 9480   4.730   0.200   0.878
 3154SOL    HW2 9481   4.736   0.160   1.036
 3155SOL     OW 9482   4.314   1.487   0.491
 3155SOL    HW1 9483   4.356   1.429   0.421
 3155SOL    HW2 9484   4.270   1.566   0.447
 3156SOL     OW 9485   3.979   1.348   0.290
 3156SOL    HW1 9486   3.883   1.349   0.263
 3156SOL    HW2 9487   3.991   1.401   0.374
 3157SOL     OW 9488   3.829   1.013   1.726
 3157SOL    HW1 9489   3.752   0.980   1.780
 3157SOL    HW2 9490   3.914   0.983   1.768
 3158SOL     OW 9491   4.396   0.203   1.489
 3158SOL    HW1 9492   4.486   0.187   1.449
 3158SOL    HW2 9493   4.404   0.208   1.588
 3159SOL     OW 9494   3.796   0.166   0.318
 3159SOL    HW1 9495   3.779   0.249   0.264
 3159SOL    HW2 9496   3.886   0.129   0.296
 3160SOL     OW 9497   4.337   0.842   1.431
 3160SOL    HW1 9498   4.393   0.923   1.414
 3160SOL    HW2 9499   4.396   0.762   1.434
 3161SOL     OW 9500   4.440   0.565   1.708
 3161SOL    HW1 9501   4.459   0.630   1.782
 3161SOL    HW2 9502   4.500   0.485   1.717
 3162SOL     OW 9503   4.114   1.741   1.560
 3162SOL    HW1 9504   4.023   1.782   1.558
 3162SOL    HW2 9505   4.107   1.647   1.592
 3163SOL     OW 9506   4.318   0.745   0.652
 3163SOL    HW1 9507   4.368   0.830   0.633
 3163SOL    HW2 9508   4.230   0.747   0.604
 3164SOL     OW 9509   4.583   1.374   0.016
 3164SOL    HW1 9510   4.537   1.389   0.104
 3164SOL    HW2 9511   4.627   1.459  -0.014
 3165SOL     OW 9512   4.385   1.790   0.953
 3165SOL    HW1 9513   4.339   1.878   0.940
 3165SOL    HW2 9514   4.484   1.802   0.946
 3166SOL     OW 9515   4.583   0.956   0.861
 3166SOL    HW1 9516   4.637   0.887   0.909
 3166SOL    HW2 9517   4.551   1.025   0.927
 3167SOL     OW 9518   4.807   0.984   0.087
 3167SOL    HW1 9519   4.784   1.037   0.005
 3167SOL    HW2 9520   4.888   0.928   0.068
 3168SOL     OW 9521   3.945   1.314   1.844
 3168SOL    HW1 9522   3.880   1.241   1.823
 3168SOL    HW2 9523   3.949   1.328   1.942
 3169SOL     OW 9524   3.803   1.240   0.653
 3169SOL    HW1 9525   3.802   1.193   0.741
 3169SOL    HW2 9526   3.885   1.212   0.602
 3170SOL     OW 9527   4.396   1.391   1.624
 3170SOL    HW1 9528   4.318   1.341   1.662
 3170SOL    HW2 9529   4.393   1.486   1.655
 3171SOL     OW 9530   4.152   0.424   0.520
 3171SOL    HW1 9531   4.182   0.352   0.458
 3171SOL    HW2 9532   4.113   0.384   0.603
 3172SOL     OW 9533   4.041   0.547   1.280
 3172SOL    HW1 9534   4.079   0.488   1.352
 3172SOL    HW2 9535   4.081   0.521   1.192
 3173SOL     OW 9536   4.536   1.586   0.687
 3173SOL    HW1 9537   4.568   1.596   0.593
 3173SOL    HW2 9538   4.457   1.524   0.689
 3174SOL     OW 9539   4.725   0.034   1.154
 3174SOL    HW1 9540   4.662  -0.038   1.123
 3174SOL    HW2 9541   4.818  -0.002   1.154
 3175SOL     OW 9542   4.494   1.330   0.301
 3175SOL    HW1 9543   4.448   1.243   0.318
 3175SOL    HW2 9544   4.585   1.327   0.342
 3176SOL     OW 9545   4.342   1.567   1.284
 3176SOL    HW1 9546   4.337   1.649   1.341
 3176SOL    HW2 9547   4.431   1.564   1.239
 3177SOL     OW 9548   4.599   1.646   0.337
 3177SOL    HW1 9549   4.522   1.611   0.283
 3177SOL    HW2 9550   4.567   1.717   0.399
 3178SOL     OW 9551   3.954   0.628   1.975
 3178SOL    HW1 9552   3.861   0.626   2.012
 3178SOL    HW2 9553   3.955   0.589   1.883
 3179SOL     OW 9554   3.949   0.275   2.858
 3179SOL    HW1 9555   3.984   0.258   2.950
 3179SOL    HW2 9556   3.861   0.230   2.846
 3180SOL     OW 9557   3.743   0.368   2.509
 3180SOL    HW1 9558   3.661   0.411   2.548
 3180SOL    HW2 9559   3.715   0.295   2.446
 3181SOL     OW 9560   4.293   1.275   3.027
 3181SOL    HW1 9561   4.200   1.268   2.990
 3181SOL    HW2 9562   4.304   1.364   3.071
 3182SOL     OW 9563   4.859   0.703   2.579
 3182SOL    HW1 9564   4.916   0.781   2.554
 3182SOL    HW2 9565   4.799   0.729   2.655
 3183SOL     OW 9566   4.492   1.144   2.885
 3183SOL    HW1 9567   4.414   1.161   2.945
 3183SOL    HW2 9568   4.526   1.231   2.849
 3184SOL     OW 9569   4.574   0.798   3.685
 3184SOL    HW1 9570   4.570   0.874   3.750
 3184SOL    HW2 9571   4.596   0.834   3.594
 3185SOL     OW 9572   4.409   1.012   2.527
 3185SOL    HW1 9573   4.478   0.996   2.597
 3185SOL    HW2 9574   4.336   1.069   2.565
 3186SOL     OW 9575   4.410   1.161   3.665
 3186SOL    HW1 9576   4.470   1.240   3.679
 3186SOL    HW2 9577   4.324   1.192   3.624
 3187SOL     OW 9578   4.059   1.435   2.923
 3187SOL    HW1 9579   3.981   1.404   2.870
 3187SOL    HW2 9580   4.117   1.493   2.866
 3188SOL     OW 9581   4.162   0.392   3.361
 3188SOL    HW1 9582   4.244   0.336   3.370
 3188SOL    HW2 9583   4.081   0.334   3.365
 3189SOL     OW 9584   3.955   1.713   2.345
 3189SOL    HW1 9585   3.989   1.790   2.399
 3189SOL    HW2 9586   3.999   1.713   2.255
 3190SOL     OW 9587   4.851   1.341   3.552
 3190SOL    HW1 9588   4.898   1.341   3.640
 3190SOL    HW2 9589   4.803   1.254   3.541
 3191SOL     OW 9590   3.954   1.434   2.400
 3191SOL    HW1 9591   3.928   1.530   2.400
 3191SOL    HW2 9592   3.883   1.380   2.445
 3192SOL     OW 9593   3.964   1.091   2.748
 3192SOL    HW1 9594   3.978   1.007   2.800
 3192SOL    HW2 9595   3.909   1.155   2.803
 3193SOL     OW 9596   4.344   1.786   3.301
 3193SOL    HW1 9597   4.252   1.769   3.336
 3193SOL    HW2 9598   4.372   1.878   3.327
 3194SOL     OW 9599   4.330   0.964   1.985
 3194SOL    HW1 9600   4.337   1.048   1.931
 3194SOL    HW2 9601   4.376   0.977   2.073
 3195SOL     OW 9602   3.846   0.643   2.425
 3195SOL    HW1 9603   3.801   0.555   2.442
 3195SOL    HW2 9604   3.845   0.697   2.509
 3196SOL     OW 9605   3.751   1.596   1.979
 3196SOL    HW1 9606   3.732   1.500   2.000
 3196SOL    HW2 9607   3.718   1.654   2.054
 3197SOL     OW 9608   3.837   0.737   3.459
 3197SOL    HW1 9609   3.925   0.724   3.504
 3197SOL    HW2 9610   3.824   0.834   3.437
 3198SOL     OW 9611   4.337   1.365   2.588
 3198SOL    HW1 9612   4.288   1.278   2.597
 3198SOL    HW2 9613   4.314   1.408   2.501
 3199SOL     OW 9614   4.533   0.004   2.364
 3199SOL    HW1 9615   4.573   0.095   2.355
 3199SOL    HW2 9616   4.433   0.012   2.370
 3200SOL     OW 9617   3.921   0.976   3.126
 3200SOL    HW1 9618   4.010   0.931   3.112
 3200SOL    HW2 9619   3.848   0.911   3.107
 3201SOL     OW 9620   4.041   0.251   3.663
 3201SOL    HW1 9621   4.112   0.322   3.669
 3201SOL    HW2 9622   3.953   0.290   3.691
 3202SOL     OW 9623   4.322   0.729   2.132
 3202SOL    HW1 9624   4.346   0.798   2.064
 3202SOL    HW2 9625   4.244   0.762   2.186
 3203SOL     OW 9626   4.531   0.605   3.327
 3203SOL    HW1 9627   4.484   0.602   3.416
 3203SOL    HW2 9628   4.480   0.550   3.261
 3204SOL     OW 9629   4.697   0.890   3.434
 3204SOL    HW1 9630   4.743   0.806   3.405
 3204SOL    HW2 9631   4.641   0.924   3.359
 3205SOL     OW 9632   4.715   0.410   3.104
 3205SOL    HW1 9633   4.638   0.444   3.158
 3205SOL    HW2 9634   4.681   0.359   3.025
 3206SOL     OW 9635   4.765   0.701   2.291
 3206SOL    HW1 9636   4.791   0.697   2.387
 3206SOL    HW2 9637   4.680   0.650   2.277
 3207SOL     OW 9638   3.800   0.811   2.651
 3207SOL    HW1 9639   3.899   0.799   2.660
 3207SOL    HW2 9640   3.776   0.906   2.672
 3208SOL     OW 9641   3.854   1.821   3.433
 3208SOL    HW1 9642   3.844   1.806   3.532
 3208SOL    HW2 9643   3.768   1.857   3.397
 3209SOL     OW 9644   4.589   0.348   2.057
 3209SOL    HW1 9645   4.648   0.411   2.008
 3209SOL    HW2 9646   4.608   0.254   2.028
 3210SOL     OW 9647   4.274   0.196   2.747
 3210SOL    HW1 9648   4.269   0.191   2.847
 3210SOL    HW2 9649   4.276   0.292   2.718
 3211SOL     OW 9650   4.732   1.456   2.339
 3211SOL    HW1 9651   4.686   1.528   2.287
 3211SOL    HW2 9652   4.728   1.476   2.437
 3212SOL     OW 9653   4.075   1.801   2.715
 3212SOL    HW1 9654   4.125   1.715   2.721
 3212SOL    HW2 9655   4.140   1.878   2.712
 3213SOL     OW 9656   4.951   1.550   3.368
 3213SOL    HW1 9657   4.957   1.473   3.432
 3213SOL    HW2 9658   4.899   1.524   3.288
 3214SOL     OW 9659   4.045   0.943   2.104
 3214SOL    HW1 9660   4.127   0.982   2.062
 3214SOL    HW2 9661   4.018   0.861   2.055
 3215SOL     OW 9662   4.185   1.266   3.589
 3215SOL    HW1 9663   4.135   1.267   3.503
 3215SOL    HW2 9664   4.122   1.248   3.665
 3216SOL     OW 9665   4.835   1.776   2.099
 3216SOL    HW1 9666   4.775   1.714   2.149
 3216SOL    HW2 9667   4.866   1.732   2.014
 3217SOL     OW 9668   3.926   0.285   3.360
 3217SOL    HW1 9669   3.846   0.345   3.347
 3217SOL    HW2 9670   3.916   0.236   3.446
 3218SOL     OW 9671   4.188   1.743   2.185
 3218SOL    HW1 9672   4.221   1.782   2.271
 3218SOL    HW2 9673   4.264   1.736   2.120
 3219SOL     OW 9674   3.973   1.785   3.103
 3219SOL    HW1 9675   4.030   1.720   3.153
 3219SOL    HW2 9676   3.957   1.752   3.010
 3220SOL     OW 9677   4.664   1.698   2.766
 3220SOL    HW1 9678   4.744   1.641   2.787
 3220SOL    HW2 9679   4.615   1.658   2.689
 3221SOL     OW 9680   4.106   0.700   2.342
 3221SOL    HW1 9681   4.151   0.610   2.339
 3221SOL    HW2 9682   4.012   0.689   2.375
 3222SOL     OW 9683   4.338   0.122   1.979
 3222SOL    HW1 9684   4.436   0.100   1.986
 3222SOL    HW2 9685   4.307   0.105   1.886
 3223SOL     OW 9686   4.505   0.264   3.611
 3223SOL    HW1 9687   4.572   0.203   3.654
 3223SOL    HW2 9688   4.432   0.283   3.676
 3224SOL     OW 9689   4.612   1.514   3.057
 3224SOL    HW1 9690   4.589   1.489   2.963
 3224SOL    HW2 9691   4.673   1.445   3.096
 3225SOL     OW 9692   4.527   1.402   2.786
 3225SOL    HW1 9693   4.617   1.416   2.744
 3225SOL    HW2 9694   4.456   1.404   2.715
 3226SOL     OW 9695   4.646   0.503   2.761
 3226SOL    HW1 9696   4.621   0.494   2.665
 3226SOL    HW2 9697   4.694   0.421   2.792
 3227SOL     OW 9698   4.263   0.064   2.374
 3227SOL    HW1 9699   4.182   0.065   2.432
 3227SOL    HW2 9700   4.266   0.147   2.319
 3228SOL     OW 9701   4.021   0.035   2.033
 3228SOL    HW1 9702   4.070   0.119   2.012
 3228SOL    HW2 9703   4.083  -0.030   2.078
 3229SOL     OW 9704   4.659   0.236   2.342
 3229SOL    HW1 9705   4.611   0.277   2.264
 3229SOL    HW2 9706   4.758   0.234   2.323
 3230SOL     OW 9707   4.800   0.683   3.326
 3230SOL    HW1 9708   4.720   0.622   3.329
 3230SOL    HW2 9709   4.881   0.630   3.302
 3231SOL     OW 9710   4.951   1.570   2.655
 3231SOL    HW1 9711   4.972   1.644   2.590
 3231SOL    HW2 9712   5.019   1.570   2.728
 3232SOL     OW 9713   4.183   1.152   2.603
 3232SOL    HW1 9714   4.112   1.125   2.668
 3232SOL    HW2 9715   4.157   1.124   2.510
 3233SOL     OW 9716   4.995   1.797   2.453
 3233SOL    HW1 9717   5.039   1.861   2.389
 3233SOL    HW2 9718   4.945   1.849   2.523
 3234SOL     OW 9719   4.756   0.549   1.878
 3234SOL    HW1 9720   4.715   0.631   1.839
 3234SOL    HW2 9721   4.820   0.575   1.951
 3235SOL     OW 9722   3.802   0.556   3.248
 3235SOL    HW1 9723   3.894   0.555   3.207
 3235SOL    HW2 9724   3.796   0.630   3.315
 3236SOL     OW 9725   4.285   0.222   3.009
 3236SOL    HW1 9726   4.323   0.138   3.046
 3236SOL    HW2 9727   4.197   0.241   3.053
 3237SOL     OW 9728   4.590   0.454   2.504
 3237SOL    HW1 9729   4.558   0.526   2.442
 3237SOL    HW2 9730   4.614   0.373   2.451
 3238SOL     OW 9731   4.741   0.039   2.615
 3238SOL    HW1 9732   4.669   0.044   2.546
 3238SOL    HW2 9733   4.717  -0.030   2.684
 3239SOL     OW 9734   4.212   1.385   2.036
 3239SOL    HW1 9735   4.125   1.370   2.083
 3239SOL    HW2 9736   4.195   1.411   1.941
 3240SOL     OW 9737   4.251   0.256   2.190
 3240SOL    HW1 9738   4.278   0.197   2.115
 3240SOL    HW2 9739   4.251   0.351   2.159
 3241SOL     OW 9740   4.788   1.347   3.202
 3241SOL    HW1 9741   4.708   1.324   3.257
 3241SOL    HW2 9742   4.871   1.321   3.251
 3242SOL     OW 9743   4.835   1.195   2.962
 3242SOL    HW1 9744   4.795   1.239   3.043
 3242SOL    HW2 9745   4.794   1.232   2.879
 3243SOL     OW 9746   4.639   0.089   3.264
 3243SOL    HW1 9747   4.664   0.069   3.169
 3243SOL    HW2 9748   4.711   0.145   3.306
 3244SOL     OW 9749   4.704   1.116   3.581
 3244SOL    HW1 9750   4.605   1.122   3.591
 3244SOL    HW2 9751   4.727   1.036   3.525
 3245SOL     OW 9752   4.429   1.050   2.230
 3245SOL    HW1 9753   4.415   1.057   2.329
 3245SOL    HW2 9754   4.513   0.999   2.212
 3246SOL     OW 9755   4.134   0.813   3.113
 3246SOL    HW1 9756   4.220   0.825   3.163
 3246SOL    HW2 9757   4.092   0.726   3.140
 3247SOL     OW 9758   3.788   1.564   3.193
 3247SOL    HW1 9759   3.742   1.646   3.159
 3247SOL    HW2 9760   3.886   1.583   3.202
 3248SOL     OW 9761   4.091   1.100   2.363
 3248SOL    HW1 9762   4.084   1.183   2.307
 3248SOL    HW2 9763   4.095   1.020   2.303
 3249SOL     OW 9764   4.290   0.537   2.727
 3249SOL    HW1 9765   4.302   0.603   2.653
 3249SOL    HW2 9766   4.336   0.571   2.810
 3250SOL     OW 9767   4.976   1.348   2.250
 3250SOL    HW1 9768   5.026   1.425   2.290
 3250SOL    HW2 9769   4.881   1.350   2.282
 3251SOL     OW 9770   4.078   1.510   3.191
 3251SOL    HW1 9771   4.057   1.466   3.104
 3251SOL    HW2 9772   4.175   1.536   3.194
 3252SOL     OW 9773   4.126   0.751   3.460
 3252SOL    HW1 9774   4.194   0.806   3.413
 3252SOL    HW2 9775   4.166   0.663   3.487
 3253SOL     OW 9776   4.737   0.105   3.632
 3253SOL    HW1 9777   4.743   0.190   3.580
 3253SOL    HW2 9778   4.769   0.029   3.575
 3254SOL     OW 9779   4.228   0.050   3.602
 3254SOL    HW1 9780   4.186  -0.007   3.532
 3254SOL    HW2 9781   4.162   0.119   3.634
 3255SOL     OW 9782   4.297   0.870   2.891
 3255SOL    HW1 9783   4.341   0.959   2.882
 3255SOL    HW2 9784   4.234   0.870   2.968
 3256SOL     OW 9785   5.084   0.862   2.907
 3256SOL    HW1 9786   5.009   0.862   2.841
 3256SOL    HW2 9787   5.121   0.770   2.916
 3257SOL     OW 9788   4.933   0.525   2.137
 3257SOL    HW1 9789   4.946   0.441   2.191
 3257SOL    HW2 9790   4.904   0.599   2.197
 3258SOL     OW 9791   4.031   0.213   3.093
 3258SOL    HW1 9792   4.008   0.250   3.183
 3258SOL    HW2 9793   4.001   0.118   3.087
 3259SOL     OW 9794   3.761   1.310   3.144
 3259SOL    HW1 9795   3.814   1.261   3.212
 3259SOL    HW2 9796   3.783   1.408   3.149
 3260SOL     OW 9797   4.456   0.634   2.926
 3260SOL    HW1 9798   4.515   0.608   2.850
 3260SOL    HW2 9799   4.428   0.730   2.915
 3261SOL     OW 9800   4.031   0.063   2.480
 3261SOL    HW1 9801   4.020   0.157   2.513
 3261SOL    HW2 9802   4.026   0.000   2.557
 3262SOL     OW 9803   4.747   0.766   2.828
 3262SOL    HW1 9804   4.762   0.787   2.924
 3262SOL    HW2 9805   4.717   0.671   2.819
 3263SOL     OW 9806   4.704   1.573   3.562
 3263SOL    HW1 9807   4.684   1.617   3.474
 3263SOL    HW2 9808   4.743   1.482   3.546
 3264SOL     OW 9809   4.074   0.898   3.666
 3264SOL    HW1 9810   4.150   0.942   3.714
 3264SOL    HW2 9811   4.109   0.851   3.584
 3265SOL     OW 9812   5.264   0.274   1.987
 3265SOL    HW1 9813   5.203   0.199   2.010
 3265SOL    HW2 9814   5.286   0.326   2.070
 3266SOL     OW 9815   4.792   1.333   2.711
 3266SOL    HW1 9816   4.799   1.249   2.656
 3266SOL    HW2 9817   4.854   1.402   2.675
 3267SOL     OW 9818   4.043   0.810   2.811
 3267SOL    HW1 9819   4.136   0.846   2.816
 3267SOL    HW2 9820   4.037   0.725   2.863
 3268SOL     OW 9821   4.063   0.509   2.868
 3268SOL    HW1 9822   4.011   0.426   2.851
 3268SOL    HW2 9823   4.140   0.514   2.804
 3269SOL     OW 9824   4.862   0.380   3.540
 3269SOL    HW1 9825   4.817   0.443   3.604
 3269SOL    HW2 9826   4.955   0.411   3.523
 3270SOL     OW 9827   4.884   0.207   3.339
 3270SOL    HW1 9828   4.884   0.271   3.416
 3270SOL    HW2 9829   4.912   0.255   3.256
 3271SOL     OW 9830   3.732   1.326   2.062
 3271SOL    HW1 9831   3.639   1.347   2.031
 3271SOL    HW2 9832   3.742   1.227   2.075
 3272SOL     OW 9833   3.812   1.801   2.789
 3272SOL    HW1 9834   3.770   1.715   2.762
 3272SOL    HW2 9835   3.906   1.804   2.755
 3273SOL     OW 9836   4.228   1.568   2.772
 3273SOL    HW1 9837   4.294   1.642   2.781
 3273SOL    HW2 9838   4.272   1.489   2.730
 3274SOL     OW 9839   4.726   0.796   3.100
 3274SOL    HW1 9840   4.767   0.764   3.186
 3274SOL    HW2 9841   4.630   0.769   3.097
 3275SOL     OW 9842   3.764   0.544   2.976
 3275SOL    HW1 9843   3.849   0.511   2.935
 3275SOL    HW2 9844   3.777   0.559   3.074
 3276SOL     OW 9845   3.913   0.520   3.584
 3276SOL    HW1 9846   3.972   0.480   3.514
 3276SOL    HW2 9847   3.855   0.591   3.543
 3277SOL     OW 9848   4.539   0.572   2.187
 3277SOL    HW1 9849   4.546   0.483   2.141
 3277SOL    HW2 9850   4.445   0.606   2.179
 3278SOL     OW 9851   3.976   1.564   3.606
 3278SOL    HW1 9852   3.946   1.621   3.682
 3278SOL    HW2 9853   3.969   1.467   3.632
 3279SOL     OW 9854   4.395   0.464   3.131
 3279SOL    HW1 9855   4.361   0.375   3.101
 3279SOL    HW2 9856   4.421   0.518   3.051
 3280SOL     OW 9857   4.654   1.678   3.327
 3280SOL    HW1 9858   4.630   1.660   3.232
 3280SOL    HW2 9859   4.684   1.772   3.337
 3281SOL     OW 9860   4.197   0.500   2.053
 3281SOL    HW1 9861   4.258   0.580   2.057
 3281SOL    HW2 9862   4.102   0.531   2.060
 3282SOL     OW 9863   3.883   1.137   3.328
 3282SOL    HW1 9864   3.905   1.076   3.404
 3282SOL    HW2 9865   3.893   1.088   3.242
 3283SOL     OW 9866   4.976   1.731   2.990
 3283SOL    HW1 9867   5.060   1.736   2.936
 3283SOL    HW2 9868   4.953   1.635   3.008
 3284SOL     OW 9869   3.807   1.258   2.884
 3284SOL    HW1 9870   3.802   1.257   2.984
 3284SOL    HW2 9871   3.724   1.217   2.846
 3285SOL     OW 9872   4.412   1.662   3.578
 3285SOL    HW1 9873   4.356   1.743   3.587
 3285SOL    HW2 9874   4.464   1.666   3.492
 3286SOL     OW 9875   3.854   1.794   3.713
 3286SOL    HW1 9876   3.813   1.720   3.766
 3286SOL    HW2 9877   3.918   1.845   3.771
 3287SOL     OW 9878   4.554   1.273   3.284
 3287SOL    HW1 9879   4.549   1.306   3.379
 3287SOL    HW2 9880   4.468   1.292   3.238
 3288SOL     OW 9881   4.396   1.616   2.016
 3288SOL    HW1 9882   4.405   1.626   1.917
 3288SOL    HW2 9883   4.356   1.527   2.037
 3289SOL     OW 9884   3.987   0.326   2.582
 3289SOL    HW1 9885   3.908   0.377   2.548
 3289SOL    HW2 9886   3.978   0.311   2.680
 3290SOL     OW 9887   4.546   1.002   3.234
 3290SOL    HW1 9888   4.586   1.001   3.142
 3290SOL    HW2 9889   4.556   1.094   3.274
 3291SOL     OW 9890   4.640   0.910   2.153
 3291SOL    HW1 9891   4.703   0.948   2.085
 3291SOL    HW2 9892   4.680   0.827   2.192
 3292SOL     OW 9893   4.096   1.288   3.352
 3292SOL    HW1 9894   4.083   1.381   3.318
 3292SOL    HW2 9895   4.012   1.236   3.339
 3293SOL     OW 9896   4.763   1.098   2.558
 3293SOL    HW1 9897   4.693   1.051   2.612
 3293SOL    HW2 9898   4.822   1.030   2.515
 3294SOL     OW 9899   4.738   0.236   2.833
 3294SOL    HW1 9900   4.730   0.200   2.740
 3294SOL    HW2 9901   4.736   0.160   2.898
 3295SOL     OW 9902   4.314   1.487   2.353
 3295SOL    HW1 9903   4.356   1.429   2.283
 3295SOL    HW2 9904   4.270   1.566   2.309
 3296SOL     OW 9905   3.979   1.348   2.152
 3296SOL    HW1 9906   3.883   1.349   2.125
 3296SOL    HW2 9907   3.991   1.401   2.236
 3297SOL     OW 9908   3.829   1.013   3.588
 3297SOL    HW1 9909   3.752   0.980   3.642
 3297SOL    HW2 9910   3.914   0.983   3.630
 3298SOL     OW 9911   4.396   0.203   3.351
 3298SOL    HW1 9912   4.486   0.187   3.311
 3298SOL    HW2 9913   4.404   0.208   3.450
 3299SOL     OW 9914   3.799   0.345   1.895
 3299SOL    HW1 9915   3.707   0.317   1.866
 3299SOL    HW2 9916   3.830   0.422   1.839
 3300SOL     OW 9917   3.796   0.166   2.180
 3300SOL    HW1 9918   3.779   0.249   2.126
 3300SOL    HW2 9919   3.886   0.129   2.158
 3301SOL     OW 9920   4.337   0.842   3.293
 3301SOL    HW1 9921   4.393   0.923   3.276
 3301SOL    HW2 9922   4.396   0.762   3.296
 3302SOL     OW 9923   4.440   0.565   3.570
 3302SOL    HW1 9924   4.459   0.630   3.644
 3302SOL    HW2 9925   4.500   0.485   3.579
 3303SOL     OW 9926   4.114   1.741   3.422
 3303SOL    HW1 9927   4.023   1.782   3.420
 3303SOL    HW2 9928   4.107   1.647   3.454
 3304SOL     OW 9929   4.318   0.745   2.514
 3304SOL    HW1 9930   4.368   0.830   2.495
 3304SOL    HW2 9931   4.230   0.747   2.466
 3305SOL     OW 9932   4.583   1.374   1.878
 3305SOL    HW1 9933   4.537   1.389   1.966
 3305SOL    HW2 9934   4.627   1.459   1.848
 3306SOL     OW 9935   4.385   1.790   2.815
 3306SOL    HW1 9936   4.339   1.878   2.802
 3306SOL    HW2 9937   4.484   1.802   2.808
 3307SOL     OW 9938   4.583   0.956   2.723
 3307SOL    HW1 9939   4.637   0.887   2.771
 3307SOL    HW2 9940   4.551   1.025   2.789
 3308SOL     OW 9941   4.807   0.984   1.949
 3308SOL    HW1 9942   4.784   1.037   1.867
 3308SOL    HW2 9943   4.888   0.928   1.930
 3309SOL     OW 9944   3.945   1.314   3.706
 3309SOL    HW1 9945   3.880   1.241   3.685
 3309SOL    HW2 9946   3.949   1.328   3.804
 3310SOL     OW 9947   3.803   1.240   2.515
 3310SOL    HW1 9948   3.802   1.193   2.603
 3310SOL    HW2 9949   3.885   1.212   2.464
 3311SOL     OW 9950   4.396   1.391   3.486
 3311SOL    HW1 9951   4.318   1.341   3.524
 3311SOL    HW2 9952   4.393   1.486   3.517
 3312SOL     OW 9953   4.152   0.424   2.382
 3312SOL    HW1 9954   4.182   0.352   2.320
 3312SOL    HW2 9955   4.113   0.384   2.465
 3313SOL     OW 9956   4.041   0.547   3.142
 3313SOL    HW1 9957   4.079   0.488   3.214
 3313SOL    HW2 9958   4.081   0.521   3.054
 3314SOL     OW 9959   4.536   1.586   2.549
 3314SOL    HW1 9960   4.568   1.596   2.455
 3314SOL    HW2 9961   4.457   1.524   2.551
 3315SOL     OW 9962   4.725   0.034   3.016
 3315SOL    HW1 9963   4.662  -0.038   2.985
 3315SOL    HW2 9964   4.818  -0.002   3.016
 3316SOL     OW 9965   4.494   1.330   2.163
 3316SOL    HW1 9966   4.448   1.243   2.180
 3316SOL    HW2 9967   4.585   1.327   2.204
 3317SOL     OW 9968   4.342   1.567   3.146
 3317SOL    HW1 9969   4.337   1.649   3.203
 3317SOL    HW2 9970   4.431   1.564   3.101
 3318SOL     OW 9971   3.763   1.077   2.162
 3318SOL    HW1 9972   3.862   1.066   2.153
 3318SOL    HW2 9973   3.723   0.991   2.194
 3319SOL     OW 9974   4.599   1.646   2.199
 3319SOL    HW1 9975   4.522   1.611   2.145
 3319SOL    HW2 9976   4.567   1.717   2.261
 3320SOL     OW 9977   3.954   0.628   3.837
 3320SOL    HW1 9978   3.861   0.626   3.874
 3320SOL    HW2 9979   3.955   0.589   3.745
 3321SOL     OW 9980   3.949   0.275   4.720
 3321SOL    HW1 9981   3.984   0.258   4.812
 3321SOL    HW2 9982   3.861   0.230   4.708
 3322SOL     OW 9983   3.743   0.368   4.371
 3322SOL    HW1 9984   3.661   0.411   4.410
 3322SOL    HW2 9985   3.715   0.295   4.308
 3323SOL     OW 9986   4.293   1.275   4.889
 3323SOL    HW1 9987   4.200   1.268   4.852
 3323SOL    HW2 9988   4.304   1.364   4.933
 3324SOL     OW 9989   4.859   0.703   4.441
 3324SOL    HW1 9990   4.916   0.781   4.416
 3324SOL    HW2 9991   4.799   0.729   4.517
 3325SOL     OW 9992   4.492   1.144   4.747
 3325SOL    HW1 9993   4.414   1.161   4.807
 3325SOL    HW2 9994   4.526   1.231   4.711
 3326SOL     OW 9995   4.409   1.012   4.389
 3326SOL    HW1 9996   4.478   0.996   4.459
 3326SOL    HW2 9997   4.336   1.069   4.427
 3327SOL     OW 9998   4.059   1.435   4.785
 3327SOL    HW1 9999   3.981   1.404   4.732
 3327SOL    HW210000   4.117   1.493   4.728
 3328SOL     OW10001   5.184   1.505   5.063
 3328SOL    HW110002   5.208   1.599   5.089
 3328SOL    HW210003   5.168   1.451   5.145
 3329SOL     OW10004   3.955   1.713   4.207
 3329SOL    HW110005   3.989   1.790   4.261
 3329SOL    HW210006   3.999   1.713   4.117
 3330SOL     OW10007   3.954   1.434   4.262
 3330SOL    HW110008   3.928   1.530   4.262
 3330SOL    HW210009   3.883   1.380   4.307
 3331SOL     OW10010   3.964   1.091   4.610
 3331SOL    HW110011   3.978   1.007   4.662
 3331SOL    HW210012   3.909   1.155   4.665
 3332SOL     OW10013   4.330   0.964   3.847
 3332SOL    HW110014   4.337   1.048   3.793
 3332SOL    HW210015   4.376   0.977   3.935
 3333SOL     OW10016   3.846   0.643   4.287
 3333SOL    HW110017   3.801   0.555   4.304
 3333SOL    HW210018   3.845   0.697   4.371
 3334SOL     OW10019   3.751   1.596   3.841
 3334SOL    HW110020   3.732   1.500   3.862
 3334SOL    HW210021   3.718   1.654   3.916
 3335SOL     OW10022   4.337   1.365   4.450
 3335SOL    HW110023   4.288   1.278   4.459
 3335SOL    HW210024   4.314   1.408   4.363
 3336SOL     OW10025   4.533   0.004   4.226
 3336SOL    HW110026   4.573   0.095   4.217
 3336SOL    HW210027   4.433   0.012   4.232
 3337SOL     OW10028   3.921   0.976   4.988
 3337SOL    HW110029   4.010   0.931   4.974
 3337SOL    HW210030   3.848   0.911   4.969
 3338SOL     OW10031   4.322   0.729   3.994
 3338SOL    HW110032   4.346   0.798   3.926
 3338SOL    HW210033   4.244   0.762   4.048
 3339SOL     OW10034   4.765   0.701   4.153
 3339SOL    HW110035   4.791   0.697   4.249
 3339SOL    HW210036   4.680   0.650   4.139
 3340SOL     OW10037   3.800   0.811   4.513
 3340SOL    HW110038   3.899   0.799   4.522
 3340SOL    HW210039   3.776   0.906   4.534
 3341SOL     OW10040   4.589   0.348   3.919
 3341SOL    HW110041   4.648   0.411   3.870
 3341SOL    HW210042   4.608   0.254   3.890
 3342SOL     OW10043   4.274   0.196   4.609
 3342SOL    HW110044   4.269   0.191   4.709
 3342SOL    HW210045   4.276   0.292   4.580
 3343SOL     OW10046   4.732   1.456   4.201
 3343SOL    HW110047   4.686   1.528   4.149
 3343SOL    HW210048   4.728   1.476   4.299
 3344SOL     OW10049   4.075   1.801   4.577
 3344SOL    HW110050   4.125   1.715   4.583
 3344SOL    HW210051   4.140   1.878   4.574
 3345SOL     OW10052   4.045   0.943   3.966
 3345SOL    HW110053   4.127   0.982   3.924
 3345SOL    HW210054   4.018   0.861   3.917
 3346SOL     OW10055   4.835   1.776   3.961
 3346SOL    HW110056   4.775   1.714   4.011
 3346SOL    HW210057   4.866   1.732   3.876
 3347SOL     OW10058   4.188   1.743   4.047
 3347SOL    HW110059   4.221   1.782   4.133
 3347SOL    HW210060   4.264   1.736   3.982
 3348SOL     OW10061   3.973   1.785   4.965
 3348SOL    HW110062   4.030   1.720   5.015
 3348SOL    HW210063   3.957   1.752   4.872
 3349SOL     OW10064   4.664   1.698   4.628
 3349SOL    HW110065   4.744   1.641   4.649
 3349SOL    HW210066   4.615   1.658   4.551
 3350SOL     OW10067   4.106   0.700   4.204
 3350SOL    HW110068   4.151   0.610   4.201
 3350SOL    HW210069   4.012   0.689   4.237
 3351SOL     OW10070   4.338   0.122   3.841
 3351SOL    HW110071   4.436   0.100   3.848
 3351SOL    HW210072   4.307   0.105   3.748
 3352SOL     OW10073   4.527   1.402   4.648
 3352SOL    HW110074   4.617   1.416   4.606
 3352SOL    HW210075   4.456   1.404   4.577
 3353SOL     OW10076   4.646   0.503   4.623
 3353SOL    HW110077   4.621   0.494   4.527
 3353SOL    HW210078   4.694   0.421   4.654
 3354SOL     OW10079   4.263   0.064   4.236
 3354SOL    HW110080   4.182   0.065   4.294
 3354SOL    HW210081   4.266   0.147   4.181
 3355SOL     OW10082   4.021   0.035   3.895
 3355SOL    HW110083   4.070   0.119   3.874
 3355SOL    HW210084   4.083  -0.030   3.940
 3356SOL     OW10085   4.659   0.236   4.204
 3356SOL    HW110086   4.611   0.277   4.126
 3356SOL    HW210087   4.758   0.234   4.185
 3357SOL     OW10088   4.951   1.570   4.517
 3357SOL    HW110089   4.972   1.644   4.452
 3357SOL    HW210090   5.019   1.570   4.590
 3358SOL     OW10091   4.183   1.152   4.465
 3358SOL    HW110092   4.112   1.125   4.530
 3358SOL    HW210093   4.157   1.124   4.372
 3359SOL     OW10094   4.995   1.797   4.315
 3359SOL    HW110095   5.039   1.861   4.251
 3359SOL    HW210096   4.945   1.849   4.385
 3360SOL     OW10097   4.756   0.549   3.740
 3360SOL    HW110098   4.715   0.631   3.701
 3360SOL    HW210099   4.820   0.575   3.813
 3361SOL     OW10100   4.590   0.454   4.366
 3361SOL    HW110101   4.558   0.526   4.304
 3361SOL    HW210102   4.614   0.373   4.313
 3362SOL     OW10103   4.741   0.039   4.477
 3362SOL    HW110104   4.669   0.044   4.408
 3362SOL    HW210105   4.717  -0.030   4.546
 3363SOL     OW10106   4.212   1.385   3.898
 3363SOL    HW110107   4.125   1.370   3.945
 3363SOL    HW210108   4.195   1.411   3.803
 3364SOL     OW10109   4.251   0.256   4.052
 3364SOL    HW110110   4.278   0.197   3.977
 3364SOL    HW210111   4.251   0.351   4.021
 3365SOL     OW10112   4.835   1.195   4.824
 3365SOL    HW110113   4.795   1.239   4.905
 3365SOL    HW210114   4.794   1.232   4.741
 3366SOL     OW10115   4.429   1.050   4.092
 3366SOL    HW110116   4.415   1.057   4.191
 3366SOL    HW210117   4.513   0.999   4.074
 3367SOL     OW10118   4.134   0.813   4.975
 3367SOL    HW110119   4.220   0.825   5.025
 3367SOL    HW210120   4.092   0.726   5.002
 3368SOL     OW10121   4.091   1.100   4.225
 3368SOL    HW110122   4.084   1.183   4.169
 3368SOL    HW210123   4.095   1.020   4.165
 3369SOL     OW10124   4.290   0.537   4.589
 3369SOL    HW110125   4.302   0.603   4.515
 3369SOL    HW210126   4.336   0.571   4.672
 3370SOL     OW10127   4.976   1.348   4.112
 3370SOL    HW110128   5.026   1.425   4.152
 3370SOL    HW210129   4.881   1.350   4.144
 3371SOL     OW10130   4.297   0.870   4.753
 3371SOL    HW110131   4.341   0.959   4.744
 3371SOL    HW210132   4.234   0.870   4.830
 3372SOL     OW10133   5.084   0.862   4.769
 3372SOL    HW110134   5.009   0.862   4.703
 3372SOL    HW210135   5.121   0.770   4.778
 3373SOL     OW10136   4.933   0.525   3.999
 3373SOL    HW110137   4.946   0.441   4.053
 3373SOL    HW210138   4.904   0.599   4.059
 3374SOL     OW10139   4.031   0.213   4.955
 3374SOL    HW110140   4.008   0.250   5.045
 3374SOL    HW210141   4.001   0.118   4.949
 3375SOL     OW10142   3.761   1.310   5.006
 3375SOL    HW110143   3.814   1.261   5.074
 3375SOL    HW210144   3.783   1.408   5.011
 3376SOL     OW10145   4.456   0.634   4.788
 3376SOL    HW110146   4.515   0.608   4.712
 3376SOL    HW210147   4.428   0.730   4.777
 3377SOL     OW10148   4.031   0.063   4.342
 3377SOL    HW110149   4.020   0.157   4.375
 3377SOL    HW210150   4.026   0.000   4.419
 3378SOL     OW10151   4.747   0.766   4.690
 3378SOL    HW110152   4.762   0.787   4.786
 3378SOL    HW210153   4.717   0.671   4.681
 3379SOL     OW10154   5.264   0.274   3.849
 3379SOL    HW110155   5.203   0.199   3.872
 3379SOL    HW210156   5.286   0.326   3.932
 3380SOL     OW10157   4.792   1.333   4.573
 3380SOL    HW110158   4.799   1.249   4.518
 3380SOL    HW210159   4.854   1.402   4.537
 3381SOL     OW10160   4.043   0.810   4.673
 3381SOL    HW110161   4.136   0.846   4.678
 3381SOL    HW210162   4.037   0.725   4.725
 3382SOL     OW10163   4.063   0.509   4.730
 3382SOL    HW110164   4.011   0.426   4.713
 3382SOL    HW210165   4.140   0.514   4.666
 3383SOL     OW10166   3.732   1.326   3.924
 3383SOL    HW110167   3.639   1.347   3.893
 3383SOL    HW210168   3.742   1.227   3.937
 3384SOL     OW10169   3.812   1.801   4.651
 3384SOL    HW110170   3.770   1.715   4.624
 3384SOL    HW210171   3.906   1.804   4.617
 3385SOL     OW10172   4.228   1.568   4.634
 3385SOL    HW110173   4.294   1.642   4.643
 3385SOL    HW210174   4.272   1.489   4.592
 3386SOL     OW10175   4.726   0.796   4.962
 3386SOL    HW110176   4.767   0.764   5.048
 3386SOL    HW210177   4.630   0.769   4.959
 3387SOL     OW10178   3.764   0.544   4.838
 3387SOL    HW110179   3.849   0.511   4.797
 3387SOL    HW210180   3.777   0.559   4.936
 3388SOL     OW10181   4.539   0.572   4.049
 3388SOL    HW110182   4.546   0.483   4.003
 3388SOL    HW210183   4.445   0.606   4.041
 3389SOL     OW10184   4.395   0.464   4.993
 3389SOL    HW110185   4.361   0.375   4.963
 3389SOL    HW210186   4.421   0.518   4.913
 3390SOL     OW10187   4.197   0.500   3.915
 3390SOL    HW110188   4.258   0.580   3.919
 3390SOL    HW210189   4.102   0.531   3.922
 3391SOL     OW10190   3.883   1.137   5.190
 3391SOL    HW110191   3.905   1.076   5.266
 3391SOL    HW210192   3.893   1.088   5.104
 3392SOL     OW10193   4.976   1.731   4.852
 3392SOL    HW110194   5.060   1.736   4.798
 3392SOL    HW210195   4.953   1.635   4.870
 3393SOL     OW10196   3.807   1.258   4.746
 3393SOL    HW110197   3.802   1.257   4.846
 3393SOL    HW210198   3.724   1.217   4.708
 3394SOL     OW10199   4.396   1.616   3.878
 3394SOL    HW110200   4.405   1.626   3.779
 3394SOL    HW210201   4.356   1.527   3.899
 3395SOL     OW10202   3.987   0.326   4.444
 3395SOL    HW110203   3.908   0.377   4.410
 3395SOL    HW210204   3.978   0.311   4.542
 3396SOL     OW10205   4.546   1.002   5.096
 3396SOL    HW110206   4.586   1.001   5.004
 3396SOL    HW210207   4.556   1.094   5.136
 3397SOL     OW10208   4.640   0.910   4.015
 3397SOL    HW110209   4.703   0.948   3.947
 3397SOL    HW210210   4.680   0.827   4.054
 3398SOL     OW10211   4.763   1.098   4.420
 3398SOL    HW110212   4.693   1.051   4.474
 3398SOL    HW210213   4.822   1.030   4.377
 3399SOL     OW10214   4.738   0.236   4.695
 3399SOL    HW110215   4.730   0.200   4.602
 3399SOL    HW210216   4.736   0.160   4.760
 3400SOL     OW10217   4.314   1.487   4.215
 3400SOL    HW110218   4.356   1.429   4.145
 3400SOL    HW210219   4.270   1.566   4.171
 3401SOL     OW10220   3.979   1.348   4.014
 3401SOL    HW110221   3.883   1.349   3.987
 3401SOL    HW210222   3.991   1.401   4.098
 3402SOL     OW10223   3.799   0.345   3.757
 3402SOL    HW110224   3.707   0.317   3.728
 3402SOL    HW210225   3.830   0.422   3.701
 3403SOL     OW10226   3.796   0.166   4.042
 3403SOL    HW110227   3.779   0.249   3.988
 3403SOL    HW210228   3.886   0.129   4.020
 3404SOL     OW10229   4.318   0.745   4.376
 3404SOL    HW110230   4.368   0.830   4.357
 3404SOL    HW210231   4.230   0.747   4.328
 3405SOL     OW10232   4.583   1.374   3.740
 3405SOL    HW110233   4.537   1.389   3.828
 3405SOL    HW210234   4.627   1.459   3.710
 3406SOL     OW10235   4.385   1.790   4.677
 3406SOL    HW110236   4.339   1.878   4.664
 3406SOL    HW210237   4.484   1.802   4.670
 3407SOL     OW10238   4.583   0.956   4.585
 3407SOL    HW110239   4.637   0.887   4.633
 3407SOL    HW210240   4.551   1.025   4.651
 3408SOL     OW10241   4.807   0.984   3.811
 3408SOL    HW110242   4.784   1.037   3.729
 3408SOL    HW210243   4.888   0.928   3.792
 3409SOL     OW10244   3.803   1.240   4.377
 3409SOL    HW110245   3.802   1.193   4.465
 3409SOL    HW210246   3.885   1.212   4.326
 3410SOL     OW10247   4.152   0.424   4.244
 3410SOL    HW110248   4.182   0.352   4.182
 3410SOL    HW210249   4.113   0.384   4.327
 3411SOL     OW10250   4.536   1.586   4.411
 3411SOL    HW110251   4.568   1.596   4.317
 3411SOL    HW210252   4.457   1.524   4.413
 3412SOL     OW10253   4.725   0.034   4.878
 3412SOL    HW110254   4.662  -0.038   4.847
 3412SOL    HW210255   4.818  -0.002   4.878
 3413SOL     OW10256   4.494   1.330   4.025
 3413SOL    HW110257   4.448   1.243   4.042
 3413SOL    HW210258   4.585   1.327   4.066
 3414SOL     OW10259   3.763   1.077   4.024
 3414SOL    HW110260   3.862   1.066   4.015
 3414SOL    HW210261   3.723   0.991   4.056
 3415SOL     OW10262   4.599   1.646   4.061
 3415SOL    HW110263   4.522   1.611   4.007
 3415SOL    HW210264   4.567   1.717   4.123
 3416SOL     OW10265   3.954   2.490   0.113
 3416SOL    HW110266   3.861   2.488   0.150
 3416SOL    HW210267   3.955   2.451   0.021
 3417SOL     OW10268   3.949   2.137   0.996
 3417SOL    HW110269   3.984   2.120   1.088
 3417SOL    HW210270   3.861   2.092   0.984
 3418SOL     OW10271   3.743   2.230   0.647
 3418SOL    HW110272   3.661   2.273   0.686
 3418SOL    HW210273   3.715   2.157   0.584
 3419SOL     OW10274   4.293   3.137   1.165
 3419SOL    HW110275   4.200   3.130   1.128
 3419SOL    HW210276   4.304   3.226   1.209
 3420SOL     OW10277   4.859   2.565   0.717
 3420SOL    HW110278   4.916   2.643   0.692
 3420SOL    HW210279   4.799   2.591   0.793
 3421SOL     OW10280   4.492   3.006   1.023
 3421SOL    HW110281   4.414   3.023   1.083
 3421SOL    HW210282   4.526   3.093   0.987
 3422SOL     OW10283   4.574   2.660   1.823
 3422SOL    HW110284   4.570   2.736   1.888
 3422SOL    HW210285   4.596   2.696   1.732
 3423SOL     OW10286   4.409   2.874   0.665
 3423SOL    HW110287   4.478   2.858   0.735
 3423SOL    HW210288   4.336   2.931   0.703
 3424SOL     OW10289   4.410   3.023   1.803
 3424SOL    HW110290   4.470   3.102   1.817
 3424SOL    HW210291   4.324   3.054   1.762
 3425SOL     OW10292   4.059   3.297   1.061
 3425SOL    HW110293   3.981   3.266   1.008
 3425SOL    HW210294   4.117   3.355   1.004
 3426SOL     OW10295   4.162   2.254   1.499
 3426SOL    HW110296   4.244   2.198   1.508
 3426SOL    HW210297   4.081   2.196   1.503
 3427SOL     OW10298   3.955   3.575   0.483
 3427SOL    HW110299   3.989   3.652   0.537
 3427SOL    HW210300   3.999   3.575   0.393
 3428SOL     OW10301   4.851   3.203   1.690
 3428SOL    HW110302   4.898   3.203   1.778
 3428SOL    HW210303   4.803   3.116   1.679
 3429SOL     OW10304   3.954   3.296   0.538
 3429SOL    HW110305   3.928   3.392   0.538
 3429SOL    HW210306   3.883   3.242   0.583
 3430SOL     OW10307   3.964   2.953   0.886
 3430SOL    HW110308   3.978   2.869   0.938
 3430SOL    HW210309   3.909   3.017   0.941
 3431SOL     OW10310   4.344   3.648   1.439
 3431SOL    HW110311   4.252   3.631   1.474
 3431SOL    HW210312   4.372   3.740   1.465
 3432SOL     OW10313   4.330   2.826   0.123
 3432SOL    HW110314   4.337   2.910   0.069
 3432SOL    HW210315   4.376   2.839   0.211
 3433SOL     OW10316   3.846   2.505   0.563
 3433SOL    HW110317   3.801   2.417   0.580
 3433SOL    HW210318   3.845   2.559   0.647
 3434SOL     OW10319   3.751   3.458   0.117
 3434SOL    HW110320   3.732   3.362   0.138
 3434SOL    HW210321   3.718   3.516   0.192
 3435SOL     OW10322   3.837   2.599   1.597
 3435SOL    HW110323   3.925   2.586   1.642
 3435SOL    HW210324   3.824   2.696   1.575
 3436SOL     OW10325   4.337   3.227   0.726
 3436SOL    HW110326   4.288   3.140   0.735
 3436SOL    HW210327   4.314   3.270   0.639
 3437SOL     OW10328   4.533   1.866   0.502
 3437SOL    HW110329   4.573   1.957   0.493
 3437SOL    HW210330   4.433   1.874   0.508
 3438SOL     OW10331   3.921   2.838   1.264
 3438SOL    HW110332   4.010   2.793   1.250
 3438SOL    HW210333   3.848   2.773   1.245
 3439SOL     OW10334   4.041   2.113   1.801
 3439SOL    HW110335   4.112   2.184   1.807
 3439SOL    HW210336   3.953   2.152   1.829
 3440SOL     OW10337   4.322   2.591   0.270
 3440SOL    HW110338   4.346   2.660   0.202
 3440SOL    HW210339   4.244   2.624   0.324
 3441SOL     OW10340   4.531   2.467   1.465
 3441SOL    HW110341   4.484   2.464   1.554
 3441SOL    HW210342   4.480   2.412   1.399
 3442SOL     OW10343   4.697   2.752   1.572
 3442SOL    HW110344   4.743   2.668   1.543
 3442SOL    HW210345   4.641   2.786   1.497
 3443SOL     OW10346   4.715   2.272   1.242
 3443SOL    HW110347   4.638   2.306   1.296
 3443SOL    HW210348   4.681   2.221   1.163
 3444SOL     OW10349   4.765   2.563   0.429
 3444SOL    HW110350   4.791   2.559   0.525
 3444SOL    HW210351   4.680   2.512   0.415
 3445SOL     OW10352   3.800   2.673   0.789
 3445SOL    HW110353   3.899   2.661   0.798
 3445SOL    HW210354   3.776   2.768   0.810
 3446SOL     OW10355   3.854   3.683   1.571
 3446SOL    HW110356   3.844   3.668   1.670
 3446SOL    HW210357   3.768   3.719   1.535
 3447SOL     OW10358   4.589   2.210   0.195
 3447SOL    HW110359   4.648   2.273   0.146
 3447SOL    HW210360   4.608   2.116   0.166
 3448SOL     OW10361   4.274   2.058   0.885
 3448SOL    HW110362   4.269   2.053   0.985
 3448SOL    HW210363   4.276   2.154   0.856
 3449SOL     OW10364   4.732   3.318   0.477
 3449SOL    HW110365   4.686   3.390   0.425
 3449SOL    HW210366   4.728   3.338   0.575
 3450SOL     OW10367   4.075   3.663   0.853
 3450SOL    HW110368   4.125   3.577   0.859
 3450SOL    HW210369   4.140   3.740   0.850
 3451SOL     OW10370   4.951   3.412   1.506
 3451SOL    HW110371   4.957   3.335   1.570
 3451SOL    HW210372   4.899   3.386   1.426
 3452SOL     OW10373   4.045   2.805   0.242
 3452SOL    HW110374   4.127   2.844   0.200
 3452SOL    HW210375   4.018   2.723   0.193
 3453SOL     OW10376   4.185   3.128   1.727
 3453SOL    HW110377   4.135   3.129   1.641
 3453SOL    HW210378   4.122   3.110   1.803
 3454SOL     OW10379   4.835   3.638   0.237
 3454SOL    HW110380   4.775   3.576   0.287
 3454SOL    HW210381   4.866   3.594   0.152
 3455SOL     OW10382   3.926   2.147   1.498
 3455SOL    HW110383   3.846   2.207   1.485
 3455SOL    HW210384   3.916   2.098   1.584
 3456SOL     OW10385   4.188   3.605   0.323
 3456SOL    HW110386   4.221   3.644   0.409
 3456SOL    HW210387   4.264   3.598   0.258
 3457SOL     OW10388   3.973   3.647   1.241
 3457SOL    HW110389   4.030   3.582   1.291
 3457SOL    HW210390   3.957   3.614   1.148
 3458SOL     OW10391   4.664   3.560   0.904
 3458SOL    HW110392   4.744   3.503   0.925
 3458SOL    HW210393   4.615   3.520   0.827
 3459SOL     OW10394   4.106   2.562   0.480
 3459SOL    HW110395   4.151   2.472   0.477
 3459SOL    HW210396   4.012   2.551   0.513
 3460SOL     OW10397   4.338   1.984   0.117
 3460SOL    HW110398   4.436   1.962   0.124
 3460SOL    HW210399   4.307   1.967   0.024
 3461SOL     OW10400   4.505   2.126   1.749
 3461SOL    HW110401   4.572   2.065   1.792
 3461SOL    HW210402   4.432   2.145   1.814
 3462SOL     OW10403   4.612   3.376   1.195
 3462SOL    HW110404   4.589   3.351   1.101
 3462SOL    HW210405   4.673   3.307   1.234
 3463SOL     OW10406   4.527   3.264   0.924
 3463SOL    HW110407   4.617   3.278   0.882
 3463SOL    HW210408   4.456   3.266   0.853
 3464SOL     OW10409   4.646   2.365   0.899
 3464SOL    HW110410   4.621   2.356   0.803
 3464SOL    HW210411   4.694   2.283   0.930
 3465SOL     OW10412   4.263   1.926   0.512
 3465SOL    HW110413   4.182   1.927   0.570
 3465SOL    HW210414   4.266   2.009   0.457
 3466SOL     OW10415   4.021   1.897   0.171
 3466SOL    HW110416   4.070   1.981   0.150
 3466SOL    HW210417   4.083   1.832   0.216
 3467SOL     OW10418   4.659   2.098   0.480
 3467SOL    HW110419   4.611   2.139   0.402
 3467SOL    HW210420   4.758   2.096   0.461
 3468SOL     OW10421   4.800   2.545   1.464
 3468SOL    HW110422   4.720   2.484   1.467
 3468SOL    HW210423   4.881   2.492   1.440
 3469SOL     OW10424   4.951   3.432   0.793
 3469SOL    HW110425   4.972   3.506   0.728
 3469SOL    HW210426   5.019   3.432   0.866
 3470SOL     OW10427   4.183   3.014   0.741
 3470SOL    HW110428   4.112   2.987   0.806
 3470SOL    HW210429   4.157   2.986   0.648
 3471SOL     OW10430   4.995   3.659   0.591
 3471SOL    HW110431   5.039   3.723   0.527
 3471SOL    HW210432   4.945   3.711   0.661
 3472SOL     OW10433   4.756   2.411   0.016
 3472SOL    HW110434   4.715   2.493  -0.023
 3472SOL    HW210435   4.820   2.437   0.089
 3473SOL     OW10436   3.802   2.418   1.386
 3473SOL    HW110437   3.894   2.417   1.345
 3473SOL    HW210438   3.796   2.492   1.453
 3474SOL     OW10439   4.285   2.084   1.147
 3474SOL    HW110440   4.323   2.000   1.184
 3474SOL    HW210441   4.197   2.103   1.191
 3475SOL     OW10442   4.590   2.316   0.642
 3475SOL    HW110443   4.558   2.388   0.580
 3475SOL    HW210444   4.614   2.235   0.589
 3476SOL     OW10445   4.741   1.901   0.753
 3476SOL    HW110446   4.669   1.906   0.684
 3476SOL    HW210447   4.717   1.832   0.822
 3477SOL     OW10448   4.212   3.247   0.174
 3477SOL    HW110449   4.125   3.232   0.221
 3477SOL    HW210450   4.195   3.273   0.079
 3478SOL     OW10451   4.251   2.118   0.328
 3478SOL    HW110452   4.278   2.059   0.253
 3478SOL    HW210453   4.251   2.213   0.297
 3479SOL     OW10454   4.788   3.209   1.340
 3479SOL    HW110455   4.708   3.186   1.395
 3479SOL    HW210456   4.871   3.183   1.389
 3480SOL     OW10457   4.835   3.057   1.100
 3480SOL    HW110458   4.795   3.101   1.181
 3480SOL    HW210459   4.794   3.094   1.017
 3481SOL     OW10460   4.639   1.951   1.402
 3481SOL    HW110461   4.664   1.931   1.307
 3481SOL    HW210462   4.711   2.007   1.444
 3482SOL     OW10463   4.704   2.978   1.719
 3482SOL    HW110464   4.605   2.984   1.729
 3482SOL    HW210465   4.727   2.898   1.663
 3483SOL     OW10466   4.429   2.912   0.368
 3483SOL    HW110467   4.415   2.919   0.467
 3483SOL    HW210468   4.513   2.861   0.350
 3484SOL     OW10469   4.134   2.675   1.251
 3484SOL    HW110470   4.220   2.687   1.301
 3484SOL    HW210471   4.092   2.588   1.278
 3485SOL     OW10472   3.788   3.426   1.331
 3485SOL    HW110473   3.742   3.508   1.297
 3485SOL    HW210474   3.886   3.445   1.340
 3486SOL     OW10475   4.091   2.962   0.501
 3486SOL    HW110476   4.084   3.045   0.445
 3486SOL    HW210477   4.095   2.882   0.441
 3487SOL     OW10478   4.290   2.399   0.865
 3487SOL    HW110479   4.302   2.465   0.791
 3487SOL    HW210480   4.336   2.433   0.948
 3488SOL     OW10481   4.976   3.210   0.388
 3488SOL    HW110482   5.026   3.287   0.428
 3488SOL    HW210483   4.881   3.212   0.420
 3489SOL     OW10484   4.078   3.372   1.329
 3489SOL    HW110485   4.057   3.328   1.242
 3489SOL    HW210486   4.175   3.398   1.332
 3490SOL     OW10487   4.126   2.613   1.598
 3490SOL    HW110488   4.194   2.668   1.551
 3490SOL    HW210489   4.166   2.525   1.625
 3491SOL     OW10490   4.737   1.967   1.770
 3491SOL    HW110491   4.743   2.052   1.718
 3491SOL    HW210492   4.769   1.891   1.713
 3492SOL     OW10493   4.228   1.912   1.740
 3492SOL    HW110494   4.186   1.855   1.670
 3492SOL    HW210495   4.162   1.981   1.772
 3493SOL     OW10496   4.297   2.732   1.029
 3493SOL    HW110497   4.341   2.821   1.020
 3493SOL    HW210498   4.234   2.732   1.106
 3494SOL     OW10499   5.084   2.724   1.045
 3494SOL    HW110500   5.009   2.724   0.979
 3494SOL    HW210501   5.121   2.632   1.054
 3495SOL     OW10502   4.933   2.387   0.275
 3495SOL    HW110503   4.946   2.303   0.329
 3495SOL    HW210504   4.904   2.461   0.335
 3496SOL     OW10505   4.031   2.075   1.231
 3496SOL    HW110506   4.008   2.112   1.321
 3496SOL    HW210507   4.001   1.980   1.225
 3497SOL     OW10508   3.761   3.172   1.282
 3497SOL    HW110509   3.814   3.123   1.350
 3497SOL    HW210510   3.783   3.270   1.287
 3498SOL     OW10511   4.456   2.496   1.064
 3498SOL    HW110512   4.515   2.470   0.988
 3498SOL    HW210513   4.428   2.592   1.053
 3499SOL     OW10514   4.031   1.925   0.618
 3499SOL    HW110515   4.020   2.019   0.651
 3499SOL    HW210516   4.026   1.862   0.695
 3500SOL     OW10517   4.747   2.628   0.966
 3500SOL    HW110518   4.762   2.649   1.062
 3500SOL    HW210519   4.717   2.533   0.957
 3501SOL     OW10520   4.704   3.435   1.700
 3501SOL    HW110521   4.684   3.479   1.612
 3501SOL    HW210522   4.743   3.344   1.684
 3502SOL     OW10523   4.074   2.760   1.804
 3502SOL    HW110524   4.150   2.804   1.852
 3502SOL    HW210525   4.109   2.713   1.722
 3503SOL     OW10526   4.792   3.195   0.849
 3503SOL    HW110527   4.799   3.111   0.794
 3503SOL    HW210528   4.854   3.264   0.813
 3504SOL     OW10529   4.043   2.672   0.949
 3504SOL    HW110530   4.136   2.708   0.954
 3504SOL    HW210531   4.037   2.587   1.001
 3505SOL     OW10532   4.063   2.371   1.006
 3505SOL    HW110533   4.011   2.288   0.989
 3505SOL    HW210534   4.140   2.376   0.942
 3506SOL     OW10535   4.862   2.242   1.678
 3506SOL    HW110536   4.817   2.305   1.742
 3506SOL    HW210537   4.955   2.273   1.661
 3507SOL     OW10538   4.884   2.069   1.477
 3507SOL    HW110539   4.884   2.133   1.554
 3507SOL    HW210540   4.912   2.117   1.394
 3508SOL     OW10541   3.732   3.188   0.200
 3508SOL    HW110542   3.639   3.209   0.169
 3508SOL    HW210543   3.742   3.089   0.213
 3509SOL     OW10544   3.812   3.663   0.927
 3509SOL    HW110545   3.770   3.577   0.900
 3509SOL    HW210546   3.906   3.666   0.893
 3510SOL     OW10547   4.228   3.430   0.910
 3510SOL    HW110548   4.294   3.504   0.919
 3510SOL    HW210549   4.272   3.351   0.868
 3511SOL     OW10550   4.726   2.658   1.238
 3511SOL    HW110551   4.767   2.626   1.324
 3511SOL    HW210552   4.630   2.631   1.235
 3512SOL     OW10553   3.764   2.406   1.114
 3512SOL    HW110554   3.849   2.373   1.073
 3512SOL    HW210555   3.777   2.421   1.212
 3513SOL     OW10556   3.913   2.382   1.722
 3513SOL    HW110557   3.972   2.342   1.652
 3513SOL    HW210558   3.855   2.453   1.681
 3514SOL     OW10559   4.539   2.434   0.325
 3514SOL    HW110560   4.546   2.345   0.279
 3514SOL    HW210561   4.445   2.468   0.317
 3515SOL     OW10562   3.976   3.426   1.744
 3515SOL    HW110563   3.946   3.483   1.820
 3515SOL    HW210564   3.969   3.329   1.770
 3516SOL     OW10565   4.395   2.326   1.269
 3516SOL    HW110566   4.361   2.237   1.239
 3516SOL    HW210567   4.421   2.380   1.189
 3517SOL     OW10568   4.654   3.540   1.465
 3517SOL    HW110569   4.630   3.522   1.370
 3517SOL    HW210570   4.684   3.634   1.475
 3518SOL     OW10571   4.197   2.362   0.191
 3518SOL    HW110572   4.258   2.442   0.195
 3518SOL    HW210573   4.102   2.393   0.198
 3519SOL     OW10574   3.883   2.999   1.466
 3519SOL    HW110575   3.905   2.938   1.542
 3519SOL    HW210576   3.893   2.950   1.380
 3520SOL     OW10577   4.976   3.593   1.128
 3520SOL    HW110578   5.060   3.598   1.074
 3520SOL    HW210579   4.953   3.497   1.146
 3521SOL     OW10580   3.807   3.120   1.022
 3521SOL    HW110581   3.802   3.119   1.122
 3521SOL    HW210582   3.724   3.079   0.984
 3522SOL     OW10583   4.412   3.524   1.716
 3522SOL    HW110584   4.356   3.605   1.725
 3522SOL    HW210585   4.464   3.528   1.630
 3523SOL     OW10586   4.627   1.948   0.133
 3523SOL    HW110587   4.678   1.949   0.047
 3523SOL    HW210588   4.683   1.906   0.204
 3524SOL     OW10589   3.854   3.656   1.851
 3524SOL    HW110590   3.813   3.582   1.904
 3524SOL    HW210591   3.918   3.707   1.909
 3525SOL     OW10592   4.554   3.135   1.422
 3525SOL    HW110593   4.549   3.168   1.517
 3525SOL    HW210594   4.468   3.154   1.376
 3526SOL     OW10595   4.396   3.478   0.154
 3526SOL    HW110596   4.405   3.488   0.055
 3526SOL    HW210597   4.356   3.389   0.175
 3527SOL     OW10598   3.987   2.188   0.720
 3527SOL    HW110599   3.908   2.239   0.686
 3527SOL    HW210600   3.978   2.173   0.818
 3528SOL     OW10601   4.546   2.864   1.372
 3528SOL    HW110602   4.586   2.863   1.280
 3528SOL    HW210603   4.556   2.956   1.412
 3529SOL     OW10604   4.640   2.772   0.291
 3529SOL    HW110605   4.703   2.810   0.223
 3529SOL    HW210606   4.680   2.689   0.330
 3530SOL     OW10607   4.096   3.150   1.490
 3530SOL    HW110608   4.083   3.243   1.456
 3530SOL    HW210609   4.012   3.098   1.477
 3531SOL     OW10610   4.763   2.960   0.696
 3531SOL    HW110611   4.693   2.913   0.750
 3531SOL    HW210612   4.822   2.892   0.653
 3532SOL     OW10613   4.738   2.098   0.971
 3532SOL    HW110614   4.730   2.062   0.878
 3532SOL    HW210615   4.736   2.022   1.036
 3533SOL     OW10616   4.314   3.349   0.491
 3533SOL    HW110617   4.356   3.291   0.421
 3533SOL    HW210618   4.270   3.428   0.447
 3534SOL     OW10619   3.979   3.210   0.290
 3534SOL    HW110620   3.883   3.211   0.263
 3534SOL    HW210621   3.991   3.263   0.374
 3535SOL     OW10622   3.829   2.875   1.726
 3535SOL    HW110623   3.752   2.842   1.780
 3535SOL    HW210624   3.914   2.845   1.768
 3536SOL     OW10625   4.396   2.065   1.489
 3536SOL    HW110626   4.486   2.049   1.449
 3536SOL    HW210627   4.404   2.070   1.588
 3537SOL     OW10628   3.796   2.028   0.318
 3537SOL    HW110629   3.779   2.111   0.264
 3537SOL    HW210630   3.886   1.991   0.296
 3538SOL     OW10631   4.337   2.704   1.431
 3538SOL    HW110632   4.393   2.785   1.414
 3538SOL    HW210633   4.396   2.624   1.434
 3539SOL     OW10634   4.440   2.427   1.708
 3539SOL    HW110635   4.459   2.492   1.782
 3539SOL    HW210636   4.500   2.347   1.717
 3540SOL     OW10637   4.114   3.603   1.560
 3540SOL    HW110638   4.023   3.644   1.558
 3540SOL    HW210639   4.107   3.509   1.592
 3541SOL     OW10640   4.318   2.607   0.652
 3541SOL    HW110641   4.368   2.692   0.633
 3541SOL    HW210642   4.230   2.609   0.604
 3542SOL     OW10643   4.583   3.236   0.016
 3542SOL    HW110644   4.537   3.251   0.104
 3542SOL    HW210645   4.627   3.321  -0.014
 3543SOL     OW10646   4.385   3.652   0.953
 3543SOL    HW110647   4.339   3.740   0.940
 3543SOL    HW210648   4.484   3.664   0.946
 3544SOL     OW10649   4.583   2.818   0.861
 3544SOL    HW110650   4.637   2.749   0.909
 3544SOL    HW210651   4.551   2.887   0.927
 3545SOL     OW10652   4.807   2.846   0.087
 3545SOL    HW110653   4.784   2.899   0.005
 3545SOL    HW210654   4.888   2.790   0.068
 3546SOL     OW10655   3.945   3.176   1.844
 3546SOL    HW110656   3.880   3.103   1.823
 3546SOL    HW210657   3.949   3.190   1.942
 3547SOL     OW10658   3.803   3.102   0.653
 3547SOL    HW110659   3.802   3.055   0.741
 3547SOL    HW210660   3.885   3.074   0.602
 3548SOL     OW10661   4.396   3.253   1.624
 3548SOL    HW110662   4.318   3.203   1.662
 3548SOL    HW210663   4.393   3.348   1.655
 3549SOL     OW10664   4.152   2.286   0.520
 3549SOL    HW110665   4.182   2.214   0.458
 3549SOL    HW210666   4.113   2.246   0.603
 3550SOL     OW10667   4.041   2.409   1.280
 3550SOL    HW110668   4.079   2.350   1.352
 3550SOL    HW210669   4.081   2.383   1.192
 3551SOL     OW10670   4.536   3.448   0.687
 3551SOL    HW110671   4.568   3.458   0.593
 3551SOL    HW210672   4.457   3.386   0.689
 3552SOL     OW10673   4.725   1.896   1.154
 3552SOL    HW110674   4.662   1.824   1.123
 3552SOL    HW210675   4.818   1.860   1.154
 3553SOL     OW10676   4.494   3.192   0.301
 3553SOL    HW110677   4.448   3.105   0.318
 3553SOL    HW210678   4.585   3.189   0.342
 3554SOL     OW10679   4.342   3.429   1.284
 3554SOL    HW110680   4.337   3.511   1.341
 3554SOL    HW210681   4.431   3.426   1.239
 3555SOL     OW10682   5.076   1.914   0.168
 3555SOL    HW110683   5.111   1.873   0.084
 3555SOL    HW210684   4.986   1.876   0.188
 3556SOL     OW10685   4.599   3.508   0.337
 3556SOL    HW110686   4.522   3.473   0.283
 3556SOL    HW210687   4.567   3.579   0.399
 3557SOL     OW10688   3.954   2.490   1.975
 3557SOL    HW110689   3.861   2.488   2.012
 3557SOL    HW210690   3.955   2.451   1.883
 3558SOL     OW10691   3.949   2.137   2.858
 3558SOL    HW110692   3.984   2.120   2.950
 3558SOL    HW210693   3.861   2.092   2.846
 3559SOL     OW10694   3.743   2.230   2.509
 3559SOL    HW110695   3.661   2.273   2.548
 3559SOL    HW210696   3.715   2.157   2.446
 3560SOL     OW10697   4.293   3.137   3.027
 3560SOL    HW110698   4.200   3.130   2.990
 3560SOL    HW210699   4.304   3.226   3.071
 3561SOL     OW10700   4.859   2.565   2.579
 3561SOL    HW110701   4.916   2.643   2.554
 3561SOL    HW210702   4.799   2.591   2.655
 3562SOL     OW10703   4.492   3.006   2.885
 3562SOL    HW110704   4.414   3.023   2.945
 3562SOL    HW210705   4.526   3.093   2.849
 3563SOL     OW10706   4.574   2.660   3.685
 3563SOL    HW110707   4.570   2.736   3.750
 3563SOL    HW210708   4.596   2.696   3.594
 3564SOL     OW10709   4.409   2.874   2.527
 3564SOL    HW110710   4.478   2.858   2.597
 3564SOL    HW210711   4.336   2.931   2.565
 3565SOL     OW10712   4.410   3.023   3.665
 3565SOL    HW110713   4.470   3.102   3.679
 3565SOL    HW210714   4.324   3.054   3.624
 3566SOL     OW10715   4.059   3.297   2.923
 3566SOL    HW110716   3.981   3.266   2.870
 3566SOL    HW210717   4.117   3.355   2.866
 3567SOL     OW10718   4.162   2.254   3.361
 3567SOL    HW110719   4.244   2.198   3.370
 3567SOL    HW210720   4.081   2.196   3.365
 3568SOL     OW10721   3.955   3.575   2.345
 3568SOL    HW110722   3.989   3.652   2.399
 3568SOL    HW210723   3.999   3.575   2.255
 3569SOL     OW10724   4.851   3.203   3.552
 3569SOL    HW110725   4.898   3.203   3.640
 3569SOL    HW210726   4.803   3.116   3.541
 3570SOL     OW10727   3.954   3.296   2.400
 3570SOL    HW110728   3.928   3.392   2.400
 3570SOL    HW210729   3.883   3.242   2.445
 3571SOL     OW10730   3.964   2.953   2.748
 3571SOL    HW110731   3.978   2.869   2.800
 3571SOL    HW210732   3.909   3.017   2.803
 3572SOL     OW10733   4.344   3.648   3.301
 3572SOL    HW110734   4.252   3.631   3.336
 3572SOL    HW210735   4.372   3.740   3.327
 3573SOL     OW10736   4.330   2.826   1.985
 3573SOL    HW110737   4.337   2.910   1.931
 3573SOL    HW210738   4.376   2.839   2.073
 3574SOL     OW10739   3.846   2.505   2.425
 3574SOL    HW110740   3.801   2.417   2.442
 3574SOL    HW210741   3.845   2.559   2.509
 3575SOL     OW10742   3.751   3.458   1.979
 3575SOL    HW110743   3.732   3.362   2.000
 3575SOL    HW210744   3.718   3.516   2.054
 3576SOL     OW10745   3.837   2.599   3.459
 3576SOL    HW110746   3.925   2.586   3.504
 3576SOL    HW210747   3.824   2.696   3.437
 3577SOL     OW10748   4.337   3.227   2.588
 3577SOL    HW110749   4.288   3.140   2.597
 3577SOL    HW210750   4.314   3.270   2.501
 3578SOL     OW10751   4.533   1.866   2.364
 3578SOL    HW110752   4.573   1.957   2.355
 3578SOL    HW210753   4.433   1.874   2.370
 3579SOL     OW10754   3.921   2.838   3.126
 3579SOL    HW110755   4.010   2.793   3.112
 3579SOL    HW210756   3.848   2.773   3.107
 3580SOL     OW10757   4.041   2.113   3.663
 3580SOL    HW110758   4.112   2.184   3.669
 3580SOL    HW210759   3.953   2.152   3.691
 3581SOL     OW10760   4.322   2.591   2.132
 3581SOL    HW110761   4.346   2.660   2.064
 3581SOL    HW210762   4.244   2.624   2.186
 3582SOL     OW10763   4.531   2.467   3.327
 3582SOL    HW110764   4.484   2.464   3.416
 3582SOL    HW210765   4.480   2.412   3.261
 3583SOL     OW10766   4.697   2.752   3.434
 3583SOL    HW110767   4.743   2.668   3.405
 3583SOL    HW210768   4.641   2.786   3.359
 3584SOL     OW10769   4.715   2.272   3.104
 3584SOL    HW110770   4.638   2.306   3.158
 3584SOL    HW210771   4.681   2.221   3.025
 3585SOL     OW10772   4.765   2.563   2.291
 3585SOL    HW110773   4.791   2.559   2.387
 3585SOL    HW210774   4.680   2.512   2.277
 3586SOL     OW10775   3.800   2.673   2.651
 3586SOL    HW110776   3.899   2.661   2.660
 3586SOL    HW210777   3.776   2.768   2.672
 3587SOL     OW10778   3.854   3.683   3.433
 3587SOL    HW110779   3.844   3.668   3.532
 3587SOL    HW210780   3.768   3.719   3.397
 3588SOL     OW10781   4.589   2.210   2.057
 3588SOL    HW110782   4.648   2.273   2.008
 3588SOL    HW210783   4.608   2.116   2.028
 3589SOL     OW10784   4.274   2.058   2.747
 3589SOL    HW110785   4.269   2.053   2.847
 3589SOL    HW210786   4.276   2.154   2.718
 3590SOL     OW10787   4.732   3.318   2.339
 3590SOL    HW110788   4.686   3.390   2.287
 3590SOL    HW210789   4.728   3.338   2.437
 3591SOL     OW10790   4.075   3.663   2.715
 3591SOL    HW110791   4.125   3.577   2.721
 3591SOL    HW210792   4.140   3.740   2.712
 3592SOL     OW10793   4.951   3.412   3.368
 3592SOL    HW110794   4.957   3.335   3.432
 3592SOL    HW210795   4.899   3.386   3.288
 3593SOL     OW10796   4.045   2.805   2.104
 3593SOL    HW110797   4.127   2.844   2.062
 3593SOL    HW210798   4.018   2.723   2.055
 3594SOL     OW10799   4.185   3.128   3.589
 3594SOL    HW110800   4.135   3.129   3.503
 3594SOL    HW210801   4.122   3.110   3.665
 3595SOL     OW10802   4.835   3.638   2.099
 3595SOL    HW110803   4.775   3.576   2.149
 3595SOL    HW210804   4.866   3.594   2.014
 3596SOL     OW10805   3.926   2.147   3.360
 3596SOL    HW110806   3.846   2.207   3.347
 3596SOL    HW210807   3.916   2.098   3.446
 3597SOL     OW10808   4.188   3.605   2.185
 3597SOL    HW110809   4.221   3.644   2.271
 3597SOL    HW210810   4.264   3.598   2.120
 3598SOL     OW10811   3.973   3.647   3.103
 3598SOL    HW110812   4.030   3.582   3.153
 3598SOL    HW210813   3.957   3.614   3.010
 3599SOL     OW10814   4.664   3.560   2.766
 3599SOL    HW110815   4.744   3.503   2.787
 3599SOL    HW210816   4.615   3.520   2.689
 3600SOL     OW10817   4.106   2.562   2.342
 3600SOL    HW110818   4.151   2.472   2.339
 3600SOL    HW210819   4.012   2.551   2.375
 3601SOL     OW10820   4.338   1.984   1.979
 3601SOL    HW110821   4.436   1.962   1.986
 3601SOL    HW210822   4.307   1.967   1.886
 3602SOL     OW10823   4.505   2.126   3.611
 3602SOL    HW110824   4.572   2.065   3.654
 3602SOL    HW210825   4.432   2.145   3.676
 3603SOL     OW10826   4.612   3.376   3.057
 3603SOL    HW110827   4.589   3.351   2.963
 3603SOL    HW210828   4.673   3.307   3.096
 3604SOL     OW10829   4.527   3.264   2.786
 3604SOL    HW110830   4.617   3.278   2.744
 3604SOL    HW210831   4.456   3.266   2.715
 3605SOL     OW10832   4.646   2.365   2.761
 3605SOL    HW110833   4.621   2.356   2.665
 3605SOL    HW210834   4.694   2.283   2.792
 3606SOL     OW10835   4.263   1.926   2.374
 3606SOL    HW110836   4.182   1.927   2.432
 3606SOL    HW210837   4.266   2.009   2.319
 3607SOL     OW10838   4.021   1.897   2.033
 3607SOL    HW110839   4.070   1.981   2.012
 3607SOL    HW210840   4.083   1.832   2.078
 3608SOL     OW10841   4.659   2.098   2.342
 3608SOL    HW110842   4.611   2.139   2.264
 3608SOL    HW210843   4.758   2.096   2.323
 3609SOL     OW10844   4.800   2.545   3.326
 3609SOL    HW110845   4.720   2.484   3.329
 3609SOL    HW210846   4.881   2.492   3.302
 3610SOL     OW10847   4.951   3.432   2.655
 3610SOL    HW110848   4.972   3.506   2.590
 3610SOL    HW210849   5.019   3.432   2.728
 3611SOL     OW10850   4.183   3.014   2.603
 3611SOL    HW110851   4.112   2.987   2.668
 3611SOL    HW210852   4.157   2.986   2.510
 3612SOL     OW10853   4.995   3.659   2.453
 3612SOL    HW110854   5.039   3.723   2.389
 3612SOL    HW210855   4.945   3.711   2.523
 3613SOL     OW10856   4.756   2.411   1.878
 3613SOL    HW110857   4.715   2.493   1.839
 3613SOL    HW210858   4.820   2.437   1.951
 3614SOL     OW10859   3.802   2.418   3.248
 3614SOL    HW110860   3.894   2.417   3.207
 3614SOL    HW210861   3.796   2.492   3.315
 3615SOL     OW10862   4.285   2.084   3.009
 3615SOL    HW110863   4.323   2.000   3.046
 3615SOL    HW210864   4.197   2.103   3.053
 3616SOL     OW10865   4.590   2.316   2.504
 3616SOL    HW110866   4.558   2.388   2.442
 3616SOL    HW210867   4.614   2.235   2.451
 3617SOL     OW10868   4.741   1.901   2.615
 3617SOL    HW110869   4.669   1.906   2.546
 3617SOL    HW210870   4.717   1.832   2.684
 3618SOL     OW10871   4.212   3.247   2.036
 3618SOL    HW110872   4.125   3.232   2.083
 3618SOL    HW210873   4.195   3.273   1.941
 3619SOL     OW10874   4.251   2.118   2.190
 3619SOL    HW110875   4.278   2.059   2.115
 3619SOL    HW210876   4.251   2.213   2.159
 3620SOL     OW10877   4.788   3.209   3.202
 3620SOL    HW110878   4.708   3.186   3.257
 3620SOL    HW210879   4.871   3.183   3.251
 3621SOL     OW10880   4.835   3.057   2.962
 3621SOL    HW110881   4.795   3.101   3.043
 3621SOL    HW210882   4.794   3.094   2.879
 3622SOL     OW10883   4.639   1.951   3.264
 3622SOL    HW110884   4.664   1.931   3.169
 3622SOL    HW210885   4.711   2.007   3.306
 3623SOL     OW10886   4.704   2.978   3.581
 3623SOL    HW110887   4.605   2.984   3.591
 3623SOL    HW210888   4.727   2.898   3.525
 3624SOL     OW10889   4.429   2.912   2.230
 3624SOL    HW110890   4.415   2.919   2.329
 3624SOL    HW210891   4.513   2.861   2.212
 3625SOL     OW10892   4.134   2.675   3.113
 3625SOL    HW110893   4.220   2.687   3.163
 3625SOL    HW210894   4.092   2.588   3.140
 3626SOL     OW10895   3.788   3.426   3.193
 3626SOL    HW110896   3.742   3.508   3.159
 3626SOL    HW210897   3.886   3.445   3.202
 3627SOL     OW10898   4.091   2.962   2.363
 3627SOL    HW110899   4.084   3.045   2.307
 3627SOL    HW210900   4.095   2.882   2.303
 3628SOL     OW10901   4.290   2.399   2.727
 3628SOL    HW110902   4.302   2.465   2.653
 3628SOL    HW210903   4.336   2.433   2.810
 3629SOL     OW10904   4.976   3.210   2.250
 3629SOL    HW110905   5.026   3.287   2.290
 3629SOL    HW210906   4.881   3.212   2.282
 3630SOL     OW10907   4.078   3.372   3.191
 3630SOL    HW110908   4.057   3.328   3.104
 3630SOL    HW210909   4.175   3.398   3.194
 3631SOL     OW10910   4.126   2.613   3.460
 3631SOL    HW110911   4.194   2.668   3.413
 3631SOL    HW210912   4.166   2.525   3.487
 3632SOL     OW10913   4.737   1.967   3.632
 3632SOL    HW110914   4.743   2.052   3.580
 3632SOL    HW210915   4.769   1.891   3.575
 3633SOL     OW10916   4.228   1.912   3.602
 3633SOL    HW110917   4.186   1.855   3.532
 3633SOL    HW210918   4.162   1.981   3.634
 3634SOL     OW10919   4.297   2.732   2.891
 3634SOL    HW110920   4.341   2.821   2.882
 3634SOL    HW210921   4.234   2.732   2.968
 3635SOL     OW10922   5.084   2.724   2.907
 3635SOL    HW110923   5.009   2.724   2.841
 3635SOL    HW210924   5.121   2.632   2.916
 3636SOL     OW10925   4.933   2.387   2.137
 3636SOL    HW110926   4.946   2.303   2.191
 3636SOL    HW210927   4.904   2.461   2.197
 3637SOL     OW10928   4.031   2.075   3.093
 3637SOL    HW110929   4.008   2.112   3.183
 3637SOL    HW210930   4.001   1.980   3.087
 3638SOL     OW10931   3.761   3.172   3.144
 3638SOL    HW110932   3.814   3.123   3.212
 3638SOL    HW210933   3.783   3.270   3.149
 3639SOL     OW10934   4.456   2.496   2.926
 3639SOL    HW110935   4.515   2.470   2.850
 3639SOL    HW210936   4.428   2.592   2.915
 3640SOL     OW10937   4.031   1.925   2.480
 3640SOL    HW110938   4.020   2.019   2.513
 3640SOL    HW210939   4.026   1.862   2.557
 3641SOL     OW10940   4.747   2.628   2.828
 3641SOL    HW110941   4.762   2.649   2.924
 3641SOL    HW210942   4.717   2.533   2.819
 3642SOL     OW10943   4.704   3.435   3.562
 3642SOL    HW110944   4.684   3.479   3.474
 3642SOL    HW210945   4.743   3.344   3.546
 3643SOL     OW10946   4.074   2.760   3.666
 3643SOL    HW110947   4.150   2.804   3.714
 3643SOL    HW210948   4.109   2.713   3.584
 3644SOL     OW10949   5.264   2.136   1.987
 3644SOL    HW110950   5.203   2.061   2.010
 3644SOL    HW210951   5.286   2.188   2.070
 3645SOL     OW10952   4.792   3.195   2.711
 3645SOL    HW110953   4.799   3.111   2.656
 3645SOL    HW210954   4.854   3.264   2.675
 3646SOL     OW10955   4.043   2.672   2.811
 3646SOL    HW110956   4.136   2.708   2.816
 3646SOL    HW210957   4.037   2.587   2.863
 3647SOL     OW10958   4.063   2.371   2.868
 3647SOL    HW110959   4.011   2.288   2.851
 3647SOL    HW210960   4.140   2.376   2.804
 3648SOL     OW10961   4.862   2.242   3.540
 3648SOL    HW110962   4.817   2.305   3.604
 3648SOL    HW210963   4.955   2.273   3.523
 3649SOL     OW10964   4.884   2.069   3.339
 3649SOL    HW110965   4.884   2.133   3.416
 3649SOL    HW210966   4.912   2.117   3.256
 3650SOL     OW10967   3.732   3.188   2.062
 3650SOL    HW110968   3.639   3.209   2.031
 3650SOL    HW210969   3.742   3.089   2.075
 3651SOL     OW10970   3.812   3.663   2.789
 3651SOL    HW110971   3.770   3.577   2.762
 3651SOL    HW210972   3.906   3.666   2.755
 3652SOL     OW10973   4.228   3.430   2.772
 3652SOL    HW110974   4.294   3.504   2.781
 3652SOL    HW210975   4.272   3.351   2.730
 3653SOL     OW10976   4.726   2.658   3.100
 3653SOL    HW110977   4.767   2.626   3.186
 3653SOL    HW210978   4.630   2.631   3.097
 3654SOL     OW10979   3.764   2.406   2.976
 3654SOL    HW110980   3.849   2.373   2.935
 3654SOL    HW210981   3.777   2.421   3.074
 3655SOL     OW10982   3.913   2.382   3.584
 3655SOL    HW110983   3.972   2.342   3.514
 3655SOL    HW210984   3.855   2.453   3.543
 3656SOL     OW10985   4.539   2.434   2.187
 3656SOL    HW110986   4.546   2.345   2.141
 3656SOL    HW210987   4.445   2.468   2.179
 3657SOL     OW10988   3.976   3.426   3.606
 3657SOL    HW110989   3.946   3.483   3.682
 3657SOL    HW210990   3.969   3.329   3.632
 3658SOL     OW10991   4.395   2.326   3.131
 3658SOL    HW110992   4.361   2.237   3.101
 3658SOL    HW210993   4.421   2.380   3.051
 3659SOL     OW10994   4.654   3.540   3.327
 3659SOL    HW110995   4.630   3.522   3.232
 3659SOL    HW210996   4.684   3.634   3.337
 3660SOL     OW10997   4.197   2.362   2.053
 3660SOL    HW110998   4.258   2.442   2.057
 3660SOL    HW210999   4.102   2.393   2.060
 3661SOL     OW11000   3.883   2.999   3.328
 3661SOL    HW111001   3.905   2.938   3.404
 3661SOL    HW211002   3.893   2.950   3.242
 3662SOL     OW11003   4.976   3.593   2.990
 3662SOL    HW111004   5.060   3.598   2.936
 3662SOL    HW211005   4.953   3.497   3.008
 3663SOL     OW11006   3.807   3.120   2.884
 3663SOL    HW111007   3.802   3.119   2.984
 3663SOL    HW211008   3.724   3.079   2.846
 3664SOL     OW11009   4.412   3.524   3.578
 3664SOL    HW111010   4.356   3.605   3.587
 3664SOL    HW211011   4.464   3.528   3.492
 3665SOL     OW11012   3.854   3.656   3.713
 3665SOL    HW111013   3.813   3.582   3.766
 3665SOL    HW211014   3.918   3.707   3.771
 3666SOL     OW11015   4.554   3.135   3.284
 3666SOL    HW111016   4.549   3.168   3.379
 3666SOL    HW211017   4.468   3.154   3.238
 3667SOL     OW11018   4.396   3.478   2.016
 3667SOL    HW111019   4.405   3.488   1.917
 3667SOL    HW211020   4.356   3.389   2.037
 3668SOL     OW11021   3.987   2.188   2.582
 3668SOL    HW111022   3.908   2.239   2.548
 3668SOL    HW211023   3.978   2.173   2.680
 3669SOL     OW11024   4.546   2.864   3.234
 3669SOL    HW111025   4.586   2.863   3.142
 3669SOL    HW211026   4.556   2.956   3.274
 3670SOL     OW11027   4.640   2.772   2.153
 3670SOL    HW111028   4.703   2.810   2.085
 3670SOL    HW211029   4.680   2.689   2.192
 3671SOL     OW11030   4.096   3.150   3.352
 3671SOL    HW111031   4.083   3.243   3.318
 3671SOL    HW211032   4.012   3.098   3.339
 3672SOL     OW11033   4.763   2.960   2.558
 3672SOL    HW111034   4.693   2.913   2.612
 3672SOL    HW211035   4.822   2.892   2.515
 3673SOL     OW11036   4.738   2.098   2.833
 3673SOL    HW111037   4.730   2.062   2.740
 3673SOL    HW211038   4.736   2.022   2.898
 3674SOL     OW11039   4.314   3.349   2.353
 3674SOL    HW111040   4.356   3.291   2.283
 3674SOL    HW211041   4.270   3.428   2.309
 3675SOL     OW11042   3.979   3.210   2.152
 3675SOL    HW111043   3.883   3.211   2.125
 3675SOL    HW211044   3.991   3.263   2.236
 3676SOL     OW11045   3.829   2.875   3.588
 3676SOL    HW111046   3.752   2.842   3.642
 3676SOL    HW211047   3.914   2.845   3.630
 3677SOL     OW11048   4.396   2.065   3.351
 3677SOL    HW111049   4.486   2.049   3.311
 3677SOL    HW211050   4.404   2.070   3.450
 3678SOL     OW11051   3.799   2.207   1.895
 3678SOL    HW111052   3.707   2.179   1.866
 3678SOL    HW211053   3.830   2.284   1.839
 3679SOL     OW11054   3.796   2.028   2.180
 3679SOL    HW111055   3.779   2.111   2.126
 3679SOL    HW211056   3.886   1.991   2.158
 3680SOL     OW11057   4.337   2.704   3.293
 3680SOL    HW111058   4.393   2.785   3.276
 3680SOL    HW211059   4.396   2.624   3.296
 3681SOL     OW11060   4.440   2.427   3.570
 3681SOL    HW111061   4.459   2.492   3.644
 3681SOL    HW211062   4.500   2.347   3.579
 3682SOL     OW11063   4.114   3.603   3.422
 3682SOL    HW111064   4.023   3.644   3.420
 3682SOL    HW211065   4.107   3.509   3.454
 3683SOL     OW11066   4.318   2.607   2.514
 3683SOL    HW111067   4.368   2.692   2.495
 3683SOL    HW211068   4.230   2.609   2.466
 3684SOL     OW11069   4.583   3.236   1.878
 3684SOL    HW111070   4.537   3.251   1.966
 3684SOL    HW211071   4.627   3.321   1.848
 3685SOL     OW11072   4.385   3.652   2.815
 3685SOL    HW111073   4.339   3.740   2.802
 3685SOL    HW211074   4.484   3.664   2.808
 3686SOL     OW11075   4.583   2.818   2.723
 3686SOL    HW111076   4.637   2.749   2.771
 3686SOL    HW211077   4.551   2.887   2.789
 3687SOL     OW11078   4.807   2.846   1.949
 3687SOL    HW111079   4.784   2.899   1.867
 3687SOL    HW211080   4.888   2.790   1.930
 3688SOL     OW11081   3.945   3.176   3.706
 3688SOL    HW111082   3.880   3.103   3.685
 3688SOL    HW211083   3.949   3.190   3.804
 3689SOL     OW11084   3.803   3.102   2.515
 3689SOL    HW111085   3.802   3.055   2.603
 3689SOL    HW211086   3.885   3.074   2.464
 3690SOL     OW11087   4.396   3.253   3.486
 3690SOL    HW111088   4.318   3.203   3.524
 3690SOL    HW211089   4.393   3.348   3.517
 3691SOL     OW11090   4.152   2.286   2.382
 3691SOL    HW111091   4.182   2.214   2.320
 3691SOL    HW211092   4.113   2.246   2.465
 3692SOL     OW11093   4.041   2.409   3.142
 3692SOL    HW111094   4.079   2.350   3.214
 3692SOL    HW211095   4.081   2.383   3.054
 3693SOL     OW11096   4.536   3.448   2.549
 3693SOL    HW111097   4.568   3.458   2.455
 3693SOL    HW211098   4.457   3.386   2.551
 3694SOL     OW11099   4.725   1.896   3.016
 3694SOL    HW111100   4.662   1.824   2.985
 3694SOL    HW211101   4.818   1.860   3.016
 3695SOL     OW11102   4.494   3.192   2.163
 3695SOL    HW111103   4.448   3.105   2.180
 3695SOL    HW211104   4.585   3.189   2.204
 3696SOL     OW11105   4.342   3.429   3.146
 3696SOL    HW111106   4.337   3.511   3.203
 3696SOL    HW211107   4.431   3.426   3.101
 3697SOL     OW11108   3.763   2.939   2.162
 3697SOL    HW111109   3.862   2.928   2.153
 3697SOL    HW211110   3.723   2.853   2.194
 3698SOL     OW11111   4.599   3.508   2.199
 3698SOL    HW111112   4.522   3.473   2.145
 3698SOL    HW211113   4.567   3.579   2.261
 3699SOL     OW11114   3.954   2.490   3.837
 3699SOL    HW111115   3.861   2.488   3.874
 3699SOL    HW211116   3.955   2.451   3.745
 3700SOL     OW11117   3.949   2.137   4.720
 3700SOL    HW111118   3.984   2.120   4.812
 3700SOL    HW211119   3.861   2.092   4.708
 3701SOL     OW11120   3.743   2.230   4.371
 3701SOL    HW111121   3.661   2.273   4.410
 3701SOL    HW211122   3.715   2.157   4.308
 3702SOL     OW11123   4.293   3.137   4.889
 3702SOL    HW111124   4.200   3.130   4.852
 3702SOL    HW211125   4.304   3.226   4.933
 3703SOL     OW11126   4.859   2.565   4.441
 3703SOL    HW111127   4.916   2.643   4.416
 3703SOL    HW211128   4.799   2.591   4.517
 3704SOL     OW11129   4.492   3.006   4.747
 3704SOL    HW111130   4.414   3.023   4.807
 3704SOL    HW211131   4.526   3.093   4.711
 3705SOL     OW11132   4.409   2.874   4.389
 3705SOL    HW111133   4.478   2.858   4.459
 3705SOL    HW211134   4.336   2.931   4.427
 3706SOL     OW11135   4.059   3.297   4.785
 3706SOL    HW111136   3.981   3.266   4.732
 3706SOL    HW211137   4.117   3.355   4.728
 3707SOL     OW11138   5.184   3.367   5.063
 3707SOL    HW111139   5.208   3.461   5.089
 3707SOL    HW211140   5.168   3.313   5.145
 3708SOL     OW11141   3.955   3.575   4.207
 3708SOL    HW111142   3.989   3.652   4.261
 3708SOL    HW211143   3.999   3.575   4.117
 3709SOL     OW11144   3.954   3.296   4.262
 3709SOL    HW111145   3.928   3.392   4.262
 3709SOL    HW211146   3.883   3.242   4.307
 3710SOL     OW11147   3.964   2.953   4.610
 3710SOL    HW111148   3.978   2.869   4.662
 3710SOL    HW211149   3.909   3.017   4.665
 3711SOL     OW11150   4.330   2.826   3.847
 3711SOL    HW111151   4.337   2.910   3.793
 3711SOL    HW211152   4.376   2.839   3.935
 3712SOL     OW11153   3.846   2.505   4.287
 3712SOL    HW111154   3.801   2.417   4.304
 3712SOL    HW211155   3.845   2.559   4.371
 3713SOL     OW11156   3.751   3.458   3.841
 3713SOL    HW111157   3.732   3.362   3.862
 3713SOL    HW211158   3.718   3.516   3.916
 3714SOL     OW11159   4.337   3.227   4.450
 3714SOL    HW111160   4.288   3.140   4.459
 3714SOL    HW211161   4.314   3.270   4.363
 3715SOL     OW11162   4.533   1.866   4.226
 3715SOL    HW111163   4.573   1.957   4.217
 3715SOL    HW211164   4.433   1.874   4.232
 3716SOL     OW11165   3.921   2.838   4.988
 3716SOL    HW111166   4.010   2.793   4.974
 3716SOL    HW211167   3.848   2.773   4.969
 3717SOL     OW11168   4.322   2.591   3.994
 3717SOL    HW111169   4.346   2.660   3.926
 3717SOL    HW211170   4.244   2.624   4.048
 3718SOL     OW11171   4.765   2.563   4.153
 3718SOL    HW111172   4.791   2.559   4.249
 3718SOL    HW211173   4.680   2.512   4.139
 3719SOL     OW11174   3.800   2.673   4.513
 3719SOL    HW111175   3.899   2.661   4.522
 3719SOL    HW211176   3.776   2.768   4.534
 3720SOL     OW11177   4.589   2.210   3.919
 3720SOL    HW111178   4.648   2.273   3.870
 3720SOL    HW211179   4.608   2.116   3.890
 3721SOL     OW11180   4.274   2.058   4.609
 3721SOL    HW111181   4.269   2.053   4.709
 3721SOL    HW211182   4.276   2.154   4.580
 3722SOL     OW11183   4.732   3.318   4.201
 3722SOL    HW111184   4.686   3.390   4.149
 3722SOL    HW211185   4.728   3.338   4.299
 3723SOL     OW11186   4.075   3.663   4.577
 3723SOL    HW111187   4.125   3.577   4.583
 3723SOL    HW211188   4.140   3.740   4.574
 3724SOL     OW11189   4.045   2.805   3.966
 3724SOL    HW111190   4.127   2.844   3.924
 3724SOL    HW211191   4.018   2.723   3.917
 3725SOL     OW11192   4.835   3.638   3.961
 3725SOL    HW111193   4.775   3.576   4.011
 3725SOL    HW211194   4.866   3.594   3.876
 3726SOL     OW11195   4.188   3.605   4.047
 3726SOL    HW111196   4.221   3.644   4.133
 3726SOL    HW211197   4.264   3.598   3.982
 3727SOL     OW11198   3.973   3.647   4.965
 3727SOL    HW111199   4.030   3.582   5.015
 3727SOL    HW211200   3.957   3.614   4.872
 3728SOL     OW11201   4.664   3.560   4.628
 3728SOL    HW111202   4.744   3.503   4.649
 3728SOL    HW211203   4.615   3.520   4.551
 3729SOL     OW11204   4.106   2.562   4.204
 3729SOL    HW111205   4.151   2.472   4.201
 3729SOL    HW211206   4.012   2.551   4.237
 3730SOL     OW11207   4.338   1.984   3.841
 3730SOL    HW111208   4.436   1.962   3.848
 3730SOL    HW211209   4.307   1.967   3.748
 3731SOL     OW11210   4.527   3.264   4.648
 3731SOL    HW111211   4.617   3.278   4.606
 3731SOL    HW211212   4.456   3.266   4.577
 3732SOL     OW11213   4.646   2.365   4.623
 3732SOL    HW111214   4.621   2.356   4.527
 3732SOL    HW211215   4.694   2.283   4.654
 3733SOL     OW11216   4.263   1.926   4.236
 3733SOL    HW111217   4.182   1.927   4.294
 3733SOL    HW211218   4.266   2.009   4.181
 3734SOL     OW11219   4.021   1.897   3.895
 3734SOL    HW111220   4.070   1.981   3.874
 3734SOL    HW211221   4.083   1.832   3.940
 3735SOL     OW11222   4.659   2.098   4.204
 3735SOL    HW111223   4.611   2.139   4.126
 3735SOL    HW211224   4.758   2.096   4.185
 3736SOL     OW11225   4.951   3.432   4.517
 3736SOL    HW111226   4.972   3.506   4.452
 3736SOL    HW211227   5.019   3.432   4.590
 3737SOL     OW11228   4.183   3.014   4.465
 3737SOL    HW111229   4.112   2.987   4.530
 3737SOL    HW211230   4.157   2.986   4.372
 3738SOL     OW11231   4.995   3.659   4.315
 3738SOL    HW111232   5.039   3.723   4.251
 3738SOL    HW211233   4.945   3.711   4.385
 3739SOL     OW11234   4.756   2.411   3.740
 3739SOL    HW111235   4.715   2.493   3.701
 3739SOL    HW211236   4.820   2.437   3.813
 3740SOL     OW11237   4.590   2.316   4.366
 3740SOL    HW111238   4.558   2.388   4.304
 3740SOL    HW211239   4.614   2.235   4.313
 3741SOL     OW11240   4.741   1.901   4.477
 3741SOL    HW111241   4.669   1.906   4.408
 3741SOL    HW211242   4.717   1.832   4.546
 3742SOL     OW11243   4.212   3.247   3.898
 3742SOL    HW111244   4.125   3.232   3.945
 3742SOL    HW211245   4.195   3.273   3.803
 3743SOL     OW11246   4.251   2.118   4.052
 3743SOL    HW111247   4.278   2.059   3.977
 3743SOL    HW211248   4.251   2.213   4.021
 3744SOL     OW11249   4.835   3.057   4.824
 3744SOL    HW111250   4.795   3.101   4.905
 3744SOL    HW211251   4.794   3.094   4.741
 3745SOL     OW11252   4.429   2.912   4.092
 3745SOL    HW111253   4.415   2.919   4.191
 3745SOL    HW211254   4.513   2.861   4.074
 3746SOL     OW11255   4.134   2.675   4.975
 3746SOL    HW111256   4.220   2.687   5.025
 3746SOL    HW211257   4.092   2.588   5.002
 3747SOL     OW11258   4.091   2.962   4.225
 3747SOL    HW111259   4.084   3.045   4.169
 3747SOL    HW211260   4.095   2.882   4.165
 3748SOL     OW11261   4.290   2.399   4.589
 3748SOL    HW111262   4.302   2.465   4.515
 3748SOL    HW211263   4.336   2.433   4.672
 3749SOL     OW11264   4.976   3.210   4.112
 3749SOL    HW111265   5.026   3.287   4.152
 3749SOL    HW211266   4.881   3.212   4.144
 3750SOL     OW11267   4.297   2.732   4.753
 3750SOL    HW111268   4.341   2.821   4.744
 3750SOL    HW211269   4.234   2.732   4.830
 3751SOL     OW11270   5.084   2.724   4.769
 3751SOL    HW111271   5.009   2.724   4.703
 3751SOL    HW211272   5.121   2.632   4.778
 3752SOL     OW11273   4.933   2.387   3.999
 3752SOL    HW111274   4.946   2.303   4.053
 3752SOL    HW211275   4.904   2.461   4.059
 3753SOL     OW11276   4.031   2.075   4.955
 3753SOL    HW111277   4.008   2.112   5.045
 3753SOL    HW211278   4.001   1.980   4.949
 3754SOL     OW11279   3.761   3.172   5.006
 3754SOL    HW111280   3.814   3.123   5.074
 3754SOL    HW211281   3.783   3.270   5.011
 3755SOL     OW11282   4.456   2.496   4.788
 3755SOL    HW111283   4.515   2.470   4.712
 3755SOL    HW211284   4.428   2.592   4.777
 3756SOL     OW11285   4.031   1.925   4.342
 3756SOL    HW111286   4.020   2.019   4.375
 3756SOL    HW211287   4.026   1.862   4.419
 3757SOL     OW11288   4.747   2.628   4.690
 3757SOL    HW111289   4.762   2.649   4.786
 3757SOL    HW211290   4.717   2.533   4.681
 3758SOL     OW11291   5.264   2.136   3.849
 3758SOL    HW111292   5.203   2.061   3.872
 3758SOL    HW211293   5.286   2.188   3.932
 3759SOL     OW11294   4.792   3.195   4.573
 3759SOL    HW111295   4.799   3.111   4.518
 3759SOL    HW211296   4.854   3.264   4.537
 3760SOL     OW11297   4.043   2.672   4.673
 3760SOL    HW111298   4.136   2.708   4.678
 3760SOL    HW211299   4.037   2.587   4.725
 3761SOL     OW11300   4.063   2.371   4.730
 3761SOL    HW111301   4.011   2.288   4.713
 3761SOL    HW211302   4.140   2.376   4.666
 3762SOL     OW11303   4.884   2.069   5.201
 3762SOL    HW111304   4.884   2.133   5.278
 3762SOL    HW211305   4.912   2.117   5.118
 3763SOL     OW11306   3.732   3.188   3.924
 3763SOL    HW111307   3.639   3.209   3.893
 3763SOL    HW211308   3.742   3.089   3.937
 3764SOL     OW11309   3.812   3.663   4.651
 3764SOL    HW111310   3.770   3.577   4.624
 3764SOL    HW211311   3.906   3.666   4.617
 3765SOL     OW11312   4.228   3.430   4.634
 3765SOL    HW111313   4.294   3.504   4.643
 3765SOL    HW211314   4.272   3.351   4.592
 3766SOL     OW11315   4.726   2.658   4.962
 3766SOL    HW111316   4.767   2.626   5.048
 3766SOL    HW211317   4.630   2.631   4.959
 3767SOL     OW11318   3.764   2.406   4.838
 3767SOL    HW111319   3.849   2.373   4.797
 3767SOL    HW211320   3.777   2.421   4.936
 3768SOL     OW11321   4.539   2.434   4.049
 3768SOL    HW111322   4.546   2.345   4.003
 3768SOL    HW211323   4.445   2.468   4.041
 3769SOL     OW11324   4.395   2.326   4.993
 3769SOL    HW111325   4.361   2.237   4.963
 3769SOL    HW211326   4.421   2.380   4.913
 3770SOL     OW11327   4.197   2.362   3.915
 3770SOL    HW111328   4.258   2.442   3.919
 3770SOL    HW211329   4.102   2.393   3.922
 3771SOL     OW11330   3.883   2.999   5.190
 3771SOL    HW111331   3.905   2.938   5.266
 3771SOL    HW211332   3.893   2.950   5.104
 3772SOL     OW11333   4.976   3.593   4.852
 3772SOL    HW111334   5.060   3.598   4.798
 3772SOL    HW211335   4.953   3.497   4.870
 3773SOL     OW11336   3.807   3.120   4.746
 3773SOL    HW111337   3.802   3.119   4.846
 3773SOL    HW211338   3.724   3.079   4.708
 3774SOL     OW11339   4.396   3.478   3.878
 3774SOL    HW111340   4.405   3.488   3.779
 3774SOL    HW211341   4.356   3.389   3.899
 3775SOL     OW11342   3.987   2.188   4.444
 3775SOL    HW111343   3.908   2.239   4.410
 3775SOL    HW211344   3.978   2.173   4.542
 3776SOL     OW11345   4.546   2.864   5.096
 3776SOL    HW111346   4.586   2.863   5.004
 3776SOL    HW211347   4.556   2.956   5.136
 3777SOL     OW11348   4.640   2.772   4.015
 3777SOL    HW111349   4.703   2.810   3.947
 3777SOL    HW211350   4.680   2.689   4.054
 3778SOL     OW11351   4.763   2.960   4.420
 3778SOL    HW111352   4.693   2.913   4.474
 3778SOL    HW211353   4.822   2.892   4.377
 3779SOL     OW11354   4.738   2.098   4.695
 3779SOL    HW111355   4.730   2.062   4.602
 3779SOL    HW211356   4.736   2.022   4.760
 3780SOL     OW11357   4.314   3.349   4.215
 3780SOL    HW111358   4.356   3.291   4.145
 3780SOL    HW211359   4.270   3.428   4.171
 3781SOL     OW11360   3.979   3.210   4.014
 3781SOL    HW111361   3.883   3.211   3.987
 3781SOL    HW211362   3.991   3.263   4.098
 3782SOL     OW11363   3.799   2.207   3.757
 3782SOL    HW111364   3.707   2.179   3.728
 3782SOL    HW211365   3.830   2.284   3.701
 3783SOL     OW11366   3.796   2.028   4.042
 3783SOL    HW111367   3.779   2.111   3.988
 3783SOL    HW211368   3.886   1.991   4.020
 3784SOL     OW11369   4.318   2.607   4.376
 3784SOL    HW111370   4.368   2.692   4.357
 3784SOL    HW211371   4.230   2.609   4.328
 3785SOL     OW11372   4.583   3.236   3.740
 3785SOL    HW111373   4.537   3.251   3.828
 3785SOL    HW211374   4.627   3.321   3.710
 3786SOL     OW11375   4.385   3.652   4.677
 3786SOL    HW111376   4.339   3.740   4.664
 3786SOL    HW211377   4.484   3.664   4.670
 3787SOL     OW11378   4.583   2.818   4.585
 3787SOL    HW111379   4.637   2.749   4.633
 3787SOL    HW211380   4.551   2.887   4.651
 3788SOL     OW11381   4.807   2.846   3.811
 3788SOL    HW111382   4.784   2.899   3.729
 3788SOL    HW211383   4.888   2.790   3.792
 3789SOL     OW11384   3.803   3.102   4.377
 3789SOL    HW111385   3.802   3.055   4.465
 3789SOL    HW211386   3.885   3.074   4.326
 3790SOL     OW11387   4.152   2.286   4.244
 3790SOL    HW111388   4.182   2.214   4.182
 3790SOL    HW211389   4.113   2.246   4.327
 3791SOL     OW11390   4.536   3.448   4.411
 3791SOL    HW111391   4.568   3.458   4.317
 3791SOL    HW211392   4.457   3.386   4.413
 3792SOL     OW11393   4.725   1.896   4.878
 3792SOL    HW111394   4.662   1.824   4.847
 3792SOL    HW211395   4.818   1.860   4.878
 3793SOL     OW11396   4.494   3.192   4.025
 3793SOL    HW111397   4.448   3.105   4.042
 3793SOL    HW211398   4.585   3.189   4.066
 3794SOL     OW11399   3.763   2.939   4.024
 3794SOL    HW111400   3.862   2.928   4.015
 3794SOL    HW211401   3.723   2.853   4.056
 3795SOL     OW11402   4.599   3.508   4.061
 3795SOL    HW111403   4.522   3.473   4.007
 3795SOL    HW211404   4.567   3.579   4.123
 3796SOL     OW11405   3.954   4.352   0.113
 3796SOL    HW111406   3.861   4.350   0.150
 3796SOL    HW211407   3.955   4.313   0.021
 3797SOL     OW11408   3.949   3.999   0.996
 3797SOL    HW111409   3.984   3.982   1.088
 3797SOL    HW211410   3.861   3.954   0.984
 3798SOL     OW11411   3.743   4.092   0.647
 3798SOL    HW111412   3.661   4.135   0.686
 3798SOL    HW211413   3.715   4.019   0.584
 3799SOL     OW11414   4.859   4.427   0.717
 3799SOL    HW111415   4.916   4.505   0.692
 3799SOL    HW211416   4.799   4.453   0.793
 3800SOL     OW11417   4.492   4.868   1.023
 3800SOL    HW111418   4.414   4.885   1.083
 3800SOL    HW211419   4.526   4.955   0.987
 3801SOL     OW11420   4.574   4.522   1.823
 3801SOL    HW111421   4.570   4.598   1.888
 3801SOL    HW211422   4.596   4.558   1.732
 3802SOL     OW11423   4.409   4.736   0.665
 3802SOL    HW111424   4.478   4.720   0.735
 3802SOL    HW211425   4.336   4.793   0.703
 3803SOL     OW11426   4.410   4.885   1.803
 3803SOL    HW111427   4.470   4.964   1.817
 3803SOL    HW211428   4.324   4.916   1.762
 3804SOL     OW11429   4.162   4.116   1.499
 3804SOL    HW111430   4.244   4.060   1.508
 3804SOL    HW211431   4.081   4.058   1.503
 3805SOL     OW11432   3.964   4.815   0.886
 3805SOL    HW111433   3.978   4.731   0.938
 3805SOL    HW211434   3.909   4.879   0.941
 3806SOL     OW11435   4.330   4.688   0.123
 3806SOL    HW111436   4.337   4.772   0.069
 3806SOL    HW211437   4.376   4.701   0.211
 3807SOL     OW11438   3.846   4.367   0.563
 3807SOL    HW111439   3.801   4.279   0.580
 3807SOL    HW211440   3.845   4.421   0.647
 3808SOL     OW11441   3.837   4.461   1.597
 3808SOL    HW111442   3.925   4.448   1.642
 3808SOL    HW211443   3.824   4.558   1.575
 3809SOL     OW11444   4.533   3.728   0.502
 3809SOL    HW111445   4.573   3.819   0.493
 3809SOL    HW211446   4.433   3.736   0.508
 3810SOL     OW11447   3.921   4.700   1.264
 3810SOL    HW111448   4.010   4.655   1.250
 3810SOL    HW211449   3.848   4.635   1.245
 3811SOL     OW11450   4.041   3.975   1.801
 3811SOL    HW111451   4.112   4.046   1.807
 3811SOL    HW211452   3.953   4.014   1.829
 3812SOL     OW11453   4.322   4.453   0.270
 3812SOL    HW111454   4.346   4.522   0.202
 3812SOL    HW211455   4.244   4.486   0.324
 3813SOL     OW11456   4.531   4.329   1.465
 3813SOL    HW111457   4.484   4.326   1.554
 3813SOL    HW211458   4.480   4.274   1.399
 3814SOL     OW11459   4.697   4.614   1.572
 3814SOL    HW111460   4.743   4.530   1.543
 3814SOL    HW211461   4.641   4.648   1.497
 3815SOL     OW11462   4.715   4.134   1.242
 3815SOL    HW111463   4.638   4.168   1.296
 3815SOL    HW211464   4.681   4.083   1.163
 3816SOL     OW11465   4.765   4.425   0.429
 3816SOL    HW111466   4.791   4.421   0.525
 3816SOL    HW211467   4.680   4.374   0.415
 3817SOL     OW11468   3.800   4.535   0.789
 3817SOL    HW111469   3.899   4.523   0.798
 3817SOL    HW211470   3.776   4.630   0.810
 3818SOL     OW11471   4.589   4.072   0.195
 3818SOL    HW111472   4.648   4.135   0.146
 3818SOL    HW211473   4.608   3.978   0.166
 3819SOL     OW11474   4.274   3.920   0.885
 3819SOL    HW111475   4.269   3.915   0.985
 3819SOL    HW211476   4.276   4.016   0.856
 3820SOL     OW11477   4.045   4.667   0.242
 3820SOL    HW111478   4.127   4.706   0.200
 3820SOL    HW211479   4.018   4.585   0.193
 3821SOL     OW11480   3.926   4.009   1.498
 3821SOL    HW111481   3.846   4.069   1.485
 3821SOL    HW211482   3.916   3.960   1.584
 3822SOL     OW11483   4.106   4.424   0.480
 3822SOL    HW111484   4.151   4.334   0.477
 3822SOL    HW211485   4.012   4.413   0.513
 3823SOL     OW11486   4.338   3.846   0.117
 3823SOL    HW111487   4.436   3.824   0.124
 3823SOL    HW211488   4.307   3.829   0.024
 3824SOL     OW11489   4.505   3.988   1.749
 3824SOL    HW111490   4.572   3.927   1.792
 3824SOL    HW211491   4.432   4.007   1.814
 3825SOL     OW11492   4.646   4.227   0.899
 3825SOL    HW111493   4.621   4.218   0.803
 3825SOL    HW211494   4.694   4.145   0.930
 3826SOL     OW11495   4.263   3.788   0.512
 3826SOL    HW111496   4.182   3.789   0.570
 3826SOL    HW211497   4.266   3.871   0.457
 3827SOL     OW11498   4.021   3.759   0.171
 3827SOL    HW111499   4.070   3.843   0.150
 3827SOL    HW211500   4.083   3.694   0.216
 3828SOL     OW11501   4.659   3.960   0.480
 3828SOL    HW111502   4.611   4.001   0.402
 3828SOL    HW211503   4.758   3.958   0.461
 3829SOL     OW11504   4.800   4.407   1.464
 3829SOL    HW111505   4.720   4.346   1.467
 3829SOL    HW211506   4.881   4.354   1.440
 3830SOL     OW11507   4.183   4.876   0.741
 3830SOL    HW111508   4.112   4.849   0.806
 3830SOL    HW211509   4.157   4.848   0.648
 3831SOL     OW11510   4.756   4.273   0.016
 3831SOL    HW111511   4.715   4.355  -0.023
 3831SOL    HW211512   4.820   4.299   0.089
 3832SOL     OW11513   3.802   4.280   1.386
 3832SOL    HW111514   3.894   4.279   1.345
 3832SOL    HW211515   3.796   4.354   1.453
 3833SOL     OW11516   4.285   3.946   1.147
 3833SOL    HW111517   4.323   3.862   1.184
 3833SOL    HW211518   4.197   3.965   1.191
 3834SOL     OW11519   4.590   4.178   0.642
 3834SOL    HW111520   4.558   4.250   0.580
 3834SOL    HW211521   4.614   4.097   0.589
 3835SOL     OW11522   4.741   3.763   0.753
 3835SOL    HW111523   4.669   3.768   0.684
 3835SOL    HW211524   4.717   3.694   0.822
 3836SOL     OW11525   4.251   3.980   0.328
 3836SOL    HW111526   4.278   3.921   0.253
 3836SOL    HW211527   4.251   4.075   0.297
 3837SOL     OW11528   4.639   3.813   1.402
 3837SOL    HW111529   4.664   3.793   1.307
 3837SOL    HW211530   4.711   3.869   1.444
 3838SOL     OW11531   4.704   4.840   1.719
 3838SOL    HW111532   4.605   4.846   1.729
 3838SOL    HW211533   4.727   4.760   1.663
 3839SOL     OW11534   4.429   4.774   0.368
 3839SOL    HW111535   4.415   4.781   0.467
 3839SOL    HW211536   4.513   4.723   0.350
 3840SOL     OW11537   4.134   4.537   1.251
 3840SOL    HW111538   4.220   4.549   1.301
 3840SOL    HW211539   4.092   4.450   1.278
 3841SOL     OW11540   4.091   4.824   0.501
 3841SOL    HW111541   4.084   4.907   0.445
 3841SOL    HW211542   4.095   4.744   0.441
 3842SOL     OW11543   4.290   4.261   0.865
 3842SOL    HW111544   4.302   4.327   0.791
 3842SOL    HW211545   4.336   4.295   0.948
 3843SOL     OW11546   4.126   4.475   1.598
 3843SOL    HW111547   4.194   4.530   1.551
 3843SOL    HW211548   4.166   4.387   1.625
 3844SOL     OW11549   4.737   3.829   1.770
 3844SOL    HW111550   4.743   3.914   1.718
 3844SOL    HW211551   4.769   3.753   1.713
 3845SOL     OW11552   4.228   3.774   1.740
 3845SOL    HW111553   4.186   3.717   1.670
 3845SOL    HW211554   4.162   3.843   1.772
 3846SOL     OW11555   4.297   4.594   1.029
 3846SOL    HW111556   4.341   4.683   1.020
 3846SOL    HW211557   4.234   4.594   1.106
 3847SOL     OW11558   5.084   4.586   1.045
 3847SOL    HW111559   5.009   4.586   0.979
 3847SOL    HW211560   5.121   4.494   1.054
 3848SOL     OW11561   4.933   4.249   0.275
 3848SOL    HW111562   4.946   4.165   0.329
 3848SOL    HW211563   4.904   4.323   0.335
 3849SOL     OW11564   4.031   3.937   1.231
 3849SOL    HW111565   4.008   3.974   1.321
 3849SOL    HW211566   4.001   3.842   1.225
 3850SOL     OW11567   4.456   4.358   1.064
 3850SOL    HW111568   4.515   4.332   0.988
 3850SOL    HW211569   4.428   4.454   1.053
 3851SOL     OW11570   4.031   3.787   0.618
 3851SOL    HW111571   4.020   3.881   0.651
 3851SOL    HW211572   4.026   3.724   0.695
 3852SOL     OW11573   4.747   4.490   0.966
 3852SOL    HW111574   4.762   4.511   1.062
 3852SOL    HW211575   4.717   4.395   0.957
 3853SOL     OW11576   4.074   4.622   1.804
 3853SOL    HW111577   4.150   4.666   1.852
 3853SOL    HW211578   4.109   4.575   1.722
 3854SOL     OW11579   4.043   4.534   0.949
 3854SOL    HW111580   4.136   4.570   0.954
 3854SOL    HW211581   4.037   4.449   1.001
 3855SOL     OW11582   4.063   4.233   1.006
 3855SOL    HW111583   4.011   4.150   0.989
 3855SOL    HW211584   4.140   4.238   0.942
 3856SOL     OW11585   4.862   4.104   1.678
 3856SOL    HW111586   4.817   4.167   1.742
 3856SOL    HW211587   4.955   4.135   1.661
 3857SOL     OW11588   4.884   3.931   1.477
 3857SOL    HW111589   4.884   3.995   1.554
 3857SOL    HW211590   4.912   3.979   1.394
 3858SOL     OW11591   3.732   5.050   0.200
 3858SOL    HW111592   3.639   5.071   0.169
 3858SOL    HW211593   3.742   4.951   0.213
 3859SOL     OW11594   4.726   4.520   1.238
 3859SOL    HW111595   4.767   4.488   1.324
 3859SOL    HW211596   4.630   4.493   1.235
 3860SOL     OW11597   3.764   4.268   1.114
 3860SOL    HW111598   3.849   4.235   1.073
 3860SOL    HW211599   3.777   4.283   1.212
 3861SOL     OW11600   3.913   4.244   1.722
 3861SOL    HW111601   3.972   4.204   1.652
 3861SOL    HW211602   3.855   4.315   1.681
 3862SOL     OW11603   4.539   4.296   0.325
 3862SOL    HW111604   4.546   4.207   0.279
 3862SOL    HW211605   4.445   4.330   0.317
 3863SOL     OW11606   4.395   4.188   1.269
 3863SOL    HW111607   4.361   4.099   1.239
 3863SOL    HW211608   4.421   4.242   1.189
 3864SOL     OW11609   4.197   4.224   0.191
 3864SOL    HW111610   4.258   4.304   0.195
 3864SOL    HW211611   4.102   4.255   0.198
 3865SOL     OW11612   3.883   4.861   1.466
 3865SOL    HW111613   3.905   4.800   1.542
 3865SOL    HW211614   3.893   4.812   1.380
 3866SOL     OW11615   3.807   4.982   1.022
 3866SOL    HW111616   3.802   4.981   1.122
 3866SOL    HW211617   3.724   4.941   0.984
 3867SOL     OW11618   4.627   3.810   0.133
 3867SOL    HW111619   4.678   3.811   0.047
 3867SOL    HW211620   4.683   3.768   0.204
 3868SOL     OW11621   3.987   4.050   0.720
 3868SOL    HW111622   3.908   4.101   0.686
 3868SOL    HW211623   3.978   4.035   0.818
 3869SOL     OW11624   4.546   4.726   1.372
 3869SOL    HW111625   4.586   4.725   1.280
 3869SOL    HW211626   4.556   4.818   1.412
 3870SOL     OW11627   4.640   4.634   0.291
 3870SOL    HW111628   4.703   4.672   0.223
 3870SOL    HW211629   4.680   4.551   0.330
 3871SOL     OW11630   4.096   5.012   1.490
 3871SOL    HW111631   4.083   5.105   1.456
 3871SOL    HW211632   4.012   4.960   1.477
 3872SOL     OW11633   4.763   4.822   0.696
 3872SOL    HW111634   4.693   4.775   0.750
 3872SOL    HW211635   4.822   4.754   0.653
 3873SOL     OW11636   4.738   3.960   0.971
 3873SOL    HW111637   4.730   3.924   0.878
 3873SOL    HW211638   4.736   3.884   1.036
 3874SOL     OW11639   3.829   4.737   1.726
 3874SOL    HW111640   3.752   4.704   1.780
 3874SOL    HW211641   3.914   4.707   1.768
 3875SOL     OW11642   4.396   3.927   1.489
 3875SOL    HW111643   4.486   3.911   1.449
 3875SOL    HW211644   4.404   3.932   1.588
 3876SOL     OW11645   3.796   3.890   0.318
 3876SOL    HW111646   3.779   3.973   0.264
 3876SOL    HW211647   3.886   3.853   0.296
 3877SOL     OW11648   4.337   4.566   1.431
 3877SOL    HW111649   4.393   4.647   1.414
 3877SOL    HW211650   4.396   4.486   1.434
 3878SOL     OW11651   4.440   4.289   1.708
 3878SOL    HW111652   4.459   4.354   1.782
 3878SOL    HW211653   4.500   4.209   1.717
 3879SOL     OW11654   4.318   4.469   0.652
 3879SOL    HW111655   4.368   4.554   0.633
 3879SOL    HW211656   4.230   4.471   0.604
 3880SOL     OW11657   4.583   4.680   0.861
 3880SOL    HW111658   4.637   4.611   0.909
 3880SOL    HW211659   4.551   4.749   0.927
 3881SOL     OW11660   4.807   4.708   0.087
 3881SOL    HW111661   4.784   4.761   0.005
 3881SOL    HW211662   4.888   4.652   0.068
 3882SOL     OW11663   3.803   4.964   0.653
 3882SOL    HW111664   3.802   4.917   0.741
 3882SOL    HW211665   3.885   4.936   0.602
 3883SOL     OW11666   4.152   4.148   0.520
 3883SOL    HW111667   4.182   4.076   0.458
 3883SOL    HW211668   4.113   4.108   0.603
 3884SOL     OW11669   4.041   4.271   1.280
 3884SOL    HW111670   4.079   4.212   1.352
 3884SOL    HW211671   4.081   4.245   1.192
 3885SOL     OW11672   4.725   3.758   1.154
 3885SOL    HW111673   4.662   3.686   1.123
 3885SOL    HW211674   4.818   3.722   1.154
 3886SOL     OW11675   4.494   5.054   0.301
 3886SOL    HW111676   4.448   4.967   0.318
 3886SOL    HW211677   4.585   5.051   0.342
 3887SOL     OW11678   5.076   3.776   0.168
 3887SOL    HW111679   5.111   3.735   0.084
 3887SOL    HW211680   4.986   3.738   0.188
 3888SOL     OW11681   3.954   4.352   1.975
 3888SOL    HW111682   3.861   4.350   2.012
 3888SOL    HW211683   3.955   4.313   1.883
 3889SOL     OW11684   3.949   3.999   2.858
 3889SOL    HW111685   3.984   3.982   2.950
 3889SOL    HW211686   3.861   3.954   2.846
 3890SOL     OW11687   3.743   4.092   2.509
 3890SOL    HW111688   3.661   4.135   2.548
 3890SOL    HW211689   3.715   4.019   2.446
 3891SOL     OW11690   4.859   4.427   2.579
 3891SOL    HW111691   4.916   4.505   2.554
 3891SOL    HW211692   4.799   4.453   2.655
 3892SOL     OW11693   4.492   4.868   2.885
 3892SOL    HW111694   4.414   4.885   2.945
 3892SOL    HW211695   4.526   4.955   2.849
 3893SOL     OW11696   4.574   4.522   3.685
 3893SOL    HW111697   4.570   4.598   3.750
 3893SOL    HW211698   4.596   4.558   3.594
 3894SOL     OW11699   4.409   4.736   2.527
 3894SOL    HW111700   4.478   4.720   2.597
 3894SOL    HW211701   4.336   4.793   2.565
 3895SOL     OW11702   4.410   4.885   3.665
 3895SOL    HW111703   4.470   4.964   3.679
 3895SOL    HW211704   4.324   4.916   3.624
 3896SOL     OW11705   4.162   4.116   3.361
 3896SOL    HW111706   4.244   4.060   3.370
 3896SOL    HW211707   4.081   4.058   3.365
 3897SOL     OW11708   3.964   4.815   2.748
 3897SOL    HW111709   3.978   4.731   2.800
 3897SOL    HW211710   3.909   4.879   2.803
 3898SOL     OW11711   4.330   4.688   1.985
 3898SOL    HW111712   4.337   4.772   1.931
 3898SOL    HW211713   4.376   4.701   2.073
 3899SOL     OW11714   3.846   4.367   2.425
 3899SOL    HW111715   3.801   4.279   2.442
 3899SOL    HW211716   3.845   4.421   2.509
 3900SOL     OW11717   3.837   4.461   3.459
 3900SOL    HW111718   3.925   4.448   3.504
 3900SOL    HW211719   3.824   4.558   3.437
 3901SOL     OW11720   4.533   3.728   2.364
 3901SOL    HW111721   4.573   3.819   2.355
 3901SOL    HW211722   4.433   3.736   2.370
 3902SOL     OW11723   3.921   4.700   3.126
 3902SOL    HW111724   4.010   4.655   3.112
 3902SOL    HW211725   3.848   4.635   3.107
 3903SOL     OW11726   4.041   3.975   3.663
 3903SOL    HW111727   4.112   4.046   3.669
 3903SOL    HW211728   3.953   4.014   3.691
 3904SOL     OW11729   4.322   4.453   2.132
 3904SOL    HW111730   4.346   4.522   2.064
 3904SOL    HW211731   4.244   4.486   2.186
 3905SOL     OW11732   4.531   4.329   3.327
 3905SOL    HW111733   4.484   4.326   3.416
 3905SOL    HW211734   4.480   4.274   3.261
 3906SOL     OW11735   4.697   4.614   3.434
 3906SOL    HW111736   4.743   4.530   3.405
 3906SOL    HW211737   4.641   4.648   3.359
 3907SOL     OW11738   4.715   4.134   3.104
 3907SOL    HW111739   4.638   4.168   3.158
 3907SOL    HW211740   4.681   4.083   3.025
 3908SOL     OW11741   4.765   4.425   2.291
 3908SOL    HW111742   4.791   4.421   2.387
 3908SOL    HW211743   4.680   4.374   2.277
 3909SOL     OW11744   3.800   4.535   2.651
 3909SOL    HW111745   3.899   4.523   2.660
 3909SOL    HW211746   3.776   4.630   2.672
 3910SOL     OW11747   4.589   4.072   2.057
 3910SOL    HW111748   4.648   4.135   2.008
 3910SOL    HW211749   4.608   3.978   2.028
 3911SOL     OW11750   4.274   3.920   2.747
 3911SOL    HW111751   4.269   3.915   2.847
 3911SOL    HW211752   4.276   4.016   2.718
 3912SOL     OW11753   4.045   4.667   2.104
 3912SOL    HW111754   4.127   4.706   2.062
 3912SOL    HW211755   4.018   4.585   2.055
 3913SOL     OW11756   3.926   4.009   3.360
 3913SOL    HW111757   3.846   4.069   3.347
 3913SOL    HW211758   3.916   3.960   3.446
 3914SOL     OW11759   4.106   4.424   2.342
 3914SOL    HW111760   4.151   4.334   2.339
 3914SOL    HW211761   4.012   4.413   2.375
 3915SOL     OW11762   4.338   3.846   1.979
 3915SOL    HW111763   4.436   3.824   1.986
 3915SOL    HW211764   4.307   3.829   1.886
 3916SOL     OW11765   4.505   3.988   3.611
 3916SOL    HW111766   4.572   3.927   3.654
 3916SOL    HW211767   4.432   4.007   3.676
 3917SOL     OW11768   4.646   4.227   2.761
 3917SOL    HW111769   4.621   4.218   2.665
 3917SOL    HW211770   4.694   4.145   2.792
 3918SOL     OW11771   4.263   3.788   2.374
 3918SOL    HW111772   4.182   3.789   2.432
 3918SOL    HW211773   4.266   3.871   2.319
 3919SOL     OW11774   5.158   4.912   1.903
 3919SOL    HW111775   5.190   4.836   1.960
 3919SOL    HW211776   5.066   4.939   1.933
 3920SOL     OW11777   4.021   3.759   2.033
 3920SOL    HW111778   4.070   3.843   2.012
 3920SOL    HW211779   4.083   3.694   2.078
 3921SOL     OW11780   4.659   3.960   2.342
 3921SOL    HW111781   4.611   4.001   2.264
 3921SOL    HW211782   4.758   3.958   2.323
 3922SOL     OW11783   4.800   4.407   3.326
 3922SOL    HW111784   4.720   4.346   3.329
 3922SOL    HW211785   4.881   4.354   3.302
 3923SOL     OW11786   4.183   4.876   2.603
 3923SOL    HW111787   4.112   4.849   2.668
 3923SOL    HW211788   4.157   4.848   2.510
 3924SOL     OW11789   4.756   4.273   1.878
 3924SOL    HW111790   4.715   4.355   1.839
 3924SOL    HW211791   4.820   4.299   1.951
 3925SOL     OW11792   3.802   4.280   3.248
 3925SOL    HW111793   3.894   4.279   3.207
 3925SOL    HW211794   3.796   4.354   3.315
 3926SOL     OW11795   4.285   3.946   3.009
 3926SOL    HW111796   4.323   3.862   3.046
 3926SOL    HW211797   4.197   3.965   3.053
 3927SOL     OW11798   4.590   4.178   2.504
 3927SOL    HW111799   4.558   4.250   2.442
 3927SOL    HW211800   4.614   4.097   2.451
 3928SOL     OW11801   4.741   3.763   2.615
 3928SOL    HW111802   4.669   3.768   2.546
 3928SOL    HW211803   4.717   3.694   2.684
 3929SOL     OW11804   4.251   3.980   2.190
 3929SOL    HW111805   4.278   3.921   2.115
 3929SOL    HW211806   4.251   4.075   2.159
 3930SOL     OW11807   4.639   3.813   3.264
 3930SOL    HW111808   4.664   3.793   3.169
 3930SOL    HW211809   4.711   3.869   3.306
 3931SOL     OW11810   4.704   4.840   3.581
 3931SOL    HW111811   4.605   4.846   3.591
 3931SOL    HW211812   4.727   4.760   3.525
 3932SOL     OW11813   4.429   4.774   2.230
 3932SOL    HW111814   4.415   4.781   2.329
 3932SOL    HW211815   4.513   4.723   2.212
 3933SOL     OW11816   4.134   4.537   3.113
 3933SOL    HW111817   4.220   4.549   3.163
 3933SOL    HW211818   4.092   4.450   3.140
 3934SOL     OW11819   4.091   4.824   2.363
 3934SOL    HW111820   4.084   4.907   2.307
 3934SOL    HW211821   4.095   4.744   2.303
 3935SOL     OW11822   4.290   4.261   2.727
 3935SOL    HW111823   4.302   4.327   2.653
 3935SOL    HW211824   4.336   4.295   2.810
 3936SOL     OW11825   4.126   4.475   3.460
 3936SOL    HW111826   4.194   4.530   3.413
 3936SOL    HW211827   4.166   4.387   3.487
 3937SOL     OW11828   4.737   3.829   3.632
 3937SOL    HW111829   4.743   3.914   3.580
 3937SOL    HW211830   4.769   3.753   3.575
 3938SOL     OW11831   4.228   3.774   3.602
 3938SOL    HW111832   4.186   3.717   3.532
 3938SOL    HW211833   4.162   3.843   3.634
 3939SOL     OW11834   4.297   4.594   2.891
 3939SOL    HW111835   4.341   4.683   2.882
 3939SOL    HW211836   4.234   4.594   2.968
 3940SOL     OW11837   5.084   4.586   2.907
 3940SOL    HW111838   5.009   4.586   2.841
 3940SOL    HW211839   5.121   4.494   2.916
 3941SOL     OW11840   4.933   4.249   2.137
 3941SOL    HW111841   4.946   4.165   2.191
 3941SOL    HW211842   4.904   4.323   2.197
 3942SOL     OW11843   4.031   3.937   3.093
 3942SOL    HW111844   4.008   3.974   3.183
 3942SOL    HW211845   4.001   3.842   3.087
 3943SOL     OW11846   4.456   4.358   2.926
 3943SOL    HW111847   4.515   4.332   2.850
 3943SOL    HW211848   4.428   4.454   2.915
 3944SOL     OW11849   4.031   3.787   2.480
 3944SOL    HW111850   4.020   3.881   2.513
 3944SOL    HW211851   4.026   3.724   2.557
 3945SOL     OW11852   4.747   4.490   2.828
 3945SOL    HW111853   4.762   4.511   2.924
 3945SOL    HW211854   4.717   4.395   2.819
 3946SOL     OW11855   4.074   4.622   3.666
 3946SOL    HW111856   4.150   4.666   3.714
 3946SOL    HW211857   4.109   4.575   3.584
 3947SOL     OW11858   5.264   3.998   1.987
 3947SOL    HW111859   5.203   3.923   2.010
 3947SOL    HW211860   5.286   4.050   2.070
 3948SOL     OW11861   4.043   4.534   2.811
 3948SOL    HW111862   4.136   4.570   2.816
 3948SOL    HW211863   4.037   4.449   2.863
 3949SOL     OW11864   4.063   4.233   2.868
 3949SOL    HW111865   4.011   4.150   2.851
 3949SOL    HW211866   4.140   4.238   2.804
 3950SOL     OW11867   4.862   4.104   3.540
 3950SOL    HW111868   4.817   4.167   3.604
 3950SOL    HW211869   4.955   4.135   3.523
 3951SOL     OW11870   4.884   3.931   3.339
 3951SOL    HW111871   4.884   3.995   3.416
 3951SOL    HW211872   4.912   3.979   3.256
 3952SOL     OW11873   3.732   5.050   2.062
 3952SOL    HW111874   3.639   5.071   2.031
 3952SOL    HW211875   3.742   4.951   2.075
 3953SOL     OW11876   4.726   4.520   3.100
 3953SOL    HW111877   4.767   4.488   3.186
 3953SOL    HW211878   4.630   4.493   3.097
 3954SOL     OW11879   3.764   4.268   2.976
 3954SOL    HW111880   3.849   4.235   2.935
 3954SOL    HW211881   3.777   4.283   3.074
 3955SOL     OW11882   3.913   4.244   3.584
 3955SOL    HW111883   3.972   4.204   3.514
 3955SOL    HW211884   3.855   4.315   3.543
 3956SOL     OW11885   4.539   4.296   2.187
 3956SOL    HW111886   4.546   4.207   2.141
 3956SOL    HW211887   4.445   4.330   2.179
 3957SOL     OW11888   4.395   4.188   3.131
 3957SOL    HW111889   4.361   4.099   3.101
 3957SOL    HW211890   4.421   4.242   3.051
 3958SOL     OW11891   4.197   4.224   2.053
 3958SOL    HW111892   4.258   4.304   2.057
 3958SOL    HW211893   4.102   4.255   2.060
 3959SOL     OW11894   3.883   4.861   3.328
 3959SOL    HW111895   3.905   4.800   3.404
 3959SOL    HW211896   3.893   4.812   3.242
 3960SOL     OW11897   3.807   4.982   2.884
 3960SOL    HW111898   3.802   4.981   2.984
 3960SOL    HW211899   3.724   4.941   2.846
 3961SOL     OW11900   3.987   4.050   2.582
 3961SOL    HW111901   3.908   4.101   2.548
 3961SOL    HW211902   3.978   4.035   2.680
 3962SOL     OW11903   4.546   4.726   3.234
 3962SOL    HW111904   4.586   4.725   3.142
 3962SOL    HW211905   4.556   4.818   3.274
 3963SOL     OW11906   4.640   4.634   2.153
 3963SOL    HW111907   4.703   4.672   2.085
 3963SOL    HW211908   4.680   4.551   2.192
 3964SOL     OW11909   4.096   5.012   3.352
 3964SOL    HW111910   4.083   5.105   3.318
 3964SOL    HW211911   4.012   4.960   3.339
 3965SOL     OW11912   4.763   4.822   2.558
 3965SOL    HW111913   4.693   4.775   2.612
 3965SOL    HW211914   4.822   4.754   2.515
 3966SOL     OW11915   4.738   3.960   2.833
 3966SOL    HW111916   4.730   3.924   2.740
 3966SOL    HW211917   4.736   3.884   2.898
 3967SOL     OW11918   3.829   4.737   3.588
 3967SOL    HW111919   3.752   4.704   3.642
 3967SOL    HW211920   3.914   4.707   3.630
 3968SOL     OW11921   4.396   3.927   3.351
 3968SOL    HW111922   4.486   3.911   3.311
 3968SOL    HW211923   4.404   3.932   3.450
 3969SOL     OW11924   3.799   4.069   1.895
 3969SOL    HW111925   3.707   4.041   1.866
 3969SOL    HW211926   3.830   4.146   1.839
 3970SOL     OW11927   3.796   3.890   2.180
 3970SOL    HW111928   3.779   3.973   2.126
 3970SOL    HW211929   3.886   3.853   2.158
 3971SOL     OW11930   4.337   4.566   3.293
 3971SOL    HW111931   4.393   4.647   3.276
 3971SOL    HW211932   4.396   4.486   3.296
 3972SOL     OW11933   4.440   4.289   3.570
 3972SOL    HW111934   4.459   4.354   3.644
 3972SOL    HW211935   4.500   4.209   3.579
 3973SOL     OW11936   4.318   4.469   2.514
 3973SOL    HW111937   4.368   4.554   2.495
 3973SOL    HW211938   4.230   4.471   2.466
 3974SOL     OW11939   4.583   4.680   2.723
 3974SOL    HW111940   4.637   4.611   2.771
 3974SOL    HW211941   4.551   4.749   2.789
 3975SOL     OW11942   4.807   4.708   1.949
 3975SOL    HW111943   4.784   4.761   1.867
 3975SOL    HW211944   4.888   4.652   1.930
 3976SOL     OW11945   3.803   4.964   2.515
 3976SOL    HW111946   3.802   4.917   2.603
 3976SOL    HW211947   3.885   4.936   2.464
 3977SOL     OW11948   4.152   4.148   2.382
 3977SOL    HW111949   4.182   4.076   2.320
 3977SOL    HW211950   4.113   4.108   2.465
 3978SOL     OW11951   4.041   4.271   3.142
 3978SOL    HW111952   4.079   4.212   3.214
 3978SOL    HW211953   4.081   4.245   3.054
 3979SOL     OW11954   4.725   3.758   3.016
 3979SOL    HW111955   4.662   3.686   2.985
 3979SOL    HW211956   4.818   3.722   3.016
 3980SOL     OW11957   4.494   5.054   2.163
 3980SOL    HW111958   4.448   4.967   2.180
 3980SOL    HW211959   4.585   5.051   2.204
 3981SOL     OW11960   3.763   4.801   2.162
 3981SOL    HW111961   3.862   4.790   2.153
 3981SOL    HW211962   3.723   4.715   2.194
 3982SOL     OW11963   3.954   4.352   3.837
 3982SOL    HW111964   3.861   4.350   3.874
 3982SOL    HW211965   3.955   4.313   3.745
 3983SOL     OW11966   3.949   3.999   4.720
 3983SOL    HW111967   3.984   3.982   4.812
 3983SOL    HW211968   3.861   3.954   4.708
 3984SOL     OW11969   3.743   4.092   4.371
 3984SOL    HW111970   3.661   4.135   4.410
 3984SOL    HW211971   3.715   4.019   4.308
 3985SOL     OW11972   4.859   4.427   4.441
 3985SOL    HW111973   4.916   4.505   4.416
 3985SOL    HW211974   4.799   4.453   4.517
 3986SOL     OW11975   4.492   4.868   4.747
 3986SOL    HW111976   4.414   4.885   4.807
 3986SOL    HW211977   4.526   4.955   4.711
 3987SOL     OW11978   4.409   4.736   4.389
 3987SOL    HW111979   4.478   4.720   4.459
 3987SOL    HW211980   4.336   4.793   4.427
 3988SOL     OW11981   3.964   4.815   4.610
 3988SOL    HW111982   3.978   4.731   4.662
 3988SOL    HW211983   3.909   4.879   4.665
 3989SOL     OW11984   4.330   4.688   3.847
 3989SOL    HW111985   4.337   4.772   3.793
 3989SOL    HW211986   4.376   4.701   3.935
 3990SOL     OW11987   3.846   4.367   4.287
 3990SOL    HW111988   3.801   4.279   4.304
 3990SOL    HW211989   3.845   4.421   4.371
 3991SOL     OW11990   4.533   3.728   4.226
 3991SOL    HW111991   4.573   3.819   4.217
 3991SOL    HW211992   4.433   3.736   4.232
 3992SOL     OW11993   3.921   4.700   4.988
 3992SOL    HW111994   4.010   4.655   4.974
 3992SOL    HW211995   3.848   4.635   4.969
 3993SOL     OW11996   4.322   4.453   3.994
 3993SOL    HW111997   4.346   4.522   3.926
 3993SOL    HW211998   4.244   4.486   4.048
 3994SOL     OW11999   4.765   4.425   4.153
 3994SOL    HW112000   4.791   4.421   4.249
 3994SOL    HW212001   4.680   4.374   4.139
 3995SOL     OW12002   3.800   4.535   4.513
 3995SOL    HW112003   3.899   4.523   4.522
 3995SOL    HW212004   3.776   4.630   4.534
 3996SOL     OW12005   4.589   4.072   3.919
 3996SOL    HW112006   4.648   4.135   3.870
 3996SOL    HW212007   4.608   3.978   3.890
 3997SOL     OW12008   4.274   3.920   4.609
 3997SOL    HW112009   4.269   3.915   4.709
 3997SOL    HW212010   4.276   4.016   4.580
 3998SOL     OW12011   4.045   4.667   3.966
 3998SOL    HW112012   4.127   4.706   3.924
 3998SOL    HW212013   4.018   4.585   3.917
 3999SOL     OW12014   4.106   4.424   4.204
 3999SOL    HW112015   4.151   4.334   4.201
 3999SOL    HW212016   4.012   4.413   4.237
 4000SOL     OW12017   4.338   3.846   3.841
 4000SOL    HW112018   4.436   3.824   3.848
 4000SOL    HW212019   4.307   3.829   3.748
 4001SOL     OW12020   4.646   4.227   4.623
 4001SOL    HW112021   4.621   4.218   4.527
 4001SOL    HW212022   4.694   4.145   4.654
 4002SOL     OW12023   4.263   3.788   4.236
 4002SOL    HW112024   4.182   3.789   4.294
 4002SOL    HW212025   4.266   3.871   4.181
 4003SOL     OW12026   5.158   4.912   3.765
 4003SOL    HW112027   5.190   4.836   3.822
 4003SOL    HW212028   5.066   4.939   3.795
 4004SOL     OW12029   4.021   3.759   3.895
 4004SOL    HW112030   4.070   3.843   3.874
 4004SOL    HW212031   4.083   3.694   3.940
 4005SOL     OW12032   4.659   3.960   4.204
 4005SOL    HW112033   4.611   4.001   4.126
 4005SOL    HW212034   4.758   3.958   4.185
 4006SOL     OW12035   4.183   4.876   4.465
 4006SOL    HW112036   4.112   4.849   4.530
 4006SOL    HW212037   4.157   4.848   4.372
 4007SOL     OW12038   4.756   4.273   3.740
 4007SOL    HW112039   4.715   4.355   3.701
 4007SOL    HW212040   4.820   4.299   3.813
 4008SOL     OW12041   4.590   4.178   4.366
 4008SOL    HW112042   4.558   4.250   4.304
 4008SOL    HW212043   4.614   4.097   4.313
 4009SOL     OW12044   4.741   3.763   4.477
 4009SOL    HW112045   4.669   3.768   4.408
 4009SOL    HW212046   4.717   3.694   4.546
 4010SOL     OW12047   4.251   3.980   4.052
 4010SOL    HW112048   4.278   3.921   3.977
 4010SOL    HW212049   4.251   4.075   4.021
 4011SOL     OW12050   4.429   4.774   4.092
 4011SOL    HW112051   4.415   4.781   4.191
 4011SOL    HW212052   4.513   4.723   4.074
 4012SOL     OW12053   4.134   4.537   4.975
 4012SOL    HW112054   4.220   4.549   5.025
 4012SOL    HW212055   4.092   4.450   5.002
 4013SOL     OW12056   4.091   4.824   4.225
 4013SOL    HW112057   4.084   4.907   4.169
 4013SOL    HW212058   4.095   4.744   4.165
 4014SOL     OW12059   4.290   4.261   4.589
 4014SOL    HW112060   4.302   4.327   4.515
 4014SOL    HW212061   4.336   4.295   4.672
 4015SOL     OW12062   4.297   4.594   4.753
 4015SOL    HW112063   4.341   4.683   4.744
 4015SOL    HW212064   4.234   4.594   4.830
 4016SOL     OW12065   5.084   4.586   4.769
 4016SOL    HW112066   5.009   4.586   4.703
 4016SOL    HW212067   5.121   4.494   4.778
 4017SOL     OW12068   4.933   4.249   3.999
 4017SOL    HW112069   4.946   4.165   4.053
 4017SOL    HW212070   4.904   4.323   4.059
 4018SOL     OW12071   4.031   3.937   4.955
 4018SOL    HW112072   4.008   3.974   5.045
 4018SOL    HW212073   4.001   3.842   4.949
 4019SOL     OW12074   4.456   4.358   4.788
 4019SOL    HW112075   4.515   4.332   4.712
 4019SOL    HW212076   4.428   4.454   4.777
 4020SOL     OW12077   4.031   3.787   4.342
 4020SOL    HW112078   4.020   3.881   4.375
 4020SOL    HW212079   4.026   3.724   4.419
 4021SOL     OW12080   4.747   4.490   4.690
 4021SOL    HW112081   4.762   4.511   4.786
 4021SOL    HW212082   4.717   4.395   4.681
 4022SOL     OW12083   5.264   3.998   3.849
 4022SOL    HW112084   5.203   3.923   3.872
 4022SOL    HW212085   5.286   4.050   3.932
 4023SOL     OW12086   4.043   4.534   4.673
 4023SOL    HW112087   4.136   4.570   4.678
 4023SOL    HW212088   4.037   4.449   4.725
 4024SOL     OW12089   4.063   4.233   4.730
 4024SOL    HW112090   4.011   4.150   4.713
 4024SOL    HW212091   4.140   4.238   4.666
 4025SOL     OW12092   4.884   3.931   5.201
 4025SOL    HW112093   4.884   3.995   5.278
 4025SOL    HW212094   4.912   3.979   5.118
 4026SOL     OW12095   3.732   5.050   3.924
 4026SOL    HW112096   3.639   5.071   3.893
 4026SOL    HW212097   3.742   4.951   3.937
 4027SOL     OW12098   4.726   4.520   4.962
 4027SOL    HW112099   4.767   4.488   5.048
 4027SOL    HW212100   4.630   4.493   4.959
 4028SOL     OW12101   3.764   4.268   4.838
 4028SOL    HW112102   3.849   4.235   4.797
 4028SOL    HW212103   3.777   4.283   4.936
 4029SOL     OW12104   4.539   4.296   4.049
 4029SOL    HW112105   4.546   4.207   4.003
 4029SOL    HW212106   4.445   4.330   4.041
 4030SOL     OW12107   4.395   4.188   4.993
 4030SOL    HW112108   4.361   4.099   4.963
 4030SOL    HW212109   4.421   4.242   4.913
 4031SOL     OW12110   4.197   4.224   3.915
 4031SOL    HW112111   4.258   4.304   3.919
 4031SOL    HW212112   4.102   4.255   3.922
 4032SOL     OW12113   3.883   4.861   5.190
 4032SOL    HW112114   3.905   4.800   5.266
 4032SOL    HW212115   3.893   4.812   5.104
 4033SOL     OW12116   3.807   4.982   4.746
 4033SOL    HW112117   3.802   4.981   4.846
 4033SOL    HW212118   3.724   4.941   4.708
 4034SOL     OW12119   3.987   4.050   4.444
 4034SOL    HW112120   3.908   4.101   4.410
 4034SOL    HW212121   3.978   4.035   4.542
 4035SOL     OW12122   4.546   4.726   5.096
 4035SOL    HW112123   4.586   4.725   5.004
 4035SOL    HW212124   4.556   4.818   5.136
 4036SOL     OW12125   4.640   4.634   4.015
 4036SOL    HW112126   4.703   4.672   3.947
 4036SOL    HW212127   4.680   4.551   4.054
 4037SOL     OW12128   4.763   4.822   4.420
 4037SOL    HW112129   4.693   4.775   4.474
 4037SOL    HW212130   4.822   4.754   4.377
 4038SOL     OW12131   4.738   3.960   4.695
 4038SOL    HW112132   4.730   3.924   4.602
 4038SOL    HW212133   4.736   3.884   4.760
 4039SOL     OW12134   3.799   4.069   3.757
 4039SOL    HW112135   3.707   4.041   3.728
 4039SOL    HW212136   3.830   4.146   3.701
 4040SOL     OW12137   3.796   3.890   4.042
 4040SOL    HW112138   3.779   3.973   3.988
 4040SOL    HW212139   3.886   3.853   4.020
 4041SOL     OW12140   4.318   4.469   4.376
 4041SOL    HW112141   4.368   4.554   4.357
 4041SOL    HW212142   4.230   4.471   4.328
 4042SOL     OW12143   4.583   4.680   4.585
 4042SOL    HW112144   4.637   4.611   4.633
 4042SOL    HW212145   4.551   4.749   4.651
 4043SOL     OW12146   4.807   4.708   3.811
 4043SOL    HW112147   4.784   4.761   3.729
 4043SOL    HW212148   4.888   4.652   3.792
 4044SOL     OW12149   3.803   4.964   4.377
 4044SOL    HW112150   3.802   4.917   4.465
 4044SOL    HW212151   3.885   4.936   4.326
 4045SOL     OW12152   4.152   4.148   4.244
 4045SOL    HW112153   4.182   4.076   4.182
 4045SOL    HW212154   4.113   4.108   4.327
 4046SOL     OW12155   4.725   3.758   4.878
 4046SOL    HW112156   4.662   3.686   4.847
 4046SOL    HW212157   4.818   3.722   4.878
 4047SOL     OW12158   4.494   5.054   4.025
 4047SOL    HW112159   4.448   4.967   4.042
 4047SOL    HW212160   4.585   5.051   4.066
 4048SOL     OW12161   3.763   4.801   4.024
 4048SOL    HW112162   3.862   4.790   4.015
 4048SOL    HW212163   3.723   4.715   4.056
   4.99830   4.99830   4.99830
