; mobley_1231151_GMX_OPLS.itp created by acpype (v: 2023.10.27) on Wed May 20 23:59:02 2026

; For OPLS atomtypes manual fine tuning
; AC_at:OPLS_at:OPLScode: Possible_Alternatives (see ffoplsaa.atp and ffoplsaanb.itp)
; c3:CT:opls_135: ['136', '137', '149', '157', '158', '206', '209', '210', '223B', '224B', '245', '246', '274', '283', '284', '285', '292', '292B', '293B', '296', '307', '308', '505']
; cl:x:opls_x: []
; hc:HC:opls_140: []
; h1:HC:opls_140: []

[ moleculetype ]
;name            nrexcl
 mobley_1231151   3

[ atoms ]
;   nr  type  resi  res  atom  cgnr     charge      mass       ; qtot   bond_type
     1 opls_135     1   MOL    C1    1    -0.104100     12.01100 ; qtot -0.104  CT  
     2 opls_135     1   MOL    C2    2    -0.104100     12.01100 ; qtot -0.208  CT  
     3 opls_135     1   MOL    C3    3     0.060700     12.01100 ; qtot -0.147  CT  
     4 opls_x     1   MOL   CL1    4    -0.209398      0.00000 ; qtot -0.357  x   
     5 opls_140     1   MOL    H1    5     0.048033      1.00800 ; qtot -0.309  HC  
     6 opls_140     1   MOL    H2    6     0.048033      1.00800 ; qtot -0.261  HC  
     7 opls_140     1   MOL    H3    7     0.048033      1.00800 ; qtot -0.213  HC  
     8 opls_140     1   MOL    H4    8     0.048033      1.00800 ; qtot -0.165  HC  
     9 opls_140     1   MOL    H5    9     0.048033      1.00800 ; qtot -0.117  HC  
    10 opls_140     1   MOL    H6   10     0.048033      1.00800 ; qtot -0.069  HC  
    11 opls_140     1   MOL    H7   11     0.068700      1.00800 ; qtot -0.000  HC  

[ bonds ]
;   ai     aj funct   r             k
     1      3   1 ;    1.5354e-01    1.9154e+05 ;     C1 - C3         CT - CT    
     1      5   1 ;    1.0962e-01    2.8891e+05 ;     C1 - H1         CT - HC    
     1      6   1 ;    1.0962e-01    2.8891e+05 ;     C1 - H2         CT - HC    
     1      7   1 ;    1.0962e-01    2.8891e+05 ;     C1 - H3         CT - HC    
     2      3   1 ;    1.5354e-01    1.9154e+05 ;     C2 - C3         CT - CT    
     2      8   1 ;    1.0962e-01    2.8891e+05 ;     C2 - H4         CT - HC    
     2      9   1 ;    1.0962e-01    2.8891e+05 ;     C2 - H5         CT - HC    
     2     10   1 ;    1.0962e-01    2.8891e+05 ;     C2 - H6         CT - HC    
     3      4   1 ;    1.8092e-01    1.3724e+05 ;     C3 - CL1        CT - x     
     3     11   1 ;    1.0969e-01    2.8804e+05 ;     C3 - H7         CT - HC    

[ pairs ]
;   ai     aj    funct
     1      8      1 ;     C1 - H4    
     1      9      1 ;     C1 - H5    
     1     10      1 ;     C1 - H6    
     4      8      1 ;    CL1 - H4    
     4      9      1 ;    CL1 - H5    
     4     10      1 ;    CL1 - H6    
     5      2      1 ;     H1 - C2    
     5      4      1 ;     H1 - CL1   
     5     11      1 ;     H1 - H7    
     6      2      1 ;     H2 - C2    
     6      4      1 ;     H2 - CL1   
     6     11      1 ;     H2 - H7    
     7      2      1 ;     H3 - C2    
     7      4      1 ;     H3 - CL1   
     7     11      1 ;     H3 - H7    
     8     11      1 ;     H4 - H7    
     9     11      1 ;     H5 - H7    
    10     11      1 ;     H6 - H7    

[ angles ]
;   ai     aj     ak    funct   theta         cth
     1      3      2      1 ;    1.1263e+02    5.0099e+02 ;     C1 - C3   - C2       CT -   CT - CT  
     1      3      4      1 ;    1.1039e+02    5.3254e+02 ;     C1 - C3   - CL1      CT -   CT - x   
     1      3     11      1 ;    1.0959e+02    3.6217e+02 ;     C1 - C3   - H7       CT -   CT - HC  
     2      3      4      1 ;    1.1039e+02    5.3254e+02 ;     C2 - C3   - CL1      CT -   CT - x   
     2      3     11      1 ;    1.0959e+02    3.6217e+02 ;     C2 - C3   - H7       CT -   CT - HC  
     3      1      5      1 ;    1.0968e+02    3.6208e+02 ;     C3 - C1   - H1       CT -   CT - HC  
     3      1      6      1 ;    1.0968e+02    3.6208e+02 ;     C3 - C1   - H2       CT -   CT - HC  
     3      1      7      1 ;    1.0968e+02    3.6208e+02 ;     C3 - C1   - H3       CT -   CT - HC  
     3      2      8      1 ;    1.0968e+02    3.6208e+02 ;     C3 - C2   - H4       CT -   CT - HC  
     3      2      9      1 ;    1.0968e+02    3.6208e+02 ;     C3 - C2   - H5       CT -   CT - HC  
     3      2     10      1 ;    1.0968e+02    3.6208e+02 ;     C3 - C2   - H6       CT -   CT - HC  
     4      3     11      1 ;    1.0682e+02    3.6183e+02 ;    CL1 - C3   - H7        x -   CT - HC  
     5      1      6      1 ;    1.0773e+02    2.9957e+02 ;     H1 - C1   - H2       HC -   CT - HC  
     5      1      7      1 ;    1.0773e+02    2.9957e+02 ;     H1 - C1   - H3       HC -   CT - HC  
     6      1      7      1 ;    1.0773e+02    2.9957e+02 ;     H2 - C1   - H3       HC -   CT - HC  
     8      2      9      1 ;    1.0773e+02    2.9957e+02 ;     H4 - C2   - H5       HC -   CT - HC  
     8      2     10      1 ;    1.0773e+02    2.9957e+02 ;     H4 - C2   - H6       HC -   CT - HC  
     9      2     10      1 ;    1.0773e+02    2.9957e+02 ;     H5 - C2   - H6       HC -   CT - HC  

[ dihedrals ] ; propers
; for gromacs 4.5 or higher, using funct 9
;    i      j      k      l   func   phase     kd      pn
     1      3      2      8      9 ;     0.00   0.54392   3 ;     C1-    C3-    C2-    H4
     1      3      2      9      9 ;     0.00   0.54392   3 ;     C1-    C3-    C2-    H5
     1      3      2     10      9 ;     0.00   0.54392   3 ;     C1-    C3-    C2-    H6
     4      3      2      8      9 ;     0.00   0.75312   3 ;    CL1-    C3-    C2-    H4
     4      3      2      9      9 ;     0.00   0.75312   3 ;    CL1-    C3-    C2-    H5
     4      3      2     10      9 ;     0.00   0.75312   3 ;    CL1-    C3-    C2-    H6
     5      1      3      2      9 ;     0.00   0.54392   3 ;     H1-    C1-    C3-    C2
     5      1      3      4      9 ;     0.00   0.75312   3 ;     H1-    C1-    C3-   CL1
     5      1      3     11      9 ;     0.00   0.65084   3 ;     H1-    C1-    C3-    H7
     6      1      3      2      9 ;     0.00   0.54392   3 ;     H2-    C1-    C3-    C2
     6      1      3      4      9 ;     0.00   0.75312   3 ;     H2-    C1-    C3-   CL1
     6      1      3     11      9 ;     0.00   0.65084   3 ;     H2-    C1-    C3-    H7
     7      1      3      2      9 ;     0.00   0.54392   3 ;     H3-    C1-    C3-    C2
     7      1      3      4      9 ;     0.00   0.75312   3 ;     H3-    C1-    C3-   CL1
     7      1      3     11      9 ;     0.00   0.65084   3 ;     H3-    C1-    C3-    H7
     8      2      3     11      9 ;     0.00   0.65084   3 ;     H4-    C2-    C3-    H7
     9      2      3     11      9 ;     0.00   0.65084   3 ;     H5-    C2-    C3-    H7
    10      2      3     11      9 ;     0.00   0.65084   3 ;     H6-    C2-    C3-    H7
