2_chloropropane
    11
   0.8650000  -0.5430000   0.3970000   1.1980000   1.1740000   2.2080000
   1.0060000  -0.3020000   1.8930000   2.3970000  -1.2330000   2.5190000
   0.7150000  -1.6070000   0.1820000   0.0000000   0.0000000   0.0000000
   1.7520000  -0.2070000  -0.1510000   1.2870000   1.3370000   3.2880000
   0.3410000   1.7570000   1.8550000   2.0970000   1.5750000   1.7290000
   0.1160000  -0.6750000   2.4100000
