; mobley_1231151_GMX_OPLS.top created by acpype (v: 2023.10.27) on Wed May 20 23:59:02 2026

; Include forcefield parameters
#include "ffoplsaa.itp"

; Include mobley_1231151_GMX.itp topology
#include "mobley_1231151_GMX.itp"

; Ligand position restraints
#ifdef POSRES_LIG
#include "posre_mobley_1231151.itp"
#endif

[ system ]
 mobley_1231151

[ molecules ]
; Compound        nmols
 mobley_1231151   1     
