mobley_6812653_GMX.gro created by acpype (v: 2023.10.27) on Wed May 20 23:43:21 2026
 20
    1  MOL   C1    1  -0.073  -0.075  -0.034
    1  MOL   C2    2  -0.312  -0.268  -0.590
    1  MOL   C3    3  -0.083  -0.072  -0.186
    1  MOL   C4    4  -0.302  -0.270  -0.439
    1  MOL   C5    5  -0.187  -0.173  -0.236
    1  MOL   C6    6  -0.195  -0.173  -0.389
    1  MOL   H1    7  -0.168  -0.049   0.013
    1  MOL   H2    8   0.002  -0.002  -0.000
    1  MOL   H3    9  -0.043  -0.174   0.002
    1  MOL   H4   10  -0.340  -0.168  -0.626
    1  MOL   H5   11  -0.218  -0.296  -0.637
    1  MOL   H6   12  -0.389  -0.338  -0.624
    1  MOL   H7   13   0.015  -0.096  -0.229
    1  MOL   H8   14  -0.110   0.029  -0.218
    1  MOL   H9   15  -0.278  -0.372  -0.406
    1  MOL  H10   16  -0.399  -0.244  -0.395
    1  MOL  H11   17  -0.286  -0.148  -0.194
    1  MOL  H12   18  -0.162  -0.273  -0.200
    1  MOL  H13   19  -0.098  -0.200  -0.430
    1  MOL  H14   20  -0.219  -0.071  -0.424
    8.28000     8.00800    12.98400
