; mobley_6812653_GMX_OPLS.top created by acpype (v: 2023.10.27) on Wed May 20 23:43:21 2026

; Include forcefield parameters
#include "ffoplsaa.itp"

; Include mobley_6812653_GMX.itp topology
#include "mobley_6812653_GMX.itp"

; Ligand position restraints
#ifdef POSRES_LIG
#include "posre_mobley_6812653.itp"
#endif

[ system ]
 mobley_6812653

[ molecules ]
; Compound        nmols
 mobley_6812653   1     
