n_hexane
    20
  -0.7260000  -0.7470000  -0.3390000  -3.1250000  -2.6790000  -5.9030000
  -0.8330000  -0.7250000  -1.8560000  -3.0190000  -2.7000000  -4.3860000
  -1.8740000  -1.7250000  -2.3580000  -1.9540000  -1.7250000  -3.8850000
  -1.6820000  -0.4860000   0.1250000   0.0240000  -0.0240000  -0.0020000
  -0.4280000  -1.7370000   0.0190000  -3.3970000  -1.6810000  -6.2630000
  -2.1760000  -2.9650000  -6.3670000  -3.8930000  -3.3820000  -6.2390000
   0.1470000  -0.9590000  -2.2880000  -1.0990000   0.2860000  -2.1830000
  -2.7760000  -3.7180000  -4.0580000  -3.9930000  -2.4430000  -3.9540000
  -2.8560000  -1.4750000  -1.9380000  -1.6180000  -2.7310000  -2.0040000
  -0.9780000  -1.9990000  -4.3050000  -2.1860000  -0.7140000  -4.2410000
