%VERSION  VERSION_STAMP = V0001.000  DATE = 05/20/26  23:43:21                  
%FLAG TITLE                                                                     
%FORMAT(20a4)                                                                   
n_hexane                                                                        
%FLAG POINTERS                                                                  
%FORMAT(10I8)                                                                   
      20       2      14       5      32       4      42       3       0       0
     101       1       5       4       3       2       3       3       2       0
       0       0       0       0       0       0       0       0      20       0
       0
%FLAG ATOM_NAME                                                                 
%FORMAT(20a4)                                                                   
C1  C2  C3  C4  C5  C6  H1  H2  H3  H4  H5  H6  H7  H8  H9  H10 H11 H12 H13 H14 
%FLAG CHARGE                                                                    
%FORMAT(5E16.8)                                                                 
 -1.67827383E+00 -1.67827383E+00 -1.46507292E+00 -1.46507292E+00 -1.44685062E+00
 -1.44685062E+00  5.95869210E-01  5.95869210E-01  5.95869210E-01  5.95869210E-01
  5.95869210E-01  5.95869210E-01  7.05203010E-01  7.05203010E-01  7.05203010E-01
  7.05203010E-01  7.05203010E-01  7.05203010E-01  7.05203010E-01  7.05203010E-01
%FLAG ATOMIC_NUMBER                                                             
%FORMAT(10I8)                                                                   
       6       6       6       6       6       6       1       1       1       1
       1       1       1       1       1       1       1       1       1       1
%FLAG MASS                                                                      
%FORMAT(5E16.8)                                                                 
  1.20100000E+01  1.20100000E+01  1.20100000E+01  1.20100000E+01  1.20100000E+01
  1.20100000E+01  1.00800000E+00  1.00800000E+00  1.00800000E+00  1.00800000E+00
  1.00800000E+00  1.00800000E+00  1.00800000E+00  1.00800000E+00  1.00800000E+00
  1.00800000E+00  1.00800000E+00  1.00800000E+00  1.00800000E+00  1.00800000E+00
%FLAG ATOM_TYPE_INDEX                                                           
%FORMAT(10I8)                                                                   
       1       1       1       1       1       1       2       2       2       2
       2       2       2       2       2       2       2       2       2       2
%FLAG NUMBER_EXCLUDED_ATOMS                                                     
%FORMAT(10I8)                                                                   
      10      10      12      11      12      11       4       3       2       4
       3       2       3       2       3       2       3       2       1       1
%FLAG NONBONDED_PARM_INDEX                                                      
%FORMAT(10I8)                                                                   
       1       2       2       3
%FLAG RESIDUE_LABEL                                                             
%FORMAT(20a4)                                                                   
MOL 
%FLAG RESIDUE_POINTER                                                           
%FORMAT(10I8)                                                                   
       1
%FLAG BOND_FORCE_CONSTANT                                                       
%FORMAT(5E16.8)                                                                 
  2.28890000E+02  3.45250000E+02
%FLAG BOND_EQUIL_VALUE                                                          
%FORMAT(5E16.8)                                                                 
  1.53540000E+00  1.09620000E+00
%FLAG ANGLE_FORCE_CONSTANT                                                      
%FORMAT(5E16.8)                                                                 
  5.98700000E+01  4.32700000E+01  3.58000000E+01
%FLAG ANGLE_EQUIL_VALUE                                                         
%FORMAT(5E16.8)                                                                 
  1.96576518E+00  1.91427794E+00  1.88024401E+00
%FLAG DIHEDRAL_FORCE_CONSTANT                                                   
%FORMAT(5E16.8)                                                                 
  5.20000000E-01  1.30000000E-01  1.20000000E-01
%FLAG DIHEDRAL_PERIODICITY                                                      
%FORMAT(5E16.8)                                                                 
  3.00000000E+00  3.00000000E+00  3.00000000E+00
%FLAG DIHEDRAL_PHASE                                                            
%FORMAT(5E16.8)                                                                 
  0.00000000E+00  0.00000000E+00  0.00000000E+00
%FLAG SCEE_SCALE_FACTOR                                                         
%FORMAT(5E16.8)                                                                 
  1.20000000E+00  1.20000000E+00  1.20000000E+00
%FLAG SCNB_SCALE_FACTOR                                                         
%FORMAT(5E16.8)                                                                 
  2.00000000E+00  2.00000000E+00  2.00000000E+00
%FLAG SOLTY                                                                     
%FORMAT(5E16.8)                                                                 
  0.00000000E+00  0.00000000E+00
%FLAG LENNARD_JONES_ACOEF                                                       
%FORMAT(5E16.8)                                                                 
  1.02073671E+06  1.00235148E+05  7.94617769E+03
%FLAG LENNARD_JONES_BCOEF                                                       
%FORMAT(5E16.8)                                                                 
  6.63431737E+02  1.37787728E+02  2.57122925E+01
%FLAG BONDS_INC_HYDROGEN                                                        
%FORMAT(10I8)                                                                   
       0      18       2       0      21       2       0      24       2       3
      27       2       3      30       2       3      33       2       6      36
       2       6      39       2       9      42       2       9      45       2
      12      48       2      12      51       2      15      54       2      15
      57       2
%FLAG BONDS_WITHOUT_HYDROGEN                                                    
%FORMAT(10I8)                                                                   
       0       6       1       3       9       1       6      12       1       9
      15       1      12      15       1
%FLAG ANGLES_INC_HYDROGEN                                                       
%FORMAT(10I8)                                                                   
       0       6      36       2       0       6      39       2       3       9
      42       2       3       9      45       2       6       0      18       2
       6       0      21       2       6       0      24       2       6      12
      48       2       6      12      51       2       9       3      27       2
       9       3      30       2       9       3      33       2       9      15
      54       2       9      15      57       2      12       6      36       2
      12       6      39       2      12      15      54       2      12      15
      57       2      15       9      42       2      15       9      45       2
      15      12      48       2      15      12      51       2      18       0
      21       3      18       0      24       3      21       0      24       3
      27       3      30       3      27       3      33       3      30       3
      33       3      36       6      39       3      42       9      45       3
      48      12      51       3      54      15      57       3
%FLAG ANGLES_WITHOUT_HYDROGEN                                                   
%FORMAT(10I8)                                                                   
       0       6      12       1       3       9      15       1       6      12
      15       1       9      15      12       1
%FLAG DIHEDRALS_INC_HYDROGEN                                                    
%FORMAT(10I8)                                                                   
       0       6      12      48       2       0       6      12      51       2
       3       9      15      54       2       3       9      15      57       2
       6      12      15      54       2       6      12      15      57       2
       9      15      12      48       2       9      15      12      51       2
      18       0       6      12       2      21       0       6      12       2
      24       0       6      12       2      12      15       9      42       2
      12      15       9      45       2      15       9       3      27       2
      15       9       3      30       2      15       9       3      33       2
      15      12       6      36       2      15      12       6      39       2
      18       0       6      36       3      18       0       6      39       3
      21       0       6      36       3      21       0       6      39       3
      24       0       6      36       3      24       0       6      39       3
      27       3       9      42       3      27       3       9      45       3
      30       3       9      42       3      30       3       9      45       3
      33       3       9      42       3      33       3       9      45       3
      36       6      12      48       3      36       6      12      51       3
      39       6      12      48       3      39       6      12      51       3
      42       9      15      54       3      42       9      15      57       3
      45       9      15      54       3      45       9      15      57       3
      48      12      15      54       3      48      12      15      57       3
      51      12      15      54       3      51      12      15      57       3
%FLAG DIHEDRALS_WITHOUT_HYDROGEN                                                
%FORMAT(10I8)                                                                   
       0       6      12      15       1       3       9      15      12       1
       6      12      15       9       1
%FLAG EXCLUDED_ATOMS_LIST                                                       
%FORMAT(10I8)                                                                   
       3       5       6       7       8       9      13      14      17      18
       4       5       6      10      11      12      15      16      19      20
       4       5       6       7       8       9      13      14      17      18
      19      20       5       6      10      11      12      15      16      17
      18      19      20       6       7       8       9      13      14      15
      16      17      18      19      20      10      11      12      13      14
      15      16      17      18      19      20       8       9      13      14
       9      13      14      13      14      11      12      15      16      12
      15      16      15      16      14      17      18      17      18      16
      19      20      19      20      18      19      20      19      20      20
       0
%FLAG HBOND_ACOEF                                                               
%FORMAT(5E16.8)                                                                 

%FLAG HBOND_BCOEF                                                               
%FORMAT(5E16.8)                                                                 

%FLAG HBCUT                                                                     
%FORMAT(5E16.8)                                                                 

%FLAG AMBER_ATOM_TYPE                                                           
%FORMAT(20a4)                                                                   
c3  c3  c3  c3  c3  c3  hc  hc  hc  hc  hc  hc  hc  hc  hc  hc  hc  hc  hc  hc  
%FLAG TREE_CHAIN_CLASSIFICATION                                                 
%FORMAT(20a4)                                                                   
BLA BLA BLA BLA BLA BLA BLA BLA BLA BLA BLA BLA BLA BLA BLA BLA BLA BLA BLA BLA 
%FLAG JOIN_ARRAY                                                                
%FORMAT(10I8)                                                                   
       0       0       0       0       0       0       0       0       0       0
       0       0       0       0       0       0       0       0       0       0
%FLAG IROTAT                                                                    
%FORMAT(10I8)                                                                   
       0       0       0       0       0       0       0       0       0       0
       0       0       0       0       0       0       0       0       0       0
%FLAG RADIUS_SET                                                                
%FORMAT(1a80)                                                                   
modified Bondi radii (mbondi)                                                   
%FLAG RADII                                                                     
%FORMAT(5E16.8)                                                                 
  1.70000000E+00  1.70000000E+00  1.70000000E+00  1.70000000E+00  1.70000000E+00
  1.70000000E+00  1.30000000E+00  1.30000000E+00  1.30000000E+00  1.30000000E+00
  1.30000000E+00  1.30000000E+00  1.30000000E+00  1.30000000E+00  1.30000000E+00
  1.30000000E+00  1.30000000E+00  1.30000000E+00  1.30000000E+00  1.30000000E+00
%FLAG SCREEN                                                                    
%FORMAT(5E16.8)                                                                 
  7.20000000E-01  7.20000000E-01  7.20000000E-01  7.20000000E-01  7.20000000E-01
  7.20000000E-01  8.50000000E-01  8.50000000E-01  8.50000000E-01  8.50000000E-01
  8.50000000E-01  8.50000000E-01  8.50000000E-01  8.50000000E-01  8.50000000E-01
  8.50000000E-01  8.50000000E-01  8.50000000E-01  8.50000000E-01  8.50000000E-01
%FLAG IPOL                                                                      
%FORMAT(1I8)                                                                    
       0
