; mobley_6812653_GMX_OPLS.itp created by acpype (v: 2023.10.27) on Wed May 20 23:43:21 2026

; For OPLS atomtypes manual fine tuning
; AC_at:OPLS_at:OPLScode: Possible_Alternatives (see ffoplsaa.atp and ffoplsaanb.itp)
; c3:CT:opls_135: ['136', '137', '149', '157', '158', '206', '209', '210', '223B', '224B', '245', '246', '274', '283', '284', '285', '292', '292B', '293B', '296', '307', '308', '505']
; hc:HC:opls_140: []

[ moleculetype ]
;name            nrexcl
 mobley_6812653   3

[ atoms ]
;   nr  type  resi  res  atom  cgnr     charge      mass       ; qtot   bond_type
     1 opls_135     1   MOL    C1    1    -0.093100     12.01100 ; qtot -0.093  CT  
     2 opls_135     1   MOL    C2    2    -0.093100     12.01100 ; qtot -0.186  CT  
     3 opls_135     1   MOL    C3    3    -0.080400     12.01100 ; qtot -0.267  CT  
     4 opls_135     1   MOL    C4    4    -0.080400     12.01100 ; qtot -0.347  CT  
     5 opls_135     1   MOL    C5    5    -0.079400     12.01100 ; qtot -0.426  CT  
     6 opls_135     1   MOL    C6    6    -0.079400     12.01100 ; qtot -0.506  CT  
     7 opls_140     1   MOL    H1    7     0.032700      1.00800 ; qtot -0.473  HC  
     8 opls_140     1   MOL    H2    8     0.032700      1.00800 ; qtot -0.440  HC  
     9 opls_140     1   MOL    H3    9     0.032700      1.00800 ; qtot -0.408  HC  
    10 opls_140     1   MOL    H4   10     0.032700      1.00800 ; qtot -0.375  HC  
    11 opls_140     1   MOL    H5   11     0.032700      1.00800 ; qtot -0.342  HC  
    12 opls_140     1   MOL    H6   12     0.032700      1.00800 ; qtot -0.310  HC  
    13 opls_140     1   MOL    H7   13     0.038700      1.00800 ; qtot -0.271  HC  
    14 opls_140     1   MOL    H8   14     0.038700      1.00800 ; qtot -0.232  HC  
    15 opls_140     1   MOL    H9   15     0.038700      1.00800 ; qtot -0.193  HC  
    16 opls_140     1   MOL   H10   16     0.038700      1.00800 ; qtot -0.155  HC  
    17 opls_140     1   MOL   H11   17     0.038700      1.00800 ; qtot -0.116  HC  
    18 opls_140     1   MOL   H12   18     0.038700      1.00800 ; qtot -0.077  HC  
    19 opls_140     1   MOL   H13   19     0.038700      1.00800 ; qtot -0.039  HC  
    20 opls_140     1   MOL   H14   20     0.038700      1.00800 ; qtot  0.000  HC  

[ bonds ]
;   ai     aj funct   r             k
     1      3   1 ;    1.5354e-01    1.9154e+05 ;     C1 - C3         CT - CT    
     1      7   1 ;    1.0962e-01    2.8891e+05 ;     C1 - H1         CT - HC    
     1      8   1 ;    1.0962e-01    2.8891e+05 ;     C1 - H2         CT - HC    
     1      9   1 ;    1.0962e-01    2.8891e+05 ;     C1 - H3         CT - HC    
     2      4   1 ;    1.5354e-01    1.9154e+05 ;     C2 - C4         CT - CT    
     2     10   1 ;    1.0962e-01    2.8891e+05 ;     C2 - H4         CT - HC    
     2     11   1 ;    1.0962e-01    2.8891e+05 ;     C2 - H5         CT - HC    
     2     12   1 ;    1.0962e-01    2.8891e+05 ;     C2 - H6         CT - HC    
     3      5   1 ;    1.5354e-01    1.9154e+05 ;     C3 - C5         CT - CT    
     3     13   1 ;    1.0962e-01    2.8891e+05 ;     C3 - H7         CT - HC    
     3     14   1 ;    1.0962e-01    2.8891e+05 ;     C3 - H8         CT - HC    
     4      6   1 ;    1.5354e-01    1.9154e+05 ;     C4 - C6         CT - CT    
     4     15   1 ;    1.0962e-01    2.8891e+05 ;     C4 - H9         CT - HC    
     4     16   1 ;    1.0962e-01    2.8891e+05 ;     C4 - H10        CT - HC    
     5      6   1 ;    1.5354e-01    1.9154e+05 ;     C5 - C6         CT - CT    
     5     17   1 ;    1.0962e-01    2.8891e+05 ;     C5 - H11        CT - HC    
     5     18   1 ;    1.0962e-01    2.8891e+05 ;     C5 - H12        CT - HC    
     6     19   1 ;    1.0962e-01    2.8891e+05 ;     C6 - H13        CT - HC    
     6     20   1 ;    1.0962e-01    2.8891e+05 ;     C6 - H14        CT - HC    

[ pairs ]
;   ai     aj    funct
     1      6      1 ;     C1 - C6    
     1     17      1 ;     C1 - H11   
     1     18      1 ;     C1 - H12   
     2      5      1 ;     C2 - C5    
     2     19      1 ;     C2 - H13   
     2     20      1 ;     C2 - H14   
     3      4      1 ;     C3 - C4    
     3     19      1 ;     C3 - H13   
     3     20      1 ;     C3 - H14   
     4     17      1 ;     C4 - H11   
     4     18      1 ;     C4 - H12   
     5     15      1 ;     C5 - H9    
     5     16      1 ;     C5 - H10   
     6     10      1 ;     C6 - H4    
     6     11      1 ;     C6 - H5    
     6     12      1 ;     C6 - H6    
     6     13      1 ;     C6 - H7    
     6     14      1 ;     C6 - H8    
     7      5      1 ;     H1 - C5    
     7     13      1 ;     H1 - H7    
     7     14      1 ;     H1 - H8    
     8      5      1 ;     H2 - C5    
     8     13      1 ;     H2 - H7    
     8     14      1 ;     H2 - H8    
     9      5      1 ;     H3 - C5    
     9     13      1 ;     H3 - H7    
     9     14      1 ;     H3 - H8    
    10     15      1 ;     H4 - H9    
    10     16      1 ;     H4 - H10   
    11     15      1 ;     H5 - H9    
    11     16      1 ;     H5 - H10   
    12     15      1 ;     H6 - H9    
    12     16      1 ;     H6 - H10   
    13     17      1 ;     H7 - H11   
    13     18      1 ;     H7 - H12   
    14     17      1 ;     H8 - H11   
    14     18      1 ;     H8 - H12   
    15     19      1 ;     H9 - H13   
    15     20      1 ;     H9 - H14   
    16     19      1 ;    H10 - H13   
    16     20      1 ;    H10 - H14   
    17     19      1 ;    H11 - H13   
    17     20      1 ;    H11 - H14   
    18     19      1 ;    H12 - H13   
    18     20      1 ;    H12 - H14   

[ angles ]
;   ai     aj     ak    funct   theta         cth
     1      3      5      1 ;    1.1263e+02    5.0099e+02 ;     C1 - C3   - C5       CT -   CT - CT  
     1      3     13      1 ;    1.0968e+02    3.6208e+02 ;     C1 - C3   - H7       CT -   CT - HC  
     1      3     14      1 ;    1.0968e+02    3.6208e+02 ;     C1 - C3   - H8       CT -   CT - HC  
     2      4      6      1 ;    1.1263e+02    5.0099e+02 ;     C2 - C4   - C6       CT -   CT - CT  
     2      4     15      1 ;    1.0968e+02    3.6208e+02 ;     C2 - C4   - H9       CT -   CT - HC  
     2      4     16      1 ;    1.0968e+02    3.6208e+02 ;     C2 - C4   - H10      CT -   CT - HC  
     3      1      7      1 ;    1.0968e+02    3.6208e+02 ;     C3 - C1   - H1       CT -   CT - HC  
     3      1      8      1 ;    1.0968e+02    3.6208e+02 ;     C3 - C1   - H2       CT -   CT - HC  
     3      1      9      1 ;    1.0968e+02    3.6208e+02 ;     C3 - C1   - H3       CT -   CT - HC  
     3      5      6      1 ;    1.1263e+02    5.0099e+02 ;     C3 - C5   - C6       CT -   CT - CT  
     3      5     17      1 ;    1.0968e+02    3.6208e+02 ;     C3 - C5   - H11      CT -   CT - HC  
     3      5     18      1 ;    1.0968e+02    3.6208e+02 ;     C3 - C5   - H12      CT -   CT - HC  
     4      2     10      1 ;    1.0968e+02    3.6208e+02 ;     C4 - C2   - H4       CT -   CT - HC  
     4      2     11      1 ;    1.0968e+02    3.6208e+02 ;     C4 - C2   - H5       CT -   CT - HC  
     4      2     12      1 ;    1.0968e+02    3.6208e+02 ;     C4 - C2   - H6       CT -   CT - HC  
     4      6      5      1 ;    1.1263e+02    5.0099e+02 ;     C4 - C6   - C5       CT -   CT - CT  
     4      6     19      1 ;    1.0968e+02    3.6208e+02 ;     C4 - C6   - H13      CT -   CT - HC  
     4      6     20      1 ;    1.0968e+02    3.6208e+02 ;     C4 - C6   - H14      CT -   CT - HC  
     5      3     13      1 ;    1.0968e+02    3.6208e+02 ;     C5 - C3   - H7       CT -   CT - HC  
     5      3     14      1 ;    1.0968e+02    3.6208e+02 ;     C5 - C3   - H8       CT -   CT - HC  
     5      6     19      1 ;    1.0968e+02    3.6208e+02 ;     C5 - C6   - H13      CT -   CT - HC  
     5      6     20      1 ;    1.0968e+02    3.6208e+02 ;     C5 - C6   - H14      CT -   CT - HC  
     6      4     15      1 ;    1.0968e+02    3.6208e+02 ;     C6 - C4   - H9       CT -   CT - HC  
     6      4     16      1 ;    1.0968e+02    3.6208e+02 ;     C6 - C4   - H10      CT -   CT - HC  
     6      5     17      1 ;    1.0968e+02    3.6208e+02 ;     C6 - C5   - H11      CT -   CT - HC  
     6      5     18      1 ;    1.0968e+02    3.6208e+02 ;     C6 - C5   - H12      CT -   CT - HC  
     7      1      8      1 ;    1.0773e+02    2.9957e+02 ;     H1 - C1   - H2       HC -   CT - HC  
     7      1      9      1 ;    1.0773e+02    2.9957e+02 ;     H1 - C1   - H3       HC -   CT - HC  
     8      1      9      1 ;    1.0773e+02    2.9957e+02 ;     H2 - C1   - H3       HC -   CT - HC  
    10      2     11      1 ;    1.0773e+02    2.9957e+02 ;     H4 - C2   - H5       HC -   CT - HC  
    10      2     12      1 ;    1.0773e+02    2.9957e+02 ;     H4 - C2   - H6       HC -   CT - HC  
    11      2     12      1 ;    1.0773e+02    2.9957e+02 ;     H5 - C2   - H6       HC -   CT - HC  
    13      3     14      1 ;    1.0773e+02    2.9957e+02 ;     H7 - C3   - H8       HC -   CT - HC  
    15      4     16      1 ;    1.0773e+02    2.9957e+02 ;     H9 - C4   - H10      HC -   CT - HC  
    17      5     18      1 ;    1.0773e+02    2.9957e+02 ;    H11 - C5   - H12      HC -   CT - HC  
    19      6     20      1 ;    1.0773e+02    2.9957e+02 ;    H13 - C6   - H14      HC -   CT - HC  

[ dihedrals ] ; propers
; for gromacs 4.5 or higher, using funct 9
;    i      j      k      l   func   phase     kd      pn
     1      3      5      6      9 ;     0.00   2.17568   3 ;     C1-    C3-    C5-    C6
     1      3      5     17      9 ;     0.00   0.54392   3 ;     C1-    C3-    C5-   H11
     1      3      5     18      9 ;     0.00   0.54392   3 ;     C1-    C3-    C5-   H12
     2      4      6      5      9 ;     0.00   2.17568   3 ;     C2-    C4-    C6-    C5
     2      4      6     19      9 ;     0.00   0.54392   3 ;     C2-    C4-    C6-   H13
     2      4      6     20      9 ;     0.00   0.54392   3 ;     C2-    C4-    C6-   H14
     3      5      6      4      9 ;     0.00   2.17568   3 ;     C3-    C5-    C6-    C4
     3      5      6     19      9 ;     0.00   0.54392   3 ;     C3-    C5-    C6-   H13
     3      5      6     20      9 ;     0.00   0.54392   3 ;     C3-    C5-    C6-   H14
     4      6      5     17      9 ;     0.00   0.54392   3 ;     C4-    C6-    C5-   H11
     4      6      5     18      9 ;     0.00   0.54392   3 ;     C4-    C6-    C5-   H12
     5      6      4     15      9 ;     0.00   0.54392   3 ;     C5-    C6-    C4-    H9
     5      6      4     16      9 ;     0.00   0.54392   3 ;     C5-    C6-    C4-   H10
     6      4      2     10      9 ;     0.00   0.54392   3 ;     C6-    C4-    C2-    H4
     6      4      2     11      9 ;     0.00   0.54392   3 ;     C6-    C4-    C2-    H5
     6      4      2     12      9 ;     0.00   0.54392   3 ;     C6-    C4-    C2-    H6
     6      5      3     13      9 ;     0.00   0.54392   3 ;     C6-    C5-    C3-    H7
     6      5      3     14      9 ;     0.00   0.54392   3 ;     C6-    C5-    C3-    H8
     7      1      3      5      9 ;     0.00   0.54392   3 ;     H1-    C1-    C3-    C5
     7      1      3     13      9 ;     0.00   0.50208   3 ;     H1-    C1-    C3-    H7
     7      1      3     14      9 ;     0.00   0.50208   3 ;     H1-    C1-    C3-    H8
     8      1      3      5      9 ;     0.00   0.54392   3 ;     H2-    C1-    C3-    C5
     8      1      3     13      9 ;     0.00   0.50208   3 ;     H2-    C1-    C3-    H7
     8      1      3     14      9 ;     0.00   0.50208   3 ;     H2-    C1-    C3-    H8
     9      1      3      5      9 ;     0.00   0.54392   3 ;     H3-    C1-    C3-    C5
     9      1      3     13      9 ;     0.00   0.50208   3 ;     H3-    C1-    C3-    H7
     9      1      3     14      9 ;     0.00   0.50208   3 ;     H3-    C1-    C3-    H8
    10      2      4     15      9 ;     0.00   0.50208   3 ;     H4-    C2-    C4-    H9
    10      2      4     16      9 ;     0.00   0.50208   3 ;     H4-    C2-    C4-   H10
    11      2      4     15      9 ;     0.00   0.50208   3 ;     H5-    C2-    C4-    H9
    11      2      4     16      9 ;     0.00   0.50208   3 ;     H5-    C2-    C4-   H10
    12      2      4     15      9 ;     0.00   0.50208   3 ;     H6-    C2-    C4-    H9
    12      2      4     16      9 ;     0.00   0.50208   3 ;     H6-    C2-    C4-   H10
    13      3      5     17      9 ;     0.00   0.50208   3 ;     H7-    C3-    C5-   H11
    13      3      5     18      9 ;     0.00   0.50208   3 ;     H7-    C3-    C5-   H12
    14      3      5     17      9 ;     0.00   0.50208   3 ;     H8-    C3-    C5-   H11
    14      3      5     18      9 ;     0.00   0.50208   3 ;     H8-    C3-    C5-   H12
    15      4      6     19      9 ;     0.00   0.50208   3 ;     H9-    C4-    C6-   H13
    15      4      6     20      9 ;     0.00   0.50208   3 ;     H9-    C4-    C6-   H14
    16      4      6     19      9 ;     0.00   0.50208   3 ;    H10-    C4-    C6-   H13
    16      4      6     20      9 ;     0.00   0.50208   3 ;    H10-    C4-    C6-   H14
    17      5      6     19      9 ;     0.00   0.50208   3 ;    H11-    C5-    C6-   H13
    17      5      6     20      9 ;     0.00   0.50208   3 ;    H11-    C5-    C6-   H14
    18      5      6     19      9 ;     0.00   0.50208   3 ;    H12-    C5-    C6-   H13
    18      5      6     20      9 ;     0.00   0.50208   3 ;    H12-    C5-    C6-   H14
