2_naphthol
    19
  -0.5710000  -2.0560000   0.2750000   0.3370000  -1.0320000   0.0230000
  -0.1390000  -3.3820000   0.3040000   1.6820000  -1.3310000  -0.2010000
   1.6630000  -5.0300000   0.1060000   3.0080000  -5.3280000  -0.1180000
   3.4840000  -2.9790000  -0.3990000   1.2100000  -3.7010000   0.0800000
   2.1350000  -2.6600000  -0.1750000   3.9170000  -4.3050000  -0.3700000
   5.2280000  -4.5970000  -0.5870000  -1.6170000  -1.8220000   0.4490000
   0.0000000   0.0000000   0.0010000  -0.8670000  -4.1670000   0.5010000
   2.3740000  -0.5140000  -0.3960000   0.9710000  -5.8460000   0.2990000
   3.3390000  -6.3630000  -0.0940000   4.2070000  -2.1900000  -0.5980000
   5.6980000  -4.5900000   0.2670000
