; mobley_3663158_GMX_OPLS.top created by acpype (v: 2023.10.27) on Wed May 20 23:56:02 2026

; Include forcefield parameters
#include "ffoplsaa.itp"

; Include mobley_3663158_GMX.itp topology
#include "mobley_3663158_GMX.itp"

; Ligand position restraints
#ifdef POSRES_LIG
#include "posre_mobley_3663158.itp"
#endif

[ system ]
 mobley_3663158

[ molecules ]
; Compound        nmols
 mobley_3663158   1     
