; mobley_3663158_GMX_OPLS.itp created by acpype (v: 2023.10.27) on Wed May 20 23:56:02 2026

; For OPLS atomtypes manual fine tuning
; AC_at:OPLS_at:OPLScode: Possible_Alternatives (see ffoplsaa.atp and ffoplsaanb.itp)
; ca:CA:opls_145: ['166', '501', '502']
; oh:OH:opls_154: ['167']
; ha:HA:opls_146: []
; ho:HO:opls_155: ['168']

[ moleculetype ]
;name            nrexcl
 mobley_3663158   3

[ atoms ]
;   nr  type  resi  res  atom  cgnr     charge      mass       ; qtot   bond_type
     1 opls_145     1   MOL    C1    1    -0.137000     12.01100 ; qtot -0.137  CA  
     2 opls_145     1   MOL    C2    2    -0.118000     12.01100 ; qtot -0.255  CA  
     3 opls_145     1   MOL    C3    3    -0.107000     12.01100 ; qtot -0.362  CA  
     4 opls_145     1   MOL    C4    4    -0.126000     12.01100 ; qtot -0.488  CA  
     5 opls_145     1   MOL    C5    5    -0.080000     12.01100 ; qtot -0.568  CA  
     6 opls_145     1   MOL    C6    6    -0.194000     12.01100 ; qtot -0.762  CA  
     7 opls_145     1   MOL    C7    7    -0.159000     12.01100 ; qtot -0.921  CA  
     8 opls_145     1   MOL    C8    8    -0.067000     12.01100 ; qtot -0.988  CA  
     9 opls_145     1   MOL    C9    9    -0.003000     12.01100 ; qtot -0.991  CA  
    10 opls_145     1   MOL   C10   10     0.120100     12.01100 ; qtot -0.871  CA  
    11 opls_154     1   MOL    O1   11    -0.497100     15.99940 ; qtot -1.368  OH  
    12 opls_146     1   MOL    H1   12     0.132000      1.00800 ; qtot -1.236  HA  
    13 opls_146     1   MOL    H2   13     0.132000      1.00800 ; qtot -1.104  HA  
    14 opls_146     1   MOL    H3   14     0.131000      1.00800 ; qtot -0.973  HA  
    15 opls_146     1   MOL    H4   15     0.135000      1.00800 ; qtot -0.838  HA  
    16 opls_146     1   MOL    H5   16     0.135000      1.00800 ; qtot -0.703  HA  
    17 opls_146     1   MOL    H6   17     0.134000      1.00800 ; qtot -0.569  HA  
    18 opls_146     1   MOL    H7   18     0.151000      1.00800 ; qtot -0.418  HA  
    19 opls_155     1   MOL    H8   19     0.418000      1.00800 ; qtot -0.000  HO  

[ bonds ]
;   ai     aj funct   r             k
     1      2   1 ;    1.3986e-01    2.9644e+05 ;     C1 - C2         CA - CA    
     1      3   1 ;    1.3986e-01    2.9644e+05 ;     C1 - C3         CA - CA    
     1     12   1 ;    1.0860e-01    3.0183e+05 ;     C1 - H1         CA - HA    
     2      4   1 ;    1.3986e-01    2.9644e+05 ;     C2 - C4         CA - CA    
     2     13   1 ;    1.0860e-01    3.0183e+05 ;     C2 - H2         CA - HA    
     3      8   1 ;    1.3986e-01    2.9644e+05 ;     C3 - C8         CA - CA    
     3     14   1 ;    1.0860e-01    3.0183e+05 ;     C3 - H3         CA - HA    
     4      9   1 ;    1.3986e-01    2.9644e+05 ;     C4 - C9         CA - CA    
     4     15   1 ;    1.0860e-01    3.0183e+05 ;     C4 - H4         CA - HA    
     5      6   1 ;    1.3986e-01    2.9644e+05 ;     C5 - C6         CA - CA    
     5      8   1 ;    1.3986e-01    2.9644e+05 ;     C5 - C8         CA - CA    
     5     16   1 ;    1.0860e-01    3.0183e+05 ;     C5 - H5         CA - HA    
     6     10   1 ;    1.3986e-01    2.9644e+05 ;     C6 - C10        CA - CA    
     6     17   1 ;    1.0860e-01    3.0183e+05 ;     C6 - H6         CA - HA    
     7      9   1 ;    1.3986e-01    2.9644e+05 ;     C7 - C9         CA - CA    
     7     10   1 ;    1.3986e-01    2.9644e+05 ;     C7 - C10        CA - CA    
     7     18   1 ;    1.0860e-01    3.0183e+05 ;     C7 - H7         CA - HA    
     8      9   1 ;    1.3986e-01    2.9644e+05 ;     C8 - C9         CA - CA    
    10     11   1 ;    1.3644e-01    2.9167e+05 ;    C10 - O1         CA - OH    
    11     19   1 ;    9.7250e-02    4.4811e+05 ;     O1 - H8         OH - HO    

[ pairs ]
;   ai     aj    funct
     1      5      1 ;     C1 - C5    
     1      9      1 ;     C1 - C9    
     1     15      1 ;     C1 - H4    
     2      7      1 ;     C2 - C7    
     2      8      1 ;     C2 - C8    
     2     14      1 ;     C2 - H3    
     3      4      1 ;     C3 - C4    
     3      6      1 ;     C3 - C6    
     3      7      1 ;     C3 - C7    
     3     13      1 ;     C3 - H2    
     3     16      1 ;     C3 - H5    
     4      5      1 ;     C4 - C5    
     4     10      1 ;     C4 - C10   
     4     18      1 ;     C4 - H7    
     5      7      1 ;     C5 - C7    
     5     11      1 ;     C5 - O1    
     5     14      1 ;     C5 - H3    
     6      9      1 ;     C6 - C9    
     6     18      1 ;     C6 - H7    
     6     19      1 ;     C6 - H8    
     7     15      1 ;     C7 - H4    
     7     17      1 ;     C7 - H6    
     7     19      1 ;     C7 - H8    
     8     10      1 ;     C8 - C10   
     8     15      1 ;     C8 - H4    
     8     17      1 ;     C8 - H6    
     8     18      1 ;     C8 - H7    
     9     11      1 ;     C9 - O1    
     9     13      1 ;     C9 - H2    
     9     14      1 ;     C9 - H3    
     9     16      1 ;     C9 - H5    
    10     16      1 ;    C10 - H5    
    11     17      1 ;     O1 - H6    
    11     18      1 ;     O1 - H7    
    12      4      1 ;     H1 - C4    
    12      8      1 ;     H1 - C8    
    12     13      1 ;     H1 - H2    
    12     14      1 ;     H1 - H3    
    13     15      1 ;     H2 - H4    
    16     17      1 ;     H5 - H6    

[ angles ]
;   ai     aj     ak    funct   theta         cth
     1      2      4      1 ;    1.2002e+02    5.3279e+02 ;     C1 - C2   - C4       CA -   CA - CA  
     1      2     13      1 ;    1.1988e+02    3.7572e+02 ;     C1 - C2   - H2       CA -   CA - HA  
     1      3      8      1 ;    1.2002e+02    5.3279e+02 ;     C1 - C3   - C8       CA -   CA - CA  
     1      3     14      1 ;    1.1988e+02    3.7572e+02 ;     C1 - C3   - H3       CA -   CA - HA  
     2      1      3      1 ;    1.2002e+02    5.3279e+02 ;     C2 - C1   - C3       CA -   CA - CA  
     2      1     12      1 ;    1.1988e+02    3.7572e+02 ;     C2 - C1   - H1       CA -   CA - HA  
     2      4      9      1 ;    1.2002e+02    5.3279e+02 ;     C2 - C4   - C9       CA -   CA - CA  
     2      4     15      1 ;    1.1988e+02    3.7572e+02 ;     C2 - C4   - H4       CA -   CA - HA  
     3      1     12      1 ;    1.1988e+02    3.7572e+02 ;     C3 - C1   - H1       CA -   CA - HA  
     3      8      5      1 ;    1.2002e+02    5.3279e+02 ;     C3 - C8   - C5       CA -   CA - CA  
     3      8      9      1 ;    1.2002e+02    5.3279e+02 ;     C3 - C8   - C9       CA -   CA - CA  
     4      2     13      1 ;    1.1988e+02    3.7572e+02 ;     C4 - C2   - H2       CA -   CA - HA  
     4      9      7      1 ;    1.2002e+02    5.3279e+02 ;     C4 - C9   - C7       CA -   CA - CA  
     4      9      8      1 ;    1.2002e+02    5.3279e+02 ;     C4 - C9   - C8       CA -   CA - CA  
     5      6     10      1 ;    1.2002e+02    5.3279e+02 ;     C5 - C6   - C10      CA -   CA - CA  
     5      6     17      1 ;    1.1988e+02    3.7572e+02 ;     C5 - C6   - H6       CA -   CA - HA  
     5      8      9      1 ;    1.2002e+02    5.3279e+02 ;     C5 - C8   - C9       CA -   CA - CA  
     6      5      8      1 ;    1.2002e+02    5.3279e+02 ;     C6 - C5   - C8       CA -   CA - CA  
     6      5     16      1 ;    1.1988e+02    3.7572e+02 ;     C6 - C5   - H5       CA -   CA - HA  
     6     10      7      1 ;    1.2002e+02    5.3279e+02 ;     C6 - C10  - C7       CA -   CA - CA  
     6     10     11      1 ;    1.1990e+02    6.5990e+02 ;     C6 - C10  - O1       CA -   CA - OH  
     7      9      8      1 ;    1.2002e+02    5.3279e+02 ;     C7 - C9   - C8       CA -   CA - CA  
     7     10     11      1 ;    1.1990e+02    6.5990e+02 ;     C7 - C10  - O1       CA -   CA - OH  
     8      3     14      1 ;    1.1988e+02    3.7572e+02 ;     C8 - C3   - H3       CA -   CA - HA  
     8      5     16      1 ;    1.1988e+02    3.7572e+02 ;     C8 - C5   - H5       CA -   CA - HA  
     9      4     15      1 ;    1.1988e+02    3.7572e+02 ;     C9 - C4   - H4       CA -   CA - HA  
     9      7     10      1 ;    1.2002e+02    5.3279e+02 ;     C9 - C7   - C10      CA -   CA - CA  
     9      7     18      1 ;    1.1988e+02    3.7572e+02 ;     C9 - C7   - H7       CA -   CA - HA  
    10      6     17      1 ;    1.1988e+02    3.7572e+02 ;    C10 - C6   - H6       CA -   CA - HA  
    10      7     18      1 ;    1.1988e+02    3.7572e+02 ;    C10 - C7   - H7       CA -   CA - HA  
    10     11     19      1 ;    1.0858e+02    5.6409e+02 ;    C10 - O1   - H8       CA -   OH - HO  

[ dihedrals ] ; propers
; for gromacs 4.5 or higher, using funct 9
;    i      j      k      l   func   phase     kd      pn
     1      2      4      9      9 ;   180.00  15.16700   2 ;     C1-    C2-    C4-    C9
     1      2      4     15      9 ;   180.00  15.16700   2 ;     C1-    C2-    C4-    H4
     1      3      8      5      9 ;   180.00  15.16700   2 ;     C1-    C3-    C8-    C5
     1      3      8      9      9 ;   180.00  15.16700   2 ;     C1-    C3-    C8-    C9
     2      1      3      8      9 ;   180.00  15.16700   2 ;     C2-    C1-    C3-    C8
     2      1      3     14      9 ;   180.00  15.16700   2 ;     C2-    C1-    C3-    H3
     2      4      9      7      9 ;   180.00  15.16700   2 ;     C2-    C4-    C9-    C7
     2      4      9      8      9 ;   180.00  15.16700   2 ;     C2-    C4-    C9-    C8
     3      1      2      4      9 ;   180.00  15.16700   2 ;     C3-    C1-    C2-    C4
     3      1      2     13      9 ;   180.00  15.16700   2 ;     C3-    C1-    C2-    H2
     3      8      5      6      9 ;   180.00  15.16700   2 ;     C3-    C8-    C5-    C6
     3      8      5     16      9 ;   180.00  15.16700   2 ;     C3-    C8-    C5-    H5
     3      8      9      4      9 ;   180.00  15.16700   2 ;     C3-    C8-    C9-    C4
     3      8      9      7      9 ;   180.00  15.16700   2 ;     C3-    C8-    C9-    C7
     4      9      7     10      9 ;   180.00  15.16700   2 ;     C4-    C9-    C7-   C10
     4      9      7     18      9 ;   180.00  15.16700   2 ;     C4-    C9-    C7-    H7
     4      9      8      5      9 ;   180.00  15.16700   2 ;     C4-    C9-    C8-    C5
     5      6     10      7      9 ;   180.00  15.16700   2 ;     C5-    C6-   C10-    C7
     5      6     10     11      9 ;   180.00  15.16700   2 ;     C5-    C6-   C10-    O1
     5      8      3     14      9 ;   180.00  15.16700   2 ;     C5-    C8-    C3-    H3
     5      8      9      7      9 ;   180.00  15.16700   2 ;     C5-    C8-    C9-    C7
     6      5      8      9      9 ;   180.00  15.16700   2 ;     C6-    C5-    C8-    C9
     6     10      7      9      9 ;   180.00  15.16700   2 ;     C6-   C10-    C7-    C9
     6     10      7     18      9 ;   180.00  15.16700   2 ;     C6-   C10-    C7-    H7
     6     10     11     19      9 ;   180.00   3.57732   2 ;     C6-   C10-    O1-    H8
     7      9      4     15      9 ;   180.00  15.16700   2 ;     C7-    C9-    C4-    H4
     7     10      6     17      9 ;   180.00  15.16700   2 ;     C7-   C10-    C6-    H6
     7     10     11     19      9 ;   180.00   3.57732   2 ;     C7-   C10-    O1-    H8
     8      5      6     10      9 ;   180.00  15.16700   2 ;     C8-    C5-    C6-   C10
     8      5      6     17      9 ;   180.00  15.16700   2 ;     C8-    C5-    C6-    H6
     8      9      4     15      9 ;   180.00  15.16700   2 ;     C8-    C9-    C4-    H4
     8      9      7     10      9 ;   180.00  15.16700   2 ;     C8-    C9-    C7-   C10
     8      9      7     18      9 ;   180.00  15.16700   2 ;     C8-    C9-    C7-    H7
     9      4      2     13      9 ;   180.00  15.16700   2 ;     C9-    C4-    C2-    H2
     9      7     10     11      9 ;   180.00  15.16700   2 ;     C9-    C7-   C10-    O1
     9      8      3     14      9 ;   180.00  15.16700   2 ;     C9-    C8-    C3-    H3
     9      8      5     16      9 ;   180.00  15.16700   2 ;     C9-    C8-    C5-    H5
    10      6      5     16      9 ;   180.00  15.16700   2 ;    C10-    C6-    C5-    H5
    11     10      6     17      9 ;   180.00  15.16700   2 ;     O1-   C10-    C6-    H6
    11     10      7     18      9 ;   180.00  15.16700   2 ;     O1-   C10-    C7-    H7
    12      1      2      4      9 ;   180.00  15.16700   2 ;     H1-    C1-    C2-    C4
    12      1      2     13      9 ;   180.00  15.16700   2 ;     H1-    C1-    C2-    H2
    12      1      3      8      9 ;   180.00  15.16700   2 ;     H1-    C1-    C3-    C8
    12      1      3     14      9 ;   180.00  15.16700   2 ;     H1-    C1-    C3-    H3
    13      2      4     15      9 ;   180.00  15.16700   2 ;     H2-    C2-    C4-    H4
    16      5      6     17      9 ;   180.00  15.16700   2 ;     H5-    C5-    C6-    H6

[ dihedrals ] ; impropers
; treated as propers in GROMACS to use correct AMBER analytical function
;    i      j      k      l   func   phase     kd      pn
     1      4      2     13      4 ;   180.00   4.60240   2 ;     C1-    C4-    C2-    H2
     1      8      3     14      4 ;   180.00   4.60240   2 ;     C1-    C8-    C3-    H3
     2      9      4     15      4 ;   180.00   4.60240   2 ;     C2-    C9-    C4-    H4
     3      5      8      9      4 ;   180.00   4.60240   2 ;     C3-    C5-    C8-    C9
     4      7      9      8      4 ;   180.00   4.60240   2 ;     C4-    C7-    C9-    C8
     5     10      6     17      4 ;   180.00   4.60240   2 ;     C5-   C10-    C6-    H6
     6      7     10     11      4 ;   180.00   4.60240   2 ;     C6-    C7-   C10-    O1
     6      8      5     16      4 ;   180.00   4.60240   2 ;     C6-    C8-    C5-    H5
     9     10      7     18      4 ;   180.00   4.60240   2 ;     C9-   C10-    C7-    H7
    12      1      3      2      4 ;   180.00   4.60240   2 ;     H1-    C1-    C3-    C2
