mobley_2659552_GMX.gro created by acpype (v: 2023.10.27) on Wed May 20 23:42:01 2026
   25
    1MOL     C1    1   2.562   2.459   2.422
    1MOL     C2    2   2.357   2.336   2.420
    1MOL     C3    3   2.633   2.340   2.420
    1MOL     C4    4   2.428   2.217   2.420
    1MOL     C5    5   2.423   2.458   2.423
    1MOL     C6    6   2.567   2.217   2.420
    1MOL     C7    7   2.341   2.584   2.415
    1MOL     C8    8   2.644   2.087   2.421
    1MOL     C9    9   2.306   2.815   2.469
    1MOL    C10   10   2.447   2.682   2.618
    1MOL     N1   11   2.379   2.691   2.490
    1MOL     O1   12   2.247   2.588   2.340
    1MOL     H1   13   2.615   2.552   2.421
    1MOL     H2   14   2.249   2.334   2.416
    1MOL     H3   15   2.740   2.343   2.418
    1MOL     H4   16   2.375   2.123   2.418
    1MOL     H5   17   2.747   2.102   2.389
    1MOL     H6   18   2.646   2.044   2.521
    1MOL     H7   19   2.599   2.014   2.355
    1MOL     H8   20   2.282   2.826   2.364
    1MOL     H9   21   2.214   2.818   2.526
    1MOL    H10   22   2.369   2.898   2.500
    1MOL    H11   23   2.480   2.582   2.638
    1MOL    H12   24   2.379   2.712   2.698
    1MOL    H13   25   2.533   2.749   2.620
   4.92487   4.92487   4.92487
