mobley_2659552_GMX.gro created by acpype (v: 2023.10.27) on Wed May 20 23:42:01 2026
11770
    1MOL     C1    1   2.562   2.459   2.422
    1MOL     C2    2   2.357   2.336   2.420
    1MOL     C3    3   2.633   2.340   2.420
    1MOL     C4    4   2.428   2.217   2.420
    1MOL     C5    5   2.423   2.458   2.423
    1MOL     C6    6   2.567   2.217   2.420
    1MOL     C7    7   2.341   2.584   2.415
    1MOL     C8    8   2.644   2.087   2.421
    1MOL     C9    9   2.306   2.815   2.469
    1MOL    C10   10   2.447   2.682   2.618
    1MOL     N1   11   2.379   2.691   2.490
    1MOL     O1   12   2.247   2.588   2.340
    1MOL     H1   13   2.615   2.552   2.421
    1MOL     H2   14   2.249   2.334   2.416
    1MOL     H3   15   2.740   2.343   2.418
    1MOL     H4   16   2.375   2.123   2.418
    1MOL     H5   17   2.747   2.102   2.389
    1MOL     H6   18   2.646   2.044   2.521
    1MOL     H7   19   2.599   2.014   2.355
    1MOL     H8   20   2.282   2.826   2.364
    1MOL     H9   21   2.214   2.818   2.526
    1MOL    H10   22   2.369   2.898   2.500
    1MOL    H11   23   2.480   2.582   2.638
    1MOL    H12   24   2.379   2.712   2.698
    1MOL    H13   25   2.533   2.749   2.620
    2SOL     OW   26   0.230   0.628   0.113
    2SOL    HW1   27   0.137   0.626   0.150
    2SOL    HW2   28   0.231   0.589   0.021
    3SOL     OW   29   0.225   0.275   0.996
    3SOL    HW1   30   0.260   0.258   1.088
    3SOL    HW2   31   0.137   0.230   0.984
    4SOL     OW   32   0.019   0.368   0.647
    4SOL    HW1   33  -0.063   0.411   0.686
    4SOL    HW2   34  -0.009   0.295   0.584
    5SOL     OW   35   0.569   1.275   1.165
    5SOL    HW1   36   0.476   1.268   1.128
    5SOL    HW2   37   0.580   1.364   1.209
    6SOL     OW   38   1.555   1.511   0.703
    6SOL    HW1   39   1.498   1.495   0.784
    6SOL    HW2   40   1.496   1.521   0.623
    7SOL     OW   41   1.135   0.703   0.717
    7SOL    HW1   42   1.192   0.781   0.692
    7SOL    HW2   43   1.075   0.729   0.793
    8SOL     OW   44   1.755   0.607   0.231
    8SOL    HW1   45   1.743   0.594   0.132
    8SOL    HW2   46   1.725   0.526   0.280
    9SOL     OW   47   0.768   1.144   1.023
    9SOL    HW1   48   0.690   1.161   1.083
    9SOL    HW2   49   0.802   1.231   0.987
   10SOL     OW   50   0.850   0.798   1.823
   10SOL    HW1   51   0.846   0.874   1.888
   10SOL    HW2   52   0.872   0.834   1.732
   11SOL     OW   53   0.685   1.012   0.665
   11SOL    HW1   54   0.754   0.996   0.735
   11SOL    HW2   55   0.612   1.069   0.703
   12SOL     OW   56   0.686   1.161   1.803
   12SOL    HW1   57   0.746   1.240   1.817
   12SOL    HW2   58   0.600   1.192   1.762
   13SOL     OW   59   0.335   1.435   1.061
   13SOL    HW1   60   0.257   1.404   1.008
   13SOL    HW2   61   0.393   1.493   1.004
   14SOL     OW   62   1.460   1.505   1.339
   14SOL    HW1   63   1.484   1.599   1.365
   14SOL    HW2   64   1.444   1.451   1.421
   15SOL     OW   65   0.438   0.392   1.499
   15SOL    HW1   66   0.520   0.336   1.508
   15SOL    HW2   67   0.357   0.334   1.503
   16SOL     OW   68   1.603   0.447   0.737
   16SOL    HW1   69   1.529   0.493   0.687
   16SOL    HW2   70   1.654   0.515   0.790
   17SOL     OW   71   0.231   1.713   0.483
   17SOL    HW1   72   0.265   1.790   0.537
   17SOL    HW2   73   0.275   1.713   0.393
   18SOL     OW   74   1.127   1.341   1.690
   18SOL    HW1   75   1.174   1.341   1.778
   18SOL    HW2   76   1.079   1.254   1.679
   19SOL     OW   77   0.230   1.434   0.538
   19SOL    HW1   78   0.204   1.530   0.538
   19SOL    HW2   79   0.159   1.380   0.583
   20SOL     OW   80   0.240   1.091   0.886
   20SOL    HW1   81   0.254   1.007   0.938
   20SOL    HW2   82   0.185   1.155   0.941
   21SOL     OW   83   0.620   1.786   1.439
   21SOL    HW1   84   0.528   1.769   1.474
   21SOL    HW2   85   0.648   1.878   1.465
   22SOL     OW   86   0.606   0.964   0.123
   22SOL    HW1   87   0.613   1.048   0.069
   22SOL    HW2   88   0.652   0.977   0.211
   23SOL     OW   89   1.594   0.114   1.480
   23SOL    HW1   90   1.576   0.181   1.408
   23SOL    HW2   91   1.591   0.160   1.569
   24SOL     OW   92   0.122   0.643   0.563
   24SOL    HW1   93   0.077   0.555   0.580
   24SOL    HW2   94   0.121   0.697   0.647
   25SOL     OW   95   1.842   1.767   0.359
   25SOL    HW1   96   1.896   1.738   0.439
   25SOL    HW2   97   1.872   1.857   0.330
   26SOL     OW   98   0.027   1.596   0.117
   26SOL    HW1   99   0.008   1.500   0.138
   26SOL    HW2  100  -0.006   1.654   0.192
   27SOL     OW  101   1.689   0.922   0.612
   27SOL    HW1  102   1.784   0.893   0.620
   27SOL    HW2  103   1.681   0.987   0.537
   28SOL     OW  104   1.641   1.108   0.432
   28SOL    HW1  105   1.727   1.110   0.380
   28SOL    HW2  106   1.655   1.155   0.520
   29SOL     OW  107   0.113   0.737   1.597
   29SOL    HW1  108   0.201   0.724   1.642
   29SOL    HW2  109   0.100   0.834   1.575
   30SOL     OW  110   0.613   1.365   0.726
   30SOL    HW1  111   0.564   1.278   0.735
   30SOL    HW2  112   0.590   1.408   0.639
   31SOL     OW  113   1.293   1.228   1.423
   31SOL    HW1  114   1.330   1.155   1.365
   31SOL    HW2  115   1.345   1.233   1.508
   32SOL     OW  116   0.809   0.004   0.502
   32SOL    HW1  117   0.849   0.095   0.493
   32SOL    HW2  118   0.709   0.012   0.508
   33SOL     OW  119   0.197   0.976   1.264
   33SOL    HW1  120   0.286   0.931   1.250
   33SOL    HW2  121   0.124   0.911   1.245
   34SOL     OW  122   1.525   0.999   0.190
   34SOL    HW1  123   1.462   0.923   0.203
   34SOL    HW2  124   1.573   1.017   0.276
   35SOL     OW  125   1.187   1.792   1.616
   35SOL    HW1  126   1.211   1.852   1.540
   35SOL    HW2  127   1.194   1.697   1.586
   36SOL     OW  128   0.317   0.251   1.801
   36SOL    HW1  129   0.388   0.322   1.807
   36SOL    HW2  130   0.229   0.290   1.829
   37SOL     OW  131   1.466   1.417   0.953
   37SOL    HW1  132   1.407   1.423   1.033
   37SOL    HW2  133   1.451   1.329   0.907
   38SOL     OW  134   1.667   1.714   0.572
   38SOL    HW1  135   1.626   1.691   0.484
   38SOL    HW2  136   1.649   1.640   0.637
   39SOL     OW  137   0.598   0.729   0.270
   39SOL    HW1  138   0.622   0.798   0.202
   39SOL    HW2  139   0.520   0.762   0.324
   40SOL     OW  140   1.281   0.345   0.944
   40SOL    HW1  141   1.195   0.295   0.931
   40SOL    HW2  142   1.343   0.291   1.000
   41SOL     OW  143   1.576   1.662   0.307
   41SOL    HW1  144   1.665   1.708   0.310
   41SOL    HW2  145   1.555   1.638   0.212
   42SOL     OW  146   0.807   0.605   1.465
   42SOL    HW1  147   0.760   0.602   1.554
   42SOL    HW2  148   0.756   0.550   1.399
   43SOL     OW  149   1.394   0.469   1.674
   43SOL    HW1  150   1.374   0.512   1.762
   43SOL    HW2  151   1.472   0.407   1.683
   44SOL     OW  152   0.973   0.890   1.572
   44SOL    HW1  153   1.019   0.806   1.543
   44SOL    HW2  154   0.917   0.924   1.497
   45SOL     OW  155   0.991   0.410   1.242
   45SOL    HW1  156   0.914   0.444   1.296
   45SOL    HW2  157   0.957   0.359   1.163
   46SOL     OW  158   1.041   0.701   0.429
   46SOL    HW1  159   1.067   0.697   0.525
   46SOL    HW2  160   0.956   0.650   0.415
   47SOL     OW  161   0.076   0.811   0.789
   47SOL    HW1  162   0.175   0.799   0.798
   47SOL    HW2  163   0.052   0.906   0.810
   48SOL     OW  164   0.130   1.821   1.571
   48SOL    HW1  165   0.120   1.806   1.670
   48SOL    HW2  166   0.044   1.857   1.535
   49SOL     OW  167   0.865   0.348   0.195
   49SOL    HW1  168   0.924   0.411   0.146
   49SOL    HW2  169   0.884   0.254   0.166
   50SOL     OW  170   1.719   0.585   1.831
   50SOL    HW1  171   1.693   0.674   1.795
   50SOL    HW2  172   1.717   0.517   1.758
   51SOL     OW  173   1.362   1.144   0.545
   51SOL    HW1  174   1.445   1.115   0.497
   51SOL    HW2  175   1.313   1.211   0.489
   52SOL     OW  176   0.550   0.196   0.885
   52SOL    HW1  177   0.545   0.191   0.985
   52SOL    HW2  178   0.552   0.292   0.856
   53SOL     OW  179   1.008   1.456   0.477
   53SOL    HW1  180   0.962   1.528   0.425
   53SOL    HW2  181   1.004   1.476   0.575
   54SOL     OW  182   0.351   1.801   0.853
   54SOL    HW1  183   0.401   1.715   0.859
   54SOL    HW2  184   0.416   1.878   0.850
   55SOL     OW  185   1.795   1.066   0.873
   55SOL    HW1  186   1.733   1.051   0.797
   55SOL    HW2  187   1.743   1.077   0.958
   56SOL     OW  188   1.227   1.550   1.506
   56SOL    HW1  189   1.233   1.473   1.570
   56SOL    HW2  190   1.175   1.524   1.426
   57SOL     OW  191   0.321   0.943   0.242
   57SOL    HW1  192   0.403   0.982   0.200
   57SOL    HW2  193   0.294   0.861   0.193
   58SOL     OW  194   1.458   0.735   0.728
   58SOL    HW1  195   1.453   0.670   0.803
   58SOL    HW2  196   1.538   0.794   0.741
   59SOL     OW  197   0.461   1.266   1.727
   59SOL    HW1  198   0.411   1.267   1.641
   59SOL    HW2  199   0.398   1.248   1.803
   60SOL     OW  200   1.111   1.776   0.237
   60SOL    HW1  201   1.051   1.714   0.287
   60SOL    HW2  202   1.142   1.732   0.152
   61SOL     OW  203   0.202   0.285   1.498
   61SOL    HW1  204   0.122   0.345   1.485
   61SOL    HW2  205   0.192   0.236   1.584
   62SOL     OW  206   1.632   1.377   0.081
   62SOL    HW1  207   1.600   1.471   0.071
   62SOL    HW2  208   1.556   1.314   0.069
   63SOL     OW  209   0.464   1.743   0.323
   63SOL    HW1  210   0.497   1.782   0.409
   63SOL    HW2  211   0.540   1.736   0.258
   64SOL     OW  212   1.400   0.107   0.426
   64SOL    HW1  213   1.376   0.070   0.336
   64SOL    HW2  214   1.499   0.123   0.430
   65SOL     OW  215   0.249   1.785   1.241
   65SOL    HW1  216   0.306   1.720   1.291
   65SOL    HW2  217   0.233   1.752   1.148
   66SOL     OW  218   0.940   1.698   0.904
   66SOL    HW1  219   1.020   1.641   0.925
   66SOL    HW2  220   0.891   1.658   0.827
   67SOL     OW  221   0.382   0.700   0.480
   67SOL    HW1  222   0.427   0.610   0.477
   67SOL    HW2  223   0.288   0.689   0.513
   68SOL     OW  224   1.547   0.222   1.729
   68SOL    HW1  225   1.542   0.259   1.821
   68SOL    HW2  226   1.475   0.153   1.717
   69SOL     OW  227   0.614   0.122   0.117
   69SOL    HW1  228   0.712   0.100   0.124
   69SOL    HW2  229   0.583   0.105   0.024
   70SOL     OW  230   0.781   0.264   1.749
   70SOL    HW1  231   0.848   0.203   1.792
   70SOL    HW2  232   0.708   0.283   1.814
   71SOL     OW  233   0.888   1.514   1.195
   71SOL    HW1  234   0.865   1.489   1.101
   71SOL    HW2  235   0.949   1.445   1.234
   72SOL     OW  236   1.351   0.590   1.433
   72SOL    HW1  237   1.379   0.547   1.518
   72SOL    HW2  238   1.376   0.686   1.434
   73SOL     OW  239   0.803   1.402   0.924
   73SOL    HW1  240   0.893   1.416   0.882
   73SOL    HW2  241   0.732   1.404   0.853
   74SOL     OW  242   0.922   0.503   0.899
   74SOL    HW1  243   0.897   0.494   0.803
   74SOL    HW2  244   0.970   0.421   0.930
   75SOL     OW  245   0.539   0.064   0.512
   75SOL    HW1  246   0.458   0.065   0.570
   75SOL    HW2  247   0.542   0.147   0.457
   76SOL     OW  248   1.434   1.188   0.041
   76SOL    HW1  249   1.466   1.112   0.098
   76SOL    HW2  250   1.342   1.215   0.071
   77SOL     OW  251   0.297   0.035   0.171
   77SOL    HW1  252   0.346   0.119   0.150
   77SOL    HW2  253   0.359  -0.030   0.216
   78SOL     OW  254   0.935   0.236   0.480
   78SOL    HW1  255   0.887   0.277   0.402
   78SOL    HW2  256   1.034   0.234   0.461
   79SOL     OW  257   1.076   0.683   1.464
   79SOL    HW1  258   0.996   0.622   1.467
   79SOL    HW2  259   1.157   0.630   1.440
   80SOL     OW  260   1.227   1.570   0.793
   80SOL    HW1  261   1.248   1.644   0.728
   80SOL    HW2  262   1.295   1.570   0.866
   81SOL     OW  263   0.459   1.152   0.741
   81SOL    HW1  264   0.388   1.125   0.806
   81SOL    HW2  265   0.433   1.124   0.648
   82SOL     OW  266   1.271   1.797   0.591
   82SOL    HW1  267   1.315   1.861   0.527
   82SOL    HW2  268   1.221   1.849   0.661
   83SOL     OW  269   1.032   0.549   0.016
   83SOL    HW1  270   0.991   0.631  -0.023
   83SOL    HW2  271   1.096   0.575   0.089
   84SOL     OW  272   0.078   0.556   1.386
   84SOL    HW1  273   0.170   0.555   1.345
   84SOL    HW2  274   0.072   0.630   1.453
   85SOL     OW  275   0.561   0.222   1.147
   85SOL    HW1  276   0.599   0.138   1.184
   85SOL    HW2  277   0.473   0.241   1.191
   86SOL     OW  278   0.866   0.454   0.642
   86SOL    HW1  279   0.834   0.526   0.580
   86SOL    HW2  280   0.890   0.373   0.589
   87SOL     OW  281   1.017   0.039   0.753
   87SOL    HW1  282   0.945   0.044   0.684
   87SOL    HW2  283   0.993  -0.030   0.822
   88SOL     OW  284   1.429   1.173   0.867
   88SOL    HW1  285   1.374   1.089   0.860
   88SOL    HW2  286   1.455   1.202   0.775
   89SOL     OW  287   1.466   0.590   0.992
   89SOL    HW1  288   1.436   0.495   0.999
   89SOL    HW2  289   1.539   0.606   1.058
   90SOL     OW  290   1.857   0.833   0.377
   90SOL    HW1  291   1.899   0.769   0.441
   90SOL    HW2  292   1.819   0.782   0.299
   91SOL     OW  293   0.488   1.385   0.174
   91SOL    HW1  294   0.401   1.370   0.221
   91SOL    HW2  295   0.471   1.411   0.079
   92SOL     OW  296   1.664   1.280   0.657
   92SOL    HW1  297   1.763   1.288   0.671
   92SOL    HW2  298   1.619   1.364   0.688
   93SOL     OW  299   1.390   0.575   0.078
   93SOL    HW1  300   1.336   0.554   0.159
   93SOL    HW2  301   1.481   0.534   0.087
   94SOL     OW  302   0.527   0.256   0.328
   94SOL    HW1  303   0.554   0.197   0.253
   94SOL    HW2  304   0.527   0.351   0.297
   95SOL     OW  305   1.754   1.223   1.588
   95SOL    HW1  306   1.845   1.184   1.575
   95SOL    HW2  307   1.762   1.319   1.612
   96SOL     OW  308   1.064   1.347   1.340
   96SOL    HW1  309   0.984   1.324   1.395
   96SOL    HW2  310   1.147   1.321   1.389
   97SOL     OW  311   1.592   1.629   1.625
   97SOL    HW1  312   1.619   1.663   1.535
   97SOL    HW2  313   1.671   1.591   1.671
   98SOL     OW  314   1.111   1.195   1.100
   98SOL    HW1  315   1.071   1.239   1.181
   98SOL    HW2  316   1.070   1.232   1.017
   99SOL     OW  317   1.638   1.099   1.079
   99SOL    HW1  318   1.643   1.180   1.138
   99SOL    HW2  319   1.552   1.101   1.028
  100SOL     OW  320   0.915   0.089   1.402
  100SOL    HW1  321   0.940   0.069   1.307
  100SOL    HW2  322   0.987   0.145   1.444
  101SOL     OW  323   0.980   1.116   1.719
  101SOL    HW1  324   0.881   1.122   1.729
  101SOL    HW2  325   1.003   1.036   1.663
  102SOL     OW  326   0.705   1.050   0.368
  102SOL    HW1  327   0.691   1.057   0.467
  102SOL    HW2  328   0.789   0.999   0.350
  103SOL     OW  329   0.410   0.813   1.251
  103SOL    HW1  330   0.496   0.825   1.301
  103SOL    HW2  331   0.368   0.726   1.278
  104SOL     OW  332   1.274   0.386   1.262
  104SOL    HW1  333   1.295   0.460   1.326
  104SOL    HW2  334   1.185   0.403   1.219
  105SOL     OW  335   0.064   1.564   1.331
  105SOL    HW1  336   0.018   1.646   1.297
  105SOL    HW2  337   0.162   1.583   1.340
  106SOL     OW  338   0.367   1.100   0.501
  106SOL    HW1  339   0.360   1.183   0.445
  106SOL    HW2  340   0.371   1.020   0.441
  107SOL     OW  341   0.566   0.537   0.865
  107SOL    HW1  342   0.578   0.603   0.791
  107SOL    HW2  343   0.612   0.571   0.948
  108SOL     OW  344   1.252   1.348   0.388
  108SOL    HW1  345   1.302   1.425   0.428
  108SOL    HW2  346   1.157   1.350   0.420
  109SOL     OW  347   1.272   1.445   1.142
  109SOL    HW1  348   1.319   1.458   1.229
  109SOL    HW2  349   1.206   1.371   1.151
  110SOL     OW  350   1.582   0.639   0.472
  110SOL    HW1  351   1.551   0.700   0.545
  110SOL    HW2  352   1.632   0.691   0.403
  111SOL     OW  353   0.354   1.510   1.329
  111SOL    HW1  354   0.333   1.466   1.242
  111SOL    HW2  355   0.451   1.536   1.332
  112SOL     OW  356   0.402   0.751   1.598
  112SOL    HW1  357   0.470   0.806   1.551
  112SOL    HW2  358   0.442   0.663   1.625
  113SOL     OW  359   1.587   0.779   1.670
  113SOL    HW1  360   1.495   0.817   1.665
  113SOL    HW2  361   1.647   0.826   1.605
  114SOL     OW  362   1.013   0.105   1.770
  114SOL    HW1  363   1.019   0.190   1.718
  114SOL    HW2  364   1.045   0.029   1.713
  115SOL     OW  365   0.504   0.050   1.740
  115SOL    HW1  366   0.462  -0.007   1.670
  115SOL    HW2  367   0.438   0.119   1.772
  116SOL     OW  368   0.573   0.870   1.029
  116SOL    HW1  369   0.617   0.959   1.020
  116SOL    HW2  370   0.510   0.870   1.106
  117SOL     OW  371   1.360   0.862   1.045
  117SOL    HW1  372   1.285   0.862   0.979
  117SOL    HW2  373   1.397   0.770   1.054
  118SOL     OW  374   1.209   0.525   0.275
  118SOL    HW1  375   1.222   0.441   0.329
  118SOL    HW2  376   1.180   0.599   0.335
  119SOL     OW  377   0.307   0.213   1.231
  119SOL    HW1  378   0.284   0.250   1.321
  119SOL    HW2  379   0.277   0.118   1.225
  120SOL     OW  380   0.037   1.310   1.282
  120SOL    HW1  381   0.090   1.261   1.350
  120SOL    HW2  382   0.059   1.408   1.287
  121SOL     OW  383   0.732   0.634   1.064
  121SOL    HW1  384   0.791   0.608   0.988
  121SOL    HW2  385   0.704   0.730   1.053
  122SOL     OW  386   1.728   0.935   1.854
  122SOL    HW1  387   1.682   0.928   1.765
  122SOL    HW2  388   1.666   0.979   1.920
  123SOL     OW  389   0.307   0.063   0.618
  123SOL    HW1  390   0.296   0.157   0.651
  123SOL    HW2  391   0.302   0.000   0.695
  124SOL     OW  392   1.622   0.367   0.374
  124SOL    HW1  393   1.624   0.291   0.438
  124SOL    HW2  394   1.574   0.444   0.414
  125SOL     OW  395   1.023   0.766   0.966
  125SOL    HW1  396   1.038   0.787   1.062
  125SOL    HW2  397   0.993   0.671   0.957
  126SOL     OW  398   0.980   1.573   1.700
  126SOL    HW1  399   0.960   1.617   1.612
  126SOL    HW2  400   1.019   1.482   1.684
  127SOL     OW  401   1.859   1.518   1.605
  127SOL    HW1  402   1.873   1.545   1.510
  127SOL    HW2  403   1.942   1.540   1.658
  128SOL     OW  404   0.350   0.898   1.804
  128SOL    HW1  405   0.426   0.942   1.852
  128SOL    HW2  406   0.385   0.851   1.722
  129SOL     OW  407   1.540   0.274   0.125
  129SOL    HW1  408   1.479   0.199   0.148
  129SOL    HW2  409   1.562   0.326   0.208
  130SOL     OW  410   1.303   0.838   0.042
  130SOL    HW1  411   1.337   0.745   0.057
  130SOL    HW2  412   1.321   0.865  -0.053
  131SOL     OW  413   1.068   1.333   0.849
  131SOL    HW1  414   1.075   1.249   0.794
  131SOL    HW2  415   1.130   1.402   0.813
  132SOL     OW  416   0.319   0.810   0.949
  132SOL    HW1  417   0.412   0.846   0.954
  132SOL    HW2  418   0.313   0.725   1.001
  133SOL     OW  419   0.339   0.509   1.006
  133SOL    HW1  420   0.287   0.426   0.989
  133SOL    HW2  421   0.416   0.514   0.942
  134SOL     OW  422   1.138   0.380   1.678
  134SOL    HW1  423   1.093   0.443   1.742
  134SOL    HW2  424   1.231   0.411   1.661
  135SOL     OW  425   1.160   0.207   1.477
  135SOL    HW1  426   1.160   0.271   1.554
  135SOL    HW2  427   1.188   0.255   1.394
  136SOL     OW  428   0.008   1.326   0.200
  136SOL    HW1  429  -0.085   1.347   0.169
  136SOL    HW2  430   0.018   1.227   0.213
  137SOL     OW  431   0.088   1.801   0.927
  137SOL    HW1  432   0.046   1.715   0.900
  137SOL    HW2  433   0.182   1.804   0.893
  138SOL     OW  434   0.504   1.568   0.910
  138SOL    HW1  435   0.570   1.642   0.919
  138SOL    HW2  436   0.548   1.489   0.868
  139SOL     OW  437   1.002   0.796   1.238
  139SOL    HW1  438   1.043   0.764   1.324
  139SOL    HW2  439   0.906   0.769   1.235
  140SOL     OW  440   0.040   0.544   1.114
  140SOL    HW1  441   0.125   0.511   1.073
  140SOL    HW2  442   0.053   0.559   1.212
  141SOL     OW  443   0.189   0.520   1.722
  141SOL    HW1  444   0.248   0.480   1.652
  141SOL    HW2  445   0.131   0.591   1.681
  142SOL     OW  446   1.369   0.950   1.660
  142SOL    HW1  447   1.408   1.039   1.680
  142SOL    HW2  448   1.379   0.930   1.563
  143SOL     OW  449   0.815   0.572   0.325
  143SOL    HW1  450   0.822   0.483   0.279
  143SOL    HW2  451   0.721   0.606   0.317
  144SOL     OW  452   1.657   0.604   1.206
  144SOL    HW1  453   1.619   0.535   1.268
  144SOL    HW2  454   1.739   0.568   1.162
  145SOL     OW  455   0.252   1.564   1.744
  145SOL    HW1  456   0.222   1.621   1.820
  145SOL    HW2  457   0.245   1.467   1.770
  146SOL     OW  458   0.671   0.464   1.269
  146SOL    HW1  459   0.637   0.375   1.239
  146SOL    HW2  460   0.697   0.518   1.189
  147SOL     OW  461   0.930   1.678   1.465
  147SOL    HW1  462   0.906   1.660   1.370
  147SOL    HW2  463   0.960   1.772   1.475
  148SOL     OW  464   0.473   0.500   0.191
  148SOL    HW1  465   0.534   0.580   0.195
  148SOL    HW2  466   0.378   0.531   0.198
  149SOL     OW  467   0.159   1.137   1.466
  149SOL    HW1  468   0.181   1.076   1.542
  149SOL    HW2  469   0.169   1.088   1.380
  150SOL     OW  470   1.347   1.059   1.234
  150SOL    HW1  471   1.371   0.996   1.160
  150SOL    HW2  472   1.257   1.099   1.216
  151SOL     OW  473   1.302   0.855   0.309
  151SOL    HW1  474   1.216   0.824   0.351
  151SOL    HW2  475   1.298   0.841   0.210
  152SOL     OW  476   1.759   1.747   1.154
  152SOL    HW1  477   1.820   1.777   1.081
  152SOL    HW2  478   1.721   1.658   1.132
  153SOL     OW  479   1.252   1.731   1.128
  153SOL    HW1  480   1.336   1.736   1.074
  153SOL    HW2  481   1.229   1.635   1.146
  154SOL     OW  482   0.083   1.258   1.022
  154SOL    HW1  483   0.078   1.257   1.122
  154SOL    HW2  484   0.000   1.217   0.984
  155SOL     OW  485   0.688   1.662   1.716
  155SOL    HW1  486   0.632   1.743   1.725
  155SOL    HW2  487   0.740   1.666   1.630
  156SOL     OW  488   0.903   0.086   0.133
  156SOL    HW1  489   0.954   0.087   0.047
  156SOL    HW2  490   0.959   0.044   0.204
  157SOL     OW  491   1.726   0.135   0.523
  157SOL    HW1  492   1.799   0.118   0.456
  157SOL    HW2  493   1.695   0.048   0.561
  158SOL     OW  494   1.388   1.573   0.477
  158SOL    HW1  495   1.455   1.585   0.403
  158SOL    HW2  496   1.348   1.662   0.500
  159SOL     OW  497   0.130   1.794   1.851
  159SOL    HW1  498   0.089   1.720   1.904
  159SOL    HW2  499   0.194   1.845   1.909
  160SOL     OW  500   1.280   0.927   0.672
  160SOL    HW1  501   1.340   0.846   0.674
  160SOL    HW2  502   1.320   0.996   0.612
  161SOL     OW  503   0.830   1.273   1.422
  161SOL    HW1  504   0.825   1.306   1.517
  161SOL    HW2  505   0.744   1.292   1.376
  162SOL     OW  506   0.672   1.616   0.154
  162SOL    HW1  507   0.681   1.626   0.055
  162SOL    HW2  508   0.632   1.527   0.175
  163SOL     OW  509   1.650   1.720   1.394
  163SOL    HW1  510   1.703   1.730   1.310
  163SOL    HW2  511   1.623   1.810   1.428
  164SOL     OW  512   1.841   0.175   0.963
  164SOL    HW1  513   1.880   0.090   0.927
  164SOL    HW2  514   1.743   0.177   0.944
  165SOL     OW  515   0.263   0.326   0.720
  165SOL    HW1  516   0.184   0.377   0.686
  165SOL    HW2  517   0.254   0.311   0.818
  166SOL     OW  518   1.194   1.612   0.031
  166SOL    HW1  519   1.200   1.519   0.068
  166SOL    HW2  520   1.135   1.612  -0.049
  167SOL     OW  521   0.822   1.002   1.372
  167SOL    HW1  522   0.862   1.001   1.280
  167SOL    HW2  523   0.832   1.094   1.412
  168SOL     OW  524   0.916   0.910   0.291
  168SOL    HW1  525   0.979   0.948   0.223
  168SOL    HW2  526   0.956   0.827   0.330
  169SOL     OW  527   1.504   1.607   0.044
  169SOL    HW1  528   1.412   1.644   0.051
  169SOL    HW2  529   1.542   1.627  -0.046
  170SOL     OW  530   0.372   1.288   1.490
  170SOL    HW1  531   0.359   1.381   1.456
  170SOL    HW2  532   0.288   1.236   1.477
  171SOL     OW  533   1.614   1.292   1.289
  171SOL    HW1  534   1.674   1.295   1.369
  171SOL    HW2  535   1.539   1.356   1.302
  172SOL     OW  536   1.039   1.098   0.696
  172SOL    HW1  537   0.969   1.051   0.750
  172SOL    HW2  538   1.098   1.030   0.653
  173SOL     OW  539   1.014   0.236   0.971
  173SOL    HW1  540   1.006   0.200   0.878
  173SOL    HW2  541   1.012   0.160   1.036
  174SOL     OW  542   0.590   1.487   0.491
  174SOL    HW1  543   0.632   1.429   0.421
  174SOL    HW2  544   0.546   1.566   0.447
  175SOL     OW  545   1.709   0.385   1.381
  175SOL    HW1  546   1.782   0.454   1.385
  175SOL    HW2  547   1.737   0.310   1.322
  176SOL     OW  548   0.255   1.348   0.290
  176SOL    HW1  549   0.159   1.349   0.263
  176SOL    HW2  550   0.267   1.401   0.374
  177SOL     OW  551   0.105   1.013   1.726
  177SOL    HW1  552   0.028   0.980   1.780
  177SOL    HW2  553   0.190   0.983   1.768
  178SOL     OW  554   0.672   0.203   1.489
  178SOL    HW1  555   0.762   0.187   1.449
  178SOL    HW2  556   0.680   0.208   1.588
  179SOL     OW  557   0.075   0.345   0.033
  179SOL    HW1  558  -0.017   0.317   0.004
  179SOL    HW2  559   0.106   0.422  -0.023
  180SOL     OW  560   1.440   0.856   1.398
  180SOL    HW1  561   1.383   0.908   1.335
  180SOL    HW2  562   1.536   0.868   1.374
  181SOL     OW  563   0.072   0.166   0.318
  181SOL    HW1  564   0.055   0.249   0.264
  181SOL    HW2  565   0.162   0.129   0.296
  182SOL     OW  566   1.183   1.335   0.119
  182SOL    HW1  567   1.084   1.324   0.121
  182SOL    HW2  568   1.217   1.350   0.212
  183SOL     OW  569   0.613   0.842   1.431
  183SOL    HW1  570   0.669   0.923   1.414
  183SOL    HW2  571   0.672   0.762   1.434
  184SOL     OW  572   1.493   1.767   0.959
  184SOL    HW1  573   1.526   1.831   0.890
  184SOL    HW2  574   1.559   1.761   1.034
  185SOL     OW  575   0.716   0.565   1.708
  185SOL    HW1  576   0.735   0.630   1.782
  185SOL    HW2  577   0.776   0.485   1.717
  186SOL     OW  578   1.450   1.220   1.633
  186SOL    HW1  579   1.441   1.210   1.732
  186SOL    HW2  580   1.546   1.213   1.607
  187SOL     OW  581   0.390   1.741   1.560
  187SOL    HW1  582   0.299   1.782   1.558
  187SOL    HW2  583   0.383   1.647   1.592
  188SOL     OW  584   1.674   0.883   1.254
  188SOL    HW1  585   1.647   0.794   1.217
  188SOL    HW2  586   1.675   0.951   1.181
  189SOL     OW  587   1.225   0.325   0.449
  189SOL    HW1  588   1.290   0.251   0.438
  189SOL    HW2  589   1.245   0.375   0.533
  190SOL     OW  590   0.594   0.745   0.652
  190SOL    HW1  591   0.644   0.830   0.633
  190SOL    HW2  592   0.506   0.747   0.604
  191SOL     OW  593   1.777   0.342   1.642
  191SOL    HW1  594   1.760   0.373   1.548
  191SOL    HW2  595   1.693   0.305   1.680
  192SOL     OW  596   1.730   0.934   1.517
  192SOL    HW1  597   1.768   1.025   1.532
  192SOL    HW2  598   1.722   0.917   1.418
  193SOL     OW  599   0.859   1.374   0.016
  193SOL    HW1  600   0.813   1.389   0.104
  193SOL    HW2  601   0.903   1.459  -0.014
  194SOL     OW  602   0.661   1.790   0.953
  194SOL    HW1  603   0.615   1.878   0.940
  194SOL    HW2  604   0.760   1.802   0.946
  195SOL     OW  605   0.859   0.956   0.861
  195SOL    HW1  606   0.913   0.887   0.909
  195SOL    HW2  607   0.827   1.025   0.927
  196SOL     OW  608   1.083   0.984   0.087
  196SOL    HW1  609   1.060   1.037   0.005
  196SOL    HW2  610   1.164   0.928   0.068
  197SOL     OW  611   1.861   1.569   0.851
  197SOL    HW1  612   1.790   1.557   0.781
  197SOL    HW2  613   1.862   1.490   0.911
  198SOL     OW  614   0.221   1.314   1.844
  198SOL    HW1  615   0.156   1.241   1.823
  198SOL    HW2  616   0.225   1.328   1.942
  199SOL     OW  617   0.079   1.240   0.653
  199SOL    HW1  618   0.078   1.193   0.741
  199SOL    HW2  619   0.161   1.212   0.602
  200SOL     OW  620   0.672   1.391   1.624
  200SOL    HW1  621   0.594   1.341   1.662
  200SOL    HW2  622   0.669   1.486   1.655
  201SOL     OW  623   1.824   0.192   1.227
  201SOL    HW1  624   1.820   0.102   1.271
  201SOL    HW2  625   1.827   0.181   1.128
  202SOL     OW  626   0.428   0.424   0.520
  202SOL    HW1  627   0.458   0.352   0.458
  202SOL    HW2  628   0.389   0.384   0.603
  203SOL     OW  629   1.705   1.487   1.104
  203SOL    HW1  630   1.612   1.462   1.077
  203SOL    HW2  631   1.731   1.437   1.186
  204SOL     OW  632   0.317   0.547   1.280
  204SOL    HW1  633   0.355   0.488   1.352
  204SOL    HW2  634   0.357   0.521   1.192
  205SOL     OW  635   0.812   1.586   0.687
  205SOL    HW1  636   0.844   1.596   0.593
  205SOL    HW2  637   0.733   1.524   0.689
  206SOL     OW  638   1.424   0.214   1.112
  206SOL    HW1  639   1.476   0.149   1.167
  206SOL    HW2  640   1.375   0.277   1.173
  207SOL     OW  641   1.001   0.034   1.154
  207SOL    HW1  642   0.938  -0.038   1.123
  207SOL    HW2  643   1.094  -0.002   1.154
  208SOL     OW  644   0.770   1.330   0.301
  208SOL    HW1  645   0.724   1.243   0.318
  208SOL    HW2  646   0.861   1.327   0.342
  209SOL     OW  647   0.618   1.567   1.284
  209SOL    HW1  648   0.613   1.649   1.341
  209SOL    HW2  649   0.707   1.564   1.239
  210SOL     OW  650   1.352   0.052   0.168
  210SOL    HW1  651   1.387   0.011   0.084
  210SOL    HW2  652   1.262   0.014   0.188
  211SOL     OW  653   1.300   0.453   0.691
  211SOL    HW1  654   1.241   0.533   0.695
  211SOL    HW2  655   1.315   0.418   0.784
  212SOL     OW  656   1.593   0.221   0.882
  212SOL    HW1  657   1.509   0.220   0.936
  212SOL    HW2  658   1.595   0.304   0.826
  213SOL     OW  659   0.039   1.077   0.300
  213SOL    HW1  660   0.138   1.066   0.291
  213SOL    HW2  661  -0.001   0.991   0.332
  214SOL     OW  662   0.875   1.646   0.337
  214SOL    HW1  663   0.798   1.611   0.283
  214SOL    HW2  664   0.843   1.717   0.399
  215SOL     OW  665   0.230   0.628   1.975
  215SOL    HW1  666   0.137   0.626   2.012
  215SOL    HW2  667   0.231   0.589   1.883
  216SOL     OW  668   0.225   0.275   2.858
  216SOL    HW1  669   0.260   0.258   2.950
  216SOL    HW2  670   0.137   0.230   2.846
  217SOL     OW  671   0.019   0.368   2.509
  217SOL    HW1  672  -0.063   0.411   2.548
  217SOL    HW2  673  -0.009   0.295   2.446
  218SOL     OW  674   0.569   1.275   3.027
  218SOL    HW1  675   0.476   1.268   2.990
  218SOL    HW2  676   0.580   1.364   3.071
  219SOL     OW  677   1.555   1.511   2.565
  219SOL    HW1  678   1.498   1.495   2.646
  219SOL    HW2  679   1.496   1.521   2.485
  220SOL     OW  680   1.135   0.703   2.579
  220SOL    HW1  681   1.192   0.781   2.554
  220SOL    HW2  682   1.075   0.729   2.655
  221SOL     OW  683   1.755   0.607   2.093
  221SOL    HW1  684   1.743   0.594   1.994
  221SOL    HW2  685   1.725   0.526   2.142
  222SOL     OW  686   0.768   1.144   2.885
  222SOL    HW1  687   0.690   1.161   2.945
  222SOL    HW2  688   0.802   1.231   2.849
  223SOL     OW  689   0.850   0.798   3.685
  223SOL    HW1  690   0.846   0.874   3.750
  223SOL    HW2  691   0.872   0.834   3.594
  224SOL     OW  692   0.685   1.012   2.527
  224SOL    HW1  693   0.754   0.996   2.597
  224SOL    HW2  694   0.612   1.069   2.565
  225SOL     OW  695   0.686   1.161   3.665
  225SOL    HW1  696   0.746   1.240   3.679
  225SOL    HW2  697   0.600   1.192   3.624
  226SOL     OW  698   0.335   1.435   2.923
  226SOL    HW1  699   0.257   1.404   2.870
  226SOL    HW2  700   0.393   1.493   2.866
  227SOL     OW  701   1.460   1.505   3.201
  227SOL    HW1  702   1.484   1.599   3.227
  227SOL    HW2  703   1.444   1.451   3.283
  228SOL     OW  704   0.438   0.392   3.361
  228SOL    HW1  705   0.520   0.336   3.370
  228SOL    HW2  706   0.357   0.334   3.365
  229SOL     OW  707   1.603   0.447   2.599
  229SOL    HW1  708   1.529   0.493   2.549
  229SOL    HW2  709   1.654   0.515   2.652
  230SOL     OW  710   0.231   1.713   2.345
  230SOL    HW1  711   0.265   1.790   2.399
  230SOL    HW2  712   0.275   1.713   2.255
  231SOL     OW  713   1.127   1.341   3.552
  231SOL    HW1  714   1.174   1.341   3.640
  231SOL    HW2  715   1.079   1.254   3.541
  232SOL     OW  716   0.230   1.434   2.400
  232SOL    HW1  717   0.204   1.530   2.400
  232SOL    HW2  718   0.159   1.380   2.445
  233SOL     OW  719   0.240   1.091   2.748
  233SOL    HW1  720   0.254   1.007   2.800
  233SOL    HW2  721   0.185   1.155   2.803
  234SOL     OW  722   0.620   1.786   3.301
  234SOL    HW1  723   0.528   1.769   3.336
  234SOL    HW2  724   0.648   1.878   3.327
  235SOL     OW  725   0.606   0.964   1.985
  235SOL    HW1  726   0.613   1.048   1.931
  235SOL    HW2  727   0.652   0.977   2.073
  236SOL     OW  728   1.594   0.114   3.342
  236SOL    HW1  729   1.576   0.181   3.270
  236SOL    HW2  730   1.591   0.160   3.431
  237SOL     OW  731   0.122   0.643   2.425
  237SOL    HW1  732   0.077   0.555   2.442
  237SOL    HW2  733   0.121   0.697   2.509
  238SOL     OW  734   1.842   1.767   2.221
  238SOL    HW1  735   1.896   1.738   2.301
  238SOL    HW2  736   1.872   1.857   2.192
  239SOL     OW  737   0.027   1.596   1.979
  239SOL    HW1  738   0.008   1.500   2.000
  239SOL    HW2  739  -0.006   1.654   2.054
  240SOL     OW  740   1.689   0.922   2.474
  240SOL    HW1  741   1.784   0.893   2.482
  240SOL    HW2  742   1.681   0.987   2.399
  241SOL     OW  743   1.641   1.108   2.294
  241SOL    HW1  744   1.727   1.110   2.242
  241SOL    HW2  745   1.655   1.155   2.382
  242SOL     OW  746   0.113   0.737   3.459
  242SOL    HW1  747   0.201   0.724   3.504
  242SOL    HW2  748   0.100   0.834   3.437
  243SOL     OW  749   0.613   1.365   2.588
  243SOL    HW1  750   0.564   1.278   2.597
  243SOL    HW2  751   0.590   1.408   2.501
  244SOL     OW  752   1.293   1.228   3.285
  244SOL    HW1  753   1.330   1.155   3.227
  244SOL    HW2  754   1.345   1.233   3.370
  245SOL     OW  755   0.809   0.004   2.364
  245SOL    HW1  756   0.849   0.095   2.355
  245SOL    HW2  757   0.709   0.012   2.370
  246SOL     OW  758   0.197   0.976   3.126
  246SOL    HW1  759   0.286   0.931   3.112
  246SOL    HW2  760   0.124   0.911   3.107
  247SOL     OW  761   1.525   0.999   2.052
  247SOL    HW1  762   1.462   0.923   2.065
  247SOL    HW2  763   1.573   1.017   2.138
  248SOL     OW  764   1.187   1.792   3.478
  248SOL    HW1  765   1.211   1.852   3.402
  248SOL    HW2  766   1.194   1.697   3.448
  249SOL     OW  767   0.317   0.251   3.663
  249SOL    HW1  768   0.388   0.322   3.669
  249SOL    HW2  769   0.229   0.290   3.691
  250SOL     OW  770   1.466   1.417   2.815
  250SOL    HW1  771   1.407   1.423   2.895
  250SOL    HW2  772   1.451   1.329   2.769
  251SOL     OW  773   1.667   1.714   2.434
  251SOL    HW1  774   1.626   1.691   2.346
  251SOL    HW2  775   1.649   1.640   2.499
  252SOL     OW  776   0.598   0.729   2.132
  252SOL    HW1  777   0.622   0.798   2.064
  252SOL    HW2  778   0.520   0.762   2.186
  253SOL     OW  779   1.281   0.345   2.806
  253SOL    HW1  780   1.195   0.295   2.793
  253SOL    HW2  781   1.343   0.291   2.862
  254SOL     OW  782   1.576   1.662   2.169
  254SOL    HW1  783   1.665   1.708   2.172
  254SOL    HW2  784   1.555   1.638   2.074
  255SOL     OW  785   0.807   0.605   3.327
  255SOL    HW1  786   0.760   0.602   3.416
  255SOL    HW2  787   0.756   0.550   3.261
  256SOL     OW  788   1.394   0.469   3.536
  256SOL    HW1  789   1.374   0.512   3.624
  256SOL    HW2  790   1.472   0.407   3.545
  257SOL     OW  791   0.973   0.890   3.434
  257SOL    HW1  792   1.019   0.806   3.405
  257SOL    HW2  793   0.917   0.924   3.359
  258SOL     OW  794   0.991   0.410   3.104
  258SOL    HW1  795   0.914   0.444   3.158
  258SOL    HW2  796   0.957   0.359   3.025
  259SOL     OW  797   1.041   0.701   2.291
  259SOL    HW1  798   1.067   0.697   2.387
  259SOL    HW2  799   0.956   0.650   2.277
  260SOL     OW  800   0.076   0.811   2.651
  260SOL    HW1  801   0.175   0.799   2.660
  260SOL    HW2  802   0.052   0.906   2.672
  261SOL     OW  803   0.130   1.821   3.433
  261SOL    HW1  804   0.120   1.806   3.532
  261SOL    HW2  805   0.044   1.857   3.397
  262SOL     OW  806   0.865   0.348   2.057
  262SOL    HW1  807   0.924   0.411   2.008
  262SOL    HW2  808   0.884   0.254   2.028
  263SOL     OW  809   1.719   0.585   3.693
  263SOL    HW1  810   1.693   0.674   3.657
  263SOL    HW2  811   1.717   0.517   3.620
  264SOL     OW  812   1.362   1.144   2.407
  264SOL    HW1  813   1.445   1.115   2.359
  264SOL    HW2  814   1.313   1.211   2.351
  265SOL     OW  815   0.550   0.196   2.747
  265SOL    HW1  816   0.545   0.191   2.847
  265SOL    HW2  817   0.552   0.292   2.718
  266SOL     OW  818   1.008   1.456   2.339
  266SOL    HW1  819   0.962   1.528   2.287
  266SOL    HW2  820   1.004   1.476   2.437
  267SOL     OW  821   0.351   1.801   2.715
  267SOL    HW1  822   0.401   1.715   2.721
  267SOL    HW2  823   0.416   1.878   2.712
  268SOL     OW  824   1.795   1.066   2.735
  268SOL    HW1  825   1.733   1.051   2.659
  268SOL    HW2  826   1.743   1.077   2.820
  269SOL     OW  827   1.227   1.550   3.368
  269SOL    HW1  828   1.233   1.473   3.432
  269SOL    HW2  829   1.175   1.524   3.288
  270SOL     OW  830   0.321   0.943   2.104
  270SOL    HW1  831   0.403   0.982   2.062
  270SOL    HW2  832   0.294   0.861   2.055
  271SOL     OW  833   1.458   0.735   2.590
  271SOL    HW1  834   1.453   0.670   2.665
  271SOL    HW2  835   1.538   0.794   2.603
  272SOL     OW  836   0.461   1.266   3.589
  272SOL    HW1  837   0.411   1.267   3.503
  272SOL    HW2  838   0.398   1.248   3.665
  273SOL     OW  839   1.111   1.776   2.099
  273SOL    HW1  840   1.051   1.714   2.149
  273SOL    HW2  841   1.142   1.732   2.014
  274SOL     OW  842   0.202   0.285   3.360
  274SOL    HW1  843   0.122   0.345   3.347
  274SOL    HW2  844   0.192   0.236   3.446
  275SOL     OW  845   1.632   1.377   1.943
  275SOL    HW1  846   1.600   1.471   1.933
  275SOL    HW2  847   1.556   1.314   1.931
  276SOL     OW  848   0.464   1.743   2.185
  276SOL    HW1  849   0.497   1.782   2.271
  276SOL    HW2  850   0.540   1.736   2.120
  277SOL     OW  851   1.400   0.107   2.288
  277SOL    HW1  852   1.376   0.070   2.198
  277SOL    HW2  853   1.499   0.123   2.292
  278SOL     OW  854   0.249   1.785   3.103
  278SOL    HW1  855   0.306   1.720   3.153
  278SOL    HW2  856   0.233   1.752   3.010
  279SOL     OW  857   0.940   1.698   2.766
  279SOL    HW1  858   1.020   1.641   2.787
  279SOL    HW2  859   0.891   1.658   2.689
  280SOL     OW  860   0.382   0.700   2.342
  280SOL    HW1  861   0.427   0.610   2.339
  280SOL    HW2  862   0.288   0.689   2.375
  281SOL     OW  863   1.547   0.222   3.591
  281SOL    HW1  864   1.542   0.259   3.683
  281SOL    HW2  865   1.475   0.153   3.579
  282SOL     OW  866   0.614   0.122   1.979
  282SOL    HW1  867   0.712   0.100   1.986
  282SOL    HW2  868   0.583   0.105   1.886
  283SOL     OW  869   0.781   0.264   3.611
  283SOL    HW1  870   0.848   0.203   3.654
  283SOL    HW2  871   0.708   0.283   3.676
  284SOL     OW  872   0.888   1.514   3.057
  284SOL    HW1  873   0.865   1.489   2.963
  284SOL    HW2  874   0.949   1.445   3.096
  285SOL     OW  875   1.351   0.590   3.295
  285SOL    HW1  876   1.379   0.547   3.380
  285SOL    HW2  877   1.376   0.686   3.296
  286SOL     OW  878   0.803   1.402   2.786
  286SOL    HW1  879   0.893   1.416   2.744
  286SOL    HW2  880   0.732   1.404   2.715
  287SOL     OW  881   0.922   0.503   2.761
  287SOL    HW1  882   0.897   0.494   2.665
  287SOL    HW2  883   0.970   0.421   2.792
  288SOL     OW  884   0.539   0.064   2.374
  288SOL    HW1  885   0.458   0.065   2.432
  288SOL    HW2  886   0.542   0.147   2.319
  289SOL     OW  887   1.434   1.188   1.903
  289SOL    HW1  888   1.466   1.112   1.960
  289SOL    HW2  889   1.342   1.215   1.933
  290SOL     OW  890   0.297   0.035   2.033
  290SOL    HW1  891   0.346   0.119   2.012
  290SOL    HW2  892   0.359  -0.030   2.078
  291SOL     OW  893   0.935   0.236   2.342
  291SOL    HW1  894   0.887   0.277   2.264
  291SOL    HW2  895   1.034   0.234   2.323
  292SOL     OW  896   1.076   0.683   3.326
  292SOL    HW1  897   0.996   0.622   3.329
  292SOL    HW2  898   1.157   0.630   3.302
  293SOL     OW  899   1.227   1.570   2.655
  293SOL    HW1  900   1.248   1.644   2.590
  293SOL    HW2  901   1.295   1.570   2.728
  294SOL     OW  902   0.459   1.152   2.603
  294SOL    HW1  903   0.388   1.125   2.668
  294SOL    HW2  904   0.433   1.124   2.510
  295SOL     OW  905   1.271   1.797   2.453
  295SOL    HW1  906   1.315   1.861   2.389
  295SOL    HW2  907   1.221   1.849   2.523
  296SOL     OW  908   1.032   0.549   1.878
  296SOL    HW1  909   0.991   0.631   1.839
  296SOL    HW2  910   1.096   0.575   1.951
  297SOL     OW  911   0.078   0.556   3.248
  297SOL    HW1  912   0.170   0.555   3.207
  297SOL    HW2  913   0.072   0.630   3.315
  298SOL     OW  914   0.561   0.222   3.009
  298SOL    HW1  915   0.599   0.138   3.046
  298SOL    HW2  916   0.473   0.241   3.053
  299SOL     OW  917   0.866   0.454   2.504
  299SOL    HW1  918   0.834   0.526   2.442
  299SOL    HW2  919   0.890   0.373   2.451
  300SOL     OW  920   1.017   0.039   2.615
  300SOL    HW1  921   0.945   0.044   2.546
  300SOL    HW2  922   0.993  -0.030   2.684
  301SOL     OW  923   1.429   1.173   2.729
  301SOL    HW1  924   1.374   1.089   2.722
  301SOL    HW2  925   1.455   1.202   2.637
  302SOL     OW  926   1.466   0.590   2.854
  302SOL    HW1  927   1.436   0.495   2.861
  302SOL    HW2  928   1.539   0.606   2.920
  303SOL     OW  929   1.857   0.833   2.239
  303SOL    HW1  930   1.899   0.769   2.303
  303SOL    HW2  931   1.819   0.782   2.161
  304SOL     OW  932   0.488   1.385   2.036
  304SOL    HW1  933   0.401   1.370   2.083
  304SOL    HW2  934   0.471   1.411   1.941
  305SOL     OW  935   1.664   1.280   2.519
  305SOL    HW1  936   1.763   1.288   2.533
  305SOL    HW2  937   1.619   1.364   2.550
  306SOL     OW  938   1.390   0.575   1.940
  306SOL    HW1  939   1.336   0.554   2.021
  306SOL    HW2  940   1.481   0.534   1.949
  307SOL     OW  941   0.527   0.256   2.190
  307SOL    HW1  942   0.554   0.197   2.115
  307SOL    HW2  943   0.527   0.351   2.159
  308SOL     OW  944   1.754   1.223   3.450
  308SOL    HW1  945   1.845   1.184   3.437
  308SOL    HW2  946   1.762   1.319   3.474
  309SOL     OW  947   1.064   1.347   3.202
  309SOL    HW1  948   0.984   1.324   3.257
  309SOL    HW2  949   1.147   1.321   3.251
  310SOL     OW  950   1.592   1.629   3.487
  310SOL    HW1  951   1.619   1.663   3.397
  310SOL    HW2  952   1.671   1.591   3.533
  311SOL     OW  953   1.111   1.195   2.962
  311SOL    HW1  954   1.071   1.239   3.043
  311SOL    HW2  955   1.070   1.232   2.879
  312SOL     OW  956   1.638   1.099   2.941
  312SOL    HW1  957   1.643   1.180   3.000
  312SOL    HW2  958   1.552   1.101   2.890
  313SOL     OW  959   0.915   0.089   3.264
  313SOL    HW1  960   0.940   0.069   3.169
  313SOL    HW2  961   0.987   0.145   3.306
  314SOL     OW  962   0.980   1.116   3.581
  314SOL    HW1  963   0.881   1.122   3.591
  314SOL    HW2  964   1.003   1.036   3.525
  315SOL     OW  965   0.705   1.050   2.230
  315SOL    HW1  966   0.691   1.057   2.329
  315SOL    HW2  967   0.789   0.999   2.212
  316SOL     OW  968   0.410   0.813   3.113
  316SOL    HW1  969   0.496   0.825   3.163
  316SOL    HW2  970   0.368   0.726   3.140
  317SOL     OW  971   1.274   0.386   3.124
  317SOL    HW1  972   1.295   0.460   3.188
  317SOL    HW2  973   1.185   0.403   3.081
  318SOL     OW  974   0.064   1.564   3.193
  318SOL    HW1  975   0.018   1.646   3.159
  318SOL    HW2  976   0.162   1.583   3.202
  319SOL     OW  977   0.367   1.100   2.363
  319SOL    HW1  978   0.360   1.183   2.307
  319SOL    HW2  979   0.371   1.020   2.303
  320SOL     OW  980   0.566   0.537   2.727
  320SOL    HW1  981   0.578   0.603   2.653
  320SOL    HW2  982   0.612   0.571   2.810
  321SOL     OW  983   1.252   1.348   2.250
  321SOL    HW1  984   1.302   1.425   2.290
  321SOL    HW2  985   1.157   1.350   2.282
  322SOL     OW  986   1.272   1.445   3.004
  322SOL    HW1  987   1.319   1.458   3.091
  322SOL    HW2  988   1.206   1.371   3.013
  323SOL     OW  989   1.582   0.639   2.334
  323SOL    HW1  990   1.551   0.700   2.407
  323SOL    HW2  991   1.632   0.691   2.265
  324SOL     OW  992   0.354   1.510   3.191
  324SOL    HW1  993   0.333   1.466   3.104
  324SOL    HW2  994   0.451   1.536   3.194
  325SOL     OW  995   0.402   0.751   3.460
  325SOL    HW1  996   0.470   0.806   3.413
  325SOL    HW2  997   0.442   0.663   3.487
  326SOL     OW  998   1.587   0.779   3.532
  326SOL    HW1  999   1.495   0.817   3.527
  326SOL    HW2 1000   1.647   0.826   3.467
  327SOL     OW 1001   1.013   0.105   3.632
  327SOL    HW1 1002   1.019   0.190   3.580
  327SOL    HW2 1003   1.045   0.029   3.575
  328SOL     OW 1004   0.504   0.050   3.602
  328SOL    HW1 1005   0.462  -0.007   3.532
  328SOL    HW2 1006   0.438   0.119   3.634
  329SOL     OW 1007   0.573   0.870   2.891
  329SOL    HW1 1008   0.617   0.959   2.882
  329SOL    HW2 1009   0.510   0.870   2.968
  330SOL     OW 1010   1.360   0.862   2.907
  330SOL    HW1 1011   1.285   0.862   2.841
  330SOL    HW2 1012   1.397   0.770   2.916
  331SOL     OW 1013   1.209   0.525   2.137
  331SOL    HW1 1014   1.222   0.441   2.191
  331SOL    HW2 1015   1.180   0.599   2.197
  332SOL     OW 1016   0.307   0.213   3.093
  332SOL    HW1 1017   0.284   0.250   3.183
  332SOL    HW2 1018   0.277   0.118   3.087
  333SOL     OW 1019   0.037   1.310   3.144
  333SOL    HW1 1020   0.090   1.261   3.212
  333SOL    HW2 1021   0.059   1.408   3.149
  334SOL     OW 1022   0.732   0.634   2.926
  334SOL    HW1 1023   0.791   0.608   2.850
  334SOL    HW2 1024   0.704   0.730   2.915
  335SOL     OW 1025   1.728   0.935   3.716
  335SOL    HW1 1026   1.682   0.928   3.627
  335SOL    HW2 1027   1.666   0.979   3.782
  336SOL     OW 1028   0.307   0.063   2.480
  336SOL    HW1 1029   0.296   0.157   2.513
  336SOL    HW2 1030   0.302   0.000   2.557
  337SOL     OW 1031   1.622   0.367   2.236
  337SOL    HW1 1032   1.624   0.291   2.300
  337SOL    HW2 1033   1.574   0.444   2.276
  338SOL     OW 1034   1.023   0.766   2.828
  338SOL    HW1 1035   1.038   0.787   2.924
  338SOL    HW2 1036   0.993   0.671   2.819
  339SOL     OW 1037   0.980   1.573   3.562
  339SOL    HW1 1038   0.960   1.617   3.474
  339SOL    HW2 1039   1.019   1.482   3.546
  340SOL     OW 1040   1.859   1.518   3.467
  340SOL    HW1 1041   1.873   1.545   3.372
  340SOL    HW2 1042   1.942   1.540   3.520
  341SOL     OW 1043   0.350   0.898   3.666
  341SOL    HW1 1044   0.426   0.942   3.714
  341SOL    HW2 1045   0.385   0.851   3.584
  342SOL     OW 1046   1.540   0.274   1.987
  342SOL    HW1 1047   1.479   0.199   2.010
  342SOL    HW2 1048   1.562   0.326   2.070
  343SOL     OW 1049   1.303   0.838   1.904
  343SOL    HW1 1050   1.337   0.745   1.919
  343SOL    HW2 1051   1.321   0.865   1.809
  344SOL     OW 1052   1.068   1.333   2.711
  344SOL    HW1 1053   1.075   1.249   2.656
  344SOL    HW2 1054   1.130   1.402   2.675
  345SOL     OW 1055   0.319   0.810   2.811
  345SOL    HW1 1056   0.412   0.846   2.816
  345SOL    HW2 1057   0.313   0.725   2.863
  346SOL     OW 1058   0.339   0.509   2.868
  346SOL    HW1 1059   0.287   0.426   2.851
  346SOL    HW2 1060   0.416   0.514   2.804
  347SOL     OW 1061   1.138   0.380   3.540
  347SOL    HW1 1062   1.093   0.443   3.604
  347SOL    HW2 1063   1.231   0.411   3.523
  348SOL     OW 1064   1.160   0.207   3.339
  348SOL    HW1 1065   1.160   0.271   3.416
  348SOL    HW2 1066   1.188   0.255   3.256
  349SOL     OW 1067   0.008   1.326   2.062
  349SOL    HW1 1068  -0.085   1.347   2.031
  349SOL    HW2 1069   0.018   1.227   2.075
  350SOL     OW 1070   0.088   1.801   2.789
  350SOL    HW1 1071   0.046   1.715   2.762
  350SOL    HW2 1072   0.182   1.804   2.755
  351SOL     OW 1073   0.504   1.568   2.772
  351SOL    HW1 1074   0.570   1.642   2.781
  351SOL    HW2 1075   0.548   1.489   2.730
  352SOL     OW 1076   1.002   0.796   3.100
  352SOL    HW1 1077   1.043   0.764   3.186
  352SOL    HW2 1078   0.906   0.769   3.097
  353SOL     OW 1079   0.040   0.544   2.976
  353SOL    HW1 1080   0.125   0.511   2.935
  353SOL    HW2 1081   0.053   0.559   3.074
  354SOL     OW 1082   0.189   0.520   3.584
  354SOL    HW1 1083   0.248   0.480   3.514
  354SOL    HW2 1084   0.131   0.591   3.543
  355SOL     OW 1085   1.369   0.950   3.522
  355SOL    HW1 1086   1.408   1.039   3.542
  355SOL    HW2 1087   1.379   0.930   3.425
  356SOL     OW 1088   0.815   0.572   2.187
  356SOL    HW1 1089   0.822   0.483   2.141
  356SOL    HW2 1090   0.721   0.606   2.179
  357SOL     OW 1091   1.657   0.604   3.068
  357SOL    HW1 1092   1.619   0.535   3.130
  357SOL    HW2 1093   1.739   0.568   3.024
  358SOL     OW 1094   0.252   1.564   3.606
  358SOL    HW1 1095   0.222   1.621   3.682
  358SOL    HW2 1096   0.245   1.467   3.632
  359SOL     OW 1097   0.671   0.464   3.131
  359SOL    HW1 1098   0.637   0.375   3.101
  359SOL    HW2 1099   0.697   0.518   3.051
  360SOL     OW 1100   0.930   1.678   3.327
  360SOL    HW1 1101   0.906   1.660   3.232
  360SOL    HW2 1102   0.960   1.772   3.337
  361SOL     OW 1103   0.473   0.500   2.053
  361SOL    HW1 1104   0.534   0.580   2.057
  361SOL    HW2 1105   0.378   0.531   2.060
  362SOL     OW 1106   0.159   1.137   3.328
  362SOL    HW1 1107   0.181   1.076   3.404
  362SOL    HW2 1108   0.169   1.088   3.242
  363SOL     OW 1109   1.347   1.059   3.096
  363SOL    HW1 1110   1.371   0.996   3.022
  363SOL    HW2 1111   1.257   1.099   3.078
  364SOL     OW 1112   1.302   0.855   2.171
  364SOL    HW1 1113   1.216   0.824   2.213
  364SOL    HW2 1114   1.298   0.841   2.072
  365SOL     OW 1115   1.759   1.747   3.016
  365SOL    HW1 1116   1.820   1.777   2.943
  365SOL    HW2 1117   1.721   1.658   2.994
  366SOL     OW 1118   1.252   1.731   2.990
  366SOL    HW1 1119   1.336   1.736   2.936
  366SOL    HW2 1120   1.229   1.635   3.008
  367SOL     OW 1121   0.083   1.258   2.884
  367SOL    HW1 1122   0.078   1.257   2.984
  367SOL    HW2 1123   0.000   1.217   2.846
  368SOL     OW 1124   0.688   1.662   3.578
  368SOL    HW1 1125   0.632   1.743   3.587
  368SOL    HW2 1126   0.740   1.666   3.492
  369SOL     OW 1127   1.726   0.135   2.385
  369SOL    HW1 1128   1.799   0.118   2.318
  369SOL    HW2 1129   1.695   0.048   2.423
  370SOL     OW 1130   1.388   1.573   2.339
  370SOL    HW1 1131   1.455   1.585   2.265
  370SOL    HW2 1132   1.348   1.662   2.362
  371SOL     OW 1133   0.130   1.794   3.713
  371SOL    HW1 1134   0.089   1.720   3.766
  371SOL    HW2 1135   0.194   1.845   3.771
  372SOL     OW 1136   1.280   0.927   2.534
  372SOL    HW1 1137   1.340   0.846   2.536
  372SOL    HW2 1138   1.320   0.996   2.474
  373SOL     OW 1139   0.830   1.273   3.284
  373SOL    HW1 1140   0.825   1.306   3.379
  373SOL    HW2 1141   0.744   1.292   3.238
  374SOL     OW 1142   0.672   1.616   2.016
  374SOL    HW1 1143   0.681   1.626   1.917
  374SOL    HW2 1144   0.632   1.527   2.037
  375SOL     OW 1145   1.650   1.720   3.256
  375SOL    HW1 1146   1.703   1.730   3.172
  375SOL    HW2 1147   1.623   1.810   3.290
  376SOL     OW 1148   1.841   0.175   2.825
  376SOL    HW1 1149   1.880   0.090   2.789
  376SOL    HW2 1150   1.743   0.177   2.806
  377SOL     OW 1151   0.263   0.326   2.582
  377SOL    HW1 1152   0.184   0.377   2.548
  377SOL    HW2 1153   0.254   0.311   2.680
  378SOL     OW 1154   1.194   1.612   1.893
  378SOL    HW1 1155   1.200   1.519   1.930
  378SOL    HW2 1156   1.135   1.612   1.813
  379SOL     OW 1157   0.822   1.002   3.234
  379SOL    HW1 1158   0.862   1.001   3.142
  379SOL    HW2 1159   0.832   1.094   3.274
  380SOL     OW 1160   0.916   0.910   2.153
  380SOL    HW1 1161   0.979   0.948   2.085
  380SOL    HW2 1162   0.956   0.827   2.192
  381SOL     OW 1163   1.504   1.607   1.906
  381SOL    HW1 1164   1.412   1.644   1.913
  381SOL    HW2 1165   1.542   1.627   1.816
  382SOL     OW 1166   0.372   1.288   3.352
  382SOL    HW1 1167   0.359   1.381   3.318
  382SOL    HW2 1168   0.288   1.236   3.339
  383SOL     OW 1169   1.614   1.292   3.151
  383SOL    HW1 1170   1.674   1.295   3.231
  383SOL    HW2 1171   1.539   1.356   3.164
  384SOL     OW 1172   1.039   1.098   2.558
  384SOL    HW1 1173   0.969   1.051   2.612
  384SOL    HW2 1174   1.098   1.030   2.515
  385SOL     OW 1175   1.014   0.236   2.833
  385SOL    HW1 1176   1.006   0.200   2.740
  385SOL    HW2 1177   1.012   0.160   2.898
  386SOL     OW 1178   0.590   1.487   2.353
  386SOL    HW1 1179   0.632   1.429   2.283
  386SOL    HW2 1180   0.546   1.566   2.309
  387SOL     OW 1181   1.709   0.385   3.243
  387SOL    HW1 1182   1.782   0.454   3.247
  387SOL    HW2 1183   1.737   0.310   3.184
  388SOL     OW 1184   0.255   1.348   2.152
  388SOL    HW1 1185   0.159   1.349   2.125
  388SOL    HW2 1186   0.267   1.401   2.236
  389SOL     OW 1187   0.105   1.013   3.588
  389SOL    HW1 1188   0.028   0.980   3.642
  389SOL    HW2 1189   0.190   0.983   3.630
  390SOL     OW 1190   0.672   0.203   3.351
  390SOL    HW1 1191   0.762   0.187   3.311
  390SOL    HW2 1192   0.680   0.208   3.450
  391SOL     OW 1193   0.075   0.345   1.895
  391SOL    HW1 1194  -0.017   0.317   1.866
  391SOL    HW2 1195   0.106   0.422   1.839
  392SOL     OW 1196   1.440   0.856   3.260
  392SOL    HW1 1197   1.383   0.908   3.197
  392SOL    HW2 1198   1.536   0.868   3.236
  393SOL     OW 1199   0.072   0.166   2.180
  393SOL    HW1 1200   0.055   0.249   2.126
  393SOL    HW2 1201   0.162   0.129   2.158
  394SOL     OW 1202   1.183   1.335   1.981
  394SOL    HW1 1203   1.084   1.324   1.983
  394SOL    HW2 1204   1.217   1.350   2.074
  395SOL     OW 1205   0.613   0.842   3.293
  395SOL    HW1 1206   0.669   0.923   3.276
  395SOL    HW2 1207   0.672   0.762   3.296
  396SOL     OW 1208   1.493   1.767   2.821
  396SOL    HW1 1209   1.526   1.831   2.752
  396SOL    HW2 1210   1.559   1.761   2.896
  397SOL     OW 1211   0.716   0.565   3.570
  397SOL    HW1 1212   0.735   0.630   3.644
  397SOL    HW2 1213   0.776   0.485   3.579
  398SOL     OW 1214   1.450   1.220   3.495
  398SOL    HW1 1215   1.441   1.210   3.594
  398SOL    HW2 1216   1.546   1.213   3.469
  399SOL     OW 1217   0.390   1.741   3.422
  399SOL    HW1 1218   0.299   1.782   3.420
  399SOL    HW2 1219   0.383   1.647   3.454
  400SOL     OW 1220   1.674   0.883   3.116
  400SOL    HW1 1221   1.647   0.794   3.079
  400SOL    HW2 1222   1.675   0.951   3.043
  401SOL     OW 1223   1.225   0.325   2.311
  401SOL    HW1 1224   1.290   0.251   2.300
  401SOL    HW2 1225   1.245   0.375   2.395
  402SOL     OW 1226   0.594   0.745   2.514
  402SOL    HW1 1227   0.644   0.830   2.495
  402SOL    HW2 1228   0.506   0.747   2.466
  403SOL     OW 1229   1.777   0.342   3.504
  403SOL    HW1 1230   1.760   0.373   3.410
  403SOL    HW2 1231   1.693   0.305   3.542
  404SOL     OW 1232   1.730   0.934   3.379
  404SOL    HW1 1233   1.768   1.025   3.394
  404SOL    HW2 1234   1.722   0.917   3.280
  405SOL     OW 1235   0.859   1.374   1.878
  405SOL    HW1 1236   0.813   1.389   1.966
  405SOL    HW2 1237   0.903   1.459   1.848
  406SOL     OW 1238   0.661   1.790   2.815
  406SOL    HW1 1239   0.615   1.878   2.802
  406SOL    HW2 1240   0.760   1.802   2.808
  407SOL     OW 1241   0.859   0.956   2.723
  407SOL    HW1 1242   0.913   0.887   2.771
  407SOL    HW2 1243   0.827   1.025   2.789
  408SOL     OW 1244   1.083   0.984   1.949
  408SOL    HW1 1245   1.060   1.037   1.867
  408SOL    HW2 1246   1.164   0.928   1.930
  409SOL     OW 1247   1.861   1.569   2.713
  409SOL    HW1 1248   1.790   1.557   2.643
  409SOL    HW2 1249   1.862   1.490   2.773
  410SOL     OW 1250   0.221   1.314   3.706
  410SOL    HW1 1251   0.156   1.241   3.685
  410SOL    HW2 1252   0.225   1.328   3.804
  411SOL     OW 1253   0.079   1.240   2.515
  411SOL    HW1 1254   0.078   1.193   2.603
  411SOL    HW2 1255   0.161   1.212   2.464
  412SOL     OW 1256   0.672   1.391   3.486
  412SOL    HW1 1257   0.594   1.341   3.524
  412SOL    HW2 1258   0.669   1.486   3.517
  413SOL     OW 1259   1.824   0.192   3.089
  413SOL    HW1 1260   1.820   0.102   3.133
  413SOL    HW2 1261   1.827   0.181   2.990
  414SOL     OW 1262   0.428   0.424   2.382
  414SOL    HW1 1263   0.458   0.352   2.320
  414SOL    HW2 1264   0.389   0.384   2.465
  415SOL     OW 1265   1.705   1.487   2.966
  415SOL    HW1 1266   1.612   1.462   2.939
  415SOL    HW2 1267   1.731   1.437   3.048
  416SOL     OW 1268   0.317   0.547   3.142
  416SOL    HW1 1269   0.355   0.488   3.214
  416SOL    HW2 1270   0.357   0.521   3.054
  417SOL     OW 1271   0.812   1.586   2.549
  417SOL    HW1 1272   0.844   1.596   2.455
  417SOL    HW2 1273   0.733   1.524   2.551
  418SOL     OW 1274   1.424   0.214   2.974
  418SOL    HW1 1275   1.476   0.149   3.029
  418SOL    HW2 1276   1.375   0.277   3.035
  419SOL     OW 1277   1.001   0.034   3.016
  419SOL    HW1 1278   0.938  -0.038   2.985
  419SOL    HW2 1279   1.094  -0.002   3.016
  420SOL     OW 1280   0.770   1.330   2.163
  420SOL    HW1 1281   0.724   1.243   2.180
  420SOL    HW2 1282   0.861   1.327   2.204
  421SOL     OW 1283   0.618   1.567   3.146
  421SOL    HW1 1284   0.613   1.649   3.203
  421SOL    HW2 1285   0.707   1.564   3.101
  422SOL     OW 1286   1.352   0.052   2.030
  422SOL    HW1 1287   1.387   0.011   1.946
  422SOL    HW2 1288   1.262   0.014   2.050
  423SOL     OW 1289   1.300   0.453   2.553
  423SOL    HW1 1290   1.241   0.533   2.557
  423SOL    HW2 1291   1.315   0.418   2.646
  424SOL     OW 1292   1.593   0.221   2.744
  424SOL    HW1 1293   1.509   0.220   2.798
  424SOL    HW2 1294   1.595   0.304   2.688
  425SOL     OW 1295   0.039   1.077   2.162
  425SOL    HW1 1296   0.138   1.066   2.153
  425SOL    HW2 1297  -0.001   0.991   2.194
  426SOL     OW 1298   0.875   1.646   2.199
  426SOL    HW1 1299   0.798   1.611   2.145
  426SOL    HW2 1300   0.843   1.717   2.261
  427SOL     OW 1301   0.230   0.628   3.837
  427SOL    HW1 1302   0.137   0.626   3.874
  427SOL    HW2 1303   0.231   0.589   3.745
  428SOL     OW 1304   0.225   0.275   4.720
  428SOL    HW1 1305   0.260   0.258   4.812
  428SOL    HW2 1306   0.137   0.230   4.708
  429SOL     OW 1307   0.019   0.368   4.371
  429SOL    HW1 1308  -0.063   0.411   4.410
  429SOL    HW2 1309  -0.009   0.295   4.308
  430SOL     OW 1310   0.569   1.275   4.889
  430SOL    HW1 1311   0.476   1.268   4.852
  430SOL    HW2 1312   0.580   1.364   4.933
  431SOL     OW 1313   1.555   1.511   4.427
  431SOL    HW1 1314   1.498   1.495   4.508
  431SOL    HW2 1315   1.496   1.521   4.347
  432SOL     OW 1316   1.135   0.703   4.441
  432SOL    HW1 1317   1.192   0.781   4.416
  432SOL    HW2 1318   1.075   0.729   4.517
  433SOL     OW 1319   1.755   0.607   3.955
  433SOL    HW1 1320   1.743   0.594   3.856
  433SOL    HW2 1321   1.725   0.526   4.004
  434SOL     OW 1322   0.768   1.144   4.747
  434SOL    HW1 1323   0.690   1.161   4.807
  434SOL    HW2 1324   0.802   1.231   4.711
  435SOL     OW 1325   0.685   1.012   4.389
  435SOL    HW1 1326   0.754   0.996   4.459
  435SOL    HW2 1327   0.612   1.069   4.427
  436SOL     OW 1328   0.335   1.435   4.785
  436SOL    HW1 1329   0.257   1.404   4.732
  436SOL    HW2 1330   0.393   1.493   4.728
  437SOL     OW 1331   1.603   0.447   4.461
  437SOL    HW1 1332   1.529   0.493   4.411
  437SOL    HW2 1333   1.654   0.515   4.514
  438SOL     OW 1334   0.231   1.713   4.207
  438SOL    HW1 1335   0.265   1.790   4.261
  438SOL    HW2 1336   0.275   1.713   4.117
  439SOL     OW 1337   0.230   1.434   4.262
  439SOL    HW1 1338   0.204   1.530   4.262
  439SOL    HW2 1339   0.159   1.380   4.307
  440SOL     OW 1340   0.240   1.091   4.610
  440SOL    HW1 1341   0.254   1.007   4.662
  440SOL    HW2 1342   0.185   1.155   4.665
  441SOL     OW 1343   0.606   0.964   3.847
  441SOL    HW1 1344   0.613   1.048   3.793
  441SOL    HW2 1345   0.652   0.977   3.935
  442SOL     OW 1346   0.122   0.643   4.287
  442SOL    HW1 1347   0.077   0.555   4.304
  442SOL    HW2 1348   0.121   0.697   4.371
  443SOL     OW 1349   1.842   1.767   4.083
  443SOL    HW1 1350   1.896   1.738   4.163
  443SOL    HW2 1351   1.872   1.857   4.054
  444SOL     OW 1352   0.027   1.596   3.841
  444SOL    HW1 1353   0.008   1.500   3.862
  444SOL    HW2 1354  -0.006   1.654   3.916
  445SOL     OW 1355   1.689   0.922   4.336
  445SOL    HW1 1356   1.784   0.893   4.344
  445SOL    HW2 1357   1.681   0.987   4.261
  446SOL     OW 1358   1.641   1.108   4.156
  446SOL    HW1 1359   1.727   1.110   4.104
  446SOL    HW2 1360   1.655   1.155   4.244
  447SOL     OW 1361   0.613   1.365   4.450
  447SOL    HW1 1362   0.564   1.278   4.459
  447SOL    HW2 1363   0.590   1.408   4.363
  448SOL     OW 1364   0.809   0.004   4.226
  448SOL    HW1 1365   0.849   0.095   4.217
  448SOL    HW2 1366   0.709   0.012   4.232
  449SOL     OW 1367   0.197   0.976   4.988
  449SOL    HW1 1368   0.286   0.931   4.974
  449SOL    HW2 1369   0.124   0.911   4.969
  450SOL     OW 1370   1.525   0.999   3.914
  450SOL    HW1 1371   1.462   0.923   3.927
  450SOL    HW2 1372   1.573   1.017   4.000
  451SOL     OW 1373   1.466   1.417   4.677
  451SOL    HW1 1374   1.407   1.423   4.757
  451SOL    HW2 1375   1.451   1.329   4.631
  452SOL     OW 1376   1.667   1.714   4.296
  452SOL    HW1 1377   1.626   1.691   4.208
  452SOL    HW2 1378   1.649   1.640   4.361
  453SOL     OW 1379   0.598   0.729   3.994
  453SOL    HW1 1380   0.622   0.798   3.926
  453SOL    HW2 1381   0.520   0.762   4.048
  454SOL     OW 1382   1.281   0.345   4.668
  454SOL    HW1 1383   1.195   0.295   4.655
  454SOL    HW2 1384   1.343   0.291   4.724
  455SOL     OW 1385   1.576   1.662   4.031
  455SOL    HW1 1386   1.665   1.708   4.034
  455SOL    HW2 1387   1.555   1.638   3.936
  456SOL     OW 1388   1.041   0.701   4.153
  456SOL    HW1 1389   1.067   0.697   4.249
  456SOL    HW2 1390   0.956   0.650   4.139
  457SOL     OW 1391   0.076   0.811   4.513
  457SOL    HW1 1392   0.175   0.799   4.522
  457SOL    HW2 1393   0.052   0.906   4.534
  458SOL     OW 1394   0.865   0.348   3.919
  458SOL    HW1 1395   0.924   0.411   3.870
  458SOL    HW2 1396   0.884   0.254   3.890
  459SOL     OW 1397   1.362   1.144   4.269
  459SOL    HW1 1398   1.445   1.115   4.221
  459SOL    HW2 1399   1.313   1.211   4.213
  460SOL     OW 1400   0.550   0.196   4.609
  460SOL    HW1 1401   0.545   0.191   4.709
  460SOL    HW2 1402   0.552   0.292   4.580
  461SOL     OW 1403   1.008   1.456   4.201
  461SOL    HW1 1404   0.962   1.528   4.149
  461SOL    HW2 1405   1.004   1.476   4.299
  462SOL     OW 1406   0.351   1.801   4.577
  462SOL    HW1 1407   0.401   1.715   4.583
  462SOL    HW2 1408   0.416   1.878   4.574
  463SOL     OW 1409   1.795   1.066   4.597
  463SOL    HW1 1410   1.733   1.051   4.521
  463SOL    HW2 1411   1.743   1.077   4.682
  464SOL     OW 1412   0.321   0.943   3.966
  464SOL    HW1 1413   0.403   0.982   3.924
  464SOL    HW2 1414   0.294   0.861   3.917
  465SOL     OW 1415   1.458   0.735   4.452
  465SOL    HW1 1416   1.453   0.670   4.527
  465SOL    HW2 1417   1.538   0.794   4.465
  466SOL     OW 1418   1.111   1.776   3.961
  466SOL    HW1 1419   1.051   1.714   4.011
  466SOL    HW2 1420   1.142   1.732   3.876
  467SOL     OW 1421   1.632   1.377   3.805
  467SOL    HW1 1422   1.600   1.471   3.795
  467SOL    HW2 1423   1.556   1.314   3.793
  468SOL     OW 1424   0.464   1.743   4.047
  468SOL    HW1 1425   0.497   1.782   4.133
  468SOL    HW2 1426   0.540   1.736   3.982
  469SOL     OW 1427   1.400   0.107   4.150
  469SOL    HW1 1428   1.376   0.070   4.060
  469SOL    HW2 1429   1.499   0.123   4.154
  470SOL     OW 1430   0.249   1.785   4.965
  470SOL    HW1 1431   0.306   1.720   5.015
  470SOL    HW2 1432   0.233   1.752   4.872
  471SOL     OW 1433   0.940   1.698   4.628
  471SOL    HW1 1434   1.020   1.641   4.649
  471SOL    HW2 1435   0.891   1.658   4.551
  472SOL     OW 1436   0.382   0.700   4.204
  472SOL    HW1 1437   0.427   0.610   4.201
  472SOL    HW2 1438   0.288   0.689   4.237
  473SOL     OW 1439   0.614   0.122   3.841
  473SOL    HW1 1440   0.712   0.100   3.848
  473SOL    HW2 1441   0.583   0.105   3.748
  474SOL     OW 1442   0.803   1.402   4.648
  474SOL    HW1 1443   0.893   1.416   4.606
  474SOL    HW2 1444   0.732   1.404   4.577
  475SOL     OW 1445   0.922   0.503   4.623
  475SOL    HW1 1446   0.897   0.494   4.527
  475SOL    HW2 1447   0.970   0.421   4.654
  476SOL     OW 1448   0.539   0.064   4.236
  476SOL    HW1 1449   0.458   0.065   4.294
  476SOL    HW2 1450   0.542   0.147   4.181
  477SOL     OW 1451   1.434   1.188   3.765
  477SOL    HW1 1452   1.466   1.112   3.822
  477SOL    HW2 1453   1.342   1.215   3.795
  478SOL     OW 1454   0.297   0.035   3.895
  478SOL    HW1 1455   0.346   0.119   3.874
  478SOL    HW2 1456   0.359  -0.030   3.940
  479SOL     OW 1457   0.935   0.236   4.204
  479SOL    HW1 1458   0.887   0.277   4.126
  479SOL    HW2 1459   1.034   0.234   4.185
  480SOL     OW 1460   1.227   1.570   4.517
  480SOL    HW1 1461   1.248   1.644   4.452
  480SOL    HW2 1462   1.295   1.570   4.590
  481SOL     OW 1463   0.459   1.152   4.465
  481SOL    HW1 1464   0.388   1.125   4.530
  481SOL    HW2 1465   0.433   1.124   4.372
  482SOL     OW 1466   1.271   1.797   4.315
  482SOL    HW1 1467   1.315   1.861   4.251
  482SOL    HW2 1468   1.221   1.849   4.385
  483SOL     OW 1469   1.032   0.549   3.740
  483SOL    HW1 1470   0.991   0.631   3.701
  483SOL    HW2 1471   1.096   0.575   3.813
  484SOL     OW 1472   0.866   0.454   4.366
  484SOL    HW1 1473   0.834   0.526   4.304
  484SOL    HW2 1474   0.890   0.373   4.313
  485SOL     OW 1475   1.017   0.039   4.477
  485SOL    HW1 1476   0.945   0.044   4.408
  485SOL    HW2 1477   0.993  -0.030   4.546
  486SOL     OW 1478   1.429   1.173   4.591
  486SOL    HW1 1479   1.374   1.089   4.584
  486SOL    HW2 1480   1.455   1.202   4.499
  487SOL     OW 1481   1.466   0.590   4.716
  487SOL    HW1 1482   1.436   0.495   4.723
  487SOL    HW2 1483   1.539   0.606   4.782
  488SOL     OW 1484   1.857   0.833   4.101
  488SOL    HW1 1485   1.899   0.769   4.165
  488SOL    HW2 1486   1.819   0.782   4.023
  489SOL     OW 1487   0.488   1.385   3.898
  489SOL    HW1 1488   0.401   1.370   3.945
  489SOL    HW2 1489   0.471   1.411   3.803
  490SOL     OW 1490   1.664   1.280   4.381
  490SOL    HW1 1491   1.763   1.288   4.395
  490SOL    HW2 1492   1.619   1.364   4.412
  491SOL     OW 1493   1.390   0.575   3.802
  491SOL    HW1 1494   1.336   0.554   3.883
  491SOL    HW2 1495   1.481   0.534   3.811
  492SOL     OW 1496   0.527   0.256   4.052
  492SOL    HW1 1497   0.554   0.197   3.977
  492SOL    HW2 1498   0.527   0.351   4.021
  493SOL     OW 1499   1.111   1.195   4.824
  493SOL    HW1 1500   1.071   1.239   4.905
  493SOL    HW2 1501   1.070   1.232   4.741
  494SOL     OW 1502   1.638   1.099   4.803
  494SOL    HW1 1503   1.643   1.180   4.862
  494SOL    HW2 1504   1.552   1.101   4.752
  495SOL     OW 1505   0.705   1.050   4.092
  495SOL    HW1 1506   0.691   1.057   4.191
  495SOL    HW2 1507   0.789   0.999   4.074
  496SOL     OW 1508   0.410   0.813   4.975
  496SOL    HW1 1509   0.496   0.825   5.025
  496SOL    HW2 1510   0.368   0.726   5.002
  497SOL     OW 1511   0.367   1.100   4.225
  497SOL    HW1 1512   0.360   1.183   4.169
  497SOL    HW2 1513   0.371   1.020   4.165
  498SOL     OW 1514   0.566   0.537   4.589
  498SOL    HW1 1515   0.578   0.603   4.515
  498SOL    HW2 1516   0.612   0.571   4.672
  499SOL     OW 1517   1.252   1.348   4.112
  499SOL    HW1 1518   1.302   1.425   4.152
  499SOL    HW2 1519   1.157   1.350   4.144
  500SOL     OW 1520   1.272   1.445   4.866
  500SOL    HW1 1521   1.319   1.458   4.953
  500SOL    HW2 1522   1.206   1.371   4.875
  501SOL     OW 1523   1.582   0.639   4.196
  501SOL    HW1 1524   1.551   0.700   4.269
  501SOL    HW2 1525   1.632   0.691   4.127
  502SOL     OW 1526   0.354   1.510   5.053
  502SOL    HW1 1527   0.333   1.466   4.966
  502SOL    HW2 1528   0.451   1.536   5.056
  503SOL     OW 1529   0.573   0.870   4.753
  503SOL    HW1 1530   0.617   0.959   4.744
  503SOL    HW2 1531   0.510   0.870   4.830
  504SOL     OW 1532   1.209   0.525   3.999
  504SOL    HW1 1533   1.222   0.441   4.053
  504SOL    HW2 1534   1.180   0.599   4.059
  505SOL     OW 1535   0.307   0.213   4.955
  505SOL    HW1 1536   0.284   0.250   5.045
  505SOL    HW2 1537   0.277   0.118   4.949
  506SOL     OW 1538   0.732   0.634   4.788
  506SOL    HW1 1539   0.791   0.608   4.712
  506SOL    HW2 1540   0.704   0.730   4.777
  507SOL     OW 1541   0.307   0.063   4.342
  507SOL    HW1 1542   0.296   0.157   4.375
  507SOL    HW2 1543   0.302   0.000   4.419
  508SOL     OW 1544   1.622   0.367   4.098
  508SOL    HW1 1545   1.624   0.291   4.162
  508SOL    HW2 1546   1.574   0.444   4.138
  509SOL     OW 1547   1.023   0.766   4.690
  509SOL    HW1 1548   1.038   0.787   4.786
  509SOL    HW2 1549   0.993   0.671   4.681
  510SOL     OW 1550   1.540   0.274   3.849
  510SOL    HW1 1551   1.479   0.199   3.872
  510SOL    HW2 1552   1.562   0.326   3.932
  511SOL     OW 1553   1.303   0.838   3.766
  511SOL    HW1 1554   1.337   0.745   3.781
  511SOL    HW2 1555   1.321   0.865   3.671
  512SOL     OW 1556   1.068   1.333   4.573
  512SOL    HW1 1557   1.075   1.249   4.518
  512SOL    HW2 1558   1.130   1.402   4.537
  513SOL     OW 1559   0.319   0.810   4.673
  513SOL    HW1 1560   0.412   0.846   4.678
  513SOL    HW2 1561   0.313   0.725   4.725
  514SOL     OW 1562   0.339   0.509   4.730
  514SOL    HW1 1563   0.287   0.426   4.713
  514SOL    HW2 1564   0.416   0.514   4.666
  515SOL     OW 1565   0.008   1.326   3.924
  515SOL    HW1 1566  -0.085   1.347   3.893
  515SOL    HW2 1567   0.018   1.227   3.937
  516SOL     OW 1568   0.088   1.801   4.651
  516SOL    HW1 1569   0.046   1.715   4.624
  516SOL    HW2 1570   0.182   1.804   4.617
  517SOL     OW 1571   0.504   1.568   4.634
  517SOL    HW1 1572   0.570   1.642   4.643
  517SOL    HW2 1573   0.548   1.489   4.592
  518SOL     OW 1574   1.002   0.796   4.962
  518SOL    HW1 1575   1.043   0.764   5.048
  518SOL    HW2 1576   0.906   0.769   4.959
  519SOL     OW 1577   0.815   0.572   4.049
  519SOL    HW1 1578   0.822   0.483   4.003
  519SOL    HW2 1579   0.721   0.606   4.041
  520SOL     OW 1580   0.671   0.464   4.993
  520SOL    HW1 1581   0.637   0.375   4.963
  520SOL    HW2 1582   0.697   0.518   4.913
  521SOL     OW 1583   0.473   0.500   3.915
  521SOL    HW1 1584   0.534   0.580   3.919
  521SOL    HW2 1585   0.378   0.531   3.922
  522SOL     OW 1586   1.302   0.855   4.033
  522SOL    HW1 1587   1.216   0.824   4.075
  522SOL    HW2 1588   1.298   0.841   3.934
  523SOL     OW 1589   1.759   1.747   4.878
  523SOL    HW1 1590   1.820   1.777   4.805
  523SOL    HW2 1591   1.721   1.658   4.856
  524SOL     OW 1592   0.083   1.258   4.746
  524SOL    HW1 1593   0.078   1.257   4.846
  524SOL    HW2 1594   0.000   1.217   4.708
  525SOL     OW 1595   1.726   0.135   4.247
  525SOL    HW1 1596   1.799   0.118   4.180
  525SOL    HW2 1597   1.695   0.048   4.285
  526SOL     OW 1598   1.388   1.573   4.201
  526SOL    HW1 1599   1.455   1.585   4.127
  526SOL    HW2 1600   1.348   1.662   4.224
  527SOL     OW 1601   1.280   0.927   4.396
  527SOL    HW1 1602   1.340   0.846   4.398
  527SOL    HW2 1603   1.320   0.996   4.336
  528SOL     OW 1604   0.672   1.616   3.878
  528SOL    HW1 1605   0.681   1.626   3.779
  528SOL    HW2 1606   0.632   1.527   3.899
  529SOL     OW 1607   1.841   0.175   4.687
  529SOL    HW1 1608   1.880   0.090   4.651
  529SOL    HW2 1609   1.743   0.177   4.668
  530SOL     OW 1610   0.263   0.326   4.444
  530SOL    HW1 1611   0.184   0.377   4.410
  530SOL    HW2 1612   0.254   0.311   4.542
  531SOL     OW 1613   1.194   1.612   3.755
  531SOL    HW1 1614   1.200   1.519   3.792
  531SOL    HW2 1615   1.135   1.612   3.675
  532SOL     OW 1616   0.822   1.002   5.096
  532SOL    HW1 1617   0.862   1.001   5.004
  532SOL    HW2 1618   0.832   1.094   5.136
  533SOL     OW 1619   0.916   0.910   4.015
  533SOL    HW1 1620   0.979   0.948   3.947
  533SOL    HW2 1621   0.956   0.827   4.054
  534SOL     OW 1622   1.504   1.607   3.768
  534SOL    HW1 1623   1.412   1.644   3.775
  534SOL    HW2 1624   1.542   1.627   3.678
  535SOL     OW 1625   1.039   1.098   4.420
  535SOL    HW1 1626   0.969   1.051   4.474
  535SOL    HW2 1627   1.098   1.030   4.377
  536SOL     OW 1628   1.014   0.236   4.695
  536SOL    HW1 1629   1.006   0.200   4.602
  536SOL    HW2 1630   1.012   0.160   4.760
  537SOL     OW 1631   0.590   1.487   4.215
  537SOL    HW1 1632   0.632   1.429   4.145
  537SOL    HW2 1633   0.546   1.566   4.171
  538SOL     OW 1634   0.255   1.348   4.014
  538SOL    HW1 1635   0.159   1.349   3.987
  538SOL    HW2 1636   0.267   1.401   4.098
  539SOL     OW 1637   0.075   0.345   3.757
  539SOL    HW1 1638  -0.017   0.317   3.728
  539SOL    HW2 1639   0.106   0.422   3.701
  540SOL     OW 1640   0.072   0.166   4.042
  540SOL    HW1 1641   0.055   0.249   3.988
  540SOL    HW2 1642   0.162   0.129   4.020
  541SOL     OW 1643   1.183   1.335   3.843
  541SOL    HW1 1644   1.084   1.324   3.845
  541SOL    HW2 1645   1.217   1.350   3.936
  542SOL     OW 1646   1.493   1.767   4.683
  542SOL    HW1 1647   1.526   1.831   4.614
  542SOL    HW2 1648   1.559   1.761   4.758
  543SOL     OW 1649   1.674   0.883   4.978
  543SOL    HW1 1650   1.647   0.794   4.941
  543SOL    HW2 1651   1.675   0.951   4.905
  544SOL     OW 1652   1.225   0.325   4.173
  544SOL    HW1 1653   1.290   0.251   4.162
  544SOL    HW2 1654   1.245   0.375   4.257
  545SOL     OW 1655   0.594   0.745   4.376
  545SOL    HW1 1656   0.644   0.830   4.357
  545SOL    HW2 1657   0.506   0.747   4.328
  546SOL     OW 1658   0.859   1.374   3.740
  546SOL    HW1 1659   0.813   1.389   3.828
  546SOL    HW2 1660   0.903   1.459   3.710
  547SOL     OW 1661   0.661   1.790   4.677
  547SOL    HW1 1662   0.615   1.878   4.664
  547SOL    HW2 1663   0.760   1.802   4.670
  548SOL     OW 1664   0.859   0.956   4.585
  548SOL    HW1 1665   0.913   0.887   4.633
  548SOL    HW2 1666   0.827   1.025   4.651
  549SOL     OW 1667   1.083   0.984   3.811
  549SOL    HW1 1668   1.060   1.037   3.729
  549SOL    HW2 1669   1.164   0.928   3.792
  550SOL     OW 1670   1.861   1.569   4.575
  550SOL    HW1 1671   1.790   1.557   4.505
  550SOL    HW2 1672   1.862   1.490   4.635
  551SOL     OW 1673   0.079   1.240   4.377
  551SOL    HW1 1674   0.078   1.193   4.465
  551SOL    HW2 1675   0.161   1.212   4.326
  552SOL     OW 1676   1.824   0.192   4.951
  552SOL    HW1 1677   1.820   0.102   4.995
  552SOL    HW2 1678   1.827   0.181   4.852
  553SOL     OW 1679   0.428   0.424   4.244
  553SOL    HW1 1680   0.458   0.352   4.182
  553SOL    HW2 1681   0.389   0.384   4.327
  554SOL     OW 1682   0.812   1.586   4.411
  554SOL    HW1 1683   0.844   1.596   4.317
  554SOL    HW2 1684   0.733   1.524   4.413
  555SOL     OW 1685   1.424   0.214   4.836
  555SOL    HW1 1686   1.476   0.149   4.891
  555SOL    HW2 1687   1.375   0.277   4.897
  556SOL     OW 1688   0.770   1.330   4.025
  556SOL    HW1 1689   0.724   1.243   4.042
  556SOL    HW2 1690   0.861   1.327   4.066
  557SOL     OW 1691   1.352   0.052   3.892
  557SOL    HW1 1692   1.387   0.011   3.808
  557SOL    HW2 1693   1.262   0.014   3.912
  558SOL     OW 1694   1.300   0.453   4.415
  558SOL    HW1 1695   1.241   0.533   4.419
  558SOL    HW2 1696   1.315   0.418   4.508
  559SOL     OW 1697   1.593   0.221   4.606
  559SOL    HW1 1698   1.509   0.220   4.660
  559SOL    HW2 1699   1.595   0.304   4.550
  560SOL     OW 1700   0.039   1.077   4.024
  560SOL    HW1 1701   0.138   1.066   4.015
  560SOL    HW2 1702  -0.001   0.991   4.056
  561SOL     OW 1703   0.875   1.646   4.061
  561SOL    HW1 1704   0.798   1.611   4.007
  561SOL    HW2 1705   0.843   1.717   4.123
  562SOL     OW 1706   0.230   2.490   0.113
  562SOL    HW1 1707   0.137   2.488   0.150
  562SOL    HW2 1708   0.231   2.451   0.021
  563SOL     OW 1709   0.225   2.137   0.996
  563SOL    HW1 1710   0.260   2.120   1.088
  563SOL    HW2 1711   0.137   2.092   0.984
  564SOL     OW 1712   0.019   2.230   0.647
  564SOL    HW1 1713  -0.063   2.273   0.686
  564SOL    HW2 1714  -0.009   2.157   0.584
  565SOL     OW 1715   0.569   3.137   1.165
  565SOL    HW1 1716   0.476   3.130   1.128
  565SOL    HW2 1717   0.580   3.226   1.209
  566SOL     OW 1718   1.555   3.373   0.703
  566SOL    HW1 1719   1.498   3.357   0.784
  566SOL    HW2 1720   1.496   3.383   0.623
  567SOL     OW 1721   1.135   2.565   0.717
  567SOL    HW1 1722   1.192   2.643   0.692
  567SOL    HW2 1723   1.075   2.591   0.793
  568SOL     OW 1724   1.755   2.469   0.231
  568SOL    HW1 1725   1.743   2.456   0.132
  568SOL    HW2 1726   1.725   2.388   0.280
  569SOL     OW 1727   0.768   3.006   1.023
  569SOL    HW1 1728   0.690   3.023   1.083
  569SOL    HW2 1729   0.802   3.093   0.987
  570SOL     OW 1730   0.850   2.660   1.823
  570SOL    HW1 1731   0.846   2.736   1.888
  570SOL    HW2 1732   0.872   2.696   1.732
  571SOL     OW 1733   0.685   2.874   0.665
  571SOL    HW1 1734   0.754   2.858   0.735
  571SOL    HW2 1735   0.612   2.931   0.703
  572SOL     OW 1736   0.686   3.023   1.803
  572SOL    HW1 1737   0.746   3.102   1.817
  572SOL    HW2 1738   0.600   3.054   1.762
  573SOL     OW 1739   0.335   3.297   1.061
  573SOL    HW1 1740   0.257   3.266   1.008
  573SOL    HW2 1741   0.393   3.355   1.004
  574SOL     OW 1742   1.460   3.367   1.339
  574SOL    HW1 1743   1.484   3.461   1.365
  574SOL    HW2 1744   1.444   3.313   1.421
  575SOL     OW 1745   0.438   2.254   1.499
  575SOL    HW1 1746   0.520   2.198   1.508
  575SOL    HW2 1747   0.357   2.196   1.503
  576SOL     OW 1748   1.603   2.309   0.737
  576SOL    HW1 1749   1.529   2.355   0.687
  576SOL    HW2 1750   1.654   2.377   0.790
  577SOL     OW 1751   0.231   3.575   0.483
  577SOL    HW1 1752   0.265   3.652   0.537
  577SOL    HW2 1753   0.275   3.575   0.393
  578SOL     OW 1754   1.127   3.203   1.690
  578SOL    HW1 1755   1.174   3.203   1.778
  578SOL    HW2 1756   1.079   3.116   1.679
  579SOL     OW 1757   0.230   3.296   0.538
  579SOL    HW1 1758   0.204   3.392   0.538
  579SOL    HW2 1759   0.159   3.242   0.583
  580SOL     OW 1760   0.240   2.953   0.886
  580SOL    HW1 1761   0.254   2.869   0.938
  580SOL    HW2 1762   0.185   3.017   0.941
  581SOL     OW 1763   0.620   3.648   1.439
  581SOL    HW1 1764   0.528   3.631   1.474
  581SOL    HW2 1765   0.648   3.740   1.465
  582SOL     OW 1766   0.606   2.826   0.123
  582SOL    HW1 1767   0.613   2.910   0.069
  582SOL    HW2 1768   0.652   2.839   0.211
  583SOL     OW 1769   1.594   1.976   1.480
  583SOL    HW1 1770   1.576   2.043   1.408
  583SOL    HW2 1771   1.591   2.022   1.569
  584SOL     OW 1772   0.122   2.505   0.563
  584SOL    HW1 1773   0.077   2.417   0.580
  584SOL    HW2 1774   0.121   2.559   0.647
  585SOL     OW 1775   1.842   3.629   0.359
  585SOL    HW1 1776   1.896   3.600   0.439
  585SOL    HW2 1777   1.872   3.719   0.330
  586SOL     OW 1778   0.027   3.458   0.117
  586SOL    HW1 1779   0.008   3.362   0.138
  586SOL    HW2 1780  -0.006   3.516   0.192
  587SOL     OW 1781   1.689   2.784   0.612
  587SOL    HW1 1782   1.784   2.755   0.620
  587SOL    HW2 1783   1.681   2.849   0.537
  588SOL     OW 1784   1.641   2.970   0.432
  588SOL    HW1 1785   1.727   2.972   0.380
  588SOL    HW2 1786   1.655   3.017   0.520
  589SOL     OW 1787   0.113   2.599   1.597
  589SOL    HW1 1788   0.201   2.586   1.642
  589SOL    HW2 1789   0.100   2.696   1.575
  590SOL     OW 1790   0.613   3.227   0.726
  590SOL    HW1 1791   0.564   3.140   0.735
  590SOL    HW2 1792   0.590   3.270   0.639
  591SOL     OW 1793   1.293   3.090   1.423
  591SOL    HW1 1794   1.330   3.017   1.365
  591SOL    HW2 1795   1.345   3.095   1.508
  592SOL     OW 1796   0.809   1.866   0.502
  592SOL    HW1 1797   0.849   1.957   0.493
  592SOL    HW2 1798   0.709   1.874   0.508
  593SOL     OW 1799   0.197   2.838   1.264
  593SOL    HW1 1800   0.286   2.793   1.250
  593SOL    HW2 1801   0.124   2.773   1.245
  594SOL     OW 1802   1.525   2.861   0.190
  594SOL    HW1 1803   1.462   2.785   0.203
  594SOL    HW2 1804   1.573   2.879   0.276
  595SOL     OW 1805   1.187   3.654   1.616
  595SOL    HW1 1806   1.211   3.714   1.540
  595SOL    HW2 1807   1.194   3.559   1.586
  596SOL     OW 1808   0.317   2.113   1.801
  596SOL    HW1 1809   0.388   2.184   1.807
  596SOL    HW2 1810   0.229   2.152   1.829
  597SOL     OW 1811   1.466   3.279   0.953
  597SOL    HW1 1812   1.407   3.285   1.033
  597SOL    HW2 1813   1.451   3.191   0.907
  598SOL     OW 1814   1.667   3.576   0.572
  598SOL    HW1 1815   1.626   3.553   0.484
  598SOL    HW2 1816   1.649   3.502   0.637
  599SOL     OW 1817   0.598   2.591   0.270
  599SOL    HW1 1818   0.622   2.660   0.202
  599SOL    HW2 1819   0.520   2.624   0.324
  600SOL     OW 1820   1.281   2.207   0.944
  600SOL    HW1 1821   1.195   2.157   0.931
  600SOL    HW2 1822   1.343   2.153   1.000
  601SOL     OW 1823   1.576   3.524   0.307
  601SOL    HW1 1824   1.665   3.570   0.310
  601SOL    HW2 1825   1.555   3.500   0.212
  602SOL     OW 1826   0.807   2.467   1.465
  602SOL    HW1 1827   0.760   2.464   1.554
  602SOL    HW2 1828   0.756   2.412   1.399
  603SOL     OW 1829   1.394   2.331   1.674
  603SOL    HW1 1830   1.374   2.374   1.762
  603SOL    HW2 1831   1.472   2.269   1.683
  604SOL     OW 1832   0.973   2.752   1.572
  604SOL    HW1 1833   1.019   2.668   1.543
  604SOL    HW2 1834   0.917   2.786   1.497
  605SOL     OW 1835   0.991   2.272   1.242
  605SOL    HW1 1836   0.914   2.306   1.296
  605SOL    HW2 1837   0.957   2.221   1.163
  606SOL     OW 1838   1.041   2.563   0.429
  606SOL    HW1 1839   1.067   2.559   0.525
  606SOL    HW2 1840   0.956   2.512   0.415
  607SOL     OW 1841   0.076   2.673   0.789
  607SOL    HW1 1842   0.175   2.661   0.798
  607SOL    HW2 1843   0.052   2.768   0.810
  608SOL     OW 1844   0.130   3.683   1.571
  608SOL    HW1 1845   0.120   3.668   1.670
  608SOL    HW2 1846   0.044   3.719   1.535
  609SOL     OW 1847   0.865   2.210   0.195
  609SOL    HW1 1848   0.924   2.273   0.146
  609SOL    HW2 1849   0.884   2.116   0.166
  610SOL     OW 1850   1.719   2.447   1.831
  610SOL    HW1 1851   1.693   2.536   1.795
  610SOL    HW2 1852   1.717   2.379   1.758
  611SOL     OW 1853   1.362   3.006   0.545
  611SOL    HW1 1854   1.445   2.977   0.497
  611SOL    HW2 1855   1.313   3.073   0.489
  612SOL     OW 1856   0.550   2.058   0.885
  612SOL    HW1 1857   0.545   2.053   0.985
  612SOL    HW2 1858   0.552   2.154   0.856
  613SOL     OW 1859   1.008   3.318   0.477
  613SOL    HW1 1860   0.962   3.390   0.425
  613SOL    HW2 1861   1.004   3.338   0.575
  614SOL     OW 1862   0.351   3.663   0.853
  614SOL    HW1 1863   0.401   3.577   0.859
  614SOL    HW2 1864   0.416   3.740   0.850
  615SOL     OW 1865   1.795   2.928   0.873
  615SOL    HW1 1866   1.733   2.913   0.797
  615SOL    HW2 1867   1.743   2.939   0.958
  616SOL     OW 1868   1.227   3.412   1.506
  616SOL    HW1 1869   1.233   3.335   1.570
  616SOL    HW2 1870   1.175   3.386   1.426
  617SOL     OW 1871   0.321   2.805   0.242
  617SOL    HW1 1872   0.403   2.844   0.200
  617SOL    HW2 1873   0.294   2.723   0.193
  618SOL     OW 1874   1.458   2.597   0.728
  618SOL    HW1 1875   1.453   2.532   0.803
  618SOL    HW2 1876   1.538   2.656   0.741
  619SOL     OW 1877   0.461   3.128   1.727
  619SOL    HW1 1878   0.411   3.129   1.641
  619SOL    HW2 1879   0.398   3.110   1.803
  620SOL     OW 1880   1.111   3.638   0.237
  620SOL    HW1 1881   1.051   3.576   0.287
  620SOL    HW2 1882   1.142   3.594   0.152
  621SOL     OW 1883   0.202   2.147   1.498
  621SOL    HW1 1884   0.122   2.207   1.485
  621SOL    HW2 1885   0.192   2.098   1.584
  622SOL     OW 1886   1.632   3.239   0.081
  622SOL    HW1 1887   1.600   3.333   0.071
  622SOL    HW2 1888   1.556   3.176   0.069
  623SOL     OW 1889   0.464   3.605   0.323
  623SOL    HW1 1890   0.497   3.644   0.409
  623SOL    HW2 1891   0.540   3.598   0.258
  624SOL     OW 1892   1.400   1.969   0.426
  624SOL    HW1 1893   1.376   1.932   0.336
  624SOL    HW2 1894   1.499   1.985   0.430
  625SOL     OW 1895   0.249   3.647   1.241
  625SOL    HW1 1896   0.306   3.582   1.291
  625SOL    HW2 1897   0.233   3.614   1.148
  626SOL     OW 1898   0.940   3.560   0.904
  626SOL    HW1 1899   1.020   3.503   0.925
  626SOL    HW2 1900   0.891   3.520   0.827
  627SOL     OW 1901   0.382   2.562   0.480
  627SOL    HW1 1902   0.427   2.472   0.477
  627SOL    HW2 1903   0.288   2.551   0.513
  628SOL     OW 1904   1.547   2.084   1.729
  628SOL    HW1 1905   1.542   2.121   1.821
  628SOL    HW2 1906   1.475   2.015   1.717
  629SOL     OW 1907   0.614   1.984   0.117
  629SOL    HW1 1908   0.712   1.962   0.124
  629SOL    HW2 1909   0.583   1.967   0.024
  630SOL     OW 1910   0.781   2.126   1.749
  630SOL    HW1 1911   0.848   2.065   1.792
  630SOL    HW2 1912   0.708   2.145   1.814
  631SOL     OW 1913   0.888   3.376   1.195
  631SOL    HW1 1914   0.865   3.351   1.101
  631SOL    HW2 1915   0.949   3.307   1.234
  632SOL     OW 1916   1.351   2.452   1.433
  632SOL    HW1 1917   1.379   2.409   1.518
  632SOL    HW2 1918   1.376   2.548   1.434
  633SOL     OW 1919   0.803   3.264   0.924
  633SOL    HW1 1920   0.893   3.278   0.882
  633SOL    HW2 1921   0.732   3.266   0.853
  634SOL     OW 1922   0.922   2.365   0.899
  634SOL    HW1 1923   0.897   2.356   0.803
  634SOL    HW2 1924   0.970   2.283   0.930
  635SOL     OW 1925   0.539   1.926   0.512
  635SOL    HW1 1926   0.458   1.927   0.570
  635SOL    HW2 1927   0.542   2.009   0.457
  636SOL     OW 1928   1.434   3.050   0.041
  636SOL    HW1 1929   1.466   2.974   0.098
  636SOL    HW2 1930   1.342   3.077   0.071
  637SOL     OW 1931   0.297   1.897   0.171
  637SOL    HW1 1932   0.346   1.981   0.150
  637SOL    HW2 1933   0.359   1.832   0.216
  638SOL     OW 1934   0.935   2.098   0.480
  638SOL    HW1 1935   0.887   2.139   0.402
  638SOL    HW2 1936   1.034   2.096   0.461
  639SOL     OW 1937   1.076   2.545   1.464
  639SOL    HW1 1938   0.996   2.484   1.467
  639SOL    HW2 1939   1.157   2.492   1.440
  640SOL     OW 1940   1.227   3.432   0.793
  640SOL    HW1 1941   1.248   3.506   0.728
  640SOL    HW2 1942   1.295   3.432   0.866
  641SOL     OW 1943   0.459   3.014   0.741
  641SOL    HW1 1944   0.388   2.987   0.806
  641SOL    HW2 1945   0.433   2.986   0.648
  642SOL     OW 1946   1.271   3.659   0.591
  642SOL    HW1 1947   1.315   3.723   0.527
  642SOL    HW2 1948   1.221   3.711   0.661
  643SOL     OW 1949   1.032   2.411   0.016
  643SOL    HW1 1950   0.991   2.493  -0.023
  643SOL    HW2 1951   1.096   2.437   0.089
  644SOL     OW 1952   0.078   2.418   1.386
  644SOL    HW1 1953   0.170   2.417   1.345
  644SOL    HW2 1954   0.072   2.492   1.453
  645SOL     OW 1955   0.561   2.084   1.147
  645SOL    HW1 1956   0.599   2.000   1.184
  645SOL    HW2 1957   0.473   2.103   1.191
  646SOL     OW 1958   0.866   2.316   0.642
  646SOL    HW1 1959   0.834   2.388   0.580
  646SOL    HW2 1960   0.890   2.235   0.589
  647SOL     OW 1961   1.017   1.901   0.753
  647SOL    HW1 1962   0.945   1.906   0.684
  647SOL    HW2 1963   0.993   1.832   0.822
  648SOL     OW 1964   1.429   3.035   0.867
  648SOL    HW1 1965   1.374   2.951   0.860
  648SOL    HW2 1966   1.455   3.064   0.775
  649SOL     OW 1967   1.466   2.452   0.992
  649SOL    HW1 1968   1.436   2.357   0.999
  649SOL    HW2 1969   1.539   2.468   1.058
  650SOL     OW 1970   1.857   2.695   0.377
  650SOL    HW1 1971   1.899   2.631   0.441
  650SOL    HW2 1972   1.819   2.644   0.299
  651SOL     OW 1973   0.488   3.247   0.174
  651SOL    HW1 1974   0.401   3.232   0.221
  651SOL    HW2 1975   0.471   3.273   0.079
  652SOL     OW 1976   1.664   3.142   0.657
  652SOL    HW1 1977   1.763   3.150   0.671
  652SOL    HW2 1978   1.619   3.226   0.688
  653SOL     OW 1979   1.390   2.437   0.078
  653SOL    HW1 1980   1.336   2.416   0.159
  653SOL    HW2 1981   1.481   2.396   0.087
  654SOL     OW 1982   0.527   2.118   0.328
  654SOL    HW1 1983   0.554   2.059   0.253
  654SOL    HW2 1984   0.527   2.213   0.297
  655SOL     OW 1985   1.754   3.085   1.588
  655SOL    HW1 1986   1.845   3.046   1.575
  655SOL    HW2 1987   1.762   3.181   1.612
  656SOL     OW 1988   1.064   3.209   1.340
  656SOL    HW1 1989   0.984   3.186   1.395
  656SOL    HW2 1990   1.147   3.183   1.389
  657SOL     OW 1991   1.592   3.491   1.625
  657SOL    HW1 1992   1.619   3.525   1.535
  657SOL    HW2 1993   1.671   3.453   1.671
  658SOL     OW 1994   1.111   3.057   1.100
  658SOL    HW1 1995   1.071   3.101   1.181
  658SOL    HW2 1996   1.070   3.094   1.017
  659SOL     OW 1997   1.638   2.961   1.079
  659SOL    HW1 1998   1.643   3.042   1.138
  659SOL    HW2 1999   1.552   2.963   1.028
  660SOL     OW 2000   0.915   1.951   1.402
  660SOL    HW1 2001   0.940   1.931   1.307
  660SOL    HW2 2002   0.987   2.007   1.444
  661SOL     OW 2003   0.980   2.978   1.719
  661SOL    HW1 2004   0.881   2.984   1.729
  661SOL    HW2 2005   1.003   2.898   1.663
  662SOL     OW 2006   0.705   2.912   0.368
  662SOL    HW1 2007   0.691   2.919   0.467
  662SOL    HW2 2008   0.789   2.861   0.350
  663SOL     OW 2009   0.410   2.675   1.251
  663SOL    HW1 2010   0.496   2.687   1.301
  663SOL    HW2 2011   0.368   2.588   1.278
  664SOL     OW 2012   1.274   2.248   1.262
  664SOL    HW1 2013   1.295   2.322   1.326
  664SOL    HW2 2014   1.185   2.265   1.219
  665SOL     OW 2015   0.064   3.426   1.331
  665SOL    HW1 2016   0.018   3.508   1.297
  665SOL    HW2 2017   0.162   3.445   1.340
  666SOL     OW 2018   0.367   2.962   0.501
  666SOL    HW1 2019   0.360   3.045   0.445
  666SOL    HW2 2020   0.371   2.882   0.441
  667SOL     OW 2021   0.566   2.399   0.865
  667SOL    HW1 2022   0.578   2.465   0.791
  667SOL    HW2 2023   0.612   2.433   0.948
  668SOL     OW 2024   1.252   3.210   0.388
  668SOL    HW1 2025   1.302   3.287   0.428
  668SOL    HW2 2026   1.157   3.212   0.420
  669SOL     OW 2027   1.272   3.307   1.142
  669SOL    HW1 2028   1.319   3.320   1.229
  669SOL    HW2 2029   1.206   3.233   1.151
  670SOL     OW 2030   1.582   2.501   0.472
  670SOL    HW1 2031   1.551   2.562   0.545
  670SOL    HW2 2032   1.632   2.553   0.403
  671SOL     OW 2033   0.354   3.372   1.329
  671SOL    HW1 2034   0.333   3.328   1.242
  671SOL    HW2 2035   0.451   3.398   1.332
  672SOL     OW 2036   0.402   2.613   1.598
  672SOL    HW1 2037   0.470   2.668   1.551
  672SOL    HW2 2038   0.442   2.525   1.625
  673SOL     OW 2039   1.587   2.641   1.670
  673SOL    HW1 2040   1.495   2.679   1.665
  673SOL    HW2 2041   1.647   2.688   1.605
  674SOL     OW 2042   1.013   1.967   1.770
  674SOL    HW1 2043   1.019   2.052   1.718
  674SOL    HW2 2044   1.045   1.891   1.713
  675SOL     OW 2045   0.504   1.912   1.740
  675SOL    HW1 2046   0.462   1.855   1.670
  675SOL    HW2 2047   0.438   1.981   1.772
  676SOL     OW 2048   0.573   2.732   1.029
  676SOL    HW1 2049   0.617   2.821   1.020
  676SOL    HW2 2050   0.510   2.732   1.106
  677SOL     OW 2051   1.360   2.724   1.045
  677SOL    HW1 2052   1.285   2.724   0.979
  677SOL    HW2 2053   1.397   2.632   1.054
  678SOL     OW 2054   1.209   2.387   0.275
  678SOL    HW1 2055   1.222   2.303   0.329
  678SOL    HW2 2056   1.180   2.461   0.335
  679SOL     OW 2057   0.307   2.075   1.231
  679SOL    HW1 2058   0.284   2.112   1.321
  679SOL    HW2 2059   0.277   1.980   1.225
  680SOL     OW 2060   0.037   3.172   1.282
  680SOL    HW1 2061   0.090   3.123   1.350
  680SOL    HW2 2062   0.059   3.270   1.287
  681SOL     OW 2063   0.732   2.496   1.064
  681SOL    HW1 2064   0.791   2.470   0.988
  681SOL    HW2 2065   0.704   2.592   1.053
  682SOL     OW 2066   1.728   2.797   1.854
  682SOL    HW1 2067   1.682   2.790   1.765
  682SOL    HW2 2068   1.666   2.841   1.920
  683SOL     OW 2069   0.307   1.925   0.618
  683SOL    HW1 2070   0.296   2.019   0.651
  683SOL    HW2 2071   0.302   1.862   0.695
  684SOL     OW 2072   1.622   2.229   0.374
  684SOL    HW1 2073   1.624   2.153   0.438
  684SOL    HW2 2074   1.574   2.306   0.414
  685SOL     OW 2075   1.023   2.628   0.966
  685SOL    HW1 2076   1.038   2.649   1.062
  685SOL    HW2 2077   0.993   2.533   0.957
  686SOL     OW 2078   0.980   3.435   1.700
  686SOL    HW1 2079   0.960   3.479   1.612
  686SOL    HW2 2080   1.019   3.344   1.684
  687SOL     OW 2081   1.859   3.380   1.605
  687SOL    HW1 2082   1.873   3.407   1.510
  687SOL    HW2 2083   1.942   3.402   1.658
  688SOL     OW 2084   0.350   2.760   1.804
  688SOL    HW1 2085   0.426   2.804   1.852
  688SOL    HW2 2086   0.385   2.713   1.722
  689SOL     OW 2087   1.540   2.136   0.125
  689SOL    HW1 2088   1.479   2.061   0.148
  689SOL    HW2 2089   1.562   2.188   0.208
  690SOL     OW 2090   1.303   2.700   0.042
  690SOL    HW1 2091   1.337   2.607   0.057
  690SOL    HW2 2092   1.321   2.727  -0.053
  691SOL     OW 2093   1.068   3.195   0.849
  691SOL    HW1 2094   1.075   3.111   0.794
  691SOL    HW2 2095   1.130   3.264   0.813
  692SOL     OW 2096   0.319   2.672   0.949
  692SOL    HW1 2097   0.412   2.708   0.954
  692SOL    HW2 2098   0.313   2.587   1.001
  693SOL     OW 2099   0.339   2.371   1.006
  693SOL    HW1 2100   0.287   2.288   0.989
  693SOL    HW2 2101   0.416   2.376   0.942
  694SOL     OW 2102   1.138   2.242   1.678
  694SOL    HW1 2103   1.093   2.305   1.742
  694SOL    HW2 2104   1.231   2.273   1.661
  695SOL     OW 2105   1.160   2.069   1.477
  695SOL    HW1 2106   1.160   2.133   1.554
  695SOL    HW2 2107   1.188   2.117   1.394
  696SOL     OW 2108   0.008   3.188   0.200
  696SOL    HW1 2109  -0.085   3.209   0.169
  696SOL    HW2 2110   0.018   3.089   0.213
  697SOL     OW 2111   0.088   3.663   0.927
  697SOL    HW1 2112   0.046   3.577   0.900
  697SOL    HW2 2113   0.182   3.666   0.893
  698SOL     OW 2114   0.504   3.430   0.910
  698SOL    HW1 2115   0.570   3.504   0.919
  698SOL    HW2 2116   0.548   3.351   0.868
  699SOL     OW 2117   1.002   2.658   1.238
  699SOL    HW1 2118   1.043   2.626   1.324
  699SOL    HW2 2119   0.906   2.631   1.235
  700SOL     OW 2120   0.040   2.406   1.114
  700SOL    HW1 2121   0.125   2.373   1.073
  700SOL    HW2 2122   0.053   2.421   1.212
  701SOL     OW 2123   0.189   2.382   1.722
  701SOL    HW1 2124   0.248   2.342   1.652
  701SOL    HW2 2125   0.131   2.453   1.681
  702SOL     OW 2126   1.369   2.812   1.660
  702SOL    HW1 2127   1.408   2.901   1.680
  702SOL    HW2 2128   1.379   2.792   1.563
  703SOL     OW 2129   0.815   2.434   0.325
  703SOL    HW1 2130   0.822   2.345   0.279
  703SOL    HW2 2131   0.721   2.468   0.317
  704SOL     OW 2132   1.657   2.466   1.206
  704SOL    HW1 2133   1.619   2.397   1.268
  704SOL    HW2 2134   1.739   2.430   1.162
  705SOL     OW 2135   0.252   3.426   1.744
  705SOL    HW1 2136   0.222   3.483   1.820
  705SOL    HW2 2137   0.245   3.329   1.770
  706SOL     OW 2138   0.671   2.326   1.269
  706SOL    HW1 2139   0.637   2.237   1.239
  706SOL    HW2 2140   0.697   2.380   1.189
  707SOL     OW 2141   0.930   3.540   1.465
  707SOL    HW1 2142   0.906   3.522   1.370
  707SOL    HW2 2143   0.960   3.634   1.475
  708SOL     OW 2144   0.473   2.362   0.191
  708SOL    HW1 2145   0.534   2.442   0.195
  708SOL    HW2 2146   0.378   2.393   0.198
  709SOL     OW 2147   0.159   2.999   1.466
  709SOL    HW1 2148   0.181   2.938   1.542
  709SOL    HW2 2149   0.169   2.950   1.380
  710SOL     OW 2150   1.347   2.921   1.234
  710SOL    HW1 2151   1.371   2.858   1.160
  710SOL    HW2 2152   1.257   2.961   1.216
  711SOL     OW 2153   1.302   2.717   0.309
  711SOL    HW1 2154   1.216   2.686   0.351
  711SOL    HW2 2155   1.298   2.703   0.210
  712SOL     OW 2156   1.759   3.609   1.154
  712SOL    HW1 2157   1.820   3.639   1.081
  712SOL    HW2 2158   1.721   3.520   1.132
  713SOL     OW 2159   1.252   3.593   1.128
  713SOL    HW1 2160   1.336   3.598   1.074
  713SOL    HW2 2161   1.229   3.497   1.146
  714SOL     OW 2162   0.083   3.120   1.022
  714SOL    HW1 2163   0.078   3.119   1.122
  714SOL    HW2 2164   0.000   3.079   0.984
  715SOL     OW 2165   0.688   3.524   1.716
  715SOL    HW1 2166   0.632   3.605   1.725
  715SOL    HW2 2167   0.740   3.528   1.630
  716SOL     OW 2168   0.903   1.948   0.133
  716SOL    HW1 2169   0.954   1.949   0.047
  716SOL    HW2 2170   0.959   1.906   0.204
  717SOL     OW 2171   1.726   1.997   0.523
  717SOL    HW1 2172   1.799   1.980   0.456
  717SOL    HW2 2173   1.695   1.910   0.561
  718SOL     OW 2174   1.388   3.435   0.477
  718SOL    HW1 2175   1.455   3.447   0.403
  718SOL    HW2 2176   1.348   3.524   0.500
  719SOL     OW 2177   0.130   3.656   1.851
  719SOL    HW1 2178   0.089   3.582   1.904
  719SOL    HW2 2179   0.194   3.707   1.909
  720SOL     OW 2180   1.280   2.789   0.672
  720SOL    HW1 2181   1.340   2.708   0.674
  720SOL    HW2 2182   1.320   2.858   0.612
  721SOL     OW 2183   0.830   3.135   1.422
  721SOL    HW1 2184   0.825   3.168   1.517
  721SOL    HW2 2185   0.744   3.154   1.376
  722SOL     OW 2186   0.672   3.478   0.154
  722SOL    HW1 2187   0.681   3.488   0.055
  722SOL    HW2 2188   0.632   3.389   0.175
  723SOL     OW 2189   1.650   3.582   1.394
  723SOL    HW1 2190   1.703   3.592   1.310
  723SOL    HW2 2191   1.623   3.672   1.428
  724SOL     OW 2192   1.841   2.037   0.963
  724SOL    HW1 2193   1.880   1.952   0.927
  724SOL    HW2 2194   1.743   2.039   0.944
  725SOL     OW 2195   0.263   2.188   0.720
  725SOL    HW1 2196   0.184   2.239   0.686
  725SOL    HW2 2197   0.254   2.173   0.818
  726SOL     OW 2198   1.194   3.474   0.031
  726SOL    HW1 2199   1.200   3.381   0.068
  726SOL    HW2 2200   1.135   3.474  -0.049
  727SOL     OW 2201   0.822   2.864   1.372
  727SOL    HW1 2202   0.862   2.863   1.280
  727SOL    HW2 2203   0.832   2.956   1.412
  728SOL     OW 2204   0.916   2.772   0.291
  728SOL    HW1 2205   0.979   2.810   0.223
  728SOL    HW2 2206   0.956   2.689   0.330
  729SOL     OW 2207   1.504   3.469   0.044
  729SOL    HW1 2208   1.412   3.506   0.051
  729SOL    HW2 2209   1.542   3.489  -0.046
  730SOL     OW 2210   0.372   3.150   1.490
  730SOL    HW1 2211   0.359   3.243   1.456
  730SOL    HW2 2212   0.288   3.098   1.477
  731SOL     OW 2213   1.614   3.154   1.289
  731SOL    HW1 2214   1.674   3.157   1.369
  731SOL    HW2 2215   1.539   3.218   1.302
  732SOL     OW 2216   1.039   2.960   0.696
  732SOL    HW1 2217   0.969   2.913   0.750
  732SOL    HW2 2218   1.098   2.892   0.653
  733SOL     OW 2219   1.014   2.098   0.971
  733SOL    HW1 2220   1.006   2.062   0.878
  733SOL    HW2 2221   1.012   2.022   1.036
  734SOL     OW 2222   0.590   3.349   0.491
  734SOL    HW1 2223   0.632   3.291   0.421
  734SOL    HW2 2224   0.546   3.428   0.447
  735SOL     OW 2225   1.709   2.247   1.381
  735SOL    HW1 2226   1.782   2.316   1.385
  735SOL    HW2 2227   1.737   2.172   1.322
  736SOL     OW 2228   0.255   3.210   0.290
  736SOL    HW1 2229   0.159   3.211   0.263
  736SOL    HW2 2230   0.267   3.263   0.374
  737SOL     OW 2231   0.105   2.875   1.726
  737SOL    HW1 2232   0.028   2.842   1.780
  737SOL    HW2 2233   0.190   2.845   1.768
  738SOL     OW 2234   0.672   2.065   1.489
  738SOL    HW1 2235   0.762   2.049   1.449
  738SOL    HW2 2236   0.680   2.070   1.588
  739SOL     OW 2237   0.075   2.207   0.033
  739SOL    HW1 2238  -0.017   2.179   0.004
  739SOL    HW2 2239   0.106   2.284  -0.023
  740SOL     OW 2240   1.440   2.718   1.398
  740SOL    HW1 2241   1.383   2.770   1.335
  740SOL    HW2 2242   1.536   2.730   1.374
  741SOL     OW 2243   0.072   2.028   0.318
  741SOL    HW1 2244   0.055   2.111   0.264
  741SOL    HW2 2245   0.162   1.991   0.296
  742SOL     OW 2246   1.183   3.197   0.119
  742SOL    HW1 2247   1.084   3.186   0.121
  742SOL    HW2 2248   1.217   3.212   0.212
  743SOL     OW 2249   0.613   2.704   1.431
  743SOL    HW1 2250   0.669   2.785   1.414
  743SOL    HW2 2251   0.672   2.624   1.434
  744SOL     OW 2252   1.493   3.629   0.959
  744SOL    HW1 2253   1.526   3.693   0.890
  744SOL    HW2 2254   1.559   3.623   1.034
  745SOL     OW 2255   0.716   2.427   1.708
  745SOL    HW1 2256   0.735   2.492   1.782
  745SOL    HW2 2257   0.776   2.347   1.717
  746SOL     OW 2258   1.450   3.082   1.633
  746SOL    HW1 2259   1.441   3.072   1.732
  746SOL    HW2 2260   1.546   3.075   1.607
  747SOL     OW 2261   0.390   3.603   1.560
  747SOL    HW1 2262   0.299   3.644   1.558
  747SOL    HW2 2263   0.383   3.509   1.592
  748SOL     OW 2264   1.674   2.745   1.254
  748SOL    HW1 2265   1.647   2.656   1.217
  748SOL    HW2 2266   1.675   2.813   1.181
  749SOL     OW 2267   1.225   2.187   0.449
  749SOL    HW1 2268   1.290   2.113   0.438
  749SOL    HW2 2269   1.245   2.237   0.533
  750SOL     OW 2270   0.594   2.607   0.652
  750SOL    HW1 2271   0.644   2.692   0.633
  750SOL    HW2 2272   0.506   2.609   0.604
  751SOL     OW 2273   1.777   2.204   1.642
  751SOL    HW1 2274   1.760   2.235   1.548
  751SOL    HW2 2275   1.693   2.167   1.680
  752SOL     OW 2276   1.730   2.796   1.517
  752SOL    HW1 2277   1.768   2.887   1.532
  752SOL    HW2 2278   1.722   2.779   1.418
  753SOL     OW 2279   0.859   3.236   0.016
  753SOL    HW1 2280   0.813   3.251   0.104
  753SOL    HW2 2281   0.903   3.321  -0.014
  754SOL     OW 2282   0.661   3.652   0.953
  754SOL    HW1 2283   0.615   3.740   0.940
  754SOL    HW2 2284   0.760   3.664   0.946
  755SOL     OW 2285   0.859   2.818   0.861
  755SOL    HW1 2286   0.913   2.749   0.909
  755SOL    HW2 2287   0.827   2.887   0.927
  756SOL     OW 2288   1.083   2.846   0.087
  756SOL    HW1 2289   1.060   2.899   0.005
  756SOL    HW2 2290   1.164   2.790   0.068
  757SOL     OW 2291   1.861   3.431   0.851
  757SOL    HW1 2292   1.790   3.419   0.781
  757SOL    HW2 2293   1.862   3.352   0.911
  758SOL     OW 2294   0.221   3.176   1.844
  758SOL    HW1 2295   0.156   3.103   1.823
  758SOL    HW2 2296   0.225   3.190   1.942
  759SOL     OW 2297   0.079   3.102   0.653
  759SOL    HW1 2298   0.078   3.055   0.741
  759SOL    HW2 2299   0.161   3.074   0.602
  760SOL     OW 2300   0.672   3.253   1.624
  760SOL    HW1 2301   0.594   3.203   1.662
  760SOL    HW2 2302   0.669   3.348   1.655
  761SOL     OW 2303   1.824   2.054   1.227
  761SOL    HW1 2304   1.820   1.964   1.271
  761SOL    HW2 2305   1.827   2.043   1.128
  762SOL     OW 2306   0.428   2.286   0.520
  762SOL    HW1 2307   0.458   2.214   0.458
  762SOL    HW2 2308   0.389   2.246   0.603
  763SOL     OW 2309   1.705   3.349   1.104
  763SOL    HW1 2310   1.612   3.324   1.077
  763SOL    HW2 2311   1.731   3.299   1.186
  764SOL     OW 2312   0.317   2.409   1.280
  764SOL    HW1 2313   0.355   2.350   1.352
  764SOL    HW2 2314   0.357   2.383   1.192
  765SOL     OW 2315   0.812   3.448   0.687
  765SOL    HW1 2316   0.844   3.458   0.593
  765SOL    HW2 2317   0.733   3.386   0.689
  766SOL     OW 2318   1.424   2.076   1.112
  766SOL    HW1 2319   1.476   2.011   1.167
  766SOL    HW2 2320   1.375   2.139   1.173
  767SOL     OW 2321   1.001   1.896   1.154
  767SOL    HW1 2322   0.938   1.824   1.123
  767SOL    HW2 2323   1.094   1.860   1.154
  768SOL     OW 2324   0.770   3.192   0.301
  768SOL    HW1 2325   0.724   3.105   0.318
  768SOL    HW2 2326   0.861   3.189   0.342
  769SOL     OW 2327   0.618   3.429   1.284
  769SOL    HW1 2328   0.613   3.511   1.341
  769SOL    HW2 2329   0.707   3.426   1.239
  770SOL     OW 2330   1.352   1.914   0.168
  770SOL    HW1 2331   1.387   1.873   0.084
  770SOL    HW2 2332   1.262   1.876   0.188
  771SOL     OW 2333   1.300   2.315   0.691
  771SOL    HW1 2334   1.241   2.395   0.695
  771SOL    HW2 2335   1.315   2.280   0.784
  772SOL     OW 2336   1.593   2.083   0.882
  772SOL    HW1 2337   1.509   2.082   0.936
  772SOL    HW2 2338   1.595   2.166   0.826
  773SOL     OW 2339   0.039   2.939   0.300
  773SOL    HW1 2340   0.138   2.928   0.291
  773SOL    HW2 2341  -0.001   2.853   0.332
  774SOL     OW 2342   0.875   3.508   0.337
  774SOL    HW1 2343   0.798   3.473   0.283
  774SOL    HW2 2344   0.843   3.579   0.399
  775SOL     OW 2345   0.230   2.490   1.975
  775SOL    HW1 2346   0.137   2.488   2.012
  775SOL    HW2 2347   0.231   2.451   1.883
  776SOL     OW 2348   0.225   2.137   2.858
  776SOL    HW1 2349   0.260   2.120   2.950
  776SOL    HW2 2350   0.137   2.092   2.846
  777SOL     OW 2351   0.019   2.230   2.509
  777SOL    HW1 2352  -0.063   2.273   2.548
  777SOL    HW2 2353  -0.009   2.157   2.446
  778SOL     OW 2354   0.569   3.137   3.027
  778SOL    HW1 2355   0.476   3.130   2.990
  778SOL    HW2 2356   0.580   3.226   3.071
  779SOL     OW 2357   1.555   3.373   2.565
  779SOL    HW1 2358   1.498   3.357   2.646
  779SOL    HW2 2359   1.496   3.383   2.485
  780SOL     OW 2360   1.135   2.565   2.579
  780SOL    HW1 2361   1.192   2.643   2.554
  780SOL    HW2 2362   1.075   2.591   2.655
  781SOL     OW 2363   1.755   2.469   2.093
  781SOL    HW1 2364   1.743   2.456   1.994
  781SOL    HW2 2365   1.725   2.388   2.142
  782SOL     OW 2366   0.768   3.006   2.885
  782SOL    HW1 2367   0.690   3.023   2.945
  782SOL    HW2 2368   0.802   3.093   2.849
  783SOL     OW 2369   0.850   2.660   3.685
  783SOL    HW1 2370   0.846   2.736   3.750
  783SOL    HW2 2371   0.872   2.696   3.594
  784SOL     OW 2372   0.685   2.874   2.527
  784SOL    HW1 2373   0.754   2.858   2.597
  784SOL    HW2 2374   0.612   2.931   2.565
  785SOL     OW 2375   0.686   3.023   3.665
  785SOL    HW1 2376   0.746   3.102   3.679
  785SOL    HW2 2377   0.600   3.054   3.624
  786SOL     OW 2378   0.335   3.297   2.923
  786SOL    HW1 2379   0.257   3.266   2.870
  786SOL    HW2 2380   0.393   3.355   2.866
  787SOL     OW 2381   1.460   3.367   3.201
  787SOL    HW1 2382   1.484   3.461   3.227
  787SOL    HW2 2383   1.444   3.313   3.283
  788SOL     OW 2384   0.438   2.254   3.361
  788SOL    HW1 2385   0.520   2.198   3.370
  788SOL    HW2 2386   0.357   2.196   3.365
  789SOL     OW 2387   1.603   2.309   2.599
  789SOL    HW1 2388   1.529   2.355   2.549
  789SOL    HW2 2389   1.654   2.377   2.652
  790SOL     OW 2390   0.231   3.575   2.345
  790SOL    HW1 2391   0.265   3.652   2.399
  790SOL    HW2 2392   0.275   3.575   2.255
  791SOL     OW 2393   1.127   3.203   3.552
  791SOL    HW1 2394   1.174   3.203   3.640
  791SOL    HW2 2395   1.079   3.116   3.541
  792SOL     OW 2396   0.230   3.296   2.400
  792SOL    HW1 2397   0.204   3.392   2.400
  792SOL    HW2 2398   0.159   3.242   2.445
  793SOL     OW 2399   0.240   2.953   2.748
  793SOL    HW1 2400   0.254   2.869   2.800
  793SOL    HW2 2401   0.185   3.017   2.803
  794SOL     OW 2402   0.620   3.648   3.301
  794SOL    HW1 2403   0.528   3.631   3.336
  794SOL    HW2 2404   0.648   3.740   3.327
  795SOL     OW 2405   0.606   2.826   1.985
  795SOL    HW1 2406   0.613   2.910   1.931
  795SOL    HW2 2407   0.652   2.839   2.073
  796SOL     OW 2408   1.594   1.976   3.342
  796SOL    HW1 2409   1.576   2.043   3.270
  796SOL    HW2 2410   1.591   2.022   3.431
  797SOL     OW 2411   0.122   2.505   2.425
  797SOL    HW1 2412   0.077   2.417   2.442
  797SOL    HW2 2413   0.121   2.559   2.509
  798SOL     OW 2414   1.842   3.629   2.221
  798SOL    HW1 2415   1.896   3.600   2.301
  798SOL    HW2 2416   1.872   3.719   2.192
  799SOL     OW 2417   0.027   3.458   1.979
  799SOL    HW1 2418   0.008   3.362   2.000
  799SOL    HW2 2419  -0.006   3.516   2.054
  800SOL     OW 2420   1.689   2.784   2.474
  800SOL    HW1 2421   1.784   2.755   2.482
  800SOL    HW2 2422   1.681   2.849   2.399
  801SOL     OW 2423   1.641   2.970   2.294
  801SOL    HW1 2424   1.727   2.972   2.242
  801SOL    HW2 2425   1.655   3.017   2.382
  802SOL     OW 2426   0.113   2.599   3.459
  802SOL    HW1 2427   0.201   2.586   3.504
  802SOL    HW2 2428   0.100   2.696   3.437
  803SOL     OW 2429   0.613   3.227   2.588
  803SOL    HW1 2430   0.564   3.140   2.597
  803SOL    HW2 2431   0.590   3.270   2.501
  804SOL     OW 2432   1.293   3.090   3.285
  804SOL    HW1 2433   1.330   3.017   3.227
  804SOL    HW2 2434   1.345   3.095   3.370
  805SOL     OW 2435   0.809   1.866   2.364
  805SOL    HW1 2436   0.849   1.957   2.355
  805SOL    HW2 2437   0.709   1.874   2.370
  806SOL     OW 2438   0.197   2.838   3.126
  806SOL    HW1 2439   0.286   2.793   3.112
  806SOL    HW2 2440   0.124   2.773   3.107
  807SOL     OW 2441   1.525   2.861   2.052
  807SOL    HW1 2442   1.462   2.785   2.065
  807SOL    HW2 2443   1.573   2.879   2.138
  808SOL     OW 2444   1.187   3.654   3.478
  808SOL    HW1 2445   1.211   3.714   3.402
  808SOL    HW2 2446   1.194   3.559   3.448
  809SOL     OW 2447   0.317   2.113   3.663
  809SOL    HW1 2448   0.388   2.184   3.669
  809SOL    HW2 2449   0.229   2.152   3.691
  810SOL     OW 2450   1.466   3.279   2.815
  810SOL    HW1 2451   1.407   3.285   2.895
  810SOL    HW2 2452   1.451   3.191   2.769
  811SOL     OW 2453   1.667   3.576   2.434
  811SOL    HW1 2454   1.626   3.553   2.346
  811SOL    HW2 2455   1.649   3.502   2.499
  812SOL     OW 2456   0.598   2.591   2.132
  812SOL    HW1 2457   0.622   2.660   2.064
  812SOL    HW2 2458   0.520   2.624   2.186
  813SOL     OW 2459   1.281   2.207   2.806
  813SOL    HW1 2460   1.195   2.157   2.793
  813SOL    HW2 2461   1.343   2.153   2.862
  814SOL     OW 2462   1.576   3.524   2.169
  814SOL    HW1 2463   1.665   3.570   2.172
  814SOL    HW2 2464   1.555   3.500   2.074
  815SOL     OW 2465   0.807   2.467   3.327
  815SOL    HW1 2466   0.760   2.464   3.416
  815SOL    HW2 2467   0.756   2.412   3.261
  816SOL     OW 2468   1.394   2.331   3.536
  816SOL    HW1 2469   1.374   2.374   3.624
  816SOL    HW2 2470   1.472   2.269   3.545
  817SOL     OW 2471   0.973   2.752   3.434
  817SOL    HW1 2472   1.019   2.668   3.405
  817SOL    HW2 2473   0.917   2.786   3.359
  818SOL     OW 2474   0.991   2.272   3.104
  818SOL    HW1 2475   0.914   2.306   3.158
  818SOL    HW2 2476   0.957   2.221   3.025
  819SOL     OW 2477   1.041   2.563   2.291
  819SOL    HW1 2478   1.067   2.559   2.387
  819SOL    HW2 2479   0.956   2.512   2.277
  820SOL     OW 2480   0.076   2.673   2.651
  820SOL    HW1 2481   0.175   2.661   2.660
  820SOL    HW2 2482   0.052   2.768   2.672
  821SOL     OW 2483   0.130   3.683   3.433
  821SOL    HW1 2484   0.120   3.668   3.532
  821SOL    HW2 2485   0.044   3.719   3.397
  822SOL     OW 2486   0.865   2.210   2.057
  822SOL    HW1 2487   0.924   2.273   2.008
  822SOL    HW2 2488   0.884   2.116   2.028
  823SOL     OW 2489   1.719   2.447   3.693
  823SOL    HW1 2490   1.693   2.536   3.657
  823SOL    HW2 2491   1.717   2.379   3.620
  824SOL     OW 2492   1.362   3.006   2.407
  824SOL    HW1 2493   1.445   2.977   2.359
  824SOL    HW2 2494   1.313   3.073   2.351
  825SOL     OW 2495   0.550   2.058   2.747
  825SOL    HW1 2496   0.545   2.053   2.847
  825SOL    HW2 2497   0.552   2.154   2.718
  826SOL     OW 2498   1.008   3.318   2.339
  826SOL    HW1 2499   0.962   3.390   2.287
  826SOL    HW2 2500   1.004   3.338   2.437
  827SOL     OW 2501   0.351   3.663   2.715
  827SOL    HW1 2502   0.401   3.577   2.721
  827SOL    HW2 2503   0.416   3.740   2.712
  828SOL     OW 2504   1.795   2.928   2.735
  828SOL    HW1 2505   1.733   2.913   2.659
  828SOL    HW2 2506   1.743   2.939   2.820
  829SOL     OW 2507   1.227   3.412   3.368
  829SOL    HW1 2508   1.233   3.335   3.432
  829SOL    HW2 2509   1.175   3.386   3.288
  830SOL     OW 2510   0.321   2.805   2.104
  830SOL    HW1 2511   0.403   2.844   2.062
  830SOL    HW2 2512   0.294   2.723   2.055
  831SOL     OW 2513   1.458   2.597   2.590
  831SOL    HW1 2514   1.453   2.532   2.665
  831SOL    HW2 2515   1.538   2.656   2.603
  832SOL     OW 2516   0.461   3.128   3.589
  832SOL    HW1 2517   0.411   3.129   3.503
  832SOL    HW2 2518   0.398   3.110   3.665
  833SOL     OW 2519   1.111   3.638   2.099
  833SOL    HW1 2520   1.051   3.576   2.149
  833SOL    HW2 2521   1.142   3.594   2.014
  834SOL     OW 2522   0.202   2.147   3.360
  834SOL    HW1 2523   0.122   2.207   3.347
  834SOL    HW2 2524   0.192   2.098   3.446
  835SOL     OW 2525   1.632   3.239   1.943
  835SOL    HW1 2526   1.600   3.333   1.933
  835SOL    HW2 2527   1.556   3.176   1.931
  836SOL     OW 2528   0.464   3.605   2.185
  836SOL    HW1 2529   0.497   3.644   2.271
  836SOL    HW2 2530   0.540   3.598   2.120
  837SOL     OW 2531   1.400   1.969   2.288
  837SOL    HW1 2532   1.376   1.932   2.198
  837SOL    HW2 2533   1.499   1.985   2.292
  838SOL     OW 2534   0.249   3.647   3.103
  838SOL    HW1 2535   0.306   3.582   3.153
  838SOL    HW2 2536   0.233   3.614   3.010
  839SOL     OW 2537   0.940   3.560   2.766
  839SOL    HW1 2538   1.020   3.503   2.787
  839SOL    HW2 2539   0.891   3.520   2.689
  840SOL     OW 2540   0.382   2.562   2.342
  840SOL    HW1 2541   0.427   2.472   2.339
  840SOL    HW2 2542   0.288   2.551   2.375
  841SOL     OW 2543   1.547   2.084   3.591
  841SOL    HW1 2544   1.542   2.121   3.683
  841SOL    HW2 2545   1.475   2.015   3.579
  842SOL     OW 2546   0.614   1.984   1.979
  842SOL    HW1 2547   0.712   1.962   1.986
  842SOL    HW2 2548   0.583   1.967   1.886
  843SOL     OW 2549   0.781   2.126   3.611
  843SOL    HW1 2550   0.848   2.065   3.654
  843SOL    HW2 2551   0.708   2.145   3.676
  844SOL     OW 2552   0.888   3.376   3.057
  844SOL    HW1 2553   0.865   3.351   2.963
  844SOL    HW2 2554   0.949   3.307   3.096
  845SOL     OW 2555   1.351   2.452   3.295
  845SOL    HW1 2556   1.379   2.409   3.380
  845SOL    HW2 2557   1.376   2.548   3.296
  846SOL     OW 2558   0.803   3.264   2.786
  846SOL    HW1 2559   0.893   3.278   2.744
  846SOL    HW2 2560   0.732   3.266   2.715
  847SOL     OW 2561   0.922   2.365   2.761
  847SOL    HW1 2562   0.897   2.356   2.665
  847SOL    HW2 2563   0.970   2.283   2.792
  848SOL     OW 2564   0.539   1.926   2.374
  848SOL    HW1 2565   0.458   1.927   2.432
  848SOL    HW2 2566   0.542   2.009   2.319
  849SOL     OW 2567   1.434   3.050   1.903
  849SOL    HW1 2568   1.466   2.974   1.960
  849SOL    HW2 2569   1.342   3.077   1.933
  850SOL     OW 2570   0.297   1.897   2.033
  850SOL    HW1 2571   0.346   1.981   2.012
  850SOL    HW2 2572   0.359   1.832   2.078
  851SOL     OW 2573   0.935   2.098   2.342
  851SOL    HW1 2574   0.887   2.139   2.264
  851SOL    HW2 2575   1.034   2.096   2.323
  852SOL     OW 2576   1.076   2.545   3.326
  852SOL    HW1 2577   0.996   2.484   3.329
  852SOL    HW2 2578   1.157   2.492   3.302
  853SOL     OW 2579   1.227   3.432   2.655
  853SOL    HW1 2580   1.248   3.506   2.590
  853SOL    HW2 2581   1.295   3.432   2.728
  854SOL     OW 2582   0.459   3.014   2.603
  854SOL    HW1 2583   0.388   2.987   2.668
  854SOL    HW2 2584   0.433   2.986   2.510
  855SOL     OW 2585   1.271   3.659   2.453
  855SOL    HW1 2586   1.315   3.723   2.389
  855SOL    HW2 2587   1.221   3.711   2.523
  856SOL     OW 2588   1.032   2.411   1.878
  856SOL    HW1 2589   0.991   2.493   1.839
  856SOL    HW2 2590   1.096   2.437   1.951
  857SOL     OW 2591   0.078   2.418   3.248
  857SOL    HW1 2592   0.170   2.417   3.207
  857SOL    HW2 2593   0.072   2.492   3.315
  858SOL     OW 2594   0.561   2.084   3.009
  858SOL    HW1 2595   0.599   2.000   3.046
  858SOL    HW2 2596   0.473   2.103   3.053
  859SOL     OW 2597   0.866   2.316   2.504
  859SOL    HW1 2598   0.834   2.388   2.442
  859SOL    HW2 2599   0.890   2.235   2.451
  860SOL     OW 2600   1.017   1.901   2.615
  860SOL    HW1 2601   0.945   1.906   2.546
  860SOL    HW2 2602   0.993   1.832   2.684
  861SOL     OW 2603   1.429   3.035   2.729
  861SOL    HW1 2604   1.374   2.951   2.722
  861SOL    HW2 2605   1.455   3.064   2.637
  862SOL     OW 2606   1.466   2.452   2.854
  862SOL    HW1 2607   1.436   2.357   2.861
  862SOL    HW2 2608   1.539   2.468   2.920
  863SOL     OW 2609   1.857   2.695   2.239
  863SOL    HW1 2610   1.899   2.631   2.303
  863SOL    HW2 2611   1.819   2.644   2.161
  864SOL     OW 2612   0.488   3.247   2.036
  864SOL    HW1 2613   0.401   3.232   2.083
  864SOL    HW2 2614   0.471   3.273   1.941
  865SOL     OW 2615   1.664   3.142   2.519
  865SOL    HW1 2616   1.763   3.150   2.533
  865SOL    HW2 2617   1.619   3.226   2.550
  866SOL     OW 2618   1.390   2.437   1.940
  866SOL    HW1 2619   1.336   2.416   2.021
  866SOL    HW2 2620   1.481   2.396   1.949
  867SOL     OW 2621   0.527   2.118   2.190
  867SOL    HW1 2622   0.554   2.059   2.115
  867SOL    HW2 2623   0.527   2.213   2.159
  868SOL     OW 2624   1.754   3.085   3.450
  868SOL    HW1 2625   1.845   3.046   3.437
  868SOL    HW2 2626   1.762   3.181   3.474
  869SOL     OW 2627   1.064   3.209   3.202
  869SOL    HW1 2628   0.984   3.186   3.257
  869SOL    HW2 2629   1.147   3.183   3.251
  870SOL     OW 2630   1.592   3.491   3.487
  870SOL    HW1 2631   1.619   3.525   3.397
  870SOL    HW2 2632   1.671   3.453   3.533
  871SOL     OW 2633   1.111   3.057   2.962
  871SOL    HW1 2634   1.071   3.101   3.043
  871SOL    HW2 2635   1.070   3.094   2.879
  872SOL     OW 2636   1.638   2.961   2.941
  872SOL    HW1 2637   1.643   3.042   3.000
  872SOL    HW2 2638   1.552   2.963   2.890
  873SOL     OW 2639   0.915   1.951   3.264
  873SOL    HW1 2640   0.940   1.931   3.169
  873SOL    HW2 2641   0.987   2.007   3.306
  874SOL     OW 2642   0.980   2.978   3.581
  874SOL    HW1 2643   0.881   2.984   3.591
  874SOL    HW2 2644   1.003   2.898   3.525
  875SOL     OW 2645   0.705   2.912   2.230
  875SOL    HW1 2646   0.691   2.919   2.329
  875SOL    HW2 2647   0.789   2.861   2.212
  876SOL     OW 2648   0.410   2.675   3.113
  876SOL    HW1 2649   0.496   2.687   3.163
  876SOL    HW2 2650   0.368   2.588   3.140
  877SOL     OW 2651   1.274   2.248   3.124
  877SOL    HW1 2652   1.295   2.322   3.188
  877SOL    HW2 2653   1.185   2.265   3.081
  878SOL     OW 2654   0.064   3.426   3.193
  878SOL    HW1 2655   0.018   3.508   3.159
  878SOL    HW2 2656   0.162   3.445   3.202
  879SOL     OW 2657   0.367   2.962   2.363
  879SOL    HW1 2658   0.360   3.045   2.307
  879SOL    HW2 2659   0.371   2.882   2.303
  880SOL     OW 2660   0.566   2.399   2.727
  880SOL    HW1 2661   0.578   2.465   2.653
  880SOL    HW2 2662   0.612   2.433   2.810
  881SOL     OW 2663   1.252   3.210   2.250
  881SOL    HW1 2664   1.302   3.287   2.290
  881SOL    HW2 2665   1.157   3.212   2.282
  882SOL     OW 2666   1.272   3.307   3.004
  882SOL    HW1 2667   1.319   3.320   3.091
  882SOL    HW2 2668   1.206   3.233   3.013
  883SOL     OW 2669   1.582   2.501   2.334
  883SOL    HW1 2670   1.551   2.562   2.407
  883SOL    HW2 2671   1.632   2.553   2.265
  884SOL     OW 2672   0.354   3.372   3.191
  884SOL    HW1 2673   0.333   3.328   3.104
  884SOL    HW2 2674   0.451   3.398   3.194
  885SOL     OW 2675   0.402   2.613   3.460
  885SOL    HW1 2676   0.470   2.668   3.413
  885SOL    HW2 2677   0.442   2.525   3.487
  886SOL     OW 2678   1.587   2.641   3.532
  886SOL    HW1 2679   1.495   2.679   3.527
  886SOL    HW2 2680   1.647   2.688   3.467
  887SOL     OW 2681   1.013   1.967   3.632
  887SOL    HW1 2682   1.019   2.052   3.580
  887SOL    HW2 2683   1.045   1.891   3.575
  888SOL     OW 2684   0.504   1.912   3.602
  888SOL    HW1 2685   0.462   1.855   3.532
  888SOL    HW2 2686   0.438   1.981   3.634
  889SOL     OW 2687   0.573   2.732   2.891
  889SOL    HW1 2688   0.617   2.821   2.882
  889SOL    HW2 2689   0.510   2.732   2.968
  890SOL     OW 2690   1.360   2.724   2.907
  890SOL    HW1 2691   1.285   2.724   2.841
  890SOL    HW2 2692   1.397   2.632   2.916
  891SOL     OW 2693   1.209   2.387   2.137
  891SOL    HW1 2694   1.222   2.303   2.191
  891SOL    HW2 2695   1.180   2.461   2.197
  892SOL     OW 2696   0.307   2.075   3.093
  892SOL    HW1 2697   0.284   2.112   3.183
  892SOL    HW2 2698   0.277   1.980   3.087
  893SOL     OW 2699   0.037   3.172   3.144
  893SOL    HW1 2700   0.090   3.123   3.212
  893SOL    HW2 2701   0.059   3.270   3.149
  894SOL     OW 2702   0.732   2.496   2.926
  894SOL    HW1 2703   0.791   2.470   2.850
  894SOL    HW2 2704   0.704   2.592   2.915
  895SOL     OW 2705   1.728   2.797   3.716
  895SOL    HW1 2706   1.682   2.790   3.627
  895SOL    HW2 2707   1.666   2.841   3.782
  896SOL     OW 2708   0.307   1.925   2.480
  896SOL    HW1 2709   0.296   2.019   2.513
  896SOL    HW2 2710   0.302   1.862   2.557
  897SOL     OW 2711   1.622   2.229   2.236
  897SOL    HW1 2712   1.624   2.153   2.300
  897SOL    HW2 2713   1.574   2.306   2.276
  898SOL     OW 2714   1.023   2.628   2.828
  898SOL    HW1 2715   1.038   2.649   2.924
  898SOL    HW2 2716   0.993   2.533   2.819
  899SOL     OW 2717   0.980   3.435   3.562
  899SOL    HW1 2718   0.960   3.479   3.474
  899SOL    HW2 2719   1.019   3.344   3.546
  900SOL     OW 2720   1.859   3.380   3.467
  900SOL    HW1 2721   1.873   3.407   3.372
  900SOL    HW2 2722   1.942   3.402   3.520
  901SOL     OW 2723   0.350   2.760   3.666
  901SOL    HW1 2724   0.426   2.804   3.714
  901SOL    HW2 2725   0.385   2.713   3.584
  902SOL     OW 2726   1.540   2.136   1.987
  902SOL    HW1 2727   1.479   2.061   2.010
  902SOL    HW2 2728   1.562   2.188   2.070
  903SOL     OW 2729   1.303   2.700   1.904
  903SOL    HW1 2730   1.337   2.607   1.919
  903SOL    HW2 2731   1.321   2.727   1.809
  904SOL     OW 2732   1.068   3.195   2.711
  904SOL    HW1 2733   1.075   3.111   2.656
  904SOL    HW2 2734   1.130   3.264   2.675
  905SOL     OW 2735   0.319   2.672   2.811
  905SOL    HW1 2736   0.412   2.708   2.816
  905SOL    HW2 2737   0.313   2.587   2.863
  906SOL     OW 2738   0.339   2.371   2.868
  906SOL    HW1 2739   0.287   2.288   2.851
  906SOL    HW2 2740   0.416   2.376   2.804
  907SOL     OW 2741   1.138   2.242   3.540
  907SOL    HW1 2742   1.093   2.305   3.604
  907SOL    HW2 2743   1.231   2.273   3.523
  908SOL     OW 2744   1.160   2.069   3.339
  908SOL    HW1 2745   1.160   2.133   3.416
  908SOL    HW2 2746   1.188   2.117   3.256
  909SOL     OW 2747   0.008   3.188   2.062
  909SOL    HW1 2748  -0.085   3.209   2.031
  909SOL    HW2 2749   0.018   3.089   2.075
  910SOL     OW 2750   0.088   3.663   2.789
  910SOL    HW1 2751   0.046   3.577   2.762
  910SOL    HW2 2752   0.182   3.666   2.755
  911SOL     OW 2753   0.504   3.430   2.772
  911SOL    HW1 2754   0.570   3.504   2.781
  911SOL    HW2 2755   0.548   3.351   2.730
  912SOL     OW 2756   1.002   2.658   3.100
  912SOL    HW1 2757   1.043   2.626   3.186
  912SOL    HW2 2758   0.906   2.631   3.097
  913SOL     OW 2759   0.040   2.406   2.976
  913SOL    HW1 2760   0.125   2.373   2.935
  913SOL    HW2 2761   0.053   2.421   3.074
  914SOL     OW 2762   0.189   2.382   3.584
  914SOL    HW1 2763   0.248   2.342   3.514
  914SOL    HW2 2764   0.131   2.453   3.543
  915SOL     OW 2765   1.369   2.812   3.522
  915SOL    HW1 2766   1.408   2.901   3.542
  915SOL    HW2 2767   1.379   2.792   3.425
  916SOL     OW 2768   0.815   2.434   2.187
  916SOL    HW1 2769   0.822   2.345   2.141
  916SOL    HW2 2770   0.721   2.468   2.179
  917SOL     OW 2771   1.657   2.466   3.068
  917SOL    HW1 2772   1.619   2.397   3.130
  917SOL    HW2 2773   1.739   2.430   3.024
  918SOL     OW 2774   0.252   3.426   3.606
  918SOL    HW1 2775   0.222   3.483   3.682
  918SOL    HW2 2776   0.245   3.329   3.632
  919SOL     OW 2777   0.671   2.326   3.131
  919SOL    HW1 2778   0.637   2.237   3.101
  919SOL    HW2 2779   0.697   2.380   3.051
  920SOL     OW 2780   0.930   3.540   3.327
  920SOL    HW1 2781   0.906   3.522   3.232
  920SOL    HW2 2782   0.960   3.634   3.337
  921SOL     OW 2783   0.473   2.362   2.053
  921SOL    HW1 2784   0.534   2.442   2.057
  921SOL    HW2 2785   0.378   2.393   2.060
  922SOL     OW 2786   0.159   2.999   3.328
  922SOL    HW1 2787   0.181   2.938   3.404
  922SOL    HW2 2788   0.169   2.950   3.242
  923SOL     OW 2789   1.347   2.921   3.096
  923SOL    HW1 2790   1.371   2.858   3.022
  923SOL    HW2 2791   1.257   2.961   3.078
  924SOL     OW 2792   1.302   2.717   2.171
  924SOL    HW1 2793   1.216   2.686   2.213
  924SOL    HW2 2794   1.298   2.703   2.072
  925SOL     OW 2795   1.759   3.609   3.016
  925SOL    HW1 2796   1.820   3.639   2.943
  925SOL    HW2 2797   1.721   3.520   2.994
  926SOL     OW 2798   1.252   3.593   2.990
  926SOL    HW1 2799   1.336   3.598   2.936
  926SOL    HW2 2800   1.229   3.497   3.008
  927SOL     OW 2801   0.083   3.120   2.884
  927SOL    HW1 2802   0.078   3.119   2.984
  927SOL    HW2 2803   0.000   3.079   2.846
  928SOL     OW 2804   0.688   3.524   3.578
  928SOL    HW1 2805   0.632   3.605   3.587
  928SOL    HW2 2806   0.740   3.528   3.492
  929SOL     OW 2807   1.726   1.997   2.385
  929SOL    HW1 2808   1.799   1.980   2.318
  929SOL    HW2 2809   1.695   1.910   2.423
  930SOL     OW 2810   1.388   3.435   2.339
  930SOL    HW1 2811   1.455   3.447   2.265
  930SOL    HW2 2812   1.348   3.524   2.362
  931SOL     OW 2813   0.130   3.656   3.713
  931SOL    HW1 2814   0.089   3.582   3.766
  931SOL    HW2 2815   0.194   3.707   3.771
  932SOL     OW 2816   1.280   2.789   2.534
  932SOL    HW1 2817   1.340   2.708   2.536
  932SOL    HW2 2818   1.320   2.858   2.474
  933SOL     OW 2819   0.830   3.135   3.284
  933SOL    HW1 2820   0.825   3.168   3.379
  933SOL    HW2 2821   0.744   3.154   3.238
  934SOL     OW 2822   0.672   3.478   2.016
  934SOL    HW1 2823   0.681   3.488   1.917
  934SOL    HW2 2824   0.632   3.389   2.037
  935SOL     OW 2825   1.650   3.582   3.256
  935SOL    HW1 2826   1.703   3.592   3.172
  935SOL    HW2 2827   1.623   3.672   3.290
  936SOL     OW 2828   1.841   2.037   2.825
  936SOL    HW1 2829   1.880   1.952   2.789
  936SOL    HW2 2830   1.743   2.039   2.806
  937SOL     OW 2831   0.263   2.188   2.582
  937SOL    HW1 2832   0.184   2.239   2.548
  937SOL    HW2 2833   0.254   2.173   2.680
  938SOL     OW 2834   1.194   3.474   1.893
  938SOL    HW1 2835   1.200   3.381   1.930
  938SOL    HW2 2836   1.135   3.474   1.813
  939SOL     OW 2837   0.822   2.864   3.234
  939SOL    HW1 2838   0.862   2.863   3.142
  939SOL    HW2 2839   0.832   2.956   3.274
  940SOL     OW 2840   0.916   2.772   2.153
  940SOL    HW1 2841   0.979   2.810   2.085
  940SOL    HW2 2842   0.956   2.689   2.192
  941SOL     OW 2843   1.504   3.469   1.906
  941SOL    HW1 2844   1.412   3.506   1.913
  941SOL    HW2 2845   1.542   3.489   1.816
  942SOL     OW 2846   0.372   3.150   3.352
  942SOL    HW1 2847   0.359   3.243   3.318
  942SOL    HW2 2848   0.288   3.098   3.339
  943SOL     OW 2849   1.614   3.154   3.151
  943SOL    HW1 2850   1.674   3.157   3.231
  943SOL    HW2 2851   1.539   3.218   3.164
  944SOL     OW 2852   1.039   2.960   2.558
  944SOL    HW1 2853   0.969   2.913   2.612
  944SOL    HW2 2854   1.098   2.892   2.515
  945SOL     OW 2855   1.014   2.098   2.833
  945SOL    HW1 2856   1.006   2.062   2.740
  945SOL    HW2 2857   1.012   2.022   2.898
  946SOL     OW 2858   0.590   3.349   2.353
  946SOL    HW1 2859   0.632   3.291   2.283
  946SOL    HW2 2860   0.546   3.428   2.309
  947SOL     OW 2861   1.709   2.247   3.243
  947SOL    HW1 2862   1.782   2.316   3.247
  947SOL    HW2 2863   1.737   2.172   3.184
  948SOL     OW 2864   0.255   3.210   2.152
  948SOL    HW1 2865   0.159   3.211   2.125
  948SOL    HW2 2866   0.267   3.263   2.236
  949SOL     OW 2867   0.105   2.875   3.588
  949SOL    HW1 2868   0.028   2.842   3.642
  949SOL    HW2 2869   0.190   2.845   3.630
  950SOL     OW 2870   0.672   2.065   3.351
  950SOL    HW1 2871   0.762   2.049   3.311
  950SOL    HW2 2872   0.680   2.070   3.450
  951SOL     OW 2873   0.075   2.207   1.895
  951SOL    HW1 2874  -0.017   2.179   1.866
  951SOL    HW2 2875   0.106   2.284   1.839
  952SOL     OW 2876   1.440   2.718   3.260
  952SOL    HW1 2877   1.383   2.770   3.197
  952SOL    HW2 2878   1.536   2.730   3.236
  953SOL     OW 2879   0.072   2.028   2.180
  953SOL    HW1 2880   0.055   2.111   2.126
  953SOL    HW2 2881   0.162   1.991   2.158
  954SOL     OW 2882   1.183   3.197   1.981
  954SOL    HW1 2883   1.084   3.186   1.983
  954SOL    HW2 2884   1.217   3.212   2.074
  955SOL     OW 2885   0.613   2.704   3.293
  955SOL    HW1 2886   0.669   2.785   3.276
  955SOL    HW2 2887   0.672   2.624   3.296
  956SOL     OW 2888   1.493   3.629   2.821
  956SOL    HW1 2889   1.526   3.693   2.752
  956SOL    HW2 2890   1.559   3.623   2.896
  957SOL     OW 2891   0.716   2.427   3.570
  957SOL    HW1 2892   0.735   2.492   3.644
  957SOL    HW2 2893   0.776   2.347   3.579
  958SOL     OW 2894   1.450   3.082   3.495
  958SOL    HW1 2895   1.441   3.072   3.594
  958SOL    HW2 2896   1.546   3.075   3.469
  959SOL     OW 2897   0.390   3.603   3.422
  959SOL    HW1 2898   0.299   3.644   3.420
  959SOL    HW2 2899   0.383   3.509   3.454
  960SOL     OW 2900   1.674   2.745   3.116
  960SOL    HW1 2901   1.647   2.656   3.079
  960SOL    HW2 2902   1.675   2.813   3.043
  961SOL     OW 2903   1.225   2.187   2.311
  961SOL    HW1 2904   1.290   2.113   2.300
  961SOL    HW2 2905   1.245   2.237   2.395
  962SOL     OW 2906   0.594   2.607   2.514
  962SOL    HW1 2907   0.644   2.692   2.495
  962SOL    HW2 2908   0.506   2.609   2.466
  963SOL     OW 2909   1.777   2.204   3.504
  963SOL    HW1 2910   1.760   2.235   3.410
  963SOL    HW2 2911   1.693   2.167   3.542
  964SOL     OW 2912   1.730   2.796   3.379
  964SOL    HW1 2913   1.768   2.887   3.394
  964SOL    HW2 2914   1.722   2.779   3.280
  965SOL     OW 2915   0.859   3.236   1.878
  965SOL    HW1 2916   0.813   3.251   1.966
  965SOL    HW2 2917   0.903   3.321   1.848
  966SOL     OW 2918   0.661   3.652   2.815
  966SOL    HW1 2919   0.615   3.740   2.802
  966SOL    HW2 2920   0.760   3.664   2.808
  967SOL     OW 2921   0.859   2.818   2.723
  967SOL    HW1 2922   0.913   2.749   2.771
  967SOL    HW2 2923   0.827   2.887   2.789
  968SOL     OW 2924   1.083   2.846   1.949
  968SOL    HW1 2925   1.060   2.899   1.867
  968SOL    HW2 2926   1.164   2.790   1.930
  969SOL     OW 2927   1.861   3.431   2.713
  969SOL    HW1 2928   1.790   3.419   2.643
  969SOL    HW2 2929   1.862   3.352   2.773
  970SOL     OW 2930   0.221   3.176   3.706
  970SOL    HW1 2931   0.156   3.103   3.685
  970SOL    HW2 2932   0.225   3.190   3.804
  971SOL     OW 2933   0.079   3.102   2.515
  971SOL    HW1 2934   0.078   3.055   2.603
  971SOL    HW2 2935   0.161   3.074   2.464
  972SOL     OW 2936   0.672   3.253   3.486
  972SOL    HW1 2937   0.594   3.203   3.524
  972SOL    HW2 2938   0.669   3.348   3.517
  973SOL     OW 2939   1.824   2.054   3.089
  973SOL    HW1 2940   1.820   1.964   3.133
  973SOL    HW2 2941   1.827   2.043   2.990
  974SOL     OW 2942   0.428   2.286   2.382
  974SOL    HW1 2943   0.458   2.214   2.320
  974SOL    HW2 2944   0.389   2.246   2.465
  975SOL     OW 2945   1.705   3.349   2.966
  975SOL    HW1 2946   1.612   3.324   2.939
  975SOL    HW2 2947   1.731   3.299   3.048
  976SOL     OW 2948   0.317   2.409   3.142
  976SOL    HW1 2949   0.355   2.350   3.214
  976SOL    HW2 2950   0.357   2.383   3.054
  977SOL     OW 2951   0.812   3.448   2.549
  977SOL    HW1 2952   0.844   3.458   2.455
  977SOL    HW2 2953   0.733   3.386   2.551
  978SOL     OW 2954   1.424   2.076   2.974
  978SOL    HW1 2955   1.476   2.011   3.029
  978SOL    HW2 2956   1.375   2.139   3.035
  979SOL     OW 2957   1.001   1.896   3.016
  979SOL    HW1 2958   0.938   1.824   2.985
  979SOL    HW2 2959   1.094   1.860   3.016
  980SOL     OW 2960   0.770   3.192   2.163
  980SOL    HW1 2961   0.724   3.105   2.180
  980SOL    HW2 2962   0.861   3.189   2.204
  981SOL     OW 2963   0.618   3.429   3.146
  981SOL    HW1 2964   0.613   3.511   3.203
  981SOL    HW2 2965   0.707   3.426   3.101
  982SOL     OW 2966   1.352   1.914   2.030
  982SOL    HW1 2967   1.387   1.873   1.946
  982SOL    HW2 2968   1.262   1.876   2.050
  983SOL     OW 2969   1.300   2.315   2.553
  983SOL    HW1 2970   1.241   2.395   2.557
  983SOL    HW2 2971   1.315   2.280   2.646
  984SOL     OW 2972   1.593   2.083   2.744
  984SOL    HW1 2973   1.509   2.082   2.798
  984SOL    HW2 2974   1.595   2.166   2.688
  985SOL     OW 2975   0.039   2.939   2.162
  985SOL    HW1 2976   0.138   2.928   2.153
  985SOL    HW2 2977  -0.001   2.853   2.194
  986SOL     OW 2978   0.875   3.508   2.199
  986SOL    HW1 2979   0.798   3.473   2.145
  986SOL    HW2 2980   0.843   3.579   2.261
  987SOL     OW 2981   0.230   2.490   3.837
  987SOL    HW1 2982   0.137   2.488   3.874
  987SOL    HW2 2983   0.231   2.451   3.745
  988SOL     OW 2984   0.225   2.137   4.720
  988SOL    HW1 2985   0.260   2.120   4.812
  988SOL    HW2 2986   0.137   2.092   4.708
  989SOL     OW 2987   0.019   2.230   4.371
  989SOL    HW1 2988  -0.063   2.273   4.410
  989SOL    HW2 2989  -0.009   2.157   4.308
  990SOL     OW 2990   0.569   3.137   4.889
  990SOL    HW1 2991   0.476   3.130   4.852
  990SOL    HW2 2992   0.580   3.226   4.933
  991SOL     OW 2993   1.555   3.373   4.427
  991SOL    HW1 2994   1.498   3.357   4.508
  991SOL    HW2 2995   1.496   3.383   4.347
  992SOL     OW 2996   1.135   2.565   4.441
  992SOL    HW1 2997   1.192   2.643   4.416
  992SOL    HW2 2998   1.075   2.591   4.517
  993SOL     OW 2999   1.755   2.469   3.955
  993SOL    HW1 3000   1.743   2.456   3.856
  993SOL    HW2 3001   1.725   2.388   4.004
  994SOL     OW 3002   0.768   3.006   4.747
  994SOL    HW1 3003   0.690   3.023   4.807
  994SOL    HW2 3004   0.802   3.093   4.711
  995SOL     OW 3005   0.685   2.874   4.389
  995SOL    HW1 3006   0.754   2.858   4.459
  995SOL    HW2 3007   0.612   2.931   4.427
  996SOL     OW 3008   0.335   3.297   4.785
  996SOL    HW1 3009   0.257   3.266   4.732
  996SOL    HW2 3010   0.393   3.355   4.728
  997SOL     OW 3011   1.603   2.309   4.461
  997SOL    HW1 3012   1.529   2.355   4.411
  997SOL    HW2 3013   1.654   2.377   4.514
  998SOL     OW 3014   0.231   3.575   4.207
  998SOL    HW1 3015   0.265   3.652   4.261
  998SOL    HW2 3016   0.275   3.575   4.117
  999SOL     OW 3017   0.230   3.296   4.262
  999SOL    HW1 3018   0.204   3.392   4.262
  999SOL    HW2 3019   0.159   3.242   4.307
 1000SOL     OW 3020   0.240   2.953   4.610
 1000SOL    HW1 3021   0.254   2.869   4.662
 1000SOL    HW2 3022   0.185   3.017   4.665
 1001SOL     OW 3023   0.606   2.826   3.847
 1001SOL    HW1 3024   0.613   2.910   3.793
 1001SOL    HW2 3025   0.652   2.839   3.935
 1002SOL     OW 3026   0.122   2.505   4.287
 1002SOL    HW1 3027   0.077   2.417   4.304
 1002SOL    HW2 3028   0.121   2.559   4.371
 1003SOL     OW 3029   1.842   3.629   4.083
 1003SOL    HW1 3030   1.896   3.600   4.163
 1003SOL    HW2 3031   1.872   3.719   4.054
 1004SOL     OW 3032   0.027   3.458   3.841
 1004SOL    HW1 3033   0.008   3.362   3.862
 1004SOL    HW2 3034  -0.006   3.516   3.916
 1005SOL     OW 3035   1.689   2.784   4.336
 1005SOL    HW1 3036   1.784   2.755   4.344
 1005SOL    HW2 3037   1.681   2.849   4.261
 1006SOL     OW 3038   1.641   2.970   4.156
 1006SOL    HW1 3039   1.727   2.972   4.104
 1006SOL    HW2 3040   1.655   3.017   4.244
 1007SOL     OW 3041   0.613   3.227   4.450
 1007SOL    HW1 3042   0.564   3.140   4.459
 1007SOL    HW2 3043   0.590   3.270   4.363
 1008SOL     OW 3044   0.809   1.866   4.226
 1008SOL    HW1 3045   0.849   1.957   4.217
 1008SOL    HW2 3046   0.709   1.874   4.232
 1009SOL     OW 3047   0.197   2.838   4.988
 1009SOL    HW1 3048   0.286   2.793   4.974
 1009SOL    HW2 3049   0.124   2.773   4.969
 1010SOL     OW 3050   1.525   2.861   3.914
 1010SOL    HW1 3051   1.462   2.785   3.927
 1010SOL    HW2 3052   1.573   2.879   4.000
 1011SOL     OW 3053   1.466   3.279   4.677
 1011SOL    HW1 3054   1.407   3.285   4.757
 1011SOL    HW2 3055   1.451   3.191   4.631
 1012SOL     OW 3056   1.667   3.576   4.296
 1012SOL    HW1 3057   1.626   3.553   4.208
 1012SOL    HW2 3058   1.649   3.502   4.361
 1013SOL     OW 3059   0.598   2.591   3.994
 1013SOL    HW1 3060   0.622   2.660   3.926
 1013SOL    HW2 3061   0.520   2.624   4.048
 1014SOL     OW 3062   1.281   2.207   4.668
 1014SOL    HW1 3063   1.195   2.157   4.655
 1014SOL    HW2 3064   1.343   2.153   4.724
 1015SOL     OW 3065   1.576   3.524   4.031
 1015SOL    HW1 3066   1.665   3.570   4.034
 1015SOL    HW2 3067   1.555   3.500   3.936
 1016SOL     OW 3068   1.041   2.563   4.153
 1016SOL    HW1 3069   1.067   2.559   4.249
 1016SOL    HW2 3070   0.956   2.512   4.139
 1017SOL     OW 3071   0.076   2.673   4.513
 1017SOL    HW1 3072   0.175   2.661   4.522
 1017SOL    HW2 3073   0.052   2.768   4.534
 1018SOL     OW 3074   0.865   2.210   3.919
 1018SOL    HW1 3075   0.924   2.273   3.870
 1018SOL    HW2 3076   0.884   2.116   3.890
 1019SOL     OW 3077   1.362   3.006   4.269
 1019SOL    HW1 3078   1.445   2.977   4.221
 1019SOL    HW2 3079   1.313   3.073   4.213
 1020SOL     OW 3080   0.550   2.058   4.609
 1020SOL    HW1 3081   0.545   2.053   4.709
 1020SOL    HW2 3082   0.552   2.154   4.580
 1021SOL     OW 3083   1.008   3.318   4.201
 1021SOL    HW1 3084   0.962   3.390   4.149
 1021SOL    HW2 3085   1.004   3.338   4.299
 1022SOL     OW 3086   0.351   3.663   4.577
 1022SOL    HW1 3087   0.401   3.577   4.583
 1022SOL    HW2 3088   0.416   3.740   4.574
 1023SOL     OW 3089   1.795   2.928   4.597
 1023SOL    HW1 3090   1.733   2.913   4.521
 1023SOL    HW2 3091   1.743   2.939   4.682
 1024SOL     OW 3092   0.321   2.805   3.966
 1024SOL    HW1 3093   0.403   2.844   3.924
 1024SOL    HW2 3094   0.294   2.723   3.917
 1025SOL     OW 3095   1.458   2.597   4.452
 1025SOL    HW1 3096   1.453   2.532   4.527
 1025SOL    HW2 3097   1.538   2.656   4.465
 1026SOL     OW 3098   1.111   3.638   3.961
 1026SOL    HW1 3099   1.051   3.576   4.011
 1026SOL    HW2 3100   1.142   3.594   3.876
 1027SOL     OW 3101   1.632   3.239   3.805
 1027SOL    HW1 3102   1.600   3.333   3.795
 1027SOL    HW2 3103   1.556   3.176   3.793
 1028SOL     OW 3104   0.464   3.605   4.047
 1028SOL    HW1 3105   0.497   3.644   4.133
 1028SOL    HW2 3106   0.540   3.598   3.982
 1029SOL     OW 3107   1.400   1.969   4.150
 1029SOL    HW1 3108   1.376   1.932   4.060
 1029SOL    HW2 3109   1.499   1.985   4.154
 1030SOL     OW 3110   0.249   3.647   4.965
 1030SOL    HW1 3111   0.306   3.582   5.015
 1030SOL    HW2 3112   0.233   3.614   4.872
 1031SOL     OW 3113   0.940   3.560   4.628
 1031SOL    HW1 3114   1.020   3.503   4.649
 1031SOL    HW2 3115   0.891   3.520   4.551
 1032SOL     OW 3116   0.382   2.562   4.204
 1032SOL    HW1 3117   0.427   2.472   4.201
 1032SOL    HW2 3118   0.288   2.551   4.237
 1033SOL     OW 3119   0.614   1.984   3.841
 1033SOL    HW1 3120   0.712   1.962   3.848
 1033SOL    HW2 3121   0.583   1.967   3.748
 1034SOL     OW 3122   0.803   3.264   4.648
 1034SOL    HW1 3123   0.893   3.278   4.606
 1034SOL    HW2 3124   0.732   3.266   4.577
 1035SOL     OW 3125   0.922   2.365   4.623
 1035SOL    HW1 3126   0.897   2.356   4.527
 1035SOL    HW2 3127   0.970   2.283   4.654
 1036SOL     OW 3128   0.539   1.926   4.236
 1036SOL    HW1 3129   0.458   1.927   4.294
 1036SOL    HW2 3130   0.542   2.009   4.181
 1037SOL     OW 3131   1.434   3.050   3.765
 1037SOL    HW1 3132   1.466   2.974   3.822
 1037SOL    HW2 3133   1.342   3.077   3.795
 1038SOL     OW 3134   0.297   1.897   3.895
 1038SOL    HW1 3135   0.346   1.981   3.874
 1038SOL    HW2 3136   0.359   1.832   3.940
 1039SOL     OW 3137   0.935   2.098   4.204
 1039SOL    HW1 3138   0.887   2.139   4.126
 1039SOL    HW2 3139   1.034   2.096   4.185
 1040SOL     OW 3140   1.227   3.432   4.517
 1040SOL    HW1 3141   1.248   3.506   4.452
 1040SOL    HW2 3142   1.295   3.432   4.590
 1041SOL     OW 3143   0.459   3.014   4.465
 1041SOL    HW1 3144   0.388   2.987   4.530
 1041SOL    HW2 3145   0.433   2.986   4.372
 1042SOL     OW 3146   1.271   3.659   4.315
 1042SOL    HW1 3147   1.315   3.723   4.251
 1042SOL    HW2 3148   1.221   3.711   4.385
 1043SOL     OW 3149   1.032   2.411   3.740
 1043SOL    HW1 3150   0.991   2.493   3.701
 1043SOL    HW2 3151   1.096   2.437   3.813
 1044SOL     OW 3152   0.866   2.316   4.366
 1044SOL    HW1 3153   0.834   2.388   4.304
 1044SOL    HW2 3154   0.890   2.235   4.313
 1045SOL     OW 3155   1.017   1.901   4.477
 1045SOL    HW1 3156   0.945   1.906   4.408
 1045SOL    HW2 3157   0.993   1.832   4.546
 1046SOL     OW 3158   1.429   3.035   4.591
 1046SOL    HW1 3159   1.374   2.951   4.584
 1046SOL    HW2 3160   1.455   3.064   4.499
 1047SOL     OW 3161   1.466   2.452   4.716
 1047SOL    HW1 3162   1.436   2.357   4.723
 1047SOL    HW2 3163   1.539   2.468   4.782
 1048SOL     OW 3164   1.857   2.695   4.101
 1048SOL    HW1 3165   1.899   2.631   4.165
 1048SOL    HW2 3166   1.819   2.644   4.023
 1049SOL     OW 3167   0.488   3.247   3.898
 1049SOL    HW1 3168   0.401   3.232   3.945
 1049SOL    HW2 3169   0.471   3.273   3.803
 1050SOL     OW 3170   1.664   3.142   4.381
 1050SOL    HW1 3171   1.763   3.150   4.395
 1050SOL    HW2 3172   1.619   3.226   4.412
 1051SOL     OW 3173   1.390   2.437   3.802
 1051SOL    HW1 3174   1.336   2.416   3.883
 1051SOL    HW2 3175   1.481   2.396   3.811
 1052SOL     OW 3176   0.527   2.118   4.052
 1052SOL    HW1 3177   0.554   2.059   3.977
 1052SOL    HW2 3178   0.527   2.213   4.021
 1053SOL     OW 3179   1.111   3.057   4.824
 1053SOL    HW1 3180   1.071   3.101   4.905
 1053SOL    HW2 3181   1.070   3.094   4.741
 1054SOL     OW 3182   1.638   2.961   4.803
 1054SOL    HW1 3183   1.643   3.042   4.862
 1054SOL    HW2 3184   1.552   2.963   4.752
 1055SOL     OW 3185   0.705   2.912   4.092
 1055SOL    HW1 3186   0.691   2.919   4.191
 1055SOL    HW2 3187   0.789   2.861   4.074
 1056SOL     OW 3188   0.410   2.675   4.975
 1056SOL    HW1 3189   0.496   2.687   5.025
 1056SOL    HW2 3190   0.368   2.588   5.002
 1057SOL     OW 3191   0.367   2.962   4.225
 1057SOL    HW1 3192   0.360   3.045   4.169
 1057SOL    HW2 3193   0.371   2.882   4.165
 1058SOL     OW 3194   0.566   2.399   4.589
 1058SOL    HW1 3195   0.578   2.465   4.515
 1058SOL    HW2 3196   0.612   2.433   4.672
 1059SOL     OW 3197   1.252   3.210   4.112
 1059SOL    HW1 3198   1.302   3.287   4.152
 1059SOL    HW2 3199   1.157   3.212   4.144
 1060SOL     OW 3200   1.272   3.307   4.866
 1060SOL    HW1 3201   1.319   3.320   4.953
 1060SOL    HW2 3202   1.206   3.233   4.875
 1061SOL     OW 3203   1.582   2.501   4.196
 1061SOL    HW1 3204   1.551   2.562   4.269
 1061SOL    HW2 3205   1.632   2.553   4.127
 1062SOL     OW 3206   0.354   3.372   5.053
 1062SOL    HW1 3207   0.333   3.328   4.966
 1062SOL    HW2 3208   0.451   3.398   5.056
 1063SOL     OW 3209   0.573   2.732   4.753
 1063SOL    HW1 3210   0.617   2.821   4.744
 1063SOL    HW2 3211   0.510   2.732   4.830
 1064SOL     OW 3212   1.209   2.387   3.999
 1064SOL    HW1 3213   1.222   2.303   4.053
 1064SOL    HW2 3214   1.180   2.461   4.059
 1065SOL     OW 3215   0.307   2.075   4.955
 1065SOL    HW1 3216   0.284   2.112   5.045
 1065SOL    HW2 3217   0.277   1.980   4.949
 1066SOL     OW 3218   0.732   2.496   4.788
 1066SOL    HW1 3219   0.791   2.470   4.712
 1066SOL    HW2 3220   0.704   2.592   4.777
 1067SOL     OW 3221   0.307   1.925   4.342
 1067SOL    HW1 3222   0.296   2.019   4.375
 1067SOL    HW2 3223   0.302   1.862   4.419
 1068SOL     OW 3224   1.622   2.229   4.098
 1068SOL    HW1 3225   1.624   2.153   4.162
 1068SOL    HW2 3226   1.574   2.306   4.138
 1069SOL     OW 3227   1.023   2.628   4.690
 1069SOL    HW1 3228   1.038   2.649   4.786
 1069SOL    HW2 3229   0.993   2.533   4.681
 1070SOL     OW 3230   1.540   2.136   3.849
 1070SOL    HW1 3231   1.479   2.061   3.872
 1070SOL    HW2 3232   1.562   2.188   3.932
 1071SOL     OW 3233   1.303   2.700   3.766
 1071SOL    HW1 3234   1.337   2.607   3.781
 1071SOL    HW2 3235   1.321   2.727   3.671
 1072SOL     OW 3236   1.068   3.195   4.573
 1072SOL    HW1 3237   1.075   3.111   4.518
 1072SOL    HW2 3238   1.130   3.264   4.537
 1073SOL     OW 3239   0.319   2.672   4.673
 1073SOL    HW1 3240   0.412   2.708   4.678
 1073SOL    HW2 3241   0.313   2.587   4.725
 1074SOL     OW 3242   0.339   2.371   4.730
 1074SOL    HW1 3243   0.287   2.288   4.713
 1074SOL    HW2 3244   0.416   2.376   4.666
 1075SOL     OW 3245   0.008   3.188   3.924
 1075SOL    HW1 3246  -0.085   3.209   3.893
 1075SOL    HW2 3247   0.018   3.089   3.937
 1076SOL     OW 3248   0.088   3.663   4.651
 1076SOL    HW1 3249   0.046   3.577   4.624
 1076SOL    HW2 3250   0.182   3.666   4.617
 1077SOL     OW 3251   0.504   3.430   4.634
 1077SOL    HW1 3252   0.570   3.504   4.643
 1077SOL    HW2 3253   0.548   3.351   4.592
 1078SOL     OW 3254   1.002   2.658   4.962
 1078SOL    HW1 3255   1.043   2.626   5.048
 1078SOL    HW2 3256   0.906   2.631   4.959
 1079SOL     OW 3257   0.815   2.434   4.049
 1079SOL    HW1 3258   0.822   2.345   4.003
 1079SOL    HW2 3259   0.721   2.468   4.041
 1080SOL     OW 3260   0.671   2.326   4.993
 1080SOL    HW1 3261   0.637   2.237   4.963
 1080SOL    HW2 3262   0.697   2.380   4.913
 1081SOL     OW 3263   0.473   2.362   3.915
 1081SOL    HW1 3264   0.534   2.442   3.919
 1081SOL    HW2 3265   0.378   2.393   3.922
 1082SOL     OW 3266   1.302   2.717   4.033
 1082SOL    HW1 3267   1.216   2.686   4.075
 1082SOL    HW2 3268   1.298   2.703   3.934
 1083SOL     OW 3269   1.759   3.609   4.878
 1083SOL    HW1 3270   1.820   3.639   4.805
 1083SOL    HW2 3271   1.721   3.520   4.856
 1084SOL     OW 3272   0.083   3.120   4.746
 1084SOL    HW1 3273   0.078   3.119   4.846
 1084SOL    HW2 3274   0.000   3.079   4.708
 1085SOL     OW 3275   1.726   1.997   4.247
 1085SOL    HW1 3276   1.799   1.980   4.180
 1085SOL    HW2 3277   1.695   1.910   4.285
 1086SOL     OW 3278   1.388   3.435   4.201
 1086SOL    HW1 3279   1.455   3.447   4.127
 1086SOL    HW2 3280   1.348   3.524   4.224
 1087SOL     OW 3281   1.280   2.789   4.396
 1087SOL    HW1 3282   1.340   2.708   4.398
 1087SOL    HW2 3283   1.320   2.858   4.336
 1088SOL     OW 3284   0.672   3.478   3.878
 1088SOL    HW1 3285   0.681   3.488   3.779
 1088SOL    HW2 3286   0.632   3.389   3.899
 1089SOL     OW 3287   1.841   2.037   4.687
 1089SOL    HW1 3288   1.880   1.952   4.651
 1089SOL    HW2 3289   1.743   2.039   4.668
 1090SOL     OW 3290   0.263   2.188   4.444
 1090SOL    HW1 3291   0.184   2.239   4.410
 1090SOL    HW2 3292   0.254   2.173   4.542
 1091SOL     OW 3293   1.194   3.474   3.755
 1091SOL    HW1 3294   1.200   3.381   3.792
 1091SOL    HW2 3295   1.135   3.474   3.675
 1092SOL     OW 3296   0.822   2.864   5.096
 1092SOL    HW1 3297   0.862   2.863   5.004
 1092SOL    HW2 3298   0.832   2.956   5.136
 1093SOL     OW 3299   0.916   2.772   4.015
 1093SOL    HW1 3300   0.979   2.810   3.947
 1093SOL    HW2 3301   0.956   2.689   4.054
 1094SOL     OW 3302   1.504   3.469   3.768
 1094SOL    HW1 3303   1.412   3.506   3.775
 1094SOL    HW2 3304   1.542   3.489   3.678
 1095SOL     OW 3305   1.039   2.960   4.420
 1095SOL    HW1 3306   0.969   2.913   4.474
 1095SOL    HW2 3307   1.098   2.892   4.377
 1096SOL     OW 3308   1.014   2.098   4.695
 1096SOL    HW1 3309   1.006   2.062   4.602
 1096SOL    HW2 3310   1.012   2.022   4.760
 1097SOL     OW 3311   0.590   3.349   4.215
 1097SOL    HW1 3312   0.632   3.291   4.145
 1097SOL    HW2 3313   0.546   3.428   4.171
 1098SOL     OW 3314   0.255   3.210   4.014
 1098SOL    HW1 3315   0.159   3.211   3.987
 1098SOL    HW2 3316   0.267   3.263   4.098
 1099SOL     OW 3317   0.075   2.207   3.757
 1099SOL    HW1 3318  -0.017   2.179   3.728
 1099SOL    HW2 3319   0.106   2.284   3.701
 1100SOL     OW 3320   0.072   2.028   4.042
 1100SOL    HW1 3321   0.055   2.111   3.988
 1100SOL    HW2 3322   0.162   1.991   4.020
 1101SOL     OW 3323   1.183   3.197   3.843
 1101SOL    HW1 3324   1.084   3.186   3.845
 1101SOL    HW2 3325   1.217   3.212   3.936
 1102SOL     OW 3326   1.493   3.629   4.683
 1102SOL    HW1 3327   1.526   3.693   4.614
 1102SOL    HW2 3328   1.559   3.623   4.758
 1103SOL     OW 3329   1.674   2.745   4.978
 1103SOL    HW1 3330   1.647   2.656   4.941
 1103SOL    HW2 3331   1.675   2.813   4.905
 1104SOL     OW 3332   1.225   2.187   4.173
 1104SOL    HW1 3333   1.290   2.113   4.162
 1104SOL    HW2 3334   1.245   2.237   4.257
 1105SOL     OW 3335   0.594   2.607   4.376
 1105SOL    HW1 3336   0.644   2.692   4.357
 1105SOL    HW2 3337   0.506   2.609   4.328
 1106SOL     OW 3338   0.859   3.236   3.740
 1106SOL    HW1 3339   0.813   3.251   3.828
 1106SOL    HW2 3340   0.903   3.321   3.710
 1107SOL     OW 3341   0.661   3.652   4.677
 1107SOL    HW1 3342   0.615   3.740   4.664
 1107SOL    HW2 3343   0.760   3.664   4.670
 1108SOL     OW 3344   0.859   2.818   4.585
 1108SOL    HW1 3345   0.913   2.749   4.633
 1108SOL    HW2 3346   0.827   2.887   4.651
 1109SOL     OW 3347   1.083   2.846   3.811
 1109SOL    HW1 3348   1.060   2.899   3.729
 1109SOL    HW2 3349   1.164   2.790   3.792
 1110SOL     OW 3350   1.861   3.431   4.575
 1110SOL    HW1 3351   1.790   3.419   4.505
 1110SOL    HW2 3352   1.862   3.352   4.635
 1111SOL     OW 3353   0.079   3.102   4.377
 1111SOL    HW1 3354   0.078   3.055   4.465
 1111SOL    HW2 3355   0.161   3.074   4.326
 1112SOL     OW 3356   1.824   2.054   4.951
 1112SOL    HW1 3357   1.820   1.964   4.995
 1112SOL    HW2 3358   1.827   2.043   4.852
 1113SOL     OW 3359   0.428   2.286   4.244
 1113SOL    HW1 3360   0.458   2.214   4.182
 1113SOL    HW2 3361   0.389   2.246   4.327
 1114SOL     OW 3362   0.812   3.448   4.411
 1114SOL    HW1 3363   0.844   3.458   4.317
 1114SOL    HW2 3364   0.733   3.386   4.413
 1115SOL     OW 3365   1.424   2.076   4.836
 1115SOL    HW1 3366   1.476   2.011   4.891
 1115SOL    HW2 3367   1.375   2.139   4.897
 1116SOL     OW 3368   0.770   3.192   4.025
 1116SOL    HW1 3369   0.724   3.105   4.042
 1116SOL    HW2 3370   0.861   3.189   4.066
 1117SOL     OW 3371   1.352   1.914   3.892
 1117SOL    HW1 3372   1.387   1.873   3.808
 1117SOL    HW2 3373   1.262   1.876   3.912
 1118SOL     OW 3374   1.300   2.315   4.415
 1118SOL    HW1 3375   1.241   2.395   4.419
 1118SOL    HW2 3376   1.315   2.280   4.508
 1119SOL     OW 3377   1.593   2.083   4.606
 1119SOL    HW1 3378   1.509   2.082   4.660
 1119SOL    HW2 3379   1.595   2.166   4.550
 1120SOL     OW 3380   0.039   2.939   4.024
 1120SOL    HW1 3381   0.138   2.928   4.015
 1120SOL    HW2 3382  -0.001   2.853   4.056
 1121SOL     OW 3383   0.875   3.508   4.061
 1121SOL    HW1 3384   0.798   3.473   4.007
 1121SOL    HW2 3385   0.843   3.579   4.123
 1122SOL     OW 3386   0.230   4.352   0.113
 1122SOL    HW1 3387   0.137   4.350   0.150
 1122SOL    HW2 3388   0.231   4.313   0.021
 1123SOL     OW 3389   0.225   3.999   0.996
 1123SOL    HW1 3390   0.260   3.982   1.088
 1123SOL    HW2 3391   0.137   3.954   0.984
 1124SOL     OW 3392   0.019   4.092   0.647
 1124SOL    HW1 3393  -0.063   4.135   0.686
 1124SOL    HW2 3394  -0.009   4.019   0.584
 1125SOL     OW 3395   1.135   4.427   0.717
 1125SOL    HW1 3396   1.192   4.505   0.692
 1125SOL    HW2 3397   1.075   4.453   0.793
 1126SOL     OW 3398   1.755   4.331   0.231
 1126SOL    HW1 3399   1.743   4.318   0.132
 1126SOL    HW2 3400   1.725   4.250   0.280
 1127SOL     OW 3401   0.768   4.868   1.023
 1127SOL    HW1 3402   0.690   4.885   1.083
 1127SOL    HW2 3403   0.802   4.955   0.987
 1128SOL     OW 3404   0.850   4.522   1.823
 1128SOL    HW1 3405   0.846   4.598   1.888
 1128SOL    HW2 3406   0.872   4.558   1.732
 1129SOL     OW 3407   0.685   4.736   0.665
 1129SOL    HW1 3408   0.754   4.720   0.735
 1129SOL    HW2 3409   0.612   4.793   0.703
 1130SOL     OW 3410   1.460   5.229   1.339
 1130SOL    HW1 3411   1.484   5.323   1.365
 1130SOL    HW2 3412   1.444   5.175   1.421
 1131SOL     OW 3413   0.438   4.116   1.499
 1131SOL    HW1 3414   0.520   4.060   1.508
 1131SOL    HW2 3415   0.357   4.058   1.503
 1132SOL     OW 3416   1.603   4.171   0.737
 1132SOL    HW1 3417   1.529   4.217   0.687
 1132SOL    HW2 3418   1.654   4.239   0.790
 1133SOL     OW 3419   0.240   4.815   0.886
 1133SOL    HW1 3420   0.254   4.731   0.938
 1133SOL    HW2 3421   0.185   4.879   0.941
 1134SOL     OW 3422   0.606   4.688   0.123
 1134SOL    HW1 3423   0.613   4.772   0.069
 1134SOL    HW2 3424   0.652   4.701   0.211
 1135SOL     OW 3425   1.594   3.838   1.480
 1135SOL    HW1 3426   1.576   3.905   1.408
 1135SOL    HW2 3427   1.591   3.884   1.569
 1136SOL     OW 3428   0.122   4.367   0.563
 1136SOL    HW1 3429   0.077   4.279   0.580
 1136SOL    HW2 3430   0.121   4.421   0.647
 1137SOL     OW 3431   1.689   4.646   0.612
 1137SOL    HW1 3432   1.784   4.617   0.620
 1137SOL    HW2 3433   1.681   4.711   0.537
 1138SOL     OW 3434   0.113   4.461   1.597
 1138SOL    HW1 3435   0.201   4.448   1.642
 1138SOL    HW2 3436   0.100   4.558   1.575
 1139SOL     OW 3437   0.613   5.089   0.726
 1139SOL    HW1 3438   0.564   5.002   0.735
 1139SOL    HW2 3439   0.590   5.132   0.639
 1140SOL     OW 3440   1.293   4.952   1.423
 1140SOL    HW1 3441   1.330   4.879   1.365
 1140SOL    HW2 3442   1.345   4.957   1.508
 1141SOL     OW 3443   0.809   3.728   0.502
 1141SOL    HW1 3444   0.849   3.819   0.493
 1141SOL    HW2 3445   0.709   3.736   0.508
 1142SOL     OW 3446   0.197   4.700   1.264
 1142SOL    HW1 3447   0.286   4.655   1.250
 1142SOL    HW2 3448   0.124   4.635   1.245
 1143SOL     OW 3449   1.525   4.723   0.190
 1143SOL    HW1 3450   1.462   4.647   0.203
 1143SOL    HW2 3451   1.573   4.741   0.276
 1144SOL     OW 3452   0.317   3.975   1.801
 1144SOL    HW1 3453   0.388   4.046   1.807
 1144SOL    HW2 3454   0.229   4.014   1.829
 1145SOL     OW 3455   0.598   4.453   0.270
 1145SOL    HW1 3456   0.622   4.522   0.202
 1145SOL    HW2 3457   0.520   4.486   0.324
 1146SOL     OW 3458   1.281   4.069   0.944
 1146SOL    HW1 3459   1.195   4.019   0.931
 1146SOL    HW2 3460   1.343   4.015   1.000
 1147SOL     OW 3461   0.807   4.329   1.465
 1147SOL    HW1 3462   0.760   4.326   1.554
 1147SOL    HW2 3463   0.756   4.274   1.399
 1148SOL     OW 3464   1.394   4.193   1.674
 1148SOL    HW1 3465   1.374   4.236   1.762
 1148SOL    HW2 3466   1.472   4.131   1.683
 1149SOL     OW 3467   0.973   4.614   1.572
 1149SOL    HW1 3468   1.019   4.530   1.543
 1149SOL    HW2 3469   0.917   4.648   1.497
 1150SOL     OW 3470   0.991   4.134   1.242
 1150SOL    HW1 3471   0.914   4.168   1.296
 1150SOL    HW2 3472   0.957   4.083   1.163
 1151SOL     OW 3473   1.041   4.425   0.429
 1151SOL    HW1 3474   1.067   4.421   0.525
 1151SOL    HW2 3475   0.956   4.374   0.415
 1152SOL     OW 3476   0.076   4.535   0.789
 1152SOL    HW1 3477   0.175   4.523   0.798
 1152SOL    HW2 3478   0.052   4.630   0.810
 1153SOL     OW 3479   0.865   4.072   0.195
 1153SOL    HW1 3480   0.924   4.135   0.146
 1153SOL    HW2 3481   0.884   3.978   0.166
 1154SOL     OW 3482   1.719   4.309   1.831
 1154SOL    HW1 3483   1.693   4.398   1.795
 1154SOL    HW2 3484   1.717   4.241   1.758
 1155SOL     OW 3485   0.550   3.920   0.885
 1155SOL    HW1 3486   0.545   3.915   0.985
 1155SOL    HW2 3487   0.552   4.016   0.856
 1156SOL     OW 3488   1.795   4.790   0.873
 1156SOL    HW1 3489   1.733   4.775   0.797
 1156SOL    HW2 3490   1.743   4.801   0.958
 1157SOL     OW 3491   0.321   4.667   0.242
 1157SOL    HW1 3492   0.403   4.706   0.200
 1157SOL    HW2 3493   0.294   4.585   0.193
 1158SOL     OW 3494   1.458   4.459   0.728
 1158SOL    HW1 3495   1.453   4.394   0.803
 1158SOL    HW2 3496   1.538   4.518   0.741
 1159SOL     OW 3497   0.202   4.009   1.498
 1159SOL    HW1 3498   0.122   4.069   1.485
 1159SOL    HW2 3499   0.192   3.960   1.584
 1160SOL     OW 3500   1.400   3.831   0.426
 1160SOL    HW1 3501   1.376   3.794   0.336
 1160SOL    HW2 3502   1.499   3.847   0.430
 1161SOL     OW 3503   0.382   4.424   0.480
 1161SOL    HW1 3504   0.427   4.334   0.477
 1161SOL    HW2 3505   0.288   4.413   0.513
 1162SOL     OW 3506   1.547   3.946   1.729
 1162SOL    HW1 3507   1.542   3.983   1.821
 1162SOL    HW2 3508   1.475   3.877   1.717
 1163SOL     OW 3509   0.614   3.846   0.117
 1163SOL    HW1 3510   0.712   3.824   0.124
 1163SOL    HW2 3511   0.583   3.829   0.024
 1164SOL     OW 3512   0.781   3.988   1.749
 1164SOL    HW1 3513   0.848   3.927   1.792
 1164SOL    HW2 3514   0.708   4.007   1.814
 1165SOL     OW 3515   1.351   4.314   1.433
 1165SOL    HW1 3516   1.379   4.271   1.518
 1165SOL    HW2 3517   1.376   4.410   1.434
 1166SOL     OW 3518   0.922   4.227   0.899
 1166SOL    HW1 3519   0.897   4.218   0.803
 1166SOL    HW2 3520   0.970   4.145   0.930
 1167SOL     OW 3521   0.539   3.788   0.512
 1167SOL    HW1 3522   0.458   3.789   0.570
 1167SOL    HW2 3523   0.542   3.871   0.457
 1168SOL     OW 3524   0.297   3.759   0.171
 1168SOL    HW1 3525   0.346   3.843   0.150
 1168SOL    HW2 3526   0.359   3.694   0.216
 1169SOL     OW 3527   0.935   3.960   0.480
 1169SOL    HW1 3528   0.887   4.001   0.402
 1169SOL    HW2 3529   1.034   3.958   0.461
 1170SOL     OW 3530   1.076   4.407   1.464
 1170SOL    HW1 3531   0.996   4.346   1.467
 1170SOL    HW2 3532   1.157   4.354   1.440
 1171SOL     OW 3533   0.459   4.876   0.741
 1171SOL    HW1 3534   0.388   4.849   0.806
 1171SOL    HW2 3535   0.433   4.848   0.648
 1172SOL     OW 3536   1.032   4.273   0.016
 1172SOL    HW1 3537   0.991   4.355  -0.023
 1172SOL    HW2 3538   1.096   4.299   0.089
 1173SOL     OW 3539   0.078   4.280   1.386
 1173SOL    HW1 3540   0.170   4.279   1.345
 1173SOL    HW2 3541   0.072   4.354   1.453
 1174SOL     OW 3542   0.561   3.946   1.147
 1174SOL    HW1 3543   0.599   3.862   1.184
 1174SOL    HW2 3544   0.473   3.965   1.191
 1175SOL     OW 3545   0.866   4.178   0.642
 1175SOL    HW1 3546   0.834   4.250   0.580
 1175SOL    HW2 3547   0.890   4.097   0.589
 1176SOL     OW 3548   1.017   3.763   0.753
 1176SOL    HW1 3549   0.945   3.768   0.684
 1176SOL    HW2 3550   0.993   3.694   0.822
 1177SOL     OW 3551   1.429   4.897   0.867
 1177SOL    HW1 3552   1.374   4.813   0.860
 1177SOL    HW2 3553   1.455   4.926   0.775
 1178SOL     OW 3554   1.466   4.314   0.992
 1178SOL    HW1 3555   1.436   4.219   0.999
 1178SOL    HW2 3556   1.539   4.330   1.058
 1179SOL     OW 3557   1.857   4.557   0.377
 1179SOL    HW1 3558   1.899   4.493   0.441
 1179SOL    HW2 3559   1.819   4.506   0.299
 1180SOL     OW 3560   1.390   4.299   0.078
 1180SOL    HW1 3561   1.336   4.278   0.159
 1180SOL    HW2 3562   1.481   4.258   0.087
 1181SOL     OW 3563   0.527   3.980   0.328
 1181SOL    HW1 3564   0.554   3.921   0.253
 1181SOL    HW2 3565   0.527   4.075   0.297
 1182SOL     OW 3566   1.754   4.947   1.588
 1182SOL    HW1 3567   1.845   4.908   1.575
 1182SOL    HW2 3568   1.762   5.043   1.612
 1183SOL     OW 3569   1.638   4.823   1.079
 1183SOL    HW1 3570   1.643   4.904   1.138
 1183SOL    HW2 3571   1.552   4.825   1.028
 1184SOL     OW 3572   0.915   3.813   1.402
 1184SOL    HW1 3573   0.940   3.793   1.307
 1184SOL    HW2 3574   0.987   3.869   1.444
 1185SOL     OW 3575   0.705   4.774   0.368
 1185SOL    HW1 3576   0.691   4.781   0.467
 1185SOL    HW2 3577   0.789   4.723   0.350
 1186SOL     OW 3578   0.410   4.537   1.251
 1186SOL    HW1 3579   0.496   4.549   1.301
 1186SOL    HW2 3580   0.368   4.450   1.278
 1187SOL     OW 3581   1.274   4.110   1.262
 1187SOL    HW1 3582   1.295   4.184   1.326
 1187SOL    HW2 3583   1.185   4.127   1.219
 1188SOL     OW 3584   0.367   4.824   0.501
 1188SOL    HW1 3585   0.360   4.907   0.445
 1188SOL    HW2 3586   0.371   4.744   0.441
 1189SOL     OW 3587   0.566   4.261   0.865
 1189SOL    HW1 3588   0.578   4.327   0.791
 1189SOL    HW2 3589   0.612   4.295   0.948
 1190SOL     OW 3590   1.582   4.363   0.472
 1190SOL    HW1 3591   1.551   4.424   0.545
 1190SOL    HW2 3592   1.632   4.415   0.403
 1191SOL     OW 3593   0.402   4.475   1.598
 1191SOL    HW1 3594   0.470   4.530   1.551
 1191SOL    HW2 3595   0.442   4.387   1.625
 1192SOL     OW 3596   1.587   4.503   1.670
 1192SOL    HW1 3597   1.495   4.541   1.665
 1192SOL    HW2 3598   1.647   4.550   1.605
 1193SOL     OW 3599   1.013   3.829   1.770
 1193SOL    HW1 3600   1.019   3.914   1.718
 1193SOL    HW2 3601   1.045   3.753   1.713
 1194SOL     OW 3602   0.504   3.774   1.740
 1194SOL    HW1 3603   0.462   3.717   1.670
 1194SOL    HW2 3604   0.438   3.843   1.772
 1195SOL     OW 3605   0.573   4.594   1.029
 1195SOL    HW1 3606   0.617   4.683   1.020
 1195SOL    HW2 3607   0.510   4.594   1.106
 1196SOL     OW 3608   1.360   4.586   1.045
 1196SOL    HW1 3609   1.285   4.586   0.979
 1196SOL    HW2 3610   1.397   4.494   1.054
 1197SOL     OW 3611   1.209   4.249   0.275
 1197SOL    HW1 3612   1.222   4.165   0.329
 1197SOL    HW2 3613   1.180   4.323   0.335
 1198SOL     OW 3614   0.307   3.937   1.231
 1198SOL    HW1 3615   0.284   3.974   1.321
 1198SOL    HW2 3616   0.277   3.842   1.225
 1199SOL     OW 3617   0.037   5.034   1.282
 1199SOL    HW1 3618   0.090   4.985   1.350
 1199SOL    HW2 3619   0.059   5.132   1.287
 1200SOL     OW 3620   0.732   4.358   1.064
 1200SOL    HW1 3621   0.791   4.332   0.988
 1200SOL    HW2 3622   0.704   4.454   1.053
 1201SOL     OW 3623   1.728   4.659   1.854
 1201SOL    HW1 3624   1.682   4.652   1.765
 1201SOL    HW2 3625   1.666   4.703   1.920
 1202SOL     OW 3626   0.307   3.787   0.618
 1202SOL    HW1 3627   0.296   3.881   0.651
 1202SOL    HW2 3628   0.302   3.724   0.695
 1203SOL     OW 3629   1.622   4.091   0.374
 1203SOL    HW1 3630   1.624   4.015   0.438
 1203SOL    HW2 3631   1.574   4.168   0.414
 1204SOL     OW 3632   1.023   4.490   0.966
 1204SOL    HW1 3633   1.038   4.511   1.062
 1204SOL    HW2 3634   0.993   4.395   0.957
 1205SOL     OW 3635   0.350   4.622   1.804
 1205SOL    HW1 3636   0.426   4.666   1.852
 1205SOL    HW2 3637   0.385   4.575   1.722
 1206SOL     OW 3638   1.540   3.998   0.125
 1206SOL    HW1 3639   1.479   3.923   0.148
 1206SOL    HW2 3640   1.562   4.050   0.208
 1207SOL     OW 3641   1.303   4.562   0.042
 1207SOL    HW1 3642   1.337   4.469   0.057
 1207SOL    HW2 3643   1.321   4.589  -0.053
 1208SOL     OW 3644   0.319   4.534   0.949
 1208SOL    HW1 3645   0.412   4.570   0.954
 1208SOL    HW2 3646   0.313   4.449   1.001
 1209SOL     OW 3647   0.339   4.233   1.006
 1209SOL    HW1 3648   0.287   4.150   0.989
 1209SOL    HW2 3649   0.416   4.238   0.942
 1210SOL     OW 3650   1.138   4.104   1.678
 1210SOL    HW1 3651   1.093   4.167   1.742
 1210SOL    HW2 3652   1.231   4.135   1.661
 1211SOL     OW 3653   1.160   3.931   1.477
 1211SOL    HW1 3654   1.160   3.995   1.554
 1211SOL    HW2 3655   1.188   3.979   1.394
 1212SOL     OW 3656   1.002   4.520   1.238
 1212SOL    HW1 3657   1.043   4.488   1.324
 1212SOL    HW2 3658   0.906   4.493   1.235
 1213SOL     OW 3659   0.040   4.268   1.114
 1213SOL    HW1 3660   0.125   4.235   1.073
 1213SOL    HW2 3661   0.053   4.283   1.212
 1214SOL     OW 3662   0.189   4.244   1.722
 1214SOL    HW1 3663   0.248   4.204   1.652
 1214SOL    HW2 3664   0.131   4.315   1.681
 1215SOL     OW 3665   1.369   4.674   1.660
 1215SOL    HW1 3666   1.408   4.763   1.680
 1215SOL    HW2 3667   1.379   4.654   1.563
 1216SOL     OW 3668   0.815   4.296   0.325
 1216SOL    HW1 3669   0.822   4.207   0.279
 1216SOL    HW2 3670   0.721   4.330   0.317
 1217SOL     OW 3671   1.657   4.328   1.206
 1217SOL    HW1 3672   1.619   4.259   1.268
 1217SOL    HW2 3673   1.739   4.292   1.162
 1218SOL     OW 3674   0.671   4.188   1.269
 1218SOL    HW1 3675   0.637   4.099   1.239
 1218SOL    HW2 3676   0.697   4.242   1.189
 1219SOL     OW 3677   0.473   4.224   0.191
 1219SOL    HW1 3678   0.534   4.304   0.195
 1219SOL    HW2 3679   0.378   4.255   0.198
 1220SOL     OW 3680   0.159   4.861   1.466
 1220SOL    HW1 3681   0.181   4.800   1.542
 1220SOL    HW2 3682   0.169   4.812   1.380
 1221SOL     OW 3683   1.347   4.783   1.234
 1221SOL    HW1 3684   1.371   4.720   1.160
 1221SOL    HW2 3685   1.257   4.823   1.216
 1222SOL     OW 3686   1.302   4.579   0.309
 1222SOL    HW1 3687   1.216   4.548   0.351
 1222SOL    HW2 3688   1.298   4.565   0.210
 1223SOL     OW 3689   0.083   4.982   1.022
 1223SOL    HW1 3690   0.078   4.981   1.122
 1223SOL    HW2 3691   0.000   4.941   0.984
 1224SOL     OW 3692   0.903   3.810   0.133
 1224SOL    HW1 3693   0.954   3.811   0.047
 1224SOL    HW2 3694   0.959   3.768   0.204
 1225SOL     OW 3695   1.726   3.859   0.523
 1225SOL    HW1 3696   1.799   3.842   0.456
 1225SOL    HW2 3697   1.695   3.772   0.561
 1226SOL     OW 3698   1.280   4.651   0.672
 1226SOL    HW1 3699   1.340   4.570   0.674
 1226SOL    HW2 3700   1.320   4.720   0.612
 1227SOL     OW 3701   1.841   3.899   0.963
 1227SOL    HW1 3702   1.880   3.814   0.927
 1227SOL    HW2 3703   1.743   3.901   0.944
 1228SOL     OW 3704   0.263   4.050   0.720
 1228SOL    HW1 3705   0.184   4.101   0.686
 1228SOL    HW2 3706   0.254   4.035   0.818
 1229SOL     OW 3707   0.822   4.726   1.372
 1229SOL    HW1 3708   0.862   4.725   1.280
 1229SOL    HW2 3709   0.832   4.818   1.412
 1230SOL     OW 3710   0.916   4.634   0.291
 1230SOL    HW1 3711   0.979   4.672   0.223
 1230SOL    HW2 3712   0.956   4.551   0.330
 1231SOL     OW 3713   0.372   5.012   1.490
 1231SOL    HW1 3714   0.359   5.105   1.456
 1231SOL    HW2 3715   0.288   4.960   1.477
 1232SOL     OW 3716   1.014   3.960   0.971
 1232SOL    HW1 3717   1.006   3.924   0.878
 1232SOL    HW2 3718   1.012   3.884   1.036
 1233SOL     OW 3719   1.709   4.109   1.381
 1233SOL    HW1 3720   1.782   4.178   1.385
 1233SOL    HW2 3721   1.737   4.034   1.322
 1234SOL     OW 3722   0.105   4.737   1.726
 1234SOL    HW1 3723   0.028   4.704   1.780
 1234SOL    HW2 3724   0.190   4.707   1.768
 1235SOL     OW 3725   0.672   3.927   1.489
 1235SOL    HW1 3726   0.762   3.911   1.449
 1235SOL    HW2 3727   0.680   3.932   1.588
 1236SOL     OW 3728   0.075   4.069   0.033
 1236SOL    HW1 3729  -0.017   4.041   0.004
 1236SOL    HW2 3730   0.106   4.146  -0.023
 1237SOL     OW 3731   1.440   4.580   1.398
 1237SOL    HW1 3732   1.383   4.632   1.335
 1237SOL    HW2 3733   1.536   4.592   1.374
 1238SOL     OW 3734   0.072   3.890   0.318
 1238SOL    HW1 3735   0.055   3.973   0.264
 1238SOL    HW2 3736   0.162   3.853   0.296
 1239SOL     OW 3737   1.183   5.059   0.119
 1239SOL    HW1 3738   1.084   5.048   0.121
 1239SOL    HW2 3739   1.217   5.074   0.212
 1240SOL     OW 3740   0.613   4.566   1.431
 1240SOL    HW1 3741   0.669   4.647   1.414
 1240SOL    HW2 3742   0.672   4.486   1.434
 1241SOL     OW 3743   0.716   4.289   1.708
 1241SOL    HW1 3744   0.735   4.354   1.782
 1241SOL    HW2 3745   0.776   4.209   1.717
 1242SOL     OW 3746   1.450   4.944   1.633
 1242SOL    HW1 3747   1.441   4.934   1.732
 1242SOL    HW2 3748   1.546   4.937   1.607
 1243SOL     OW 3749   1.674   4.607   1.254
 1243SOL    HW1 3750   1.647   4.518   1.217
 1243SOL    HW2 3751   1.675   4.675   1.181
 1244SOL     OW 3752   1.225   4.049   0.449
 1244SOL    HW1 3753   1.290   3.975   0.438
 1244SOL    HW2 3754   1.245   4.099   0.533
 1245SOL     OW 3755   0.594   4.469   0.652
 1245SOL    HW1 3756   0.644   4.554   0.633
 1245SOL    HW2 3757   0.506   4.471   0.604
 1246SOL     OW 3758   1.777   4.066   1.642
 1246SOL    HW1 3759   1.760   4.097   1.548
 1246SOL    HW2 3760   1.693   4.029   1.680
 1247SOL     OW 3761   1.730   4.658   1.517
 1247SOL    HW1 3762   1.768   4.749   1.532
 1247SOL    HW2 3763   1.722   4.641   1.418
 1248SOL     OW 3764   0.859   4.680   0.861
 1248SOL    HW1 3765   0.913   4.611   0.909
 1248SOL    HW2 3766   0.827   4.749   0.927
 1249SOL     OW 3767   1.083   4.708   0.087
 1249SOL    HW1 3768   1.060   4.761   0.005
 1249SOL    HW2 3769   1.164   4.652   0.068
 1250SOL     OW 3770   0.079   4.964   0.653
 1250SOL    HW1 3771   0.078   4.917   0.741
 1250SOL    HW2 3772   0.161   4.936   0.602
 1251SOL     OW 3773   1.824   3.916   1.227
 1251SOL    HW1 3774   1.820   3.826   1.271
 1251SOL    HW2 3775   1.827   3.905   1.128
 1252SOL     OW 3776   0.428   4.148   0.520
 1252SOL    HW1 3777   0.458   4.076   0.458
 1252SOL    HW2 3778   0.389   4.108   0.603
 1253SOL     OW 3779   0.317   4.271   1.280
 1253SOL    HW1 3780   0.355   4.212   1.352
 1253SOL    HW2 3781   0.357   4.245   1.192
 1254SOL     OW 3782   1.424   3.938   1.112
 1254SOL    HW1 3783   1.476   3.873   1.167
 1254SOL    HW2 3784   1.375   4.001   1.173
 1255SOL     OW 3785   1.001   3.758   1.154
 1255SOL    HW1 3786   0.938   3.686   1.123
 1255SOL    HW2 3787   1.094   3.722   1.154
 1256SOL     OW 3788   0.770   5.054   0.301
 1256SOL    HW1 3789   0.724   4.967   0.318
 1256SOL    HW2 3790   0.861   5.051   0.342
 1257SOL     OW 3791   1.352   3.776   0.168
 1257SOL    HW1 3792   1.387   3.735   0.084
 1257SOL    HW2 3793   1.262   3.738   0.188
 1258SOL     OW 3794   1.300   4.177   0.691
 1258SOL    HW1 3795   1.241   4.257   0.695
 1258SOL    HW2 3796   1.315   4.142   0.784
 1259SOL     OW 3797   1.593   3.945   0.882
 1259SOL    HW1 3798   1.509   3.944   0.936
 1259SOL    HW2 3799   1.595   4.028   0.826
 1260SOL     OW 3800   0.039   4.801   0.300
 1260SOL    HW1 3801   0.138   4.790   0.291
 1260SOL    HW2 3802  -0.001   4.715   0.332
 1261SOL     OW 3803   0.230   4.352   1.975
 1261SOL    HW1 3804   0.137   4.350   2.012
 1261SOL    HW2 3805   0.231   4.313   1.883
 1262SOL     OW 3806   0.225   3.999   2.858
 1262SOL    HW1 3807   0.260   3.982   2.950
 1262SOL    HW2 3808   0.137   3.954   2.846
 1263SOL     OW 3809   0.019   4.092   2.509
 1263SOL    HW1 3810  -0.063   4.135   2.548
 1263SOL    HW2 3811  -0.009   4.019   2.446
 1264SOL     OW 3812   1.135   4.427   2.579
 1264SOL    HW1 3813   1.192   4.505   2.554
 1264SOL    HW2 3814   1.075   4.453   2.655
 1265SOL     OW 3815   1.755   4.331   2.093
 1265SOL    HW1 3816   1.743   4.318   1.994
 1265SOL    HW2 3817   1.725   4.250   2.142
 1266SOL     OW 3818   0.768   4.868   2.885
 1266SOL    HW1 3819   0.690   4.885   2.945
 1266SOL    HW2 3820   0.802   4.955   2.849
 1267SOL     OW 3821   0.850   4.522   3.685
 1267SOL    HW1 3822   0.846   4.598   3.750
 1267SOL    HW2 3823   0.872   4.558   3.594
 1268SOL     OW 3824   0.685   4.736   2.527
 1268SOL    HW1 3825   0.754   4.720   2.597
 1268SOL    HW2 3826   0.612   4.793   2.565
 1269SOL     OW 3827   1.460   5.229   3.201
 1269SOL    HW1 3828   1.484   5.323   3.227
 1269SOL    HW2 3829   1.444   5.175   3.283
 1270SOL     OW 3830   0.438   4.116   3.361
 1270SOL    HW1 3831   0.520   4.060   3.370
 1270SOL    HW2 3832   0.357   4.058   3.365
 1271SOL     OW 3833   1.603   4.171   2.599
 1271SOL    HW1 3834   1.529   4.217   2.549
 1271SOL    HW2 3835   1.654   4.239   2.652
 1272SOL     OW 3836   0.240   4.815   2.748
 1272SOL    HW1 3837   0.254   4.731   2.800
 1272SOL    HW2 3838   0.185   4.879   2.803
 1273SOL     OW 3839   0.606   4.688   1.985
 1273SOL    HW1 3840   0.613   4.772   1.931
 1273SOL    HW2 3841   0.652   4.701   2.073
 1274SOL     OW 3842   1.594   3.838   3.342
 1274SOL    HW1 3843   1.576   3.905   3.270
 1274SOL    HW2 3844   1.591   3.884   3.431
 1275SOL     OW 3845   0.122   4.367   2.425
 1275SOL    HW1 3846   0.077   4.279   2.442
 1275SOL    HW2 3847   0.121   4.421   2.509
 1276SOL     OW 3848   1.689   4.646   2.474
 1276SOL    HW1 3849   1.784   4.617   2.482
 1276SOL    HW2 3850   1.681   4.711   2.399
 1277SOL     OW 3851   0.113   4.461   3.459
 1277SOL    HW1 3852   0.201   4.448   3.504
 1277SOL    HW2 3853   0.100   4.558   3.437
 1278SOL     OW 3854   0.613   5.089   2.588
 1278SOL    HW1 3855   0.564   5.002   2.597
 1278SOL    HW2 3856   0.590   5.132   2.501
 1279SOL     OW 3857   1.293   4.952   3.285
 1279SOL    HW1 3858   1.330   4.879   3.227
 1279SOL    HW2 3859   1.345   4.957   3.370
 1280SOL     OW 3860   0.809   3.728   2.364
 1280SOL    HW1 3861   0.849   3.819   2.355
 1280SOL    HW2 3862   0.709   3.736   2.370
 1281SOL     OW 3863   0.197   4.700   3.126
 1281SOL    HW1 3864   0.286   4.655   3.112
 1281SOL    HW2 3865   0.124   4.635   3.107
 1282SOL     OW 3866   1.525   4.723   2.052
 1282SOL    HW1 3867   1.462   4.647   2.065
 1282SOL    HW2 3868   1.573   4.741   2.138
 1283SOL     OW 3869   0.317   3.975   3.663
 1283SOL    HW1 3870   0.388   4.046   3.669
 1283SOL    HW2 3871   0.229   4.014   3.691
 1284SOL     OW 3872   0.598   4.453   2.132
 1284SOL    HW1 3873   0.622   4.522   2.064
 1284SOL    HW2 3874   0.520   4.486   2.186
 1285SOL     OW 3875   1.281   4.069   2.806
 1285SOL    HW1 3876   1.195   4.019   2.793
 1285SOL    HW2 3877   1.343   4.015   2.862
 1286SOL     OW 3878   0.807   4.329   3.327
 1286SOL    HW1 3879   0.760   4.326   3.416
 1286SOL    HW2 3880   0.756   4.274   3.261
 1287SOL     OW 3881   1.394   4.193   3.536
 1287SOL    HW1 3882   1.374   4.236   3.624
 1287SOL    HW2 3883   1.472   4.131   3.545
 1288SOL     OW 3884   0.973   4.614   3.434
 1288SOL    HW1 3885   1.019   4.530   3.405
 1288SOL    HW2 3886   0.917   4.648   3.359
 1289SOL     OW 3887   0.991   4.134   3.104
 1289SOL    HW1 3888   0.914   4.168   3.158
 1289SOL    HW2 3889   0.957   4.083   3.025
 1290SOL     OW 3890   1.041   4.425   2.291
 1290SOL    HW1 3891   1.067   4.421   2.387
 1290SOL    HW2 3892   0.956   4.374   2.277
 1291SOL     OW 3893   0.076   4.535   2.651
 1291SOL    HW1 3894   0.175   4.523   2.660
 1291SOL    HW2 3895   0.052   4.630   2.672
 1292SOL     OW 3896   0.865   4.072   2.057
 1292SOL    HW1 3897   0.924   4.135   2.008
 1292SOL    HW2 3898   0.884   3.978   2.028
 1293SOL     OW 3899   1.719   4.309   3.693
 1293SOL    HW1 3900   1.693   4.398   3.657
 1293SOL    HW2 3901   1.717   4.241   3.620
 1294SOL     OW 3902   0.550   3.920   2.747
 1294SOL    HW1 3903   0.545   3.915   2.847
 1294SOL    HW2 3904   0.552   4.016   2.718
 1295SOL     OW 3905   1.795   4.790   2.735
 1295SOL    HW1 3906   1.733   4.775   2.659
 1295SOL    HW2 3907   1.743   4.801   2.820
 1296SOL     OW 3908   0.321   4.667   2.104
 1296SOL    HW1 3909   0.403   4.706   2.062
 1296SOL    HW2 3910   0.294   4.585   2.055
 1297SOL     OW 3911   1.458   4.459   2.590
 1297SOL    HW1 3912   1.453   4.394   2.665
 1297SOL    HW2 3913   1.538   4.518   2.603
 1298SOL     OW 3914   0.202   4.009   3.360
 1298SOL    HW1 3915   0.122   4.069   3.347
 1298SOL    HW2 3916   0.192   3.960   3.446
 1299SOL     OW 3917   1.400   3.831   2.288
 1299SOL    HW1 3918   1.376   3.794   2.198
 1299SOL    HW2 3919   1.499   3.847   2.292
 1300SOL     OW 3920   0.382   4.424   2.342
 1300SOL    HW1 3921   0.427   4.334   2.339
 1300SOL    HW2 3922   0.288   4.413   2.375
 1301SOL     OW 3923   1.547   3.946   3.591
 1301SOL    HW1 3924   1.542   3.983   3.683
 1301SOL    HW2 3925   1.475   3.877   3.579
 1302SOL     OW 3926   0.614   3.846   1.979
 1302SOL    HW1 3927   0.712   3.824   1.986
 1302SOL    HW2 3928   0.583   3.829   1.886
 1303SOL     OW 3929   0.781   3.988   3.611
 1303SOL    HW1 3930   0.848   3.927   3.654
 1303SOL    HW2 3931   0.708   4.007   3.676
 1304SOL     OW 3932   1.351   4.314   3.295
 1304SOL    HW1 3933   1.379   4.271   3.380
 1304SOL    HW2 3934   1.376   4.410   3.296
 1305SOL     OW 3935   0.922   4.227   2.761
 1305SOL    HW1 3936   0.897   4.218   2.665
 1305SOL    HW2 3937   0.970   4.145   2.792
 1306SOL     OW 3938   0.539   3.788   2.374
 1306SOL    HW1 3939   0.458   3.789   2.432
 1306SOL    HW2 3940   0.542   3.871   2.319
 1307SOL     OW 3941   0.297   3.759   2.033
 1307SOL    HW1 3942   0.346   3.843   2.012
 1307SOL    HW2 3943   0.359   3.694   2.078
 1308SOL     OW 3944   0.935   3.960   2.342
 1308SOL    HW1 3945   0.887   4.001   2.264
 1308SOL    HW2 3946   1.034   3.958   2.323
 1309SOL     OW 3947   1.076   4.407   3.326
 1309SOL    HW1 3948   0.996   4.346   3.329
 1309SOL    HW2 3949   1.157   4.354   3.302
 1310SOL     OW 3950   0.459   4.876   2.603
 1310SOL    HW1 3951   0.388   4.849   2.668
 1310SOL    HW2 3952   0.433   4.848   2.510
 1311SOL     OW 3953   1.032   4.273   1.878
 1311SOL    HW1 3954   0.991   4.355   1.839
 1311SOL    HW2 3955   1.096   4.299   1.951
 1312SOL     OW 3956   0.078   4.280   3.248
 1312SOL    HW1 3957   0.170   4.279   3.207
 1312SOL    HW2 3958   0.072   4.354   3.315
 1313SOL     OW 3959   0.561   3.946   3.009
 1313SOL    HW1 3960   0.599   3.862   3.046
 1313SOL    HW2 3961   0.473   3.965   3.053
 1314SOL     OW 3962   0.866   4.178   2.504
 1314SOL    HW1 3963   0.834   4.250   2.442
 1314SOL    HW2 3964   0.890   4.097   2.451
 1315SOL     OW 3965   1.017   3.763   2.615
 1315SOL    HW1 3966   0.945   3.768   2.546
 1315SOL    HW2 3967   0.993   3.694   2.684
 1316SOL     OW 3968   1.429   4.897   2.729
 1316SOL    HW1 3969   1.374   4.813   2.722
 1316SOL    HW2 3970   1.455   4.926   2.637
 1317SOL     OW 3971   1.466   4.314   2.854
 1317SOL    HW1 3972   1.436   4.219   2.861
 1317SOL    HW2 3973   1.539   4.330   2.920
 1318SOL     OW 3974   1.857   4.557   2.239
 1318SOL    HW1 3975   1.899   4.493   2.303
 1318SOL    HW2 3976   1.819   4.506   2.161
 1319SOL     OW 3977   1.390   4.299   1.940
 1319SOL    HW1 3978   1.336   4.278   2.021
 1319SOL    HW2 3979   1.481   4.258   1.949
 1320SOL     OW 3980   0.527   3.980   2.190
 1320SOL    HW1 3981   0.554   3.921   2.115
 1320SOL    HW2 3982   0.527   4.075   2.159
 1321SOL     OW 3983   1.754   4.947   3.450
 1321SOL    HW1 3984   1.845   4.908   3.437
 1321SOL    HW2 3985   1.762   5.043   3.474
 1322SOL     OW 3986   1.638   4.823   2.941
 1322SOL    HW1 3987   1.643   4.904   3.000
 1322SOL    HW2 3988   1.552   4.825   2.890
 1323SOL     OW 3989   0.915   3.813   3.264
 1323SOL    HW1 3990   0.940   3.793   3.169
 1323SOL    HW2 3991   0.987   3.869   3.306
 1324SOL     OW 3992   0.705   4.774   2.230
 1324SOL    HW1 3993   0.691   4.781   2.329
 1324SOL    HW2 3994   0.789   4.723   2.212
 1325SOL     OW 3995   0.410   4.537   3.113
 1325SOL    HW1 3996   0.496   4.549   3.163
 1325SOL    HW2 3997   0.368   4.450   3.140
 1326SOL     OW 3998   1.274   4.110   3.124
 1326SOL    HW1 3999   1.295   4.184   3.188
 1326SOL    HW2 4000   1.185   4.127   3.081
 1327SOL     OW 4001   0.367   4.824   2.363
 1327SOL    HW1 4002   0.360   4.907   2.307
 1327SOL    HW2 4003   0.371   4.744   2.303
 1328SOL     OW 4004   0.566   4.261   2.727
 1328SOL    HW1 4005   0.578   4.327   2.653
 1328SOL    HW2 4006   0.612   4.295   2.810
 1329SOL     OW 4007   1.582   4.363   2.334
 1329SOL    HW1 4008   1.551   4.424   2.407
 1329SOL    HW2 4009   1.632   4.415   2.265
 1330SOL     OW 4010   0.402   4.475   3.460
 1330SOL    HW1 4011   0.470   4.530   3.413
 1330SOL    HW2 4012   0.442   4.387   3.487
 1331SOL     OW 4013   1.587   4.503   3.532
 1331SOL    HW1 4014   1.495   4.541   3.527
 1331SOL    HW2 4015   1.647   4.550   3.467
 1332SOL     OW 4016   1.013   3.829   3.632
 1332SOL    HW1 4017   1.019   3.914   3.580
 1332SOL    HW2 4018   1.045   3.753   3.575
 1333SOL     OW 4019   0.504   3.774   3.602
 1333SOL    HW1 4020   0.462   3.717   3.532
 1333SOL    HW2 4021   0.438   3.843   3.634
 1334SOL     OW 4022   0.573   4.594   2.891
 1334SOL    HW1 4023   0.617   4.683   2.882
 1334SOL    HW2 4024   0.510   4.594   2.968
 1335SOL     OW 4025   1.360   4.586   2.907
 1335SOL    HW1 4026   1.285   4.586   2.841
 1335SOL    HW2 4027   1.397   4.494   2.916
 1336SOL     OW 4028   1.209   4.249   2.137
 1336SOL    HW1 4029   1.222   4.165   2.191
 1336SOL    HW2 4030   1.180   4.323   2.197
 1337SOL     OW 4031   0.307   3.937   3.093
 1337SOL    HW1 4032   0.284   3.974   3.183
 1337SOL    HW2 4033   0.277   3.842   3.087
 1338SOL     OW 4034   0.037   5.034   3.144
 1338SOL    HW1 4035   0.090   4.985   3.212
 1338SOL    HW2 4036   0.059   5.132   3.149
 1339SOL     OW 4037   0.732   4.358   2.926
 1339SOL    HW1 4038   0.791   4.332   2.850
 1339SOL    HW2 4039   0.704   4.454   2.915
 1340SOL     OW 4040   1.728   4.659   3.716
 1340SOL    HW1 4041   1.682   4.652   3.627
 1340SOL    HW2 4042   1.666   4.703   3.782
 1341SOL     OW 4043   0.307   3.787   2.480
 1341SOL    HW1 4044   0.296   3.881   2.513
 1341SOL    HW2 4045   0.302   3.724   2.557
 1342SOL     OW 4046   1.622   4.091   2.236
 1342SOL    HW1 4047   1.624   4.015   2.300
 1342SOL    HW2 4048   1.574   4.168   2.276
 1343SOL     OW 4049   1.023   4.490   2.828
 1343SOL    HW1 4050   1.038   4.511   2.924
 1343SOL    HW2 4051   0.993   4.395   2.819
 1344SOL     OW 4052   0.350   4.622   3.666
 1344SOL    HW1 4053   0.426   4.666   3.714
 1344SOL    HW2 4054   0.385   4.575   3.584
 1345SOL     OW 4055   1.540   3.998   1.987
 1345SOL    HW1 4056   1.479   3.923   2.010
 1345SOL    HW2 4057   1.562   4.050   2.070
 1346SOL     OW 4058   1.303   4.562   1.904
 1346SOL    HW1 4059   1.337   4.469   1.919
 1346SOL    HW2 4060   1.321   4.589   1.809
 1347SOL     OW 4061   0.319   4.534   2.811
 1347SOL    HW1 4062   0.412   4.570   2.816
 1347SOL    HW2 4063   0.313   4.449   2.863
 1348SOL     OW 4064   0.339   4.233   2.868
 1348SOL    HW1 4065   0.287   4.150   2.851
 1348SOL    HW2 4066   0.416   4.238   2.804
 1349SOL     OW 4067   1.138   4.104   3.540
 1349SOL    HW1 4068   1.093   4.167   3.604
 1349SOL    HW2 4069   1.231   4.135   3.523
 1350SOL     OW 4070   1.160   3.931   3.339
 1350SOL    HW1 4071   1.160   3.995   3.416
 1350SOL    HW2 4072   1.188   3.979   3.256
 1351SOL     OW 4073   1.002   4.520   3.100
 1351SOL    HW1 4074   1.043   4.488   3.186
 1351SOL    HW2 4075   0.906   4.493   3.097
 1352SOL     OW 4076   0.040   4.268   2.976
 1352SOL    HW1 4077   0.125   4.235   2.935
 1352SOL    HW2 4078   0.053   4.283   3.074
 1353SOL     OW 4079   0.189   4.244   3.584
 1353SOL    HW1 4080   0.248   4.204   3.514
 1353SOL    HW2 4081   0.131   4.315   3.543
 1354SOL     OW 4082   1.369   4.674   3.522
 1354SOL    HW1 4083   1.408   4.763   3.542
 1354SOL    HW2 4084   1.379   4.654   3.425
 1355SOL     OW 4085   0.815   4.296   2.187
 1355SOL    HW1 4086   0.822   4.207   2.141
 1355SOL    HW2 4087   0.721   4.330   2.179
 1356SOL     OW 4088   1.657   4.328   3.068
 1356SOL    HW1 4089   1.619   4.259   3.130
 1356SOL    HW2 4090   1.739   4.292   3.024
 1357SOL     OW 4091   0.671   4.188   3.131
 1357SOL    HW1 4092   0.637   4.099   3.101
 1357SOL    HW2 4093   0.697   4.242   3.051
 1358SOL     OW 4094   0.473   4.224   2.053
 1358SOL    HW1 4095   0.534   4.304   2.057
 1358SOL    HW2 4096   0.378   4.255   2.060
 1359SOL     OW 4097   0.159   4.861   3.328
 1359SOL    HW1 4098   0.181   4.800   3.404
 1359SOL    HW2 4099   0.169   4.812   3.242
 1360SOL     OW 4100   1.347   4.783   3.096
 1360SOL    HW1 4101   1.371   4.720   3.022
 1360SOL    HW2 4102   1.257   4.823   3.078
 1361SOL     OW 4103   1.302   4.579   2.171
 1361SOL    HW1 4104   1.216   4.548   2.213
 1361SOL    HW2 4105   1.298   4.565   2.072
 1362SOL     OW 4106   0.083   4.982   2.884
 1362SOL    HW1 4107   0.078   4.981   2.984
 1362SOL    HW2 4108   0.000   4.941   2.846
 1363SOL     OW 4109   1.726   3.859   2.385
 1363SOL    HW1 4110   1.799   3.842   2.318
 1363SOL    HW2 4111   1.695   3.772   2.423
 1364SOL     OW 4112   1.280   4.651   2.534
 1364SOL    HW1 4113   1.340   4.570   2.536
 1364SOL    HW2 4114   1.320   4.720   2.474
 1365SOL     OW 4115   1.841   3.899   2.825
 1365SOL    HW1 4116   1.880   3.814   2.789
 1365SOL    HW2 4117   1.743   3.901   2.806
 1366SOL     OW 4118   0.263   4.050   2.582
 1366SOL    HW1 4119   0.184   4.101   2.548
 1366SOL    HW2 4120   0.254   4.035   2.680
 1367SOL     OW 4121   0.822   4.726   3.234
 1367SOL    HW1 4122   0.862   4.725   3.142
 1367SOL    HW2 4123   0.832   4.818   3.274
 1368SOL     OW 4124   0.916   4.634   2.153
 1368SOL    HW1 4125   0.979   4.672   2.085
 1368SOL    HW2 4126   0.956   4.551   2.192
 1369SOL     OW 4127   0.372   5.012   3.352
 1369SOL    HW1 4128   0.359   5.105   3.318
 1369SOL    HW2 4129   0.288   4.960   3.339
 1370SOL     OW 4130   1.014   3.960   2.833
 1370SOL    HW1 4131   1.006   3.924   2.740
 1370SOL    HW2 4132   1.012   3.884   2.898
 1371SOL     OW 4133   1.709   4.109   3.243
 1371SOL    HW1 4134   1.782   4.178   3.247
 1371SOL    HW2 4135   1.737   4.034   3.184
 1372SOL     OW 4136   0.105   4.737   3.588
 1372SOL    HW1 4137   0.028   4.704   3.642
 1372SOL    HW2 4138   0.190   4.707   3.630
 1373SOL     OW 4139   0.672   3.927   3.351
 1373SOL    HW1 4140   0.762   3.911   3.311
 1373SOL    HW2 4141   0.680   3.932   3.450
 1374SOL     OW 4142   0.075   4.069   1.895
 1374SOL    HW1 4143  -0.017   4.041   1.866
 1374SOL    HW2 4144   0.106   4.146   1.839
 1375SOL     OW 4145   1.440   4.580   3.260
 1375SOL    HW1 4146   1.383   4.632   3.197
 1375SOL    HW2 4147   1.536   4.592   3.236
 1376SOL     OW 4148   0.072   3.890   2.180
 1376SOL    HW1 4149   0.055   3.973   2.126
 1376SOL    HW2 4150   0.162   3.853   2.158
 1377SOL     OW 4151   1.183   5.059   1.981
 1377SOL    HW1 4152   1.084   5.048   1.983
 1377SOL    HW2 4153   1.217   5.074   2.074
 1378SOL     OW 4154   0.613   4.566   3.293
 1378SOL    HW1 4155   0.669   4.647   3.276
 1378SOL    HW2 4156   0.672   4.486   3.296
 1379SOL     OW 4157   0.716   4.289   3.570
 1379SOL    HW1 4158   0.735   4.354   3.644
 1379SOL    HW2 4159   0.776   4.209   3.579
 1380SOL     OW 4160   1.450   4.944   3.495
 1380SOL    HW1 4161   1.441   4.934   3.594
 1380SOL    HW2 4162   1.546   4.937   3.469
 1381SOL     OW 4163   1.674   4.607   3.116
 1381SOL    HW1 4164   1.647   4.518   3.079
 1381SOL    HW2 4165   1.675   4.675   3.043
 1382SOL     OW 4166   1.225   4.049   2.311
 1382SOL    HW1 4167   1.290   3.975   2.300
 1382SOL    HW2 4168   1.245   4.099   2.395
 1383SOL     OW 4169   0.594   4.469   2.514
 1383SOL    HW1 4170   0.644   4.554   2.495
 1383SOL    HW2 4171   0.506   4.471   2.466
 1384SOL     OW 4172   1.777   4.066   3.504
 1384SOL    HW1 4173   1.760   4.097   3.410
 1384SOL    HW2 4174   1.693   4.029   3.542
 1385SOL     OW 4175   1.730   4.658   3.379
 1385SOL    HW1 4176   1.768   4.749   3.394
 1385SOL    HW2 4177   1.722   4.641   3.280
 1386SOL     OW 4178   0.859   4.680   2.723
 1386SOL    HW1 4179   0.913   4.611   2.771
 1386SOL    HW2 4180   0.827   4.749   2.789
 1387SOL     OW 4181   1.083   4.708   1.949
 1387SOL    HW1 4182   1.060   4.761   1.867
 1387SOL    HW2 4183   1.164   4.652   1.930
 1388SOL     OW 4184   0.079   4.964   2.515
 1388SOL    HW1 4185   0.078   4.917   2.603
 1388SOL    HW2 4186   0.161   4.936   2.464
 1389SOL     OW 4187   1.824   3.916   3.089
 1389SOL    HW1 4188   1.820   3.826   3.133
 1389SOL    HW2 4189   1.827   3.905   2.990
 1390SOL     OW 4190   0.428   4.148   2.382
 1390SOL    HW1 4191   0.458   4.076   2.320
 1390SOL    HW2 4192   0.389   4.108   2.465
 1391SOL     OW 4193   0.317   4.271   3.142
 1391SOL    HW1 4194   0.355   4.212   3.214
 1391SOL    HW2 4195   0.357   4.245   3.054
 1392SOL     OW 4196   1.424   3.938   2.974
 1392SOL    HW1 4197   1.476   3.873   3.029
 1392SOL    HW2 4198   1.375   4.001   3.035
 1393SOL     OW 4199   1.001   3.758   3.016
 1393SOL    HW1 4200   0.938   3.686   2.985
 1393SOL    HW2 4201   1.094   3.722   3.016
 1394SOL     OW 4202   0.770   5.054   2.163
 1394SOL    HW1 4203   0.724   4.967   2.180
 1394SOL    HW2 4204   0.861   5.051   2.204
 1395SOL     OW 4205   1.352   3.776   2.030
 1395SOL    HW1 4206   1.387   3.735   1.946
 1395SOL    HW2 4207   1.262   3.738   2.050
 1396SOL     OW 4208   1.300   4.177   2.553
 1396SOL    HW1 4209   1.241   4.257   2.557
 1396SOL    HW2 4210   1.315   4.142   2.646
 1397SOL     OW 4211   1.593   3.945   2.744
 1397SOL    HW1 4212   1.509   3.944   2.798
 1397SOL    HW2 4213   1.595   4.028   2.688
 1398SOL     OW 4214   0.039   4.801   2.162
 1398SOL    HW1 4215   0.138   4.790   2.153
 1398SOL    HW2 4216  -0.001   4.715   2.194
 1399SOL     OW 4217   0.230   4.352   3.837
 1399SOL    HW1 4218   0.137   4.350   3.874
 1399SOL    HW2 4219   0.231   4.313   3.745
 1400SOL     OW 4220   0.225   3.999   4.720
 1400SOL    HW1 4221   0.260   3.982   4.812
 1400SOL    HW2 4222   0.137   3.954   4.708
 1401SOL     OW 4223   0.019   4.092   4.371
 1401SOL    HW1 4224  -0.063   4.135   4.410
 1401SOL    HW2 4225  -0.009   4.019   4.308
 1402SOL     OW 4226   1.135   4.427   4.441
 1402SOL    HW1 4227   1.192   4.505   4.416
 1402SOL    HW2 4228   1.075   4.453   4.517
 1403SOL     OW 4229   1.755   4.331   3.955
 1403SOL    HW1 4230   1.743   4.318   3.856
 1403SOL    HW2 4231   1.725   4.250   4.004
 1404SOL     OW 4232   0.768   4.868   4.747
 1404SOL    HW1 4233   0.690   4.885   4.807
 1404SOL    HW2 4234   0.802   4.955   4.711
 1405SOL     OW 4235   0.685   4.736   4.389
 1405SOL    HW1 4236   0.754   4.720   4.459
 1405SOL    HW2 4237   0.612   4.793   4.427
 1406SOL     OW 4238   1.603   4.171   4.461
 1406SOL    HW1 4239   1.529   4.217   4.411
 1406SOL    HW2 4240   1.654   4.239   4.514
 1407SOL     OW 4241   0.240   4.815   4.610
 1407SOL    HW1 4242   0.254   4.731   4.662
 1407SOL    HW2 4243   0.185   4.879   4.665
 1408SOL     OW 4244   0.606   4.688   3.847
 1408SOL    HW1 4245   0.613   4.772   3.793
 1408SOL    HW2 4246   0.652   4.701   3.935
 1409SOL     OW 4247   0.122   4.367   4.287
 1409SOL    HW1 4248   0.077   4.279   4.304
 1409SOL    HW2 4249   0.121   4.421   4.371
 1410SOL     OW 4250   1.689   4.646   4.336
 1410SOL    HW1 4251   1.784   4.617   4.344
 1410SOL    HW2 4252   1.681   4.711   4.261
 1411SOL     OW 4253   0.613   5.089   4.450
 1411SOL    HW1 4254   0.564   5.002   4.459
 1411SOL    HW2 4255   0.590   5.132   4.363
 1412SOL     OW 4256   0.809   3.728   4.226
 1412SOL    HW1 4257   0.849   3.819   4.217
 1412SOL    HW2 4258   0.709   3.736   4.232
 1413SOL     OW 4259   0.197   4.700   4.988
 1413SOL    HW1 4260   0.286   4.655   4.974
 1413SOL    HW2 4261   0.124   4.635   4.969
 1414SOL     OW 4262   1.525   4.723   3.914
 1414SOL    HW1 4263   1.462   4.647   3.927
 1414SOL    HW2 4264   1.573   4.741   4.000
 1415SOL     OW 4265   0.598   4.453   3.994
 1415SOL    HW1 4266   0.622   4.522   3.926
 1415SOL    HW2 4267   0.520   4.486   4.048
 1416SOL     OW 4268   1.281   4.069   4.668
 1416SOL    HW1 4269   1.195   4.019   4.655
 1416SOL    HW2 4270   1.343   4.015   4.724
 1417SOL     OW 4271   1.041   4.425   4.153
 1417SOL    HW1 4272   1.067   4.421   4.249
 1417SOL    HW2 4273   0.956   4.374   4.139
 1418SOL     OW 4274   0.076   4.535   4.513
 1418SOL    HW1 4275   0.175   4.523   4.522
 1418SOL    HW2 4276   0.052   4.630   4.534
 1419SOL     OW 4277   0.865   4.072   3.919
 1419SOL    HW1 4278   0.924   4.135   3.870
 1419SOL    HW2 4279   0.884   3.978   3.890
 1420SOL     OW 4280   0.550   3.920   4.609
 1420SOL    HW1 4281   0.545   3.915   4.709
 1420SOL    HW2 4282   0.552   4.016   4.580
 1421SOL     OW 4283   1.795   4.790   4.597
 1421SOL    HW1 4284   1.733   4.775   4.521
 1421SOL    HW2 4285   1.743   4.801   4.682
 1422SOL     OW 4286   0.321   4.667   3.966
 1422SOL    HW1 4287   0.403   4.706   3.924
 1422SOL    HW2 4288   0.294   4.585   3.917
 1423SOL     OW 4289   1.458   4.459   4.452
 1423SOL    HW1 4290   1.453   4.394   4.527
 1423SOL    HW2 4291   1.538   4.518   4.465
 1424SOL     OW 4292   1.400   3.831   4.150
 1424SOL    HW1 4293   1.376   3.794   4.060
 1424SOL    HW2 4294   1.499   3.847   4.154
 1425SOL     OW 4295   0.382   4.424   4.204
 1425SOL    HW1 4296   0.427   4.334   4.201
 1425SOL    HW2 4297   0.288   4.413   4.237
 1426SOL     OW 4298   0.614   3.846   3.841
 1426SOL    HW1 4299   0.712   3.824   3.848
 1426SOL    HW2 4300   0.583   3.829   3.748
 1427SOL     OW 4301   0.888   5.238   4.919
 1427SOL    HW1 4302   0.865   5.213   4.825
 1427SOL    HW2 4303   0.949   5.169   4.958
 1428SOL     OW 4304   0.922   4.227   4.623
 1428SOL    HW1 4305   0.897   4.218   4.527
 1428SOL    HW2 4306   0.970   4.145   4.654
 1429SOL     OW 4307   0.539   3.788   4.236
 1429SOL    HW1 4308   0.458   3.789   4.294
 1429SOL    HW2 4309   0.542   3.871   4.181
 1430SOL     OW 4310   0.297   3.759   3.895
 1430SOL    HW1 4311   0.346   3.843   3.874
 1430SOL    HW2 4312   0.359   3.694   3.940
 1431SOL     OW 4313   0.935   3.960   4.204
 1431SOL    HW1 4314   0.887   4.001   4.126
 1431SOL    HW2 4315   1.034   3.958   4.185
 1432SOL     OW 4316   0.459   4.876   4.465
 1432SOL    HW1 4317   0.388   4.849   4.530
 1432SOL    HW2 4318   0.433   4.848   4.372
 1433SOL     OW 4319   1.032   4.273   3.740
 1433SOL    HW1 4320   0.991   4.355   3.701
 1433SOL    HW2 4321   1.096   4.299   3.813
 1434SOL     OW 4322   0.866   4.178   4.366
 1434SOL    HW1 4323   0.834   4.250   4.304
 1434SOL    HW2 4324   0.890   4.097   4.313
 1435SOL     OW 4325   1.017   3.763   4.477
 1435SOL    HW1 4326   0.945   3.768   4.408
 1435SOL    HW2 4327   0.993   3.694   4.546
 1436SOL     OW 4328   1.429   4.897   4.591
 1436SOL    HW1 4329   1.374   4.813   4.584
 1436SOL    HW2 4330   1.455   4.926   4.499
 1437SOL     OW 4331   1.466   4.314   4.716
 1437SOL    HW1 4332   1.436   4.219   4.723
 1437SOL    HW2 4333   1.539   4.330   4.782
 1438SOL     OW 4334   1.857   4.557   4.101
 1438SOL    HW1 4335   1.899   4.493   4.165
 1438SOL    HW2 4336   1.819   4.506   4.023
 1439SOL     OW 4337   1.390   4.299   3.802
 1439SOL    HW1 4338   1.336   4.278   3.883
 1439SOL    HW2 4339   1.481   4.258   3.811
 1440SOL     OW 4340   0.527   3.980   4.052
 1440SOL    HW1 4341   0.554   3.921   3.977
 1440SOL    HW2 4342   0.527   4.075   4.021
 1441SOL     OW 4343   1.111   4.919   4.824
 1441SOL    HW1 4344   1.071   4.963   4.905
 1441SOL    HW2 4345   1.070   4.956   4.741
 1442SOL     OW 4346   1.638   4.823   4.803
 1442SOL    HW1 4347   1.643   4.904   4.862
 1442SOL    HW2 4348   1.552   4.825   4.752
 1443SOL     OW 4349   0.705   4.774   4.092
 1443SOL    HW1 4350   0.691   4.781   4.191
 1443SOL    HW2 4351   0.789   4.723   4.074
 1444SOL     OW 4352   0.410   4.537   4.975
 1444SOL    HW1 4353   0.496   4.549   5.025
 1444SOL    HW2 4354   0.368   4.450   5.002
 1445SOL     OW 4355   0.367   4.824   4.225
 1445SOL    HW1 4356   0.360   4.907   4.169
 1445SOL    HW2 4357   0.371   4.744   4.165
 1446SOL     OW 4358   0.566   4.261   4.589
 1446SOL    HW1 4359   0.578   4.327   4.515
 1446SOL    HW2 4360   0.612   4.295   4.672
 1447SOL     OW 4361   1.582   4.363   4.196
 1447SOL    HW1 4362   1.551   4.424   4.269
 1447SOL    HW2 4363   1.632   4.415   4.127
 1448SOL     OW 4364   0.573   4.594   4.753
 1448SOL    HW1 4365   0.617   4.683   4.744
 1448SOL    HW2 4366   0.510   4.594   4.830
 1449SOL     OW 4367   1.209   4.249   3.999
 1449SOL    HW1 4368   1.222   4.165   4.053
 1449SOL    HW2 4369   1.180   4.323   4.059
 1450SOL     OW 4370   0.307   3.937   4.955
 1450SOL    HW1 4371   0.284   3.974   5.045
 1450SOL    HW2 4372   0.277   3.842   4.949
 1451SOL     OW 4373   0.732   4.358   4.788
 1451SOL    HW1 4374   0.791   4.332   4.712
 1451SOL    HW2 4375   0.704   4.454   4.777
 1452SOL     OW 4376   0.307   3.787   4.342
 1452SOL    HW1 4377   0.296   3.881   4.375
 1452SOL    HW2 4378   0.302   3.724   4.419
 1453SOL     OW 4379   1.622   4.091   4.098
 1453SOL    HW1 4380   1.624   4.015   4.162
 1453SOL    HW2 4381   1.574   4.168   4.138
 1454SOL     OW 4382   1.023   4.490   4.690
 1454SOL    HW1 4383   1.038   4.511   4.786
 1454SOL    HW2 4384   0.993   4.395   4.681
 1455SOL     OW 4385   1.540   3.998   3.849
 1455SOL    HW1 4386   1.479   3.923   3.872
 1455SOL    HW2 4387   1.562   4.050   3.932
 1456SOL     OW 4388   1.303   4.562   3.766
 1456SOL    HW1 4389   1.337   4.469   3.781
 1456SOL    HW2 4390   1.321   4.589   3.671
 1457SOL     OW 4391   0.319   4.534   4.673
 1457SOL    HW1 4392   0.412   4.570   4.678
 1457SOL    HW2 4393   0.313   4.449   4.725
 1458SOL     OW 4394   0.339   4.233   4.730
 1458SOL    HW1 4395   0.287   4.150   4.713
 1458SOL    HW2 4396   0.416   4.238   4.666
 1459SOL     OW 4397   1.002   4.520   4.962
 1459SOL    HW1 4398   1.043   4.488   5.048
 1459SOL    HW2 4399   0.906   4.493   4.959
 1460SOL     OW 4400   0.815   4.296   4.049
 1460SOL    HW1 4401   0.822   4.207   4.003
 1460SOL    HW2 4402   0.721   4.330   4.041
 1461SOL     OW 4403   0.671   4.188   4.993
 1461SOL    HW1 4404   0.637   4.099   4.963
 1461SOL    HW2 4405   0.697   4.242   4.913
 1462SOL     OW 4406   0.473   4.224   3.915
 1462SOL    HW1 4407   0.534   4.304   3.919
 1462SOL    HW2 4408   0.378   4.255   3.922
 1463SOL     OW 4409   1.347   4.783   4.958
 1463SOL    HW1 4410   1.371   4.720   4.884
 1463SOL    HW2 4411   1.257   4.823   4.940
 1464SOL     OW 4412   1.302   4.579   4.033
 1464SOL    HW1 4413   1.216   4.548   4.075
 1464SOL    HW2 4414   1.298   4.565   3.934
 1465SOL     OW 4415   0.083   4.982   4.746
 1465SOL    HW1 4416   0.078   4.981   4.846
 1465SOL    HW2 4417   0.000   4.941   4.708
 1466SOL     OW 4418   1.726   3.859   4.247
 1466SOL    HW1 4419   1.799   3.842   4.180
 1466SOL    HW2 4420   1.695   3.772   4.285
 1467SOL     OW 4421   1.280   4.651   4.396
 1467SOL    HW1 4422   1.340   4.570   4.398
 1467SOL    HW2 4423   1.320   4.720   4.336
 1468SOL     OW 4424   1.841   3.899   4.687
 1468SOL    HW1 4425   1.880   3.814   4.651
 1468SOL    HW2 4426   1.743   3.901   4.668
 1469SOL     OW 4427   0.263   4.050   4.444
 1469SOL    HW1 4428   0.184   4.101   4.410
 1469SOL    HW2 4429   0.254   4.035   4.542
 1470SOL     OW 4430   0.822   4.726   5.096
 1470SOL    HW1 4431   0.862   4.725   5.004
 1470SOL    HW2 4432   0.832   4.818   5.136
 1471SOL     OW 4433   0.916   4.634   4.015
 1471SOL    HW1 4434   0.979   4.672   3.947
 1471SOL    HW2 4435   0.956   4.551   4.054
 1472SOL     OW 4436   1.014   3.960   4.695
 1472SOL    HW1 4437   1.006   3.924   4.602
 1472SOL    HW2 4438   1.012   3.884   4.760
 1473SOL     OW 4439   0.075   4.069   3.757
 1473SOL    HW1 4440  -0.017   4.041   3.728
 1473SOL    HW2 4441   0.106   4.146   3.701
 1474SOL     OW 4442   0.072   3.890   4.042
 1474SOL    HW1 4443   0.055   3.973   3.988
 1474SOL    HW2 4444   0.162   3.853   4.020
 1475SOL     OW 4445   1.183   5.059   3.843
 1475SOL    HW1 4446   1.084   5.048   3.845
 1475SOL    HW2 4447   1.217   5.074   3.936
 1476SOL     OW 4448   1.674   4.607   4.978
 1476SOL    HW1 4449   1.647   4.518   4.941
 1476SOL    HW2 4450   1.675   4.675   4.905
 1477SOL     OW 4451   1.225   4.049   4.173
 1477SOL    HW1 4452   1.290   3.975   4.162
 1477SOL    HW2 4453   1.245   4.099   4.257
 1478SOL     OW 4454   0.594   4.469   4.376
 1478SOL    HW1 4455   0.644   4.554   4.357
 1478SOL    HW2 4456   0.506   4.471   4.328
 1479SOL     OW 4457   0.859   4.680   4.585
 1479SOL    HW1 4458   0.913   4.611   4.633
 1479SOL    HW2 4459   0.827   4.749   4.651
 1480SOL     OW 4460   1.083   4.708   3.811
 1480SOL    HW1 4461   1.060   4.761   3.729
 1480SOL    HW2 4462   1.164   4.652   3.792
 1481SOL     OW 4463   0.079   4.964   4.377
 1481SOL    HW1 4464   0.078   4.917   4.465
 1481SOL    HW2 4465   0.161   4.936   4.326
 1482SOL     OW 4466   1.824   3.916   4.951
 1482SOL    HW1 4467   1.820   3.826   4.995
 1482SOL    HW2 4468   1.827   3.905   4.852
 1483SOL     OW 4469   0.428   4.148   4.244
 1483SOL    HW1 4470   0.458   4.076   4.182
 1483SOL    HW2 4471   0.389   4.108   4.327
 1484SOL     OW 4472   1.424   3.938   4.836
 1484SOL    HW1 4473   1.476   3.873   4.891
 1484SOL    HW2 4474   1.375   4.001   4.897
 1485SOL     OW 4475   0.770   5.054   4.025
 1485SOL    HW1 4476   0.724   4.967   4.042
 1485SOL    HW2 4477   0.861   5.051   4.066
 1486SOL     OW 4478   1.352   3.776   3.892
 1486SOL    HW1 4479   1.387   3.735   3.808
 1486SOL    HW2 4480   1.262   3.738   3.912
 1487SOL     OW 4481   1.300   4.177   4.415
 1487SOL    HW1 4482   1.241   4.257   4.419
 1487SOL    HW2 4483   1.315   4.142   4.508
 1488SOL     OW 4484   1.593   3.945   4.606
 1488SOL    HW1 4485   1.509   3.944   4.660
 1488SOL    HW2 4486   1.595   4.028   4.550
 1489SOL     OW 4487   0.039   4.801   4.024
 1489SOL    HW1 4488   0.138   4.790   4.015
 1489SOL    HW2 4489  -0.001   4.715   4.056
 1490SOL     OW 4490   2.092   0.628   0.113
 1490SOL    HW1 4491   1.999   0.626   0.150
 1490SOL    HW2 4492   2.093   0.589   0.021
 1491SOL     OW 4493   2.087   0.275   0.996
 1491SOL    HW1 4494   2.122   0.258   1.088
 1491SOL    HW2 4495   1.999   0.230   0.984
 1492SOL     OW 4496   1.881   0.368   0.647
 1492SOL    HW1 4497   1.799   0.411   0.686
 1492SOL    HW2 4498   1.853   0.295   0.584
 1493SOL     OW 4499   2.431   1.275   1.165
 1493SOL    HW1 4500   2.338   1.268   1.128
 1493SOL    HW2 4501   2.442   1.364   1.209
 1494SOL     OW 4502   3.417   1.511   0.703
 1494SOL    HW1 4503   3.360   1.495   0.784
 1494SOL    HW2 4504   3.358   1.521   0.623
 1495SOL     OW 4505   2.997   0.703   0.717
 1495SOL    HW1 4506   3.054   0.781   0.692
 1495SOL    HW2 4507   2.937   0.729   0.793
 1496SOL     OW 4508   3.617   0.607   0.231
 1496SOL    HW1 4509   3.605   0.594   0.132
 1496SOL    HW2 4510   3.587   0.526   0.280
 1497SOL     OW 4511   2.630   1.144   1.023
 1497SOL    HW1 4512   2.552   1.161   1.083
 1497SOL    HW2 4513   2.664   1.231   0.987
 1498SOL     OW 4514   2.712   0.798   1.823
 1498SOL    HW1 4515   2.708   0.874   1.888
 1498SOL    HW2 4516   2.734   0.834   1.732
 1499SOL     OW 4517   2.547   1.012   0.665
 1499SOL    HW1 4518   2.616   0.996   0.735
 1499SOL    HW2 4519   2.474   1.069   0.703
 1500SOL     OW 4520   2.548   1.161   1.803
 1500SOL    HW1 4521   2.608   1.240   1.817
 1500SOL    HW2 4522   2.462   1.192   1.762
 1501SOL     OW 4523   2.197   1.435   1.061
 1501SOL    HW1 4524   2.119   1.404   1.008
 1501SOL    HW2 4525   2.255   1.493   1.004
 1502SOL     OW 4526   3.322   1.505   1.339
 1502SOL    HW1 4527   3.346   1.599   1.365
 1502SOL    HW2 4528   3.306   1.451   1.421
 1503SOL     OW 4529   2.300   0.392   1.499
 1503SOL    HW1 4530   2.382   0.336   1.508
 1503SOL    HW2 4531   2.219   0.334   1.503
 1504SOL     OW 4532   3.465   0.447   0.737
 1504SOL    HW1 4533   3.391   0.493   0.687
 1504SOL    HW2 4534   3.516   0.515   0.790
 1505SOL     OW 4535   2.093   1.713   0.483
 1505SOL    HW1 4536   2.127   1.790   0.537
 1505SOL    HW2 4537   2.137   1.713   0.393
 1506SOL     OW 4538   2.989   1.341   1.690
 1506SOL    HW1 4539   3.036   1.341   1.778
 1506SOL    HW2 4540   2.941   1.254   1.679
 1507SOL     OW 4541   2.092   1.434   0.538
 1507SOL    HW1 4542   2.066   1.530   0.538
 1507SOL    HW2 4543   2.021   1.380   0.583
 1508SOL     OW 4544   2.102   1.091   0.886
 1508SOL    HW1 4545   2.116   1.007   0.938
 1508SOL    HW2 4546   2.047   1.155   0.941
 1509SOL     OW 4547   2.482   1.786   1.439
 1509SOL    HW1 4548   2.390   1.769   1.474
 1509SOL    HW2 4549   2.510   1.878   1.465
 1510SOL     OW 4550   2.468   0.964   0.123
 1510SOL    HW1 4551   2.475   1.048   0.069
 1510SOL    HW2 4552   2.514   0.977   0.211
 1511SOL     OW 4553   3.456   0.114   1.480
 1511SOL    HW1 4554   3.438   0.181   1.408
 1511SOL    HW2 4555   3.453   0.160   1.569
 1512SOL     OW 4556   1.984   0.643   0.563
 1512SOL    HW1 4557   1.939   0.555   0.580
 1512SOL    HW2 4558   1.983   0.697   0.647
 1513SOL     OW 4559   3.704   1.767   0.359
 1513SOL    HW1 4560   3.758   1.738   0.439
 1513SOL    HW2 4561   3.734   1.857   0.330
 1514SOL     OW 4562   1.889   1.596   0.117
 1514SOL    HW1 4563   1.870   1.500   0.138
 1514SOL    HW2 4564   1.856   1.654   0.192
 1515SOL     OW 4565   3.551   0.922   0.612
 1515SOL    HW1 4566   3.646   0.893   0.620
 1515SOL    HW2 4567   3.543   0.987   0.537
 1516SOL     OW 4568   3.503   1.108   0.432
 1516SOL    HW1 4569   3.589   1.110   0.380
 1516SOL    HW2 4570   3.517   1.155   0.520
 1517SOL     OW 4571   1.975   0.737   1.597
 1517SOL    HW1 4572   2.063   0.724   1.642
 1517SOL    HW2 4573   1.962   0.834   1.575
 1518SOL     OW 4574   2.475   1.365   0.726
 1518SOL    HW1 4575   2.426   1.278   0.735
 1518SOL    HW2 4576   2.452   1.408   0.639
 1519SOL     OW 4577   3.155   1.228   1.423
 1519SOL    HW1 4578   3.192   1.155   1.365
 1519SOL    HW2 4579   3.207   1.233   1.508
 1520SOL     OW 4580   2.671   0.004   0.502
 1520SOL    HW1 4581   2.711   0.095   0.493
 1520SOL    HW2 4582   2.571   0.012   0.508
 1521SOL     OW 4583   2.059   0.976   1.264
 1521SOL    HW1 4584   2.148   0.931   1.250
 1521SOL    HW2 4585   1.986   0.911   1.245
 1522SOL     OW 4586   3.387   0.999   0.190
 1522SOL    HW1 4587   3.324   0.923   0.203
 1522SOL    HW2 4588   3.435   1.017   0.276
 1523SOL     OW 4589   3.049   1.792   1.616
 1523SOL    HW1 4590   3.073   1.852   1.540
 1523SOL    HW2 4591   3.056   1.697   1.586
 1524SOL     OW 4592   2.179   0.251   1.801
 1524SOL    HW1 4593   2.250   0.322   1.807
 1524SOL    HW2 4594   2.091   0.290   1.829
 1525SOL     OW 4595   3.328   1.417   0.953
 1525SOL    HW1 4596   3.269   1.423   1.033
 1525SOL    HW2 4597   3.313   1.329   0.907
 1526SOL     OW 4598   3.529   1.714   0.572
 1526SOL    HW1 4599   3.488   1.691   0.484
 1526SOL    HW2 4600   3.511   1.640   0.637
 1527SOL     OW 4601   2.460   0.729   0.270
 1527SOL    HW1 4602   2.484   0.798   0.202
 1527SOL    HW2 4603   2.382   0.762   0.324
 1528SOL     OW 4604   3.143   0.345   0.944
 1528SOL    HW1 4605   3.057   0.295   0.931
 1528SOL    HW2 4606   3.205   0.291   1.000
 1529SOL     OW 4607   3.438   1.662   0.307
 1529SOL    HW1 4608   3.527   1.708   0.310
 1529SOL    HW2 4609   3.417   1.638   0.212
 1530SOL     OW 4610   2.669   0.605   1.465
 1530SOL    HW1 4611   2.622   0.602   1.554
 1530SOL    HW2 4612   2.618   0.550   1.399
 1531SOL     OW 4613   3.256   0.469   1.674
 1531SOL    HW1 4614   3.236   0.512   1.762
 1531SOL    HW2 4615   3.334   0.407   1.683
 1532SOL     OW 4616   2.835   0.890   1.572
 1532SOL    HW1 4617   2.881   0.806   1.543
 1532SOL    HW2 4618   2.779   0.924   1.497
 1533SOL     OW 4619   2.853   0.410   1.242
 1533SOL    HW1 4620   2.776   0.444   1.296
 1533SOL    HW2 4621   2.819   0.359   1.163
 1534SOL     OW 4622   2.903   0.701   0.429
 1534SOL    HW1 4623   2.929   0.697   0.525
 1534SOL    HW2 4624   2.818   0.650   0.415
 1535SOL     OW 4625   1.938   0.811   0.789
 1535SOL    HW1 4626   2.037   0.799   0.798
 1535SOL    HW2 4627   1.914   0.906   0.810
 1536SOL     OW 4628   1.992   1.821   1.571
 1536SOL    HW1 4629   1.982   1.806   1.670
 1536SOL    HW2 4630   1.906   1.857   1.535
 1537SOL     OW 4631   2.727   0.348   0.195
 1537SOL    HW1 4632   2.786   0.411   0.146
 1537SOL    HW2 4633   2.746   0.254   0.166
 1538SOL     OW 4634   3.581   0.585   1.831
 1538SOL    HW1 4635   3.555   0.674   1.795
 1538SOL    HW2 4636   3.579   0.517   1.758
 1539SOL     OW 4637   3.224   1.144   0.545
 1539SOL    HW1 4638   3.307   1.115   0.497
 1539SOL    HW2 4639   3.175   1.211   0.489
 1540SOL     OW 4640   2.412   0.196   0.885
 1540SOL    HW1 4641   2.407   0.191   0.985
 1540SOL    HW2 4642   2.414   0.292   0.856
 1541SOL     OW 4643   2.870   1.456   0.477
 1541SOL    HW1 4644   2.824   1.528   0.425
 1541SOL    HW2 4645   2.866   1.476   0.575
 1542SOL     OW 4646   2.213   1.801   0.853
 1542SOL    HW1 4647   2.263   1.715   0.859
 1542SOL    HW2 4648   2.278   1.878   0.850
 1543SOL     OW 4649   3.657   1.066   0.873
 1543SOL    HW1 4650   3.595   1.051   0.797
 1543SOL    HW2 4651   3.605   1.077   0.958
 1544SOL     OW 4652   3.089   1.550   1.506
 1544SOL    HW1 4653   3.095   1.473   1.570
 1544SOL    HW2 4654   3.037   1.524   1.426
 1545SOL     OW 4655   2.183   0.943   0.242
 1545SOL    HW1 4656   2.265   0.982   0.200
 1545SOL    HW2 4657   2.156   0.861   0.193
 1546SOL     OW 4658   3.320   0.735   0.728
 1546SOL    HW1 4659   3.315   0.670   0.803
 1546SOL    HW2 4660   3.400   0.794   0.741
 1547SOL     OW 4661   2.323   1.266   1.727
 1547SOL    HW1 4662   2.273   1.267   1.641
 1547SOL    HW2 4663   2.260   1.248   1.803
 1548SOL     OW 4664   2.973   1.776   0.237
 1548SOL    HW1 4665   2.913   1.714   0.287
 1548SOL    HW2 4666   3.004   1.732   0.152
 1549SOL     OW 4667   2.064   0.285   1.498
 1549SOL    HW1 4668   1.984   0.345   1.485
 1549SOL    HW2 4669   2.054   0.236   1.584
 1550SOL     OW 4670   3.494   1.377   0.081
 1550SOL    HW1 4671   3.462   1.471   0.071
 1550SOL    HW2 4672   3.418   1.314   0.069
 1551SOL     OW 4673   2.326   1.743   0.323
 1551SOL    HW1 4674   2.359   1.782   0.409
 1551SOL    HW2 4675   2.402   1.736   0.258
 1552SOL     OW 4676   3.262   0.107   0.426
 1552SOL    HW1 4677   3.238   0.070   0.336
 1552SOL    HW2 4678   3.361   0.123   0.430
 1553SOL     OW 4679   2.111   1.785   1.241
 1553SOL    HW1 4680   2.168   1.720   1.291
 1553SOL    HW2 4681   2.095   1.752   1.148
 1554SOL     OW 4682   2.802   1.698   0.904
 1554SOL    HW1 4683   2.882   1.641   0.925
 1554SOL    HW2 4684   2.753   1.658   0.827
 1555SOL     OW 4685   2.244   0.700   0.480
 1555SOL    HW1 4686   2.289   0.610   0.477
 1555SOL    HW2 4687   2.150   0.689   0.513
 1556SOL     OW 4688   3.409   0.222   1.729
 1556SOL    HW1 4689   3.404   0.259   1.821
 1556SOL    HW2 4690   3.337   0.153   1.717
 1557SOL     OW 4691   2.476   0.122   0.117
 1557SOL    HW1 4692   2.574   0.100   0.124
 1557SOL    HW2 4693   2.445   0.105   0.024
 1558SOL     OW 4694   2.643   0.264   1.749
 1558SOL    HW1 4695   2.710   0.203   1.792
 1558SOL    HW2 4696   2.570   0.283   1.814
 1559SOL     OW 4697   2.750   1.514   1.195
 1559SOL    HW1 4698   2.727   1.489   1.101
 1559SOL    HW2 4699   2.811   1.445   1.234
 1560SOL     OW 4700   3.213   0.590   1.433
 1560SOL    HW1 4701   3.241   0.547   1.518
 1560SOL    HW2 4702   3.238   0.686   1.434
 1561SOL     OW 4703   2.665   1.402   0.924
 1561SOL    HW1 4704   2.755   1.416   0.882
 1561SOL    HW2 4705   2.594   1.404   0.853
 1562SOL     OW 4706   2.784   0.503   0.899
 1562SOL    HW1 4707   2.759   0.494   0.803
 1562SOL    HW2 4708   2.832   0.421   0.930
 1563SOL     OW 4709   2.401   0.064   0.512
 1563SOL    HW1 4710   2.320   0.065   0.570
 1563SOL    HW2 4711   2.404   0.147   0.457
 1564SOL     OW 4712   3.296   1.188   0.041
 1564SOL    HW1 4713   3.328   1.112   0.098
 1564SOL    HW2 4714   3.204   1.215   0.071
 1565SOL     OW 4715   2.159   0.035   0.171
 1565SOL    HW1 4716   2.208   0.119   0.150
 1565SOL    HW2 4717   2.221  -0.030   0.216
 1566SOL     OW 4718   2.797   0.236   0.480
 1566SOL    HW1 4719   2.749   0.277   0.402
 1566SOL    HW2 4720   2.896   0.234   0.461
 1567SOL     OW 4721   2.938   0.683   1.464
 1567SOL    HW1 4722   2.858   0.622   1.467
 1567SOL    HW2 4723   3.019   0.630   1.440
 1568SOL     OW 4724   3.089   1.570   0.793
 1568SOL    HW1 4725   3.110   1.644   0.728
 1568SOL    HW2 4726   3.157   1.570   0.866
 1569SOL     OW 4727   2.321   1.152   0.741
 1569SOL    HW1 4728   2.250   1.125   0.806
 1569SOL    HW2 4729   2.295   1.124   0.648
 1570SOL     OW 4730   3.133   1.797   0.591
 1570SOL    HW1 4731   3.177   1.861   0.527
 1570SOL    HW2 4732   3.083   1.849   0.661
 1571SOL     OW 4733   2.894   0.549   0.016
 1571SOL    HW1 4734   2.853   0.631  -0.023
 1571SOL    HW2 4735   2.958   0.575   0.089
 1572SOL     OW 4736   1.940   0.556   1.386
 1572SOL    HW1 4737   2.032   0.555   1.345
 1572SOL    HW2 4738   1.934   0.630   1.453
 1573SOL     OW 4739   2.423   0.222   1.147
 1573SOL    HW1 4740   2.461   0.138   1.184
 1573SOL    HW2 4741   2.335   0.241   1.191
 1574SOL     OW 4742   2.728   0.454   0.642
 1574SOL    HW1 4743   2.696   0.526   0.580
 1574SOL    HW2 4744   2.752   0.373   0.589
 1575SOL     OW 4745   2.879   0.039   0.753
 1575SOL    HW1 4746   2.807   0.044   0.684
 1575SOL    HW2 4747   2.855  -0.030   0.822
 1576SOL     OW 4748   3.291   1.173   0.867
 1576SOL    HW1 4749   3.236   1.089   0.860
 1576SOL    HW2 4750   3.317   1.202   0.775
 1577SOL     OW 4751   3.328   0.590   0.992
 1577SOL    HW1 4752   3.298   0.495   0.999
 1577SOL    HW2 4753   3.401   0.606   1.058
 1578SOL     OW 4754   3.719   0.833   0.377
 1578SOL    HW1 4755   3.761   0.769   0.441
 1578SOL    HW2 4756   3.681   0.782   0.299
 1579SOL     OW 4757   2.350   1.385   0.174
 1579SOL    HW1 4758   2.263   1.370   0.221
 1579SOL    HW2 4759   2.333   1.411   0.079
 1580SOL     OW 4760   3.526   1.280   0.657
 1580SOL    HW1 4761   3.625   1.288   0.671
 1580SOL    HW2 4762   3.481   1.364   0.688
 1581SOL     OW 4763   3.252   0.575   0.078
 1581SOL    HW1 4764   3.198   0.554   0.159
 1581SOL    HW2 4765   3.343   0.534   0.087
 1582SOL     OW 4766   2.389   0.256   0.328
 1582SOL    HW1 4767   2.416   0.197   0.253
 1582SOL    HW2 4768   2.389   0.351   0.297
 1583SOL     OW 4769   3.616   1.223   1.588
 1583SOL    HW1 4770   3.707   1.184   1.575
 1583SOL    HW2 4771   3.624   1.319   1.612
 1584SOL     OW 4772   2.926   1.347   1.340
 1584SOL    HW1 4773   2.846   1.324   1.395
 1584SOL    HW2 4774   3.009   1.321   1.389
 1585SOL     OW 4775   3.454   1.629   1.625
 1585SOL    HW1 4776   3.481   1.663   1.535
 1585SOL    HW2 4777   3.533   1.591   1.671
 1586SOL     OW 4778   2.973   1.195   1.100
 1586SOL    HW1 4779   2.933   1.239   1.181
 1586SOL    HW2 4780   2.932   1.232   1.017
 1587SOL     OW 4781   3.500   1.099   1.079
 1587SOL    HW1 4782   3.505   1.180   1.138
 1587SOL    HW2 4783   3.414   1.101   1.028
 1588SOL     OW 4784   2.777   0.089   1.402
 1588SOL    HW1 4785   2.802   0.069   1.307
 1588SOL    HW2 4786   2.849   0.145   1.444
 1589SOL     OW 4787   2.842   1.116   1.719
 1589SOL    HW1 4788   2.743   1.122   1.729
 1589SOL    HW2 4789   2.865   1.036   1.663
 1590SOL     OW 4790   2.567   1.050   0.368
 1590SOL    HW1 4791   2.553   1.057   0.467
 1590SOL    HW2 4792   2.651   0.999   0.350
 1591SOL     OW 4793   2.272   0.813   1.251
 1591SOL    HW1 4794   2.358   0.825   1.301
 1591SOL    HW2 4795   2.230   0.726   1.278
 1592SOL     OW 4796   3.136   0.386   1.262
 1592SOL    HW1 4797   3.157   0.460   1.326
 1592SOL    HW2 4798   3.047   0.403   1.219
 1593SOL     OW 4799   1.926   1.564   1.331
 1593SOL    HW1 4800   1.880   1.646   1.297
 1593SOL    HW2 4801   2.024   1.583   1.340
 1594SOL     OW 4802   2.229   1.100   0.501
 1594SOL    HW1 4803   2.222   1.183   0.445
 1594SOL    HW2 4804   2.233   1.020   0.441
 1595SOL     OW 4805   2.428   0.537   0.865
 1595SOL    HW1 4806   2.440   0.603   0.791
 1595SOL    HW2 4807   2.474   0.571   0.948
 1596SOL     OW 4808   3.114   1.348   0.388
 1596SOL    HW1 4809   3.164   1.425   0.428
 1596SOL    HW2 4810   3.019   1.350   0.420
 1597SOL     OW 4811   3.134   1.445   1.142
 1597SOL    HW1 4812   3.181   1.458   1.229
 1597SOL    HW2 4813   3.068   1.371   1.151
 1598SOL     OW 4814   3.444   0.639   0.472
 1598SOL    HW1 4815   3.413   0.700   0.545
 1598SOL    HW2 4816   3.494   0.691   0.403
 1599SOL     OW 4817   2.216   1.510   1.329
 1599SOL    HW1 4818   2.195   1.466   1.242
 1599SOL    HW2 4819   2.313   1.536   1.332
 1600SOL     OW 4820   2.264   0.751   1.598
 1600SOL    HW1 4821   2.332   0.806   1.551
 1600SOL    HW2 4822   2.304   0.663   1.625
 1601SOL     OW 4823   3.449   0.779   1.670
 1601SOL    HW1 4824   3.357   0.817   1.665
 1601SOL    HW2 4825   3.509   0.826   1.605
 1602SOL     OW 4826   2.875   0.105   1.770
 1602SOL    HW1 4827   2.881   0.190   1.718
 1602SOL    HW2 4828   2.907   0.029   1.713
 1603SOL     OW 4829   2.366   0.050   1.740
 1603SOL    HW1 4830   2.324  -0.007   1.670
 1603SOL    HW2 4831   2.300   0.119   1.772
 1604SOL     OW 4832   2.435   0.870   1.029
 1604SOL    HW1 4833   2.479   0.959   1.020
 1604SOL    HW2 4834   2.372   0.870   1.106
 1605SOL     OW 4835   3.222   0.862   1.045
 1605SOL    HW1 4836   3.147   0.862   0.979
 1605SOL    HW2 4837   3.259   0.770   1.054
 1606SOL     OW 4838   3.071   0.525   0.275
 1606SOL    HW1 4839   3.084   0.441   0.329
 1606SOL    HW2 4840   3.042   0.599   0.335
 1607SOL     OW 4841   2.169   0.213   1.231
 1607SOL    HW1 4842   2.146   0.250   1.321
 1607SOL    HW2 4843   2.139   0.118   1.225
 1608SOL     OW 4844   1.899   1.310   1.282
 1608SOL    HW1 4845   1.952   1.261   1.350
 1608SOL    HW2 4846   1.921   1.408   1.287
 1609SOL     OW 4847   2.594   0.634   1.064
 1609SOL    HW1 4848   2.653   0.608   0.988
 1609SOL    HW2 4849   2.566   0.730   1.053
 1610SOL     OW 4850   3.590   0.935   1.854
 1610SOL    HW1 4851   3.544   0.928   1.765
 1610SOL    HW2 4852   3.528   0.979   1.920
 1611SOL     OW 4853   2.169   0.063   0.618
 1611SOL    HW1 4854   2.158   0.157   0.651
 1611SOL    HW2 4855   2.164   0.000   0.695
 1612SOL     OW 4856   3.484   0.367   0.374
 1612SOL    HW1 4857   3.486   0.291   0.438
 1612SOL    HW2 4858   3.436   0.444   0.414
 1613SOL     OW 4859   2.885   0.766   0.966
 1613SOL    HW1 4860   2.900   0.787   1.062
 1613SOL    HW2 4861   2.855   0.671   0.957
 1614SOL     OW 4862   2.842   1.573   1.700
 1614SOL    HW1 4863   2.822   1.617   1.612
 1614SOL    HW2 4864   2.881   1.482   1.684
 1615SOL     OW 4865   3.721   1.518   1.605
 1615SOL    HW1 4866   3.735   1.545   1.510
 1615SOL    HW2 4867   3.804   1.540   1.658
 1616SOL     OW 4868   2.212   0.898   1.804
 1616SOL    HW1 4869   2.288   0.942   1.852
 1616SOL    HW2 4870   2.247   0.851   1.722
 1617SOL     OW 4871   3.402   0.274   0.125
 1617SOL    HW1 4872   3.341   0.199   0.148
 1617SOL    HW2 4873   3.424   0.326   0.208
 1618SOL     OW 4874   3.165   0.838   0.042
 1618SOL    HW1 4875   3.199   0.745   0.057
 1618SOL    HW2 4876   3.183   0.865  -0.053
 1619SOL     OW 4877   2.930   1.333   0.849
 1619SOL    HW1 4878   2.937   1.249   0.794
 1619SOL    HW2 4879   2.992   1.402   0.813
 1620SOL     OW 4880   2.181   0.810   0.949
 1620SOL    HW1 4881   2.274   0.846   0.954
 1620SOL    HW2 4882   2.175   0.725   1.001
 1621SOL     OW 4883   2.201   0.509   1.006
 1621SOL    HW1 4884   2.149   0.426   0.989
 1621SOL    HW2 4885   2.278   0.514   0.942
 1622SOL     OW 4886   3.000   0.380   1.678
 1622SOL    HW1 4887   2.955   0.443   1.742
 1622SOL    HW2 4888   3.093   0.411   1.661
 1623SOL     OW 4889   3.022   0.207   1.477
 1623SOL    HW1 4890   3.022   0.271   1.554
 1623SOL    HW2 4891   3.050   0.255   1.394
 1624SOL     OW 4892   1.870   1.326   0.200
 1624SOL    HW1 4893   1.777   1.347   0.169
 1624SOL    HW2 4894   1.880   1.227   0.213
 1625SOL     OW 4895   1.950   1.801   0.927
 1625SOL    HW1 4896   1.908   1.715   0.900
 1625SOL    HW2 4897   2.044   1.804   0.893
 1626SOL     OW 4898   2.366   1.568   0.910
 1626SOL    HW1 4899   2.432   1.642   0.919
 1626SOL    HW2 4900   2.410   1.489   0.868
 1627SOL     OW 4901   2.864   0.796   1.238
 1627SOL    HW1 4902   2.905   0.764   1.324
 1627SOL    HW2 4903   2.768   0.769   1.235
 1628SOL     OW 4904   1.902   0.544   1.114
 1628SOL    HW1 4905   1.987   0.511   1.073
 1628SOL    HW2 4906   1.915   0.559   1.212
 1629SOL     OW 4907   2.051   0.520   1.722
 1629SOL    HW1 4908   2.110   0.480   1.652
 1629SOL    HW2 4909   1.993   0.591   1.681
 1630SOL     OW 4910   3.231   0.950   1.660
 1630SOL    HW1 4911   3.270   1.039   1.680
 1630SOL    HW2 4912   3.241   0.930   1.563
 1631SOL     OW 4913   2.677   0.572   0.325
 1631SOL    HW1 4914   2.684   0.483   0.279
 1631SOL    HW2 4915   2.583   0.606   0.317
 1632SOL     OW 4916   3.519   0.604   1.206
 1632SOL    HW1 4917   3.481   0.535   1.268
 1632SOL    HW2 4918   3.601   0.568   1.162
 1633SOL     OW 4919   2.114   1.564   1.744
 1633SOL    HW1 4920   2.084   1.621   1.820
 1633SOL    HW2 4921   2.107   1.467   1.770
 1634SOL     OW 4922   2.533   0.464   1.269
 1634SOL    HW1 4923   2.499   0.375   1.239
 1634SOL    HW2 4924   2.559   0.518   1.189
 1635SOL     OW 4925   2.792   1.678   1.465
 1635SOL    HW1 4926   2.768   1.660   1.370
 1635SOL    HW2 4927   2.822   1.772   1.475
 1636SOL     OW 4928   2.335   0.500   0.191
 1636SOL    HW1 4929   2.396   0.580   0.195
 1636SOL    HW2 4930   2.240   0.531   0.198
 1637SOL     OW 4931   2.021   1.137   1.466
 1637SOL    HW1 4932   2.043   1.076   1.542
 1637SOL    HW2 4933   2.031   1.088   1.380
 1638SOL     OW 4934   3.209   1.059   1.234
 1638SOL    HW1 4935   3.233   0.996   1.160
 1638SOL    HW2 4936   3.119   1.099   1.216
 1639SOL     OW 4937   3.164   0.855   0.309
 1639SOL    HW1 4938   3.078   0.824   0.351
 1639SOL    HW2 4939   3.160   0.841   0.210
 1640SOL     OW 4940   3.621   1.747   1.154
 1640SOL    HW1 4941   3.682   1.777   1.081
 1640SOL    HW2 4942   3.583   1.658   1.132
 1641SOL     OW 4943   3.114   1.731   1.128
 1641SOL    HW1 4944   3.198   1.736   1.074
 1641SOL    HW2 4945   3.091   1.635   1.146
 1642SOL     OW 4946   1.945   1.258   1.022
 1642SOL    HW1 4947   1.940   1.257   1.122
 1642SOL    HW2 4948   1.862   1.217   0.984
 1643SOL     OW 4949   2.550   1.662   1.716
 1643SOL    HW1 4950   2.494   1.743   1.725
 1643SOL    HW2 4951   2.602   1.666   1.630
 1644SOL     OW 4952   2.765   0.086   0.133
 1644SOL    HW1 4953   2.816   0.087   0.047
 1644SOL    HW2 4954   2.821   0.044   0.204
 1645SOL     OW 4955   3.588   0.135   0.523
 1645SOL    HW1 4956   3.661   0.118   0.456
 1645SOL    HW2 4957   3.557   0.048   0.561
 1646SOL     OW 4958   3.250   1.573   0.477
 1646SOL    HW1 4959   3.317   1.585   0.403
 1646SOL    HW2 4960   3.210   1.662   0.500
 1647SOL     OW 4961   1.992   1.794   1.851
 1647SOL    HW1 4962   1.951   1.720   1.904
 1647SOL    HW2 4963   2.056   1.845   1.909
 1648SOL     OW 4964   3.142   0.927   0.672
 1648SOL    HW1 4965   3.202   0.846   0.674
 1648SOL    HW2 4966   3.182   0.996   0.612
 1649SOL     OW 4967   2.692   1.273   1.422
 1649SOL    HW1 4968   2.687   1.306   1.517
 1649SOL    HW2 4969   2.606   1.292   1.376
 1650SOL     OW 4970   2.534   1.616   0.154
 1650SOL    HW1 4971   2.543   1.626   0.055
 1650SOL    HW2 4972   2.494   1.527   0.175
 1651SOL     OW 4973   3.512   1.720   1.394
 1651SOL    HW1 4974   3.565   1.730   1.310
 1651SOL    HW2 4975   3.485   1.810   1.428
 1652SOL     OW 4976   3.703   0.175   0.963
 1652SOL    HW1 4977   3.742   0.090   0.927
 1652SOL    HW2 4978   3.605   0.177   0.944
 1653SOL     OW 4979   2.125   0.326   0.720
 1653SOL    HW1 4980   2.046   0.377   0.686
 1653SOL    HW2 4981   2.116   0.311   0.818
 1654SOL     OW 4982   3.056   1.612   0.031
 1654SOL    HW1 4983   3.062   1.519   0.068
 1654SOL    HW2 4984   2.997   1.612  -0.049
 1655SOL     OW 4985   2.684   1.002   1.372
 1655SOL    HW1 4986   2.724   1.001   1.280
 1655SOL    HW2 4987   2.694   1.094   1.412
 1656SOL     OW 4988   2.778   0.910   0.291
 1656SOL    HW1 4989   2.841   0.948   0.223
 1656SOL    HW2 4990   2.818   0.827   0.330
 1657SOL     OW 4991   3.366   1.607   0.044
 1657SOL    HW1 4992   3.274   1.644   0.051
 1657SOL    HW2 4993   3.404   1.627  -0.046
 1658SOL     OW 4994   2.234   1.288   1.490
 1658SOL    HW1 4995   2.221   1.381   1.456
 1658SOL    HW2 4996   2.150   1.236   1.477
 1659SOL     OW 4997   3.476   1.292   1.289
 1659SOL    HW1 4998   3.536   1.295   1.369
 1659SOL    HW2 4999   3.401   1.356   1.302
 1660SOL     OW 5000   2.901   1.098   0.696
 1660SOL    HW1 5001   2.831   1.051   0.750
 1660SOL    HW2 5002   2.960   1.030   0.653
 1661SOL     OW 5003   2.876   0.236   0.971
 1661SOL    HW1 5004   2.868   0.200   0.878
 1661SOL    HW2 5005   2.874   0.160   1.036
 1662SOL     OW 5006   2.452   1.487   0.491
 1662SOL    HW1 5007   2.494   1.429   0.421
 1662SOL    HW2 5008   2.408   1.566   0.447
 1663SOL     OW 5009   3.571   0.385   1.381
 1663SOL    HW1 5010   3.644   0.454   1.385
 1663SOL    HW2 5011   3.599   0.310   1.322
 1664SOL     OW 5012   2.117   1.348   0.290
 1664SOL    HW1 5013   2.021   1.349   0.263
 1664SOL    HW2 5014   2.129   1.401   0.374
 1665SOL     OW 5015   1.967   1.013   1.726
 1665SOL    HW1 5016   1.890   0.980   1.780
 1665SOL    HW2 5017   2.052   0.983   1.768
 1666SOL     OW 5018   2.534   0.203   1.489
 1666SOL    HW1 5019   2.624   0.187   1.449
 1666SOL    HW2 5020   2.542   0.208   1.588
 1667SOL     OW 5021   3.302   0.856   1.398
 1667SOL    HW1 5022   3.245   0.908   1.335
 1667SOL    HW2 5023   3.398   0.868   1.374
 1668SOL     OW 5024   1.934   0.166   0.318
 1668SOL    HW1 5025   1.917   0.249   0.264
 1668SOL    HW2 5026   2.024   0.129   0.296
 1669SOL     OW 5027   3.045   1.335   0.119
 1669SOL    HW1 5028   2.946   1.324   0.121
 1669SOL    HW2 5029   3.079   1.350   0.212
 1670SOL     OW 5030   2.475   0.842   1.431
 1670SOL    HW1 5031   2.531   0.923   1.414
 1670SOL    HW2 5032   2.534   0.762   1.434
 1671SOL     OW 5033   3.355   1.767   0.959
 1671SOL    HW1 5034   3.388   1.831   0.890
 1671SOL    HW2 5035   3.421   1.761   1.034
 1672SOL     OW 5036   2.578   0.565   1.708
 1672SOL    HW1 5037   2.597   0.630   1.782
 1672SOL    HW2 5038   2.638   0.485   1.717
 1673SOL     OW 5039   3.312   1.220   1.633
 1673SOL    HW1 5040   3.303   1.210   1.732
 1673SOL    HW2 5041   3.408   1.213   1.607
 1674SOL     OW 5042   2.252   1.741   1.560
 1674SOL    HW1 5043   2.161   1.782   1.558
 1674SOL    HW2 5044   2.245   1.647   1.592
 1675SOL     OW 5045   3.536   0.883   1.254
 1675SOL    HW1 5046   3.509   0.794   1.217
 1675SOL    HW2 5047   3.537   0.951   1.181
 1676SOL     OW 5048   3.087   0.325   0.449
 1676SOL    HW1 5049   3.152   0.251   0.438
 1676SOL    HW2 5050   3.107   0.375   0.533
 1677SOL     OW 5051   2.456   0.745   0.652
 1677SOL    HW1 5052   2.506   0.830   0.633
 1677SOL    HW2 5053   2.368   0.747   0.604
 1678SOL     OW 5054   3.639   0.342   1.642
 1678SOL    HW1 5055   3.622   0.373   1.548
 1678SOL    HW2 5056   3.555   0.305   1.680
 1679SOL     OW 5057   3.592   0.934   1.517
 1679SOL    HW1 5058   3.630   1.025   1.532
 1679SOL    HW2 5059   3.584   0.917   1.418
 1680SOL     OW 5060   2.721   1.374   0.016
 1680SOL    HW1 5061   2.675   1.389   0.104
 1680SOL    HW2 5062   2.765   1.459  -0.014
 1681SOL     OW 5063   2.523   1.790   0.953
 1681SOL    HW1 5064   2.477   1.878   0.940
 1681SOL    HW2 5065   2.622   1.802   0.946
 1682SOL     OW 5066   2.721   0.956   0.861
 1682SOL    HW1 5067   2.775   0.887   0.909
 1682SOL    HW2 5068   2.689   1.025   0.927
 1683SOL     OW 5069   2.945   0.984   0.087
 1683SOL    HW1 5070   2.922   1.037   0.005
 1683SOL    HW2 5071   3.026   0.928   0.068
 1684SOL     OW 5072   3.723   1.569   0.851
 1684SOL    HW1 5073   3.652   1.557   0.781
 1684SOL    HW2 5074   3.724   1.490   0.911
 1685SOL     OW 5075   2.083   1.314   1.844
 1685SOL    HW1 5076   2.018   1.241   1.823
 1685SOL    HW2 5077   2.087   1.328   1.942
 1686SOL     OW 5078   1.941   1.240   0.653
 1686SOL    HW1 5079   1.940   1.193   0.741
 1686SOL    HW2 5080   2.023   1.212   0.602
 1687SOL     OW 5081   2.534   1.391   1.624
 1687SOL    HW1 5082   2.456   1.341   1.662
 1687SOL    HW2 5083   2.531   1.486   1.655
 1688SOL     OW 5084   3.686   0.192   1.227
 1688SOL    HW1 5085   3.682   0.102   1.271
 1688SOL    HW2 5086   3.689   0.181   1.128
 1689SOL     OW 5087   2.290   0.424   0.520
 1689SOL    HW1 5088   2.320   0.352   0.458
 1689SOL    HW2 5089   2.251   0.384   0.603
 1690SOL     OW 5090   3.567   1.487   1.104
 1690SOL    HW1 5091   3.474   1.462   1.077
 1690SOL    HW2 5092   3.593   1.437   1.186
 1691SOL     OW 5093   2.179   0.547   1.280
 1691SOL    HW1 5094   2.217   0.488   1.352
 1691SOL    HW2 5095   2.219   0.521   1.192
 1692SOL     OW 5096   2.674   1.586   0.687
 1692SOL    HW1 5097   2.706   1.596   0.593
 1692SOL    HW2 5098   2.595   1.524   0.689
 1693SOL     OW 5099   3.286   0.214   1.112
 1693SOL    HW1 5100   3.338   0.149   1.167
 1693SOL    HW2 5101   3.237   0.277   1.173
 1694SOL     OW 5102   2.863   0.034   1.154
 1694SOL    HW1 5103   2.800  -0.038   1.123
 1694SOL    HW2 5104   2.956  -0.002   1.154
 1695SOL     OW 5105   2.632   1.330   0.301
 1695SOL    HW1 5106   2.586   1.243   0.318
 1695SOL    HW2 5107   2.723   1.327   0.342
 1696SOL     OW 5108   2.480   1.567   1.284
 1696SOL    HW1 5109   2.475   1.649   1.341
 1696SOL    HW2 5110   2.569   1.564   1.239
 1697SOL     OW 5111   3.214   0.052   0.168
 1697SOL    HW1 5112   3.249   0.011   0.084
 1697SOL    HW2 5113   3.124   0.014   0.188
 1698SOL     OW 5114   3.162   0.453   0.691
 1698SOL    HW1 5115   3.103   0.533   0.695
 1698SOL    HW2 5116   3.177   0.418   0.784
 1699SOL     OW 5117   3.455   0.221   0.882
 1699SOL    HW1 5118   3.371   0.220   0.936
 1699SOL    HW2 5119   3.457   0.304   0.826
 1700SOL     OW 5120   1.901   1.077   0.300
 1700SOL    HW1 5121   2.000   1.066   0.291
 1700SOL    HW2 5122   1.861   0.991   0.332
 1701SOL     OW 5123   2.737   1.646   0.337
 1701SOL    HW1 5124   2.660   1.611   0.283
 1701SOL    HW2 5125   2.705   1.717   0.399
 1702SOL     OW 5126   2.092   0.628   1.975
 1702SOL    HW1 5127   1.999   0.626   2.012
 1702SOL    HW2 5128   2.093   0.589   1.883
 1703SOL     OW 5129   2.087   0.275   2.858
 1703SOL    HW1 5130   2.122   0.258   2.950
 1703SOL    HW2 5131   1.999   0.230   2.846
 1704SOL     OW 5132   1.881   0.368   2.509
 1704SOL    HW1 5133   1.799   0.411   2.548
 1704SOL    HW2 5134   1.853   0.295   2.446
 1705SOL     OW 5135   2.431   1.275   3.027
 1705SOL    HW1 5136   2.338   1.268   2.990
 1705SOL    HW2 5137   2.442   1.364   3.071
 1706SOL     OW 5138   3.417   1.511   2.565
 1706SOL    HW1 5139   3.360   1.495   2.646
 1706SOL    HW2 5140   3.358   1.521   2.485
 1707SOL     OW 5141   2.997   0.703   2.579
 1707SOL    HW1 5142   3.054   0.781   2.554
 1707SOL    HW2 5143   2.937   0.729   2.655
 1708SOL     OW 5144   3.617   0.607   2.093
 1708SOL    HW1 5145   3.605   0.594   1.994
 1708SOL    HW2 5146   3.587   0.526   2.142
 1709SOL     OW 5147   2.630   1.144   2.885
 1709SOL    HW1 5148   2.552   1.161   2.945
 1709SOL    HW2 5149   2.664   1.231   2.849
 1710SOL     OW 5150   2.712   0.798   3.685
 1710SOL    HW1 5151   2.708   0.874   3.750
 1710SOL    HW2 5152   2.734   0.834   3.594
 1711SOL     OW 5153   2.547   1.012   2.527
 1711SOL    HW1 5154   2.616   0.996   2.597
 1711SOL    HW2 5155   2.474   1.069   2.565
 1712SOL     OW 5156   2.548   1.161   3.665
 1712SOL    HW1 5157   2.608   1.240   3.679
 1712SOL    HW2 5158   2.462   1.192   3.624
 1713SOL     OW 5159   2.197   1.435   2.923
 1713SOL    HW1 5160   2.119   1.404   2.870
 1713SOL    HW2 5161   2.255   1.493   2.866
 1714SOL     OW 5162   3.322   1.505   3.201
 1714SOL    HW1 5163   3.346   1.599   3.227
 1714SOL    HW2 5164   3.306   1.451   3.283
 1715SOL     OW 5165   2.300   0.392   3.361
 1715SOL    HW1 5166   2.382   0.336   3.370
 1715SOL    HW2 5167   2.219   0.334   3.365
 1716SOL     OW 5168   3.465   0.447   2.599
 1716SOL    HW1 5169   3.391   0.493   2.549
 1716SOL    HW2 5170   3.516   0.515   2.652
 1717SOL     OW 5171   2.093   1.713   2.345
 1717SOL    HW1 5172   2.127   1.790   2.399
 1717SOL    HW2 5173   2.137   1.713   2.255
 1718SOL     OW 5174   2.989   1.341   3.552
 1718SOL    HW1 5175   3.036   1.341   3.640
 1718SOL    HW2 5176   2.941   1.254   3.541
 1719SOL     OW 5177   2.092   1.434   2.400
 1719SOL    HW1 5178   2.066   1.530   2.400
 1719SOL    HW2 5179   2.021   1.380   2.445
 1720SOL     OW 5180   2.102   1.091   2.748
 1720SOL    HW1 5181   2.116   1.007   2.800
 1720SOL    HW2 5182   2.047   1.155   2.803
 1721SOL     OW 5183   2.482   1.786   3.301
 1721SOL    HW1 5184   2.390   1.769   3.336
 1721SOL    HW2 5185   2.510   1.878   3.327
 1722SOL     OW 5186   2.468   0.964   1.985
 1722SOL    HW1 5187   2.475   1.048   1.931
 1722SOL    HW2 5188   2.514   0.977   2.073
 1723SOL     OW 5189   3.456   0.114   3.342
 1723SOL    HW1 5190   3.438   0.181   3.270
 1723SOL    HW2 5191   3.453   0.160   3.431
 1724SOL     OW 5192   1.984   0.643   2.425
 1724SOL    HW1 5193   1.939   0.555   2.442
 1724SOL    HW2 5194   1.983   0.697   2.509
 1725SOL     OW 5195   3.704   1.767   2.221
 1725SOL    HW1 5196   3.758   1.738   2.301
 1725SOL    HW2 5197   3.734   1.857   2.192
 1726SOL     OW 5198   1.889   1.596   1.979
 1726SOL    HW1 5199   1.870   1.500   2.000
 1726SOL    HW2 5200   1.856   1.654   2.054
 1727SOL     OW 5201   3.551   0.922   2.474
 1727SOL    HW1 5202   3.646   0.893   2.482
 1727SOL    HW2 5203   3.543   0.987   2.399
 1728SOL     OW 5204   3.503   1.108   2.294
 1728SOL    HW1 5205   3.589   1.110   2.242
 1728SOL    HW2 5206   3.517   1.155   2.382
 1729SOL     OW 5207   1.975   0.737   3.459
 1729SOL    HW1 5208   2.063   0.724   3.504
 1729SOL    HW2 5209   1.962   0.834   3.437
 1730SOL     OW 5210   2.475   1.365   2.588
 1730SOL    HW1 5211   2.426   1.278   2.597
 1730SOL    HW2 5212   2.452   1.408   2.501
 1731SOL     OW 5213   3.155   1.228   3.285
 1731SOL    HW1 5214   3.192   1.155   3.227
 1731SOL    HW2 5215   3.207   1.233   3.370
 1732SOL     OW 5216   2.671   0.004   2.364
 1732SOL    HW1 5217   2.711   0.095   2.355
 1732SOL    HW2 5218   2.571   0.012   2.370
 1733SOL     OW 5219   2.059   0.976   3.126
 1733SOL    HW1 5220   2.148   0.931   3.112
 1733SOL    HW2 5221   1.986   0.911   3.107
 1734SOL     OW 5222   3.387   0.999   2.052
 1734SOL    HW1 5223   3.324   0.923   2.065
 1734SOL    HW2 5224   3.435   1.017   2.138
 1735SOL     OW 5225   3.049   1.792   3.478
 1735SOL    HW1 5226   3.073   1.852   3.402
 1735SOL    HW2 5227   3.056   1.697   3.448
 1736SOL     OW 5228   2.179   0.251   3.663
 1736SOL    HW1 5229   2.250   0.322   3.669
 1736SOL    HW2 5230   2.091   0.290   3.691
 1737SOL     OW 5231   3.328   1.417   2.815
 1737SOL    HW1 5232   3.269   1.423   2.895
 1737SOL    HW2 5233   3.313   1.329   2.769
 1738SOL     OW 5234   3.529   1.714   2.434
 1738SOL    HW1 5235   3.488   1.691   2.346
 1738SOL    HW2 5236   3.511   1.640   2.499
 1739SOL     OW 5237   2.460   0.729   2.132
 1739SOL    HW1 5238   2.484   0.798   2.064
 1739SOL    HW2 5239   2.382   0.762   2.186
 1740SOL     OW 5240   3.143   0.345   2.806
 1740SOL    HW1 5241   3.057   0.295   2.793
 1740SOL    HW2 5242   3.205   0.291   2.862
 1741SOL     OW 5243   3.438   1.662   2.169
 1741SOL    HW1 5244   3.527   1.708   2.172
 1741SOL    HW2 5245   3.417   1.638   2.074
 1742SOL     OW 5246   2.669   0.605   3.327
 1742SOL    HW1 5247   2.622   0.602   3.416
 1742SOL    HW2 5248   2.618   0.550   3.261
 1743SOL     OW 5249   3.256   0.469   3.536
 1743SOL    HW1 5250   3.236   0.512   3.624
 1743SOL    HW2 5251   3.334   0.407   3.545
 1744SOL     OW 5252   2.835   0.890   3.434
 1744SOL    HW1 5253   2.881   0.806   3.405
 1744SOL    HW2 5254   2.779   0.924   3.359
 1745SOL     OW 5255   2.853   0.410   3.104
 1745SOL    HW1 5256   2.776   0.444   3.158
 1745SOL    HW2 5257   2.819   0.359   3.025
 1746SOL     OW 5258   2.903   0.701   2.291
 1746SOL    HW1 5259   2.929   0.697   2.387
 1746SOL    HW2 5260   2.818   0.650   2.277
 1747SOL     OW 5261   1.938   0.811   2.651
 1747SOL    HW1 5262   2.037   0.799   2.660
 1747SOL    HW2 5263   1.914   0.906   2.672
 1748SOL     OW 5264   1.992   1.821   3.433
 1748SOL    HW1 5265   1.982   1.806   3.532
 1748SOL    HW2 5266   1.906   1.857   3.397
 1749SOL     OW 5267   2.727   0.348   2.057
 1749SOL    HW1 5268   2.786   0.411   2.008
 1749SOL    HW2 5269   2.746   0.254   2.028
 1750SOL     OW 5270   3.581   0.585   3.693
 1750SOL    HW1 5271   3.555   0.674   3.657
 1750SOL    HW2 5272   3.579   0.517   3.620
 1751SOL     OW 5273   3.224   1.144   2.407
 1751SOL    HW1 5274   3.307   1.115   2.359
 1751SOL    HW2 5275   3.175   1.211   2.351
 1752SOL     OW 5276   2.412   0.196   2.747
 1752SOL    HW1 5277   2.407   0.191   2.847
 1752SOL    HW2 5278   2.414   0.292   2.718
 1753SOL     OW 5279   2.870   1.456   2.339
 1753SOL    HW1 5280   2.824   1.528   2.287
 1753SOL    HW2 5281   2.866   1.476   2.437
 1754SOL     OW 5282   2.213   1.801   2.715
 1754SOL    HW1 5283   2.263   1.715   2.721
 1754SOL    HW2 5284   2.278   1.878   2.712
 1755SOL     OW 5285   3.657   1.066   2.735
 1755SOL    HW1 5286   3.595   1.051   2.659
 1755SOL    HW2 5287   3.605   1.077   2.820
 1756SOL     OW 5288   3.089   1.550   3.368
 1756SOL    HW1 5289   3.095   1.473   3.432
 1756SOL    HW2 5290   3.037   1.524   3.288
 1757SOL     OW 5291   2.183   0.943   2.104
 1757SOL    HW1 5292   2.265   0.982   2.062
 1757SOL    HW2 5293   2.156   0.861   2.055
 1758SOL     OW 5294   3.320   0.735   2.590
 1758SOL    HW1 5295   3.315   0.670   2.665
 1758SOL    HW2 5296   3.400   0.794   2.603
 1759SOL     OW 5297   2.323   1.266   3.589
 1759SOL    HW1 5298   2.273   1.267   3.503
 1759SOL    HW2 5299   2.260   1.248   3.665
 1760SOL     OW 5300   2.973   1.776   2.099
 1760SOL    HW1 5301   2.913   1.714   2.149
 1760SOL    HW2 5302   3.004   1.732   2.014
 1761SOL     OW 5303   2.064   0.285   3.360
 1761SOL    HW1 5304   1.984   0.345   3.347
 1761SOL    HW2 5305   2.054   0.236   3.446
 1762SOL     OW 5306   3.494   1.377   1.943
 1762SOL    HW1 5307   3.462   1.471   1.933
 1762SOL    HW2 5308   3.418   1.314   1.931
 1763SOL     OW 5309   2.326   1.743   2.185
 1763SOL    HW1 5310   2.359   1.782   2.271
 1763SOL    HW2 5311   2.402   1.736   2.120
 1764SOL     OW 5312   3.262   0.107   2.288
 1764SOL    HW1 5313   3.238   0.070   2.198
 1764SOL    HW2 5314   3.361   0.123   2.292
 1765SOL     OW 5315   2.111   1.785   3.103
 1765SOL    HW1 5316   2.168   1.720   3.153
 1765SOL    HW2 5317   2.095   1.752   3.010
 1766SOL     OW 5318   2.802   1.698   2.766
 1766SOL    HW1 5319   2.882   1.641   2.787
 1766SOL    HW2 5320   2.753   1.658   2.689
 1767SOL     OW 5321   2.244   0.700   2.342
 1767SOL    HW1 5322   2.289   0.610   2.339
 1767SOL    HW2 5323   2.150   0.689   2.375
 1768SOL     OW 5324   3.409   0.222   3.591
 1768SOL    HW1 5325   3.404   0.259   3.683
 1768SOL    HW2 5326   3.337   0.153   3.579
 1769SOL     OW 5327   2.476   0.122   1.979
 1769SOL    HW1 5328   2.574   0.100   1.986
 1769SOL    HW2 5329   2.445   0.105   1.886
 1770SOL     OW 5330   2.643   0.264   3.611
 1770SOL    HW1 5331   2.710   0.203   3.654
 1770SOL    HW2 5332   2.570   0.283   3.676
 1771SOL     OW 5333   2.750   1.514   3.057
 1771SOL    HW1 5334   2.727   1.489   2.963
 1771SOL    HW2 5335   2.811   1.445   3.096
 1772SOL     OW 5336   3.213   0.590   3.295
 1772SOL    HW1 5337   3.241   0.547   3.380
 1772SOL    HW2 5338   3.238   0.686   3.296
 1773SOL     OW 5339   2.665   1.402   2.786
 1773SOL    HW1 5340   2.755   1.416   2.744
 1773SOL    HW2 5341   2.594   1.404   2.715
 1774SOL     OW 5342   2.784   0.503   2.761
 1774SOL    HW1 5343   2.759   0.494   2.665
 1774SOL    HW2 5344   2.832   0.421   2.792
 1775SOL     OW 5345   2.401   0.064   2.374
 1775SOL    HW1 5346   2.320   0.065   2.432
 1775SOL    HW2 5347   2.404   0.147   2.319
 1776SOL     OW 5348   3.296   1.188   1.903
 1776SOL    HW1 5349   3.328   1.112   1.960
 1776SOL    HW2 5350   3.204   1.215   1.933
 1777SOL     OW 5351   2.159   0.035   2.033
 1777SOL    HW1 5352   2.208   0.119   2.012
 1777SOL    HW2 5353   2.221  -0.030   2.078
 1778SOL     OW 5354   2.797   0.236   2.342
 1778SOL    HW1 5355   2.749   0.277   2.264
 1778SOL    HW2 5356   2.896   0.234   2.323
 1779SOL     OW 5357   2.938   0.683   3.326
 1779SOL    HW1 5358   2.858   0.622   3.329
 1779SOL    HW2 5359   3.019   0.630   3.302
 1780SOL     OW 5360   3.089   1.570   2.655
 1780SOL    HW1 5361   3.110   1.644   2.590
 1780SOL    HW2 5362   3.157   1.570   2.728
 1781SOL     OW 5363   2.321   1.152   2.603
 1781SOL    HW1 5364   2.250   1.125   2.668
 1781SOL    HW2 5365   2.295   1.124   2.510
 1782SOL     OW 5366   3.133   1.797   2.453
 1782SOL    HW1 5367   3.177   1.861   2.389
 1782SOL    HW2 5368   3.083   1.849   2.523
 1783SOL     OW 5369   2.894   0.549   1.878
 1783SOL    HW1 5370   2.853   0.631   1.839
 1783SOL    HW2 5371   2.958   0.575   1.951
 1784SOL     OW 5372   1.940   0.556   3.248
 1784SOL    HW1 5373   2.032   0.555   3.207
 1784SOL    HW2 5374   1.934   0.630   3.315
 1785SOL     OW 5375   2.423   0.222   3.009
 1785SOL    HW1 5376   2.461   0.138   3.046
 1785SOL    HW2 5377   2.335   0.241   3.053
 1786SOL     OW 5378   2.728   0.454   2.504
 1786SOL    HW1 5379   2.696   0.526   2.442
 1786SOL    HW2 5380   2.752   0.373   2.451
 1787SOL     OW 5381   2.879   0.039   2.615
 1787SOL    HW1 5382   2.807   0.044   2.546
 1787SOL    HW2 5383   2.855  -0.030   2.684
 1788SOL     OW 5384   3.291   1.173   2.729
 1788SOL    HW1 5385   3.236   1.089   2.722
 1788SOL    HW2 5386   3.317   1.202   2.637
 1789SOL     OW 5387   3.328   0.590   2.854
 1789SOL    HW1 5388   3.298   0.495   2.861
 1789SOL    HW2 5389   3.401   0.606   2.920
 1790SOL     OW 5390   3.719   0.833   2.239
 1790SOL    HW1 5391   3.761   0.769   2.303
 1790SOL    HW2 5392   3.681   0.782   2.161
 1791SOL     OW 5393   2.350   1.385   2.036
 1791SOL    HW1 5394   2.263   1.370   2.083
 1791SOL    HW2 5395   2.333   1.411   1.941
 1792SOL     OW 5396   3.526   1.280   2.519
 1792SOL    HW1 5397   3.625   1.288   2.533
 1792SOL    HW2 5398   3.481   1.364   2.550
 1793SOL     OW 5399   3.252   0.575   1.940
 1793SOL    HW1 5400   3.198   0.554   2.021
 1793SOL    HW2 5401   3.343   0.534   1.949
 1794SOL     OW 5402   2.389   0.256   2.190
 1794SOL    HW1 5403   2.416   0.197   2.115
 1794SOL    HW2 5404   2.389   0.351   2.159
 1795SOL     OW 5405   3.616   1.223   3.450
 1795SOL    HW1 5406   3.707   1.184   3.437
 1795SOL    HW2 5407   3.624   1.319   3.474
 1796SOL     OW 5408   2.926   1.347   3.202
 1796SOL    HW1 5409   2.846   1.324   3.257
 1796SOL    HW2 5410   3.009   1.321   3.251
 1797SOL     OW 5411   3.454   1.629   3.487
 1797SOL    HW1 5412   3.481   1.663   3.397
 1797SOL    HW2 5413   3.533   1.591   3.533
 1798SOL     OW 5414   2.973   1.195   2.962
 1798SOL    HW1 5415   2.933   1.239   3.043
 1798SOL    HW2 5416   2.932   1.232   2.879
 1799SOL     OW 5417   3.500   1.099   2.941
 1799SOL    HW1 5418   3.505   1.180   3.000
 1799SOL    HW2 5419   3.414   1.101   2.890
 1800SOL     OW 5420   2.777   0.089   3.264
 1800SOL    HW1 5421   2.802   0.069   3.169
 1800SOL    HW2 5422   2.849   0.145   3.306
 1801SOL     OW 5423   2.842   1.116   3.581
 1801SOL    HW1 5424   2.743   1.122   3.591
 1801SOL    HW2 5425   2.865   1.036   3.525
 1802SOL     OW 5426   2.567   1.050   2.230
 1802SOL    HW1 5427   2.553   1.057   2.329
 1802SOL    HW2 5428   2.651   0.999   2.212
 1803SOL     OW 5429   2.272   0.813   3.113
 1803SOL    HW1 5430   2.358   0.825   3.163
 1803SOL    HW2 5431   2.230   0.726   3.140
 1804SOL     OW 5432   3.136   0.386   3.124
 1804SOL    HW1 5433   3.157   0.460   3.188
 1804SOL    HW2 5434   3.047   0.403   3.081
 1805SOL     OW 5435   1.926   1.564   3.193
 1805SOL    HW1 5436   1.880   1.646   3.159
 1805SOL    HW2 5437   2.024   1.583   3.202
 1806SOL     OW 5438   2.229   1.100   2.363
 1806SOL    HW1 5439   2.222   1.183   2.307
 1806SOL    HW2 5440   2.233   1.020   2.303
 1807SOL     OW 5441   2.428   0.537   2.727
 1807SOL    HW1 5442   2.440   0.603   2.653
 1807SOL    HW2 5443   2.474   0.571   2.810
 1808SOL     OW 5444   3.114   1.348   2.250
 1808SOL    HW1 5445   3.164   1.425   2.290
 1808SOL    HW2 5446   3.019   1.350   2.282
 1809SOL     OW 5447   3.134   1.445   3.004
 1809SOL    HW1 5448   3.181   1.458   3.091
 1809SOL    HW2 5449   3.068   1.371   3.013
 1810SOL     OW 5450   3.444   0.639   2.334
 1810SOL    HW1 5451   3.413   0.700   2.407
 1810SOL    HW2 5452   3.494   0.691   2.265
 1811SOL     OW 5453   2.216   1.510   3.191
 1811SOL    HW1 5454   2.195   1.466   3.104
 1811SOL    HW2 5455   2.313   1.536   3.194
 1812SOL     OW 5456   2.264   0.751   3.460
 1812SOL    HW1 5457   2.332   0.806   3.413
 1812SOL    HW2 5458   2.304   0.663   3.487
 1813SOL     OW 5459   3.449   0.779   3.532
 1813SOL    HW1 5460   3.357   0.817   3.527
 1813SOL    HW2 5461   3.509   0.826   3.467
 1814SOL     OW 5462   2.875   0.105   3.632
 1814SOL    HW1 5463   2.881   0.190   3.580
 1814SOL    HW2 5464   2.907   0.029   3.575
 1815SOL     OW 5465   2.366   0.050   3.602
 1815SOL    HW1 5466   2.324  -0.007   3.532
 1815SOL    HW2 5467   2.300   0.119   3.634
 1816SOL     OW 5468   2.435   0.870   2.891
 1816SOL    HW1 5469   2.479   0.959   2.882
 1816SOL    HW2 5470   2.372   0.870   2.968
 1817SOL     OW 5471   3.222   0.862   2.907
 1817SOL    HW1 5472   3.147   0.862   2.841
 1817SOL    HW2 5473   3.259   0.770   2.916
 1818SOL     OW 5474   3.071   0.525   2.137
 1818SOL    HW1 5475   3.084   0.441   2.191
 1818SOL    HW2 5476   3.042   0.599   2.197
 1819SOL     OW 5477   2.169   0.213   3.093
 1819SOL    HW1 5478   2.146   0.250   3.183
 1819SOL    HW2 5479   2.139   0.118   3.087
 1820SOL     OW 5480   1.899   1.310   3.144
 1820SOL    HW1 5481   1.952   1.261   3.212
 1820SOL    HW2 5482   1.921   1.408   3.149
 1821SOL     OW 5483   2.594   0.634   2.926
 1821SOL    HW1 5484   2.653   0.608   2.850
 1821SOL    HW2 5485   2.566   0.730   2.915
 1822SOL     OW 5486   3.590   0.935   3.716
 1822SOL    HW1 5487   3.544   0.928   3.627
 1822SOL    HW2 5488   3.528   0.979   3.782
 1823SOL     OW 5489   2.169   0.063   2.480
 1823SOL    HW1 5490   2.158   0.157   2.513
 1823SOL    HW2 5491   2.164   0.000   2.557
 1824SOL     OW 5492   3.484   0.367   2.236
 1824SOL    HW1 5493   3.486   0.291   2.300
 1824SOL    HW2 5494   3.436   0.444   2.276
 1825SOL     OW 5495   2.885   0.766   2.828
 1825SOL    HW1 5496   2.900   0.787   2.924
 1825SOL    HW2 5497   2.855   0.671   2.819
 1826SOL     OW 5498   2.842   1.573   3.562
 1826SOL    HW1 5499   2.822   1.617   3.474
 1826SOL    HW2 5500   2.881   1.482   3.546
 1827SOL     OW 5501   3.721   1.518   3.467
 1827SOL    HW1 5502   3.735   1.545   3.372
 1827SOL    HW2 5503   3.804   1.540   3.520
 1828SOL     OW 5504   2.212   0.898   3.666
 1828SOL    HW1 5505   2.288   0.942   3.714
 1828SOL    HW2 5506   2.247   0.851   3.584
 1829SOL     OW 5507   3.402   0.274   1.987
 1829SOL    HW1 5508   3.341   0.199   2.010
 1829SOL    HW2 5509   3.424   0.326   2.070
 1830SOL     OW 5510   3.165   0.838   1.904
 1830SOL    HW1 5511   3.199   0.745   1.919
 1830SOL    HW2 5512   3.183   0.865   1.809
 1831SOL     OW 5513   2.930   1.333   2.711
 1831SOL    HW1 5514   2.937   1.249   2.656
 1831SOL    HW2 5515   2.992   1.402   2.675
 1832SOL     OW 5516   2.181   0.810   2.811
 1832SOL    HW1 5517   2.274   0.846   2.816
 1832SOL    HW2 5518   2.175   0.725   2.863
 1833SOL     OW 5519   2.201   0.509   2.868
 1833SOL    HW1 5520   2.149   0.426   2.851
 1833SOL    HW2 5521   2.278   0.514   2.804
 1834SOL     OW 5522   3.000   0.380   3.540
 1834SOL    HW1 5523   2.955   0.443   3.604
 1834SOL    HW2 5524   3.093   0.411   3.523
 1835SOL     OW 5525   3.022   0.207   3.339
 1835SOL    HW1 5526   3.022   0.271   3.416
 1835SOL    HW2 5527   3.050   0.255   3.256
 1836SOL     OW 5528   1.870   1.326   2.062
 1836SOL    HW1 5529   1.777   1.347   2.031
 1836SOL    HW2 5530   1.880   1.227   2.075
 1837SOL     OW 5531   1.950   1.801   2.789
 1837SOL    HW1 5532   1.908   1.715   2.762
 1837SOL    HW2 5533   2.044   1.804   2.755
 1838SOL     OW 5534   2.366   1.568   2.772
 1838SOL    HW1 5535   2.432   1.642   2.781
 1838SOL    HW2 5536   2.410   1.489   2.730
 1839SOL     OW 5537   2.864   0.796   3.100
 1839SOL    HW1 5538   2.905   0.764   3.186
 1839SOL    HW2 5539   2.768   0.769   3.097
 1840SOL     OW 5540   1.902   0.544   2.976
 1840SOL    HW1 5541   1.987   0.511   2.935
 1840SOL    HW2 5542   1.915   0.559   3.074
 1841SOL     OW 5543   2.051   0.520   3.584
 1841SOL    HW1 5544   2.110   0.480   3.514
 1841SOL    HW2 5545   1.993   0.591   3.543
 1842SOL     OW 5546   3.231   0.950   3.522
 1842SOL    HW1 5547   3.270   1.039   3.542
 1842SOL    HW2 5548   3.241   0.930   3.425
 1843SOL     OW 5549   2.677   0.572   2.187
 1843SOL    HW1 5550   2.684   0.483   2.141
 1843SOL    HW2 5551   2.583   0.606   2.179
 1844SOL     OW 5552   3.519   0.604   3.068
 1844SOL    HW1 5553   3.481   0.535   3.130
 1844SOL    HW2 5554   3.601   0.568   3.024
 1845SOL     OW 5555   2.114   1.564   3.606
 1845SOL    HW1 5556   2.084   1.621   3.682
 1845SOL    HW2 5557   2.107   1.467   3.632
 1846SOL     OW 5558   2.533   0.464   3.131
 1846SOL    HW1 5559   2.499   0.375   3.101
 1846SOL    HW2 5560   2.559   0.518   3.051
 1847SOL     OW 5561   2.792   1.678   3.327
 1847SOL    HW1 5562   2.768   1.660   3.232
 1847SOL    HW2 5563   2.822   1.772   3.337
 1848SOL     OW 5564   2.335   0.500   2.053
 1848SOL    HW1 5565   2.396   0.580   2.057
 1848SOL    HW2 5566   2.240   0.531   2.060
 1849SOL     OW 5567   2.021   1.137   3.328
 1849SOL    HW1 5568   2.043   1.076   3.404
 1849SOL    HW2 5569   2.031   1.088   3.242
 1850SOL     OW 5570   3.209   1.059   3.096
 1850SOL    HW1 5571   3.233   0.996   3.022
 1850SOL    HW2 5572   3.119   1.099   3.078
 1851SOL     OW 5573   3.164   0.855   2.171
 1851SOL    HW1 5574   3.078   0.824   2.213
 1851SOL    HW2 5575   3.160   0.841   2.072
 1852SOL     OW 5576   3.621   1.747   3.016
 1852SOL    HW1 5577   3.682   1.777   2.943
 1852SOL    HW2 5578   3.583   1.658   2.994
 1853SOL     OW 5579   3.114   1.731   2.990
 1853SOL    HW1 5580   3.198   1.736   2.936
 1853SOL    HW2 5581   3.091   1.635   3.008
 1854SOL     OW 5582   1.945   1.258   2.884
 1854SOL    HW1 5583   1.940   1.257   2.984
 1854SOL    HW2 5584   1.862   1.217   2.846
 1855SOL     OW 5585   2.550   1.662   3.578
 1855SOL    HW1 5586   2.494   1.743   3.587
 1855SOL    HW2 5587   2.602   1.666   3.492
 1856SOL     OW 5588   3.588   0.135   2.385
 1856SOL    HW1 5589   3.661   0.118   2.318
 1856SOL    HW2 5590   3.557   0.048   2.423
 1857SOL     OW 5591   3.250   1.573   2.339
 1857SOL    HW1 5592   3.317   1.585   2.265
 1857SOL    HW2 5593   3.210   1.662   2.362
 1858SOL     OW 5594   1.992   1.794   3.713
 1858SOL    HW1 5595   1.951   1.720   3.766
 1858SOL    HW2 5596   2.056   1.845   3.771
 1859SOL     OW 5597   3.142   0.927   2.534
 1859SOL    HW1 5598   3.202   0.846   2.536
 1859SOL    HW2 5599   3.182   0.996   2.474
 1860SOL     OW 5600   2.692   1.273   3.284
 1860SOL    HW1 5601   2.687   1.306   3.379
 1860SOL    HW2 5602   2.606   1.292   3.238
 1861SOL     OW 5603   2.534   1.616   2.016
 1861SOL    HW1 5604   2.543   1.626   1.917
 1861SOL    HW2 5605   2.494   1.527   2.037
 1862SOL     OW 5606   3.512   1.720   3.256
 1862SOL    HW1 5607   3.565   1.730   3.172
 1862SOL    HW2 5608   3.485   1.810   3.290
 1863SOL     OW 5609   3.703   0.175   2.825
 1863SOL    HW1 5610   3.742   0.090   2.789
 1863SOL    HW2 5611   3.605   0.177   2.806
 1864SOL     OW 5612   2.125   0.326   2.582
 1864SOL    HW1 5613   2.046   0.377   2.548
 1864SOL    HW2 5614   2.116   0.311   2.680
 1865SOL     OW 5615   3.056   1.612   1.893
 1865SOL    HW1 5616   3.062   1.519   1.930
 1865SOL    HW2 5617   2.997   1.612   1.813
 1866SOL     OW 5618   2.684   1.002   3.234
 1866SOL    HW1 5619   2.724   1.001   3.142
 1866SOL    HW2 5620   2.694   1.094   3.274
 1867SOL     OW 5621   2.778   0.910   2.153
 1867SOL    HW1 5622   2.841   0.948   2.085
 1867SOL    HW2 5623   2.818   0.827   2.192
 1868SOL     OW 5624   3.366   1.607   1.906
 1868SOL    HW1 5625   3.274   1.644   1.913
 1868SOL    HW2 5626   3.404   1.627   1.816
 1869SOL     OW 5627   2.234   1.288   3.352
 1869SOL    HW1 5628   2.221   1.381   3.318
 1869SOL    HW2 5629   2.150   1.236   3.339
 1870SOL     OW 5630   3.476   1.292   3.151
 1870SOL    HW1 5631   3.536   1.295   3.231
 1870SOL    HW2 5632   3.401   1.356   3.164
 1871SOL     OW 5633   2.901   1.098   2.558
 1871SOL    HW1 5634   2.831   1.051   2.612
 1871SOL    HW2 5635   2.960   1.030   2.515
 1872SOL     OW 5636   2.876   0.236   2.833
 1872SOL    HW1 5637   2.868   0.200   2.740
 1872SOL    HW2 5638   2.874   0.160   2.898
 1873SOL     OW 5639   2.452   1.487   2.353
 1873SOL    HW1 5640   2.494   1.429   2.283
 1873SOL    HW2 5641   2.408   1.566   2.309
 1874SOL     OW 5642   3.571   0.385   3.243
 1874SOL    HW1 5643   3.644   0.454   3.247
 1874SOL    HW2 5644   3.599   0.310   3.184
 1875SOL     OW 5645   2.117   1.348   2.152
 1875SOL    HW1 5646   2.021   1.349   2.125
 1875SOL    HW2 5647   2.129   1.401   2.236
 1876SOL     OW 5648   1.967   1.013   3.588
 1876SOL    HW1 5649   1.890   0.980   3.642
 1876SOL    HW2 5650   2.052   0.983   3.630
 1877SOL     OW 5651   2.534   0.203   3.351
 1877SOL    HW1 5652   2.624   0.187   3.311
 1877SOL    HW2 5653   2.542   0.208   3.450
 1878SOL     OW 5654   1.937   0.345   1.895
 1878SOL    HW1 5655   1.845   0.317   1.866
 1878SOL    HW2 5656   1.968   0.422   1.839
 1879SOL     OW 5657   3.302   0.856   3.260
 1879SOL    HW1 5658   3.245   0.908   3.197
 1879SOL    HW2 5659   3.398   0.868   3.236
 1880SOL     OW 5660   1.934   0.166   2.180
 1880SOL    HW1 5661   1.917   0.249   2.126
 1880SOL    HW2 5662   2.024   0.129   2.158
 1881SOL     OW 5663   3.045   1.335   1.981
 1881SOL    HW1 5664   2.946   1.324   1.983
 1881SOL    HW2 5665   3.079   1.350   2.074
 1882SOL     OW 5666   2.475   0.842   3.293
 1882SOL    HW1 5667   2.531   0.923   3.276
 1882SOL    HW2 5668   2.534   0.762   3.296
 1883SOL     OW 5669   3.355   1.767   2.821
 1883SOL    HW1 5670   3.388   1.831   2.752
 1883SOL    HW2 5671   3.421   1.761   2.896
 1884SOL     OW 5672   2.578   0.565   3.570
 1884SOL    HW1 5673   2.597   0.630   3.644
 1884SOL    HW2 5674   2.638   0.485   3.579
 1885SOL     OW 5675   3.312   1.220   3.495
 1885SOL    HW1 5676   3.303   1.210   3.594
 1885SOL    HW2 5677   3.408   1.213   3.469
 1886SOL     OW 5678   2.252   1.741   3.422
 1886SOL    HW1 5679   2.161   1.782   3.420
 1886SOL    HW2 5680   2.245   1.647   3.454
 1887SOL     OW 5681   3.536   0.883   3.116
 1887SOL    HW1 5682   3.509   0.794   3.079
 1887SOL    HW2 5683   3.537   0.951   3.043
 1888SOL     OW 5684   3.087   0.325   2.311
 1888SOL    HW1 5685   3.152   0.251   2.300
 1888SOL    HW2 5686   3.107   0.375   2.395
 1889SOL     OW 5687   2.456   0.745   2.514
 1889SOL    HW1 5688   2.506   0.830   2.495
 1889SOL    HW2 5689   2.368   0.747   2.466
 1890SOL     OW 5690   3.639   0.342   3.504
 1890SOL    HW1 5691   3.622   0.373   3.410
 1890SOL    HW2 5692   3.555   0.305   3.542
 1891SOL     OW 5693   3.592   0.934   3.379
 1891SOL    HW1 5694   3.630   1.025   3.394
 1891SOL    HW2 5695   3.584   0.917   3.280
 1892SOL     OW 5696   2.721   1.374   1.878
 1892SOL    HW1 5697   2.675   1.389   1.966
 1892SOL    HW2 5698   2.765   1.459   1.848
 1893SOL     OW 5699   2.523   1.790   2.815
 1893SOL    HW1 5700   2.477   1.878   2.802
 1893SOL    HW2 5701   2.622   1.802   2.808
 1894SOL     OW 5702   2.721   0.956   2.723
 1894SOL    HW1 5703   2.775   0.887   2.771
 1894SOL    HW2 5704   2.689   1.025   2.789
 1895SOL     OW 5705   2.945   0.984   1.949
 1895SOL    HW1 5706   2.922   1.037   1.867
 1895SOL    HW2 5707   3.026   0.928   1.930
 1896SOL     OW 5708   3.723   1.569   2.713
 1896SOL    HW1 5709   3.652   1.557   2.643
 1896SOL    HW2 5710   3.724   1.490   2.773
 1897SOL     OW 5711   2.083   1.314   3.706
 1897SOL    HW1 5712   2.018   1.241   3.685
 1897SOL    HW2 5713   2.087   1.328   3.804
 1898SOL     OW 5714   1.941   1.240   2.515
 1898SOL    HW1 5715   1.940   1.193   2.603
 1898SOL    HW2 5716   2.023   1.212   2.464
 1899SOL     OW 5717   2.534   1.391   3.486
 1899SOL    HW1 5718   2.456   1.341   3.524
 1899SOL    HW2 5719   2.531   1.486   3.517
 1900SOL     OW 5720   3.686   0.192   3.089
 1900SOL    HW1 5721   3.682   0.102   3.133
 1900SOL    HW2 5722   3.689   0.181   2.990
 1901SOL     OW 5723   2.290   0.424   2.382
 1901SOL    HW1 5724   2.320   0.352   2.320
 1901SOL    HW2 5725   2.251   0.384   2.465
 1902SOL     OW 5726   3.567   1.487   2.966
 1902SOL    HW1 5727   3.474   1.462   2.939
 1902SOL    HW2 5728   3.593   1.437   3.048
 1903SOL     OW 5729   2.179   0.547   3.142
 1903SOL    HW1 5730   2.217   0.488   3.214
 1903SOL    HW2 5731   2.219   0.521   3.054
 1904SOL     OW 5732   2.674   1.586   2.549
 1904SOL    HW1 5733   2.706   1.596   2.455
 1904SOL    HW2 5734   2.595   1.524   2.551
 1905SOL     OW 5735   3.286   0.214   2.974
 1905SOL    HW1 5736   3.338   0.149   3.029
 1905SOL    HW2 5737   3.237   0.277   3.035
 1906SOL     OW 5738   2.863   0.034   3.016
 1906SOL    HW1 5739   2.800  -0.038   2.985
 1906SOL    HW2 5740   2.956  -0.002   3.016
 1907SOL     OW 5741   2.632   1.330   2.163
 1907SOL    HW1 5742   2.586   1.243   2.180
 1907SOL    HW2 5743   2.723   1.327   2.204
 1908SOL     OW 5744   2.480   1.567   3.146
 1908SOL    HW1 5745   2.475   1.649   3.203
 1908SOL    HW2 5746   2.569   1.564   3.101
 1909SOL     OW 5747   3.214   0.052   2.030
 1909SOL    HW1 5748   3.249   0.011   1.946
 1909SOL    HW2 5749   3.124   0.014   2.050
 1910SOL     OW 5750   3.162   0.453   2.553
 1910SOL    HW1 5751   3.103   0.533   2.557
 1910SOL    HW2 5752   3.177   0.418   2.646
 1911SOL     OW 5753   3.455   0.221   2.744
 1911SOL    HW1 5754   3.371   0.220   2.798
 1911SOL    HW2 5755   3.457   0.304   2.688
 1912SOL     OW 5756   1.901   1.077   2.162
 1912SOL    HW1 5757   2.000   1.066   2.153
 1912SOL    HW2 5758   1.861   0.991   2.194
 1913SOL     OW 5759   2.737   1.646   2.199
 1913SOL    HW1 5760   2.660   1.611   2.145
 1913SOL    HW2 5761   2.705   1.717   2.261
 1914SOL     OW 5762   2.092   0.628   3.837
 1914SOL    HW1 5763   1.999   0.626   3.874
 1914SOL    HW2 5764   2.093   0.589   3.745
 1915SOL     OW 5765   2.087   0.275   4.720
 1915SOL    HW1 5766   2.122   0.258   4.812
 1915SOL    HW2 5767   1.999   0.230   4.708
 1916SOL     OW 5768   1.881   0.368   4.371
 1916SOL    HW1 5769   1.799   0.411   4.410
 1916SOL    HW2 5770   1.853   0.295   4.308
 1917SOL     OW 5771   2.431   1.275   4.889
 1917SOL    HW1 5772   2.338   1.268   4.852
 1917SOL    HW2 5773   2.442   1.364   4.933
 1918SOL     OW 5774   3.417   1.511   4.427
 1918SOL    HW1 5775   3.360   1.495   4.508
 1918SOL    HW2 5776   3.358   1.521   4.347
 1919SOL     OW 5777   2.997   0.703   4.441
 1919SOL    HW1 5778   3.054   0.781   4.416
 1919SOL    HW2 5779   2.937   0.729   4.517
 1920SOL     OW 5780   3.617   0.607   3.955
 1920SOL    HW1 5781   3.605   0.594   3.856
 1920SOL    HW2 5782   3.587   0.526   4.004
 1921SOL     OW 5783   2.630   1.144   4.747
 1921SOL    HW1 5784   2.552   1.161   4.807
 1921SOL    HW2 5785   2.664   1.231   4.711
 1922SOL     OW 5786   2.547   1.012   4.389
 1922SOL    HW1 5787   2.616   0.996   4.459
 1922SOL    HW2 5788   2.474   1.069   4.427
 1923SOL     OW 5789   2.197   1.435   4.785
 1923SOL    HW1 5790   2.119   1.404   4.732
 1923SOL    HW2 5791   2.255   1.493   4.728
 1924SOL     OW 5792   3.465   0.447   4.461
 1924SOL    HW1 5793   3.391   0.493   4.411
 1924SOL    HW2 5794   3.516   0.515   4.514
 1925SOL     OW 5795   2.093   1.713   4.207
 1925SOL    HW1 5796   2.127   1.790   4.261
 1925SOL    HW2 5797   2.137   1.713   4.117
 1926SOL     OW 5798   2.092   1.434   4.262
 1926SOL    HW1 5799   2.066   1.530   4.262
 1926SOL    HW2 5800   2.021   1.380   4.307
 1927SOL     OW 5801   2.102   1.091   4.610
 1927SOL    HW1 5802   2.116   1.007   4.662
 1927SOL    HW2 5803   2.047   1.155   4.665
 1928SOL     OW 5804   2.468   0.964   3.847
 1928SOL    HW1 5805   2.475   1.048   3.793
 1928SOL    HW2 5806   2.514   0.977   3.935
 1929SOL     OW 5807   1.984   0.643   4.287
 1929SOL    HW1 5808   1.939   0.555   4.304
 1929SOL    HW2 5809   1.983   0.697   4.371
 1930SOL     OW 5810   3.704   1.767   4.083
 1930SOL    HW1 5811   3.758   1.738   4.163
 1930SOL    HW2 5812   3.734   1.857   4.054
 1931SOL     OW 5813   1.889   1.596   3.841
 1931SOL    HW1 5814   1.870   1.500   3.862
 1931SOL    HW2 5815   1.856   1.654   3.916
 1932SOL     OW 5816   3.551   0.922   4.336
 1932SOL    HW1 5817   3.646   0.893   4.344
 1932SOL    HW2 5818   3.543   0.987   4.261
 1933SOL     OW 5819   3.503   1.108   4.156
 1933SOL    HW1 5820   3.589   1.110   4.104
 1933SOL    HW2 5821   3.517   1.155   4.244
 1934SOL     OW 5822   2.475   1.365   4.450
 1934SOL    HW1 5823   2.426   1.278   4.459
 1934SOL    HW2 5824   2.452   1.408   4.363
 1935SOL     OW 5825   2.671   0.004   4.226
 1935SOL    HW1 5826   2.711   0.095   4.217
 1935SOL    HW2 5827   2.571   0.012   4.232
 1936SOL     OW 5828   2.059   0.976   4.988
 1936SOL    HW1 5829   2.148   0.931   4.974
 1936SOL    HW2 5830   1.986   0.911   4.969
 1937SOL     OW 5831   3.387   0.999   3.914
 1937SOL    HW1 5832   3.324   0.923   3.927
 1937SOL    HW2 5833   3.435   1.017   4.000
 1938SOL     OW 5834   3.328   1.417   4.677
 1938SOL    HW1 5835   3.269   1.423   4.757
 1938SOL    HW2 5836   3.313   1.329   4.631
 1939SOL     OW 5837   3.529   1.714   4.296
 1939SOL    HW1 5838   3.488   1.691   4.208
 1939SOL    HW2 5839   3.511   1.640   4.361
 1940SOL     OW 5840   2.460   0.729   3.994
 1940SOL    HW1 5841   2.484   0.798   3.926
 1940SOL    HW2 5842   2.382   0.762   4.048
 1941SOL     OW 5843   3.143   0.345   4.668
 1941SOL    HW1 5844   3.057   0.295   4.655
 1941SOL    HW2 5845   3.205   0.291   4.724
 1942SOL     OW 5846   3.438   1.662   4.031
 1942SOL    HW1 5847   3.527   1.708   4.034
 1942SOL    HW2 5848   3.417   1.638   3.936
 1943SOL     OW 5849   2.903   0.701   4.153
 1943SOL    HW1 5850   2.929   0.697   4.249
 1943SOL    HW2 5851   2.818   0.650   4.139
 1944SOL     OW 5852   1.938   0.811   4.513
 1944SOL    HW1 5853   2.037   0.799   4.522
 1944SOL    HW2 5854   1.914   0.906   4.534
 1945SOL     OW 5855   2.727   0.348   3.919
 1945SOL    HW1 5856   2.786   0.411   3.870
 1945SOL    HW2 5857   2.746   0.254   3.890
 1946SOL     OW 5858   3.224   1.144   4.269
 1946SOL    HW1 5859   3.307   1.115   4.221
 1946SOL    HW2 5860   3.175   1.211   4.213
 1947SOL     OW 5861   2.412   0.196   4.609
 1947SOL    HW1 5862   2.407   0.191   4.709
 1947SOL    HW2 5863   2.414   0.292   4.580
 1948SOL     OW 5864   2.870   1.456   4.201
 1948SOL    HW1 5865   2.824   1.528   4.149
 1948SOL    HW2 5866   2.866   1.476   4.299
 1949SOL     OW 5867   2.213   1.801   4.577
 1949SOL    HW1 5868   2.263   1.715   4.583
 1949SOL    HW2 5869   2.278   1.878   4.574
 1950SOL     OW 5870   3.657   1.066   4.597
 1950SOL    HW1 5871   3.595   1.051   4.521
 1950SOL    HW2 5872   3.605   1.077   4.682
 1951SOL     OW 5873   2.183   0.943   3.966
 1951SOL    HW1 5874   2.265   0.982   3.924
 1951SOL    HW2 5875   2.156   0.861   3.917
 1952SOL     OW 5876   3.320   0.735   4.452
 1952SOL    HW1 5877   3.315   0.670   4.527
 1952SOL    HW2 5878   3.400   0.794   4.465
 1953SOL     OW 5879   2.973   1.776   3.961
 1953SOL    HW1 5880   2.913   1.714   4.011
 1953SOL    HW2 5881   3.004   1.732   3.876
 1954SOL     OW 5882   3.494   1.377   3.805
 1954SOL    HW1 5883   3.462   1.471   3.795
 1954SOL    HW2 5884   3.418   1.314   3.793
 1955SOL     OW 5885   2.326   1.743   4.047
 1955SOL    HW1 5886   2.359   1.782   4.133
 1955SOL    HW2 5887   2.402   1.736   3.982
 1956SOL     OW 5888   3.262   0.107   4.150
 1956SOL    HW1 5889   3.238   0.070   4.060
 1956SOL    HW2 5890   3.361   0.123   4.154
 1957SOL     OW 5891   2.111   1.785   4.965
 1957SOL    HW1 5892   2.168   1.720   5.015
 1957SOL    HW2 5893   2.095   1.752   4.872
 1958SOL     OW 5894   2.802   1.698   4.628
 1958SOL    HW1 5895   2.882   1.641   4.649
 1958SOL    HW2 5896   2.753   1.658   4.551
 1959SOL     OW 5897   2.244   0.700   4.204
 1959SOL    HW1 5898   2.289   0.610   4.201
 1959SOL    HW2 5899   2.150   0.689   4.237
 1960SOL     OW 5900   2.476   0.122   3.841
 1960SOL    HW1 5901   2.574   0.100   3.848
 1960SOL    HW2 5902   2.445   0.105   3.748
 1961SOL     OW 5903   2.665   1.402   4.648
 1961SOL    HW1 5904   2.755   1.416   4.606
 1961SOL    HW2 5905   2.594   1.404   4.577
 1962SOL     OW 5906   2.784   0.503   4.623
 1962SOL    HW1 5907   2.759   0.494   4.527
 1962SOL    HW2 5908   2.832   0.421   4.654
 1963SOL     OW 5909   2.401   0.064   4.236
 1963SOL    HW1 5910   2.320   0.065   4.294
 1963SOL    HW2 5911   2.404   0.147   4.181
 1964SOL     OW 5912   3.296   1.188   3.765
 1964SOL    HW1 5913   3.328   1.112   3.822
 1964SOL    HW2 5914   3.204   1.215   3.795
 1965SOL     OW 5915   2.159   0.035   3.895
 1965SOL    HW1 5916   2.208   0.119   3.874
 1965SOL    HW2 5917   2.221  -0.030   3.940
 1966SOL     OW 5918   2.797   0.236   4.204
 1966SOL    HW1 5919   2.749   0.277   4.126
 1966SOL    HW2 5920   2.896   0.234   4.185
 1967SOL     OW 5921   3.089   1.570   4.517
 1967SOL    HW1 5922   3.110   1.644   4.452
 1967SOL    HW2 5923   3.157   1.570   4.590
 1968SOL     OW 5924   2.321   1.152   4.465
 1968SOL    HW1 5925   2.250   1.125   4.530
 1968SOL    HW2 5926   2.295   1.124   4.372
 1969SOL     OW 5927   3.133   1.797   4.315
 1969SOL    HW1 5928   3.177   1.861   4.251
 1969SOL    HW2 5929   3.083   1.849   4.385
 1970SOL     OW 5930   2.894   0.549   3.740
 1970SOL    HW1 5931   2.853   0.631   3.701
 1970SOL    HW2 5932   2.958   0.575   3.813
 1971SOL     OW 5933   2.728   0.454   4.366
 1971SOL    HW1 5934   2.696   0.526   4.304
 1971SOL    HW2 5935   2.752   0.373   4.313
 1972SOL     OW 5936   2.879   0.039   4.477
 1972SOL    HW1 5937   2.807   0.044   4.408
 1972SOL    HW2 5938   2.855  -0.030   4.546
 1973SOL     OW 5939   3.291   1.173   4.591
 1973SOL    HW1 5940   3.236   1.089   4.584
 1973SOL    HW2 5941   3.317   1.202   4.499
 1974SOL     OW 5942   3.328   0.590   4.716
 1974SOL    HW1 5943   3.298   0.495   4.723
 1974SOL    HW2 5944   3.401   0.606   4.782
 1975SOL     OW 5945   3.719   0.833   4.101
 1975SOL    HW1 5946   3.761   0.769   4.165
 1975SOL    HW2 5947   3.681   0.782   4.023
 1976SOL     OW 5948   2.350   1.385   3.898
 1976SOL    HW1 5949   2.263   1.370   3.945
 1976SOL    HW2 5950   2.333   1.411   3.803
 1977SOL     OW 5951   3.526   1.280   4.381
 1977SOL    HW1 5952   3.625   1.288   4.395
 1977SOL    HW2 5953   3.481   1.364   4.412
 1978SOL     OW 5954   3.252   0.575   3.802
 1978SOL    HW1 5955   3.198   0.554   3.883
 1978SOL    HW2 5956   3.343   0.534   3.811
 1979SOL     OW 5957   2.389   0.256   4.052
 1979SOL    HW1 5958   2.416   0.197   3.977
 1979SOL    HW2 5959   2.389   0.351   4.021
 1980SOL     OW 5960   2.973   1.195   4.824
 1980SOL    HW1 5961   2.933   1.239   4.905
 1980SOL    HW2 5962   2.932   1.232   4.741
 1981SOL     OW 5963   3.500   1.099   4.803
 1981SOL    HW1 5964   3.505   1.180   4.862
 1981SOL    HW2 5965   3.414   1.101   4.752
 1982SOL     OW 5966   2.567   1.050   4.092
 1982SOL    HW1 5967   2.553   1.057   4.191
 1982SOL    HW2 5968   2.651   0.999   4.074
 1983SOL     OW 5969   2.272   0.813   4.975
 1983SOL    HW1 5970   2.358   0.825   5.025
 1983SOL    HW2 5971   2.230   0.726   5.002
 1984SOL     OW 5972   2.229   1.100   4.225
 1984SOL    HW1 5973   2.222   1.183   4.169
 1984SOL    HW2 5974   2.233   1.020   4.165
 1985SOL     OW 5975   2.428   0.537   4.589
 1985SOL    HW1 5976   2.440   0.603   4.515
 1985SOL    HW2 5977   2.474   0.571   4.672
 1986SOL     OW 5978   3.114   1.348   4.112
 1986SOL    HW1 5979   3.164   1.425   4.152
 1986SOL    HW2 5980   3.019   1.350   4.144
 1987SOL     OW 5981   3.134   1.445   4.866
 1987SOL    HW1 5982   3.181   1.458   4.953
 1987SOL    HW2 5983   3.068   1.371   4.875
 1988SOL     OW 5984   3.444   0.639   4.196
 1988SOL    HW1 5985   3.413   0.700   4.269
 1988SOL    HW2 5986   3.494   0.691   4.127
 1989SOL     OW 5987   2.216   1.510   5.053
 1989SOL    HW1 5988   2.195   1.466   4.966
 1989SOL    HW2 5989   2.313   1.536   5.056
 1990SOL     OW 5990   2.435   0.870   4.753
 1990SOL    HW1 5991   2.479   0.959   4.744
 1990SOL    HW2 5992   2.372   0.870   4.830
 1991SOL     OW 5993   3.071   0.525   3.999
 1991SOL    HW1 5994   3.084   0.441   4.053
 1991SOL    HW2 5995   3.042   0.599   4.059
 1992SOL     OW 5996   2.169   0.213   4.955
 1992SOL    HW1 5997   2.146   0.250   5.045
 1992SOL    HW2 5998   2.139   0.118   4.949
 1993SOL     OW 5999   2.594   0.634   4.788
 1993SOL    HW1 6000   2.653   0.608   4.712
 1993SOL    HW2 6001   2.566   0.730   4.777
 1994SOL     OW 6002   2.169   0.063   4.342
 1994SOL    HW1 6003   2.158   0.157   4.375
 1994SOL    HW2 6004   2.164   0.000   4.419
 1995SOL     OW 6005   3.484   0.367   4.098
 1995SOL    HW1 6006   3.486   0.291   4.162
 1995SOL    HW2 6007   3.436   0.444   4.138
 1996SOL     OW 6008   2.885   0.766   4.690
 1996SOL    HW1 6009   2.900   0.787   4.786
 1996SOL    HW2 6010   2.855   0.671   4.681
 1997SOL     OW 6011   3.402   0.274   3.849
 1997SOL    HW1 6012   3.341   0.199   3.872
 1997SOL    HW2 6013   3.424   0.326   3.932
 1998SOL     OW 6014   3.165   0.838   3.766
 1998SOL    HW1 6015   3.199   0.745   3.781
 1998SOL    HW2 6016   3.183   0.865   3.671
 1999SOL     OW 6017   2.930   1.333   4.573
 1999SOL    HW1 6018   2.937   1.249   4.518
 1999SOL    HW2 6019   2.992   1.402   4.537
 2000SOL     OW 6020   2.181   0.810   4.673
 2000SOL    HW1 6021   2.274   0.846   4.678
 2000SOL    HW2 6022   2.175   0.725   4.725
 2001SOL     OW 6023   2.201   0.509   4.730
 2001SOL    HW1 6024   2.149   0.426   4.713
 2001SOL    HW2 6025   2.278   0.514   4.666
 2002SOL     OW 6026   1.870   1.326   3.924
 2002SOL    HW1 6027   1.777   1.347   3.893
 2002SOL    HW2 6028   1.880   1.227   3.937
 2003SOL     OW 6029   1.950   1.801   4.651
 2003SOL    HW1 6030   1.908   1.715   4.624
 2003SOL    HW2 6031   2.044   1.804   4.617
 2004SOL     OW 6032   2.366   1.568   4.634
 2004SOL    HW1 6033   2.432   1.642   4.643
 2004SOL    HW2 6034   2.410   1.489   4.592
 2005SOL     OW 6035   2.864   0.796   4.962
 2005SOL    HW1 6036   2.905   0.764   5.048
 2005SOL    HW2 6037   2.768   0.769   4.959
 2006SOL     OW 6038   1.902   0.544   4.838
 2006SOL    HW1 6039   1.987   0.511   4.797
 2006SOL    HW2 6040   1.915   0.559   4.936
 2007SOL     OW 6041   2.677   0.572   4.049
 2007SOL    HW1 6042   2.684   0.483   4.003
 2007SOL    HW2 6043   2.583   0.606   4.041
 2008SOL     OW 6044   2.533   0.464   4.993
 2008SOL    HW1 6045   2.499   0.375   4.963
 2008SOL    HW2 6046   2.559   0.518   4.913
 2009SOL     OW 6047   2.335   0.500   3.915
 2009SOL    HW1 6048   2.396   0.580   3.919
 2009SOL    HW2 6049   2.240   0.531   3.922
 2010SOL     OW 6050   3.164   0.855   4.033
 2010SOL    HW1 6051   3.078   0.824   4.075
 2010SOL    HW2 6052   3.160   0.841   3.934
 2011SOL     OW 6053   3.621   1.747   4.878
 2011SOL    HW1 6054   3.682   1.777   4.805
 2011SOL    HW2 6055   3.583   1.658   4.856
 2012SOL     OW 6056   1.945   1.258   4.746
 2012SOL    HW1 6057   1.940   1.257   4.846
 2012SOL    HW2 6058   1.862   1.217   4.708
 2013SOL     OW 6059   3.588   0.135   4.247
 2013SOL    HW1 6060   3.661   0.118   4.180
 2013SOL    HW2 6061   3.557   0.048   4.285
 2014SOL     OW 6062   3.250   1.573   4.201
 2014SOL    HW1 6063   3.317   1.585   4.127
 2014SOL    HW2 6064   3.210   1.662   4.224
 2015SOL     OW 6065   3.142   0.927   4.396
 2015SOL    HW1 6066   3.202   0.846   4.398
 2015SOL    HW2 6067   3.182   0.996   4.336
 2016SOL     OW 6068   2.534   1.616   3.878
 2016SOL    HW1 6069   2.543   1.626   3.779
 2016SOL    HW2 6070   2.494   1.527   3.899
 2017SOL     OW 6071   3.703   0.175   4.687
 2017SOL    HW1 6072   3.742   0.090   4.651
 2017SOL    HW2 6073   3.605   0.177   4.668
 2018SOL     OW 6074   2.125   0.326   4.444
 2018SOL    HW1 6075   2.046   0.377   4.410
 2018SOL    HW2 6076   2.116   0.311   4.542
 2019SOL     OW 6077   3.056   1.612   3.755
 2019SOL    HW1 6078   3.062   1.519   3.792
 2019SOL    HW2 6079   2.997   1.612   3.675
 2020SOL     OW 6080   2.684   1.002   5.096
 2020SOL    HW1 6081   2.724   1.001   5.004
 2020SOL    HW2 6082   2.694   1.094   5.136
 2021SOL     OW 6083   2.778   0.910   4.015
 2021SOL    HW1 6084   2.841   0.948   3.947
 2021SOL    HW2 6085   2.818   0.827   4.054
 2022SOL     OW 6086   3.366   1.607   3.768
 2022SOL    HW1 6087   3.274   1.644   3.775
 2022SOL    HW2 6088   3.404   1.627   3.678
 2023SOL     OW 6089   2.901   1.098   4.420
 2023SOL    HW1 6090   2.831   1.051   4.474
 2023SOL    HW2 6091   2.960   1.030   4.377
 2024SOL     OW 6092   2.876   0.236   4.695
 2024SOL    HW1 6093   2.868   0.200   4.602
 2024SOL    HW2 6094   2.874   0.160   4.760
 2025SOL     OW 6095   2.452   1.487   4.215
 2025SOL    HW1 6096   2.494   1.429   4.145
 2025SOL    HW2 6097   2.408   1.566   4.171
 2026SOL     OW 6098   2.117   1.348   4.014
 2026SOL    HW1 6099   2.021   1.349   3.987
 2026SOL    HW2 6100   2.129   1.401   4.098
 2027SOL     OW 6101   1.937   0.345   3.757
 2027SOL    HW1 6102   1.845   0.317   3.728
 2027SOL    HW2 6103   1.968   0.422   3.701
 2028SOL     OW 6104   1.934   0.166   4.042
 2028SOL    HW1 6105   1.917   0.249   3.988
 2028SOL    HW2 6106   2.024   0.129   4.020
 2029SOL     OW 6107   3.045   1.335   3.843
 2029SOL    HW1 6108   2.946   1.324   3.845
 2029SOL    HW2 6109   3.079   1.350   3.936
 2030SOL     OW 6110   3.355   1.767   4.683
 2030SOL    HW1 6111   3.388   1.831   4.614
 2030SOL    HW2 6112   3.421   1.761   4.758
 2031SOL     OW 6113   3.536   0.883   4.978
 2031SOL    HW1 6114   3.509   0.794   4.941
 2031SOL    HW2 6115   3.537   0.951   4.905
 2032SOL     OW 6116   3.087   0.325   4.173
 2032SOL    HW1 6117   3.152   0.251   4.162
 2032SOL    HW2 6118   3.107   0.375   4.257
 2033SOL     OW 6119   2.456   0.745   4.376
 2033SOL    HW1 6120   2.506   0.830   4.357
 2033SOL    HW2 6121   2.368   0.747   4.328
 2034SOL     OW 6122   2.721   1.374   3.740
 2034SOL    HW1 6123   2.675   1.389   3.828
 2034SOL    HW2 6124   2.765   1.459   3.710
 2035SOL     OW 6125   2.523   1.790   4.677
 2035SOL    HW1 6126   2.477   1.878   4.664
 2035SOL    HW2 6127   2.622   1.802   4.670
 2036SOL     OW 6128   2.721   0.956   4.585
 2036SOL    HW1 6129   2.775   0.887   4.633
 2036SOL    HW2 6130   2.689   1.025   4.651
 2037SOL     OW 6131   2.945   0.984   3.811
 2037SOL    HW1 6132   2.922   1.037   3.729
 2037SOL    HW2 6133   3.026   0.928   3.792
 2038SOL     OW 6134   3.723   1.569   4.575
 2038SOL    HW1 6135   3.652   1.557   4.505
 2038SOL    HW2 6136   3.724   1.490   4.635
 2039SOL     OW 6137   1.941   1.240   4.377
 2039SOL    HW1 6138   1.940   1.193   4.465
 2039SOL    HW2 6139   2.023   1.212   4.326
 2040SOL     OW 6140   3.686   0.192   4.951
 2040SOL    HW1 6141   3.682   0.102   4.995
 2040SOL    HW2 6142   3.689   0.181   4.852
 2041SOL     OW 6143   2.290   0.424   4.244
 2041SOL    HW1 6144   2.320   0.352   4.182
 2041SOL    HW2 6145   2.251   0.384   4.327
 2042SOL     OW 6146   2.674   1.586   4.411
 2042SOL    HW1 6147   2.706   1.596   4.317
 2042SOL    HW2 6148   2.595   1.524   4.413
 2043SOL     OW 6149   3.286   0.214   4.836
 2043SOL    HW1 6150   3.338   0.149   4.891
 2043SOL    HW2 6151   3.237   0.277   4.897
 2044SOL     OW 6152   2.632   1.330   4.025
 2044SOL    HW1 6153   2.586   1.243   4.042
 2044SOL    HW2 6154   2.723   1.327   4.066
 2045SOL     OW 6155   3.214   0.052   3.892
 2045SOL    HW1 6156   3.249   0.011   3.808
 2045SOL    HW2 6157   3.124   0.014   3.912
 2046SOL     OW 6158   3.162   0.453   4.415
 2046SOL    HW1 6159   3.103   0.533   4.419
 2046SOL    HW2 6160   3.177   0.418   4.508
 2047SOL     OW 6161   3.455   0.221   4.606
 2047SOL    HW1 6162   3.371   0.220   4.660
 2047SOL    HW2 6163   3.457   0.304   4.550
 2048SOL     OW 6164   1.901   1.077   4.024
 2048SOL    HW1 6165   2.000   1.066   4.015
 2048SOL    HW2 6166   1.861   0.991   4.056
 2049SOL     OW 6167   2.737   1.646   4.061
 2049SOL    HW1 6168   2.660   1.611   4.007
 2049SOL    HW2 6169   2.705   1.717   4.123
 2050SOL     OW 6170   2.092   2.490   0.113
 2050SOL    HW1 6171   1.999   2.488   0.150
 2050SOL    HW2 6172   2.093   2.451   0.021
 2051SOL     OW 6173   2.087   2.137   0.996
 2051SOL    HW1 6174   2.122   2.120   1.088
 2051SOL    HW2 6175   1.999   2.092   0.984
 2052SOL     OW 6176   1.881   2.230   0.647
 2052SOL    HW1 6177   1.799   2.273   0.686
 2052SOL    HW2 6178   1.853   2.157   0.584
 2053SOL     OW 6179   2.431   3.137   1.165
 2053SOL    HW1 6180   2.338   3.130   1.128
 2053SOL    HW2 6181   2.442   3.226   1.209
 2054SOL     OW 6182   3.417   3.373   0.703
 2054SOL    HW1 6183   3.360   3.357   0.784
 2054SOL    HW2 6184   3.358   3.383   0.623
 2055SOL     OW 6185   2.997   2.565   0.717
 2055SOL    HW1 6186   3.054   2.643   0.692
 2055SOL    HW2 6187   2.937   2.591   0.793
 2056SOL     OW 6188   3.617   2.469   0.231
 2056SOL    HW1 6189   3.605   2.456   0.132
 2056SOL    HW2 6190   3.587   2.388   0.280
 2057SOL     OW 6191   2.630   3.006   1.023
 2057SOL    HW1 6192   2.552   3.023   1.083
 2057SOL    HW2 6193   2.664   3.093   0.987
 2058SOL     OW 6194   2.712   2.660   1.823
 2058SOL    HW1 6195   2.708   2.736   1.888
 2058SOL    HW2 6196   2.734   2.696   1.732
 2059SOL     OW 6197   2.547   2.874   0.665
 2059SOL    HW1 6198   2.616   2.858   0.735
 2059SOL    HW2 6199   2.474   2.931   0.703
 2060SOL     OW 6200   2.548   3.023   1.803
 2060SOL    HW1 6201   2.608   3.102   1.817
 2060SOL    HW2 6202   2.462   3.054   1.762
 2061SOL     OW 6203   2.197   3.297   1.061
 2061SOL    HW1 6204   2.119   3.266   1.008
 2061SOL    HW2 6205   2.255   3.355   1.004
 2062SOL     OW 6206   3.322   3.367   1.339
 2062SOL    HW1 6207   3.346   3.461   1.365
 2062SOL    HW2 6208   3.306   3.313   1.421
 2063SOL     OW 6209   2.300   2.254   1.499
 2063SOL    HW1 6210   2.382   2.198   1.508
 2063SOL    HW2 6211   2.219   2.196   1.503
 2064SOL     OW 6212   3.465   2.309   0.737
 2064SOL    HW1 6213   3.391   2.355   0.687
 2064SOL    HW2 6214   3.516   2.377   0.790
 2065SOL     OW 6215   2.093   3.575   0.483
 2065SOL    HW1 6216   2.127   3.652   0.537
 2065SOL    HW2 6217   2.137   3.575   0.393
 2066SOL     OW 6218   2.989   3.203   1.690
 2066SOL    HW1 6219   3.036   3.203   1.778
 2066SOL    HW2 6220   2.941   3.116   1.679
 2067SOL     OW 6221   2.092   3.296   0.538
 2067SOL    HW1 6222   2.066   3.392   0.538
 2067SOL    HW2 6223   2.021   3.242   0.583
 2068SOL     OW 6224   2.102   2.953   0.886
 2068SOL    HW1 6225   2.116   2.869   0.938
 2068SOL    HW2 6226   2.047   3.017   0.941
 2069SOL     OW 6227   2.482   3.648   1.439
 2069SOL    HW1 6228   2.390   3.631   1.474
 2069SOL    HW2 6229   2.510   3.740   1.465
 2070SOL     OW 6230   2.468   2.826   0.123
 2070SOL    HW1 6231   2.475   2.910   0.069
 2070SOL    HW2 6232   2.514   2.839   0.211
 2071SOL     OW 6233   3.456   1.976   1.480
 2071SOL    HW1 6234   3.438   2.043   1.408
 2071SOL    HW2 6235   3.453   2.022   1.569
 2072SOL     OW 6236   1.984   2.505   0.563
 2072SOL    HW1 6237   1.939   2.417   0.580
 2072SOL    HW2 6238   1.983   2.559   0.647
 2073SOL     OW 6239   3.704   3.629   0.359
 2073SOL    HW1 6240   3.758   3.600   0.439
 2073SOL    HW2 6241   3.734   3.719   0.330
 2074SOL     OW 6242   1.889   3.458   0.117
 2074SOL    HW1 6243   1.870   3.362   0.138
 2074SOL    HW2 6244   1.856   3.516   0.192
 2075SOL     OW 6245   3.551   2.784   0.612
 2075SOL    HW1 6246   3.646   2.755   0.620
 2075SOL    HW2 6247   3.543   2.849   0.537
 2076SOL     OW 6248   3.503   2.970   0.432
 2076SOL    HW1 6249   3.589   2.972   0.380
 2076SOL    HW2 6250   3.517   3.017   0.520
 2077SOL     OW 6251   1.975   2.599   1.597
 2077SOL    HW1 6252   2.063   2.586   1.642
 2077SOL    HW2 6253   1.962   2.696   1.575
 2078SOL     OW 6254   2.475   3.227   0.726
 2078SOL    HW1 6255   2.426   3.140   0.735
 2078SOL    HW2 6256   2.452   3.270   0.639
 2079SOL     OW 6257   3.155   3.090   1.423
 2079SOL    HW1 6258   3.192   3.017   1.365
 2079SOL    HW2 6259   3.207   3.095   1.508
 2080SOL     OW 6260   2.671   1.866   0.502
 2080SOL    HW1 6261   2.711   1.957   0.493
 2080SOL    HW2 6262   2.571   1.874   0.508
 2081SOL     OW 6263   2.059   2.838   1.264
 2081SOL    HW1 6264   2.148   2.793   1.250
 2081SOL    HW2 6265   1.986   2.773   1.245
 2082SOL     OW 6266   3.387   2.861   0.190
 2082SOL    HW1 6267   3.324   2.785   0.203
 2082SOL    HW2 6268   3.435   2.879   0.276
 2083SOL     OW 6269   3.049   3.654   1.616
 2083SOL    HW1 6270   3.073   3.714   1.540
 2083SOL    HW2 6271   3.056   3.559   1.586
 2084SOL     OW 6272   2.179   2.113   1.801
 2084SOL    HW1 6273   2.250   2.184   1.807
 2084SOL    HW2 6274   2.091   2.152   1.829
 2085SOL     OW 6275   3.328   3.279   0.953
 2085SOL    HW1 6276   3.269   3.285   1.033
 2085SOL    HW2 6277   3.313   3.191   0.907
 2086SOL     OW 6278   3.529   3.576   0.572
 2086SOL    HW1 6279   3.488   3.553   0.484
 2086SOL    HW2 6280   3.511   3.502   0.637
 2087SOL     OW 6281   2.460   2.591   0.270
 2087SOL    HW1 6282   2.484   2.660   0.202
 2087SOL    HW2 6283   2.382   2.624   0.324
 2088SOL     OW 6284   3.143   2.207   0.944
 2088SOL    HW1 6285   3.057   2.157   0.931
 2088SOL    HW2 6286   3.205   2.153   1.000
 2089SOL     OW 6287   3.438   3.524   0.307
 2089SOL    HW1 6288   3.527   3.570   0.310
 2089SOL    HW2 6289   3.417   3.500   0.212
 2090SOL     OW 6290   2.669   2.467   1.465
 2090SOL    HW1 6291   2.622   2.464   1.554
 2090SOL    HW2 6292   2.618   2.412   1.399
 2091SOL     OW 6293   3.256   2.331   1.674
 2091SOL    HW1 6294   3.236   2.374   1.762
 2091SOL    HW2 6295   3.334   2.269   1.683
 2092SOL     OW 6296   2.835   2.752   1.572
 2092SOL    HW1 6297   2.881   2.668   1.543
 2092SOL    HW2 6298   2.779   2.786   1.497
 2093SOL     OW 6299   2.853   2.272   1.242
 2093SOL    HW1 6300   2.776   2.306   1.296
 2093SOL    HW2 6301   2.819   2.221   1.163
 2094SOL     OW 6302   2.903   2.563   0.429
 2094SOL    HW1 6303   2.929   2.559   0.525
 2094SOL    HW2 6304   2.818   2.512   0.415
 2095SOL     OW 6305   1.938   2.673   0.789
 2095SOL    HW1 6306   2.037   2.661   0.798
 2095SOL    HW2 6307   1.914   2.768   0.810
 2096SOL     OW 6308   1.992   3.683   1.571
 2096SOL    HW1 6309   1.982   3.668   1.670
 2096SOL    HW2 6310   1.906   3.719   1.535
 2097SOL     OW 6311   2.727   2.210   0.195
 2097SOL    HW1 6312   2.786   2.273   0.146
 2097SOL    HW2 6313   2.746   2.116   0.166
 2098SOL     OW 6314   3.581   2.447   1.831
 2098SOL    HW1 6315   3.555   2.536   1.795
 2098SOL    HW2 6316   3.579   2.379   1.758
 2099SOL     OW 6317   3.224   3.006   0.545
 2099SOL    HW1 6318   3.307   2.977   0.497
 2099SOL    HW2 6319   3.175   3.073   0.489
 2100SOL     OW 6320   2.412   2.058   0.885
 2100SOL    HW1 6321   2.407   2.053   0.985
 2100SOL    HW2 6322   2.414   2.154   0.856
 2101SOL     OW 6323   2.870   3.318   0.477
 2101SOL    HW1 6324   2.824   3.390   0.425
 2101SOL    HW2 6325   2.866   3.338   0.575
 2102SOL     OW 6326   2.213   3.663   0.853
 2102SOL    HW1 6327   2.263   3.577   0.859
 2102SOL    HW2 6328   2.278   3.740   0.850
 2103SOL     OW 6329   3.657   2.928   0.873
 2103SOL    HW1 6330   3.595   2.913   0.797
 2103SOL    HW2 6331   3.605   2.939   0.958
 2104SOL     OW 6332   3.089   3.412   1.506
 2104SOL    HW1 6333   3.095   3.335   1.570
 2104SOL    HW2 6334   3.037   3.386   1.426
 2105SOL     OW 6335   2.183   2.805   0.242
 2105SOL    HW1 6336   2.265   2.844   0.200
 2105SOL    HW2 6337   2.156   2.723   0.193
 2106SOL     OW 6338   3.320   2.597   0.728
 2106SOL    HW1 6339   3.315   2.532   0.803
 2106SOL    HW2 6340   3.400   2.656   0.741
 2107SOL     OW 6341   2.323   3.128   1.727
 2107SOL    HW1 6342   2.273   3.129   1.641
 2107SOL    HW2 6343   2.260   3.110   1.803
 2108SOL     OW 6344   2.973   3.638   0.237
 2108SOL    HW1 6345   2.913   3.576   0.287
 2108SOL    HW2 6346   3.004   3.594   0.152
 2109SOL     OW 6347   2.064   2.147   1.498
 2109SOL    HW1 6348   1.984   2.207   1.485
 2109SOL    HW2 6349   2.054   2.098   1.584
 2110SOL     OW 6350   3.494   3.239   0.081
 2110SOL    HW1 6351   3.462   3.333   0.071
 2110SOL    HW2 6352   3.418   3.176   0.069
 2111SOL     OW 6353   2.326   3.605   0.323
 2111SOL    HW1 6354   2.359   3.644   0.409
 2111SOL    HW2 6355   2.402   3.598   0.258
 2112SOL     OW 6356   3.262   1.969   0.426
 2112SOL    HW1 6357   3.238   1.932   0.336
 2112SOL    HW2 6358   3.361   1.985   0.430
 2113SOL     OW 6359   2.111   3.647   1.241
 2113SOL    HW1 6360   2.168   3.582   1.291
 2113SOL    HW2 6361   2.095   3.614   1.148
 2114SOL     OW 6362   2.802   3.560   0.904
 2114SOL    HW1 6363   2.882   3.503   0.925
 2114SOL    HW2 6364   2.753   3.520   0.827
 2115SOL     OW 6365   2.244   2.562   0.480
 2115SOL    HW1 6366   2.289   2.472   0.477
 2115SOL    HW2 6367   2.150   2.551   0.513
 2116SOL     OW 6368   3.409   2.084   1.729
 2116SOL    HW1 6369   3.404   2.121   1.821
 2116SOL    HW2 6370   3.337   2.015   1.717
 2117SOL     OW 6371   2.476   1.984   0.117
 2117SOL    HW1 6372   2.574   1.962   0.124
 2117SOL    HW2 6373   2.445   1.967   0.024
 2118SOL     OW 6374   2.643   2.126   1.749
 2118SOL    HW1 6375   2.710   2.065   1.792
 2118SOL    HW2 6376   2.570   2.145   1.814
 2119SOL     OW 6377   2.750   3.376   1.195
 2119SOL    HW1 6378   2.727   3.351   1.101
 2119SOL    HW2 6379   2.811   3.307   1.234
 2120SOL     OW 6380   3.213   2.452   1.433
 2120SOL    HW1 6381   3.241   2.409   1.518
 2120SOL    HW2 6382   3.238   2.548   1.434
 2121SOL     OW 6383   2.665   3.264   0.924
 2121SOL    HW1 6384   2.755   3.278   0.882
 2121SOL    HW2 6385   2.594   3.266   0.853
 2122SOL     OW 6386   2.784   2.365   0.899
 2122SOL    HW1 6387   2.759   2.356   0.803
 2122SOL    HW2 6388   2.832   2.283   0.930
 2123SOL     OW 6389   2.401   1.926   0.512
 2123SOL    HW1 6390   2.320   1.927   0.570
 2123SOL    HW2 6391   2.404   2.009   0.457
 2124SOL     OW 6392   3.296   3.050   0.041
 2124SOL    HW1 6393   3.328   2.974   0.098
 2124SOL    HW2 6394   3.204   3.077   0.071
 2125SOL     OW 6395   2.159   1.897   0.171
 2125SOL    HW1 6396   2.208   1.981   0.150
 2125SOL    HW2 6397   2.221   1.832   0.216
 2126SOL     OW 6398   2.797   2.098   0.480
 2126SOL    HW1 6399   2.749   2.139   0.402
 2126SOL    HW2 6400   2.896   2.096   0.461
 2127SOL     OW 6401   2.938   2.545   1.464
 2127SOL    HW1 6402   2.858   2.484   1.467
 2127SOL    HW2 6403   3.019   2.492   1.440
 2128SOL     OW 6404   3.089   3.432   0.793
 2128SOL    HW1 6405   3.110   3.506   0.728
 2128SOL    HW2 6406   3.157   3.432   0.866
 2129SOL     OW 6407   2.321   3.014   0.741
 2129SOL    HW1 6408   2.250   2.987   0.806
 2129SOL    HW2 6409   2.295   2.986   0.648
 2130SOL     OW 6410   3.133   3.659   0.591
 2130SOL    HW1 6411   3.177   3.723   0.527
 2130SOL    HW2 6412   3.083   3.711   0.661
 2131SOL     OW 6413   2.894   2.411   0.016
 2131SOL    HW1 6414   2.853   2.493  -0.023
 2131SOL    HW2 6415   2.958   2.437   0.089
 2132SOL     OW 6416   1.940   2.418   1.386
 2132SOL    HW1 6417   2.032   2.417   1.345
 2132SOL    HW2 6418   1.934   2.492   1.453
 2133SOL     OW 6419   2.423   2.084   1.147
 2133SOL    HW1 6420   2.461   2.000   1.184
 2133SOL    HW2 6421   2.335   2.103   1.191
 2134SOL     OW 6422   2.728   2.316   0.642
 2134SOL    HW1 6423   2.696   2.388   0.580
 2134SOL    HW2 6424   2.752   2.235   0.589
 2135SOL     OW 6425   2.879   1.901   0.753
 2135SOL    HW1 6426   2.807   1.906   0.684
 2135SOL    HW2 6427   2.855   1.832   0.822
 2136SOL     OW 6428   3.291   3.035   0.867
 2136SOL    HW1 6429   3.236   2.951   0.860
 2136SOL    HW2 6430   3.317   3.064   0.775
 2137SOL     OW 6431   3.328   2.452   0.992
 2137SOL    HW1 6432   3.298   2.357   0.999
 2137SOL    HW2 6433   3.401   2.468   1.058
 2138SOL     OW 6434   3.719   2.695   0.377
 2138SOL    HW1 6435   3.761   2.631   0.441
 2138SOL    HW2 6436   3.681   2.644   0.299
 2139SOL     OW 6437   2.350   3.247   0.174
 2139SOL    HW1 6438   2.263   3.232   0.221
 2139SOL    HW2 6439   2.333   3.273   0.079
 2140SOL     OW 6440   3.526   3.142   0.657
 2140SOL    HW1 6441   3.625   3.150   0.671
 2140SOL    HW2 6442   3.481   3.226   0.688
 2141SOL     OW 6443   3.252   2.437   0.078
 2141SOL    HW1 6444   3.198   2.416   0.159
 2141SOL    HW2 6445   3.343   2.396   0.087
 2142SOL     OW 6446   2.389   2.118   0.328
 2142SOL    HW1 6447   2.416   2.059   0.253
 2142SOL    HW2 6448   2.389   2.213   0.297
 2143SOL     OW 6449   3.616   3.085   1.588
 2143SOL    HW1 6450   3.707   3.046   1.575
 2143SOL    HW2 6451   3.624   3.181   1.612
 2144SOL     OW 6452   2.926   3.209   1.340
 2144SOL    HW1 6453   2.846   3.186   1.395
 2144SOL    HW2 6454   3.009   3.183   1.389
 2145SOL     OW 6455   3.454   3.491   1.625
 2145SOL    HW1 6456   3.481   3.525   1.535
 2145SOL    HW2 6457   3.533   3.453   1.671
 2146SOL     OW 6458   2.973   3.057   1.100
 2146SOL    HW1 6459   2.933   3.101   1.181
 2146SOL    HW2 6460   2.932   3.094   1.017
 2147SOL     OW 6461   3.500   2.961   1.079
 2147SOL    HW1 6462   3.505   3.042   1.138
 2147SOL    HW2 6463   3.414   2.963   1.028
 2148SOL     OW 6464   2.777   1.951   1.402
 2148SOL    HW1 6465   2.802   1.931   1.307
 2148SOL    HW2 6466   2.849   2.007   1.444
 2149SOL     OW 6467   2.842   2.978   1.719
 2149SOL    HW1 6468   2.743   2.984   1.729
 2149SOL    HW2 6469   2.865   2.898   1.663
 2150SOL     OW 6470   2.567   2.912   0.368
 2150SOL    HW1 6471   2.553   2.919   0.467
 2150SOL    HW2 6472   2.651   2.861   0.350
 2151SOL     OW 6473   2.272   2.675   1.251
 2151SOL    HW1 6474   2.358   2.687   1.301
 2151SOL    HW2 6475   2.230   2.588   1.278
 2152SOL     OW 6476   3.136   2.248   1.262
 2152SOL    HW1 6477   3.157   2.322   1.326
 2152SOL    HW2 6478   3.047   2.265   1.219
 2153SOL     OW 6479   1.926   3.426   1.331
 2153SOL    HW1 6480   1.880   3.508   1.297
 2153SOL    HW2 6481   2.024   3.445   1.340
 2154SOL     OW 6482   2.229   2.962   0.501
 2154SOL    HW1 6483   2.222   3.045   0.445
 2154SOL    HW2 6484   2.233   2.882   0.441
 2155SOL     OW 6485   2.428   2.399   0.865
 2155SOL    HW1 6486   2.440   2.465   0.791
 2155SOL    HW2 6487   2.474   2.433   0.948
 2156SOL     OW 6488   3.114   3.210   0.388
 2156SOL    HW1 6489   3.164   3.287   0.428
 2156SOL    HW2 6490   3.019   3.212   0.420
 2157SOL     OW 6491   3.134   3.307   1.142
 2157SOL    HW1 6492   3.181   3.320   1.229
 2157SOL    HW2 6493   3.068   3.233   1.151
 2158SOL     OW 6494   3.444   2.501   0.472
 2158SOL    HW1 6495   3.413   2.562   0.545
 2158SOL    HW2 6496   3.494   2.553   0.403
 2159SOL     OW 6497   2.216   3.372   1.329
 2159SOL    HW1 6498   2.195   3.328   1.242
 2159SOL    HW2 6499   2.313   3.398   1.332
 2160SOL     OW 6500   2.264   2.613   1.598
 2160SOL    HW1 6501   2.332   2.668   1.551
 2160SOL    HW2 6502   2.304   2.525   1.625
 2161SOL     OW 6503   3.449   2.641   1.670
 2161SOL    HW1 6504   3.357   2.679   1.665
 2161SOL    HW2 6505   3.509   2.688   1.605
 2162SOL     OW 6506   2.875   1.967   1.770
 2162SOL    HW1 6507   2.881   2.052   1.718
 2162SOL    HW2 6508   2.907   1.891   1.713
 2163SOL     OW 6509   2.366   1.912   1.740
 2163SOL    HW1 6510   2.324   1.855   1.670
 2163SOL    HW2 6511   2.300   1.981   1.772
 2164SOL     OW 6512   2.435   2.732   1.029
 2164SOL    HW1 6513   2.479   2.821   1.020
 2164SOL    HW2 6514   2.372   2.732   1.106
 2165SOL     OW 6515   3.222   2.724   1.045
 2165SOL    HW1 6516   3.147   2.724   0.979
 2165SOL    HW2 6517   3.259   2.632   1.054
 2166SOL     OW 6518   3.071   2.387   0.275
 2166SOL    HW1 6519   3.084   2.303   0.329
 2166SOL    HW2 6520   3.042   2.461   0.335
 2167SOL     OW 6521   2.169   2.075   1.231
 2167SOL    HW1 6522   2.146   2.112   1.321
 2167SOL    HW2 6523   2.139   1.980   1.225
 2168SOL     OW 6524   1.899   3.172   1.282
 2168SOL    HW1 6525   1.952   3.123   1.350
 2168SOL    HW2 6526   1.921   3.270   1.287
 2169SOL     OW 6527   2.594   2.496   1.064
 2169SOL    HW1 6528   2.653   2.470   0.988
 2169SOL    HW2 6529   2.566   2.592   1.053
 2170SOL     OW 6530   3.590   2.797   1.854
 2170SOL    HW1 6531   3.544   2.790   1.765
 2170SOL    HW2 6532   3.528   2.841   1.920
 2171SOL     OW 6533   2.169   1.925   0.618
 2171SOL    HW1 6534   2.158   2.019   0.651
 2171SOL    HW2 6535   2.164   1.862   0.695
 2172SOL     OW 6536   3.484   2.229   0.374
 2172SOL    HW1 6537   3.486   2.153   0.438
 2172SOL    HW2 6538   3.436   2.306   0.414
 2173SOL     OW 6539   2.885   2.628   0.966
 2173SOL    HW1 6540   2.900   2.649   1.062
 2173SOL    HW2 6541   2.855   2.533   0.957
 2174SOL     OW 6542   2.842   3.435   1.700
 2174SOL    HW1 6543   2.822   3.479   1.612
 2174SOL    HW2 6544   2.881   3.344   1.684
 2175SOL     OW 6545   3.721   3.380   1.605
 2175SOL    HW1 6546   3.735   3.407   1.510
 2175SOL    HW2 6547   3.804   3.402   1.658
 2176SOL     OW 6548   2.212   2.760   1.804
 2176SOL    HW1 6549   2.288   2.804   1.852
 2176SOL    HW2 6550   2.247   2.713   1.722
 2177SOL     OW 6551   3.402   2.136   0.125
 2177SOL    HW1 6552   3.341   2.061   0.148
 2177SOL    HW2 6553   3.424   2.188   0.208
 2178SOL     OW 6554   3.165   2.700   0.042
 2178SOL    HW1 6555   3.199   2.607   0.057
 2178SOL    HW2 6556   3.183   2.727  -0.053
 2179SOL     OW 6557   2.930   3.195   0.849
 2179SOL    HW1 6558   2.937   3.111   0.794
 2179SOL    HW2 6559   2.992   3.264   0.813
 2180SOL     OW 6560   2.181   2.672   0.949
 2180SOL    HW1 6561   2.274   2.708   0.954
 2180SOL    HW2 6562   2.175   2.587   1.001
 2181SOL     OW 6563   2.201   2.371   1.006
 2181SOL    HW1 6564   2.149   2.288   0.989
 2181SOL    HW2 6565   2.278   2.376   0.942
 2182SOL     OW 6566   3.000   2.242   1.678
 2182SOL    HW1 6567   2.955   2.305   1.742
 2182SOL    HW2 6568   3.093   2.273   1.661
 2183SOL     OW 6569   3.022   2.069   1.477
 2183SOL    HW1 6570   3.022   2.133   1.554
 2183SOL    HW2 6571   3.050   2.117   1.394
 2184SOL     OW 6572   1.870   3.188   0.200
 2184SOL    HW1 6573   1.777   3.209   0.169
 2184SOL    HW2 6574   1.880   3.089   0.213
 2185SOL     OW 6575   1.950   3.663   0.927
 2185SOL    HW1 6576   1.908   3.577   0.900
 2185SOL    HW2 6577   2.044   3.666   0.893
 2186SOL     OW 6578   2.366   3.430   0.910
 2186SOL    HW1 6579   2.432   3.504   0.919
 2186SOL    HW2 6580   2.410   3.351   0.868
 2187SOL     OW 6581   2.864   2.658   1.238
 2187SOL    HW1 6582   2.905   2.626   1.324
 2187SOL    HW2 6583   2.768   2.631   1.235
 2188SOL     OW 6584   1.902   2.406   1.114
 2188SOL    HW1 6585   1.987   2.373   1.073
 2188SOL    HW2 6586   1.915   2.421   1.212
 2189SOL     OW 6587   2.051   2.382   1.722
 2189SOL    HW1 6588   2.110   2.342   1.652
 2189SOL    HW2 6589   1.993   2.453   1.681
 2190SOL     OW 6590   3.231   2.812   1.660
 2190SOL    HW1 6591   3.270   2.901   1.680
 2190SOL    HW2 6592   3.241   2.792   1.563
 2191SOL     OW 6593   2.677   2.434   0.325
 2191SOL    HW1 6594   2.684   2.345   0.279
 2191SOL    HW2 6595   2.583   2.468   0.317
 2192SOL     OW 6596   3.519   2.466   1.206
 2192SOL    HW1 6597   3.481   2.397   1.268
 2192SOL    HW2 6598   3.601   2.430   1.162
 2193SOL     OW 6599   2.114   3.426   1.744
 2193SOL    HW1 6600   2.084   3.483   1.820
 2193SOL    HW2 6601   2.107   3.329   1.770
 2194SOL     OW 6602   2.533   2.326   1.269
 2194SOL    HW1 6603   2.499   2.237   1.239
 2194SOL    HW2 6604   2.559   2.380   1.189
 2195SOL     OW 6605   2.792   3.540   1.465
 2195SOL    HW1 6606   2.768   3.522   1.370
 2195SOL    HW2 6607   2.822   3.634   1.475
 2196SOL     OW 6608   2.335   2.362   0.191
 2196SOL    HW1 6609   2.396   2.442   0.195
 2196SOL    HW2 6610   2.240   2.393   0.198
 2197SOL     OW 6611   2.021   2.999   1.466
 2197SOL    HW1 6612   2.043   2.938   1.542
 2197SOL    HW2 6613   2.031   2.950   1.380
 2198SOL     OW 6614   3.209   2.921   1.234
 2198SOL    HW1 6615   3.233   2.858   1.160
 2198SOL    HW2 6616   3.119   2.961   1.216
 2199SOL     OW 6617   3.164   2.717   0.309
 2199SOL    HW1 6618   3.078   2.686   0.351
 2199SOL    HW2 6619   3.160   2.703   0.210
 2200SOL     OW 6620   3.621   3.609   1.154
 2200SOL    HW1 6621   3.682   3.639   1.081
 2200SOL    HW2 6622   3.583   3.520   1.132
 2201SOL     OW 6623   3.114   3.593   1.128
 2201SOL    HW1 6624   3.198   3.598   1.074
 2201SOL    HW2 6625   3.091   3.497   1.146
 2202SOL     OW 6626   1.945   3.120   1.022
 2202SOL    HW1 6627   1.940   3.119   1.122
 2202SOL    HW2 6628   1.862   3.079   0.984
 2203SOL     OW 6629   2.550   3.524   1.716
 2203SOL    HW1 6630   2.494   3.605   1.725
 2203SOL    HW2 6631   2.602   3.528   1.630
 2204SOL     OW 6632   2.765   1.948   0.133
 2204SOL    HW1 6633   2.816   1.949   0.047
 2204SOL    HW2 6634   2.821   1.906   0.204
 2205SOL     OW 6635   3.588   1.997   0.523
 2205SOL    HW1 6636   3.661   1.980   0.456
 2205SOL    HW2 6637   3.557   1.910   0.561
 2206SOL     OW 6638   3.250   3.435   0.477
 2206SOL    HW1 6639   3.317   3.447   0.403
 2206SOL    HW2 6640   3.210   3.524   0.500
 2207SOL     OW 6641   1.992   3.656   1.851
 2207SOL    HW1 6642   1.951   3.582   1.904
 2207SOL    HW2 6643   2.056   3.707   1.909
 2208SOL     OW 6644   3.142   2.789   0.672
 2208SOL    HW1 6645   3.202   2.708   0.674
 2208SOL    HW2 6646   3.182   2.858   0.612
 2209SOL     OW 6647   2.692   3.135   1.422
 2209SOL    HW1 6648   2.687   3.168   1.517
 2209SOL    HW2 6649   2.606   3.154   1.376
 2210SOL     OW 6650   2.534   3.478   0.154
 2210SOL    HW1 6651   2.543   3.488   0.055
 2210SOL    HW2 6652   2.494   3.389   0.175
 2211SOL     OW 6653   3.512   3.582   1.394
 2211SOL    HW1 6654   3.565   3.592   1.310
 2211SOL    HW2 6655   3.485   3.672   1.428
 2212SOL     OW 6656   3.703   2.037   0.963
 2212SOL    HW1 6657   3.742   1.952   0.927
 2212SOL    HW2 6658   3.605   2.039   0.944
 2213SOL     OW 6659   2.125   2.188   0.720
 2213SOL    HW1 6660   2.046   2.239   0.686
 2213SOL    HW2 6661   2.116   2.173   0.818
 2214SOL     OW 6662   3.056   3.474   0.031
 2214SOL    HW1 6663   3.062   3.381   0.068
 2214SOL    HW2 6664   2.997   3.474  -0.049
 2215SOL     OW 6665   2.684   2.864   1.372
 2215SOL    HW1 6666   2.724   2.863   1.280
 2215SOL    HW2 6667   2.694   2.956   1.412
 2216SOL     OW 6668   2.778   2.772   0.291
 2216SOL    HW1 6669   2.841   2.810   0.223
 2216SOL    HW2 6670   2.818   2.689   0.330
 2217SOL     OW 6671   3.366   3.469   0.044
 2217SOL    HW1 6672   3.274   3.506   0.051
 2217SOL    HW2 6673   3.404   3.489  -0.046
 2218SOL     OW 6674   2.234   3.150   1.490
 2218SOL    HW1 6675   2.221   3.243   1.456
 2218SOL    HW2 6676   2.150   3.098   1.477
 2219SOL     OW 6677   3.476   3.154   1.289
 2219SOL    HW1 6678   3.536   3.157   1.369
 2219SOL    HW2 6679   3.401   3.218   1.302
 2220SOL     OW 6680   2.901   2.960   0.696
 2220SOL    HW1 6681   2.831   2.913   0.750
 2220SOL    HW2 6682   2.960   2.892   0.653
 2221SOL     OW 6683   2.876   2.098   0.971
 2221SOL    HW1 6684   2.868   2.062   0.878
 2221SOL    HW2 6685   2.874   2.022   1.036
 2222SOL     OW 6686   2.452   3.349   0.491
 2222SOL    HW1 6687   2.494   3.291   0.421
 2222SOL    HW2 6688   2.408   3.428   0.447
 2223SOL     OW 6689   3.571   2.247   1.381
 2223SOL    HW1 6690   3.644   2.316   1.385
 2223SOL    HW2 6691   3.599   2.172   1.322
 2224SOL     OW 6692   2.117   3.210   0.290
 2224SOL    HW1 6693   2.021   3.211   0.263
 2224SOL    HW2 6694   2.129   3.263   0.374
 2225SOL     OW 6695   1.967   2.875   1.726
 2225SOL    HW1 6696   1.890   2.842   1.780
 2225SOL    HW2 6697   2.052   2.845   1.768
 2226SOL     OW 6698   2.534   2.065   1.489
 2226SOL    HW1 6699   2.624   2.049   1.449
 2226SOL    HW2 6700   2.542   2.070   1.588
 2227SOL     OW 6701   3.302   2.718   1.398
 2227SOL    HW1 6702   3.245   2.770   1.335
 2227SOL    HW2 6703   3.398   2.730   1.374
 2228SOL     OW 6704   1.934   2.028   0.318
 2228SOL    HW1 6705   1.917   2.111   0.264
 2228SOL    HW2 6706   2.024   1.991   0.296
 2229SOL     OW 6707   3.045   3.197   0.119
 2229SOL    HW1 6708   2.946   3.186   0.121
 2229SOL    HW2 6709   3.079   3.212   0.212
 2230SOL     OW 6710   2.475   2.704   1.431
 2230SOL    HW1 6711   2.531   2.785   1.414
 2230SOL    HW2 6712   2.534   2.624   1.434
 2231SOL     OW 6713   3.355   3.629   0.959
 2231SOL    HW1 6714   3.388   3.693   0.890
 2231SOL    HW2 6715   3.421   3.623   1.034
 2232SOL     OW 6716   2.578   2.427   1.708
 2232SOL    HW1 6717   2.597   2.492   1.782
 2232SOL    HW2 6718   2.638   2.347   1.717
 2233SOL     OW 6719   3.312   3.082   1.633
 2233SOL    HW1 6720   3.303   3.072   1.732
 2233SOL    HW2 6721   3.408   3.075   1.607
 2234SOL     OW 6722   2.252   3.603   1.560
 2234SOL    HW1 6723   2.161   3.644   1.558
 2234SOL    HW2 6724   2.245   3.509   1.592
 2235SOL     OW 6725   3.536   2.745   1.254
 2235SOL    HW1 6726   3.509   2.656   1.217
 2235SOL    HW2 6727   3.537   2.813   1.181
 2236SOL     OW 6728   3.087   2.187   0.449
 2236SOL    HW1 6729   3.152   2.113   0.438
 2236SOL    HW2 6730   3.107   2.237   0.533
 2237SOL     OW 6731   2.456   2.607   0.652
 2237SOL    HW1 6732   2.506   2.692   0.633
 2237SOL    HW2 6733   2.368   2.609   0.604
 2238SOL     OW 6734   3.639   2.204   1.642
 2238SOL    HW1 6735   3.622   2.235   1.548
 2238SOL    HW2 6736   3.555   2.167   1.680
 2239SOL     OW 6737   3.592   2.796   1.517
 2239SOL    HW1 6738   3.630   2.887   1.532
 2239SOL    HW2 6739   3.584   2.779   1.418
 2240SOL     OW 6740   2.721   3.236   0.016
 2240SOL    HW1 6741   2.675   3.251   0.104
 2240SOL    HW2 6742   2.765   3.321  -0.014
 2241SOL     OW 6743   2.523   3.652   0.953
 2241SOL    HW1 6744   2.477   3.740   0.940
 2241SOL    HW2 6745   2.622   3.664   0.946
 2242SOL     OW 6746   2.721   2.818   0.861
 2242SOL    HW1 6747   2.775   2.749   0.909
 2242SOL    HW2 6748   2.689   2.887   0.927
 2243SOL     OW 6749   2.945   2.846   0.087
 2243SOL    HW1 6750   2.922   2.899   0.005
 2243SOL    HW2 6751   3.026   2.790   0.068
 2244SOL     OW 6752   3.723   3.431   0.851
 2244SOL    HW1 6753   3.652   3.419   0.781
 2244SOL    HW2 6754   3.724   3.352   0.911
 2245SOL     OW 6755   2.083   3.176   1.844
 2245SOL    HW1 6756   2.018   3.103   1.823
 2245SOL    HW2 6757   2.087   3.190   1.942
 2246SOL     OW 6758   1.941   3.102   0.653
 2246SOL    HW1 6759   1.940   3.055   0.741
 2246SOL    HW2 6760   2.023   3.074   0.602
 2247SOL     OW 6761   2.534   3.253   1.624
 2247SOL    HW1 6762   2.456   3.203   1.662
 2247SOL    HW2 6763   2.531   3.348   1.655
 2248SOL     OW 6764   3.686   2.054   1.227
 2248SOL    HW1 6765   3.682   1.964   1.271
 2248SOL    HW2 6766   3.689   2.043   1.128
 2249SOL     OW 6767   2.290   2.286   0.520
 2249SOL    HW1 6768   2.320   2.214   0.458
 2249SOL    HW2 6769   2.251   2.246   0.603
 2250SOL     OW 6770   3.567   3.349   1.104
 2250SOL    HW1 6771   3.474   3.324   1.077
 2250SOL    HW2 6772   3.593   3.299   1.186
 2251SOL     OW 6773   2.179   2.409   1.280
 2251SOL    HW1 6774   2.217   2.350   1.352
 2251SOL    HW2 6775   2.219   2.383   1.192
 2252SOL     OW 6776   2.674   3.448   0.687
 2252SOL    HW1 6777   2.706   3.458   0.593
 2252SOL    HW2 6778   2.595   3.386   0.689
 2253SOL     OW 6779   3.286   2.076   1.112
 2253SOL    HW1 6780   3.338   2.011   1.167
 2253SOL    HW2 6781   3.237   2.139   1.173
 2254SOL     OW 6782   2.863   1.896   1.154
 2254SOL    HW1 6783   2.800   1.824   1.123
 2254SOL    HW2 6784   2.956   1.860   1.154
 2255SOL     OW 6785   2.632   3.192   0.301
 2255SOL    HW1 6786   2.586   3.105   0.318
 2255SOL    HW2 6787   2.723   3.189   0.342
 2256SOL     OW 6788   2.480   3.429   1.284
 2256SOL    HW1 6789   2.475   3.511   1.341
 2256SOL    HW2 6790   2.569   3.426   1.239
 2257SOL     OW 6791   3.214   1.914   0.168
 2257SOL    HW1 6792   3.249   1.873   0.084
 2257SOL    HW2 6793   3.124   1.876   0.188
 2258SOL     OW 6794   3.162   2.315   0.691
 2258SOL    HW1 6795   3.103   2.395   0.695
 2258SOL    HW2 6796   3.177   2.280   0.784
 2259SOL     OW 6797   3.455   2.083   0.882
 2259SOL    HW1 6798   3.371   2.082   0.936
 2259SOL    HW2 6799   3.457   2.166   0.826
 2260SOL     OW 6800   1.901   2.939   0.300
 2260SOL    HW1 6801   2.000   2.928   0.291
 2260SOL    HW2 6802   1.861   2.853   0.332
 2261SOL     OW 6803   2.737   3.508   0.337
 2261SOL    HW1 6804   2.660   3.473   0.283
 2261SOL    HW2 6805   2.705   3.579   0.399
 2262SOL     OW 6806   2.092   2.490   1.975
 2262SOL    HW1 6807   1.999   2.488   2.012
 2262SOL    HW2 6808   2.093   2.451   1.883
 2263SOL     OW 6809   2.087   2.137   2.858
 2263SOL    HW1 6810   2.122   2.120   2.950
 2263SOL    HW2 6811   1.999   2.092   2.846
 2264SOL     OW 6812   1.881   2.230   2.509
 2264SOL    HW1 6813   1.799   2.273   2.548
 2264SOL    HW2 6814   1.853   2.157   2.446
 2265SOL     OW 6815   2.431   3.137   3.027
 2265SOL    HW1 6816   2.338   3.130   2.990
 2265SOL    HW2 6817   2.442   3.226   3.071
 2266SOL     OW 6818   3.417   3.373   2.565
 2266SOL    HW1 6819   3.360   3.357   2.646
 2266SOL    HW2 6820   3.358   3.383   2.485
 2267SOL     OW 6821   2.997   2.565   2.579
 2267SOL    HW1 6822   3.054   2.643   2.554
 2267SOL    HW2 6823   2.937   2.591   2.655
 2268SOL     OW 6824   3.617   2.469   2.093
 2268SOL    HW1 6825   3.605   2.456   1.994
 2268SOL    HW2 6826   3.587   2.388   2.142
 2269SOL     OW 6827   2.630   3.006   2.885
 2269SOL    HW1 6828   2.552   3.023   2.945
 2269SOL    HW2 6829   2.664   3.093   2.849
 2270SOL     OW 6830   2.712   2.660   3.685
 2270SOL    HW1 6831   2.708   2.736   3.750
 2270SOL    HW2 6832   2.734   2.696   3.594
 2271SOL     OW 6833   2.548   3.023   3.665
 2271SOL    HW1 6834   2.608   3.102   3.679
 2271SOL    HW2 6835   2.462   3.054   3.624
 2272SOL     OW 6836   2.197   3.297   2.923
 2272SOL    HW1 6837   2.119   3.266   2.870
 2272SOL    HW2 6838   2.255   3.355   2.866
 2273SOL     OW 6839   3.322   3.367   3.201
 2273SOL    HW1 6840   3.346   3.461   3.227
 2273SOL    HW2 6841   3.306   3.313   3.283
 2274SOL     OW 6842   2.300   2.254   3.361
 2274SOL    HW1 6843   2.382   2.198   3.370
 2274SOL    HW2 6844   2.219   2.196   3.365
 2275SOL     OW 6845   3.465   2.309   2.599
 2275SOL    HW1 6846   3.391   2.355   2.549
 2275SOL    HW2 6847   3.516   2.377   2.652
 2276SOL     OW 6848   2.093   3.575   2.345
 2276SOL    HW1 6849   2.127   3.652   2.399
 2276SOL    HW2 6850   2.137   3.575   2.255
 2277SOL     OW 6851   2.989   3.203   3.552
 2277SOL    HW1 6852   3.036   3.203   3.640
 2277SOL    HW2 6853   2.941   3.116   3.541
 2278SOL     OW 6854   2.092   3.296   2.400
 2278SOL    HW1 6855   2.066   3.392   2.400
 2278SOL    HW2 6856   2.021   3.242   2.445
 2279SOL     OW 6857   2.102   2.953   2.748
 2279SOL    HW1 6858   2.116   2.869   2.800
 2279SOL    HW2 6859   2.047   3.017   2.803
 2280SOL     OW 6860   2.482   3.648   3.301
 2280SOL    HW1 6861   2.390   3.631   3.336
 2280SOL    HW2 6862   2.510   3.740   3.327
 2281SOL     OW 6863   2.468   2.826   1.985
 2281SOL    HW1 6864   2.475   2.910   1.931
 2281SOL    HW2 6865   2.514   2.839   2.073
 2282SOL     OW 6866   3.456   1.976   3.342
 2282SOL    HW1 6867   3.438   2.043   3.270
 2282SOL    HW2 6868   3.453   2.022   3.431
 2283SOL     OW 6869   1.984   2.505   2.425
 2283SOL    HW1 6870   1.939   2.417   2.442
 2283SOL    HW2 6871   1.983   2.559   2.509
 2284SOL     OW 6872   3.704   3.629   2.221
 2284SOL    HW1 6873   3.758   3.600   2.301
 2284SOL    HW2 6874   3.734   3.719   2.192
 2285SOL     OW 6875   1.889   3.458   1.979
 2285SOL    HW1 6876   1.870   3.362   2.000
 2285SOL    HW2 6877   1.856   3.516   2.054
 2286SOL     OW 6878   3.551   2.784   2.474
 2286SOL    HW1 6879   3.646   2.755   2.482
 2286SOL    HW2 6880   3.543   2.849   2.399
 2287SOL     OW 6881   3.503   2.970   2.294
 2287SOL    HW1 6882   3.589   2.972   2.242
 2287SOL    HW2 6883   3.517   3.017   2.382
 2288SOL     OW 6884   1.975   2.599   3.459
 2288SOL    HW1 6885   2.063   2.586   3.504
 2288SOL    HW2 6886   1.962   2.696   3.437
 2289SOL     OW 6887   2.475   3.227   2.588
 2289SOL    HW1 6888   2.426   3.140   2.597
 2289SOL    HW2 6889   2.452   3.270   2.501
 2290SOL     OW 6890   3.155   3.090   3.285
 2290SOL    HW1 6891   3.192   3.017   3.227
 2290SOL    HW2 6892   3.207   3.095   3.370
 2291SOL     OW 6893   2.059   2.838   3.126
 2291SOL    HW1 6894   2.148   2.793   3.112
 2291SOL    HW2 6895   1.986   2.773   3.107
 2292SOL     OW 6896   3.387   2.861   2.052
 2292SOL    HW1 6897   3.324   2.785   2.065
 2292SOL    HW2 6898   3.435   2.879   2.138
 2293SOL     OW 6899   3.049   3.654   3.478
 2293SOL    HW1 6900   3.073   3.714   3.402
 2293SOL    HW2 6901   3.056   3.559   3.448
 2294SOL     OW 6902   2.179   2.113   3.663
 2294SOL    HW1 6903   2.250   2.184   3.669
 2294SOL    HW2 6904   2.091   2.152   3.691
 2295SOL     OW 6905   3.328   3.279   2.815
 2295SOL    HW1 6906   3.269   3.285   2.895
 2295SOL    HW2 6907   3.313   3.191   2.769
 2296SOL     OW 6908   3.529   3.576   2.434
 2296SOL    HW1 6909   3.488   3.553   2.346
 2296SOL    HW2 6910   3.511   3.502   2.499
 2297SOL     OW 6911   2.460   2.591   2.132
 2297SOL    HW1 6912   2.484   2.660   2.064
 2297SOL    HW2 6913   2.382   2.624   2.186
 2298SOL     OW 6914   3.143   2.207   2.806
 2298SOL    HW1 6915   3.057   2.157   2.793
 2298SOL    HW2 6916   3.205   2.153   2.862
 2299SOL     OW 6917   3.438   3.524   2.169
 2299SOL    HW1 6918   3.527   3.570   2.172
 2299SOL    HW2 6919   3.417   3.500   2.074
 2300SOL     OW 6920   2.669   2.467   3.327
 2300SOL    HW1 6921   2.622   2.464   3.416
 2300SOL    HW2 6922   2.618   2.412   3.261
 2301SOL     OW 6923   3.256   2.331   3.536
 2301SOL    HW1 6924   3.236   2.374   3.624
 2301SOL    HW2 6925   3.334   2.269   3.545
 2302SOL     OW 6926   2.835   2.752   3.434
 2302SOL    HW1 6927   2.881   2.668   3.405
 2302SOL    HW2 6928   2.779   2.786   3.359
 2303SOL     OW 6929   2.853   2.272   3.104
 2303SOL    HW1 6930   2.776   2.306   3.158
 2303SOL    HW2 6931   2.819   2.221   3.025
 2304SOL     OW 6932   2.903   2.563   2.291
 2304SOL    HW1 6933   2.929   2.559   2.387
 2304SOL    HW2 6934   2.818   2.512   2.277
 2305SOL     OW 6935   1.938   2.673   2.651
 2305SOL    HW1 6936   2.037   2.661   2.660
 2305SOL    HW2 6937   1.914   2.768   2.672
 2306SOL     OW 6938   1.992   3.683   3.433
 2306SOL    HW1 6939   1.982   3.668   3.532
 2306SOL    HW2 6940   1.906   3.719   3.397
 2307SOL     OW 6941   2.727   2.210   2.057
 2307SOL    HW1 6942   2.786   2.273   2.008
 2307SOL    HW2 6943   2.746   2.116   2.028
 2308SOL     OW 6944   3.581   2.447   3.693
 2308SOL    HW1 6945   3.555   2.536   3.657
 2308SOL    HW2 6946   3.579   2.379   3.620
 2309SOL     OW 6947   3.224   3.006   2.407
 2309SOL    HW1 6948   3.307   2.977   2.359
 2309SOL    HW2 6949   3.175   3.073   2.351
 2310SOL     OW 6950   2.412   2.058   2.747
 2310SOL    HW1 6951   2.407   2.053   2.847
 2310SOL    HW2 6952   2.414   2.154   2.718
 2311SOL     OW 6953   2.870   3.318   2.339
 2311SOL    HW1 6954   2.824   3.390   2.287
 2311SOL    HW2 6955   2.866   3.338   2.437
 2312SOL     OW 6956   2.213   3.663   2.715
 2312SOL    HW1 6957   2.263   3.577   2.721
 2312SOL    HW2 6958   2.278   3.740   2.712
 2313SOL     OW 6959   3.657   2.928   2.735
 2313SOL    HW1 6960   3.595   2.913   2.659
 2313SOL    HW2 6961   3.605   2.939   2.820
 2314SOL     OW 6962   3.089   3.412   3.368
 2314SOL    HW1 6963   3.095   3.335   3.432
 2314SOL    HW2 6964   3.037   3.386   3.288
 2315SOL     OW 6965   2.183   2.805   2.104
 2315SOL    HW1 6966   2.265   2.844   2.062
 2315SOL    HW2 6967   2.156   2.723   2.055
 2316SOL     OW 6968   3.320   2.597   2.590
 2316SOL    HW1 6969   3.315   2.532   2.665
 2316SOL    HW2 6970   3.400   2.656   2.603
 2317SOL     OW 6971   2.323   3.128   3.589
 2317SOL    HW1 6972   2.273   3.129   3.503
 2317SOL    HW2 6973   2.260   3.110   3.665
 2318SOL     OW 6974   2.973   3.638   2.099
 2318SOL    HW1 6975   2.913   3.576   2.149
 2318SOL    HW2 6976   3.004   3.594   2.014
 2319SOL     OW 6977   2.064   2.147   3.360
 2319SOL    HW1 6978   1.984   2.207   3.347
 2319SOL    HW2 6979   2.054   2.098   3.446
 2320SOL     OW 6980   3.494   3.239   1.943
 2320SOL    HW1 6981   3.462   3.333   1.933
 2320SOL    HW2 6982   3.418   3.176   1.931
 2321SOL     OW 6983   2.326   3.605   2.185
 2321SOL    HW1 6984   2.359   3.644   2.271
 2321SOL    HW2 6985   2.402   3.598   2.120
 2322SOL     OW 6986   3.262   1.969   2.288
 2322SOL    HW1 6987   3.238   1.932   2.198
 2322SOL    HW2 6988   3.361   1.985   2.292
 2323SOL     OW 6989   2.111   3.647   3.103
 2323SOL    HW1 6990   2.168   3.582   3.153
 2323SOL    HW2 6991   2.095   3.614   3.010
 2324SOL     OW 6992   2.802   3.560   2.766
 2324SOL    HW1 6993   2.882   3.503   2.787
 2324SOL    HW2 6994   2.753   3.520   2.689
 2325SOL     OW 6995   3.409   2.084   3.591
 2325SOL    HW1 6996   3.404   2.121   3.683
 2325SOL    HW2 6997   3.337   2.015   3.579
 2326SOL     OW 6998   2.476   1.984   1.979
 2326SOL    HW1 6999   2.574   1.962   1.986
 2326SOL    HW2 7000   2.445   1.967   1.886
 2327SOL     OW 7001   2.643   2.126   3.611
 2327SOL    HW1 7002   2.710   2.065   3.654
 2327SOL    HW2 7003   2.570   2.145   3.676
 2328SOL     OW 7004   2.750   3.376   3.057
 2328SOL    HW1 7005   2.727   3.351   2.963
 2328SOL    HW2 7006   2.811   3.307   3.096
 2329SOL     OW 7007   3.213   2.452   3.295
 2329SOL    HW1 7008   3.241   2.409   3.380
 2329SOL    HW2 7009   3.238   2.548   3.296
 2330SOL     OW 7010   2.665   3.264   2.786
 2330SOL    HW1 7011   2.755   3.278   2.744
 2330SOL    HW2 7012   2.594   3.266   2.715
 2331SOL     OW 7013   2.784   2.365   2.761
 2331SOL    HW1 7014   2.759   2.356   2.665
 2331SOL    HW2 7015   2.832   2.283   2.792
 2332SOL     OW 7016   2.401   1.926   2.374
 2332SOL    HW1 7017   2.320   1.927   2.432
 2332SOL    HW2 7018   2.404   2.009   2.319
 2333SOL     OW 7019   3.296   3.050   1.903
 2333SOL    HW1 7020   3.328   2.974   1.960
 2333SOL    HW2 7021   3.204   3.077   1.933
 2334SOL     OW 7022   2.159   1.897   2.033
 2334SOL    HW1 7023   2.208   1.981   2.012
 2334SOL    HW2 7024   2.221   1.832   2.078
 2335SOL     OW 7025   2.938   2.545   3.326
 2335SOL    HW1 7026   2.858   2.484   3.329
 2335SOL    HW2 7027   3.019   2.492   3.302
 2336SOL     OW 7028   3.089   3.432   2.655
 2336SOL    HW1 7029   3.110   3.506   2.590
 2336SOL    HW2 7030   3.157   3.432   2.728
 2337SOL     OW 7031   3.133   3.659   2.453
 2337SOL    HW1 7032   3.177   3.723   2.389
 2337SOL    HW2 7033   3.083   3.711   2.523
 2338SOL     OW 7034   2.894   2.411   1.878
 2338SOL    HW1 7035   2.853   2.493   1.839
 2338SOL    HW2 7036   2.958   2.437   1.951
 2339SOL     OW 7037   1.940   2.418   3.248
 2339SOL    HW1 7038   2.032   2.417   3.207
 2339SOL    HW2 7039   1.934   2.492   3.315
 2340SOL     OW 7040   2.423   2.084   3.009
 2340SOL    HW1 7041   2.461   2.000   3.046
 2340SOL    HW2 7042   2.335   2.103   3.053
 2341SOL     OW 7043   2.879   1.901   2.615
 2341SOL    HW1 7044   2.807   1.906   2.546
 2341SOL    HW2 7045   2.855   1.832   2.684
 2342SOL     OW 7046   3.291   3.035   2.729
 2342SOL    HW1 7047   3.236   2.951   2.722
 2342SOL    HW2 7048   3.317   3.064   2.637
 2343SOL     OW 7049   3.328   2.452   2.854
 2343SOL    HW1 7050   3.298   2.357   2.861
 2343SOL    HW2 7051   3.401   2.468   2.920
 2344SOL     OW 7052   3.719   2.695   2.239
 2344SOL    HW1 7053   3.761   2.631   2.303
 2344SOL    HW2 7054   3.681   2.644   2.161
 2345SOL     OW 7055   2.350   3.247   2.036
 2345SOL    HW1 7056   2.263   3.232   2.083
 2345SOL    HW2 7057   2.333   3.273   1.941
 2346SOL     OW 7058   3.526   3.142   2.519
 2346SOL    HW1 7059   3.625   3.150   2.533
 2346SOL    HW2 7060   3.481   3.226   2.550
 2347SOL     OW 7061   3.252   2.437   1.940
 2347SOL    HW1 7062   3.198   2.416   2.021
 2347SOL    HW2 7063   3.343   2.396   1.949
 2348SOL     OW 7064   2.389   2.118   2.190
 2348SOL    HW1 7065   2.416   2.059   2.115
 2348SOL    HW2 7066   2.389   2.213   2.159
 2349SOL     OW 7067   3.616   3.085   3.450
 2349SOL    HW1 7068   3.707   3.046   3.437
 2349SOL    HW2 7069   3.624   3.181   3.474
 2350SOL     OW 7070   2.926   3.209   3.202
 2350SOL    HW1 7071   2.846   3.186   3.257
 2350SOL    HW2 7072   3.009   3.183   3.251
 2351SOL     OW 7073   3.454   3.491   3.487
 2351SOL    HW1 7074   3.481   3.525   3.397
 2351SOL    HW2 7075   3.533   3.453   3.533
 2352SOL     OW 7076   2.973   3.057   2.962
 2352SOL    HW1 7077   2.933   3.101   3.043
 2352SOL    HW2 7078   2.932   3.094   2.879
 2353SOL     OW 7079   3.500   2.961   2.941
 2353SOL    HW1 7080   3.505   3.042   3.000
 2353SOL    HW2 7081   3.414   2.963   2.890
 2354SOL     OW 7082   2.777   1.951   3.264
 2354SOL    HW1 7083   2.802   1.931   3.169
 2354SOL    HW2 7084   2.849   2.007   3.306
 2355SOL     OW 7085   2.842   2.978   3.581
 2355SOL    HW1 7086   2.743   2.984   3.591
 2355SOL    HW2 7087   2.865   2.898   3.525
 2356SOL     OW 7088   2.567   2.912   2.230
 2356SOL    HW1 7089   2.553   2.919   2.329
 2356SOL    HW2 7090   2.651   2.861   2.212
 2357SOL     OW 7091   2.272   2.675   3.113
 2357SOL    HW1 7092   2.358   2.687   3.163
 2357SOL    HW2 7093   2.230   2.588   3.140
 2358SOL     OW 7094   3.136   2.248   3.124
 2358SOL    HW1 7095   3.157   2.322   3.188
 2358SOL    HW2 7096   3.047   2.265   3.081
 2359SOL     OW 7097   1.926   3.426   3.193
 2359SOL    HW1 7098   1.880   3.508   3.159
 2359SOL    HW2 7099   2.024   3.445   3.202
 2360SOL     OW 7100   3.114   3.210   2.250
 2360SOL    HW1 7101   3.164   3.287   2.290
 2360SOL    HW2 7102   3.019   3.212   2.282
 2361SOL     OW 7103   3.134   3.307   3.004
 2361SOL    HW1 7104   3.181   3.320   3.091
 2361SOL    HW2 7105   3.068   3.233   3.013
 2362SOL     OW 7106   3.444   2.501   2.334
 2362SOL    HW1 7107   3.413   2.562   2.407
 2362SOL    HW2 7108   3.494   2.553   2.265
 2363SOL     OW 7109   2.216   3.372   3.191
 2363SOL    HW1 7110   2.195   3.328   3.104
 2363SOL    HW2 7111   2.313   3.398   3.194
 2364SOL     OW 7112   2.264   2.613   3.460
 2364SOL    HW1 7113   2.332   2.668   3.413
 2364SOL    HW2 7114   2.304   2.525   3.487
 2365SOL     OW 7115   3.449   2.641   3.532
 2365SOL    HW1 7116   3.357   2.679   3.527
 2365SOL    HW2 7117   3.509   2.688   3.467
 2366SOL     OW 7118   2.875   1.967   3.632
 2366SOL    HW1 7119   2.881   2.052   3.580
 2366SOL    HW2 7120   2.907   1.891   3.575
 2367SOL     OW 7121   2.366   1.912   3.602
 2367SOL    HW1 7122   2.324   1.855   3.532
 2367SOL    HW2 7123   2.300   1.981   3.634
 2368SOL     OW 7124   2.435   2.732   2.891
 2368SOL    HW1 7125   2.479   2.821   2.882
 2368SOL    HW2 7126   2.372   2.732   2.968
 2369SOL     OW 7127   3.222   2.724   2.907
 2369SOL    HW1 7128   3.147   2.724   2.841
 2369SOL    HW2 7129   3.259   2.632   2.916
 2370SOL     OW 7130   3.071   2.387   2.137
 2370SOL    HW1 7131   3.084   2.303   2.191
 2370SOL    HW2 7132   3.042   2.461   2.197
 2371SOL     OW 7133   2.169   2.075   3.093
 2371SOL    HW1 7134   2.146   2.112   3.183
 2371SOL    HW2 7135   2.139   1.980   3.087
 2372SOL     OW 7136   1.899   3.172   3.144
 2372SOL    HW1 7137   1.952   3.123   3.212
 2372SOL    HW2 7138   1.921   3.270   3.149
 2373SOL     OW 7139   2.594   2.496   2.926
 2373SOL    HW1 7140   2.653   2.470   2.850
 2373SOL    HW2 7141   2.566   2.592   2.915
 2374SOL     OW 7142   3.590   2.797   3.716
 2374SOL    HW1 7143   3.544   2.790   3.627
 2374SOL    HW2 7144   3.528   2.841   3.782
 2375SOL     OW 7145   2.169   1.925   2.480
 2375SOL    HW1 7146   2.158   2.019   2.513
 2375SOL    HW2 7147   2.164   1.862   2.557
 2376SOL     OW 7148   3.484   2.229   2.236
 2376SOL    HW1 7149   3.486   2.153   2.300
 2376SOL    HW2 7150   3.436   2.306   2.276
 2377SOL     OW 7151   2.885   2.628   2.828
 2377SOL    HW1 7152   2.900   2.649   2.924
 2377SOL    HW2 7153   2.855   2.533   2.819
 2378SOL     OW 7154   2.842   3.435   3.562
 2378SOL    HW1 7155   2.822   3.479   3.474
 2378SOL    HW2 7156   2.881   3.344   3.546
 2379SOL     OW 7157   3.721   3.380   3.467
 2379SOL    HW1 7158   3.735   3.407   3.372
 2379SOL    HW2 7159   3.804   3.402   3.520
 2380SOL     OW 7160   2.212   2.760   3.666
 2380SOL    HW1 7161   2.288   2.804   3.714
 2380SOL    HW2 7162   2.247   2.713   3.584
 2381SOL     OW 7163   3.402   2.136   1.987
 2381SOL    HW1 7164   3.341   2.061   2.010
 2381SOL    HW2 7165   3.424   2.188   2.070
 2382SOL     OW 7166   3.165   2.700   1.904
 2382SOL    HW1 7167   3.199   2.607   1.919
 2382SOL    HW2 7168   3.183   2.727   1.809
 2383SOL     OW 7169   2.930   3.195   2.711
 2383SOL    HW1 7170   2.937   3.111   2.656
 2383SOL    HW2 7171   2.992   3.264   2.675
 2384SOL     OW 7172   2.181   2.672   2.811
 2384SOL    HW1 7173   2.274   2.708   2.816
 2384SOL    HW2 7174   2.175   2.587   2.863
 2385SOL     OW 7175   2.201   2.371   2.868
 2385SOL    HW1 7176   2.149   2.288   2.851
 2385SOL    HW2 7177   2.278   2.376   2.804
 2386SOL     OW 7178   3.000   2.242   3.540
 2386SOL    HW1 7179   2.955   2.305   3.604
 2386SOL    HW2 7180   3.093   2.273   3.523
 2387SOL     OW 7181   3.022   2.069   3.339
 2387SOL    HW1 7182   3.022   2.133   3.416
 2387SOL    HW2 7183   3.050   2.117   3.256
 2388SOL     OW 7184   1.870   3.188   2.062
 2388SOL    HW1 7185   1.777   3.209   2.031
 2388SOL    HW2 7186   1.880   3.089   2.075
 2389SOL     OW 7187   1.950   3.663   2.789
 2389SOL    HW1 7188   1.908   3.577   2.762
 2389SOL    HW2 7189   2.044   3.666   2.755
 2390SOL     OW 7190   2.366   3.430   2.772
 2390SOL    HW1 7191   2.432   3.504   2.781
 2390SOL    HW2 7192   2.410   3.351   2.730
 2391SOL     OW 7193   2.864   2.658   3.100
 2391SOL    HW1 7194   2.905   2.626   3.186
 2391SOL    HW2 7195   2.768   2.631   3.097
 2392SOL     OW 7196   1.902   2.406   2.976
 2392SOL    HW1 7197   1.987   2.373   2.935
 2392SOL    HW2 7198   1.915   2.421   3.074
 2393SOL     OW 7199   2.051   2.382   3.584
 2393SOL    HW1 7200   2.110   2.342   3.514
 2393SOL    HW2 7201   1.993   2.453   3.543
 2394SOL     OW 7202   3.231   2.812   3.522
 2394SOL    HW1 7203   3.270   2.901   3.542
 2394SOL    HW2 7204   3.241   2.792   3.425
 2395SOL     OW 7205   2.677   2.434   2.187
 2395SOL    HW1 7206   2.684   2.345   2.141
 2395SOL    HW2 7207   2.583   2.468   2.179
 2396SOL     OW 7208   3.519   2.466   3.068
 2396SOL    HW1 7209   3.481   2.397   3.130
 2396SOL    HW2 7210   3.601   2.430   3.024
 2397SOL     OW 7211   2.114   3.426   3.606
 2397SOL    HW1 7212   2.084   3.483   3.682
 2397SOL    HW2 7213   2.107   3.329   3.632
 2398SOL     OW 7214   2.533   2.326   3.131
 2398SOL    HW1 7215   2.499   2.237   3.101
 2398SOL    HW2 7216   2.559   2.380   3.051
 2399SOL     OW 7217   2.792   3.540   3.327
 2399SOL    HW1 7218   2.768   3.522   3.232
 2399SOL    HW2 7219   2.822   3.634   3.337
 2400SOL     OW 7220   2.335   2.362   2.053
 2400SOL    HW1 7221   2.396   2.442   2.057
 2400SOL    HW2 7222   2.240   2.393   2.060
 2401SOL     OW 7223   2.021   2.999   3.328
 2401SOL    HW1 7224   2.043   2.938   3.404
 2401SOL    HW2 7225   2.031   2.950   3.242
 2402SOL     OW 7226   3.209   2.921   3.096
 2402SOL    HW1 7227   3.233   2.858   3.022
 2402SOL    HW2 7228   3.119   2.961   3.078
 2403SOL     OW 7229   3.164   2.717   2.171
 2403SOL    HW1 7230   3.078   2.686   2.213
 2403SOL    HW2 7231   3.160   2.703   2.072
 2404SOL     OW 7232   3.621   3.609   3.016
 2404SOL    HW1 7233   3.682   3.639   2.943
 2404SOL    HW2 7234   3.583   3.520   2.994
 2405SOL     OW 7235   3.114   3.593   2.990
 2405SOL    HW1 7236   3.198   3.598   2.936
 2405SOL    HW2 7237   3.091   3.497   3.008
 2406SOL     OW 7238   1.945   3.120   2.884
 2406SOL    HW1 7239   1.940   3.119   2.984
 2406SOL    HW2 7240   1.862   3.079   2.846
 2407SOL     OW 7241   2.550   3.524   3.578
 2407SOL    HW1 7242   2.494   3.605   3.587
 2407SOL    HW2 7243   2.602   3.528   3.492
 2408SOL     OW 7244   3.588   1.997   2.385
 2408SOL    HW1 7245   3.661   1.980   2.318
 2408SOL    HW2 7246   3.557   1.910   2.423
 2409SOL     OW 7247   3.250   3.435   2.339
 2409SOL    HW1 7248   3.317   3.447   2.265
 2409SOL    HW2 7249   3.210   3.524   2.362
 2410SOL     OW 7250   1.992   3.656   3.713
 2410SOL    HW1 7251   1.951   3.582   3.766
 2410SOL    HW2 7252   2.056   3.707   3.771
 2411SOL     OW 7253   3.142   2.789   2.534
 2411SOL    HW1 7254   3.202   2.708   2.536
 2411SOL    HW2 7255   3.182   2.858   2.474
 2412SOL     OW 7256   2.692   3.135   3.284
 2412SOL    HW1 7257   2.687   3.168   3.379
 2412SOL    HW2 7258   2.606   3.154   3.238
 2413SOL     OW 7259   2.534   3.478   2.016
 2413SOL    HW1 7260   2.543   3.488   1.917
 2413SOL    HW2 7261   2.494   3.389   2.037
 2414SOL     OW 7262   3.512   3.582   3.256
 2414SOL    HW1 7263   3.565   3.592   3.172
 2414SOL    HW2 7264   3.485   3.672   3.290
 2415SOL     OW 7265   3.703   2.037   2.825
 2415SOL    HW1 7266   3.742   1.952   2.789
 2415SOL    HW2 7267   3.605   2.039   2.806
 2416SOL     OW 7268   2.125   2.188   2.582
 2416SOL    HW1 7269   2.046   2.239   2.548
 2416SOL    HW2 7270   2.116   2.173   2.680
 2417SOL     OW 7271   3.056   3.474   1.893
 2417SOL    HW1 7272   3.062   3.381   1.930
 2417SOL    HW2 7273   2.997   3.474   1.813
 2418SOL     OW 7274   2.684   2.864   3.234
 2418SOL    HW1 7275   2.724   2.863   3.142
 2418SOL    HW2 7276   2.694   2.956   3.274
 2419SOL     OW 7277   2.778   2.772   2.153
 2419SOL    HW1 7278   2.841   2.810   2.085
 2419SOL    HW2 7279   2.818   2.689   2.192
 2420SOL     OW 7280   3.366   3.469   1.906
 2420SOL    HW1 7281   3.274   3.506   1.913
 2420SOL    HW2 7282   3.404   3.489   1.816
 2421SOL     OW 7283   2.234   3.150   3.352
 2421SOL    HW1 7284   2.221   3.243   3.318
 2421SOL    HW2 7285   2.150   3.098   3.339
 2422SOL     OW 7286   3.476   3.154   3.151
 2422SOL    HW1 7287   3.536   3.157   3.231
 2422SOL    HW2 7288   3.401   3.218   3.164
 2423SOL     OW 7289   2.901   2.960   2.558
 2423SOL    HW1 7290   2.831   2.913   2.612
 2423SOL    HW2 7291   2.960   2.892   2.515
 2424SOL     OW 7292   2.876   2.098   2.833
 2424SOL    HW1 7293   2.868   2.062   2.740
 2424SOL    HW2 7294   2.874   2.022   2.898
 2425SOL     OW 7295   2.452   3.349   2.353
 2425SOL    HW1 7296   2.494   3.291   2.283
 2425SOL    HW2 7297   2.408   3.428   2.309
 2426SOL     OW 7298   3.571   2.247   3.243
 2426SOL    HW1 7299   3.644   2.316   3.247
 2426SOL    HW2 7300   3.599   2.172   3.184
 2427SOL     OW 7301   2.117   3.210   2.152
 2427SOL    HW1 7302   2.021   3.211   2.125
 2427SOL    HW2 7303   2.129   3.263   2.236
 2428SOL     OW 7304   1.967   2.875   3.588
 2428SOL    HW1 7305   1.890   2.842   3.642
 2428SOL    HW2 7306   2.052   2.845   3.630
 2429SOL     OW 7307   2.534   2.065   3.351
 2429SOL    HW1 7308   2.624   2.049   3.311
 2429SOL    HW2 7309   2.542   2.070   3.450
 2430SOL     OW 7310   1.937   2.207   1.895
 2430SOL    HW1 7311   1.845   2.179   1.866
 2430SOL    HW2 7312   1.968   2.284   1.839
 2431SOL     OW 7313   3.302   2.718   3.260
 2431SOL    HW1 7314   3.245   2.770   3.197
 2431SOL    HW2 7315   3.398   2.730   3.236
 2432SOL     OW 7316   1.934   2.028   2.180
 2432SOL    HW1 7317   1.917   2.111   2.126
 2432SOL    HW2 7318   2.024   1.991   2.158
 2433SOL     OW 7319   3.045   3.197   1.981
 2433SOL    HW1 7320   2.946   3.186   1.983
 2433SOL    HW2 7321   3.079   3.212   2.074
 2434SOL     OW 7322   2.475   2.704   3.293
 2434SOL    HW1 7323   2.531   2.785   3.276
 2434SOL    HW2 7324   2.534   2.624   3.296
 2435SOL     OW 7325   3.355   3.629   2.821
 2435SOL    HW1 7326   3.388   3.693   2.752
 2435SOL    HW2 7327   3.421   3.623   2.896
 2436SOL     OW 7328   2.578   2.427   3.570
 2436SOL    HW1 7329   2.597   2.492   3.644
 2436SOL    HW2 7330   2.638   2.347   3.579
 2437SOL     OW 7331   3.312   3.082   3.495
 2437SOL    HW1 7332   3.303   3.072   3.594
 2437SOL    HW2 7333   3.408   3.075   3.469
 2438SOL     OW 7334   2.252   3.603   3.422
 2438SOL    HW1 7335   2.161   3.644   3.420
 2438SOL    HW2 7336   2.245   3.509   3.454
 2439SOL     OW 7337   3.536   2.745   3.116
 2439SOL    HW1 7338   3.509   2.656   3.079
 2439SOL    HW2 7339   3.537   2.813   3.043
 2440SOL     OW 7340   3.087   2.187   2.311
 2440SOL    HW1 7341   3.152   2.113   2.300
 2440SOL    HW2 7342   3.107   2.237   2.395
 2441SOL     OW 7343   3.639   2.204   3.504
 2441SOL    HW1 7344   3.622   2.235   3.410
 2441SOL    HW2 7345   3.555   2.167   3.542
 2442SOL     OW 7346   3.592   2.796   3.379
 2442SOL    HW1 7347   3.630   2.887   3.394
 2442SOL    HW2 7348   3.584   2.779   3.280
 2443SOL     OW 7349   2.721   3.236   1.878
 2443SOL    HW1 7350   2.675   3.251   1.966
 2443SOL    HW2 7351   2.765   3.321   1.848
 2444SOL     OW 7352   2.523   3.652   2.815
 2444SOL    HW1 7353   2.477   3.740   2.802
 2444SOL    HW2 7354   2.622   3.664   2.808
 2445SOL     OW 7355   2.721   2.818   2.723
 2445SOL    HW1 7356   2.775   2.749   2.771
 2445SOL    HW2 7357   2.689   2.887   2.789
 2446SOL     OW 7358   2.945   2.846   1.949
 2446SOL    HW1 7359   2.922   2.899   1.867
 2446SOL    HW2 7360   3.026   2.790   1.930
 2447SOL     OW 7361   3.723   3.431   2.713
 2447SOL    HW1 7362   3.652   3.419   2.643
 2447SOL    HW2 7363   3.724   3.352   2.773
 2448SOL     OW 7364   2.083   3.176   3.706
 2448SOL    HW1 7365   2.018   3.103   3.685
 2448SOL    HW2 7366   2.087   3.190   3.804
 2449SOL     OW 7367   1.941   3.102   2.515
 2449SOL    HW1 7368   1.940   3.055   2.603
 2449SOL    HW2 7369   2.023   3.074   2.464
 2450SOL     OW 7370   2.534   3.253   3.486
 2450SOL    HW1 7371   2.456   3.203   3.524
 2450SOL    HW2 7372   2.531   3.348   3.517
 2451SOL     OW 7373   3.686   2.054   3.089
 2451SOL    HW1 7374   3.682   1.964   3.133
 2451SOL    HW2 7375   3.689   2.043   2.990
 2452SOL     OW 7376   3.567   3.349   2.966
 2452SOL    HW1 7377   3.474   3.324   2.939
 2452SOL    HW2 7378   3.593   3.299   3.048
 2453SOL     OW 7379   2.179   2.409   3.142
 2453SOL    HW1 7380   2.217   2.350   3.214
 2453SOL    HW2 7381   2.219   2.383   3.054
 2454SOL     OW 7382   2.674   3.448   2.549
 2454SOL    HW1 7383   2.706   3.458   2.455
 2454SOL    HW2 7384   2.595   3.386   2.551
 2455SOL     OW 7385   3.286   2.076   2.974
 2455SOL    HW1 7386   3.338   2.011   3.029
 2455SOL    HW2 7387   3.237   2.139   3.035
 2456SOL     OW 7388   2.863   1.896   3.016
 2456SOL    HW1 7389   2.800   1.824   2.985
 2456SOL    HW2 7390   2.956   1.860   3.016
 2457SOL     OW 7391   2.632   3.192   2.163
 2457SOL    HW1 7392   2.586   3.105   2.180
 2457SOL    HW2 7393   2.723   3.189   2.204
 2458SOL     OW 7394   2.480   3.429   3.146
 2458SOL    HW1 7395   2.475   3.511   3.203
 2458SOL    HW2 7396   2.569   3.426   3.101
 2459SOL     OW 7397   3.214   1.914   2.030
 2459SOL    HW1 7398   3.249   1.873   1.946
 2459SOL    HW2 7399   3.124   1.876   2.050
 2460SOL     OW 7400   3.162   2.315   2.553
 2460SOL    HW1 7401   3.103   2.395   2.557
 2460SOL    HW2 7402   3.177   2.280   2.646
 2461SOL     OW 7403   3.455   2.083   2.744
 2461SOL    HW1 7404   3.371   2.082   2.798
 2461SOL    HW2 7405   3.457   2.166   2.688
 2462SOL     OW 7406   1.901   2.939   2.162
 2462SOL    HW1 7407   2.000   2.928   2.153
 2462SOL    HW2 7408   1.861   2.853   2.194
 2463SOL     OW 7409   2.737   3.508   2.199
 2463SOL    HW1 7410   2.660   3.473   2.145
 2463SOL    HW2 7411   2.705   3.579   2.261
 2464SOL     OW 7412   2.092   2.490   3.837
 2464SOL    HW1 7413   1.999   2.488   3.874
 2464SOL    HW2 7414   2.093   2.451   3.745
 2465SOL     OW 7415   2.087   2.137   4.720
 2465SOL    HW1 7416   2.122   2.120   4.812
 2465SOL    HW2 7417   1.999   2.092   4.708
 2466SOL     OW 7418   1.881   2.230   4.371
 2466SOL    HW1 7419   1.799   2.273   4.410
 2466SOL    HW2 7420   1.853   2.157   4.308
 2467SOL     OW 7421   2.431   3.137   4.889
 2467SOL    HW1 7422   2.338   3.130   4.852
 2467SOL    HW2 7423   2.442   3.226   4.933
 2468SOL     OW 7424   3.417   3.373   4.427
 2468SOL    HW1 7425   3.360   3.357   4.508
 2468SOL    HW2 7426   3.358   3.383   4.347
 2469SOL     OW 7427   2.997   2.565   4.441
 2469SOL    HW1 7428   3.054   2.643   4.416
 2469SOL    HW2 7429   2.937   2.591   4.517
 2470SOL     OW 7430   3.617   2.469   3.955
 2470SOL    HW1 7431   3.605   2.456   3.856
 2470SOL    HW2 7432   3.587   2.388   4.004
 2471SOL     OW 7433   2.630   3.006   4.747
 2471SOL    HW1 7434   2.552   3.023   4.807
 2471SOL    HW2 7435   2.664   3.093   4.711
 2472SOL     OW 7436   2.547   2.874   4.389
 2472SOL    HW1 7437   2.616   2.858   4.459
 2472SOL    HW2 7438   2.474   2.931   4.427
 2473SOL     OW 7439   2.197   3.297   4.785
 2473SOL    HW1 7440   2.119   3.266   4.732
 2473SOL    HW2 7441   2.255   3.355   4.728
 2474SOL     OW 7442   3.465   2.309   4.461
 2474SOL    HW1 7443   3.391   2.355   4.411
 2474SOL    HW2 7444   3.516   2.377   4.514
 2475SOL     OW 7445   2.093   3.575   4.207
 2475SOL    HW1 7446   2.127   3.652   4.261
 2475SOL    HW2 7447   2.137   3.575   4.117
 2476SOL     OW 7448   2.092   3.296   4.262
 2476SOL    HW1 7449   2.066   3.392   4.262
 2476SOL    HW2 7450   2.021   3.242   4.307
 2477SOL     OW 7451   2.102   2.953   4.610
 2477SOL    HW1 7452   2.116   2.869   4.662
 2477SOL    HW2 7453   2.047   3.017   4.665
 2478SOL     OW 7454   2.468   2.826   3.847
 2478SOL    HW1 7455   2.475   2.910   3.793
 2478SOL    HW2 7456   2.514   2.839   3.935
 2479SOL     OW 7457   1.984   2.505   4.287
 2479SOL    HW1 7458   1.939   2.417   4.304
 2479SOL    HW2 7459   1.983   2.559   4.371
 2480SOL     OW 7460   3.704   3.629   4.083
 2480SOL    HW1 7461   3.758   3.600   4.163
 2480SOL    HW2 7462   3.734   3.719   4.054
 2481SOL     OW 7463   1.889   3.458   3.841
 2481SOL    HW1 7464   1.870   3.362   3.862
 2481SOL    HW2 7465   1.856   3.516   3.916
 2482SOL     OW 7466   3.551   2.784   4.336
 2482SOL    HW1 7467   3.646   2.755   4.344
 2482SOL    HW2 7468   3.543   2.849   4.261
 2483SOL     OW 7469   3.503   2.970   4.156
 2483SOL    HW1 7470   3.589   2.972   4.104
 2483SOL    HW2 7471   3.517   3.017   4.244
 2484SOL     OW 7472   2.475   3.227   4.450
 2484SOL    HW1 7473   2.426   3.140   4.459
 2484SOL    HW2 7474   2.452   3.270   4.363
 2485SOL     OW 7475   2.671   1.866   4.226
 2485SOL    HW1 7476   2.711   1.957   4.217
 2485SOL    HW2 7477   2.571   1.874   4.232
 2486SOL     OW 7478   2.059   2.838   4.988
 2486SOL    HW1 7479   2.148   2.793   4.974
 2486SOL    HW2 7480   1.986   2.773   4.969
 2487SOL     OW 7481   3.387   2.861   3.914
 2487SOL    HW1 7482   3.324   2.785   3.927
 2487SOL    HW2 7483   3.435   2.879   4.000
 2488SOL     OW 7484   3.328   3.279   4.677
 2488SOL    HW1 7485   3.269   3.285   4.757
 2488SOL    HW2 7486   3.313   3.191   4.631
 2489SOL     OW 7487   3.529   3.576   4.296
 2489SOL    HW1 7488   3.488   3.553   4.208
 2489SOL    HW2 7489   3.511   3.502   4.361
 2490SOL     OW 7490   2.460   2.591   3.994
 2490SOL    HW1 7491   2.484   2.660   3.926
 2490SOL    HW2 7492   2.382   2.624   4.048
 2491SOL     OW 7493   3.143   2.207   4.668
 2491SOL    HW1 7494   3.057   2.157   4.655
 2491SOL    HW2 7495   3.205   2.153   4.724
 2492SOL     OW 7496   3.438   3.524   4.031
 2492SOL    HW1 7497   3.527   3.570   4.034
 2492SOL    HW2 7498   3.417   3.500   3.936
 2493SOL     OW 7499   2.903   2.563   4.153
 2493SOL    HW1 7500   2.929   2.559   4.249
 2493SOL    HW2 7501   2.818   2.512   4.139
 2494SOL     OW 7502   1.938   2.673   4.513
 2494SOL    HW1 7503   2.037   2.661   4.522
 2494SOL    HW2 7504   1.914   2.768   4.534
 2495SOL     OW 7505   2.727   2.210   3.919
 2495SOL    HW1 7506   2.786   2.273   3.870
 2495SOL    HW2 7507   2.746   2.116   3.890
 2496SOL     OW 7508   3.224   3.006   4.269
 2496SOL    HW1 7509   3.307   2.977   4.221
 2496SOL    HW2 7510   3.175   3.073   4.213
 2497SOL     OW 7511   2.412   2.058   4.609
 2497SOL    HW1 7512   2.407   2.053   4.709
 2497SOL    HW2 7513   2.414   2.154   4.580
 2498SOL     OW 7514   2.870   3.318   4.201
 2498SOL    HW1 7515   2.824   3.390   4.149
 2498SOL    HW2 7516   2.866   3.338   4.299
 2499SOL     OW 7517   2.213   3.663   4.577
 2499SOL    HW1 7518   2.263   3.577   4.583
 2499SOL    HW2 7519   2.278   3.740   4.574
 2500SOL     OW 7520   3.657   2.928   4.597
 2500SOL    HW1 7521   3.595   2.913   4.521
 2500SOL    HW2 7522   3.605   2.939   4.682
 2501SOL     OW 7523   2.183   2.805   3.966
 2501SOL    HW1 7524   2.265   2.844   3.924
 2501SOL    HW2 7525   2.156   2.723   3.917
 2502SOL     OW 7526   3.320   2.597   4.452
 2502SOL    HW1 7527   3.315   2.532   4.527
 2502SOL    HW2 7528   3.400   2.656   4.465
 2503SOL     OW 7529   2.973   3.638   3.961
 2503SOL    HW1 7530   2.913   3.576   4.011
 2503SOL    HW2 7531   3.004   3.594   3.876
 2504SOL     OW 7532   3.494   3.239   3.805
 2504SOL    HW1 7533   3.462   3.333   3.795
 2504SOL    HW2 7534   3.418   3.176   3.793
 2505SOL     OW 7535   2.326   3.605   4.047
 2505SOL    HW1 7536   2.359   3.644   4.133
 2505SOL    HW2 7537   2.402   3.598   3.982
 2506SOL     OW 7538   3.262   1.969   4.150
 2506SOL    HW1 7539   3.238   1.932   4.060
 2506SOL    HW2 7540   3.361   1.985   4.154
 2507SOL     OW 7541   2.111   3.647   4.965
 2507SOL    HW1 7542   2.168   3.582   5.015
 2507SOL    HW2 7543   2.095   3.614   4.872
 2508SOL     OW 7544   2.802   3.560   4.628
 2508SOL    HW1 7545   2.882   3.503   4.649
 2508SOL    HW2 7546   2.753   3.520   4.551
 2509SOL     OW 7547   2.244   2.562   4.204
 2509SOL    HW1 7548   2.289   2.472   4.201
 2509SOL    HW2 7549   2.150   2.551   4.237
 2510SOL     OW 7550   2.476   1.984   3.841
 2510SOL    HW1 7551   2.574   1.962   3.848
 2510SOL    HW2 7552   2.445   1.967   3.748
 2511SOL     OW 7553   2.665   3.264   4.648
 2511SOL    HW1 7554   2.755   3.278   4.606
 2511SOL    HW2 7555   2.594   3.266   4.577
 2512SOL     OW 7556   2.784   2.365   4.623
 2512SOL    HW1 7557   2.759   2.356   4.527
 2512SOL    HW2 7558   2.832   2.283   4.654
 2513SOL     OW 7559   2.401   1.926   4.236
 2513SOL    HW1 7560   2.320   1.927   4.294
 2513SOL    HW2 7561   2.404   2.009   4.181
 2514SOL     OW 7562   3.296   3.050   3.765
 2514SOL    HW1 7563   3.328   2.974   3.822
 2514SOL    HW2 7564   3.204   3.077   3.795
 2515SOL     OW 7565   2.159   1.897   3.895
 2515SOL    HW1 7566   2.208   1.981   3.874
 2515SOL    HW2 7567   2.221   1.832   3.940
 2516SOL     OW 7568   2.797   2.098   4.204
 2516SOL    HW1 7569   2.749   2.139   4.126
 2516SOL    HW2 7570   2.896   2.096   4.185
 2517SOL     OW 7571   3.089   3.432   4.517
 2517SOL    HW1 7572   3.110   3.506   4.452
 2517SOL    HW2 7573   3.157   3.432   4.590
 2518SOL     OW 7574   2.321   3.014   4.465
 2518SOL    HW1 7575   2.250   2.987   4.530
 2518SOL    HW2 7576   2.295   2.986   4.372
 2519SOL     OW 7577   3.133   3.659   4.315
 2519SOL    HW1 7578   3.177   3.723   4.251
 2519SOL    HW2 7579   3.083   3.711   4.385
 2520SOL     OW 7580   2.894   2.411   3.740
 2520SOL    HW1 7581   2.853   2.493   3.701
 2520SOL    HW2 7582   2.958   2.437   3.813
 2521SOL     OW 7583   2.728   2.316   4.366
 2521SOL    HW1 7584   2.696   2.388   4.304
 2521SOL    HW2 7585   2.752   2.235   4.313
 2522SOL     OW 7586   2.879   1.901   4.477
 2522SOL    HW1 7587   2.807   1.906   4.408
 2522SOL    HW2 7588   2.855   1.832   4.546
 2523SOL     OW 7589   3.291   3.035   4.591
 2523SOL    HW1 7590   3.236   2.951   4.584
 2523SOL    HW2 7591   3.317   3.064   4.499
 2524SOL     OW 7592   3.328   2.452   4.716
 2524SOL    HW1 7593   3.298   2.357   4.723
 2524SOL    HW2 7594   3.401   2.468   4.782
 2525SOL     OW 7595   3.719   2.695   4.101
 2525SOL    HW1 7596   3.761   2.631   4.165
 2525SOL    HW2 7597   3.681   2.644   4.023
 2526SOL     OW 7598   2.350   3.247   3.898
 2526SOL    HW1 7599   2.263   3.232   3.945
 2526SOL    HW2 7600   2.333   3.273   3.803
 2527SOL     OW 7601   3.526   3.142   4.381
 2527SOL    HW1 7602   3.625   3.150   4.395
 2527SOL    HW2 7603   3.481   3.226   4.412
 2528SOL     OW 7604   3.252   2.437   3.802
 2528SOL    HW1 7605   3.198   2.416   3.883
 2528SOL    HW2 7606   3.343   2.396   3.811
 2529SOL     OW 7607   2.389   2.118   4.052
 2529SOL    HW1 7608   2.416   2.059   3.977
 2529SOL    HW2 7609   2.389   2.213   4.021
 2530SOL     OW 7610   2.973   3.057   4.824
 2530SOL    HW1 7611   2.933   3.101   4.905
 2530SOL    HW2 7612   2.932   3.094   4.741
 2531SOL     OW 7613   3.500   2.961   4.803
 2531SOL    HW1 7614   3.505   3.042   4.862
 2531SOL    HW2 7615   3.414   2.963   4.752
 2532SOL     OW 7616   2.567   2.912   4.092
 2532SOL    HW1 7617   2.553   2.919   4.191
 2532SOL    HW2 7618   2.651   2.861   4.074
 2533SOL     OW 7619   2.272   2.675   4.975
 2533SOL    HW1 7620   2.358   2.687   5.025
 2533SOL    HW2 7621   2.230   2.588   5.002
 2534SOL     OW 7622   2.229   2.962   4.225
 2534SOL    HW1 7623   2.222   3.045   4.169
 2534SOL    HW2 7624   2.233   2.882   4.165
 2535SOL     OW 7625   2.428   2.399   4.589
 2535SOL    HW1 7626   2.440   2.465   4.515
 2535SOL    HW2 7627   2.474   2.433   4.672
 2536SOL     OW 7628   3.114   3.210   4.112
 2536SOL    HW1 7629   3.164   3.287   4.152
 2536SOL    HW2 7630   3.019   3.212   4.144
 2537SOL     OW 7631   3.134   3.307   4.866
 2537SOL    HW1 7632   3.181   3.320   4.953
 2537SOL    HW2 7633   3.068   3.233   4.875
 2538SOL     OW 7634   3.444   2.501   4.196
 2538SOL    HW1 7635   3.413   2.562   4.269
 2538SOL    HW2 7636   3.494   2.553   4.127
 2539SOL     OW 7637   2.216   3.372   5.053
 2539SOL    HW1 7638   2.195   3.328   4.966
 2539SOL    HW2 7639   2.313   3.398   5.056
 2540SOL     OW 7640   2.435   2.732   4.753
 2540SOL    HW1 7641   2.479   2.821   4.744
 2540SOL    HW2 7642   2.372   2.732   4.830
 2541SOL     OW 7643   3.071   2.387   3.999
 2541SOL    HW1 7644   3.084   2.303   4.053
 2541SOL    HW2 7645   3.042   2.461   4.059
 2542SOL     OW 7646   2.169   2.075   4.955
 2542SOL    HW1 7647   2.146   2.112   5.045
 2542SOL    HW2 7648   2.139   1.980   4.949
 2543SOL     OW 7649   2.594   2.496   4.788
 2543SOL    HW1 7650   2.653   2.470   4.712
 2543SOL    HW2 7651   2.566   2.592   4.777
 2544SOL     OW 7652   2.169   1.925   4.342
 2544SOL    HW1 7653   2.158   2.019   4.375
 2544SOL    HW2 7654   2.164   1.862   4.419
 2545SOL     OW 7655   3.484   2.229   4.098
 2545SOL    HW1 7656   3.486   2.153   4.162
 2545SOL    HW2 7657   3.436   2.306   4.138
 2546SOL     OW 7658   2.885   2.628   4.690
 2546SOL    HW1 7659   2.900   2.649   4.786
 2546SOL    HW2 7660   2.855   2.533   4.681
 2547SOL     OW 7661   3.402   2.136   3.849
 2547SOL    HW1 7662   3.341   2.061   3.872
 2547SOL    HW2 7663   3.424   2.188   3.932
 2548SOL     OW 7664   3.165   2.700   3.766
 2548SOL    HW1 7665   3.199   2.607   3.781
 2548SOL    HW2 7666   3.183   2.727   3.671
 2549SOL     OW 7667   2.930   3.195   4.573
 2549SOL    HW1 7668   2.937   3.111   4.518
 2549SOL    HW2 7669   2.992   3.264   4.537
 2550SOL     OW 7670   2.181   2.672   4.673
 2550SOL    HW1 7671   2.274   2.708   4.678
 2550SOL    HW2 7672   2.175   2.587   4.725
 2551SOL     OW 7673   2.201   2.371   4.730
 2551SOL    HW1 7674   2.149   2.288   4.713
 2551SOL    HW2 7675   2.278   2.376   4.666
 2552SOL     OW 7676   1.870   3.188   3.924
 2552SOL    HW1 7677   1.777   3.209   3.893
 2552SOL    HW2 7678   1.880   3.089   3.937
 2553SOL     OW 7679   1.950   3.663   4.651
 2553SOL    HW1 7680   1.908   3.577   4.624
 2553SOL    HW2 7681   2.044   3.666   4.617
 2554SOL     OW 7682   2.366   3.430   4.634
 2554SOL    HW1 7683   2.432   3.504   4.643
 2554SOL    HW2 7684   2.410   3.351   4.592
 2555SOL     OW 7685   2.864   2.658   4.962
 2555SOL    HW1 7686   2.905   2.626   5.048
 2555SOL    HW2 7687   2.768   2.631   4.959
 2556SOL     OW 7688   1.902   2.406   4.838
 2556SOL    HW1 7689   1.987   2.373   4.797
 2556SOL    HW2 7690   1.915   2.421   4.936
 2557SOL     OW 7691   2.677   2.434   4.049
 2557SOL    HW1 7692   2.684   2.345   4.003
 2557SOL    HW2 7693   2.583   2.468   4.041
 2558SOL     OW 7694   2.533   2.326   4.993
 2558SOL    HW1 7695   2.499   2.237   4.963
 2558SOL    HW2 7696   2.559   2.380   4.913
 2559SOL     OW 7697   2.335   2.362   3.915
 2559SOL    HW1 7698   2.396   2.442   3.919
 2559SOL    HW2 7699   2.240   2.393   3.922
 2560SOL     OW 7700   3.164   2.717   4.033
 2560SOL    HW1 7701   3.078   2.686   4.075
 2560SOL    HW2 7702   3.160   2.703   3.934
 2561SOL     OW 7703   3.621   3.609   4.878
 2561SOL    HW1 7704   3.682   3.639   4.805
 2561SOL    HW2 7705   3.583   3.520   4.856
 2562SOL     OW 7706   1.945   3.120   4.746
 2562SOL    HW1 7707   1.940   3.119   4.846
 2562SOL    HW2 7708   1.862   3.079   4.708
 2563SOL     OW 7709   3.588   1.997   4.247
 2563SOL    HW1 7710   3.661   1.980   4.180
 2563SOL    HW2 7711   3.557   1.910   4.285
 2564SOL     OW 7712   3.250   3.435   4.201
 2564SOL    HW1 7713   3.317   3.447   4.127
 2564SOL    HW2 7714   3.210   3.524   4.224
 2565SOL     OW 7715   3.142   2.789   4.396
 2565SOL    HW1 7716   3.202   2.708   4.398
 2565SOL    HW2 7717   3.182   2.858   4.336
 2566SOL     OW 7718   2.534   3.478   3.878
 2566SOL    HW1 7719   2.543   3.488   3.779
 2566SOL    HW2 7720   2.494   3.389   3.899
 2567SOL     OW 7721   3.703   2.037   4.687
 2567SOL    HW1 7722   3.742   1.952   4.651
 2567SOL    HW2 7723   3.605   2.039   4.668
 2568SOL     OW 7724   2.125   2.188   4.444
 2568SOL    HW1 7725   2.046   2.239   4.410
 2568SOL    HW2 7726   2.116   2.173   4.542
 2569SOL     OW 7727   3.056   3.474   3.755
 2569SOL    HW1 7728   3.062   3.381   3.792
 2569SOL    HW2 7729   2.997   3.474   3.675
 2570SOL     OW 7730   2.684   2.864   5.096
 2570SOL    HW1 7731   2.724   2.863   5.004
 2570SOL    HW2 7732   2.694   2.956   5.136
 2571SOL     OW 7733   2.778   2.772   4.015
 2571SOL    HW1 7734   2.841   2.810   3.947
 2571SOL    HW2 7735   2.818   2.689   4.054
 2572SOL     OW 7736   3.366   3.469   3.768
 2572SOL    HW1 7737   3.274   3.506   3.775
 2572SOL    HW2 7738   3.404   3.489   3.678
 2573SOL     OW 7739   2.901   2.960   4.420
 2573SOL    HW1 7740   2.831   2.913   4.474
 2573SOL    HW2 7741   2.960   2.892   4.377
 2574SOL     OW 7742   2.876   2.098   4.695
 2574SOL    HW1 7743   2.868   2.062   4.602
 2574SOL    HW2 7744   2.874   2.022   4.760
 2575SOL     OW 7745   2.452   3.349   4.215
 2575SOL    HW1 7746   2.494   3.291   4.145
 2575SOL    HW2 7747   2.408   3.428   4.171
 2576SOL     OW 7748   2.117   3.210   4.014
 2576SOL    HW1 7749   2.021   3.211   3.987
 2576SOL    HW2 7750   2.129   3.263   4.098
 2577SOL     OW 7751   1.937   2.207   3.757
 2577SOL    HW1 7752   1.845   2.179   3.728
 2577SOL    HW2 7753   1.968   2.284   3.701
 2578SOL     OW 7754   1.934   2.028   4.042
 2578SOL    HW1 7755   1.917   2.111   3.988
 2578SOL    HW2 7756   2.024   1.991   4.020
 2579SOL     OW 7757   3.045   3.197   3.843
 2579SOL    HW1 7758   2.946   3.186   3.845
 2579SOL    HW2 7759   3.079   3.212   3.936
 2580SOL     OW 7760   3.355   3.629   4.683
 2580SOL    HW1 7761   3.388   3.693   4.614
 2580SOL    HW2 7762   3.421   3.623   4.758
 2581SOL     OW 7763   3.536   2.745   4.978
 2581SOL    HW1 7764   3.509   2.656   4.941
 2581SOL    HW2 7765   3.537   2.813   4.905
 2582SOL     OW 7766   3.087   2.187   4.173
 2582SOL    HW1 7767   3.152   2.113   4.162
 2582SOL    HW2 7768   3.107   2.237   4.257
 2583SOL     OW 7769   2.456   2.607   4.376
 2583SOL    HW1 7770   2.506   2.692   4.357
 2583SOL    HW2 7771   2.368   2.609   4.328
 2584SOL     OW 7772   2.721   3.236   3.740
 2584SOL    HW1 7773   2.675   3.251   3.828
 2584SOL    HW2 7774   2.765   3.321   3.710
 2585SOL     OW 7775   2.523   3.652   4.677
 2585SOL    HW1 7776   2.477   3.740   4.664
 2585SOL    HW2 7777   2.622   3.664   4.670
 2586SOL     OW 7778   2.721   2.818   4.585
 2586SOL    HW1 7779   2.775   2.749   4.633
 2586SOL    HW2 7780   2.689   2.887   4.651
 2587SOL     OW 7781   2.945   2.846   3.811
 2587SOL    HW1 7782   2.922   2.899   3.729
 2587SOL    HW2 7783   3.026   2.790   3.792
 2588SOL     OW 7784   3.723   3.431   4.575
 2588SOL    HW1 7785   3.652   3.419   4.505
 2588SOL    HW2 7786   3.724   3.352   4.635
 2589SOL     OW 7787   1.941   3.102   4.377
 2589SOL    HW1 7788   1.940   3.055   4.465
 2589SOL    HW2 7789   2.023   3.074   4.326
 2590SOL     OW 7790   3.686   2.054   4.951
 2590SOL    HW1 7791   3.682   1.964   4.995
 2590SOL    HW2 7792   3.689   2.043   4.852
 2591SOL     OW 7793   2.290   2.286   4.244
 2591SOL    HW1 7794   2.320   2.214   4.182
 2591SOL    HW2 7795   2.251   2.246   4.327
 2592SOL     OW 7796   2.674   3.448   4.411
 2592SOL    HW1 7797   2.706   3.458   4.317
 2592SOL    HW2 7798   2.595   3.386   4.413
 2593SOL     OW 7799   3.286   2.076   4.836
 2593SOL    HW1 7800   3.338   2.011   4.891
 2593SOL    HW2 7801   3.237   2.139   4.897
 2594SOL     OW 7802   2.632   3.192   4.025
 2594SOL    HW1 7803   2.586   3.105   4.042
 2594SOL    HW2 7804   2.723   3.189   4.066
 2595SOL     OW 7805   3.214   1.914   3.892
 2595SOL    HW1 7806   3.249   1.873   3.808
 2595SOL    HW2 7807   3.124   1.876   3.912
 2596SOL     OW 7808   3.162   2.315   4.415
 2596SOL    HW1 7809   3.103   2.395   4.419
 2596SOL    HW2 7810   3.177   2.280   4.508
 2597SOL     OW 7811   3.455   2.083   4.606
 2597SOL    HW1 7812   3.371   2.082   4.660
 2597SOL    HW2 7813   3.457   2.166   4.550
 2598SOL     OW 7814   1.901   2.939   4.024
 2598SOL    HW1 7815   2.000   2.928   4.015
 2598SOL    HW2 7816   1.861   2.853   4.056
 2599SOL     OW 7817   2.737   3.508   4.061
 2599SOL    HW1 7818   2.660   3.473   4.007
 2599SOL    HW2 7819   2.705   3.579   4.123
 2600SOL     OW 7820   2.092   4.352   0.113
 2600SOL    HW1 7821   1.999   4.350   0.150
 2600SOL    HW2 7822   2.093   4.313   0.021
 2601SOL     OW 7823   2.087   3.999   0.996
 2601SOL    HW1 7824   2.122   3.982   1.088
 2601SOL    HW2 7825   1.999   3.954   0.984
 2602SOL     OW 7826   1.881   4.092   0.647
 2602SOL    HW1 7827   1.799   4.135   0.686
 2602SOL    HW2 7828   1.853   4.019   0.584
 2603SOL     OW 7829   2.997   4.427   0.717
 2603SOL    HW1 7830   3.054   4.505   0.692
 2603SOL    HW2 7831   2.937   4.453   0.793
 2604SOL     OW 7832   3.617   4.331   0.231
 2604SOL    HW1 7833   3.605   4.318   0.132
 2604SOL    HW2 7834   3.587   4.250   0.280
 2605SOL     OW 7835   2.630   4.868   1.023
 2605SOL    HW1 7836   2.552   4.885   1.083
 2605SOL    HW2 7837   2.664   4.955   0.987
 2606SOL     OW 7838   2.712   4.522   1.823
 2606SOL    HW1 7839   2.708   4.598   1.888
 2606SOL    HW2 7840   2.734   4.558   1.732
 2607SOL     OW 7841   2.547   4.736   0.665
 2607SOL    HW1 7842   2.616   4.720   0.735
 2607SOL    HW2 7843   2.474   4.793   0.703
 2608SOL     OW 7844   3.322   5.229   1.339
 2608SOL    HW1 7845   3.346   5.323   1.365
 2608SOL    HW2 7846   3.306   5.175   1.421
 2609SOL     OW 7847   2.300   4.116   1.499
 2609SOL    HW1 7848   2.382   4.060   1.508
 2609SOL    HW2 7849   2.219   4.058   1.503
 2610SOL     OW 7850   3.465   4.171   0.737
 2610SOL    HW1 7851   3.391   4.217   0.687
 2610SOL    HW2 7852   3.516   4.239   0.790
 2611SOL     OW 7853   2.102   4.815   0.886
 2611SOL    HW1 7854   2.116   4.731   0.938
 2611SOL    HW2 7855   2.047   4.879   0.941
 2612SOL     OW 7856   2.468   4.688   0.123
 2612SOL    HW1 7857   2.475   4.772   0.069
 2612SOL    HW2 7858   2.514   4.701   0.211
 2613SOL     OW 7859   3.456   3.838   1.480
 2613SOL    HW1 7860   3.438   3.905   1.408
 2613SOL    HW2 7861   3.453   3.884   1.569
 2614SOL     OW 7862   1.984   4.367   0.563
 2614SOL    HW1 7863   1.939   4.279   0.580
 2614SOL    HW2 7864   1.983   4.421   0.647
 2615SOL     OW 7865   3.551   4.646   0.612
 2615SOL    HW1 7866   3.646   4.617   0.620
 2615SOL    HW2 7867   3.543   4.711   0.537
 2616SOL     OW 7868   1.975   4.461   1.597
 2616SOL    HW1 7869   2.063   4.448   1.642
 2616SOL    HW2 7870   1.962   4.558   1.575
 2617SOL     OW 7871   2.475   5.089   0.726
 2617SOL    HW1 7872   2.426   5.002   0.735
 2617SOL    HW2 7873   2.452   5.132   0.639
 2618SOL     OW 7874   3.155   4.952   1.423
 2618SOL    HW1 7875   3.192   4.879   1.365
 2618SOL    HW2 7876   3.207   4.957   1.508
 2619SOL     OW 7877   2.671   3.728   0.502
 2619SOL    HW1 7878   2.711   3.819   0.493
 2619SOL    HW2 7879   2.571   3.736   0.508
 2620SOL     OW 7880   2.059   4.700   1.264
 2620SOL    HW1 7881   2.148   4.655   1.250
 2620SOL    HW2 7882   1.986   4.635   1.245
 2621SOL     OW 7883   3.387   4.723   0.190
 2621SOL    HW1 7884   3.324   4.647   0.203
 2621SOL    HW2 7885   3.435   4.741   0.276
 2622SOL     OW 7886   2.179   3.975   1.801
 2622SOL    HW1 7887   2.250   4.046   1.807
 2622SOL    HW2 7888   2.091   4.014   1.829
 2623SOL     OW 7889   2.460   4.453   0.270
 2623SOL    HW1 7890   2.484   4.522   0.202
 2623SOL    HW2 7891   2.382   4.486   0.324
 2624SOL     OW 7892   3.143   4.069   0.944
 2624SOL    HW1 7893   3.057   4.019   0.931
 2624SOL    HW2 7894   3.205   4.015   1.000
 2625SOL     OW 7895   2.669   4.329   1.465
 2625SOL    HW1 7896   2.622   4.326   1.554
 2625SOL    HW2 7897   2.618   4.274   1.399
 2626SOL     OW 7898   3.256   4.193   1.674
 2626SOL    HW1 7899   3.236   4.236   1.762
 2626SOL    HW2 7900   3.334   4.131   1.683
 2627SOL     OW 7901   2.835   4.614   1.572
 2627SOL    HW1 7902   2.881   4.530   1.543
 2627SOL    HW2 7903   2.779   4.648   1.497
 2628SOL     OW 7904   2.853   4.134   1.242
 2628SOL    HW1 7905   2.776   4.168   1.296
 2628SOL    HW2 7906   2.819   4.083   1.163
 2629SOL     OW 7907   2.903   4.425   0.429
 2629SOL    HW1 7908   2.929   4.421   0.525
 2629SOL    HW2 7909   2.818   4.374   0.415
 2630SOL     OW 7910   1.938   4.535   0.789
 2630SOL    HW1 7911   2.037   4.523   0.798
 2630SOL    HW2 7912   1.914   4.630   0.810
 2631SOL     OW 7913   2.727   4.072   0.195
 2631SOL    HW1 7914   2.786   4.135   0.146
 2631SOL    HW2 7915   2.746   3.978   0.166
 2632SOL     OW 7916   3.581   4.309   1.831
 2632SOL    HW1 7917   3.555   4.398   1.795
 2632SOL    HW2 7918   3.579   4.241   1.758
 2633SOL     OW 7919   2.412   3.920   0.885
 2633SOL    HW1 7920   2.407   3.915   0.985
 2633SOL    HW2 7921   2.414   4.016   0.856
 2634SOL     OW 7922   3.657   4.790   0.873
 2634SOL    HW1 7923   3.595   4.775   0.797
 2634SOL    HW2 7924   3.605   4.801   0.958
 2635SOL     OW 7925   2.183   4.667   0.242
 2635SOL    HW1 7926   2.265   4.706   0.200
 2635SOL    HW2 7927   2.156   4.585   0.193
 2636SOL     OW 7928   3.320   4.459   0.728
 2636SOL    HW1 7929   3.315   4.394   0.803
 2636SOL    HW2 7930   3.400   4.518   0.741
 2637SOL     OW 7931   2.064   4.009   1.498
 2637SOL    HW1 7932   1.984   4.069   1.485
 2637SOL    HW2 7933   2.054   3.960   1.584
 2638SOL     OW 7934   3.262   3.831   0.426
 2638SOL    HW1 7935   3.238   3.794   0.336
 2638SOL    HW2 7936   3.361   3.847   0.430
 2639SOL     OW 7937   2.244   4.424   0.480
 2639SOL    HW1 7938   2.289   4.334   0.477
 2639SOL    HW2 7939   2.150   4.413   0.513
 2640SOL     OW 7940   3.409   3.946   1.729
 2640SOL    HW1 7941   3.404   3.983   1.821
 2640SOL    HW2 7942   3.337   3.877   1.717
 2641SOL     OW 7943   2.476   3.846   0.117
 2641SOL    HW1 7944   2.574   3.824   0.124
 2641SOL    HW2 7945   2.445   3.829   0.024
 2642SOL     OW 7946   2.643   3.988   1.749
 2642SOL    HW1 7947   2.710   3.927   1.792
 2642SOL    HW2 7948   2.570   4.007   1.814
 2643SOL     OW 7949   3.213   4.314   1.433
 2643SOL    HW1 7950   3.241   4.271   1.518
 2643SOL    HW2 7951   3.238   4.410   1.434
 2644SOL     OW 7952   2.784   4.227   0.899
 2644SOL    HW1 7953   2.759   4.218   0.803
 2644SOL    HW2 7954   2.832   4.145   0.930
 2645SOL     OW 7955   2.401   3.788   0.512
 2645SOL    HW1 7956   2.320   3.789   0.570
 2645SOL    HW2 7957   2.404   3.871   0.457
 2646SOL     OW 7958   2.159   3.759   0.171
 2646SOL    HW1 7959   2.208   3.843   0.150
 2646SOL    HW2 7960   2.221   3.694   0.216
 2647SOL     OW 7961   2.797   3.960   0.480
 2647SOL    HW1 7962   2.749   4.001   0.402
 2647SOL    HW2 7963   2.896   3.958   0.461
 2648SOL     OW 7964   2.938   4.407   1.464
 2648SOL    HW1 7965   2.858   4.346   1.467
 2648SOL    HW2 7966   3.019   4.354   1.440
 2649SOL     OW 7967   2.321   4.876   0.741
 2649SOL    HW1 7968   2.250   4.849   0.806
 2649SOL    HW2 7969   2.295   4.848   0.648
 2650SOL     OW 7970   2.894   4.273   0.016
 2650SOL    HW1 7971   2.853   4.355  -0.023
 2650SOL    HW2 7972   2.958   4.299   0.089
 2651SOL     OW 7973   1.940   4.280   1.386
 2651SOL    HW1 7974   2.032   4.279   1.345
 2651SOL    HW2 7975   1.934   4.354   1.453
 2652SOL     OW 7976   2.423   3.946   1.147
 2652SOL    HW1 7977   2.461   3.862   1.184
 2652SOL    HW2 7978   2.335   3.965   1.191
 2653SOL     OW 7979   2.728   4.178   0.642
 2653SOL    HW1 7980   2.696   4.250   0.580
 2653SOL    HW2 7981   2.752   4.097   0.589
 2654SOL     OW 7982   2.879   3.763   0.753
 2654SOL    HW1 7983   2.807   3.768   0.684
 2654SOL    HW2 7984   2.855   3.694   0.822
 2655SOL     OW 7985   3.291   4.897   0.867
 2655SOL    HW1 7986   3.236   4.813   0.860
 2655SOL    HW2 7987   3.317   4.926   0.775
 2656SOL     OW 7988   3.328   4.314   0.992
 2656SOL    HW1 7989   3.298   4.219   0.999
 2656SOL    HW2 7990   3.401   4.330   1.058
 2657SOL     OW 7991   3.719   4.557   0.377
 2657SOL    HW1 7992   3.761   4.493   0.441
 2657SOL    HW2 7993   3.681   4.506   0.299
 2658SOL     OW 7994   3.252   4.299   0.078
 2658SOL    HW1 7995   3.198   4.278   0.159
 2658SOL    HW2 7996   3.343   4.258   0.087
 2659SOL     OW 7997   2.389   3.980   0.328
 2659SOL    HW1 7998   2.416   3.921   0.253
 2659SOL    HW2 7999   2.389   4.075   0.297
 2660SOL     OW 8000   3.616   4.947   1.588
 2660SOL    HW1 8001   3.707   4.908   1.575
 2660SOL    HW2 8002   3.624   5.043   1.612
 2661SOL     OW 8003   3.500   4.823   1.079
 2661SOL    HW1 8004   3.505   4.904   1.138
 2661SOL    HW2 8005   3.414   4.825   1.028
 2662SOL     OW 8006   2.777   3.813   1.402
 2662SOL    HW1 8007   2.802   3.793   1.307
 2662SOL    HW2 8008   2.849   3.869   1.444
 2663SOL     OW 8009   2.567   4.774   0.368
 2663SOL    HW1 8010   2.553   4.781   0.467
 2663SOL    HW2 8011   2.651   4.723   0.350
 2664SOL     OW 8012   2.272   4.537   1.251
 2664SOL    HW1 8013   2.358   4.549   1.301
 2664SOL    HW2 8014   2.230   4.450   1.278
 2665SOL     OW 8015   3.136   4.110   1.262
 2665SOL    HW1 8016   3.157   4.184   1.326
 2665SOL    HW2 8017   3.047   4.127   1.219
 2666SOL     OW 8018   2.229   4.824   0.501
 2666SOL    HW1 8019   2.222   4.907   0.445
 2666SOL    HW2 8020   2.233   4.744   0.441
 2667SOL     OW 8021   2.428   4.261   0.865
 2667SOL    HW1 8022   2.440   4.327   0.791
 2667SOL    HW2 8023   2.474   4.295   0.948
 2668SOL     OW 8024   3.444   4.363   0.472
 2668SOL    HW1 8025   3.413   4.424   0.545
 2668SOL    HW2 8026   3.494   4.415   0.403
 2669SOL     OW 8027   2.264   4.475   1.598
 2669SOL    HW1 8028   2.332   4.530   1.551
 2669SOL    HW2 8029   2.304   4.387   1.625
 2670SOL     OW 8030   3.449   4.503   1.670
 2670SOL    HW1 8031   3.357   4.541   1.665
 2670SOL    HW2 8032   3.509   4.550   1.605
 2671SOL     OW 8033   2.875   3.829   1.770
 2671SOL    HW1 8034   2.881   3.914   1.718
 2671SOL    HW2 8035   2.907   3.753   1.713
 2672SOL     OW 8036   2.366   3.774   1.740
 2672SOL    HW1 8037   2.324   3.717   1.670
 2672SOL    HW2 8038   2.300   3.843   1.772
 2673SOL     OW 8039   2.435   4.594   1.029
 2673SOL    HW1 8040   2.479   4.683   1.020
 2673SOL    HW2 8041   2.372   4.594   1.106
 2674SOL     OW 8042   3.222   4.586   1.045
 2674SOL    HW1 8043   3.147   4.586   0.979
 2674SOL    HW2 8044   3.259   4.494   1.054
 2675SOL     OW 8045   3.071   4.249   0.275
 2675SOL    HW1 8046   3.084   4.165   0.329
 2675SOL    HW2 8047   3.042   4.323   0.335
 2676SOL     OW 8048   2.169   3.937   1.231
 2676SOL    HW1 8049   2.146   3.974   1.321
 2676SOL    HW2 8050   2.139   3.842   1.225
 2677SOL     OW 8051   2.594   4.358   1.064
 2677SOL    HW1 8052   2.653   4.332   0.988
 2677SOL    HW2 8053   2.566   4.454   1.053
 2678SOL     OW 8054   3.590   4.659   1.854
 2678SOL    HW1 8055   3.544   4.652   1.765
 2678SOL    HW2 8056   3.528   4.703   1.920
 2679SOL     OW 8057   2.169   3.787   0.618
 2679SOL    HW1 8058   2.158   3.881   0.651
 2679SOL    HW2 8059   2.164   3.724   0.695
 2680SOL     OW 8060   3.484   4.091   0.374
 2680SOL    HW1 8061   3.486   4.015   0.438
 2680SOL    HW2 8062   3.436   4.168   0.414
 2681SOL     OW 8063   2.885   4.490   0.966
 2681SOL    HW1 8064   2.900   4.511   1.062
 2681SOL    HW2 8065   2.855   4.395   0.957
 2682SOL     OW 8066   2.212   4.622   1.804
 2682SOL    HW1 8067   2.288   4.666   1.852
 2682SOL    HW2 8068   2.247   4.575   1.722
 2683SOL     OW 8069   3.402   3.998   0.125
 2683SOL    HW1 8070   3.341   3.923   0.148
 2683SOL    HW2 8071   3.424   4.050   0.208
 2684SOL     OW 8072   3.165   4.562   0.042
 2684SOL    HW1 8073   3.199   4.469   0.057
 2684SOL    HW2 8074   3.183   4.589  -0.053
 2685SOL     OW 8075   2.181   4.534   0.949
 2685SOL    HW1 8076   2.274   4.570   0.954
 2685SOL    HW2 8077   2.175   4.449   1.001
 2686SOL     OW 8078   2.201   4.233   1.006
 2686SOL    HW1 8079   2.149   4.150   0.989
 2686SOL    HW2 8080   2.278   4.238   0.942
 2687SOL     OW 8081   3.000   4.104   1.678
 2687SOL    HW1 8082   2.955   4.167   1.742
 2687SOL    HW2 8083   3.093   4.135   1.661
 2688SOL     OW 8084   3.022   3.931   1.477
 2688SOL    HW1 8085   3.022   3.995   1.554
 2688SOL    HW2 8086   3.050   3.979   1.394
 2689SOL     OW 8087   2.864   4.520   1.238
 2689SOL    HW1 8088   2.905   4.488   1.324
 2689SOL    HW2 8089   2.768   4.493   1.235
 2690SOL     OW 8090   1.902   4.268   1.114
 2690SOL    HW1 8091   1.987   4.235   1.073
 2690SOL    HW2 8092   1.915   4.283   1.212
 2691SOL     OW 8093   2.051   4.244   1.722
 2691SOL    HW1 8094   2.110   4.204   1.652
 2691SOL    HW2 8095   1.993   4.315   1.681
 2692SOL     OW 8096   3.231   4.674   1.660
 2692SOL    HW1 8097   3.270   4.763   1.680
 2692SOL    HW2 8098   3.241   4.654   1.563
 2693SOL     OW 8099   2.677   4.296   0.325
 2693SOL    HW1 8100   2.684   4.207   0.279
 2693SOL    HW2 8101   2.583   4.330   0.317
 2694SOL     OW 8102   3.519   4.328   1.206
 2694SOL    HW1 8103   3.481   4.259   1.268
 2694SOL    HW2 8104   3.601   4.292   1.162
 2695SOL     OW 8105   2.533   4.188   1.269
 2695SOL    HW1 8106   2.499   4.099   1.239
 2695SOL    HW2 8107   2.559   4.242   1.189
 2696SOL     OW 8108   2.335   4.224   0.191
 2696SOL    HW1 8109   2.396   4.304   0.195
 2696SOL    HW2 8110   2.240   4.255   0.198
 2697SOL     OW 8111   2.021   4.861   1.466
 2697SOL    HW1 8112   2.043   4.800   1.542
 2697SOL    HW2 8113   2.031   4.812   1.380
 2698SOL     OW 8114   3.209   4.783   1.234
 2698SOL    HW1 8115   3.233   4.720   1.160
 2698SOL    HW2 8116   3.119   4.823   1.216
 2699SOL     OW 8117   3.164   4.579   0.309
 2699SOL    HW1 8118   3.078   4.548   0.351
 2699SOL    HW2 8119   3.160   4.565   0.210
 2700SOL     OW 8120   2.765   3.810   0.133
 2700SOL    HW1 8121   2.816   3.811   0.047
 2700SOL    HW2 8122   2.821   3.768   0.204
 2701SOL     OW 8123   3.588   3.859   0.523
 2701SOL    HW1 8124   3.661   3.842   0.456
 2701SOL    HW2 8125   3.557   3.772   0.561
 2702SOL     OW 8126   3.142   4.651   0.672
 2702SOL    HW1 8127   3.202   4.570   0.674
 2702SOL    HW2 8128   3.182   4.720   0.612
 2703SOL     OW 8129   3.703   3.899   0.963
 2703SOL    HW1 8130   3.742   3.814   0.927
 2703SOL    HW2 8131   3.605   3.901   0.944
 2704SOL     OW 8132   2.125   4.050   0.720
 2704SOL    HW1 8133   2.046   4.101   0.686
 2704SOL    HW2 8134   2.116   4.035   0.818
 2705SOL     OW 8135   2.684   4.726   1.372
 2705SOL    HW1 8136   2.724   4.725   1.280
 2705SOL    HW2 8137   2.694   4.818   1.412
 2706SOL     OW 8138   2.778   4.634   0.291
 2706SOL    HW1 8139   2.841   4.672   0.223
 2706SOL    HW2 8140   2.818   4.551   0.330
 2707SOL     OW 8141   2.234   5.012   1.490
 2707SOL    HW1 8142   2.221   5.105   1.456
 2707SOL    HW2 8143   2.150   4.960   1.477
 2708SOL     OW 8144   2.876   3.960   0.971
 2708SOL    HW1 8145   2.868   3.924   0.878
 2708SOL    HW2 8146   2.874   3.884   1.036
 2709SOL     OW 8147   3.571   4.109   1.381
 2709SOL    HW1 8148   3.644   4.178   1.385
 2709SOL    HW2 8149   3.599   4.034   1.322
 2710SOL     OW 8150   1.967   4.737   1.726
 2710SOL    HW1 8151   1.890   4.704   1.780
 2710SOL    HW2 8152   2.052   4.707   1.768
 2711SOL     OW 8153   2.534   3.927   1.489
 2711SOL    HW1 8154   2.624   3.911   1.449
 2711SOL    HW2 8155   2.542   3.932   1.588
 2712SOL     OW 8156   3.302   4.580   1.398
 2712SOL    HW1 8157   3.245   4.632   1.335
 2712SOL    HW2 8158   3.398   4.592   1.374
 2713SOL     OW 8159   1.934   3.890   0.318
 2713SOL    HW1 8160   1.917   3.973   0.264
 2713SOL    HW2 8161   2.024   3.853   0.296
 2714SOL     OW 8162   3.045   5.059   0.119
 2714SOL    HW1 8163   2.946   5.048   0.121
 2714SOL    HW2 8164   3.079   5.074   0.212
 2715SOL     OW 8165   2.475   4.566   1.431
 2715SOL    HW1 8166   2.531   4.647   1.414
 2715SOL    HW2 8167   2.534   4.486   1.434
 2716SOL     OW 8168   2.578   4.289   1.708
 2716SOL    HW1 8169   2.597   4.354   1.782
 2716SOL    HW2 8170   2.638   4.209   1.717
 2717SOL     OW 8171   3.312   4.944   1.633
 2717SOL    HW1 8172   3.303   4.934   1.732
 2717SOL    HW2 8173   3.408   4.937   1.607
 2718SOL     OW 8174   3.536   4.607   1.254
 2718SOL    HW1 8175   3.509   4.518   1.217
 2718SOL    HW2 8176   3.537   4.675   1.181
 2719SOL     OW 8177   3.087   4.049   0.449
 2719SOL    HW1 8178   3.152   3.975   0.438
 2719SOL    HW2 8179   3.107   4.099   0.533
 2720SOL     OW 8180   2.456   4.469   0.652
 2720SOL    HW1 8181   2.506   4.554   0.633
 2720SOL    HW2 8182   2.368   4.471   0.604
 2721SOL     OW 8183   3.639   4.066   1.642
 2721SOL    HW1 8184   3.622   4.097   1.548
 2721SOL    HW2 8185   3.555   4.029   1.680
 2722SOL     OW 8186   3.592   4.658   1.517
 2722SOL    HW1 8187   3.630   4.749   1.532
 2722SOL    HW2 8188   3.584   4.641   1.418
 2723SOL     OW 8189   2.721   4.680   0.861
 2723SOL    HW1 8190   2.775   4.611   0.909
 2723SOL    HW2 8191   2.689   4.749   0.927
 2724SOL     OW 8192   2.945   4.708   0.087
 2724SOL    HW1 8193   2.922   4.761   0.005
 2724SOL    HW2 8194   3.026   4.652   0.068
 2725SOL     OW 8195   1.941   4.964   0.653
 2725SOL    HW1 8196   1.940   4.917   0.741
 2725SOL    HW2 8197   2.023   4.936   0.602
 2726SOL     OW 8198   3.686   3.916   1.227
 2726SOL    HW1 8199   3.682   3.826   1.271
 2726SOL    HW2 8200   3.689   3.905   1.128
 2727SOL     OW 8201   2.290   4.148   0.520
 2727SOL    HW1 8202   2.320   4.076   0.458
 2727SOL    HW2 8203   2.251   4.108   0.603
 2728SOL     OW 8204   2.179   4.271   1.280
 2728SOL    HW1 8205   2.217   4.212   1.352
 2728SOL    HW2 8206   2.219   4.245   1.192
 2729SOL     OW 8207   3.286   3.938   1.112
 2729SOL    HW1 8208   3.338   3.873   1.167
 2729SOL    HW2 8209   3.237   4.001   1.173
 2730SOL     OW 8210   2.863   3.758   1.154
 2730SOL    HW1 8211   2.800   3.686   1.123
 2730SOL    HW2 8212   2.956   3.722   1.154
 2731SOL     OW 8213   2.632   5.054   0.301
 2731SOL    HW1 8214   2.586   4.967   0.318
 2731SOL    HW2 8215   2.723   5.051   0.342
 2732SOL     OW 8216   3.214   3.776   0.168
 2732SOL    HW1 8217   3.249   3.735   0.084
 2732SOL    HW2 8218   3.124   3.738   0.188
 2733SOL     OW 8219   3.162   4.177   0.691
 2733SOL    HW1 8220   3.103   4.257   0.695
 2733SOL    HW2 8221   3.177   4.142   0.784
 2734SOL     OW 8222   3.455   3.945   0.882
 2734SOL    HW1 8223   3.371   3.944   0.936
 2734SOL    HW2 8224   3.457   4.028   0.826
 2735SOL     OW 8225   1.901   4.801   0.300
 2735SOL    HW1 8226   2.000   4.790   0.291
 2735SOL    HW2 8227   1.861   4.715   0.332
 2736SOL     OW 8228   2.092   4.352   1.975
 2736SOL    HW1 8229   1.999   4.350   2.012
 2736SOL    HW2 8230   2.093   4.313   1.883
 2737SOL     OW 8231   2.087   3.999   2.858
 2737SOL    HW1 8232   2.122   3.982   2.950
 2737SOL    HW2 8233   1.999   3.954   2.846
 2738SOL     OW 8234   1.881   4.092   2.509
 2738SOL    HW1 8235   1.799   4.135   2.548
 2738SOL    HW2 8236   1.853   4.019   2.446
 2739SOL     OW 8237   2.997   4.427   2.579
 2739SOL    HW1 8238   3.054   4.505   2.554
 2739SOL    HW2 8239   2.937   4.453   2.655
 2740SOL     OW 8240   3.617   4.331   2.093
 2740SOL    HW1 8241   3.605   4.318   1.994
 2740SOL    HW2 8242   3.587   4.250   2.142
 2741SOL     OW 8243   2.630   4.868   2.885
 2741SOL    HW1 8244   2.552   4.885   2.945
 2741SOL    HW2 8245   2.664   4.955   2.849
 2742SOL     OW 8246   2.712   4.522   3.685
 2742SOL    HW1 8247   2.708   4.598   3.750
 2742SOL    HW2 8248   2.734   4.558   3.594
 2743SOL     OW 8249   2.547   4.736   2.527
 2743SOL    HW1 8250   2.616   4.720   2.597
 2743SOL    HW2 8251   2.474   4.793   2.565
 2744SOL     OW 8252   3.322   5.229   3.201
 2744SOL    HW1 8253   3.346   5.323   3.227
 2744SOL    HW2 8254   3.306   5.175   3.283
 2745SOL     OW 8255   2.300   4.116   3.361
 2745SOL    HW1 8256   2.382   4.060   3.370
 2745SOL    HW2 8257   2.219   4.058   3.365
 2746SOL     OW 8258   3.465   4.171   2.599
 2746SOL    HW1 8259   3.391   4.217   2.549
 2746SOL    HW2 8260   3.516   4.239   2.652
 2747SOL     OW 8261   2.102   4.815   2.748
 2747SOL    HW1 8262   2.116   4.731   2.800
 2747SOL    HW2 8263   2.047   4.879   2.803
 2748SOL     OW 8264   2.468   4.688   1.985
 2748SOL    HW1 8265   2.475   4.772   1.931
 2748SOL    HW2 8266   2.514   4.701   2.073
 2749SOL     OW 8267   3.456   3.838   3.342
 2749SOL    HW1 8268   3.438   3.905   3.270
 2749SOL    HW2 8269   3.453   3.884   3.431
 2750SOL     OW 8270   1.984   4.367   2.425
 2750SOL    HW1 8271   1.939   4.279   2.442
 2750SOL    HW2 8272   1.983   4.421   2.509
 2751SOL     OW 8273   3.551   4.646   2.474
 2751SOL    HW1 8274   3.646   4.617   2.482
 2751SOL    HW2 8275   3.543   4.711   2.399
 2752SOL     OW 8276   1.975   4.461   3.459
 2752SOL    HW1 8277   2.063   4.448   3.504
 2752SOL    HW2 8278   1.962   4.558   3.437
 2753SOL     OW 8279   2.475   5.089   2.588
 2753SOL    HW1 8280   2.426   5.002   2.597
 2753SOL    HW2 8281   2.452   5.132   2.501
 2754SOL     OW 8282   3.155   4.952   3.285
 2754SOL    HW1 8283   3.192   4.879   3.227
 2754SOL    HW2 8284   3.207   4.957   3.370
 2755SOL     OW 8285   2.671   3.728   2.364
 2755SOL    HW1 8286   2.711   3.819   2.355
 2755SOL    HW2 8287   2.571   3.736   2.370
 2756SOL     OW 8288   2.059   4.700   3.126
 2756SOL    HW1 8289   2.148   4.655   3.112
 2756SOL    HW2 8290   1.986   4.635   3.107
 2757SOL     OW 8291   3.387   4.723   2.052
 2757SOL    HW1 8292   3.324   4.647   2.065
 2757SOL    HW2 8293   3.435   4.741   2.138
 2758SOL     OW 8294   2.179   3.975   3.663
 2758SOL    HW1 8295   2.250   4.046   3.669
 2758SOL    HW2 8296   2.091   4.014   3.691
 2759SOL     OW 8297   2.460   4.453   2.132
 2759SOL    HW1 8298   2.484   4.522   2.064
 2759SOL    HW2 8299   2.382   4.486   2.186
 2760SOL     OW 8300   3.143   4.069   2.806
 2760SOL    HW1 8301   3.057   4.019   2.793
 2760SOL    HW2 8302   3.205   4.015   2.862
 2761SOL     OW 8303   2.669   4.329   3.327
 2761SOL    HW1 8304   2.622   4.326   3.416
 2761SOL    HW2 8305   2.618   4.274   3.261
 2762SOL     OW 8306   3.256   4.193   3.536
 2762SOL    HW1 8307   3.236   4.236   3.624
 2762SOL    HW2 8308   3.334   4.131   3.545
 2763SOL     OW 8309   2.835   4.614   3.434
 2763SOL    HW1 8310   2.881   4.530   3.405
 2763SOL    HW2 8311   2.779   4.648   3.359
 2764SOL     OW 8312   2.853   4.134   3.104
 2764SOL    HW1 8313   2.776   4.168   3.158
 2764SOL    HW2 8314   2.819   4.083   3.025
 2765SOL     OW 8315   2.903   4.425   2.291
 2765SOL    HW1 8316   2.929   4.421   2.387
 2765SOL    HW2 8317   2.818   4.374   2.277
 2766SOL     OW 8318   1.938   4.535   2.651
 2766SOL    HW1 8319   2.037   4.523   2.660
 2766SOL    HW2 8320   1.914   4.630   2.672
 2767SOL     OW 8321   2.727   4.072   2.057
 2767SOL    HW1 8322   2.786   4.135   2.008
 2767SOL    HW2 8323   2.746   3.978   2.028
 2768SOL     OW 8324   3.581   4.309   3.693
 2768SOL    HW1 8325   3.555   4.398   3.657
 2768SOL    HW2 8326   3.579   4.241   3.620
 2769SOL     OW 8327   2.412   3.920   2.747
 2769SOL    HW1 8328   2.407   3.915   2.847
 2769SOL    HW2 8329   2.414   4.016   2.718
 2770SOL     OW 8330   3.657   4.790   2.735
 2770SOL    HW1 8331   3.595   4.775   2.659
 2770SOL    HW2 8332   3.605   4.801   2.820
 2771SOL     OW 8333   2.183   4.667   2.104
 2771SOL    HW1 8334   2.265   4.706   2.062
 2771SOL    HW2 8335   2.156   4.585   2.055
 2772SOL     OW 8336   3.320   4.459   2.590
 2772SOL    HW1 8337   3.315   4.394   2.665
 2772SOL    HW2 8338   3.400   4.518   2.603
 2773SOL     OW 8339   2.064   4.009   3.360
 2773SOL    HW1 8340   1.984   4.069   3.347
 2773SOL    HW2 8341   2.054   3.960   3.446
 2774SOL     OW 8342   3.262   3.831   2.288
 2774SOL    HW1 8343   3.238   3.794   2.198
 2774SOL    HW2 8344   3.361   3.847   2.292
 2775SOL     OW 8345   2.244   4.424   2.342
 2775SOL    HW1 8346   2.289   4.334   2.339
 2775SOL    HW2 8347   2.150   4.413   2.375
 2776SOL     OW 8348   3.409   3.946   3.591
 2776SOL    HW1 8349   3.404   3.983   3.683
 2776SOL    HW2 8350   3.337   3.877   3.579
 2777SOL     OW 8351   2.476   3.846   1.979
 2777SOL    HW1 8352   2.574   3.824   1.986
 2777SOL    HW2 8353   2.445   3.829   1.886
 2778SOL     OW 8354   2.643   3.988   3.611
 2778SOL    HW1 8355   2.710   3.927   3.654
 2778SOL    HW2 8356   2.570   4.007   3.676
 2779SOL     OW 8357   3.213   4.314   3.295
 2779SOL    HW1 8358   3.241   4.271   3.380
 2779SOL    HW2 8359   3.238   4.410   3.296
 2780SOL     OW 8360   2.784   4.227   2.761
 2780SOL    HW1 8361   2.759   4.218   2.665
 2780SOL    HW2 8362   2.832   4.145   2.792
 2781SOL     OW 8363   2.401   3.788   2.374
 2781SOL    HW1 8364   2.320   3.789   2.432
 2781SOL    HW2 8365   2.404   3.871   2.319
 2782SOL     OW 8366   2.159   3.759   2.033
 2782SOL    HW1 8367   2.208   3.843   2.012
 2782SOL    HW2 8368   2.221   3.694   2.078
 2783SOL     OW 8369   2.797   3.960   2.342
 2783SOL    HW1 8370   2.749   4.001   2.264
 2783SOL    HW2 8371   2.896   3.958   2.323
 2784SOL     OW 8372   2.938   4.407   3.326
 2784SOL    HW1 8373   2.858   4.346   3.329
 2784SOL    HW2 8374   3.019   4.354   3.302
 2785SOL     OW 8375   2.321   4.876   2.603
 2785SOL    HW1 8376   2.250   4.849   2.668
 2785SOL    HW2 8377   2.295   4.848   2.510
 2786SOL     OW 8378   2.894   4.273   1.878
 2786SOL    HW1 8379   2.853   4.355   1.839
 2786SOL    HW2 8380   2.958   4.299   1.951
 2787SOL     OW 8381   1.940   4.280   3.248
 2787SOL    HW1 8382   2.032   4.279   3.207
 2787SOL    HW2 8383   1.934   4.354   3.315
 2788SOL     OW 8384   2.423   3.946   3.009
 2788SOL    HW1 8385   2.461   3.862   3.046
 2788SOL    HW2 8386   2.335   3.965   3.053
 2789SOL     OW 8387   2.728   4.178   2.504
 2789SOL    HW1 8388   2.696   4.250   2.442
 2789SOL    HW2 8389   2.752   4.097   2.451
 2790SOL     OW 8390   2.879   3.763   2.615
 2790SOL    HW1 8391   2.807   3.768   2.546
 2790SOL    HW2 8392   2.855   3.694   2.684
 2791SOL     OW 8393   3.291   4.897   2.729
 2791SOL    HW1 8394   3.236   4.813   2.722
 2791SOL    HW2 8395   3.317   4.926   2.637
 2792SOL     OW 8396   3.328   4.314   2.854
 2792SOL    HW1 8397   3.298   4.219   2.861
 2792SOL    HW2 8398   3.401   4.330   2.920
 2793SOL     OW 8399   3.719   4.557   2.239
 2793SOL    HW1 8400   3.761   4.493   2.303
 2793SOL    HW2 8401   3.681   4.506   2.161
 2794SOL     OW 8402   3.252   4.299   1.940
 2794SOL    HW1 8403   3.198   4.278   2.021
 2794SOL    HW2 8404   3.343   4.258   1.949
 2795SOL     OW 8405   2.389   3.980   2.190
 2795SOL    HW1 8406   2.416   3.921   2.115
 2795SOL    HW2 8407   2.389   4.075   2.159
 2796SOL     OW 8408   3.616   4.947   3.450
 2796SOL    HW1 8409   3.707   4.908   3.437
 2796SOL    HW2 8410   3.624   5.043   3.474
 2797SOL     OW 8411   3.500   4.823   2.941
 2797SOL    HW1 8412   3.505   4.904   3.000
 2797SOL    HW2 8413   3.414   4.825   2.890
 2798SOL     OW 8414   2.777   3.813   3.264
 2798SOL    HW1 8415   2.802   3.793   3.169
 2798SOL    HW2 8416   2.849   3.869   3.306
 2799SOL     OW 8417   2.567   4.774   2.230
 2799SOL    HW1 8418   2.553   4.781   2.329
 2799SOL    HW2 8419   2.651   4.723   2.212
 2800SOL     OW 8420   2.272   4.537   3.113
 2800SOL    HW1 8421   2.358   4.549   3.163
 2800SOL    HW2 8422   2.230   4.450   3.140
 2801SOL     OW 8423   3.136   4.110   3.124
 2801SOL    HW1 8424   3.157   4.184   3.188
 2801SOL    HW2 8425   3.047   4.127   3.081
 2802SOL     OW 8426   2.229   4.824   2.363
 2802SOL    HW1 8427   2.222   4.907   2.307
 2802SOL    HW2 8428   2.233   4.744   2.303
 2803SOL     OW 8429   2.428   4.261   2.727
 2803SOL    HW1 8430   2.440   4.327   2.653
 2803SOL    HW2 8431   2.474   4.295   2.810
 2804SOL     OW 8432   3.444   4.363   2.334
 2804SOL    HW1 8433   3.413   4.424   2.407
 2804SOL    HW2 8434   3.494   4.415   2.265
 2805SOL     OW 8435   2.264   4.475   3.460
 2805SOL    HW1 8436   2.332   4.530   3.413
 2805SOL    HW2 8437   2.304   4.387   3.487
 2806SOL     OW 8438   3.449   4.503   3.532
 2806SOL    HW1 8439   3.357   4.541   3.527
 2806SOL    HW2 8440   3.509   4.550   3.467
 2807SOL     OW 8441   2.875   3.829   3.632
 2807SOL    HW1 8442   2.881   3.914   3.580
 2807SOL    HW2 8443   2.907   3.753   3.575
 2808SOL     OW 8444   2.366   3.774   3.602
 2808SOL    HW1 8445   2.324   3.717   3.532
 2808SOL    HW2 8446   2.300   3.843   3.634
 2809SOL     OW 8447   2.435   4.594   2.891
 2809SOL    HW1 8448   2.479   4.683   2.882
 2809SOL    HW2 8449   2.372   4.594   2.968
 2810SOL     OW 8450   3.222   4.586   2.907
 2810SOL    HW1 8451   3.147   4.586   2.841
 2810SOL    HW2 8452   3.259   4.494   2.916
 2811SOL     OW 8453   3.071   4.249   2.137
 2811SOL    HW1 8454   3.084   4.165   2.191
 2811SOL    HW2 8455   3.042   4.323   2.197
 2812SOL     OW 8456   2.169   3.937   3.093
 2812SOL    HW1 8457   2.146   3.974   3.183
 2812SOL    HW2 8458   2.139   3.842   3.087
 2813SOL     OW 8459   2.594   4.358   2.926
 2813SOL    HW1 8460   2.653   4.332   2.850
 2813SOL    HW2 8461   2.566   4.454   2.915
 2814SOL     OW 8462   3.590   4.659   3.716
 2814SOL    HW1 8463   3.544   4.652   3.627
 2814SOL    HW2 8464   3.528   4.703   3.782
 2815SOL     OW 8465   2.169   3.787   2.480
 2815SOL    HW1 8466   2.158   3.881   2.513
 2815SOL    HW2 8467   2.164   3.724   2.557
 2816SOL     OW 8468   3.484   4.091   2.236
 2816SOL    HW1 8469   3.486   4.015   2.300
 2816SOL    HW2 8470   3.436   4.168   2.276
 2817SOL     OW 8471   2.885   4.490   2.828
 2817SOL    HW1 8472   2.900   4.511   2.924
 2817SOL    HW2 8473   2.855   4.395   2.819
 2818SOL     OW 8474   2.212   4.622   3.666
 2818SOL    HW1 8475   2.288   4.666   3.714
 2818SOL    HW2 8476   2.247   4.575   3.584
 2819SOL     OW 8477   3.402   3.998   1.987
 2819SOL    HW1 8478   3.341   3.923   2.010
 2819SOL    HW2 8479   3.424   4.050   2.070
 2820SOL     OW 8480   3.165   4.562   1.904
 2820SOL    HW1 8481   3.199   4.469   1.919
 2820SOL    HW2 8482   3.183   4.589   1.809
 2821SOL     OW 8483   2.181   4.534   2.811
 2821SOL    HW1 8484   2.274   4.570   2.816
 2821SOL    HW2 8485   2.175   4.449   2.863
 2822SOL     OW 8486   2.201   4.233   2.868
 2822SOL    HW1 8487   2.149   4.150   2.851
 2822SOL    HW2 8488   2.278   4.238   2.804
 2823SOL     OW 8489   3.000   4.104   3.540
 2823SOL    HW1 8490   2.955   4.167   3.604
 2823SOL    HW2 8491   3.093   4.135   3.523
 2824SOL     OW 8492   3.022   3.931   3.339
 2824SOL    HW1 8493   3.022   3.995   3.416
 2824SOL    HW2 8494   3.050   3.979   3.256
 2825SOL     OW 8495   2.864   4.520   3.100
 2825SOL    HW1 8496   2.905   4.488   3.186
 2825SOL    HW2 8497   2.768   4.493   3.097
 2826SOL     OW 8498   1.902   4.268   2.976
 2826SOL    HW1 8499   1.987   4.235   2.935
 2826SOL    HW2 8500   1.915   4.283   3.074
 2827SOL     OW 8501   2.051   4.244   3.584
 2827SOL    HW1 8502   2.110   4.204   3.514
 2827SOL    HW2 8503   1.993   4.315   3.543
 2828SOL     OW 8504   3.231   4.674   3.522
 2828SOL    HW1 8505   3.270   4.763   3.542
 2828SOL    HW2 8506   3.241   4.654   3.425
 2829SOL     OW 8507   2.677   4.296   2.187
 2829SOL    HW1 8508   2.684   4.207   2.141
 2829SOL    HW2 8509   2.583   4.330   2.179
 2830SOL     OW 8510   3.519   4.328   3.068
 2830SOL    HW1 8511   3.481   4.259   3.130
 2830SOL    HW2 8512   3.601   4.292   3.024
 2831SOL     OW 8513   2.533   4.188   3.131
 2831SOL    HW1 8514   2.499   4.099   3.101
 2831SOL    HW2 8515   2.559   4.242   3.051
 2832SOL     OW 8516   2.335   4.224   2.053
 2832SOL    HW1 8517   2.396   4.304   2.057
 2832SOL    HW2 8518   2.240   4.255   2.060
 2833SOL     OW 8519   2.021   4.861   3.328
 2833SOL    HW1 8520   2.043   4.800   3.404
 2833SOL    HW2 8521   2.031   4.812   3.242
 2834SOL     OW 8522   3.209   4.783   3.096
 2834SOL    HW1 8523   3.233   4.720   3.022
 2834SOL    HW2 8524   3.119   4.823   3.078
 2835SOL     OW 8525   3.164   4.579   2.171
 2835SOL    HW1 8526   3.078   4.548   2.213
 2835SOL    HW2 8527   3.160   4.565   2.072
 2836SOL     OW 8528   3.588   3.859   2.385
 2836SOL    HW1 8529   3.661   3.842   2.318
 2836SOL    HW2 8530   3.557   3.772   2.423
 2837SOL     OW 8531   3.142   4.651   2.534
 2837SOL    HW1 8532   3.202   4.570   2.536
 2837SOL    HW2 8533   3.182   4.720   2.474
 2838SOL     OW 8534   3.703   3.899   2.825
 2838SOL    HW1 8535   3.742   3.814   2.789
 2838SOL    HW2 8536   3.605   3.901   2.806
 2839SOL     OW 8537   2.125   4.050   2.582
 2839SOL    HW1 8538   2.046   4.101   2.548
 2839SOL    HW2 8539   2.116   4.035   2.680
 2840SOL     OW 8540   2.684   4.726   3.234
 2840SOL    HW1 8541   2.724   4.725   3.142
 2840SOL    HW2 8542   2.694   4.818   3.274
 2841SOL     OW 8543   2.778   4.634   2.153
 2841SOL    HW1 8544   2.841   4.672   2.085
 2841SOL    HW2 8545   2.818   4.551   2.192
 2842SOL     OW 8546   2.234   5.012   3.352
 2842SOL    HW1 8547   2.221   5.105   3.318
 2842SOL    HW2 8548   2.150   4.960   3.339
 2843SOL     OW 8549   2.876   3.960   2.833
 2843SOL    HW1 8550   2.868   3.924   2.740
 2843SOL    HW2 8551   2.874   3.884   2.898
 2844SOL     OW 8552   3.571   4.109   3.243
 2844SOL    HW1 8553   3.644   4.178   3.247
 2844SOL    HW2 8554   3.599   4.034   3.184
 2845SOL     OW 8555   1.967   4.737   3.588
 2845SOL    HW1 8556   1.890   4.704   3.642
 2845SOL    HW2 8557   2.052   4.707   3.630
 2846SOL     OW 8558   2.534   3.927   3.351
 2846SOL    HW1 8559   2.624   3.911   3.311
 2846SOL    HW2 8560   2.542   3.932   3.450
 2847SOL     OW 8561   1.937   4.069   1.895
 2847SOL    HW1 8562   1.845   4.041   1.866
 2847SOL    HW2 8563   1.968   4.146   1.839
 2848SOL     OW 8564   3.302   4.580   3.260
 2848SOL    HW1 8565   3.245   4.632   3.197
 2848SOL    HW2 8566   3.398   4.592   3.236
 2849SOL     OW 8567   1.934   3.890   2.180
 2849SOL    HW1 8568   1.917   3.973   2.126
 2849SOL    HW2 8569   2.024   3.853   2.158
 2850SOL     OW 8570   3.045   5.059   1.981
 2850SOL    HW1 8571   2.946   5.048   1.983
 2850SOL    HW2 8572   3.079   5.074   2.074
 2851SOL     OW 8573   2.475   4.566   3.293
 2851SOL    HW1 8574   2.531   4.647   3.276
 2851SOL    HW2 8575   2.534   4.486   3.296
 2852SOL     OW 8576   2.578   4.289   3.570
 2852SOL    HW1 8577   2.597   4.354   3.644
 2852SOL    HW2 8578   2.638   4.209   3.579
 2853SOL     OW 8579   3.312   4.944   3.495
 2853SOL    HW1 8580   3.303   4.934   3.594
 2853SOL    HW2 8581   3.408   4.937   3.469
 2854SOL     OW 8582   3.536   4.607   3.116
 2854SOL    HW1 8583   3.509   4.518   3.079
 2854SOL    HW2 8584   3.537   4.675   3.043
 2855SOL     OW 8585   3.087   4.049   2.311
 2855SOL    HW1 8586   3.152   3.975   2.300
 2855SOL    HW2 8587   3.107   4.099   2.395
 2856SOL     OW 8588   2.456   4.469   2.514
 2856SOL    HW1 8589   2.506   4.554   2.495
 2856SOL    HW2 8590   2.368   4.471   2.466
 2857SOL     OW 8591   3.639   4.066   3.504
 2857SOL    HW1 8592   3.622   4.097   3.410
 2857SOL    HW2 8593   3.555   4.029   3.542
 2858SOL     OW 8594   3.592   4.658   3.379
 2858SOL    HW1 8595   3.630   4.749   3.394
 2858SOL    HW2 8596   3.584   4.641   3.280
 2859SOL     OW 8597   2.721   4.680   2.723
 2859SOL    HW1 8598   2.775   4.611   2.771
 2859SOL    HW2 8599   2.689   4.749   2.789
 2860SOL     OW 8600   2.945   4.708   1.949
 2860SOL    HW1 8601   2.922   4.761   1.867
 2860SOL    HW2 8602   3.026   4.652   1.930
 2861SOL     OW 8603   1.941   4.964   2.515
 2861SOL    HW1 8604   1.940   4.917   2.603
 2861SOL    HW2 8605   2.023   4.936   2.464
 2862SOL     OW 8606   3.686   3.916   3.089
 2862SOL    HW1 8607   3.682   3.826   3.133
 2862SOL    HW2 8608   3.689   3.905   2.990
 2863SOL     OW 8609   2.290   4.148   2.382
 2863SOL    HW1 8610   2.320   4.076   2.320
 2863SOL    HW2 8611   2.251   4.108   2.465
 2864SOL     OW 8612   2.179   4.271   3.142
 2864SOL    HW1 8613   2.217   4.212   3.214
 2864SOL    HW2 8614   2.219   4.245   3.054
 2865SOL     OW 8615   3.286   3.938   2.974
 2865SOL    HW1 8616   3.338   3.873   3.029
 2865SOL    HW2 8617   3.237   4.001   3.035
 2866SOL     OW 8618   2.863   3.758   3.016
 2866SOL    HW1 8619   2.800   3.686   2.985
 2866SOL    HW2 8620   2.956   3.722   3.016
 2867SOL     OW 8621   2.632   5.054   2.163
 2867SOL    HW1 8622   2.586   4.967   2.180
 2867SOL    HW2 8623   2.723   5.051   2.204
 2868SOL     OW 8624   3.214   3.776   2.030
 2868SOL    HW1 8625   3.249   3.735   1.946
 2868SOL    HW2 8626   3.124   3.738   2.050
 2869SOL     OW 8627   3.162   4.177   2.553
 2869SOL    HW1 8628   3.103   4.257   2.557
 2869SOL    HW2 8629   3.177   4.142   2.646
 2870SOL     OW 8630   3.455   3.945   2.744
 2870SOL    HW1 8631   3.371   3.944   2.798
 2870SOL    HW2 8632   3.457   4.028   2.688
 2871SOL     OW 8633   1.901   4.801   2.162
 2871SOL    HW1 8634   2.000   4.790   2.153
 2871SOL    HW2 8635   1.861   4.715   2.194
 2872SOL     OW 8636   2.092   4.352   3.837
 2872SOL    HW1 8637   1.999   4.350   3.874
 2872SOL    HW2 8638   2.093   4.313   3.745
 2873SOL     OW 8639   2.087   3.999   4.720
 2873SOL    HW1 8640   2.122   3.982   4.812
 2873SOL    HW2 8641   1.999   3.954   4.708
 2874SOL     OW 8642   1.881   4.092   4.371
 2874SOL    HW1 8643   1.799   4.135   4.410
 2874SOL    HW2 8644   1.853   4.019   4.308
 2875SOL     OW 8645   2.997   4.427   4.441
 2875SOL    HW1 8646   3.054   4.505   4.416
 2875SOL    HW2 8647   2.937   4.453   4.517
 2876SOL     OW 8648   3.617   4.331   3.955
 2876SOL    HW1 8649   3.605   4.318   3.856
 2876SOL    HW2 8650   3.587   4.250   4.004
 2877SOL     OW 8651   2.630   4.868   4.747
 2877SOL    HW1 8652   2.552   4.885   4.807
 2877SOL    HW2 8653   2.664   4.955   4.711
 2878SOL     OW 8654   2.547   4.736   4.389
 2878SOL    HW1 8655   2.616   4.720   4.459
 2878SOL    HW2 8656   2.474   4.793   4.427
 2879SOL     OW 8657   3.465   4.171   4.461
 2879SOL    HW1 8658   3.391   4.217   4.411
 2879SOL    HW2 8659   3.516   4.239   4.514
 2880SOL     OW 8660   2.102   4.815   4.610
 2880SOL    HW1 8661   2.116   4.731   4.662
 2880SOL    HW2 8662   2.047   4.879   4.665
 2881SOL     OW 8663   2.468   4.688   3.847
 2881SOL    HW1 8664   2.475   4.772   3.793
 2881SOL    HW2 8665   2.514   4.701   3.935
 2882SOL     OW 8666   1.984   4.367   4.287
 2882SOL    HW1 8667   1.939   4.279   4.304
 2882SOL    HW2 8668   1.983   4.421   4.371
 2883SOL     OW 8669   3.551   4.646   4.336
 2883SOL    HW1 8670   3.646   4.617   4.344
 2883SOL    HW2 8671   3.543   4.711   4.261
 2884SOL     OW 8672   2.475   5.089   4.450
 2884SOL    HW1 8673   2.426   5.002   4.459
 2884SOL    HW2 8674   2.452   5.132   4.363
 2885SOL     OW 8675   2.671   3.728   4.226
 2885SOL    HW1 8676   2.711   3.819   4.217
 2885SOL    HW2 8677   2.571   3.736   4.232
 2886SOL     OW 8678   2.059   4.700   4.988
 2886SOL    HW1 8679   2.148   4.655   4.974
 2886SOL    HW2 8680   1.986   4.635   4.969
 2887SOL     OW 8681   3.387   4.723   3.914
 2887SOL    HW1 8682   3.324   4.647   3.927
 2887SOL    HW2 8683   3.435   4.741   4.000
 2888SOL     OW 8684   2.460   4.453   3.994
 2888SOL    HW1 8685   2.484   4.522   3.926
 2888SOL    HW2 8686   2.382   4.486   4.048
 2889SOL     OW 8687   3.143   4.069   4.668
 2889SOL    HW1 8688   3.057   4.019   4.655
 2889SOL    HW2 8689   3.205   4.015   4.724
 2890SOL     OW 8690   2.903   4.425   4.153
 2890SOL    HW1 8691   2.929   4.421   4.249
 2890SOL    HW2 8692   2.818   4.374   4.139
 2891SOL     OW 8693   1.938   4.535   4.513
 2891SOL    HW1 8694   2.037   4.523   4.522
 2891SOL    HW2 8695   1.914   4.630   4.534
 2892SOL     OW 8696   2.727   4.072   3.919
 2892SOL    HW1 8697   2.786   4.135   3.870
 2892SOL    HW2 8698   2.746   3.978   3.890
 2893SOL     OW 8699   2.412   3.920   4.609
 2893SOL    HW1 8700   2.407   3.915   4.709
 2893SOL    HW2 8701   2.414   4.016   4.580
 2894SOL     OW 8702   3.657   4.790   4.597
 2894SOL    HW1 8703   3.595   4.775   4.521
 2894SOL    HW2 8704   3.605   4.801   4.682
 2895SOL     OW 8705   2.183   4.667   3.966
 2895SOL    HW1 8706   2.265   4.706   3.924
 2895SOL    HW2 8707   2.156   4.585   3.917
 2896SOL     OW 8708   3.320   4.459   4.452
 2896SOL    HW1 8709   3.315   4.394   4.527
 2896SOL    HW2 8710   3.400   4.518   4.465
 2897SOL     OW 8711   3.262   3.831   4.150
 2897SOL    HW1 8712   3.238   3.794   4.060
 2897SOL    HW2 8713   3.361   3.847   4.154
 2898SOL     OW 8714   2.244   4.424   4.204
 2898SOL    HW1 8715   2.289   4.334   4.201
 2898SOL    HW2 8716   2.150   4.413   4.237
 2899SOL     OW 8717   2.476   3.846   3.841
 2899SOL    HW1 8718   2.574   3.824   3.848
 2899SOL    HW2 8719   2.445   3.829   3.748
 2900SOL     OW 8720   2.750   5.238   4.919
 2900SOL    HW1 8721   2.727   5.213   4.825
 2900SOL    HW2 8722   2.811   5.169   4.958
 2901SOL     OW 8723   2.784   4.227   4.623
 2901SOL    HW1 8724   2.759   4.218   4.527
 2901SOL    HW2 8725   2.832   4.145   4.654
 2902SOL     OW 8726   2.401   3.788   4.236
 2902SOL    HW1 8727   2.320   3.789   4.294
 2902SOL    HW2 8728   2.404   3.871   4.181
 2903SOL     OW 8729   2.159   3.759   3.895
 2903SOL    HW1 8730   2.208   3.843   3.874
 2903SOL    HW2 8731   2.221   3.694   3.940
 2904SOL     OW 8732   2.797   3.960   4.204
 2904SOL    HW1 8733   2.749   4.001   4.126
 2904SOL    HW2 8734   2.896   3.958   4.185
 2905SOL     OW 8735   2.321   4.876   4.465
 2905SOL    HW1 8736   2.250   4.849   4.530
 2905SOL    HW2 8737   2.295   4.848   4.372
 2906SOL     OW 8738   2.894   4.273   3.740
 2906SOL    HW1 8739   2.853   4.355   3.701
 2906SOL    HW2 8740   2.958   4.299   3.813
 2907SOL     OW 8741   2.728   4.178   4.366
 2907SOL    HW1 8742   2.696   4.250   4.304
 2907SOL    HW2 8743   2.752   4.097   4.313
 2908SOL     OW 8744   2.879   3.763   4.477
 2908SOL    HW1 8745   2.807   3.768   4.408
 2908SOL    HW2 8746   2.855   3.694   4.546
 2909SOL     OW 8747   3.291   4.897   4.591
 2909SOL    HW1 8748   3.236   4.813   4.584
 2909SOL    HW2 8749   3.317   4.926   4.499
 2910SOL     OW 8750   3.328   4.314   4.716
 2910SOL    HW1 8751   3.298   4.219   4.723
 2910SOL    HW2 8752   3.401   4.330   4.782
 2911SOL     OW 8753   3.719   4.557   4.101
 2911SOL    HW1 8754   3.761   4.493   4.165
 2911SOL    HW2 8755   3.681   4.506   4.023
 2912SOL     OW 8756   3.252   4.299   3.802
 2912SOL    HW1 8757   3.198   4.278   3.883
 2912SOL    HW2 8758   3.343   4.258   3.811
 2913SOL     OW 8759   2.389   3.980   4.052
 2913SOL    HW1 8760   2.416   3.921   3.977
 2913SOL    HW2 8761   2.389   4.075   4.021
 2914SOL     OW 8762   2.973   4.919   4.824
 2914SOL    HW1 8763   2.933   4.963   4.905
 2914SOL    HW2 8764   2.932   4.956   4.741
 2915SOL     OW 8765   3.500   4.823   4.803
 2915SOL    HW1 8766   3.505   4.904   4.862
 2915SOL    HW2 8767   3.414   4.825   4.752
 2916SOL     OW 8768   2.567   4.774   4.092
 2916SOL    HW1 8769   2.553   4.781   4.191
 2916SOL    HW2 8770   2.651   4.723   4.074
 2917SOL     OW 8771   2.272   4.537   4.975
 2917SOL    HW1 8772   2.358   4.549   5.025
 2917SOL    HW2 8773   2.230   4.450   5.002
 2918SOL     OW 8774   2.229   4.824   4.225
 2918SOL    HW1 8775   2.222   4.907   4.169
 2918SOL    HW2 8776   2.233   4.744   4.165
 2919SOL     OW 8777   2.428   4.261   4.589
 2919SOL    HW1 8778   2.440   4.327   4.515
 2919SOL    HW2 8779   2.474   4.295   4.672
 2920SOL     OW 8780   3.444   4.363   4.196
 2920SOL    HW1 8781   3.413   4.424   4.269
 2920SOL    HW2 8782   3.494   4.415   4.127
 2921SOL     OW 8783   2.435   4.594   4.753
 2921SOL    HW1 8784   2.479   4.683   4.744
 2921SOL    HW2 8785   2.372   4.594   4.830
 2922SOL     OW 8786   3.071   4.249   3.999
 2922SOL    HW1 8787   3.084   4.165   4.053
 2922SOL    HW2 8788   3.042   4.323   4.059
 2923SOL     OW 8789   2.169   3.937   4.955
 2923SOL    HW1 8790   2.146   3.974   5.045
 2923SOL    HW2 8791   2.139   3.842   4.949
 2924SOL     OW 8792   2.594   4.358   4.788
 2924SOL    HW1 8793   2.653   4.332   4.712
 2924SOL    HW2 8794   2.566   4.454   4.777
 2925SOL     OW 8795   2.169   3.787   4.342
 2925SOL    HW1 8796   2.158   3.881   4.375
 2925SOL    HW2 8797   2.164   3.724   4.419
 2926SOL     OW 8798   3.484   4.091   4.098
 2926SOL    HW1 8799   3.486   4.015   4.162
 2926SOL    HW2 8800   3.436   4.168   4.138
 2927SOL     OW 8801   2.885   4.490   4.690
 2927SOL    HW1 8802   2.900   4.511   4.786
 2927SOL    HW2 8803   2.855   4.395   4.681
 2928SOL     OW 8804   3.402   3.998   3.849
 2928SOL    HW1 8805   3.341   3.923   3.872
 2928SOL    HW2 8806   3.424   4.050   3.932
 2929SOL     OW 8807   3.165   4.562   3.766
 2929SOL    HW1 8808   3.199   4.469   3.781
 2929SOL    HW2 8809   3.183   4.589   3.671
 2930SOL     OW 8810   2.181   4.534   4.673
 2930SOL    HW1 8811   2.274   4.570   4.678
 2930SOL    HW2 8812   2.175   4.449   4.725
 2931SOL     OW 8813   2.201   4.233   4.730
 2931SOL    HW1 8814   2.149   4.150   4.713
 2931SOL    HW2 8815   2.278   4.238   4.666
 2932SOL     OW 8816   2.864   4.520   4.962
 2932SOL    HW1 8817   2.905   4.488   5.048
 2932SOL    HW2 8818   2.768   4.493   4.959
 2933SOL     OW 8819   1.902   4.268   4.838
 2933SOL    HW1 8820   1.987   4.235   4.797
 2933SOL    HW2 8821   1.915   4.283   4.936
 2934SOL     OW 8822   2.677   4.296   4.049
 2934SOL    HW1 8823   2.684   4.207   4.003
 2934SOL    HW2 8824   2.583   4.330   4.041
 2935SOL     OW 8825   2.533   4.188   4.993
 2935SOL    HW1 8826   2.499   4.099   4.963
 2935SOL    HW2 8827   2.559   4.242   4.913
 2936SOL     OW 8828   2.335   4.224   3.915
 2936SOL    HW1 8829   2.396   4.304   3.919
 2936SOL    HW2 8830   2.240   4.255   3.922
 2937SOL     OW 8831   3.209   4.783   4.958
 2937SOL    HW1 8832   3.233   4.720   4.884
 2937SOL    HW2 8833   3.119   4.823   4.940
 2938SOL     OW 8834   3.164   4.579   4.033
 2938SOL    HW1 8835   3.078   4.548   4.075
 2938SOL    HW2 8836   3.160   4.565   3.934
 2939SOL     OW 8837   3.588   3.859   4.247
 2939SOL    HW1 8838   3.661   3.842   4.180
 2939SOL    HW2 8839   3.557   3.772   4.285
 2940SOL     OW 8840   3.142   4.651   4.396
 2940SOL    HW1 8841   3.202   4.570   4.398
 2940SOL    HW2 8842   3.182   4.720   4.336
 2941SOL     OW 8843   3.703   3.899   4.687
 2941SOL    HW1 8844   3.742   3.814   4.651
 2941SOL    HW2 8845   3.605   3.901   4.668
 2942SOL     OW 8846   2.125   4.050   4.444
 2942SOL    HW1 8847   2.046   4.101   4.410
 2942SOL    HW2 8848   2.116   4.035   4.542
 2943SOL     OW 8849   2.684   4.726   5.096
 2943SOL    HW1 8850   2.724   4.725   5.004
 2943SOL    HW2 8851   2.694   4.818   5.136
 2944SOL     OW 8852   2.778   4.634   4.015
 2944SOL    HW1 8853   2.841   4.672   3.947
 2944SOL    HW2 8854   2.818   4.551   4.054
 2945SOL     OW 8855   2.876   3.960   4.695
 2945SOL    HW1 8856   2.868   3.924   4.602
 2945SOL    HW2 8857   2.874   3.884   4.760
 2946SOL     OW 8858   1.937   4.069   3.757
 2946SOL    HW1 8859   1.845   4.041   3.728
 2946SOL    HW2 8860   1.968   4.146   3.701
 2947SOL     OW 8861   1.934   3.890   4.042
 2947SOL    HW1 8862   1.917   3.973   3.988
 2947SOL    HW2 8863   2.024   3.853   4.020
 2948SOL     OW 8864   3.045   5.059   3.843
 2948SOL    HW1 8865   2.946   5.048   3.845
 2948SOL    HW2 8866   3.079   5.074   3.936
 2949SOL     OW 8867   3.536   4.607   4.978
 2949SOL    HW1 8868   3.509   4.518   4.941
 2949SOL    HW2 8869   3.537   4.675   4.905
 2950SOL     OW 8870   3.087   4.049   4.173
 2950SOL    HW1 8871   3.152   3.975   4.162
 2950SOL    HW2 8872   3.107   4.099   4.257
 2951SOL     OW 8873   2.456   4.469   4.376
 2951SOL    HW1 8874   2.506   4.554   4.357
 2951SOL    HW2 8875   2.368   4.471   4.328
 2952SOL     OW 8876   2.721   4.680   4.585
 2952SOL    HW1 8877   2.775   4.611   4.633
 2952SOL    HW2 8878   2.689   4.749   4.651
 2953SOL     OW 8879   2.945   4.708   3.811
 2953SOL    HW1 8880   2.922   4.761   3.729
 2953SOL    HW2 8881   3.026   4.652   3.792
 2954SOL     OW 8882   1.941   4.964   4.377
 2954SOL    HW1 8883   1.940   4.917   4.465
 2954SOL    HW2 8884   2.023   4.936   4.326
 2955SOL     OW 8885   3.686   3.916   4.951
 2955SOL    HW1 8886   3.682   3.826   4.995
 2955SOL    HW2 8887   3.689   3.905   4.852
 2956SOL     OW 8888   2.290   4.148   4.244
 2956SOL    HW1 8889   2.320   4.076   4.182
 2956SOL    HW2 8890   2.251   4.108   4.327
 2957SOL     OW 8891   3.286   3.938   4.836
 2957SOL    HW1 8892   3.338   3.873   4.891
 2957SOL    HW2 8893   3.237   4.001   4.897
 2958SOL     OW 8894   2.632   5.054   4.025
 2958SOL    HW1 8895   2.586   4.967   4.042
 2958SOL    HW2 8896   2.723   5.051   4.066
 2959SOL     OW 8897   3.214   3.776   3.892
 2959SOL    HW1 8898   3.249   3.735   3.808
 2959SOL    HW2 8899   3.124   3.738   3.912
 2960SOL     OW 8900   3.162   4.177   4.415
 2960SOL    HW1 8901   3.103   4.257   4.419
 2960SOL    HW2 8902   3.177   4.142   4.508
 2961SOL     OW 8903   3.455   3.945   4.606
 2961SOL    HW1 8904   3.371   3.944   4.660
 2961SOL    HW2 8905   3.457   4.028   4.550
 2962SOL     OW 8906   1.901   4.801   4.024
 2962SOL    HW1 8907   2.000   4.790   4.015
 2962SOL    HW2 8908   1.861   4.715   4.056
 2963SOL     OW 8909   3.954   0.628   0.113
 2963SOL    HW1 8910   3.861   0.626   0.150
 2963SOL    HW2 8911   3.955   0.589   0.021
 2964SOL     OW 8912   3.949   0.275   0.996
 2964SOL    HW1 8913   3.984   0.258   1.088
 2964SOL    HW2 8914   3.861   0.230   0.984
 2965SOL     OW 8915   3.743   0.368   0.647
 2965SOL    HW1 8916   3.661   0.411   0.686
 2965SOL    HW2 8917   3.715   0.295   0.584
 2966SOL     OW 8918   4.293   1.275   1.165
 2966SOL    HW1 8919   4.200   1.268   1.128
 2966SOL    HW2 8920   4.304   1.364   1.209
 2967SOL     OW 8921   4.492   1.144   1.023
 2967SOL    HW1 8922   4.414   1.161   1.083
 2967SOL    HW2 8923   4.526   1.231   0.987
 2968SOL     OW 8924   4.574   0.798   1.823
 2968SOL    HW1 8925   4.570   0.874   1.888
 2968SOL    HW2 8926   4.596   0.834   1.732
 2969SOL     OW 8927   4.409   1.012   0.665
 2969SOL    HW1 8928   4.478   0.996   0.735
 2969SOL    HW2 8929   4.336   1.069   0.703
 2970SOL     OW 8930   4.410   1.161   1.803
 2970SOL    HW1 8931   4.470   1.240   1.817
 2970SOL    HW2 8932   4.324   1.192   1.762
 2971SOL     OW 8933   4.059   1.435   1.061
 2971SOL    HW1 8934   3.981   1.404   1.008
 2971SOL    HW2 8935   4.117   1.493   1.004
 2972SOL     OW 8936   4.162   0.392   1.499
 2972SOL    HW1 8937   4.244   0.336   1.508
 2972SOL    HW2 8938   4.081   0.334   1.503
 2973SOL     OW 8939   3.955   1.713   0.483
 2973SOL    HW1 8940   3.989   1.790   0.537
 2973SOL    HW2 8941   3.999   1.713   0.393
 2974SOL     OW 8942   4.851   1.341   1.690
 2974SOL    HW1 8943   4.898   1.341   1.778
 2974SOL    HW2 8944   4.803   1.254   1.679
 2975SOL     OW 8945   3.954   1.434   0.538
 2975SOL    HW1 8946   3.928   1.530   0.538
 2975SOL    HW2 8947   3.883   1.380   0.583
 2976SOL     OW 8948   3.964   1.091   0.886
 2976SOL    HW1 8949   3.978   1.007   0.938
 2976SOL    HW2 8950   3.909   1.155   0.941
 2977SOL     OW 8951   4.344   1.786   1.439
 2977SOL    HW1 8952   4.252   1.769   1.474
 2977SOL    HW2 8953   4.372   1.878   1.465
 2978SOL     OW 8954   4.330   0.964   0.123
 2978SOL    HW1 8955   4.337   1.048   0.069
 2978SOL    HW2 8956   4.376   0.977   0.211
 2979SOL     OW 8957   3.846   0.643   0.563
 2979SOL    HW1 8958   3.801   0.555   0.580
 2979SOL    HW2 8959   3.845   0.697   0.647
 2980SOL     OW 8960   3.751   1.596   0.117
 2980SOL    HW1 8961   3.732   1.500   0.138
 2980SOL    HW2 8962   3.718   1.654   0.192
 2981SOL     OW 8963   3.837   0.737   1.597
 2981SOL    HW1 8964   3.925   0.724   1.642
 2981SOL    HW2 8965   3.824   0.834   1.575
 2982SOL     OW 8966   4.337   1.365   0.726
 2982SOL    HW1 8967   4.288   1.278   0.735
 2982SOL    HW2 8968   4.314   1.408   0.639
 2983SOL     OW 8969   4.533   0.004   0.502
 2983SOL    HW1 8970   4.573   0.095   0.493
 2983SOL    HW2 8971   4.433   0.012   0.508
 2984SOL     OW 8972   3.921   0.976   1.264
 2984SOL    HW1 8973   4.010   0.931   1.250
 2984SOL    HW2 8974   3.848   0.911   1.245
 2985SOL     OW 8975   4.041   0.251   1.801
 2985SOL    HW1 8976   4.112   0.322   1.807
 2985SOL    HW2 8977   3.953   0.290   1.829
 2986SOL     OW 8978   4.322   0.729   0.270
 2986SOL    HW1 8979   4.346   0.798   0.202
 2986SOL    HW2 8980   4.244   0.762   0.324
 2987SOL     OW 8981   4.531   0.605   1.465
 2987SOL    HW1 8982   4.484   0.602   1.554
 2987SOL    HW2 8983   4.480   0.550   1.399
 2988SOL     OW 8984   4.697   0.890   1.572
 2988SOL    HW1 8985   4.743   0.806   1.543
 2988SOL    HW2 8986   4.641   0.924   1.497
 2989SOL     OW 8987   4.715   0.410   1.242
 2989SOL    HW1 8988   4.638   0.444   1.296
 2989SOL    HW2 8989   4.681   0.359   1.163
 2990SOL     OW 8990   4.765   0.701   0.429
 2990SOL    HW1 8991   4.791   0.697   0.525
 2990SOL    HW2 8992   4.680   0.650   0.415
 2991SOL     OW 8993   3.800   0.811   0.789
 2991SOL    HW1 8994   3.899   0.799   0.798
 2991SOL    HW2 8995   3.776   0.906   0.810
 2992SOL     OW 8996   3.854   1.821   1.571
 2992SOL    HW1 8997   3.844   1.806   1.670
 2992SOL    HW2 8998   3.768   1.857   1.535
 2993SOL     OW 8999   4.589   0.348   0.195
 2993SOL    HW1 9000   4.648   0.411   0.146
 2993SOL    HW2 9001   4.608   0.254   0.166
 2994SOL     OW 9002   4.274   0.196   0.885
 2994SOL    HW1 9003   4.269   0.191   0.985
 2994SOL    HW2 9004   4.276   0.292   0.856
 2995SOL     OW 9005   4.732   1.456   0.477
 2995SOL    HW1 9006   4.686   1.528   0.425
 2995SOL    HW2 9007   4.728   1.476   0.575
 2996SOL     OW 9008   4.075   1.801   0.853
 2996SOL    HW1 9009   4.125   1.715   0.859
 2996SOL    HW2 9010   4.140   1.878   0.850
 2997SOL     OW 9011   4.045   0.943   0.242
 2997SOL    HW1 9012   4.127   0.982   0.200
 2997SOL    HW2 9013   4.018   0.861   0.193
 2998SOL     OW 9014   4.185   1.266   1.727
 2998SOL    HW1 9015   4.135   1.267   1.641
 2998SOL    HW2 9016   4.122   1.248   1.803
 2999SOL     OW 9017   3.926   0.285   1.498
 2999SOL    HW1 9018   3.846   0.345   1.485
 2999SOL    HW2 9019   3.916   0.236   1.584
 3000SOL     OW 9020   4.188   1.743   0.323
 3000SOL    HW1 9021   4.221   1.782   0.409
 3000SOL    HW2 9022   4.264   1.736   0.258
 3001SOL     OW 9023   3.973   1.785   1.241
 3001SOL    HW1 9024   4.030   1.720   1.291
 3001SOL    HW2 9025   3.957   1.752   1.148
 3002SOL     OW 9026   4.664   1.698   0.904
 3002SOL    HW1 9027   4.744   1.641   0.925
 3002SOL    HW2 9028   4.615   1.658   0.827
 3003SOL     OW 9029   4.106   0.700   0.480
 3003SOL    HW1 9030   4.151   0.610   0.477
 3003SOL    HW2 9031   4.012   0.689   0.513
 3004SOL     OW 9032   4.338   0.122   0.117
 3004SOL    HW1 9033   4.436   0.100   0.124
 3004SOL    HW2 9034   4.307   0.105   0.024
 3005SOL     OW 9035   4.505   0.264   1.749
 3005SOL    HW1 9036   4.572   0.203   1.792
 3005SOL    HW2 9037   4.432   0.283   1.814
 3006SOL     OW 9038   4.612   1.514   1.195
 3006SOL    HW1 9039   4.589   1.489   1.101
 3006SOL    HW2 9040   4.673   1.445   1.234
 3007SOL     OW 9041   4.527   1.402   0.924
 3007SOL    HW1 9042   4.617   1.416   0.882
 3007SOL    HW2 9043   4.456   1.404   0.853
 3008SOL     OW 9044   4.646   0.503   0.899
 3008SOL    HW1 9045   4.621   0.494   0.803
 3008SOL    HW2 9046   4.694   0.421   0.930
 3009SOL     OW 9047   4.263   0.064   0.512
 3009SOL    HW1 9048   4.182   0.065   0.570
 3009SOL    HW2 9049   4.266   0.147   0.457
 3010SOL     OW 9050   5.158   1.188   0.041
 3010SOL    HW1 9051   5.190   1.112   0.098
 3010SOL    HW2 9052   5.066   1.215   0.071
 3011SOL     OW 9053   4.021   0.035   0.171
 3011SOL    HW1 9054   4.070   0.119   0.150
 3011SOL    HW2 9055   4.083  -0.030   0.216
 3012SOL     OW 9056   4.659   0.236   0.480
 3012SOL    HW1 9057   4.611   0.277   0.402
 3012SOL    HW2 9058   4.758   0.234   0.461
 3013SOL     OW 9059   4.951   1.570   0.793
 3013SOL    HW1 9060   4.972   1.644   0.728
 3013SOL    HW2 9061   5.019   1.570   0.866
 3014SOL     OW 9062   4.183   1.152   0.741
 3014SOL    HW1 9063   4.112   1.125   0.806
 3014SOL    HW2 9064   4.157   1.124   0.648
 3015SOL     OW 9065   4.995   1.797   0.591
 3015SOL    HW1 9066   5.039   1.861   0.527
 3015SOL    HW2 9067   4.945   1.849   0.661
 3016SOL     OW 9068   4.756   0.549   0.016
 3016SOL    HW1 9069   4.715   0.631  -0.023
 3016SOL    HW2 9070   4.820   0.575   0.089
 3017SOL     OW 9071   3.802   0.556   1.386
 3017SOL    HW1 9072   3.894   0.555   1.345
 3017SOL    HW2 9073   3.796   0.630   1.453
 3018SOL     OW 9074   4.285   0.222   1.147
 3018SOL    HW1 9075   4.323   0.138   1.184
 3018SOL    HW2 9076   4.197   0.241   1.191
 3019SOL     OW 9077   4.590   0.454   0.642
 3019SOL    HW1 9078   4.558   0.526   0.580
 3019SOL    HW2 9079   4.614   0.373   0.589
 3020SOL     OW 9080   4.741   0.039   0.753
 3020SOL    HW1 9081   4.669   0.044   0.684
 3020SOL    HW2 9082   4.717  -0.030   0.822
 3021SOL     OW 9083   4.212   1.385   0.174
 3021SOL    HW1 9084   4.125   1.370   0.221
 3021SOL    HW2 9085   4.195   1.411   0.079
 3022SOL     OW 9086   4.251   0.256   0.328
 3022SOL    HW1 9087   4.278   0.197   0.253
 3022SOL    HW2 9088   4.251   0.351   0.297
 3023SOL     OW 9089   4.639   0.089   1.402
 3023SOL    HW1 9090   4.664   0.069   1.307
 3023SOL    HW2 9091   4.711   0.145   1.444
 3024SOL     OW 9092   4.704   1.116   1.719
 3024SOL    HW1 9093   4.605   1.122   1.729
 3024SOL    HW2 9094   4.727   1.036   1.663
 3025SOL     OW 9095   4.429   1.050   0.368
 3025SOL    HW1 9096   4.415   1.057   0.467
 3025SOL    HW2 9097   4.513   0.999   0.350
 3026SOL     OW 9098   4.134   0.813   1.251
 3026SOL    HW1 9099   4.220   0.825   1.301
 3026SOL    HW2 9100   4.092   0.726   1.278
 3027SOL     OW 9101   3.788   1.564   1.331
 3027SOL    HW1 9102   3.742   1.646   1.297
 3027SOL    HW2 9103   3.886   1.583   1.340
 3028SOL     OW 9104   4.091   1.100   0.501
 3028SOL    HW1 9105   4.084   1.183   0.445
 3028SOL    HW2 9106   4.095   1.020   0.441
 3029SOL     OW 9107   4.290   0.537   0.865
 3029SOL    HW1 9108   4.302   0.603   0.791
 3029SOL    HW2 9109   4.336   0.571   0.948
 3030SOL     OW 9110   4.976   1.348   0.388
 3030SOL    HW1 9111   5.026   1.425   0.428
 3030SOL    HW2 9112   4.881   1.350   0.420
 3031SOL     OW 9113   4.078   1.510   1.329
 3031SOL    HW1 9114   4.057   1.466   1.242
 3031SOL    HW2 9115   4.175   1.536   1.332
 3032SOL     OW 9116   4.126   0.751   1.598
 3032SOL    HW1 9117   4.194   0.806   1.551
 3032SOL    HW2 9118   4.166   0.663   1.625
 3033SOL     OW 9119   4.737   0.105   1.770
 3033SOL    HW1 9120   4.743   0.190   1.718
 3033SOL    HW2 9121   4.769   0.029   1.713
 3034SOL     OW 9122   4.228   0.050   1.740
 3034SOL    HW1 9123   4.186  -0.007   1.670
 3034SOL    HW2 9124   4.162   0.119   1.772
 3035SOL     OW 9125   4.297   0.870   1.029
 3035SOL    HW1 9126   4.341   0.959   1.020
 3035SOL    HW2 9127   4.234   0.870   1.106
 3036SOL     OW 9128   4.933   0.525   0.275
 3036SOL    HW1 9129   4.946   0.441   0.329
 3036SOL    HW2 9130   4.904   0.599   0.335
 3037SOL     OW 9131   4.031   0.213   1.231
 3037SOL    HW1 9132   4.008   0.250   1.321
 3037SOL    HW2 9133   4.001   0.118   1.225
 3038SOL     OW 9134   3.761   1.310   1.282
 3038SOL    HW1 9135   3.814   1.261   1.350
 3038SOL    HW2 9136   3.783   1.408   1.287
 3039SOL     OW 9137   4.456   0.634   1.064
 3039SOL    HW1 9138   4.515   0.608   0.988
 3039SOL    HW2 9139   4.428   0.730   1.053
 3040SOL     OW 9140   4.031   0.063   0.618
 3040SOL    HW1 9141   4.020   0.157   0.651
 3040SOL    HW2 9142   4.026   0.000   0.695
 3041SOL     OW 9143   4.747   0.766   0.966
 3041SOL    HW1 9144   4.762   0.787   1.062
 3041SOL    HW2 9145   4.717   0.671   0.957
 3042SOL     OW 9146   4.704   1.573   1.700
 3042SOL    HW1 9147   4.684   1.617   1.612
 3042SOL    HW2 9148   4.743   1.482   1.684
 3043SOL     OW 9149   4.074   0.898   1.804
 3043SOL    HW1 9150   4.150   0.942   1.852
 3043SOL    HW2 9151   4.109   0.851   1.722
 3044SOL     OW 9152   4.792   1.333   0.849
 3044SOL    HW1 9153   4.799   1.249   0.794
 3044SOL    HW2 9154   4.854   1.402   0.813
 3045SOL     OW 9155   4.043   0.810   0.949
 3045SOL    HW1 9156   4.136   0.846   0.954
 3045SOL    HW2 9157   4.037   0.725   1.001
 3046SOL     OW 9158   4.063   0.509   1.006
 3046SOL    HW1 9159   4.011   0.426   0.989
 3046SOL    HW2 9160   4.140   0.514   0.942
 3047SOL     OW 9161   4.862   0.380   1.678
 3047SOL    HW1 9162   4.817   0.443   1.742
 3047SOL    HW2 9163   4.955   0.411   1.661
 3048SOL     OW 9164   4.884   0.207   1.477
 3048SOL    HW1 9165   4.884   0.271   1.554
 3048SOL    HW2 9166   4.912   0.255   1.394
 3049SOL     OW 9167   3.732   1.326   0.200
 3049SOL    HW1 9168   3.639   1.347   0.169
 3049SOL    HW2 9169   3.742   1.227   0.213
 3050SOL     OW 9170   3.812   1.801   0.927
 3050SOL    HW1 9171   3.770   1.715   0.900
 3050SOL    HW2 9172   3.906   1.804   0.893
 3051SOL     OW 9173   4.228   1.568   0.910
 3051SOL    HW1 9174   4.294   1.642   0.919
 3051SOL    HW2 9175   4.272   1.489   0.868
 3052SOL     OW 9176   4.726   0.796   1.238
 3052SOL    HW1 9177   4.767   0.764   1.324
 3052SOL    HW2 9178   4.630   0.769   1.235
 3053SOL     OW 9179   3.764   0.544   1.114
 3053SOL    HW1 9180   3.849   0.511   1.073
 3053SOL    HW2 9181   3.777   0.559   1.212
 3054SOL     OW 9182   3.913   0.520   1.722
 3054SOL    HW1 9183   3.972   0.480   1.652
 3054SOL    HW2 9184   3.855   0.591   1.681
 3055SOL     OW 9185   4.539   0.572   0.325
 3055SOL    HW1 9186   4.546   0.483   0.279
 3055SOL    HW2 9187   4.445   0.606   0.317
 3056SOL     OW 9188   3.976   1.564   1.744
 3056SOL    HW1 9189   3.946   1.621   1.820
 3056SOL    HW2 9190   3.969   1.467   1.770
 3057SOL     OW 9191   4.395   0.464   1.269
 3057SOL    HW1 9192   4.361   0.375   1.239
 3057SOL    HW2 9193   4.421   0.518   1.189
 3058SOL     OW 9194   4.654   1.678   1.465
 3058SOL    HW1 9195   4.630   1.660   1.370
 3058SOL    HW2 9196   4.684   1.772   1.475
 3059SOL     OW 9197   4.197   0.500   0.191
 3059SOL    HW1 9198   4.258   0.580   0.195
 3059SOL    HW2 9199   4.102   0.531   0.198
 3060SOL     OW 9200   3.883   1.137   1.466
 3060SOL    HW1 9201   3.905   1.076   1.542
 3060SOL    HW2 9202   3.893   1.088   1.380
 3061SOL     OW 9203   5.026   0.855   0.309
 3061SOL    HW1 9204   4.940   0.824   0.351
 3061SOL    HW2 9205   5.022   0.841   0.210
 3062SOL     OW 9206   3.807   1.258   1.022
 3062SOL    HW1 9207   3.802   1.257   1.122
 3062SOL    HW2 9208   3.724   1.217   0.984
 3063SOL     OW 9209   4.412   1.662   1.716
 3063SOL    HW1 9210   4.356   1.743   1.725
 3063SOL    HW2 9211   4.464   1.666   1.630
 3064SOL     OW 9212   4.627   0.086   0.133
 3064SOL    HW1 9213   4.678   0.087   0.047
 3064SOL    HW2 9214   4.683   0.044   0.204
 3065SOL     OW 9215   3.854   1.794   1.851
 3065SOL    HW1 9216   3.813   1.720   1.904
 3065SOL    HW2 9217   3.918   1.845   1.909
 3066SOL     OW 9218   4.554   1.273   1.422
 3066SOL    HW1 9219   4.549   1.306   1.517
 3066SOL    HW2 9220   4.468   1.292   1.376
 3067SOL     OW 9221   4.396   1.616   0.154
 3067SOL    HW1 9222   4.405   1.626   0.055
 3067SOL    HW2 9223   4.356   1.527   0.175
 3068SOL     OW 9224   3.987   0.326   0.720
 3068SOL    HW1 9225   3.908   0.377   0.686
 3068SOL    HW2 9226   3.978   0.311   0.818
 3069SOL     OW 9227   4.546   1.002   1.372
 3069SOL    HW1 9228   4.586   1.001   1.280
 3069SOL    HW2 9229   4.556   1.094   1.412
 3070SOL     OW 9230   4.640   0.910   0.291
 3070SOL    HW1 9231   4.703   0.948   0.223
 3070SOL    HW2 9232   4.680   0.827   0.330
 3071SOL     OW 9233   4.096   1.288   1.490
 3071SOL    HW1 9234   4.083   1.381   1.456
 3071SOL    HW2 9235   4.012   1.236   1.477
 3072SOL     OW 9236   4.763   1.098   0.696
 3072SOL    HW1 9237   4.693   1.051   0.750
 3072SOL    HW2 9238   4.822   1.030   0.653
 3073SOL     OW 9239   4.738   0.236   0.971
 3073SOL    HW1 9240   4.730   0.200   0.878
 3073SOL    HW2 9241   4.736   0.160   1.036
 3074SOL     OW 9242   4.314   1.487   0.491
 3074SOL    HW1 9243   4.356   1.429   0.421
 3074SOL    HW2 9244   4.270   1.566   0.447
 3075SOL     OW 9245   3.979   1.348   0.290
 3075SOL    HW1 9246   3.883   1.349   0.263
 3075SOL    HW2 9247   3.991   1.401   0.374
 3076SOL     OW 9248   3.829   1.013   1.726
 3076SOL    HW1 9249   3.752   0.980   1.780
 3076SOL    HW2 9250   3.914   0.983   1.768
 3077SOL     OW 9251   4.396   0.203   1.489
 3077SOL    HW1 9252   4.486   0.187   1.449
 3077SOL    HW2 9253   4.404   0.208   1.588
 3078SOL     OW 9254   3.796   0.166   0.318
 3078SOL    HW1 9255   3.779   0.249   0.264
 3078SOL    HW2 9256   3.886   0.129   0.296
 3079SOL     OW 9257   4.337   0.842   1.431
 3079SOL    HW1 9258   4.393   0.923   1.414
 3079SOL    HW2 9259   4.396   0.762   1.434
 3080SOL     OW 9260   4.440   0.565   1.708
 3080SOL    HW1 9261   4.459   0.630   1.782
 3080SOL    HW2 9262   4.500   0.485   1.717
 3081SOL     OW 9263   4.114   1.741   1.560
 3081SOL    HW1 9264   4.023   1.782   1.558
 3081SOL    HW2 9265   4.107   1.647   1.592
 3082SOL     OW 9266   4.318   0.745   0.652
 3082SOL    HW1 9267   4.368   0.830   0.633
 3082SOL    HW2 9268   4.230   0.747   0.604
 3083SOL     OW 9269   4.583   1.374   0.016
 3083SOL    HW1 9270   4.537   1.389   0.104
 3083SOL    HW2 9271   4.627   1.459  -0.014
 3084SOL     OW 9272   4.385   1.790   0.953
 3084SOL    HW1 9273   4.339   1.878   0.940
 3084SOL    HW2 9274   4.484   1.802   0.946
 3085SOL     OW 9275   4.583   0.956   0.861
 3085SOL    HW1 9276   4.637   0.887   0.909
 3085SOL    HW2 9277   4.551   1.025   0.927
 3086SOL     OW 9278   4.807   0.984   0.087
 3086SOL    HW1 9279   4.784   1.037   0.005
 3086SOL    HW2 9280   4.888   0.928   0.068
 3087SOL     OW 9281   3.945   1.314   1.844
 3087SOL    HW1 9282   3.880   1.241   1.823
 3087SOL    HW2 9283   3.949   1.328   1.942
 3088SOL     OW 9284   3.803   1.240   0.653
 3088SOL    HW1 9285   3.802   1.193   0.741
 3088SOL    HW2 9286   3.885   1.212   0.602
 3089SOL     OW 9287   4.396   1.391   1.624
 3089SOL    HW1 9288   4.318   1.341   1.662
 3089SOL    HW2 9289   4.393   1.486   1.655
 3090SOL     OW 9290   4.152   0.424   0.520
 3090SOL    HW1 9291   4.182   0.352   0.458
 3090SOL    HW2 9292   4.113   0.384   0.603
 3091SOL     OW 9293   4.041   0.547   1.280
 3091SOL    HW1 9294   4.079   0.488   1.352
 3091SOL    HW2 9295   4.081   0.521   1.192
 3092SOL     OW 9296   4.536   1.586   0.687
 3092SOL    HW1 9297   4.568   1.596   0.593
 3092SOL    HW2 9298   4.457   1.524   0.689
 3093SOL     OW 9299   4.725   0.034   1.154
 3093SOL    HW1 9300   4.662  -0.038   1.123
 3093SOL    HW2 9301   4.818  -0.002   1.154
 3094SOL     OW 9302   4.494   1.330   0.301
 3094SOL    HW1 9303   4.448   1.243   0.318
 3094SOL    HW2 9304   4.585   1.327   0.342
 3095SOL     OW 9305   4.342   1.567   1.284
 3095SOL    HW1 9306   4.337   1.649   1.341
 3095SOL    HW2 9307   4.431   1.564   1.239
 3096SOL     OW 9308   3.763   1.077   0.300
 3096SOL    HW1 9309   3.862   1.066   0.291
 3096SOL    HW2 9310   3.723   0.991   0.332
 3097SOL     OW 9311   4.599   1.646   0.337
 3097SOL    HW1 9312   4.522   1.611   0.283
 3097SOL    HW2 9313   4.567   1.717   0.399
 3098SOL     OW 9314   3.954   0.628   1.975
 3098SOL    HW1 9315   3.861   0.626   2.012
 3098SOL    HW2 9316   3.955   0.589   1.883
 3099SOL     OW 9317   3.949   0.275   2.858
 3099SOL    HW1 9318   3.984   0.258   2.950
 3099SOL    HW2 9319   3.861   0.230   2.846
 3100SOL     OW 9320   3.743   0.368   2.509
 3100SOL    HW1 9321   3.661   0.411   2.548
 3100SOL    HW2 9322   3.715   0.295   2.446
 3101SOL     OW 9323   4.293   1.275   3.027
 3101SOL    HW1 9324   4.200   1.268   2.990
 3101SOL    HW2 9325   4.304   1.364   3.071
 3102SOL     OW 9326   4.492   1.144   2.885
 3102SOL    HW1 9327   4.414   1.161   2.945
 3102SOL    HW2 9328   4.526   1.231   2.849
 3103SOL     OW 9329   4.574   0.798   3.685
 3103SOL    HW1 9330   4.570   0.874   3.750
 3103SOL    HW2 9331   4.596   0.834   3.594
 3104SOL     OW 9332   4.409   1.012   2.527
 3104SOL    HW1 9333   4.478   0.996   2.597
 3104SOL    HW2 9334   4.336   1.069   2.565
 3105SOL     OW 9335   4.410   1.161   3.665
 3105SOL    HW1 9336   4.470   1.240   3.679
 3105SOL    HW2 9337   4.324   1.192   3.624
 3106SOL     OW 9338   4.059   1.435   2.923
 3106SOL    HW1 9339   3.981   1.404   2.870
 3106SOL    HW2 9340   4.117   1.493   2.866
 3107SOL     OW 9341   4.162   0.392   3.361
 3107SOL    HW1 9342   4.244   0.336   3.370
 3107SOL    HW2 9343   4.081   0.334   3.365
 3108SOL     OW 9344   3.955   1.713   2.345
 3108SOL    HW1 9345   3.989   1.790   2.399
 3108SOL    HW2 9346   3.999   1.713   2.255
 3109SOL     OW 9347   4.851   1.341   3.552
 3109SOL    HW1 9348   4.898   1.341   3.640
 3109SOL    HW2 9349   4.803   1.254   3.541
 3110SOL     OW 9350   3.954   1.434   2.400
 3110SOL    HW1 9351   3.928   1.530   2.400
 3110SOL    HW2 9352   3.883   1.380   2.445
 3111SOL     OW 9353   3.964   1.091   2.748
 3111SOL    HW1 9354   3.978   1.007   2.800
 3111SOL    HW2 9355   3.909   1.155   2.803
 3112SOL     OW 9356   4.344   1.786   3.301
 3112SOL    HW1 9357   4.252   1.769   3.336
 3112SOL    HW2 9358   4.372   1.878   3.327
 3113SOL     OW 9359   4.330   0.964   1.985
 3113SOL    HW1 9360   4.337   1.048   1.931
 3113SOL    HW2 9361   4.376   0.977   2.073
 3114SOL     OW 9362   3.846   0.643   2.425
 3114SOL    HW1 9363   3.801   0.555   2.442
 3114SOL    HW2 9364   3.845   0.697   2.509
 3115SOL     OW 9365   3.751   1.596   1.979
 3115SOL    HW1 9366   3.732   1.500   2.000
 3115SOL    HW2 9367   3.718   1.654   2.054
 3116SOL     OW 9368   3.837   0.737   3.459
 3116SOL    HW1 9369   3.925   0.724   3.504
 3116SOL    HW2 9370   3.824   0.834   3.437
 3117SOL     OW 9371   4.337   1.365   2.588
 3117SOL    HW1 9372   4.288   1.278   2.597
 3117SOL    HW2 9373   4.314   1.408   2.501
 3118SOL     OW 9374   4.533   0.004   2.364
 3118SOL    HW1 9375   4.573   0.095   2.355
 3118SOL    HW2 9376   4.433   0.012   2.370
 3119SOL     OW 9377   3.921   0.976   3.126
 3119SOL    HW1 9378   4.010   0.931   3.112
 3119SOL    HW2 9379   3.848   0.911   3.107
 3120SOL     OW 9380   4.041   0.251   3.663
 3120SOL    HW1 9381   4.112   0.322   3.669
 3120SOL    HW2 9382   3.953   0.290   3.691
 3121SOL     OW 9383   4.322   0.729   2.132
 3121SOL    HW1 9384   4.346   0.798   2.064
 3121SOL    HW2 9385   4.244   0.762   2.186
 3122SOL     OW 9386   4.531   0.605   3.327
 3122SOL    HW1 9387   4.484   0.602   3.416
 3122SOL    HW2 9388   4.480   0.550   3.261
 3123SOL     OW 9389   4.697   0.890   3.434
 3123SOL    HW1 9390   4.743   0.806   3.405
 3123SOL    HW2 9391   4.641   0.924   3.359
 3124SOL     OW 9392   4.715   0.410   3.104
 3124SOL    HW1 9393   4.638   0.444   3.158
 3124SOL    HW2 9394   4.681   0.359   3.025
 3125SOL     OW 9395   4.765   0.701   2.291
 3125SOL    HW1 9396   4.791   0.697   2.387
 3125SOL    HW2 9397   4.680   0.650   2.277
 3126SOL     OW 9398   3.800   0.811   2.651
 3126SOL    HW1 9399   3.899   0.799   2.660
 3126SOL    HW2 9400   3.776   0.906   2.672
 3127SOL     OW 9401   3.854   1.821   3.433
 3127SOL    HW1 9402   3.844   1.806   3.532
 3127SOL    HW2 9403   3.768   1.857   3.397
 3128SOL     OW 9404   4.589   0.348   2.057
 3128SOL    HW1 9405   4.648   0.411   2.008
 3128SOL    HW2 9406   4.608   0.254   2.028
 3129SOL     OW 9407   4.274   0.196   2.747
 3129SOL    HW1 9408   4.269   0.191   2.847
 3129SOL    HW2 9409   4.276   0.292   2.718
 3130SOL     OW 9410   4.732   1.456   2.339
 3130SOL    HW1 9411   4.686   1.528   2.287
 3130SOL    HW2 9412   4.728   1.476   2.437
 3131SOL     OW 9413   4.075   1.801   2.715
 3131SOL    HW1 9414   4.125   1.715   2.721
 3131SOL    HW2 9415   4.140   1.878   2.712
 3132SOL     OW 9416   4.045   0.943   2.104
 3132SOL    HW1 9417   4.127   0.982   2.062
 3132SOL    HW2 9418   4.018   0.861   2.055
 3133SOL     OW 9419   4.185   1.266   3.589
 3133SOL    HW1 9420   4.135   1.267   3.503
 3133SOL    HW2 9421   4.122   1.248   3.665
 3134SOL     OW 9422   3.926   0.285   3.360
 3134SOL    HW1 9423   3.846   0.345   3.347
 3134SOL    HW2 9424   3.916   0.236   3.446
 3135SOL     OW 9425   4.188   1.743   2.185
 3135SOL    HW1 9426   4.221   1.782   2.271
 3135SOL    HW2 9427   4.264   1.736   2.120
 3136SOL     OW 9428   3.973   1.785   3.103
 3136SOL    HW1 9429   4.030   1.720   3.153
 3136SOL    HW2 9430   3.957   1.752   3.010
 3137SOL     OW 9431   4.664   1.698   2.766
 3137SOL    HW1 9432   4.744   1.641   2.787
 3137SOL    HW2 9433   4.615   1.658   2.689
 3138SOL     OW 9434   4.106   0.700   2.342
 3138SOL    HW1 9435   4.151   0.610   2.339
 3138SOL    HW2 9436   4.012   0.689   2.375
 3139SOL     OW 9437   4.338   0.122   1.979
 3139SOL    HW1 9438   4.436   0.100   1.986
 3139SOL    HW2 9439   4.307   0.105   1.886
 3140SOL     OW 9440   4.505   0.264   3.611
 3140SOL    HW1 9441   4.572   0.203   3.654
 3140SOL    HW2 9442   4.432   0.283   3.676
 3141SOL     OW 9443   4.612   1.514   3.057
 3141SOL    HW1 9444   4.589   1.489   2.963
 3141SOL    HW2 9445   4.673   1.445   3.096
 3142SOL     OW 9446   4.527   1.402   2.786
 3142SOL    HW1 9447   4.617   1.416   2.744
 3142SOL    HW2 9448   4.456   1.404   2.715
 3143SOL     OW 9449   4.646   0.503   2.761
 3143SOL    HW1 9450   4.621   0.494   2.665
 3143SOL    HW2 9451   4.694   0.421   2.792
 3144SOL     OW 9452   4.263   0.064   2.374
 3144SOL    HW1 9453   4.182   0.065   2.432
 3144SOL    HW2 9454   4.266   0.147   2.319
 3145SOL     OW 9455   4.021   0.035   2.033
 3145SOL    HW1 9456   4.070   0.119   2.012
 3145SOL    HW2 9457   4.083  -0.030   2.078
 3146SOL     OW 9458   4.659   0.236   2.342
 3146SOL    HW1 9459   4.611   0.277   2.264
 3146SOL    HW2 9460   4.758   0.234   2.323
 3147SOL     OW 9461   4.951   1.570   2.655
 3147SOL    HW1 9462   4.972   1.644   2.590
 3147SOL    HW2 9463   5.019   1.570   2.728
 3148SOL     OW 9464   4.183   1.152   2.603
 3148SOL    HW1 9465   4.112   1.125   2.668
 3148SOL    HW2 9466   4.157   1.124   2.510
 3149SOL     OW 9467   4.995   1.797   2.453
 3149SOL    HW1 9468   5.039   1.861   2.389
 3149SOL    HW2 9469   4.945   1.849   2.523
 3150SOL     OW 9470   4.756   0.549   1.878
 3150SOL    HW1 9471   4.715   0.631   1.839
 3150SOL    HW2 9472   4.820   0.575   1.951
 3151SOL     OW 9473   3.802   0.556   3.248
 3151SOL    HW1 9474   3.894   0.555   3.207
 3151SOL    HW2 9475   3.796   0.630   3.315
 3152SOL     OW 9476   4.285   0.222   3.009
 3152SOL    HW1 9477   4.323   0.138   3.046
 3152SOL    HW2 9478   4.197   0.241   3.053
 3153SOL     OW 9479   4.590   0.454   2.504
 3153SOL    HW1 9480   4.558   0.526   2.442
 3153SOL    HW2 9481   4.614   0.373   2.451
 3154SOL     OW 9482   4.741   0.039   2.615
 3154SOL    HW1 9483   4.669   0.044   2.546
 3154SOL    HW2 9484   4.717  -0.030   2.684
 3155SOL     OW 9485   4.212   1.385   2.036
 3155SOL    HW1 9486   4.125   1.370   2.083
 3155SOL    HW2 9487   4.195   1.411   1.941
 3156SOL     OW 9488   4.251   0.256   2.190
 3156SOL    HW1 9489   4.278   0.197   2.115
 3156SOL    HW2 9490   4.251   0.351   2.159
 3157SOL     OW 9491   4.639   0.089   3.264
 3157SOL    HW1 9492   4.664   0.069   3.169
 3157SOL    HW2 9493   4.711   0.145   3.306
 3158SOL     OW 9494   4.704   1.116   3.581
 3158SOL    HW1 9495   4.605   1.122   3.591
 3158SOL    HW2 9496   4.727   1.036   3.525
 3159SOL     OW 9497   4.429   1.050   2.230
 3159SOL    HW1 9498   4.415   1.057   2.329
 3159SOL    HW2 9499   4.513   0.999   2.212
 3160SOL     OW 9500   4.134   0.813   3.113
 3160SOL    HW1 9501   4.220   0.825   3.163
 3160SOL    HW2 9502   4.092   0.726   3.140
 3161SOL     OW 9503   3.788   1.564   3.193
 3161SOL    HW1 9504   3.742   1.646   3.159
 3161SOL    HW2 9505   3.886   1.583   3.202
 3162SOL     OW 9506   4.091   1.100   2.363
 3162SOL    HW1 9507   4.084   1.183   2.307
 3162SOL    HW2 9508   4.095   1.020   2.303
 3163SOL     OW 9509   4.290   0.537   2.727
 3163SOL    HW1 9510   4.302   0.603   2.653
 3163SOL    HW2 9511   4.336   0.571   2.810
 3164SOL     OW 9512   4.976   1.348   2.250
 3164SOL    HW1 9513   5.026   1.425   2.290
 3164SOL    HW2 9514   4.881   1.350   2.282
 3165SOL     OW 9515   4.078   1.510   3.191
 3165SOL    HW1 9516   4.057   1.466   3.104
 3165SOL    HW2 9517   4.175   1.536   3.194
 3166SOL     OW 9518   4.126   0.751   3.460
 3166SOL    HW1 9519   4.194   0.806   3.413
 3166SOL    HW2 9520   4.166   0.663   3.487
 3167SOL     OW 9521   4.737   0.105   3.632
 3167SOL    HW1 9522   4.743   0.190   3.580
 3167SOL    HW2 9523   4.769   0.029   3.575
 3168SOL     OW 9524   4.228   0.050   3.602
 3168SOL    HW1 9525   4.186  -0.007   3.532
 3168SOL    HW2 9526   4.162   0.119   3.634
 3169SOL     OW 9527   4.297   0.870   2.891
 3169SOL    HW1 9528   4.341   0.959   2.882
 3169SOL    HW2 9529   4.234   0.870   2.968
 3170SOL     OW 9530   4.933   0.525   2.137
 3170SOL    HW1 9531   4.946   0.441   2.191
 3170SOL    HW2 9532   4.904   0.599   2.197
 3171SOL     OW 9533   4.031   0.213   3.093
 3171SOL    HW1 9534   4.008   0.250   3.183
 3171SOL    HW2 9535   4.001   0.118   3.087
 3172SOL     OW 9536   3.761   1.310   3.144
 3172SOL    HW1 9537   3.814   1.261   3.212
 3172SOL    HW2 9538   3.783   1.408   3.149
 3173SOL     OW 9539   4.456   0.634   2.926
 3173SOL    HW1 9540   4.515   0.608   2.850
 3173SOL    HW2 9541   4.428   0.730   2.915
 3174SOL     OW 9542   4.031   0.063   2.480
 3174SOL    HW1 9543   4.020   0.157   2.513
 3174SOL    HW2 9544   4.026   0.000   2.557
 3175SOL     OW 9545   4.747   0.766   2.828
 3175SOL    HW1 9546   4.762   0.787   2.924
 3175SOL    HW2 9547   4.717   0.671   2.819
 3176SOL     OW 9548   4.704   1.573   3.562
 3176SOL    HW1 9549   4.684   1.617   3.474
 3176SOL    HW2 9550   4.743   1.482   3.546
 3177SOL     OW 9551   4.074   0.898   3.666
 3177SOL    HW1 9552   4.150   0.942   3.714
 3177SOL    HW2 9553   4.109   0.851   3.584
 3178SOL     OW 9554   5.027   0.838   1.904
 3178SOL    HW1 9555   5.061   0.745   1.919
 3178SOL    HW2 9556   5.045   0.865   1.809
 3179SOL     OW 9557   4.792   1.333   2.711
 3179SOL    HW1 9558   4.799   1.249   2.656
 3179SOL    HW2 9559   4.854   1.402   2.675
 3180SOL     OW 9560   4.043   0.810   2.811
 3180SOL    HW1 9561   4.136   0.846   2.816
 3180SOL    HW2 9562   4.037   0.725   2.863
 3181SOL     OW 9563   4.063   0.509   2.868
 3181SOL    HW1 9564   4.011   0.426   2.851
 3181SOL    HW2 9565   4.140   0.514   2.804
 3182SOL     OW 9566   4.862   0.380   3.540
 3182SOL    HW1 9567   4.817   0.443   3.604
 3182SOL    HW2 9568   4.955   0.411   3.523
 3183SOL     OW 9569   4.884   0.207   3.339
 3183SOL    HW1 9570   4.884   0.271   3.416
 3183SOL    HW2 9571   4.912   0.255   3.256
 3184SOL     OW 9572   3.732   1.326   2.062
 3184SOL    HW1 9573   3.639   1.347   2.031
 3184SOL    HW2 9574   3.742   1.227   2.075
 3185SOL     OW 9575   3.812   1.801   2.789
 3185SOL    HW1 9576   3.770   1.715   2.762
 3185SOL    HW2 9577   3.906   1.804   2.755
 3186SOL     OW 9578   4.228   1.568   2.772
 3186SOL    HW1 9579   4.294   1.642   2.781
 3186SOL    HW2 9580   4.272   1.489   2.730
 3187SOL     OW 9581   4.726   0.796   3.100
 3187SOL    HW1 9582   4.767   0.764   3.186
 3187SOL    HW2 9583   4.630   0.769   3.097
 3188SOL     OW 9584   3.764   0.544   2.976
 3188SOL    HW1 9585   3.849   0.511   2.935
 3188SOL    HW2 9586   3.777   0.559   3.074
 3189SOL     OW 9587   3.913   0.520   3.584
 3189SOL    HW1 9588   3.972   0.480   3.514
 3189SOL    HW2 9589   3.855   0.591   3.543
 3190SOL     OW 9590   4.539   0.572   2.187
 3190SOL    HW1 9591   4.546   0.483   2.141
 3190SOL    HW2 9592   4.445   0.606   2.179
 3191SOL     OW 9593   3.976   1.564   3.606
 3191SOL    HW1 9594   3.946   1.621   3.682
 3191SOL    HW2 9595   3.969   1.467   3.632
 3192SOL     OW 9596   4.395   0.464   3.131
 3192SOL    HW1 9597   4.361   0.375   3.101
 3192SOL    HW2 9598   4.421   0.518   3.051
 3193SOL     OW 9599   4.654   1.678   3.327
 3193SOL    HW1 9600   4.630   1.660   3.232
 3193SOL    HW2 9601   4.684   1.772   3.337
 3194SOL     OW 9602   4.197   0.500   2.053
 3194SOL    HW1 9603   4.258   0.580   2.057
 3194SOL    HW2 9604   4.102   0.531   2.060
 3195SOL     OW 9605   3.883   1.137   3.328
 3195SOL    HW1 9606   3.905   1.076   3.404
 3195SOL    HW2 9607   3.893   1.088   3.242
 3196SOL     OW 9608   5.026   0.855   2.171
 3196SOL    HW1 9609   4.940   0.824   2.213
 3196SOL    HW2 9610   5.022   0.841   2.072
 3197SOL     OW 9611   3.807   1.258   2.884
 3197SOL    HW1 9612   3.802   1.257   2.984
 3197SOL    HW2 9613   3.724   1.217   2.846
 3198SOL     OW 9614   4.412   1.662   3.578
 3198SOL    HW1 9615   4.356   1.743   3.587
 3198SOL    HW2 9616   4.464   1.666   3.492
 3199SOL     OW 9617   3.854   1.794   3.713
 3199SOL    HW1 9618   3.813   1.720   3.766
 3199SOL    HW2 9619   3.918   1.845   3.771
 3200SOL     OW 9620   4.554   1.273   3.284
 3200SOL    HW1 9621   4.549   1.306   3.379
 3200SOL    HW2 9622   4.468   1.292   3.238
 3201SOL     OW 9623   4.396   1.616   2.016
 3201SOL    HW1 9624   4.405   1.626   1.917
 3201SOL    HW2 9625   4.356   1.527   2.037
 3202SOL     OW 9626   3.987   0.326   2.582
 3202SOL    HW1 9627   3.908   0.377   2.548
 3202SOL    HW2 9628   3.978   0.311   2.680
 3203SOL     OW 9629   4.546   1.002   3.234
 3203SOL    HW1 9630   4.586   1.001   3.142
 3203SOL    HW2 9631   4.556   1.094   3.274
 3204SOL     OW 9632   4.640   0.910   2.153
 3204SOL    HW1 9633   4.703   0.948   2.085
 3204SOL    HW2 9634   4.680   0.827   2.192
 3205SOL     OW 9635   4.096   1.288   3.352
 3205SOL    HW1 9636   4.083   1.381   3.318
 3205SOL    HW2 9637   4.012   1.236   3.339
 3206SOL     OW 9638   4.763   1.098   2.558
 3206SOL    HW1 9639   4.693   1.051   2.612
 3206SOL    HW2 9640   4.822   1.030   2.515
 3207SOL     OW 9641   4.738   0.236   2.833
 3207SOL    HW1 9642   4.730   0.200   2.740
 3207SOL    HW2 9643   4.736   0.160   2.898
 3208SOL     OW 9644   4.314   1.487   2.353
 3208SOL    HW1 9645   4.356   1.429   2.283
 3208SOL    HW2 9646   4.270   1.566   2.309
 3209SOL     OW 9647   3.979   1.348   2.152
 3209SOL    HW1 9648   3.883   1.349   2.125
 3209SOL    HW2 9649   3.991   1.401   2.236
 3210SOL     OW 9650   3.829   1.013   3.588
 3210SOL    HW1 9651   3.752   0.980   3.642
 3210SOL    HW2 9652   3.914   0.983   3.630
 3211SOL     OW 9653   4.396   0.203   3.351
 3211SOL    HW1 9654   4.486   0.187   3.311
 3211SOL    HW2 9655   4.404   0.208   3.450
 3212SOL     OW 9656   3.799   0.345   1.895
 3212SOL    HW1 9657   3.707   0.317   1.866
 3212SOL    HW2 9658   3.830   0.422   1.839
 3213SOL     OW 9659   3.796   0.166   2.180
 3213SOL    HW1 9660   3.779   0.249   2.126
 3213SOL    HW2 9661   3.886   0.129   2.158
 3214SOL     OW 9662   4.337   0.842   3.293
 3214SOL    HW1 9663   4.393   0.923   3.276
 3214SOL    HW2 9664   4.396   0.762   3.296
 3215SOL     OW 9665   4.440   0.565   3.570
 3215SOL    HW1 9666   4.459   0.630   3.644
 3215SOL    HW2 9667   4.500   0.485   3.579
 3216SOL     OW 9668   4.114   1.741   3.422
 3216SOL    HW1 9669   4.023   1.782   3.420
 3216SOL    HW2 9670   4.107   1.647   3.454
 3217SOL     OW 9671   4.318   0.745   2.514
 3217SOL    HW1 9672   4.368   0.830   2.495
 3217SOL    HW2 9673   4.230   0.747   2.466
 3218SOL     OW 9674   4.583   1.374   1.878
 3218SOL    HW1 9675   4.537   1.389   1.966
 3218SOL    HW2 9676   4.627   1.459   1.848
 3219SOL     OW 9677   4.385   1.790   2.815
 3219SOL    HW1 9678   4.339   1.878   2.802
 3219SOL    HW2 9679   4.484   1.802   2.808
 3220SOL     OW 9680   4.583   0.956   2.723
 3220SOL    HW1 9681   4.637   0.887   2.771
 3220SOL    HW2 9682   4.551   1.025   2.789
 3221SOL     OW 9683   4.807   0.984   1.949
 3221SOL    HW1 9684   4.784   1.037   1.867
 3221SOL    HW2 9685   4.888   0.928   1.930
 3222SOL     OW 9686   3.945   1.314   3.706
 3222SOL    HW1 9687   3.880   1.241   3.685
 3222SOL    HW2 9688   3.949   1.328   3.804
 3223SOL     OW 9689   3.803   1.240   2.515
 3223SOL    HW1 9690   3.802   1.193   2.603
 3223SOL    HW2 9691   3.885   1.212   2.464
 3224SOL     OW 9692   4.396   1.391   3.486
 3224SOL    HW1 9693   4.318   1.341   3.524
 3224SOL    HW2 9694   4.393   1.486   3.517
 3225SOL     OW 9695   4.152   0.424   2.382
 3225SOL    HW1 9696   4.182   0.352   2.320
 3225SOL    HW2 9697   4.113   0.384   2.465
 3226SOL     OW 9698   4.041   0.547   3.142
 3226SOL    HW1 9699   4.079   0.488   3.214
 3226SOL    HW2 9700   4.081   0.521   3.054
 3227SOL     OW 9701   4.536   1.586   2.549
 3227SOL    HW1 9702   4.568   1.596   2.455
 3227SOL    HW2 9703   4.457   1.524   2.551
 3228SOL     OW 9704   4.725   0.034   3.016
 3228SOL    HW1 9705   4.662  -0.038   2.985
 3228SOL    HW2 9706   4.818  -0.002   3.016
 3229SOL     OW 9707   4.494   1.330   2.163
 3229SOL    HW1 9708   4.448   1.243   2.180
 3229SOL    HW2 9709   4.585   1.327   2.204
 3230SOL     OW 9710   4.342   1.567   3.146
 3230SOL    HW1 9711   4.337   1.649   3.203
 3230SOL    HW2 9712   4.431   1.564   3.101
 3231SOL     OW 9713   3.763   1.077   2.162
 3231SOL    HW1 9714   3.862   1.066   2.153
 3231SOL    HW2 9715   3.723   0.991   2.194
 3232SOL     OW 9716   4.599   1.646   2.199
 3232SOL    HW1 9717   4.522   1.611   2.145
 3232SOL    HW2 9718   4.567   1.717   2.261
 3233SOL     OW 9719   3.954   0.628   3.837
 3233SOL    HW1 9720   3.861   0.626   3.874
 3233SOL    HW2 9721   3.955   0.589   3.745
 3234SOL     OW 9722   3.949   0.275   4.720
 3234SOL    HW1 9723   3.984   0.258   4.812
 3234SOL    HW2 9724   3.861   0.230   4.708
 3235SOL     OW 9725   3.743   0.368   4.371
 3235SOL    HW1 9726   3.661   0.411   4.410
 3235SOL    HW2 9727   3.715   0.295   4.308
 3236SOL     OW 9728   4.293   1.275   4.889
 3236SOL    HW1 9729   4.200   1.268   4.852
 3236SOL    HW2 9730   4.304   1.364   4.933
 3237SOL     OW 9731   4.492   1.144   4.747
 3237SOL    HW1 9732   4.414   1.161   4.807
 3237SOL    HW2 9733   4.526   1.231   4.711
 3238SOL     OW 9734   4.409   1.012   4.389
 3238SOL    HW1 9735   4.478   0.996   4.459
 3238SOL    HW2 9736   4.336   1.069   4.427
 3239SOL     OW 9737   4.059   1.435   4.785
 3239SOL    HW1 9738   3.981   1.404   4.732
 3239SOL    HW2 9739   4.117   1.493   4.728
 3240SOL     OW 9740   3.955   1.713   4.207
 3240SOL    HW1 9741   3.989   1.790   4.261
 3240SOL    HW2 9742   3.999   1.713   4.117
 3241SOL     OW 9743   3.954   1.434   4.262
 3241SOL    HW1 9744   3.928   1.530   4.262
 3241SOL    HW2 9745   3.883   1.380   4.307
 3242SOL     OW 9746   3.964   1.091   4.610
 3242SOL    HW1 9747   3.978   1.007   4.662
 3242SOL    HW2 9748   3.909   1.155   4.665
 3243SOL     OW 9749   4.330   0.964   3.847
 3243SOL    HW1 9750   4.337   1.048   3.793
 3243SOL    HW2 9751   4.376   0.977   3.935
 3244SOL     OW 9752   3.846   0.643   4.287
 3244SOL    HW1 9753   3.801   0.555   4.304
 3244SOL    HW2 9754   3.845   0.697   4.371
 3245SOL     OW 9755   3.751   1.596   3.841
 3245SOL    HW1 9756   3.732   1.500   3.862
 3245SOL    HW2 9757   3.718   1.654   3.916
 3246SOL     OW 9758   4.337   1.365   4.450
 3246SOL    HW1 9759   4.288   1.278   4.459
 3246SOL    HW2 9760   4.314   1.408   4.363
 3247SOL     OW 9761   4.533   0.004   4.226
 3247SOL    HW1 9762   4.573   0.095   4.217
 3247SOL    HW2 9763   4.433   0.012   4.232
 3248SOL     OW 9764   3.921   0.976   4.988
 3248SOL    HW1 9765   4.010   0.931   4.974
 3248SOL    HW2 9766   3.848   0.911   4.969
 3249SOL     OW 9767   4.322   0.729   3.994
 3249SOL    HW1 9768   4.346   0.798   3.926
 3249SOL    HW2 9769   4.244   0.762   4.048
 3250SOL     OW 9770   4.765   0.701   4.153
 3250SOL    HW1 9771   4.791   0.697   4.249
 3250SOL    HW2 9772   4.680   0.650   4.139
 3251SOL     OW 9773   3.800   0.811   4.513
 3251SOL    HW1 9774   3.899   0.799   4.522
 3251SOL    HW2 9775   3.776   0.906   4.534
 3252SOL     OW 9776   4.589   0.348   3.919
 3252SOL    HW1 9777   4.648   0.411   3.870
 3252SOL    HW2 9778   4.608   0.254   3.890
 3253SOL     OW 9779   4.274   0.196   4.609
 3253SOL    HW1 9780   4.269   0.191   4.709
 3253SOL    HW2 9781   4.276   0.292   4.580
 3254SOL     OW 9782   4.732   1.456   4.201
 3254SOL    HW1 9783   4.686   1.528   4.149
 3254SOL    HW2 9784   4.728   1.476   4.299
 3255SOL     OW 9785   4.075   1.801   4.577
 3255SOL    HW1 9786   4.125   1.715   4.583
 3255SOL    HW2 9787   4.140   1.878   4.574
 3256SOL     OW 9788   4.045   0.943   3.966
 3256SOL    HW1 9789   4.127   0.982   3.924
 3256SOL    HW2 9790   4.018   0.861   3.917
 3257SOL     OW 9791   4.188   1.743   4.047
 3257SOL    HW1 9792   4.221   1.782   4.133
 3257SOL    HW2 9793   4.264   1.736   3.982
 3258SOL     OW 9794   3.973   1.785   4.965
 3258SOL    HW1 9795   4.030   1.720   5.015
 3258SOL    HW2 9796   3.957   1.752   4.872
 3259SOL     OW 9797   4.664   1.698   4.628
 3259SOL    HW1 9798   4.744   1.641   4.649
 3259SOL    HW2 9799   4.615   1.658   4.551
 3260SOL     OW 9800   4.106   0.700   4.204
 3260SOL    HW1 9801   4.151   0.610   4.201
 3260SOL    HW2 9802   4.012   0.689   4.237
 3261SOL     OW 9803   4.338   0.122   3.841
 3261SOL    HW1 9804   4.436   0.100   3.848
 3261SOL    HW2 9805   4.307   0.105   3.748
 3262SOL     OW 9806   4.527   1.402   4.648
 3262SOL    HW1 9807   4.617   1.416   4.606
 3262SOL    HW2 9808   4.456   1.404   4.577
 3263SOL     OW 9809   4.646   0.503   4.623
 3263SOL    HW1 9810   4.621   0.494   4.527
 3263SOL    HW2 9811   4.694   0.421   4.654
 3264SOL     OW 9812   4.263   0.064   4.236
 3264SOL    HW1 9813   4.182   0.065   4.294
 3264SOL    HW2 9814   4.266   0.147   4.181
 3265SOL     OW 9815   4.021   0.035   3.895
 3265SOL    HW1 9816   4.070   0.119   3.874
 3265SOL    HW2 9817   4.083  -0.030   3.940
 3266SOL     OW 9818   4.659   0.236   4.204
 3266SOL    HW1 9819   4.611   0.277   4.126
 3266SOL    HW2 9820   4.758   0.234   4.185
 3267SOL     OW 9821   4.951   1.570   4.517
 3267SOL    HW1 9822   4.972   1.644   4.452
 3267SOL    HW2 9823   5.019   1.570   4.590
 3268SOL     OW 9824   4.183   1.152   4.465
 3268SOL    HW1 9825   4.112   1.125   4.530
 3268SOL    HW2 9826   4.157   1.124   4.372
 3269SOL     OW 9827   4.995   1.797   4.315
 3269SOL    HW1 9828   5.039   1.861   4.251
 3269SOL    HW2 9829   4.945   1.849   4.385
 3270SOL     OW 9830   4.756   0.549   3.740
 3270SOL    HW1 9831   4.715   0.631   3.701
 3270SOL    HW2 9832   4.820   0.575   3.813
 3271SOL     OW 9833   4.590   0.454   4.366
 3271SOL    HW1 9834   4.558   0.526   4.304
 3271SOL    HW2 9835   4.614   0.373   4.313
 3272SOL     OW 9836   4.741   0.039   4.477
 3272SOL    HW1 9837   4.669   0.044   4.408
 3272SOL    HW2 9838   4.717  -0.030   4.546
 3273SOL     OW 9839   4.212   1.385   3.898
 3273SOL    HW1 9840   4.125   1.370   3.945
 3273SOL    HW2 9841   4.195   1.411   3.803
 3274SOL     OW 9842   4.251   0.256   4.052
 3274SOL    HW1 9843   4.278   0.197   3.977
 3274SOL    HW2 9844   4.251   0.351   4.021
 3275SOL     OW 9845   4.429   1.050   4.092
 3275SOL    HW1 9846   4.415   1.057   4.191
 3275SOL    HW2 9847   4.513   0.999   4.074
 3276SOL     OW 9848   4.134   0.813   4.975
 3276SOL    HW1 9849   4.220   0.825   5.025
 3276SOL    HW2 9850   4.092   0.726   5.002
 3277SOL     OW 9851   4.091   1.100   4.225
 3277SOL    HW1 9852   4.084   1.183   4.169
 3277SOL    HW2 9853   4.095   1.020   4.165
 3278SOL     OW 9854   4.290   0.537   4.589
 3278SOL    HW1 9855   4.302   0.603   4.515
 3278SOL    HW2 9856   4.336   0.571   4.672
 3279SOL     OW 9857   4.976   1.348   4.112
 3279SOL    HW1 9858   5.026   1.425   4.152
 3279SOL    HW2 9859   4.881   1.350   4.144
 3280SOL     OW 9860   4.996   1.445   4.866
 3280SOL    HW1 9861   5.043   1.458   4.953
 3280SOL    HW2 9862   4.930   1.371   4.875
 3281SOL     OW 9863   4.078   1.510   5.053
 3281SOL    HW1 9864   4.057   1.466   4.966
 3281SOL    HW2 9865   4.175   1.536   5.056
 3282SOL     OW 9866   4.297   0.870   4.753
 3282SOL    HW1 9867   4.341   0.959   4.744
 3282SOL    HW2 9868   4.234   0.870   4.830
 3283SOL     OW 9869   4.933   0.525   3.999
 3283SOL    HW1 9870   4.946   0.441   4.053
 3283SOL    HW2 9871   4.904   0.599   4.059
 3284SOL     OW 9872   4.031   0.213   4.955
 3284SOL    HW1 9873   4.008   0.250   5.045
 3284SOL    HW2 9874   4.001   0.118   4.949
 3285SOL     OW 9875   4.456   0.634   4.788
 3285SOL    HW1 9876   4.515   0.608   4.712
 3285SOL    HW2 9877   4.428   0.730   4.777
 3286SOL     OW 9878   4.031   0.063   4.342
 3286SOL    HW1 9879   4.020   0.157   4.375
 3286SOL    HW2 9880   4.026   0.000   4.419
 3287SOL     OW 9881   4.747   0.766   4.690
 3287SOL    HW1 9882   4.762   0.787   4.786
 3287SOL    HW2 9883   4.717   0.671   4.681
 3288SOL     OW 9884   5.027   0.838   3.766
 3288SOL    HW1 9885   5.061   0.745   3.781
 3288SOL    HW2 9886   5.045   0.865   3.671
 3289SOL     OW 9887   4.792   1.333   4.573
 3289SOL    HW1 9888   4.799   1.249   4.518
 3289SOL    HW2 9889   4.854   1.402   4.537
 3290SOL     OW 9890   4.043   0.810   4.673
 3290SOL    HW1 9891   4.136   0.846   4.678
 3290SOL    HW2 9892   4.037   0.725   4.725
 3291SOL     OW 9893   4.063   0.509   4.730
 3291SOL    HW1 9894   4.011   0.426   4.713
 3291SOL    HW2 9895   4.140   0.514   4.666
 3292SOL     OW 9896   3.732   1.326   3.924
 3292SOL    HW1 9897   3.639   1.347   3.893
 3292SOL    HW2 9898   3.742   1.227   3.937
 3293SOL     OW 9899   3.812   1.801   4.651
 3293SOL    HW1 9900   3.770   1.715   4.624
 3293SOL    HW2 9901   3.906   1.804   4.617
 3294SOL     OW 9902   4.228   1.568   4.634
 3294SOL    HW1 9903   4.294   1.642   4.643
 3294SOL    HW2 9904   4.272   1.489   4.592
 3295SOL     OW 9905   4.726   0.796   4.962
 3295SOL    HW1 9906   4.767   0.764   5.048
 3295SOL    HW2 9907   4.630   0.769   4.959
 3296SOL     OW 9908   3.764   0.544   4.838
 3296SOL    HW1 9909   3.849   0.511   4.797
 3296SOL    HW2 9910   3.777   0.559   4.936
 3297SOL     OW 9911   4.539   0.572   4.049
 3297SOL    HW1 9912   4.546   0.483   4.003
 3297SOL    HW2 9913   4.445   0.606   4.041
 3298SOL     OW 9914   4.395   0.464   4.993
 3298SOL    HW1 9915   4.361   0.375   4.963
 3298SOL    HW2 9916   4.421   0.518   4.913
 3299SOL     OW 9917   4.197   0.500   3.915
 3299SOL    HW1 9918   4.258   0.580   3.919
 3299SOL    HW2 9919   4.102   0.531   3.922
 3300SOL     OW 9920   5.026   0.855   4.033
 3300SOL    HW1 9921   4.940   0.824   4.075
 3300SOL    HW2 9922   5.022   0.841   3.934
 3301SOL     OW 9923   3.807   1.258   4.746
 3301SOL    HW1 9924   3.802   1.257   4.846
 3301SOL    HW2 9925   3.724   1.217   4.708
 3302SOL     OW 9926   4.396   1.616   3.878
 3302SOL    HW1 9927   4.405   1.626   3.779
 3302SOL    HW2 9928   4.356   1.527   3.899
 3303SOL     OW 9929   3.987   0.326   4.444
 3303SOL    HW1 9930   3.908   0.377   4.410
 3303SOL    HW2 9931   3.978   0.311   4.542
 3304SOL     OW 9932   4.546   1.002   5.096
 3304SOL    HW1 9933   4.586   1.001   5.004
 3304SOL    HW2 9934   4.556   1.094   5.136
 3305SOL     OW 9935   4.640   0.910   4.015
 3305SOL    HW1 9936   4.703   0.948   3.947
 3305SOL    HW2 9937   4.680   0.827   4.054
 3306SOL     OW 9938   4.763   1.098   4.420
 3306SOL    HW1 9939   4.693   1.051   4.474
 3306SOL    HW2 9940   4.822   1.030   4.377
 3307SOL     OW 9941   4.738   0.236   4.695
 3307SOL    HW1 9942   4.730   0.200   4.602
 3307SOL    HW2 9943   4.736   0.160   4.760
 3308SOL     OW 9944   4.314   1.487   4.215
 3308SOL    HW1 9945   4.356   1.429   4.145
 3308SOL    HW2 9946   4.270   1.566   4.171
 3309SOL     OW 9947   3.979   1.348   4.014
 3309SOL    HW1 9948   3.883   1.349   3.987
 3309SOL    HW2 9949   3.991   1.401   4.098
 3310SOL     OW 9950   3.799   0.345   3.757
 3310SOL    HW1 9951   3.707   0.317   3.728
 3310SOL    HW2 9952   3.830   0.422   3.701
 3311SOL     OW 9953   3.796   0.166   4.042
 3311SOL    HW1 9954   3.779   0.249   3.988
 3311SOL    HW2 9955   3.886   0.129   4.020
 3312SOL     OW 9956   4.318   0.745   4.376
 3312SOL    HW1 9957   4.368   0.830   4.357
 3312SOL    HW2 9958   4.230   0.747   4.328
 3313SOL     OW 9959   4.583   1.374   3.740
 3313SOL    HW1 9960   4.537   1.389   3.828
 3313SOL    HW2 9961   4.627   1.459   3.710
 3314SOL     OW 9962   4.385   1.790   4.677
 3314SOL    HW1 9963   4.339   1.878   4.664
 3314SOL    HW2 9964   4.484   1.802   4.670
 3315SOL     OW 9965   4.583   0.956   4.585
 3315SOL    HW1 9966   4.637   0.887   4.633
 3315SOL    HW2 9967   4.551   1.025   4.651
 3316SOL     OW 9968   4.807   0.984   3.811
 3316SOL    HW1 9969   4.784   1.037   3.729
 3316SOL    HW2 9970   4.888   0.928   3.792
 3317SOL     OW 9971   3.803   1.240   4.377
 3317SOL    HW1 9972   3.802   1.193   4.465
 3317SOL    HW2 9973   3.885   1.212   4.326
 3318SOL     OW 9974   4.152   0.424   4.244
 3318SOL    HW1 9975   4.182   0.352   4.182
 3318SOL    HW2 9976   4.113   0.384   4.327
 3319SOL     OW 9977   4.536   1.586   4.411
 3319SOL    HW1 9978   4.568   1.596   4.317
 3319SOL    HW2 9979   4.457   1.524   4.413
 3320SOL     OW 9980   4.494   1.330   4.025
 3320SOL    HW1 9981   4.448   1.243   4.042
 3320SOL    HW2 9982   4.585   1.327   4.066
 3321SOL     OW 9983   3.763   1.077   4.024
 3321SOL    HW1 9984   3.862   1.066   4.015
 3321SOL    HW2 9985   3.723   0.991   4.056
 3322SOL     OW 9986   4.599   1.646   4.061
 3322SOL    HW1 9987   4.522   1.611   4.007
 3322SOL    HW2 9988   4.567   1.717   4.123
 3323SOL     OW 9989   3.954   2.490   0.113
 3323SOL    HW1 9990   3.861   2.488   0.150
 3323SOL    HW2 9991   3.955   2.451   0.021
 3324SOL     OW 9992   3.949   2.137   0.996
 3324SOL    HW1 9993   3.984   2.120   1.088
 3324SOL    HW2 9994   3.861   2.092   0.984
 3325SOL     OW 9995   3.743   2.230   0.647
 3325SOL    HW1 9996   3.661   2.273   0.686
 3325SOL    HW2 9997   3.715   2.157   0.584
 3326SOL     OW 9998   4.293   3.137   1.165
 3326SOL    HW1 9999   4.200   3.130   1.128
 3326SOL    HW210000   4.304   3.226   1.209
 3327SOL     OW10001   4.492   3.006   1.023
 3327SOL    HW110002   4.414   3.023   1.083
 3327SOL    HW210003   4.526   3.093   0.987
 3328SOL     OW10004   4.574   2.660   1.823
 3328SOL    HW110005   4.570   2.736   1.888
 3328SOL    HW210006   4.596   2.696   1.732
 3329SOL     OW10007   4.409   2.874   0.665
 3329SOL    HW110008   4.478   2.858   0.735
 3329SOL    HW210009   4.336   2.931   0.703
 3330SOL     OW10010   4.410   3.023   1.803
 3330SOL    HW110011   4.470   3.102   1.817
 3330SOL    HW210012   4.324   3.054   1.762
 3331SOL     OW10013   4.059   3.297   1.061
 3331SOL    HW110014   3.981   3.266   1.008
 3331SOL    HW210015   4.117   3.355   1.004
 3332SOL     OW10016   4.162   2.254   1.499
 3332SOL    HW110017   4.244   2.198   1.508
 3332SOL    HW210018   4.081   2.196   1.503
 3333SOL     OW10019   3.955   3.575   0.483
 3333SOL    HW110020   3.989   3.652   0.537
 3333SOL    HW210021   3.999   3.575   0.393
 3334SOL     OW10022   4.851   3.203   1.690
 3334SOL    HW110023   4.898   3.203   1.778
 3334SOL    HW210024   4.803   3.116   1.679
 3335SOL     OW10025   3.954   3.296   0.538
 3335SOL    HW110026   3.928   3.392   0.538
 3335SOL    HW210027   3.883   3.242   0.583
 3336SOL     OW10028   3.964   2.953   0.886
 3336SOL    HW110029   3.978   2.869   0.938
 3336SOL    HW210030   3.909   3.017   0.941
 3337SOL     OW10031   4.344   3.648   1.439
 3337SOL    HW110032   4.252   3.631   1.474
 3337SOL    HW210033   4.372   3.740   1.465
 3338SOL     OW10034   4.330   2.826   0.123
 3338SOL    HW110035   4.337   2.910   0.069
 3338SOL    HW210036   4.376   2.839   0.211
 3339SOL     OW10037   3.846   2.505   0.563
 3339SOL    HW110038   3.801   2.417   0.580
 3339SOL    HW210039   3.845   2.559   0.647
 3340SOL     OW10040   3.751   3.458   0.117
 3340SOL    HW110041   3.732   3.362   0.138
 3340SOL    HW210042   3.718   3.516   0.192
 3341SOL     OW10043   3.837   2.599   1.597
 3341SOL    HW110044   3.925   2.586   1.642
 3341SOL    HW210045   3.824   2.696   1.575
 3342SOL     OW10046   4.337   3.227   0.726
 3342SOL    HW110047   4.288   3.140   0.735
 3342SOL    HW210048   4.314   3.270   0.639
 3343SOL     OW10049   4.533   1.866   0.502
 3343SOL    HW110050   4.573   1.957   0.493
 3343SOL    HW210051   4.433   1.874   0.508
 3344SOL     OW10052   3.921   2.838   1.264
 3344SOL    HW110053   4.010   2.793   1.250
 3344SOL    HW210054   3.848   2.773   1.245
 3345SOL     OW10055   4.041   2.113   1.801
 3345SOL    HW110056   4.112   2.184   1.807
 3345SOL    HW210057   3.953   2.152   1.829
 3346SOL     OW10058   4.322   2.591   0.270
 3346SOL    HW110059   4.346   2.660   0.202
 3346SOL    HW210060   4.244   2.624   0.324
 3347SOL     OW10061   4.531   2.467   1.465
 3347SOL    HW110062   4.484   2.464   1.554
 3347SOL    HW210063   4.480   2.412   1.399
 3348SOL     OW10064   4.697   2.752   1.572
 3348SOL    HW110065   4.743   2.668   1.543
 3348SOL    HW210066   4.641   2.786   1.497
 3349SOL     OW10067   4.715   2.272   1.242
 3349SOL    HW110068   4.638   2.306   1.296
 3349SOL    HW210069   4.681   2.221   1.163
 3350SOL     OW10070   4.765   2.563   0.429
 3350SOL    HW110071   4.791   2.559   0.525
 3350SOL    HW210072   4.680   2.512   0.415
 3351SOL     OW10073   3.800   2.673   0.789
 3351SOL    HW110074   3.899   2.661   0.798
 3351SOL    HW210075   3.776   2.768   0.810
 3352SOL     OW10076   3.854   3.683   1.571
 3352SOL    HW110077   3.844   3.668   1.670
 3352SOL    HW210078   3.768   3.719   1.535
 3353SOL     OW10079   4.589   2.210   0.195
 3353SOL    HW110080   4.648   2.273   0.146
 3353SOL    HW210081   4.608   2.116   0.166
 3354SOL     OW10082   4.274   2.058   0.885
 3354SOL    HW110083   4.269   2.053   0.985
 3354SOL    HW210084   4.276   2.154   0.856
 3355SOL     OW10085   4.732   3.318   0.477
 3355SOL    HW110086   4.686   3.390   0.425
 3355SOL    HW210087   4.728   3.338   0.575
 3356SOL     OW10088   4.075   3.663   0.853
 3356SOL    HW110089   4.125   3.577   0.859
 3356SOL    HW210090   4.140   3.740   0.850
 3357SOL     OW10091   4.045   2.805   0.242
 3357SOL    HW110092   4.127   2.844   0.200
 3357SOL    HW210093   4.018   2.723   0.193
 3358SOL     OW10094   4.185   3.128   1.727
 3358SOL    HW110095   4.135   3.129   1.641
 3358SOL    HW210096   4.122   3.110   1.803
 3359SOL     OW10097   3.926   2.147   1.498
 3359SOL    HW110098   3.846   2.207   1.485
 3359SOL    HW210099   3.916   2.098   1.584
 3360SOL     OW10100   4.188   3.605   0.323
 3360SOL    HW110101   4.221   3.644   0.409
 3360SOL    HW210102   4.264   3.598   0.258
 3361SOL     OW10103   3.973   3.647   1.241
 3361SOL    HW110104   4.030   3.582   1.291
 3361SOL    HW210105   3.957   3.614   1.148
 3362SOL     OW10106   4.664   3.560   0.904
 3362SOL    HW110107   4.744   3.503   0.925
 3362SOL    HW210108   4.615   3.520   0.827
 3363SOL     OW10109   4.106   2.562   0.480
 3363SOL    HW110110   4.151   2.472   0.477
 3363SOL    HW210111   4.012   2.551   0.513
 3364SOL     OW10112   4.338   1.984   0.117
 3364SOL    HW110113   4.436   1.962   0.124
 3364SOL    HW210114   4.307   1.967   0.024
 3365SOL     OW10115   4.505   2.126   1.749
 3365SOL    HW110116   4.572   2.065   1.792
 3365SOL    HW210117   4.432   2.145   1.814
 3366SOL     OW10118   4.612   3.376   1.195
 3366SOL    HW110119   4.589   3.351   1.101
 3366SOL    HW210120   4.673   3.307   1.234
 3367SOL     OW10121   4.527   3.264   0.924
 3367SOL    HW110122   4.617   3.278   0.882
 3367SOL    HW210123   4.456   3.266   0.853
 3368SOL     OW10124   4.646   2.365   0.899
 3368SOL    HW110125   4.621   2.356   0.803
 3368SOL    HW210126   4.694   2.283   0.930
 3369SOL     OW10127   4.263   1.926   0.512
 3369SOL    HW110128   4.182   1.927   0.570
 3369SOL    HW210129   4.266   2.009   0.457
 3370SOL     OW10130   5.158   3.050   0.041
 3370SOL    HW110131   5.190   2.974   0.098
 3370SOL    HW210132   5.066   3.077   0.071
 3371SOL     OW10133   4.021   1.897   0.171
 3371SOL    HW110134   4.070   1.981   0.150
 3371SOL    HW210135   4.083   1.832   0.216
 3372SOL     OW10136   4.659   2.098   0.480
 3372SOL    HW110137   4.611   2.139   0.402
 3372SOL    HW210138   4.758   2.096   0.461
 3373SOL     OW10139   4.951   3.432   0.793
 3373SOL    HW110140   4.972   3.506   0.728
 3373SOL    HW210141   5.019   3.432   0.866
 3374SOL     OW10142   4.183   3.014   0.741
 3374SOL    HW110143   4.112   2.987   0.806
 3374SOL    HW210144   4.157   2.986   0.648
 3375SOL     OW10145   4.995   3.659   0.591
 3375SOL    HW110146   5.039   3.723   0.527
 3375SOL    HW210147   4.945   3.711   0.661
 3376SOL     OW10148   4.756   2.411   0.016
 3376SOL    HW110149   4.715   2.493  -0.023
 3376SOL    HW210150   4.820   2.437   0.089
 3377SOL     OW10151   3.802   2.418   1.386
 3377SOL    HW110152   3.894   2.417   1.345
 3377SOL    HW210153   3.796   2.492   1.453
 3378SOL     OW10154   4.285   2.084   1.147
 3378SOL    HW110155   4.323   2.000   1.184
 3378SOL    HW210156   4.197   2.103   1.191
 3379SOL     OW10157   4.590   2.316   0.642
 3379SOL    HW110158   4.558   2.388   0.580
 3379SOL    HW210159   4.614   2.235   0.589
 3380SOL     OW10160   4.741   1.901   0.753
 3380SOL    HW110161   4.669   1.906   0.684
 3380SOL    HW210162   4.717   1.832   0.822
 3381SOL     OW10163   4.212   3.247   0.174
 3381SOL    HW110164   4.125   3.232   0.221
 3381SOL    HW210165   4.195   3.273   0.079
 3382SOL     OW10166   4.251   2.118   0.328
 3382SOL    HW110167   4.278   2.059   0.253
 3382SOL    HW210168   4.251   2.213   0.297
 3383SOL     OW10169   4.639   1.951   1.402
 3383SOL    HW110170   4.664   1.931   1.307
 3383SOL    HW210171   4.711   2.007   1.444
 3384SOL     OW10172   4.704   2.978   1.719
 3384SOL    HW110173   4.605   2.984   1.729
 3384SOL    HW210174   4.727   2.898   1.663
 3385SOL     OW10175   4.429   2.912   0.368
 3385SOL    HW110176   4.415   2.919   0.467
 3385SOL    HW210177   4.513   2.861   0.350
 3386SOL     OW10178   4.134   2.675   1.251
 3386SOL    HW110179   4.220   2.687   1.301
 3386SOL    HW210180   4.092   2.588   1.278
 3387SOL     OW10181   3.788   3.426   1.331
 3387SOL    HW110182   3.742   3.508   1.297
 3387SOL    HW210183   3.886   3.445   1.340
 3388SOL     OW10184   4.091   2.962   0.501
 3388SOL    HW110185   4.084   3.045   0.445
 3388SOL    HW210186   4.095   2.882   0.441
 3389SOL     OW10187   4.290   2.399   0.865
 3389SOL    HW110188   4.302   2.465   0.791
 3389SOL    HW210189   4.336   2.433   0.948
 3390SOL     OW10190   4.976   3.210   0.388
 3390SOL    HW110191   5.026   3.287   0.428
 3390SOL    HW210192   4.881   3.212   0.420
 3391SOL     OW10193   4.078   3.372   1.329
 3391SOL    HW110194   4.057   3.328   1.242
 3391SOL    HW210195   4.175   3.398   1.332
 3392SOL     OW10196   4.126   2.613   1.598
 3392SOL    HW110197   4.194   2.668   1.551
 3392SOL    HW210198   4.166   2.525   1.625
 3393SOL     OW10199   4.737   1.967   1.770
 3393SOL    HW110200   4.743   2.052   1.718
 3393SOL    HW210201   4.769   1.891   1.713
 3394SOL     OW10202   4.228   1.912   1.740
 3394SOL    HW110203   4.186   1.855   1.670
 3394SOL    HW210204   4.162   1.981   1.772
 3395SOL     OW10205   4.297   2.732   1.029
 3395SOL    HW110206   4.341   2.821   1.020
 3395SOL    HW210207   4.234   2.732   1.106
 3396SOL     OW10208   4.933   2.387   0.275
 3396SOL    HW110209   4.946   2.303   0.329
 3396SOL    HW210210   4.904   2.461   0.335
 3397SOL     OW10211   4.031   2.075   1.231
 3397SOL    HW110212   4.008   2.112   1.321
 3397SOL    HW210213   4.001   1.980   1.225
 3398SOL     OW10214   3.761   3.172   1.282
 3398SOL    HW110215   3.814   3.123   1.350
 3398SOL    HW210216   3.783   3.270   1.287
 3399SOL     OW10217   4.456   2.496   1.064
 3399SOL    HW110218   4.515   2.470   0.988
 3399SOL    HW210219   4.428   2.592   1.053
 3400SOL     OW10220   4.031   1.925   0.618
 3400SOL    HW110221   4.020   2.019   0.651
 3400SOL    HW210222   4.026   1.862   0.695
 3401SOL     OW10223   4.747   2.628   0.966
 3401SOL    HW110224   4.762   2.649   1.062
 3401SOL    HW210225   4.717   2.533   0.957
 3402SOL     OW10226   4.704   3.435   1.700
 3402SOL    HW110227   4.684   3.479   1.612
 3402SOL    HW210228   4.743   3.344   1.684
 3403SOL     OW10229   4.074   2.760   1.804
 3403SOL    HW110230   4.150   2.804   1.852
 3403SOL    HW210231   4.109   2.713   1.722
 3404SOL     OW10232   4.792   3.195   0.849
 3404SOL    HW110233   4.799   3.111   0.794
 3404SOL    HW210234   4.854   3.264   0.813
 3405SOL     OW10235   4.043   2.672   0.949
 3405SOL    HW110236   4.136   2.708   0.954
 3405SOL    HW210237   4.037   2.587   1.001
 3406SOL     OW10238   4.063   2.371   1.006
 3406SOL    HW110239   4.011   2.288   0.989
 3406SOL    HW210240   4.140   2.376   0.942
 3407SOL     OW10241   4.862   2.242   1.678
 3407SOL    HW110242   4.817   2.305   1.742
 3407SOL    HW210243   4.955   2.273   1.661
 3408SOL     OW10244   4.884   2.069   1.477
 3408SOL    HW110245   4.884   2.133   1.554
 3408SOL    HW210246   4.912   2.117   1.394
 3409SOL     OW10247   3.732   3.188   0.200
 3409SOL    HW110248   3.639   3.209   0.169
 3409SOL    HW210249   3.742   3.089   0.213
 3410SOL     OW10250   3.812   3.663   0.927
 3410SOL    HW110251   3.770   3.577   0.900
 3410SOL    HW210252   3.906   3.666   0.893
 3411SOL     OW10253   4.228   3.430   0.910
 3411SOL    HW110254   4.294   3.504   0.919
 3411SOL    HW210255   4.272   3.351   0.868
 3412SOL     OW10256   4.726   2.658   1.238
 3412SOL    HW110257   4.767   2.626   1.324
 3412SOL    HW210258   4.630   2.631   1.235
 3413SOL     OW10259   3.764   2.406   1.114
 3413SOL    HW110260   3.849   2.373   1.073
 3413SOL    HW210261   3.777   2.421   1.212
 3414SOL     OW10262   3.913   2.382   1.722
 3414SOL    HW110263   3.972   2.342   1.652
 3414SOL    HW210264   3.855   2.453   1.681
 3415SOL     OW10265   4.539   2.434   0.325
 3415SOL    HW110266   4.546   2.345   0.279
 3415SOL    HW210267   4.445   2.468   0.317
 3416SOL     OW10268   3.976   3.426   1.744
 3416SOL    HW110269   3.946   3.483   1.820
 3416SOL    HW210270   3.969   3.329   1.770
 3417SOL     OW10271   4.395   2.326   1.269
 3417SOL    HW110272   4.361   2.237   1.239
 3417SOL    HW210273   4.421   2.380   1.189
 3418SOL     OW10274   4.654   3.540   1.465
 3418SOL    HW110275   4.630   3.522   1.370
 3418SOL    HW210276   4.684   3.634   1.475
 3419SOL     OW10277   4.197   2.362   0.191
 3419SOL    HW110278   4.258   2.442   0.195
 3419SOL    HW210279   4.102   2.393   0.198
 3420SOL     OW10280   3.883   2.999   1.466
 3420SOL    HW110281   3.905   2.938   1.542
 3420SOL    HW210282   3.893   2.950   1.380
 3421SOL     OW10283   5.026   2.717   0.309
 3421SOL    HW110284   4.940   2.686   0.351
 3421SOL    HW210285   5.022   2.703   0.210
 3422SOL     OW10286   3.807   3.120   1.022
 3422SOL    HW110287   3.802   3.119   1.122
 3422SOL    HW210288   3.724   3.079   0.984
 3423SOL     OW10289   4.412   3.524   1.716
 3423SOL    HW110290   4.356   3.605   1.725
 3423SOL    HW210291   4.464   3.528   1.630
 3424SOL     OW10292   4.627   1.948   0.133
 3424SOL    HW110293   4.678   1.949   0.047
 3424SOL    HW210294   4.683   1.906   0.204
 3425SOL     OW10295   3.854   3.656   1.851
 3425SOL    HW110296   3.813   3.582   1.904
 3425SOL    HW210297   3.918   3.707   1.909
 3426SOL     OW10298   4.554   3.135   1.422
 3426SOL    HW110299   4.549   3.168   1.517
 3426SOL    HW210300   4.468   3.154   1.376
 3427SOL     OW10301   4.396   3.478   0.154
 3427SOL    HW110302   4.405   3.488   0.055
 3427SOL    HW210303   4.356   3.389   0.175
 3428SOL     OW10304   3.987   2.188   0.720
 3428SOL    HW110305   3.908   2.239   0.686
 3428SOL    HW210306   3.978   2.173   0.818
 3429SOL     OW10307   4.546   2.864   1.372
 3429SOL    HW110308   4.586   2.863   1.280
 3429SOL    HW210309   4.556   2.956   1.412
 3430SOL     OW10310   4.640   2.772   0.291
 3430SOL    HW110311   4.703   2.810   0.223
 3430SOL    HW210312   4.680   2.689   0.330
 3431SOL     OW10313   4.096   3.150   1.490
 3431SOL    HW110314   4.083   3.243   1.456
 3431SOL    HW210315   4.012   3.098   1.477
 3432SOL     OW10316   4.763   2.960   0.696
 3432SOL    HW110317   4.693   2.913   0.750
 3432SOL    HW210318   4.822   2.892   0.653
 3433SOL     OW10319   4.738   2.098   0.971
 3433SOL    HW110320   4.730   2.062   0.878
 3433SOL    HW210321   4.736   2.022   1.036
 3434SOL     OW10322   4.314   3.349   0.491
 3434SOL    HW110323   4.356   3.291   0.421
 3434SOL    HW210324   4.270   3.428   0.447
 3435SOL     OW10325   3.979   3.210   0.290
 3435SOL    HW110326   3.883   3.211   0.263
 3435SOL    HW210327   3.991   3.263   0.374
 3436SOL     OW10328   3.829   2.875   1.726
 3436SOL    HW110329   3.752   2.842   1.780
 3436SOL    HW210330   3.914   2.845   1.768
 3437SOL     OW10331   4.396   2.065   1.489
 3437SOL    HW110332   4.486   2.049   1.449
 3437SOL    HW210333   4.404   2.070   1.588
 3438SOL     OW10334   3.796   2.028   0.318
 3438SOL    HW110335   3.779   2.111   0.264
 3438SOL    HW210336   3.886   1.991   0.296
 3439SOL     OW10337   4.337   2.704   1.431
 3439SOL    HW110338   4.393   2.785   1.414
 3439SOL    HW210339   4.396   2.624   1.434
 3440SOL     OW10340   4.440   2.427   1.708
 3440SOL    HW110341   4.459   2.492   1.782
 3440SOL    HW210342   4.500   2.347   1.717
 3441SOL     OW10343   4.114   3.603   1.560
 3441SOL    HW110344   4.023   3.644   1.558
 3441SOL    HW210345   4.107   3.509   1.592
 3442SOL     OW10346   4.318   2.607   0.652
 3442SOL    HW110347   4.368   2.692   0.633
 3442SOL    HW210348   4.230   2.609   0.604
 3443SOL     OW10349   4.583   3.236   0.016
 3443SOL    HW110350   4.537   3.251   0.104
 3443SOL    HW210351   4.627   3.321  -0.014
 3444SOL     OW10352   4.385   3.652   0.953
 3444SOL    HW110353   4.339   3.740   0.940
 3444SOL    HW210354   4.484   3.664   0.946
 3445SOL     OW10355   4.583   2.818   0.861
 3445SOL    HW110356   4.637   2.749   0.909
 3445SOL    HW210357   4.551   2.887   0.927
 3446SOL     OW10358   4.807   2.846   0.087
 3446SOL    HW110359   4.784   2.899   0.005
 3446SOL    HW210360   4.888   2.790   0.068
 3447SOL     OW10361   3.945   3.176   1.844
 3447SOL    HW110362   3.880   3.103   1.823
 3447SOL    HW210363   3.949   3.190   1.942
 3448SOL     OW10364   3.803   3.102   0.653
 3448SOL    HW110365   3.802   3.055   0.741
 3448SOL    HW210366   3.885   3.074   0.602
 3449SOL     OW10367   4.396   3.253   1.624
 3449SOL    HW110368   4.318   3.203   1.662
 3449SOL    HW210369   4.393   3.348   1.655
 3450SOL     OW10370   4.152   2.286   0.520
 3450SOL    HW110371   4.182   2.214   0.458
 3450SOL    HW210372   4.113   2.246   0.603
 3451SOL     OW10373   4.041   2.409   1.280
 3451SOL    HW110374   4.079   2.350   1.352
 3451SOL    HW210375   4.081   2.383   1.192
 3452SOL     OW10376   4.536   3.448   0.687
 3452SOL    HW110377   4.568   3.458   0.593
 3452SOL    HW210378   4.457   3.386   0.689
 3453SOL     OW10379   4.725   1.896   1.154
 3453SOL    HW110380   4.662   1.824   1.123
 3453SOL    HW210381   4.818   1.860   1.154
 3454SOL     OW10382   4.494   3.192   0.301
 3454SOL    HW110383   4.448   3.105   0.318
 3454SOL    HW210384   4.585   3.189   0.342
 3455SOL     OW10385   4.342   3.429   1.284
 3455SOL    HW110386   4.337   3.511   1.341
 3455SOL    HW210387   4.431   3.426   1.239
 3456SOL     OW10388   3.763   2.939   0.300
 3456SOL    HW110389   3.862   2.928   0.291
 3456SOL    HW210390   3.723   2.853   0.332
 3457SOL     OW10391   4.599   3.508   0.337
 3457SOL    HW110392   4.522   3.473   0.283
 3457SOL    HW210393   4.567   3.579   0.399
 3458SOL     OW10394   3.954   2.490   1.975
 3458SOL    HW110395   3.861   2.488   2.012
 3458SOL    HW210396   3.955   2.451   1.883
 3459SOL     OW10397   3.949   2.137   2.858
 3459SOL    HW110398   3.984   2.120   2.950
 3459SOL    HW210399   3.861   2.092   2.846
 3460SOL     OW10400   3.743   2.230   2.509
 3460SOL    HW110401   3.661   2.273   2.548
 3460SOL    HW210402   3.715   2.157   2.446
 3461SOL     OW10403   4.293   3.137   3.027
 3461SOL    HW110404   4.200   3.130   2.990
 3461SOL    HW210405   4.304   3.226   3.071
 3462SOL     OW10406   4.492   3.006   2.885
 3462SOL    HW110407   4.414   3.023   2.945
 3462SOL    HW210408   4.526   3.093   2.849
 3463SOL     OW10409   4.574   2.660   3.685
 3463SOL    HW110410   4.570   2.736   3.750
 3463SOL    HW210411   4.596   2.696   3.594
 3464SOL     OW10412   4.409   2.874   2.527
 3464SOL    HW110413   4.478   2.858   2.597
 3464SOL    HW210414   4.336   2.931   2.565
 3465SOL     OW10415   4.410   3.023   3.665
 3465SOL    HW110416   4.470   3.102   3.679
 3465SOL    HW210417   4.324   3.054   3.624
 3466SOL     OW10418   4.059   3.297   2.923
 3466SOL    HW110419   3.981   3.266   2.870
 3466SOL    HW210420   4.117   3.355   2.866
 3467SOL     OW10421   4.162   2.254   3.361
 3467SOL    HW110422   4.244   2.198   3.370
 3467SOL    HW210423   4.081   2.196   3.365
 3468SOL     OW10424   3.955   3.575   2.345
 3468SOL    HW110425   3.989   3.652   2.399
 3468SOL    HW210426   3.999   3.575   2.255
 3469SOL     OW10427   4.851   3.203   3.552
 3469SOL    HW110428   4.898   3.203   3.640
 3469SOL    HW210429   4.803   3.116   3.541
 3470SOL     OW10430   3.954   3.296   2.400
 3470SOL    HW110431   3.928   3.392   2.400
 3470SOL    HW210432   3.883   3.242   2.445
 3471SOL     OW10433   3.964   2.953   2.748
 3471SOL    HW110434   3.978   2.869   2.800
 3471SOL    HW210435   3.909   3.017   2.803
 3472SOL     OW10436   4.344   3.648   3.301
 3472SOL    HW110437   4.252   3.631   3.336
 3472SOL    HW210438   4.372   3.740   3.327
 3473SOL     OW10439   4.330   2.826   1.985
 3473SOL    HW110440   4.337   2.910   1.931
 3473SOL    HW210441   4.376   2.839   2.073
 3474SOL     OW10442   3.846   2.505   2.425
 3474SOL    HW110443   3.801   2.417   2.442
 3474SOL    HW210444   3.845   2.559   2.509
 3475SOL     OW10445   3.751   3.458   1.979
 3475SOL    HW110446   3.732   3.362   2.000
 3475SOL    HW210447   3.718   3.516   2.054
 3476SOL     OW10448   3.837   2.599   3.459
 3476SOL    HW110449   3.925   2.586   3.504
 3476SOL    HW210450   3.824   2.696   3.437
 3477SOL     OW10451   4.337   3.227   2.588
 3477SOL    HW110452   4.288   3.140   2.597
 3477SOL    HW210453   4.314   3.270   2.501
 3478SOL     OW10454   4.533   1.866   2.364
 3478SOL    HW110455   4.573   1.957   2.355
 3478SOL    HW210456   4.433   1.874   2.370
 3479SOL     OW10457   3.921   2.838   3.126
 3479SOL    HW110458   4.010   2.793   3.112
 3479SOL    HW210459   3.848   2.773   3.107
 3480SOL     OW10460   4.041   2.113   3.663
 3480SOL    HW110461   4.112   2.184   3.669
 3480SOL    HW210462   3.953   2.152   3.691
 3481SOL     OW10463   4.322   2.591   2.132
 3481SOL    HW110464   4.346   2.660   2.064
 3481SOL    HW210465   4.244   2.624   2.186
 3482SOL     OW10466   4.531   2.467   3.327
 3482SOL    HW110467   4.484   2.464   3.416
 3482SOL    HW210468   4.480   2.412   3.261
 3483SOL     OW10469   4.697   2.752   3.434
 3483SOL    HW110470   4.743   2.668   3.405
 3483SOL    HW210471   4.641   2.786   3.359
 3484SOL     OW10472   4.715   2.272   3.104
 3484SOL    HW110473   4.638   2.306   3.158
 3484SOL    HW210474   4.681   2.221   3.025
 3485SOL     OW10475   4.765   2.563   2.291
 3485SOL    HW110476   4.791   2.559   2.387
 3485SOL    HW210477   4.680   2.512   2.277
 3486SOL     OW10478   3.800   2.673   2.651
 3486SOL    HW110479   3.899   2.661   2.660
 3486SOL    HW210480   3.776   2.768   2.672
 3487SOL     OW10481   3.854   3.683   3.433
 3487SOL    HW110482   3.844   3.668   3.532
 3487SOL    HW210483   3.768   3.719   3.397
 3488SOL     OW10484   4.589   2.210   2.057
 3488SOL    HW110485   4.648   2.273   2.008
 3488SOL    HW210486   4.608   2.116   2.028
 3489SOL     OW10487   4.274   2.058   2.747
 3489SOL    HW110488   4.269   2.053   2.847
 3489SOL    HW210489   4.276   2.154   2.718
 3490SOL     OW10490   4.732   3.318   2.339
 3490SOL    HW110491   4.686   3.390   2.287
 3490SOL    HW210492   4.728   3.338   2.437
 3491SOL     OW10493   4.075   3.663   2.715
 3491SOL    HW110494   4.125   3.577   2.721
 3491SOL    HW210495   4.140   3.740   2.712
 3492SOL     OW10496   4.045   2.805   2.104
 3492SOL    HW110497   4.127   2.844   2.062
 3492SOL    HW210498   4.018   2.723   2.055
 3493SOL     OW10499   4.185   3.128   3.589
 3493SOL    HW110500   4.135   3.129   3.503
 3493SOL    HW210501   4.122   3.110   3.665
 3494SOL     OW10502   3.926   2.147   3.360
 3494SOL    HW110503   3.846   2.207   3.347
 3494SOL    HW210504   3.916   2.098   3.446
 3495SOL     OW10505   4.188   3.605   2.185
 3495SOL    HW110506   4.221   3.644   2.271
 3495SOL    HW210507   4.264   3.598   2.120
 3496SOL     OW10508   3.973   3.647   3.103
 3496SOL    HW110509   4.030   3.582   3.153
 3496SOL    HW210510   3.957   3.614   3.010
 3497SOL     OW10511   4.664   3.560   2.766
 3497SOL    HW110512   4.744   3.503   2.787
 3497SOL    HW210513   4.615   3.520   2.689
 3498SOL     OW10514   4.106   2.562   2.342
 3498SOL    HW110515   4.151   2.472   2.339
 3498SOL    HW210516   4.012   2.551   2.375
 3499SOL     OW10517   4.338   1.984   1.979
 3499SOL    HW110518   4.436   1.962   1.986
 3499SOL    HW210519   4.307   1.967   1.886
 3500SOL     OW10520   4.505   2.126   3.611
 3500SOL    HW110521   4.572   2.065   3.654
 3500SOL    HW210522   4.432   2.145   3.676
 3501SOL     OW10523   4.612   3.376   3.057
 3501SOL    HW110524   4.589   3.351   2.963
 3501SOL    HW210525   4.673   3.307   3.096
 3502SOL     OW10526   4.527   3.264   2.786
 3502SOL    HW110527   4.617   3.278   2.744
 3502SOL    HW210528   4.456   3.266   2.715
 3503SOL     OW10529   4.646   2.365   2.761
 3503SOL    HW110530   4.621   2.356   2.665
 3503SOL    HW210531   4.694   2.283   2.792
 3504SOL     OW10532   4.263   1.926   2.374
 3504SOL    HW110533   4.182   1.927   2.432
 3504SOL    HW210534   4.266   2.009   2.319
 3505SOL     OW10535   4.021   1.897   2.033
 3505SOL    HW110536   4.070   1.981   2.012
 3505SOL    HW210537   4.083   1.832   2.078
 3506SOL     OW10538   4.659   2.098   2.342
 3506SOL    HW110539   4.611   2.139   2.264
 3506SOL    HW210540   4.758   2.096   2.323
 3507SOL     OW10541   4.951   3.432   2.655
 3507SOL    HW110542   4.972   3.506   2.590
 3507SOL    HW210543   5.019   3.432   2.728
 3508SOL     OW10544   4.183   3.014   2.603
 3508SOL    HW110545   4.112   2.987   2.668
 3508SOL    HW210546   4.157   2.986   2.510
 3509SOL     OW10547   4.995   3.659   2.453
 3509SOL    HW110548   5.039   3.723   2.389
 3509SOL    HW210549   4.945   3.711   2.523
 3510SOL     OW10550   4.756   2.411   1.878
 3510SOL    HW110551   4.715   2.493   1.839
 3510SOL    HW210552   4.820   2.437   1.951
 3511SOL     OW10553   3.802   2.418   3.248
 3511SOL    HW110554   3.894   2.417   3.207
 3511SOL    HW210555   3.796   2.492   3.315
 3512SOL     OW10556   4.285   2.084   3.009
 3512SOL    HW110557   4.323   2.000   3.046
 3512SOL    HW210558   4.197   2.103   3.053
 3513SOL     OW10559   4.590   2.316   2.504
 3513SOL    HW110560   4.558   2.388   2.442
 3513SOL    HW210561   4.614   2.235   2.451
 3514SOL     OW10562   4.741   1.901   2.615
 3514SOL    HW110563   4.669   1.906   2.546
 3514SOL    HW210564   4.717   1.832   2.684
 3515SOL     OW10565   4.212   3.247   2.036
 3515SOL    HW110566   4.125   3.232   2.083
 3515SOL    HW210567   4.195   3.273   1.941
 3516SOL     OW10568   4.251   2.118   2.190
 3516SOL    HW110569   4.278   2.059   2.115
 3516SOL    HW210570   4.251   2.213   2.159
 3517SOL     OW10571   4.639   1.951   3.264
 3517SOL    HW110572   4.664   1.931   3.169
 3517SOL    HW210573   4.711   2.007   3.306
 3518SOL     OW10574   4.704   2.978   3.581
 3518SOL    HW110575   4.605   2.984   3.591
 3518SOL    HW210576   4.727   2.898   3.525
 3519SOL     OW10577   4.429   2.912   2.230
 3519SOL    HW110578   4.415   2.919   2.329
 3519SOL    HW210579   4.513   2.861   2.212
 3520SOL     OW10580   4.134   2.675   3.113
 3520SOL    HW110581   4.220   2.687   3.163
 3520SOL    HW210582   4.092   2.588   3.140
 3521SOL     OW10583   3.788   3.426   3.193
 3521SOL    HW110584   3.742   3.508   3.159
 3521SOL    HW210585   3.886   3.445   3.202
 3522SOL     OW10586   4.091   2.962   2.363
 3522SOL    HW110587   4.084   3.045   2.307
 3522SOL    HW210588   4.095   2.882   2.303
 3523SOL     OW10589   4.290   2.399   2.727
 3523SOL    HW110590   4.302   2.465   2.653
 3523SOL    HW210591   4.336   2.433   2.810
 3524SOL     OW10592   4.976   3.210   2.250
 3524SOL    HW110593   5.026   3.287   2.290
 3524SOL    HW210594   4.881   3.212   2.282
 3525SOL     OW10595   4.078   3.372   3.191
 3525SOL    HW110596   4.057   3.328   3.104
 3525SOL    HW210597   4.175   3.398   3.194
 3526SOL     OW10598   4.126   2.613   3.460
 3526SOL    HW110599   4.194   2.668   3.413
 3526SOL    HW210600   4.166   2.525   3.487
 3527SOL     OW10601   4.737   1.967   3.632
 3527SOL    HW110602   4.743   2.052   3.580
 3527SOL    HW210603   4.769   1.891   3.575
 3528SOL     OW10604   4.228   1.912   3.602
 3528SOL    HW110605   4.186   1.855   3.532
 3528SOL    HW210606   4.162   1.981   3.634
 3529SOL     OW10607   4.297   2.732   2.891
 3529SOL    HW110608   4.341   2.821   2.882
 3529SOL    HW210609   4.234   2.732   2.968
 3530SOL     OW10610   4.933   2.387   2.137
 3530SOL    HW110611   4.946   2.303   2.191
 3530SOL    HW210612   4.904   2.461   2.197
 3531SOL     OW10613   4.031   2.075   3.093
 3531SOL    HW110614   4.008   2.112   3.183
 3531SOL    HW210615   4.001   1.980   3.087
 3532SOL     OW10616   3.761   3.172   3.144
 3532SOL    HW110617   3.814   3.123   3.212
 3532SOL    HW210618   3.783   3.270   3.149
 3533SOL     OW10619   4.456   2.496   2.926
 3533SOL    HW110620   4.515   2.470   2.850
 3533SOL    HW210621   4.428   2.592   2.915
 3534SOL     OW10622   4.031   1.925   2.480
 3534SOL    HW110623   4.020   2.019   2.513
 3534SOL    HW210624   4.026   1.862   2.557
 3535SOL     OW10625   4.747   2.628   2.828
 3535SOL    HW110626   4.762   2.649   2.924
 3535SOL    HW210627   4.717   2.533   2.819
 3536SOL     OW10628   4.704   3.435   3.562
 3536SOL    HW110629   4.684   3.479   3.474
 3536SOL    HW210630   4.743   3.344   3.546
 3537SOL     OW10631   4.074   2.760   3.666
 3537SOL    HW110632   4.150   2.804   3.714
 3537SOL    HW210633   4.109   2.713   3.584
 3538SOL     OW10634   5.027   2.700   1.904
 3538SOL    HW110635   5.061   2.607   1.919
 3538SOL    HW210636   5.045   2.727   1.809
 3539SOL     OW10637   4.792   3.195   2.711
 3539SOL    HW110638   4.799   3.111   2.656
 3539SOL    HW210639   4.854   3.264   2.675
 3540SOL     OW10640   4.043   2.672   2.811
 3540SOL    HW110641   4.136   2.708   2.816
 3540SOL    HW210642   4.037   2.587   2.863
 3541SOL     OW10643   4.063   2.371   2.868
 3541SOL    HW110644   4.011   2.288   2.851
 3541SOL    HW210645   4.140   2.376   2.804
 3542SOL     OW10646   4.862   2.242   3.540
 3542SOL    HW110647   4.817   2.305   3.604
 3542SOL    HW210648   4.955   2.273   3.523
 3543SOL     OW10649   4.884   2.069   3.339
 3543SOL    HW110650   4.884   2.133   3.416
 3543SOL    HW210651   4.912   2.117   3.256
 3544SOL     OW10652   3.732   3.188   2.062
 3544SOL    HW110653   3.639   3.209   2.031
 3544SOL    HW210654   3.742   3.089   2.075
 3545SOL     OW10655   3.812   3.663   2.789
 3545SOL    HW110656   3.770   3.577   2.762
 3545SOL    HW210657   3.906   3.666   2.755
 3546SOL     OW10658   4.228   3.430   2.772
 3546SOL    HW110659   4.294   3.504   2.781
 3546SOL    HW210660   4.272   3.351   2.730
 3547SOL     OW10661   4.726   2.658   3.100
 3547SOL    HW110662   4.767   2.626   3.186
 3547SOL    HW210663   4.630   2.631   3.097
 3548SOL     OW10664   3.764   2.406   2.976
 3548SOL    HW110665   3.849   2.373   2.935
 3548SOL    HW210666   3.777   2.421   3.074
 3549SOL     OW10667   3.913   2.382   3.584
 3549SOL    HW110668   3.972   2.342   3.514
 3549SOL    HW210669   3.855   2.453   3.543
 3550SOL     OW10670   4.539   2.434   2.187
 3550SOL    HW110671   4.546   2.345   2.141
 3550SOL    HW210672   4.445   2.468   2.179
 3551SOL     OW10673   3.976   3.426   3.606
 3551SOL    HW110674   3.946   3.483   3.682
 3551SOL    HW210675   3.969   3.329   3.632
 3552SOL     OW10676   4.395   2.326   3.131
 3552SOL    HW110677   4.361   2.237   3.101
 3552SOL    HW210678   4.421   2.380   3.051
 3553SOL     OW10679   4.654   3.540   3.327
 3553SOL    HW110680   4.630   3.522   3.232
 3553SOL    HW210681   4.684   3.634   3.337
 3554SOL     OW10682   4.197   2.362   2.053
 3554SOL    HW110683   4.258   2.442   2.057
 3554SOL    HW210684   4.102   2.393   2.060
 3555SOL     OW10685   3.883   2.999   3.328
 3555SOL    HW110686   3.905   2.938   3.404
 3555SOL    HW210687   3.893   2.950   3.242
 3556SOL     OW10688   5.026   2.717   2.171
 3556SOL    HW110689   4.940   2.686   2.213
 3556SOL    HW210690   5.022   2.703   2.072
 3557SOL     OW10691   3.807   3.120   2.884
 3557SOL    HW110692   3.802   3.119   2.984
 3557SOL    HW210693   3.724   3.079   2.846
 3558SOL     OW10694   4.412   3.524   3.578
 3558SOL    HW110695   4.356   3.605   3.587
 3558SOL    HW210696   4.464   3.528   3.492
 3559SOL     OW10697   3.854   3.656   3.713
 3559SOL    HW110698   3.813   3.582   3.766
 3559SOL    HW210699   3.918   3.707   3.771
 3560SOL     OW10700   4.554   3.135   3.284
 3560SOL    HW110701   4.549   3.168   3.379
 3560SOL    HW210702   4.468   3.154   3.238
 3561SOL     OW10703   4.396   3.478   2.016
 3561SOL    HW110704   4.405   3.488   1.917
 3561SOL    HW210705   4.356   3.389   2.037
 3562SOL     OW10706   3.987   2.188   2.582
 3562SOL    HW110707   3.908   2.239   2.548
 3562SOL    HW210708   3.978   2.173   2.680
 3563SOL     OW10709   4.546   2.864   3.234
 3563SOL    HW110710   4.586   2.863   3.142
 3563SOL    HW210711   4.556   2.956   3.274
 3564SOL     OW10712   4.640   2.772   2.153
 3564SOL    HW110713   4.703   2.810   2.085
 3564SOL    HW210714   4.680   2.689   2.192
 3565SOL     OW10715   4.096   3.150   3.352
 3565SOL    HW110716   4.083   3.243   3.318
 3565SOL    HW210717   4.012   3.098   3.339
 3566SOL     OW10718   4.763   2.960   2.558
 3566SOL    HW110719   4.693   2.913   2.612
 3566SOL    HW210720   4.822   2.892   2.515
 3567SOL     OW10721   4.738   2.098   2.833
 3567SOL    HW110722   4.730   2.062   2.740
 3567SOL    HW210723   4.736   2.022   2.898
 3568SOL     OW10724   4.314   3.349   2.353
 3568SOL    HW110725   4.356   3.291   2.283
 3568SOL    HW210726   4.270   3.428   2.309
 3569SOL     OW10727   3.979   3.210   2.152
 3569SOL    HW110728   3.883   3.211   2.125
 3569SOL    HW210729   3.991   3.263   2.236
 3570SOL     OW10730   3.829   2.875   3.588
 3570SOL    HW110731   3.752   2.842   3.642
 3570SOL    HW210732   3.914   2.845   3.630
 3571SOL     OW10733   4.396   2.065   3.351
 3571SOL    HW110734   4.486   2.049   3.311
 3571SOL    HW210735   4.404   2.070   3.450
 3572SOL     OW10736   3.799   2.207   1.895
 3572SOL    HW110737   3.707   2.179   1.866
 3572SOL    HW210738   3.830   2.284   1.839
 3573SOL     OW10739   3.796   2.028   2.180
 3573SOL    HW110740   3.779   2.111   2.126
 3573SOL    HW210741   3.886   1.991   2.158
 3574SOL     OW10742   4.337   2.704   3.293
 3574SOL    HW110743   4.393   2.785   3.276
 3574SOL    HW210744   4.396   2.624   3.296
 3575SOL     OW10745   4.440   2.427   3.570
 3575SOL    HW110746   4.459   2.492   3.644
 3575SOL    HW210747   4.500   2.347   3.579
 3576SOL     OW10748   4.114   3.603   3.422
 3576SOL    HW110749   4.023   3.644   3.420
 3576SOL    HW210750   4.107   3.509   3.454
 3577SOL     OW10751   4.318   2.607   2.514
 3577SOL    HW110752   4.368   2.692   2.495
 3577SOL    HW210753   4.230   2.609   2.466
 3578SOL     OW10754   4.583   3.236   1.878
 3578SOL    HW110755   4.537   3.251   1.966
 3578SOL    HW210756   4.627   3.321   1.848
 3579SOL     OW10757   4.385   3.652   2.815
 3579SOL    HW110758   4.339   3.740   2.802
 3579SOL    HW210759   4.484   3.664   2.808
 3580SOL     OW10760   4.583   2.818   2.723
 3580SOL    HW110761   4.637   2.749   2.771
 3580SOL    HW210762   4.551   2.887   2.789
 3581SOL     OW10763   4.807   2.846   1.949
 3581SOL    HW110764   4.784   2.899   1.867
 3581SOL    HW210765   4.888   2.790   1.930
 3582SOL     OW10766   3.945   3.176   3.706
 3582SOL    HW110767   3.880   3.103   3.685
 3582SOL    HW210768   3.949   3.190   3.804
 3583SOL     OW10769   3.803   3.102   2.515
 3583SOL    HW110770   3.802   3.055   2.603
 3583SOL    HW210771   3.885   3.074   2.464
 3584SOL     OW10772   4.396   3.253   3.486
 3584SOL    HW110773   4.318   3.203   3.524
 3584SOL    HW210774   4.393   3.348   3.517
 3585SOL     OW10775   4.152   2.286   2.382
 3585SOL    HW110776   4.182   2.214   2.320
 3585SOL    HW210777   4.113   2.246   2.465
 3586SOL     OW10778   4.041   2.409   3.142
 3586SOL    HW110779   4.079   2.350   3.214
 3586SOL    HW210780   4.081   2.383   3.054
 3587SOL     OW10781   4.536   3.448   2.549
 3587SOL    HW110782   4.568   3.458   2.455
 3587SOL    HW210783   4.457   3.386   2.551
 3588SOL     OW10784   4.725   1.896   3.016
 3588SOL    HW110785   4.662   1.824   2.985
 3588SOL    HW210786   4.818   1.860   3.016
 3589SOL     OW10787   4.494   3.192   2.163
 3589SOL    HW110788   4.448   3.105   2.180
 3589SOL    HW210789   4.585   3.189   2.204
 3590SOL     OW10790   4.342   3.429   3.146
 3590SOL    HW110791   4.337   3.511   3.203
 3590SOL    HW210792   4.431   3.426   3.101
 3591SOL     OW10793   3.763   2.939   2.162
 3591SOL    HW110794   3.862   2.928   2.153
 3591SOL    HW210795   3.723   2.853   2.194
 3592SOL     OW10796   4.599   3.508   2.199
 3592SOL    HW110797   4.522   3.473   2.145
 3592SOL    HW210798   4.567   3.579   2.261
 3593SOL     OW10799   3.954   2.490   3.837
 3593SOL    HW110800   3.861   2.488   3.874
 3593SOL    HW210801   3.955   2.451   3.745
 3594SOL     OW10802   3.949   2.137   4.720
 3594SOL    HW110803   3.984   2.120   4.812
 3594SOL    HW210804   3.861   2.092   4.708
 3595SOL     OW10805   3.743   2.230   4.371
 3595SOL    HW110806   3.661   2.273   4.410
 3595SOL    HW210807   3.715   2.157   4.308
 3596SOL     OW10808   4.293   3.137   4.889
 3596SOL    HW110809   4.200   3.130   4.852
 3596SOL    HW210810   4.304   3.226   4.933
 3597SOL     OW10811   4.492   3.006   4.747
 3597SOL    HW110812   4.414   3.023   4.807
 3597SOL    HW210813   4.526   3.093   4.711
 3598SOL     OW10814   4.409   2.874   4.389
 3598SOL    HW110815   4.478   2.858   4.459
 3598SOL    HW210816   4.336   2.931   4.427
 3599SOL     OW10817   4.059   3.297   4.785
 3599SOL    HW110818   3.981   3.266   4.732
 3599SOL    HW210819   4.117   3.355   4.728
 3600SOL     OW10820   3.955   3.575   4.207
 3600SOL    HW110821   3.989   3.652   4.261
 3600SOL    HW210822   3.999   3.575   4.117
 3601SOL     OW10823   3.954   3.296   4.262
 3601SOL    HW110824   3.928   3.392   4.262
 3601SOL    HW210825   3.883   3.242   4.307
 3602SOL     OW10826   3.964   2.953   4.610
 3602SOL    HW110827   3.978   2.869   4.662
 3602SOL    HW210828   3.909   3.017   4.665
 3603SOL     OW10829   4.330   2.826   3.847
 3603SOL    HW110830   4.337   2.910   3.793
 3603SOL    HW210831   4.376   2.839   3.935
 3604SOL     OW10832   3.846   2.505   4.287
 3604SOL    HW110833   3.801   2.417   4.304
 3604SOL    HW210834   3.845   2.559   4.371
 3605SOL     OW10835   3.751   3.458   3.841
 3605SOL    HW110836   3.732   3.362   3.862
 3605SOL    HW210837   3.718   3.516   3.916
 3606SOL     OW10838   4.337   3.227   4.450
 3606SOL    HW110839   4.288   3.140   4.459
 3606SOL    HW210840   4.314   3.270   4.363
 3607SOL     OW10841   4.533   1.866   4.226
 3607SOL    HW110842   4.573   1.957   4.217
 3607SOL    HW210843   4.433   1.874   4.232
 3608SOL     OW10844   3.921   2.838   4.988
 3608SOL    HW110845   4.010   2.793   4.974
 3608SOL    HW210846   3.848   2.773   4.969
 3609SOL     OW10847   4.322   2.591   3.994
 3609SOL    HW110848   4.346   2.660   3.926
 3609SOL    HW210849   4.244   2.624   4.048
 3610SOL     OW10850   4.765   2.563   4.153
 3610SOL    HW110851   4.791   2.559   4.249
 3610SOL    HW210852   4.680   2.512   4.139
 3611SOL     OW10853   3.800   2.673   4.513
 3611SOL    HW110854   3.899   2.661   4.522
 3611SOL    HW210855   3.776   2.768   4.534
 3612SOL     OW10856   4.589   2.210   3.919
 3612SOL    HW110857   4.648   2.273   3.870
 3612SOL    HW210858   4.608   2.116   3.890
 3613SOL     OW10859   4.274   2.058   4.609
 3613SOL    HW110860   4.269   2.053   4.709
 3613SOL    HW210861   4.276   2.154   4.580
 3614SOL     OW10862   4.732   3.318   4.201
 3614SOL    HW110863   4.686   3.390   4.149
 3614SOL    HW210864   4.728   3.338   4.299
 3615SOL     OW10865   4.075   3.663   4.577
 3615SOL    HW110866   4.125   3.577   4.583
 3615SOL    HW210867   4.140   3.740   4.574
 3616SOL     OW10868   4.045   2.805   3.966
 3616SOL    HW110869   4.127   2.844   3.924
 3616SOL    HW210870   4.018   2.723   3.917
 3617SOL     OW10871   4.188   3.605   4.047
 3617SOL    HW110872   4.221   3.644   4.133
 3617SOL    HW210873   4.264   3.598   3.982
 3618SOL     OW10874   3.973   3.647   4.965
 3618SOL    HW110875   4.030   3.582   5.015
 3618SOL    HW210876   3.957   3.614   4.872
 3619SOL     OW10877   4.664   3.560   4.628
 3619SOL    HW110878   4.744   3.503   4.649
 3619SOL    HW210879   4.615   3.520   4.551
 3620SOL     OW10880   4.106   2.562   4.204
 3620SOL    HW110881   4.151   2.472   4.201
 3620SOL    HW210882   4.012   2.551   4.237
 3621SOL     OW10883   4.338   1.984   3.841
 3621SOL    HW110884   4.436   1.962   3.848
 3621SOL    HW210885   4.307   1.967   3.748
 3622SOL     OW10886   4.527   3.264   4.648
 3622SOL    HW110887   4.617   3.278   4.606
 3622SOL    HW210888   4.456   3.266   4.577
 3623SOL     OW10889   4.646   2.365   4.623
 3623SOL    HW110890   4.621   2.356   4.527
 3623SOL    HW210891   4.694   2.283   4.654
 3624SOL     OW10892   4.263   1.926   4.236
 3624SOL    HW110893   4.182   1.927   4.294
 3624SOL    HW210894   4.266   2.009   4.181
 3625SOL     OW10895   4.021   1.897   3.895
 3625SOL    HW110896   4.070   1.981   3.874
 3625SOL    HW210897   4.083   1.832   3.940
 3626SOL     OW10898   4.659   2.098   4.204
 3626SOL    HW110899   4.611   2.139   4.126
 3626SOL    HW210900   4.758   2.096   4.185
 3627SOL     OW10901   4.951   3.432   4.517
 3627SOL    HW110902   4.972   3.506   4.452
 3627SOL    HW210903   5.019   3.432   4.590
 3628SOL     OW10904   4.183   3.014   4.465
 3628SOL    HW110905   4.112   2.987   4.530
 3628SOL    HW210906   4.157   2.986   4.372
 3629SOL     OW10907   4.995   3.659   4.315
 3629SOL    HW110908   5.039   3.723   4.251
 3629SOL    HW210909   4.945   3.711   4.385
 3630SOL     OW10910   4.756   2.411   3.740
 3630SOL    HW110911   4.715   2.493   3.701
 3630SOL    HW210912   4.820   2.437   3.813
 3631SOL     OW10913   4.590   2.316   4.366
 3631SOL    HW110914   4.558   2.388   4.304
 3631SOL    HW210915   4.614   2.235   4.313
 3632SOL     OW10916   4.741   1.901   4.477
 3632SOL    HW110917   4.669   1.906   4.408
 3632SOL    HW210918   4.717   1.832   4.546
 3633SOL     OW10919   4.212   3.247   3.898
 3633SOL    HW110920   4.125   3.232   3.945
 3633SOL    HW210921   4.195   3.273   3.803
 3634SOL     OW10922   4.251   2.118   4.052
 3634SOL    HW110923   4.278   2.059   3.977
 3634SOL    HW210924   4.251   2.213   4.021
 3635SOL     OW10925   4.429   2.912   4.092
 3635SOL    HW110926   4.415   2.919   4.191
 3635SOL    HW210927   4.513   2.861   4.074
 3636SOL     OW10928   4.134   2.675   4.975
 3636SOL    HW110929   4.220   2.687   5.025
 3636SOL    HW210930   4.092   2.588   5.002
 3637SOL     OW10931   4.091   2.962   4.225
 3637SOL    HW110932   4.084   3.045   4.169
 3637SOL    HW210933   4.095   2.882   4.165
 3638SOL     OW10934   4.290   2.399   4.589
 3638SOL    HW110935   4.302   2.465   4.515
 3638SOL    HW210936   4.336   2.433   4.672
 3639SOL     OW10937   4.976   3.210   4.112
 3639SOL    HW110938   5.026   3.287   4.152
 3639SOL    HW210939   4.881   3.212   4.144
 3640SOL     OW10940   4.996   3.307   4.866
 3640SOL    HW110941   5.043   3.320   4.953
 3640SOL    HW210942   4.930   3.233   4.875
 3641SOL     OW10943   4.078   3.372   5.053
 3641SOL    HW110944   4.057   3.328   4.966
 3641SOL    HW210945   4.175   3.398   5.056
 3642SOL     OW10946   4.297   2.732   4.753
 3642SOL    HW110947   4.341   2.821   4.744
 3642SOL    HW210948   4.234   2.732   4.830
 3643SOL     OW10949   4.933   2.387   3.999
 3643SOL    HW110950   4.946   2.303   4.053
 3643SOL    HW210951   4.904   2.461   4.059
 3644SOL     OW10952   4.031   2.075   4.955
 3644SOL    HW110953   4.008   2.112   5.045
 3644SOL    HW210954   4.001   1.980   4.949
 3645SOL     OW10955   4.456   2.496   4.788
 3645SOL    HW110956   4.515   2.470   4.712
 3645SOL    HW210957   4.428   2.592   4.777
 3646SOL     OW10958   4.031   1.925   4.342
 3646SOL    HW110959   4.020   2.019   4.375
 3646SOL    HW210960   4.026   1.862   4.419
 3647SOL     OW10961   4.747   2.628   4.690
 3647SOL    HW110962   4.762   2.649   4.786
 3647SOL    HW210963   4.717   2.533   4.681
 3648SOL     OW10964   5.027   2.700   3.766
 3648SOL    HW110965   5.061   2.607   3.781
 3648SOL    HW210966   5.045   2.727   3.671
 3649SOL     OW10967   4.792   3.195   4.573
 3649SOL    HW110968   4.799   3.111   4.518
 3649SOL    HW210969   4.854   3.264   4.537
 3650SOL     OW10970   4.043   2.672   4.673
 3650SOL    HW110971   4.136   2.708   4.678
 3650SOL    HW210972   4.037   2.587   4.725
 3651SOL     OW10973   4.063   2.371   4.730
 3651SOL    HW110974   4.011   2.288   4.713
 3651SOL    HW210975   4.140   2.376   4.666
 3652SOL     OW10976   3.732   3.188   3.924
 3652SOL    HW110977   3.639   3.209   3.893
 3652SOL    HW210978   3.742   3.089   3.937
 3653SOL     OW10979   3.812   3.663   4.651
 3653SOL    HW110980   3.770   3.577   4.624
 3653SOL    HW210981   3.906   3.666   4.617
 3654SOL     OW10982   4.228   3.430   4.634
 3654SOL    HW110983   4.294   3.504   4.643
 3654SOL    HW210984   4.272   3.351   4.592
 3655SOL     OW10985   4.726   2.658   4.962
 3655SOL    HW110986   4.767   2.626   5.048
 3655SOL    HW210987   4.630   2.631   4.959
 3656SOL     OW10988   3.764   2.406   4.838
 3656SOL    HW110989   3.849   2.373   4.797
 3656SOL    HW210990   3.777   2.421   4.936
 3657SOL     OW10991   4.539   2.434   4.049
 3657SOL    HW110992   4.546   2.345   4.003
 3657SOL    HW210993   4.445   2.468   4.041
 3658SOL     OW10994   4.395   2.326   4.993
 3658SOL    HW110995   4.361   2.237   4.963
 3658SOL    HW210996   4.421   2.380   4.913
 3659SOL     OW10997   4.197   2.362   3.915
 3659SOL    HW110998   4.258   2.442   3.919
 3659SOL    HW210999   4.102   2.393   3.922
 3660SOL     OW11000   5.026   2.717   4.033
 3660SOL    HW111001   4.940   2.686   4.075
 3660SOL    HW211002   5.022   2.703   3.934
 3661SOL     OW11003   3.807   3.120   4.746
 3661SOL    HW111004   3.802   3.119   4.846
 3661SOL    HW211005   3.724   3.079   4.708
 3662SOL     OW11006   4.396   3.478   3.878
 3662SOL    HW111007   4.405   3.488   3.779
 3662SOL    HW211008   4.356   3.389   3.899
 3663SOL     OW11009   3.987   2.188   4.444
 3663SOL    HW111010   3.908   2.239   4.410
 3663SOL    HW211011   3.978   2.173   4.542
 3664SOL     OW11012   4.546   2.864   5.096
 3664SOL    HW111013   4.586   2.863   5.004
 3664SOL    HW211014   4.556   2.956   5.136
 3665SOL     OW11015   4.640   2.772   4.015
 3665SOL    HW111016   4.703   2.810   3.947
 3665SOL    HW211017   4.680   2.689   4.054
 3666SOL     OW11018   4.763   2.960   4.420
 3666SOL    HW111019   4.693   2.913   4.474
 3666SOL    HW211020   4.822   2.892   4.377
 3667SOL     OW11021   4.738   2.098   4.695
 3667SOL    HW111022   4.730   2.062   4.602
 3667SOL    HW211023   4.736   2.022   4.760
 3668SOL     OW11024   4.314   3.349   4.215
 3668SOL    HW111025   4.356   3.291   4.145
 3668SOL    HW211026   4.270   3.428   4.171
 3669SOL     OW11027   3.979   3.210   4.014
 3669SOL    HW111028   3.883   3.211   3.987
 3669SOL    HW211029   3.991   3.263   4.098
 3670SOL     OW11030   3.799   2.207   3.757
 3670SOL    HW111031   3.707   2.179   3.728
 3670SOL    HW211032   3.830   2.284   3.701
 3671SOL     OW11033   3.796   2.028   4.042
 3671SOL    HW111034   3.779   2.111   3.988
 3671SOL    HW211035   3.886   1.991   4.020
 3672SOL     OW11036   4.318   2.607   4.376
 3672SOL    HW111037   4.368   2.692   4.357
 3672SOL    HW211038   4.230   2.609   4.328
 3673SOL     OW11039   4.583   3.236   3.740
 3673SOL    HW111040   4.537   3.251   3.828
 3673SOL    HW211041   4.627   3.321   3.710
 3674SOL     OW11042   4.385   3.652   4.677
 3674SOL    HW111043   4.339   3.740   4.664
 3674SOL    HW211044   4.484   3.664   4.670
 3675SOL     OW11045   4.583   2.818   4.585
 3675SOL    HW111046   4.637   2.749   4.633
 3675SOL    HW211047   4.551   2.887   4.651
 3676SOL     OW11048   4.807   2.846   3.811
 3676SOL    HW111049   4.784   2.899   3.729
 3676SOL    HW211050   4.888   2.790   3.792
 3677SOL     OW11051   3.803   3.102   4.377
 3677SOL    HW111052   3.802   3.055   4.465
 3677SOL    HW211053   3.885   3.074   4.326
 3678SOL     OW11054   4.152   2.286   4.244
 3678SOL    HW111055   4.182   2.214   4.182
 3678SOL    HW211056   4.113   2.246   4.327
 3679SOL     OW11057   4.536   3.448   4.411
 3679SOL    HW111058   4.568   3.458   4.317
 3679SOL    HW211059   4.457   3.386   4.413
 3680SOL     OW11060   4.494   3.192   4.025
 3680SOL    HW111061   4.448   3.105   4.042
 3680SOL    HW211062   4.585   3.189   4.066
 3681SOL     OW11063   3.763   2.939   4.024
 3681SOL    HW111064   3.862   2.928   4.015
 3681SOL    HW211065   3.723   2.853   4.056
 3682SOL     OW11066   4.599   3.508   4.061
 3682SOL    HW111067   4.522   3.473   4.007
 3682SOL    HW211068   4.567   3.579   4.123
 3683SOL     OW11069   3.954   4.352   0.113
 3683SOL    HW111070   3.861   4.350   0.150
 3683SOL    HW211071   3.955   4.313   0.021
 3684SOL     OW11072   3.949   3.999   0.996
 3684SOL    HW111073   3.984   3.982   1.088
 3684SOL    HW211074   3.861   3.954   0.984
 3685SOL     OW11075   3.743   4.092   0.647
 3685SOL    HW111076   3.661   4.135   0.686
 3685SOL    HW211077   3.715   4.019   0.584
 3686SOL     OW11078   4.492   4.868   1.023
 3686SOL    HW111079   4.414   4.885   1.083
 3686SOL    HW211080   4.526   4.955   0.987
 3687SOL     OW11081   4.574   4.522   1.823
 3687SOL    HW111082   4.570   4.598   1.888
 3687SOL    HW211083   4.596   4.558   1.732
 3688SOL     OW11084   4.409   4.736   0.665
 3688SOL    HW111085   4.478   4.720   0.735
 3688SOL    HW211086   4.336   4.793   0.703
 3689SOL     OW11087   4.162   4.116   1.499
 3689SOL    HW111088   4.244   4.060   1.508
 3689SOL    HW211089   4.081   4.058   1.503
 3690SOL     OW11090   3.964   4.815   0.886
 3690SOL    HW111091   3.978   4.731   0.938
 3690SOL    HW211092   3.909   4.879   0.941
 3691SOL     OW11093   4.330   4.688   0.123
 3691SOL    HW111094   4.337   4.772   0.069
 3691SOL    HW211095   4.376   4.701   0.211
 3692SOL     OW11096   3.846   4.367   0.563
 3692SOL    HW111097   3.801   4.279   0.580
 3692SOL    HW211098   3.845   4.421   0.647
 3693SOL     OW11099   3.837   4.461   1.597
 3693SOL    HW111100   3.925   4.448   1.642
 3693SOL    HW211101   3.824   4.558   1.575
 3694SOL     OW11102   4.337   5.089   0.726
 3694SOL    HW111103   4.288   5.002   0.735
 3694SOL    HW211104   4.314   5.132   0.639
 3695SOL     OW11105   4.533   3.728   0.502
 3695SOL    HW111106   4.573   3.819   0.493
 3695SOL    HW211107   4.433   3.736   0.508
 3696SOL     OW11108   3.921   4.700   1.264
 3696SOL    HW111109   4.010   4.655   1.250
 3696SOL    HW211110   3.848   4.635   1.245
 3697SOL     OW11111   4.041   3.975   1.801
 3697SOL    HW111112   4.112   4.046   1.807
 3697SOL    HW211113   3.953   4.014   1.829
 3698SOL     OW11114   4.322   4.453   0.270
 3698SOL    HW111115   4.346   4.522   0.202
 3698SOL    HW211116   4.244   4.486   0.324
 3699SOL     OW11117   4.531   4.329   1.465
 3699SOL    HW111118   4.484   4.326   1.554
 3699SOL    HW211119   4.480   4.274   1.399
 3700SOL     OW11120   4.697   4.614   1.572
 3700SOL    HW111121   4.743   4.530   1.543
 3700SOL    HW211122   4.641   4.648   1.497
 3701SOL     OW11123   4.715   4.134   1.242
 3701SOL    HW111124   4.638   4.168   1.296
 3701SOL    HW211125   4.681   4.083   1.163
 3702SOL     OW11126   4.765   4.425   0.429
 3702SOL    HW111127   4.791   4.421   0.525
 3702SOL    HW211128   4.680   4.374   0.415
 3703SOL     OW11129   3.800   4.535   0.789
 3703SOL    HW111130   3.899   4.523   0.798
 3703SOL    HW211131   3.776   4.630   0.810
 3704SOL     OW11132   4.589   4.072   0.195
 3704SOL    HW111133   4.648   4.135   0.146
 3704SOL    HW211134   4.608   3.978   0.166
 3705SOL     OW11135   4.274   3.920   0.885
 3705SOL    HW111136   4.269   3.915   0.985
 3705SOL    HW211137   4.276   4.016   0.856
 3706SOL     OW11138   4.045   4.667   0.242
 3706SOL    HW111139   4.127   4.706   0.200
 3706SOL    HW211140   4.018   4.585   0.193
 3707SOL     OW11141   3.926   4.009   1.498
 3707SOL    HW111142   3.846   4.069   1.485
 3707SOL    HW211143   3.916   3.960   1.584
 3708SOL     OW11144   4.106   4.424   0.480
 3708SOL    HW111145   4.151   4.334   0.477
 3708SOL    HW211146   4.012   4.413   0.513
 3709SOL     OW11147   4.338   3.846   0.117
 3709SOL    HW111148   4.436   3.824   0.124
 3709SOL    HW211149   4.307   3.829   0.024
 3710SOL     OW11150   4.505   3.988   1.749
 3710SOL    HW111151   4.572   3.927   1.792
 3710SOL    HW211152   4.432   4.007   1.814
 3711SOL     OW11153   4.646   4.227   0.899
 3711SOL    HW111154   4.621   4.218   0.803
 3711SOL    HW211155   4.694   4.145   0.930
 3712SOL     OW11156   4.263   3.788   0.512
 3712SOL    HW111157   4.182   3.789   0.570
 3712SOL    HW211158   4.266   3.871   0.457
 3713SOL     OW11159   4.021   3.759   0.171
 3713SOL    HW111160   4.070   3.843   0.150
 3713SOL    HW211161   4.083   3.694   0.216
 3714SOL     OW11162   4.659   3.960   0.480
 3714SOL    HW111163   4.611   4.001   0.402
 3714SOL    HW211164   4.758   3.958   0.461
 3715SOL     OW11165   4.183   4.876   0.741
 3715SOL    HW111166   4.112   4.849   0.806
 3715SOL    HW211167   4.157   4.848   0.648
 3716SOL     OW11168   4.756   4.273   0.016
 3716SOL    HW111169   4.715   4.355  -0.023
 3716SOL    HW211170   4.820   4.299   0.089
 3717SOL     OW11171   3.802   4.280   1.386
 3717SOL    HW111172   3.894   4.279   1.345
 3717SOL    HW211173   3.796   4.354   1.453
 3718SOL     OW11174   4.285   3.946   1.147
 3718SOL    HW111175   4.323   3.862   1.184
 3718SOL    HW211176   4.197   3.965   1.191
 3719SOL     OW11177   4.590   4.178   0.642
 3719SOL    HW111178   4.558   4.250   0.580
 3719SOL    HW211179   4.614   4.097   0.589
 3720SOL     OW11180   4.741   3.763   0.753
 3720SOL    HW111181   4.669   3.768   0.684
 3720SOL    HW211182   4.717   3.694   0.822
 3721SOL     OW11183   4.251   3.980   0.328
 3721SOL    HW111184   4.278   3.921   0.253
 3721SOL    HW211185   4.251   4.075   0.297
 3722SOL     OW11186   4.639   3.813   1.402
 3722SOL    HW111187   4.664   3.793   1.307
 3722SOL    HW211188   4.711   3.869   1.444
 3723SOL     OW11189   4.429   4.774   0.368
 3723SOL    HW111190   4.415   4.781   0.467
 3723SOL    HW211191   4.513   4.723   0.350
 3724SOL     OW11192   4.134   4.537   1.251
 3724SOL    HW111193   4.220   4.549   1.301
 3724SOL    HW211194   4.092   4.450   1.278
 3725SOL     OW11195   4.091   4.824   0.501
 3725SOL    HW111196   4.084   4.907   0.445
 3725SOL    HW211197   4.095   4.744   0.441
 3726SOL     OW11198   4.290   4.261   0.865
 3726SOL    HW111199   4.302   4.327   0.791
 3726SOL    HW211200   4.336   4.295   0.948
 3727SOL     OW11201   4.126   4.475   1.598
 3727SOL    HW111202   4.194   4.530   1.551
 3727SOL    HW211203   4.166   4.387   1.625
 3728SOL     OW11204   4.737   3.829   1.770
 3728SOL    HW111205   4.743   3.914   1.718
 3728SOL    HW211206   4.769   3.753   1.713
 3729SOL     OW11207   4.228   3.774   1.740
 3729SOL    HW111208   4.186   3.717   1.670
 3729SOL    HW211209   4.162   3.843   1.772
 3730SOL     OW11210   4.297   4.594   1.029
 3730SOL    HW111211   4.341   4.683   1.020
 3730SOL    HW211212   4.234   4.594   1.106
 3731SOL     OW11213   4.933   4.249   0.275
 3731SOL    HW111214   4.946   4.165   0.329
 3731SOL    HW211215   4.904   4.323   0.335
 3732SOL     OW11216   4.031   3.937   1.231
 3732SOL    HW111217   4.008   3.974   1.321
 3732SOL    HW211218   4.001   3.842   1.225
 3733SOL     OW11219   4.456   4.358   1.064
 3733SOL    HW111220   4.515   4.332   0.988
 3733SOL    HW211221   4.428   4.454   1.053
 3734SOL     OW11222   4.031   3.787   0.618
 3734SOL    HW111223   4.020   3.881   0.651
 3734SOL    HW211224   4.026   3.724   0.695
 3735SOL     OW11225   4.747   4.490   0.966
 3735SOL    HW111226   4.762   4.511   1.062
 3735SOL    HW211227   4.717   4.395   0.957
 3736SOL     OW11228   4.074   4.622   1.804
 3736SOL    HW111229   4.150   4.666   1.852
 3736SOL    HW211230   4.109   4.575   1.722
 3737SOL     OW11231   4.043   4.534   0.949
 3737SOL    HW111232   4.136   4.570   0.954
 3737SOL    HW211233   4.037   4.449   1.001
 3738SOL     OW11234   4.063   4.233   1.006
 3738SOL    HW111235   4.011   4.150   0.989
 3738SOL    HW211236   4.140   4.238   0.942
 3739SOL     OW11237   4.862   4.104   1.678
 3739SOL    HW111238   4.817   4.167   1.742
 3739SOL    HW211239   4.955   4.135   1.661
 3740SOL     OW11240   4.884   3.931   1.477
 3740SOL    HW111241   4.884   3.995   1.554
 3740SOL    HW211242   4.912   3.979   1.394
 3741SOL     OW11243   4.726   4.520   1.238
 3741SOL    HW111244   4.767   4.488   1.324
 3741SOL    HW211245   4.630   4.493   1.235
 3742SOL     OW11246   3.764   4.268   1.114
 3742SOL    HW111247   3.849   4.235   1.073
 3742SOL    HW211248   3.777   4.283   1.212
 3743SOL     OW11249   3.913   4.244   1.722
 3743SOL    HW111250   3.972   4.204   1.652
 3743SOL    HW211251   3.855   4.315   1.681
 3744SOL     OW11252   4.539   4.296   0.325
 3744SOL    HW111253   4.546   4.207   0.279
 3744SOL    HW211254   4.445   4.330   0.317
 3745SOL     OW11255   4.395   4.188   1.269
 3745SOL    HW111256   4.361   4.099   1.239
 3745SOL    HW211257   4.421   4.242   1.189
 3746SOL     OW11258   4.197   4.224   0.191
 3746SOL    HW111259   4.258   4.304   0.195
 3746SOL    HW211260   4.102   4.255   0.198
 3747SOL     OW11261   3.883   4.861   1.466
 3747SOL    HW111262   3.905   4.800   1.542
 3747SOL    HW211263   3.893   4.812   1.380
 3748SOL     OW11264   5.026   4.579   0.309
 3748SOL    HW111265   4.940   4.548   0.351
 3748SOL    HW211266   5.022   4.565   0.210
 3749SOL     OW11267   4.627   3.810   0.133
 3749SOL    HW111268   4.678   3.811   0.047
 3749SOL    HW211269   4.683   3.768   0.204
 3750SOL     OW11270   3.987   4.050   0.720
 3750SOL    HW111271   3.908   4.101   0.686
 3750SOL    HW211272   3.978   4.035   0.818
 3751SOL     OW11273   4.546   4.726   1.372
 3751SOL    HW111274   4.586   4.725   1.280
 3751SOL    HW211275   4.556   4.818   1.412
 3752SOL     OW11276   4.640   4.634   0.291
 3752SOL    HW111277   4.703   4.672   0.223
 3752SOL    HW211278   4.680   4.551   0.330
 3753SOL     OW11279   4.096   5.012   1.490
 3753SOL    HW111280   4.083   5.105   1.456
 3753SOL    HW211281   4.012   4.960   1.477
 3754SOL     OW11282   4.738   3.960   0.971
 3754SOL    HW111283   4.730   3.924   0.878
 3754SOL    HW211284   4.736   3.884   1.036
 3755SOL     OW11285   3.829   4.737   1.726
 3755SOL    HW111286   3.752   4.704   1.780
 3755SOL    HW211287   3.914   4.707   1.768
 3756SOL     OW11288   4.396   3.927   1.489
 3756SOL    HW111289   4.486   3.911   1.449
 3756SOL    HW211290   4.404   3.932   1.588
 3757SOL     OW11291   3.796   3.890   0.318
 3757SOL    HW111292   3.779   3.973   0.264
 3757SOL    HW211293   3.886   3.853   0.296
 3758SOL     OW11294   4.337   4.566   1.431
 3758SOL    HW111295   4.393   4.647   1.414
 3758SOL    HW211296   4.396   4.486   1.434
 3759SOL     OW11297   4.440   4.289   1.708
 3759SOL    HW111298   4.459   4.354   1.782
 3759SOL    HW211299   4.500   4.209   1.717
 3760SOL     OW11300   4.318   4.469   0.652
 3760SOL    HW111301   4.368   4.554   0.633
 3760SOL    HW211302   4.230   4.471   0.604
 3761SOL     OW11303   4.583   4.680   0.861
 3761SOL    HW111304   4.637   4.611   0.909
 3761SOL    HW211305   4.551   4.749   0.927
 3762SOL     OW11306   4.807   4.708   0.087
 3762SOL    HW111307   4.784   4.761   0.005
 3762SOL    HW211308   4.888   4.652   0.068
 3763SOL     OW11309   3.803   4.964   0.653
 3763SOL    HW111310   3.802   4.917   0.741
 3763SOL    HW211311   3.885   4.936   0.602
 3764SOL     OW11312   4.152   4.148   0.520
 3764SOL    HW111313   4.182   4.076   0.458
 3764SOL    HW211314   4.113   4.108   0.603
 3765SOL     OW11315   4.041   4.271   1.280
 3765SOL    HW111316   4.079   4.212   1.352
 3765SOL    HW211317   4.081   4.245   1.192
 3766SOL     OW11318   4.725   3.758   1.154
 3766SOL    HW111319   4.662   3.686   1.123
 3766SOL    HW211320   4.818   3.722   1.154
 3767SOL     OW11321   4.494   5.054   0.301
 3767SOL    HW111322   4.448   4.967   0.318
 3767SOL    HW211323   4.585   5.051   0.342
 3768SOL     OW11324   3.763   4.801   0.300
 3768SOL    HW111325   3.862   4.790   0.291
 3768SOL    HW211326   3.723   4.715   0.332
 3769SOL     OW11327   3.954   4.352   1.975
 3769SOL    HW111328   3.861   4.350   2.012
 3769SOL    HW211329   3.955   4.313   1.883
 3770SOL     OW11330   3.949   3.999   2.858
 3770SOL    HW111331   3.984   3.982   2.950
 3770SOL    HW211332   3.861   3.954   2.846
 3771SOL     OW11333   3.743   4.092   2.509
 3771SOL    HW111334   3.661   4.135   2.548
 3771SOL    HW211335   3.715   4.019   2.446
 3772SOL     OW11336   4.492   4.868   2.885
 3772SOL    HW111337   4.414   4.885   2.945
 3772SOL    HW211338   4.526   4.955   2.849
 3773SOL     OW11339   4.574   4.522   3.685
 3773SOL    HW111340   4.570   4.598   3.750
 3773SOL    HW211341   4.596   4.558   3.594
 3774SOL     OW11342   4.409   4.736   2.527
 3774SOL    HW111343   4.478   4.720   2.597
 3774SOL    HW211344   4.336   4.793   2.565
 3775SOL     OW11345   4.162   4.116   3.361
 3775SOL    HW111346   4.244   4.060   3.370
 3775SOL    HW211347   4.081   4.058   3.365
 3776SOL     OW11348   3.964   4.815   2.748
 3776SOL    HW111349   3.978   4.731   2.800
 3776SOL    HW211350   3.909   4.879   2.803
 3777SOL     OW11351   4.330   4.688   1.985
 3777SOL    HW111352   4.337   4.772   1.931
 3777SOL    HW211353   4.376   4.701   2.073
 3778SOL     OW11354   3.846   4.367   2.425
 3778SOL    HW111355   3.801   4.279   2.442
 3778SOL    HW211356   3.845   4.421   2.509
 3779SOL     OW11357   3.837   4.461   3.459
 3779SOL    HW111358   3.925   4.448   3.504
 3779SOL    HW211359   3.824   4.558   3.437
 3780SOL     OW11360   4.337   5.089   2.588
 3780SOL    HW111361   4.288   5.002   2.597
 3780SOL    HW211362   4.314   5.132   2.501
 3781SOL     OW11363   4.533   3.728   2.364
 3781SOL    HW111364   4.573   3.819   2.355
 3781SOL    HW211365   4.433   3.736   2.370
 3782SOL     OW11366   3.921   4.700   3.126
 3782SOL    HW111367   4.010   4.655   3.112
 3782SOL    HW211368   3.848   4.635   3.107
 3783SOL     OW11369   4.041   3.975   3.663
 3783SOL    HW111370   4.112   4.046   3.669
 3783SOL    HW211371   3.953   4.014   3.691
 3784SOL     OW11372   4.322   4.453   2.132
 3784SOL    HW111373   4.346   4.522   2.064
 3784SOL    HW211374   4.244   4.486   2.186
 3785SOL     OW11375   4.531   4.329   3.327
 3785SOL    HW111376   4.484   4.326   3.416
 3785SOL    HW211377   4.480   4.274   3.261
 3786SOL     OW11378   4.697   4.614   3.434
 3786SOL    HW111379   4.743   4.530   3.405
 3786SOL    HW211380   4.641   4.648   3.359
 3787SOL     OW11381   4.715   4.134   3.104
 3787SOL    HW111382   4.638   4.168   3.158
 3787SOL    HW211383   4.681   4.083   3.025
 3788SOL     OW11384   4.765   4.425   2.291
 3788SOL    HW111385   4.791   4.421   2.387
 3788SOL    HW211386   4.680   4.374   2.277
 3789SOL     OW11387   3.800   4.535   2.651
 3789SOL    HW111388   3.899   4.523   2.660
 3789SOL    HW211389   3.776   4.630   2.672
 3790SOL     OW11390   4.589   4.072   2.057
 3790SOL    HW111391   4.648   4.135   2.008
 3790SOL    HW211392   4.608   3.978   2.028
 3791SOL     OW11393   4.274   3.920   2.747
 3791SOL    HW111394   4.269   3.915   2.847
 3791SOL    HW211395   4.276   4.016   2.718
 3792SOL     OW11396   4.045   4.667   2.104
 3792SOL    HW111397   4.127   4.706   2.062
 3792SOL    HW211398   4.018   4.585   2.055
 3793SOL     OW11399   3.926   4.009   3.360
 3793SOL    HW111400   3.846   4.069   3.347
 3793SOL    HW211401   3.916   3.960   3.446
 3794SOL     OW11402   4.106   4.424   2.342
 3794SOL    HW111403   4.151   4.334   2.339
 3794SOL    HW211404   4.012   4.413   2.375
 3795SOL     OW11405   4.338   3.846   1.979
 3795SOL    HW111406   4.436   3.824   1.986
 3795SOL    HW211407   4.307   3.829   1.886
 3796SOL     OW11408   4.505   3.988   3.611
 3796SOL    HW111409   4.572   3.927   3.654
 3796SOL    HW211410   4.432   4.007   3.676
 3797SOL     OW11411   4.646   4.227   2.761
 3797SOL    HW111412   4.621   4.218   2.665
 3797SOL    HW211413   4.694   4.145   2.792
 3798SOL     OW11414   4.263   3.788   2.374
 3798SOL    HW111415   4.182   3.789   2.432
 3798SOL    HW211416   4.266   3.871   2.319
 3799SOL     OW11417   4.021   3.759   2.033
 3799SOL    HW111418   4.070   3.843   2.012
 3799SOL    HW211419   4.083   3.694   2.078
 3800SOL     OW11420   4.659   3.960   2.342
 3800SOL    HW111421   4.611   4.001   2.264
 3800SOL    HW211422   4.758   3.958   2.323
 3801SOL     OW11423   4.183   4.876   2.603
 3801SOL    HW111424   4.112   4.849   2.668
 3801SOL    HW211425   4.157   4.848   2.510
 3802SOL     OW11426   4.756   4.273   1.878
 3802SOL    HW111427   4.715   4.355   1.839
 3802SOL    HW211428   4.820   4.299   1.951
 3803SOL     OW11429   3.802   4.280   3.248
 3803SOL    HW111430   3.894   4.279   3.207
 3803SOL    HW211431   3.796   4.354   3.315
 3804SOL     OW11432   4.285   3.946   3.009
 3804SOL    HW111433   4.323   3.862   3.046
 3804SOL    HW211434   4.197   3.965   3.053
 3805SOL     OW11435   4.590   4.178   2.504
 3805SOL    HW111436   4.558   4.250   2.442
 3805SOL    HW211437   4.614   4.097   2.451
 3806SOL     OW11438   4.741   3.763   2.615
 3806SOL    HW111439   4.669   3.768   2.546
 3806SOL    HW211440   4.717   3.694   2.684
 3807SOL     OW11441   4.251   3.980   2.190
 3807SOL    HW111442   4.278   3.921   2.115
 3807SOL    HW211443   4.251   4.075   2.159
 3808SOL     OW11444   4.639   3.813   3.264
 3808SOL    HW111445   4.664   3.793   3.169
 3808SOL    HW211446   4.711   3.869   3.306
 3809SOL     OW11447   4.429   4.774   2.230
 3809SOL    HW111448   4.415   4.781   2.329
 3809SOL    HW211449   4.513   4.723   2.212
 3810SOL     OW11450   4.134   4.537   3.113
 3810SOL    HW111451   4.220   4.549   3.163
 3810SOL    HW211452   4.092   4.450   3.140
 3811SOL     OW11453   4.091   4.824   2.363
 3811SOL    HW111454   4.084   4.907   2.307
 3811SOL    HW211455   4.095   4.744   2.303
 3812SOL     OW11456   4.290   4.261   2.727
 3812SOL    HW111457   4.302   4.327   2.653
 3812SOL    HW211458   4.336   4.295   2.810
 3813SOL     OW11459   4.126   4.475   3.460
 3813SOL    HW111460   4.194   4.530   3.413
 3813SOL    HW211461   4.166   4.387   3.487
 3814SOL     OW11462   4.737   3.829   3.632
 3814SOL    HW111463   4.743   3.914   3.580
 3814SOL    HW211464   4.769   3.753   3.575
 3815SOL     OW11465   4.228   3.774   3.602
 3815SOL    HW111466   4.186   3.717   3.532
 3815SOL    HW211467   4.162   3.843   3.634
 3816SOL     OW11468   4.297   4.594   2.891
 3816SOL    HW111469   4.341   4.683   2.882
 3816SOL    HW211470   4.234   4.594   2.968
 3817SOL     OW11471   4.933   4.249   2.137
 3817SOL    HW111472   4.946   4.165   2.191
 3817SOL    HW211473   4.904   4.323   2.197
 3818SOL     OW11474   4.031   3.937   3.093
 3818SOL    HW111475   4.008   3.974   3.183
 3818SOL    HW211476   4.001   3.842   3.087
 3819SOL     OW11477   4.456   4.358   2.926
 3819SOL    HW111478   4.515   4.332   2.850
 3819SOL    HW211479   4.428   4.454   2.915
 3820SOL     OW11480   4.031   3.787   2.480
 3820SOL    HW111481   4.020   3.881   2.513
 3820SOL    HW211482   4.026   3.724   2.557
 3821SOL     OW11483   4.747   4.490   2.828
 3821SOL    HW111484   4.762   4.511   2.924
 3821SOL    HW211485   4.717   4.395   2.819
 3822SOL     OW11486   4.074   4.622   3.666
 3822SOL    HW111487   4.150   4.666   3.714
 3822SOL    HW211488   4.109   4.575   3.584
 3823SOL     OW11489   5.027   4.562   1.904
 3823SOL    HW111490   5.061   4.469   1.919
 3823SOL    HW211491   5.045   4.589   1.809
 3824SOL     OW11492   4.043   4.534   2.811
 3824SOL    HW111493   4.136   4.570   2.816
 3824SOL    HW211494   4.037   4.449   2.863
 3825SOL     OW11495   4.063   4.233   2.868
 3825SOL    HW111496   4.011   4.150   2.851
 3825SOL    HW211497   4.140   4.238   2.804
 3826SOL     OW11498   4.862   4.104   3.540
 3826SOL    HW111499   4.817   4.167   3.604
 3826SOL    HW211500   4.955   4.135   3.523
 3827SOL     OW11501   4.884   3.931   3.339
 3827SOL    HW111502   4.884   3.995   3.416
 3827SOL    HW211503   4.912   3.979   3.256
 3828SOL     OW11504   4.726   4.520   3.100
 3828SOL    HW111505   4.767   4.488   3.186
 3828SOL    HW211506   4.630   4.493   3.097
 3829SOL     OW11507   3.764   4.268   2.976
 3829SOL    HW111508   3.849   4.235   2.935
 3829SOL    HW211509   3.777   4.283   3.074
 3830SOL     OW11510   3.913   4.244   3.584
 3830SOL    HW111511   3.972   4.204   3.514
 3830SOL    HW211512   3.855   4.315   3.543
 3831SOL     OW11513   4.539   4.296   2.187
 3831SOL    HW111514   4.546   4.207   2.141
 3831SOL    HW211515   4.445   4.330   2.179
 3832SOL     OW11516   4.395   4.188   3.131
 3832SOL    HW111517   4.361   4.099   3.101
 3832SOL    HW211518   4.421   4.242   3.051
 3833SOL     OW11519   4.197   4.224   2.053
 3833SOL    HW111520   4.258   4.304   2.057
 3833SOL    HW211521   4.102   4.255   2.060
 3834SOL     OW11522   3.883   4.861   3.328
 3834SOL    HW111523   3.905   4.800   3.404
 3834SOL    HW211524   3.893   4.812   3.242
 3835SOL     OW11525   5.026   4.579   2.171
 3835SOL    HW111526   4.940   4.548   2.213
 3835SOL    HW211527   5.022   4.565   2.072
 3836SOL     OW11528   3.987   4.050   2.582
 3836SOL    HW111529   3.908   4.101   2.548
 3836SOL    HW211530   3.978   4.035   2.680
 3837SOL     OW11531   4.546   4.726   3.234
 3837SOL    HW111532   4.586   4.725   3.142
 3837SOL    HW211533   4.556   4.818   3.274
 3838SOL     OW11534   4.640   4.634   2.153
 3838SOL    HW111535   4.703   4.672   2.085
 3838SOL    HW211536   4.680   4.551   2.192
 3839SOL     OW11537   4.096   5.012   3.352
 3839SOL    HW111538   4.083   5.105   3.318
 3839SOL    HW211539   4.012   4.960   3.339
 3840SOL     OW11540   4.738   3.960   2.833
 3840SOL    HW111541   4.730   3.924   2.740
 3840SOL    HW211542   4.736   3.884   2.898
 3841SOL     OW11543   3.829   4.737   3.588
 3841SOL    HW111544   3.752   4.704   3.642
 3841SOL    HW211545   3.914   4.707   3.630
 3842SOL     OW11546   4.396   3.927   3.351
 3842SOL    HW111547   4.486   3.911   3.311
 3842SOL    HW211548   4.404   3.932   3.450
 3843SOL     OW11549   3.799   4.069   1.895
 3843SOL    HW111550   3.707   4.041   1.866
 3843SOL    HW211551   3.830   4.146   1.839
 3844SOL     OW11552   3.796   3.890   2.180
 3844SOL    HW111553   3.779   3.973   2.126
 3844SOL    HW211554   3.886   3.853   2.158
 3845SOL     OW11555   4.337   4.566   3.293
 3845SOL    HW111556   4.393   4.647   3.276
 3845SOL    HW211557   4.396   4.486   3.296
 3846SOL     OW11558   4.440   4.289   3.570
 3846SOL    HW111559   4.459   4.354   3.644
 3846SOL    HW211560   4.500   4.209   3.579
 3847SOL     OW11561   4.318   4.469   2.514
 3847SOL    HW111562   4.368   4.554   2.495
 3847SOL    HW211563   4.230   4.471   2.466
 3848SOL     OW11564   4.583   4.680   2.723
 3848SOL    HW111565   4.637   4.611   2.771
 3848SOL    HW211566   4.551   4.749   2.789
 3849SOL     OW11567   4.807   4.708   1.949
 3849SOL    HW111568   4.784   4.761   1.867
 3849SOL    HW211569   4.888   4.652   1.930
 3850SOL     OW11570   3.803   4.964   2.515
 3850SOL    HW111571   3.802   4.917   2.603
 3850SOL    HW211572   3.885   4.936   2.464
 3851SOL     OW11573   4.152   4.148   2.382
 3851SOL    HW111574   4.182   4.076   2.320
 3851SOL    HW211575   4.113   4.108   2.465
 3852SOL     OW11576   4.041   4.271   3.142
 3852SOL    HW111577   4.079   4.212   3.214
 3852SOL    HW211578   4.081   4.245   3.054
 3853SOL     OW11579   4.725   3.758   3.016
 3853SOL    HW111580   4.662   3.686   2.985
 3853SOL    HW211581   4.818   3.722   3.016
 3854SOL     OW11582   4.494   5.054   2.163
 3854SOL    HW111583   4.448   4.967   2.180
 3854SOL    HW211584   4.585   5.051   2.204
 3855SOL     OW11585   3.763   4.801   2.162
 3855SOL    HW111586   3.862   4.790   2.153
 3855SOL    HW211587   3.723   4.715   2.194
 3856SOL     OW11588   3.954   4.352   3.837
 3856SOL    HW111589   3.861   4.350   3.874
 3856SOL    HW211590   3.955   4.313   3.745
 3857SOL     OW11591   3.949   3.999   4.720
 3857SOL    HW111592   3.984   3.982   4.812
 3857SOL    HW211593   3.861   3.954   4.708
 3858SOL     OW11594   3.743   4.092   4.371
 3858SOL    HW111595   3.661   4.135   4.410
 3858SOL    HW211596   3.715   4.019   4.308
 3859SOL     OW11597   4.492   4.868   4.747
 3859SOL    HW111598   4.414   4.885   4.807
 3859SOL    HW211599   4.526   4.955   4.711
 3860SOL     OW11600   4.409   4.736   4.389
 3860SOL    HW111601   4.478   4.720   4.459
 3860SOL    HW211602   4.336   4.793   4.427
 3861SOL     OW11603   3.964   4.815   4.610
 3861SOL    HW111604   3.978   4.731   4.662
 3861SOL    HW211605   3.909   4.879   4.665
 3862SOL     OW11606   4.330   4.688   3.847
 3862SOL    HW111607   4.337   4.772   3.793
 3862SOL    HW211608   4.376   4.701   3.935
 3863SOL     OW11609   3.846   4.367   4.287
 3863SOL    HW111610   3.801   4.279   4.304
 3863SOL    HW211611   3.845   4.421   4.371
 3864SOL     OW11612   4.337   5.089   4.450
 3864SOL    HW111613   4.288   5.002   4.459
 3864SOL    HW211614   4.314   5.132   4.363
 3865SOL     OW11615   4.533   3.728   4.226
 3865SOL    HW111616   4.573   3.819   4.217
 3865SOL    HW211617   4.433   3.736   4.232
 3866SOL     OW11618   3.921   4.700   4.988
 3866SOL    HW111619   4.010   4.655   4.974
 3866SOL    HW211620   3.848   4.635   4.969
 3867SOL     OW11621   4.322   4.453   3.994
 3867SOL    HW111622   4.346   4.522   3.926
 3867SOL    HW211623   4.244   4.486   4.048
 3868SOL     OW11624   4.765   4.425   4.153
 3868SOL    HW111625   4.791   4.421   4.249
 3868SOL    HW211626   4.680   4.374   4.139
 3869SOL     OW11627   3.800   4.535   4.513
 3869SOL    HW111628   3.899   4.523   4.522
 3869SOL    HW211629   3.776   4.630   4.534
 3870SOL     OW11630   4.589   4.072   3.919
 3870SOL    HW111631   4.648   4.135   3.870
 3870SOL    HW211632   4.608   3.978   3.890
 3871SOL     OW11633   4.274   3.920   4.609
 3871SOL    HW111634   4.269   3.915   4.709
 3871SOL    HW211635   4.276   4.016   4.580
 3872SOL     OW11636   4.045   4.667   3.966
 3872SOL    HW111637   4.127   4.706   3.924
 3872SOL    HW211638   4.018   4.585   3.917
 3873SOL     OW11639   4.106   4.424   4.204
 3873SOL    HW111640   4.151   4.334   4.201
 3873SOL    HW211641   4.012   4.413   4.237
 3874SOL     OW11642   4.338   3.846   3.841
 3874SOL    HW111643   4.436   3.824   3.848
 3874SOL    HW211644   4.307   3.829   3.748
 3875SOL     OW11645   4.612   5.238   4.919
 3875SOL    HW111646   4.589   5.213   4.825
 3875SOL    HW211647   4.673   5.169   4.958
 3876SOL     OW11648   4.646   4.227   4.623
 3876SOL    HW111649   4.621   4.218   4.527
 3876SOL    HW211650   4.694   4.145   4.654
 3877SOL     OW11651   4.263   3.788   4.236
 3877SOL    HW111652   4.182   3.789   4.294
 3877SOL    HW211653   4.266   3.871   4.181
 3878SOL     OW11654   4.021   3.759   3.895
 3878SOL    HW111655   4.070   3.843   3.874
 3878SOL    HW211656   4.083   3.694   3.940
 3879SOL     OW11657   4.659   3.960   4.204
 3879SOL    HW111658   4.611   4.001   4.126
 3879SOL    HW211659   4.758   3.958   4.185
 3880SOL     OW11660   4.183   4.876   4.465
 3880SOL    HW111661   4.112   4.849   4.530
 3880SOL    HW211662   4.157   4.848   4.372
 3881SOL     OW11663   4.756   4.273   3.740
 3881SOL    HW111664   4.715   4.355   3.701
 3881SOL    HW211665   4.820   4.299   3.813
 3882SOL     OW11666   4.590   4.178   4.366
 3882SOL    HW111667   4.558   4.250   4.304
 3882SOL    HW211668   4.614   4.097   4.313
 3883SOL     OW11669   4.741   3.763   4.477
 3883SOL    HW111670   4.669   3.768   4.408
 3883SOL    HW211671   4.717   3.694   4.546
 3884SOL     OW11672   4.251   3.980   4.052
 3884SOL    HW111673   4.278   3.921   3.977
 3884SOL    HW211674   4.251   4.075   4.021
 3885SOL     OW11675   4.429   4.774   4.092
 3885SOL    HW111676   4.415   4.781   4.191
 3885SOL    HW211677   4.513   4.723   4.074
 3886SOL     OW11678   4.134   4.537   4.975
 3886SOL    HW111679   4.220   4.549   5.025
 3886SOL    HW211680   4.092   4.450   5.002
 3887SOL     OW11681   4.091   4.824   4.225
 3887SOL    HW111682   4.084   4.907   4.169
 3887SOL    HW211683   4.095   4.744   4.165
 3888SOL     OW11684   4.290   4.261   4.589
 3888SOL    HW111685   4.302   4.327   4.515
 3888SOL    HW211686   4.336   4.295   4.672
 3889SOL     OW11687   4.297   4.594   4.753
 3889SOL    HW111688   4.341   4.683   4.744
 3889SOL    HW211689   4.234   4.594   4.830
 3890SOL     OW11690   4.933   4.249   3.999
 3890SOL    HW111691   4.946   4.165   4.053
 3890SOL    HW211692   4.904   4.323   4.059
 3891SOL     OW11693   4.031   3.937   4.955
 3891SOL    HW111694   4.008   3.974   5.045
 3891SOL    HW211695   4.001   3.842   4.949
 3892SOL     OW11696   4.456   4.358   4.788
 3892SOL    HW111697   4.515   4.332   4.712
 3892SOL    HW211698   4.428   4.454   4.777
 3893SOL     OW11699   4.031   3.787   4.342
 3893SOL    HW111700   4.020   3.881   4.375
 3893SOL    HW211701   4.026   3.724   4.419
 3894SOL     OW11702   4.747   4.490   4.690
 3894SOL    HW111703   4.762   4.511   4.786
 3894SOL    HW211704   4.717   4.395   4.681
 3895SOL     OW11705   5.027   4.562   3.766
 3895SOL    HW111706   5.061   4.469   3.781
 3895SOL    HW211707   5.045   4.589   3.671
 3896SOL     OW11708   4.043   4.534   4.673
 3896SOL    HW111709   4.136   4.570   4.678
 3896SOL    HW211710   4.037   4.449   4.725
 3897SOL     OW11711   4.063   4.233   4.730
 3897SOL    HW111712   4.011   4.150   4.713
 3897SOL    HW211713   4.140   4.238   4.666
 3898SOL     OW11714   4.726   4.520   4.962
 3898SOL    HW111715   4.767   4.488   5.048
 3898SOL    HW211716   4.630   4.493   4.959
 3899SOL     OW11717   3.764   4.268   4.838
 3899SOL    HW111718   3.849   4.235   4.797
 3899SOL    HW211719   3.777   4.283   4.936
 3900SOL     OW11720   4.539   4.296   4.049
 3900SOL    HW111721   4.546   4.207   4.003
 3900SOL    HW211722   4.445   4.330   4.041
 3901SOL     OW11723   4.395   4.188   4.993
 3901SOL    HW111724   4.361   4.099   4.963
 3901SOL    HW211725   4.421   4.242   4.913
 3902SOL     OW11726   4.197   4.224   3.915
 3902SOL    HW111727   4.258   4.304   3.919
 3902SOL    HW211728   4.102   4.255   3.922
 3903SOL     OW11729   5.026   4.579   4.033
 3903SOL    HW111730   4.940   4.548   4.075
 3903SOL    HW211731   5.022   4.565   3.934
 3904SOL     OW11732   3.987   4.050   4.444
 3904SOL    HW111733   3.908   4.101   4.410
 3904SOL    HW211734   3.978   4.035   4.542
 3905SOL     OW11735   4.546   4.726   5.096
 3905SOL    HW111736   4.586   4.725   5.004
 3905SOL    HW211737   4.556   4.818   5.136
 3906SOL     OW11738   4.640   4.634   4.015
 3906SOL    HW111739   4.703   4.672   3.947
 3906SOL    HW211740   4.680   4.551   4.054
 3907SOL     OW11741   4.738   3.960   4.695
 3907SOL    HW111742   4.730   3.924   4.602
 3907SOL    HW211743   4.736   3.884   4.760
 3908SOL     OW11744   3.799   4.069   3.757
 3908SOL    HW111745   3.707   4.041   3.728
 3908SOL    HW211746   3.830   4.146   3.701
 3909SOL     OW11747   3.796   3.890   4.042
 3909SOL    HW111748   3.779   3.973   3.988
 3909SOL    HW211749   3.886   3.853   4.020
 3910SOL     OW11750   4.318   4.469   4.376
 3910SOL    HW111751   4.368   4.554   4.357
 3910SOL    HW211752   4.230   4.471   4.328
 3911SOL     OW11753   4.583   4.680   4.585
 3911SOL    HW111754   4.637   4.611   4.633
 3911SOL    HW211755   4.551   4.749   4.651
 3912SOL     OW11756   4.807   4.708   3.811
 3912SOL    HW111757   4.784   4.761   3.729
 3912SOL    HW211758   4.888   4.652   3.792
 3913SOL     OW11759   3.803   4.964   4.377
 3913SOL    HW111760   3.802   4.917   4.465
 3913SOL    HW211761   3.885   4.936   4.326
 3914SOL     OW11762   4.152   4.148   4.244
 3914SOL    HW111763   4.182   4.076   4.182
 3914SOL    HW211764   4.113   4.108   4.327
 3915SOL     OW11765   4.494   5.054   4.025
 3915SOL    HW111766   4.448   4.967   4.042
 3915SOL    HW211767   4.585   5.051   4.066
 3916SOL     OW11768   3.763   4.801   4.024
 3916SOL    HW111769   3.862   4.790   4.015
 3916SOL    HW211770   3.723   4.715   4.056
   4.92487   4.92487   4.92487
