; mobley_7708038_GMX_OPLS.top created by acpype (v: 2023.10.27) on Wed May 20 23:46:16 2026

; Include forcefield parameters
#include "ffoplsaa.itp"

; Include mobley_7708038_GMX.itp topology
#include "mobley_7708038_GMX.itp"

; Ligand position restraints
#ifdef POSRES_LIG
#include "posre_mobley_7708038.itp"
#endif

[ system ]
 mobley_7708038

[ molecules ]
; Compound        nmols
 mobley_7708038   1     
