1_bromopropane
    11
  -0.5850000  -0.6390000   0.6690000  -0.0410000  -0.5870000   2.0870000
   1.3990000  -1.0650000   2.1400000   2.0720000  -0.9280000   3.9620000
  -1.6230000  -0.2920000   0.6480000   0.0000000   0.0000000   0.0000000
  -0.5610000  -1.6610000   0.2770000  -0.6710000  -1.2070000   2.7360000
  -0.1140000   0.4410000   2.4620000   2.0580000  -0.4530000   1.5180000
   1.4940000  -2.1150000   1.8500000
