mobley_7708038_GMX.gro created by acpype (v: 2023.10.27) on Wed May 20 23:46:16 2026
 11
    1  MOL   C1    1  -0.058  -0.064   0.067
    1  MOL   C2    2  -0.004  -0.059   0.209
    1  MOL   C3    3   0.140  -0.106   0.214
    1  MOL  BR1    4   0.207  -0.093   0.396
    1  MOL   H1    5  -0.162  -0.029   0.065
    1  MOL   H2    6   0.000   0.000   0.000
    1  MOL   H3    7  -0.056  -0.166   0.028
    1  MOL   H4    8  -0.067  -0.121   0.274
    1  MOL   H5    9  -0.011   0.044   0.246
    1  MOL   H6   10   0.206  -0.045   0.152
    1  MOL   H7   11   0.149  -0.212   0.185
    7.39000     5.11200     7.92400
