dmetm.xyz
    13
   0.0000000   0.0000000   0.0000000   2.4440000   1.4200000  -2.3020000
   1.9920000   1.2500000   0.0000000   1.4020000   0.0000000   0.0000000
   1.7960000   1.9480000  -1.1770000  -0.3160000  -1.0330000   0.0490000
  -0.3870000   0.5320000   0.8670000  -0.3980000   0.4570000  -0.9000000
   2.2420000   2.0890000  -3.1260000   2.0760000   0.4280000  -2.5430000
   3.5190000   1.3680000  -2.1410000   1.5780000   1.8720000   0.7860000
   3.0490000   1.0780000   0.1760000
