; mobley_3083321_GMX_OPLS.top created by acpype (v: 2023.10.27) on Wed May 20 23:43:19 2026

; Include forcefield parameters
#include "ffoplsaa.itp"

; Include mobley_3083321_GMX.itp topology
#include "mobley_3083321_GMX.itp"

; Ligand position restraints
#ifdef POSRES_LIG
#include "posre_mobley_3083321.itp"
#endif

[ system ]
 mobley_3083321

[ molecules ]
; Compound        nmols
 mobley_3083321   1     
