mobley_3083321_GMX.gro created by acpype (v: 2023.10.27) on Wed May 20 23:43:19 2026
 13
    1  MOL   C1    1   0.000   0.000   0.000
    1  MOL   C2    2   0.244   0.142  -0.230
    1  MOL   C3    3   0.199   0.125   0.000
    1  MOL   O1    4   0.140   0.000   0.000
    1  MOL   O2    5   0.180   0.195  -0.118
    1  MOL   H1    6  -0.032  -0.103   0.005
    1  MOL   H2    7  -0.039   0.053   0.087
    1  MOL   H3    8  -0.040   0.046  -0.090
    1  MOL   H4    9   0.224   0.209  -0.313
    1  MOL   H5   10   0.208   0.043  -0.254
    1  MOL   H6   11   0.352   0.137  -0.214
    1  MOL   H7   12   0.158   0.187   0.079
    1  MOL   H8   13   0.305   0.108   0.018
    7.83400     6.24400     7.98600
