; mobley_3083321_GMX_OPLS.itp created by acpype (v: 2023.10.27) on Wed May 20 23:43:19 2026

; For OPLS atomtypes manual fine tuning
; AC_at:OPLS_at:OPLScode: Possible_Alternatives (see ffoplsaa.atp and ffoplsaanb.itp)
; c3:CT:opls_135: ['136', '137', '149', '157', '158', '206', '209', '210', '223B', '224B', '245', '246', '274', '283', '284', '285', '292', '292B', '293B', '296', '307', '308', '505']
; os:x:opls_x: []
; h1:HC:opls_140: []
; h2:x:opls_x: []

[ moleculetype ]
;name            nrexcl
 mobley_3083321   3

[ atoms ]
;   nr  type  resi  res  atom  cgnr     charge      mass       ; qtot   bond_type
     1 opls_135     1   MOL    C1    1     0.118700     12.01100 ; qtot  0.119  CT  
     2 opls_135     1   MOL    C2    2     0.118700     12.01100 ; qtot  0.237  CT  
     3 opls_135     1   MOL    C3    3     0.314200     12.01100 ; qtot  0.552  CT  
     4 opls_x     1   MOL    O1    4    -0.450601      0.00000 ; qtot  0.101  x   
     5 opls_x     1   MOL    O2    5    -0.450601      0.00000 ; qtot -0.350  x   
     6 opls_140     1   MOL    H1    6     0.037367      1.00800 ; qtot -0.312  HC  
     7 opls_140     1   MOL    H2    7     0.037367      1.00800 ; qtot -0.275  HC  
     8 opls_140     1   MOL    H3    8     0.037367      1.00800 ; qtot -0.238  HC  
     9 opls_140     1   MOL    H4    9     0.037367      1.00800 ; qtot -0.200  HC  
    10 opls_140     1   MOL    H5   10     0.037367      1.00800 ; qtot -0.163  HC  
    11 opls_140     1   MOL    H6   11     0.037367      1.00800 ; qtot -0.125  HC  
    12 opls_x     1   MOL    H7   12     0.062700      0.00000 ; qtot -0.063  x   
    13 opls_x     1   MOL    H8   13     0.062700      0.00000 ; qtot -0.000  x   

[ bonds ]
;   ai     aj funct   r             k
     1      4   1 ;    1.4273e-01    2.3620e+05 ;     C1 - O1         CT - x     
     1      6   1 ;    1.0969e-01    2.8804e+05 ;     C1 - H1         CT - HC    
     1      7   1 ;    1.0969e-01    2.8804e+05 ;     C1 - H2         CT - HC    
     1      8   1 ;    1.0969e-01    2.8804e+05 ;     C1 - H3         CT - HC    
     2      5   1 ;    1.4273e-01    2.3620e+05 ;     C2 - O2         CT - x     
     2      9   1 ;    1.0969e-01    2.8804e+05 ;     C2 - H4         CT - HC    
     2     10   1 ;    1.0969e-01    2.8804e+05 ;     C2 - H5         CT - HC    
     2     11   1 ;    1.0969e-01    2.8804e+05 ;     C2 - H6         CT - HC    
     3      4   1 ;    1.4273e-01    2.3620e+05 ;     C3 - O1         CT - x     
     3      5   1 ;    1.4273e-01    2.3620e+05 ;     C3 - O2         CT - x     
     3     12   1 ;    1.0950e-01    2.9039e+05 ;     C3 - H7         CT - x     
     3     13   1 ;    1.0950e-01    2.9039e+05 ;     C3 - H8         CT - x     

[ pairs ]
;   ai     aj    funct
     1      5      1 ;     C1 - O2    
     1     12      1 ;     C1 - H7    
     1     13      1 ;     C1 - H8    
     2      4      1 ;     C2 - O1    
     2     12      1 ;     C2 - H7    
     2     13      1 ;     C2 - H8    
     3      9      1 ;     C3 - H4    
     3     10      1 ;     C3 - H5    
     3     11      1 ;     C3 - H6    
     6      3      1 ;     H1 - C3    
     7      3      1 ;     H2 - C3    
     8      3      1 ;     H3 - C3    

[ angles ]
;   ai     aj     ak    funct   theta         cth
     1      4      3      1 ;    1.1360e+02    7.3915e+02 ;     C1 - O1   - C3       CT -    x - CT  
     2      5      3      1 ;    1.1360e+02    7.3915e+02 ;     C2 - O2   - C3       CT -    x - CT  
     4      1      6      1 ;    1.1034e+02    4.7028e+02 ;     O1 - C1   - H1        x -   CT - HC  
     4      1      7      1 ;    1.1034e+02    4.7028e+02 ;     O1 - C1   - H2        x -   CT - HC  
     4      1      8      1 ;    1.1034e+02    4.7028e+02 ;     O1 - C1   - H3        x -   CT - HC  
     4      3      5      1 ;    1.0789e+02    8.2375e+02 ;     O1 - C3   - O2        x -   CT - x   
     4      3     12      1 ;    1.1103e+02    4.6894e+02 ;     O1 - C3   - H7        x -   CT - x   
     4      3     13      1 ;    1.1103e+02    4.6894e+02 ;     O1 - C3   - H8        x -   CT - x   
     5      2      9      1 ;    1.1034e+02    4.7028e+02 ;     O2 - C2   - H4        x -   CT - HC  
     5      2     10      1 ;    1.1034e+02    4.7028e+02 ;     O2 - C2   - H5        x -   CT - HC  
     5      2     11      1 ;    1.1034e+02    4.7028e+02 ;     O2 - C2   - H6        x -   CT - HC  
     5      3     12      1 ;    1.1103e+02    4.6894e+02 ;     O2 - C3   - H7        x -   CT - x   
     5      3     13      1 ;    1.1103e+02    4.6894e+02 ;     O2 - C3   - H8        x -   CT - x   
     6      1      7      1 ;    1.0855e+02    2.9824e+02 ;     H1 - C1   - H2       HC -   CT - HC  
     6      1      8      1 ;    1.0855e+02    2.9824e+02 ;     H1 - C1   - H3       HC -   CT - HC  
     7      1      8      1 ;    1.0855e+02    2.9824e+02 ;     H2 - C1   - H3       HC -   CT - HC  
     9      2     10      1 ;    1.0855e+02    2.9824e+02 ;     H4 - C2   - H5       HC -   CT - HC  
     9      2     11      1 ;    1.0855e+02    2.9824e+02 ;     H4 - C2   - H6       HC -   CT - HC  
    10      2     11      1 ;    1.0855e+02    2.9824e+02 ;     H5 - C2   - H6       HC -   CT - HC  
    12      3     13      1 ;    1.0951e+02    2.9748e+02 ;     H7 - C3   - H8        x -   CT - x   

[ dihedrals ] ; propers
; for gromacs 4.5 or higher, using funct 9
;    i      j      k      l   func   phase     kd      pn
     1      4      3      5      9 ;     0.00   3.55640   2 ;     C1-    O1-    C3-    O2
     1      4      3      5      9 ;     0.00   3.55640   3 ;     C1-    O1-    C3-    O2
     1      4      3      5      9 ;   180.00   1.92464   1 ;     C1-    O1-    C3-    O2
     1      4      3     12      9 ;     0.00   1.60387   3 ;     C1-    O1-    C3-    H7
     1      4      3     13      9 ;     0.00   1.60387   3 ;     C1-    O1-    C3-    H8
     2      5      3      4      9 ;     0.00   3.55640   2 ;     C2-    O2-    C3-    O1
     2      5      3      4      9 ;     0.00   3.55640   3 ;     C2-    O2-    C3-    O1
     2      5      3      4      9 ;   180.00   1.92464   1 ;     C2-    O2-    C3-    O1
     2      5      3     12      9 ;     0.00   1.60387   3 ;     C2-    O2-    C3-    H7
     2      5      3     13      9 ;     0.00   1.60387   3 ;     C2-    O2-    C3-    H8
     3      5      2      9      9 ;     0.00   1.41001   3 ;     C3-    O2-    C2-    H4
     3      5      2     10      9 ;     0.00   1.41001   3 ;     C3-    O2-    C2-    H5
     3      5      2     11      9 ;     0.00   1.41001   3 ;     C3-    O2-    C2-    H6
     6      1      4      3      9 ;     0.00   1.41001   3 ;     H1-    C1-    O1-    C3
     7      1      4      3      9 ;     0.00   1.41001   3 ;     H2-    C1-    O1-    C3
     8      1      4      3      9 ;     0.00   1.41001   3 ;     H3-    C1-    O1-    C3
