mobley_1827204_GMX.gro created by acpype (v: 2023.10.27) on Thu May 21 00:01:25 2026
   19
    1MOL     C1    1   2.473   2.537   2.105
    1MOL     C2    2   2.349   2.291   2.681
    1MOL     C3    3   2.420   2.433   2.200
    1MOL     C4    4   2.407   2.396   2.587
    1MOL     C5    5   2.442   2.466   2.347
    1MOL     C6    6   2.381   2.361   2.441
    1MOL     O1    7   2.534   2.638   2.138
    1MOL     H1    8   2.451   2.519   1.998
    1MOL     H2    9   2.368   2.318   2.785
    1MOL     H3   10   2.394   2.193   2.662
    1MOL     H4   11   2.240   2.282   2.667
    1MOL     H5   12   2.467   2.337   2.174
    1MOL     H6   13   2.313   2.423   2.180
    1MOL     H7   14   2.515   2.405   2.605
    1MOL     H8   15   2.362   2.494   2.611
    1MOL     H9   16   2.549   2.477   2.368
    1MOL    H10   17   2.395   2.563   2.368
    1MOL    H11   18   2.273   2.355   2.423
    1MOL    H12   19   2.423   2.262   2.419
   4.81649   4.81649   4.81649
