mobley_1857976_GMX.gro created by acpype (v: 2023.10.27) on Wed May 20 23:48:21 2026
    8
    1MOL     C1    1   2.233   2.228   2.229
    1MOL     C2    2   2.130   2.135   2.166
    1MOL    CL1    3   2.376   2.248   2.125
    1MOL    CL2    4   2.070   2.198   2.011
    1MOL     H1    5   2.191   2.327   2.249
    1MOL     H2    6   2.268   2.186   2.324
    1MOL     H3    7   2.044   2.125   2.232
    1MOL     H4    8   2.172   2.035   2.148
   4.37056   4.37056   4.37056
