mobley_627267_GMX.gro created by acpype (v: 2023.10.27) on Wed May 20 23:42:56 2026
 8570
    1MOL     C1    1   2.266   2.133   2.325
    1MOL     C2    2   2.157   2.345   2.249
    1MOL     C3    3   2.228   2.176   2.078
    1MOL     C4    4   2.174   2.195   2.220
    1MOL    BR1    5   2.403   2.259   2.057
    1MOL     H1    6   2.367   2.176   2.320
    1MOL     H2    7   2.227   2.151   2.426
    1MOL     H3    8   2.275   2.025   2.312
    1MOL     H4    9   2.253   2.398   2.242
    1MOL     H5   10   2.117   2.361   2.349
    1MOL     H6   11   2.088   2.391   2.178
    1MOL     H7   12   2.162   2.220   2.002
    1MOL     H8   13   2.243   2.070   2.055
    1MOL     H9   14   2.075   2.148   2.229
    2SOL     OW   15   0.230   0.628   0.113
    2SOL    HW1   16   0.137   0.626   0.150
    2SOL    HW2   17   0.231   0.589   0.021
    3SOL     OW   18   0.225   0.275   0.996
    3SOL    HW1   19   0.260   0.258   1.088
    3SOL    HW2   20   0.137   0.230   0.984
    4SOL     OW   21   0.019   0.368   0.647
    4SOL    HW1   22  -0.063   0.411   0.686
    4SOL    HW2   23  -0.009   0.295   0.584
    5SOL     OW   24   0.569   1.275   1.165
    5SOL    HW1   25   0.476   1.268   1.128
    5SOL    HW2   26   0.580   1.364   1.209
    6SOL     OW   27   1.555   1.511   0.703
    6SOL    HW1   28   1.498   1.495   0.784
    6SOL    HW2   29   1.496   1.521   0.623
    7SOL     OW   30   1.135   0.703   0.717
    7SOL    HW1   31   1.192   0.781   0.692
    7SOL    HW2   32   1.075   0.729   0.793
    8SOL     OW   33   1.755   0.607   0.231
    8SOL    HW1   34   1.743   0.594   0.132
    8SOL    HW2   35   1.725   0.526   0.280
    9SOL     OW   36   0.768   1.144   1.023
    9SOL    HW1   37   0.690   1.161   1.083
    9SOL    HW2   38   0.802   1.231   0.987
   10SOL     OW   39   0.850   0.798   1.823
   10SOL    HW1   40   0.846   0.874   1.888
   10SOL    HW2   41   0.872   0.834   1.732
   11SOL     OW   42   0.685   1.012   0.665
   11SOL    HW1   43   0.754   0.996   0.735
   11SOL    HW2   44   0.612   1.069   0.703
   12SOL     OW   45   0.686   1.161   1.803
   12SOL    HW1   46   0.746   1.240   1.817
   12SOL    HW2   47   0.600   1.192   1.762
   13SOL     OW   48   0.335   1.435   1.061
   13SOL    HW1   49   0.257   1.404   1.008
   13SOL    HW2   50   0.393   1.493   1.004
   14SOL     OW   51   1.460   1.505   1.339
   14SOL    HW1   52   1.484   1.599   1.365
   14SOL    HW2   53   1.444   1.451   1.421
   15SOL     OW   54   0.438   0.392   1.499
   15SOL    HW1   55   0.520   0.336   1.508
   15SOL    HW2   56   0.357   0.334   1.503
   16SOL     OW   57   1.603   0.447   0.737
   16SOL    HW1   58   1.529   0.493   0.687
   16SOL    HW2   59   1.654   0.515   0.790
   17SOL     OW   60   0.231   1.713   0.483
   17SOL    HW1   61   0.265   1.790   0.537
   17SOL    HW2   62   0.275   1.713   0.393
   18SOL     OW   63   1.127   1.341   1.690
   18SOL    HW1   64   1.174   1.341   1.778
   18SOL    HW2   65   1.079   1.254   1.679
   19SOL     OW   66   0.230   1.434   0.538
   19SOL    HW1   67   0.204   1.530   0.538
   19SOL    HW2   68   0.159   1.380   0.583
   20SOL     OW   69   0.240   1.091   0.886
   20SOL    HW1   70   0.254   1.007   0.938
   20SOL    HW2   71   0.185   1.155   0.941
   21SOL     OW   72   0.620   1.786   1.439
   21SOL    HW1   73   0.528   1.769   1.474
   21SOL    HW2   74   0.648   1.878   1.465
   22SOL     OW   75   0.606   0.964   0.123
   22SOL    HW1   76   0.613   1.048   0.069
   22SOL    HW2   77   0.652   0.977   0.211
   23SOL     OW   78   1.594   0.114   1.480
   23SOL    HW1   79   1.576   0.181   1.408
   23SOL    HW2   80   1.591   0.160   1.569
   24SOL     OW   81   0.122   0.643   0.563
   24SOL    HW1   82   0.077   0.555   0.580
   24SOL    HW2   83   0.121   0.697   0.647
   25SOL     OW   84   1.842   1.767   0.359
   25SOL    HW1   85   1.896   1.738   0.439
   25SOL    HW2   86   1.872   1.857   0.330
   26SOL     OW   87   0.027   1.596   0.117
   26SOL    HW1   88   0.008   1.500   0.138
   26SOL    HW2   89  -0.006   1.654   0.192
   27SOL     OW   90   1.689   0.922   0.612
   27SOL    HW1   91   1.784   0.893   0.620
   27SOL    HW2   92   1.681   0.987   0.537
   28SOL     OW   93   1.641   1.108   0.432
   28SOL    HW1   94   1.727   1.110   0.380
   28SOL    HW2   95   1.655   1.155   0.520
   29SOL     OW   96   0.113   0.737   1.597
   29SOL    HW1   97   0.201   0.724   1.642
   29SOL    HW2   98   0.100   0.834   1.575
   30SOL     OW   99   0.613   1.365   0.726
   30SOL    HW1  100   0.564   1.278   0.735
   30SOL    HW2  101   0.590   1.408   0.639
   31SOL     OW  102   1.293   1.228   1.423
   31SOL    HW1  103   1.330   1.155   1.365
   31SOL    HW2  104   1.345   1.233   1.508
   32SOL     OW  105   0.809   0.004   0.502
   32SOL    HW1  106   0.849   0.095   0.493
   32SOL    HW2  107   0.709   0.012   0.508
   33SOL     OW  108   0.197   0.976   1.264
   33SOL    HW1  109   0.286   0.931   1.250
   33SOL    HW2  110   0.124   0.911   1.245
   34SOL     OW  111   1.525   0.999   0.190
   34SOL    HW1  112   1.462   0.923   0.203
   34SOL    HW2  113   1.573   1.017   0.276
   35SOL     OW  114   1.187   1.792   1.616
   35SOL    HW1  115   1.211   1.852   1.540
   35SOL    HW2  116   1.194   1.697   1.586
   36SOL     OW  117   0.317   0.251   1.801
   36SOL    HW1  118   0.388   0.322   1.807
   36SOL    HW2  119   0.229   0.290   1.829
   37SOL     OW  120   1.466   1.417   0.953
   37SOL    HW1  121   1.407   1.423   1.033
   37SOL    HW2  122   1.451   1.329   0.907
   38SOL     OW  123   1.667   1.714   0.572
   38SOL    HW1  124   1.626   1.691   0.484
   38SOL    HW2  125   1.649   1.640   0.637
   39SOL     OW  126   0.598   0.729   0.270
   39SOL    HW1  127   0.622   0.798   0.202
   39SOL    HW2  128   0.520   0.762   0.324
   40SOL     OW  129   1.281   0.345   0.944
   40SOL    HW1  130   1.195   0.295   0.931
   40SOL    HW2  131   1.343   0.291   1.000
   41SOL     OW  132   1.576   1.662   0.307
   41SOL    HW1  133   1.665   1.708   0.310
   41SOL    HW2  134   1.555   1.638   0.212
   42SOL     OW  135   0.807   0.605   1.465
   42SOL    HW1  136   0.760   0.602   1.554
   42SOL    HW2  137   0.756   0.550   1.399
   43SOL     OW  138   1.394   0.469   1.674
   43SOL    HW1  139   1.374   0.512   1.762
   43SOL    HW2  140   1.472   0.407   1.683
   44SOL     OW  141   0.973   0.890   1.572
   44SOL    HW1  142   1.019   0.806   1.543
   44SOL    HW2  143   0.917   0.924   1.497
   45SOL     OW  144   0.991   0.410   1.242
   45SOL    HW1  145   0.914   0.444   1.296
   45SOL    HW2  146   0.957   0.359   1.163
   46SOL     OW  147   1.041   0.701   0.429
   46SOL    HW1  148   1.067   0.697   0.525
   46SOL    HW2  149   0.956   0.650   0.415
   47SOL     OW  150   0.076   0.811   0.789
   47SOL    HW1  151   0.175   0.799   0.798
   47SOL    HW2  152   0.052   0.906   0.810
   48SOL     OW  153   0.130   1.821   1.571
   48SOL    HW1  154   0.120   1.806   1.670
   48SOL    HW2  155   0.044   1.857   1.535
   49SOL     OW  156   0.865   0.348   0.195
   49SOL    HW1  157   0.924   0.411   0.146
   49SOL    HW2  158   0.884   0.254   0.166
   50SOL     OW  159   1.719   0.585   1.831
   50SOL    HW1  160   1.693   0.674   1.795
   50SOL    HW2  161   1.717   0.517   1.758
   51SOL     OW  162   1.362   1.144   0.545
   51SOL    HW1  163   1.445   1.115   0.497
   51SOL    HW2  164   1.313   1.211   0.489
   52SOL     OW  165   0.550   0.196   0.885
   52SOL    HW1  166   0.545   0.191   0.985
   52SOL    HW2  167   0.552   0.292   0.856
   53SOL     OW  168   1.008   1.456   0.477
   53SOL    HW1  169   0.962   1.528   0.425
   53SOL    HW2  170   1.004   1.476   0.575
   54SOL     OW  171   0.351   1.801   0.853
   54SOL    HW1  172   0.401   1.715   0.859
   54SOL    HW2  173   0.416   1.878   0.850
   55SOL     OW  174   1.795   1.066   0.873
   55SOL    HW1  175   1.733   1.051   0.797
   55SOL    HW2  176   1.743   1.077   0.958
   56SOL     OW  177   1.227   1.550   1.506
   56SOL    HW1  178   1.233   1.473   1.570
   56SOL    HW2  179   1.175   1.524   1.426
   57SOL     OW  180   0.321   0.943   0.242
   57SOL    HW1  181   0.403   0.982   0.200
   57SOL    HW2  182   0.294   0.861   0.193
   58SOL     OW  183   1.458   0.735   0.728
   58SOL    HW1  184   1.453   0.670   0.803
   58SOL    HW2  185   1.538   0.794   0.741
   59SOL     OW  186   0.461   1.266   1.727
   59SOL    HW1  187   0.411   1.267   1.641
   59SOL    HW2  188   0.398   1.248   1.803
   60SOL     OW  189   1.111   1.776   0.237
   60SOL    HW1  190   1.051   1.714   0.287
   60SOL    HW2  191   1.142   1.732   0.152
   61SOL     OW  192   0.202   0.285   1.498
   61SOL    HW1  193   0.122   0.345   1.485
   61SOL    HW2  194   0.192   0.236   1.584
   62SOL     OW  195   1.632   1.377   0.081
   62SOL    HW1  196   1.600   1.471   0.071
   62SOL    HW2  197   1.556   1.314   0.069
   63SOL     OW  198   0.464   1.743   0.323
   63SOL    HW1  199   0.497   1.782   0.409
   63SOL    HW2  200   0.540   1.736   0.258
   64SOL     OW  201   1.400   0.107   0.426
   64SOL    HW1  202   1.376   0.070   0.336
   64SOL    HW2  203   1.499   0.123   0.430
   65SOL     OW  204   0.249   1.785   1.241
   65SOL    HW1  205   0.306   1.720   1.291
   65SOL    HW2  206   0.233   1.752   1.148
   66SOL     OW  207   0.940   1.698   0.904
   66SOL    HW1  208   1.020   1.641   0.925
   66SOL    HW2  209   0.891   1.658   0.827
   67SOL     OW  210   0.382   0.700   0.480
   67SOL    HW1  211   0.427   0.610   0.477
   67SOL    HW2  212   0.288   0.689   0.513
   68SOL     OW  213   1.547   0.222   1.729
   68SOL    HW1  214   1.542   0.259   1.821
   68SOL    HW2  215   1.475   0.153   1.717
   69SOL     OW  216   0.614   0.122   0.117
   69SOL    HW1  217   0.712   0.100   0.124
   69SOL    HW2  218   0.583   0.105   0.024
   70SOL     OW  219   0.781   0.264   1.749
   70SOL    HW1  220   0.848   0.203   1.792
   70SOL    HW2  221   0.708   0.283   1.814
   71SOL     OW  222   0.888   1.514   1.195
   71SOL    HW1  223   0.865   1.489   1.101
   71SOL    HW2  224   0.949   1.445   1.234
   72SOL     OW  225   1.351   0.590   1.433
   72SOL    HW1  226   1.379   0.547   1.518
   72SOL    HW2  227   1.376   0.686   1.434
   73SOL     OW  228   0.803   1.402   0.924
   73SOL    HW1  229   0.893   1.416   0.882
   73SOL    HW2  230   0.732   1.404   0.853
   74SOL     OW  231   0.922   0.503   0.899
   74SOL    HW1  232   0.897   0.494   0.803
   74SOL    HW2  233   0.970   0.421   0.930
   75SOL     OW  234   0.539   0.064   0.512
   75SOL    HW1  235   0.458   0.065   0.570
   75SOL    HW2  236   0.542   0.147   0.457
   76SOL     OW  237   1.434   1.188   0.041
   76SOL    HW1  238   1.466   1.112   0.098
   76SOL    HW2  239   1.342   1.215   0.071
   77SOL     OW  240   0.297   0.035   0.171
   77SOL    HW1  241   0.346   0.119   0.150
   77SOL    HW2  242   0.359  -0.030   0.216
   78SOL     OW  243   0.935   0.236   0.480
   78SOL    HW1  244   0.887   0.277   0.402
   78SOL    HW2  245   1.034   0.234   0.461
   79SOL     OW  246   1.076   0.683   1.464
   79SOL    HW1  247   0.996   0.622   1.467
   79SOL    HW2  248   1.157   0.630   1.440
   80SOL     OW  249   1.227   1.570   0.793
   80SOL    HW1  250   1.248   1.644   0.728
   80SOL    HW2  251   1.295   1.570   0.866
   81SOL     OW  252   0.459   1.152   0.741
   81SOL    HW1  253   0.388   1.125   0.806
   81SOL    HW2  254   0.433   1.124   0.648
   82SOL     OW  255   1.271   1.797   0.591
   82SOL    HW1  256   1.315   1.861   0.527
   82SOL    HW2  257   1.221   1.849   0.661
   83SOL     OW  258   1.032   0.549   0.016
   83SOL    HW1  259   0.991   0.631  -0.023
   83SOL    HW2  260   1.096   0.575   0.089
   84SOL     OW  261   0.078   0.556   1.386
   84SOL    HW1  262   0.170   0.555   1.345
   84SOL    HW2  263   0.072   0.630   1.453
   85SOL     OW  264   0.561   0.222   1.147
   85SOL    HW1  265   0.599   0.138   1.184
   85SOL    HW2  266   0.473   0.241   1.191
   86SOL     OW  267   0.866   0.454   0.642
   86SOL    HW1  268   0.834   0.526   0.580
   86SOL    HW2  269   0.890   0.373   0.589
   87SOL     OW  270   1.017   0.039   0.753
   87SOL    HW1  271   0.945   0.044   0.684
   87SOL    HW2  272   0.993  -0.030   0.822
   88SOL     OW  273   1.429   1.173   0.867
   88SOL    HW1  274   1.374   1.089   0.860
   88SOL    HW2  275   1.455   1.202   0.775
   89SOL     OW  276   1.466   0.590   0.992
   89SOL    HW1  277   1.436   0.495   0.999
   89SOL    HW2  278   1.539   0.606   1.058
   90SOL     OW  279   1.857   0.833   0.377
   90SOL    HW1  280   1.899   0.769   0.441
   90SOL    HW2  281   1.819   0.782   0.299
   91SOL     OW  282   0.488   1.385   0.174
   91SOL    HW1  283   0.401   1.370   0.221
   91SOL    HW2  284   0.471   1.411   0.079
   92SOL     OW  285   1.664   1.280   0.657
   92SOL    HW1  286   1.763   1.288   0.671
   92SOL    HW2  287   1.619   1.364   0.688
   93SOL     OW  288   1.390   0.575   0.078
   93SOL    HW1  289   1.336   0.554   0.159
   93SOL    HW2  290   1.481   0.534   0.087
   94SOL     OW  291   0.527   0.256   0.328
   94SOL    HW1  292   0.554   0.197   0.253
   94SOL    HW2  293   0.527   0.351   0.297
   95SOL     OW  294   1.754   1.223   1.588
   95SOL    HW1  295   1.845   1.184   1.575
   95SOL    HW2  296   1.762   1.319   1.612
   96SOL     OW  297   1.064   1.347   1.340
   96SOL    HW1  298   0.984   1.324   1.395
   96SOL    HW2  299   1.147   1.321   1.389
   97SOL     OW  300   1.592   1.629   1.625
   97SOL    HW1  301   1.619   1.663   1.535
   97SOL    HW2  302   1.671   1.591   1.671
   98SOL     OW  303   1.111   1.195   1.100
   98SOL    HW1  304   1.071   1.239   1.181
   98SOL    HW2  305   1.070   1.232   1.017
   99SOL     OW  306   1.638   1.099   1.079
   99SOL    HW1  307   1.643   1.180   1.138
   99SOL    HW2  308   1.552   1.101   1.028
  100SOL     OW  309   0.915   0.089   1.402
  100SOL    HW1  310   0.940   0.069   1.307
  100SOL    HW2  311   0.987   0.145   1.444
  101SOL     OW  312   0.980   1.116   1.719
  101SOL    HW1  313   0.881   1.122   1.729
  101SOL    HW2  314   1.003   1.036   1.663
  102SOL     OW  315   0.705   1.050   0.368
  102SOL    HW1  316   0.691   1.057   0.467
  102SOL    HW2  317   0.789   0.999   0.350
  103SOL     OW  318   0.410   0.813   1.251
  103SOL    HW1  319   0.496   0.825   1.301
  103SOL    HW2  320   0.368   0.726   1.278
  104SOL     OW  321   1.274   0.386   1.262
  104SOL    HW1  322   1.295   0.460   1.326
  104SOL    HW2  323   1.185   0.403   1.219
  105SOL     OW  324   0.064   1.564   1.331
  105SOL    HW1  325   0.018   1.646   1.297
  105SOL    HW2  326   0.162   1.583   1.340
  106SOL     OW  327   0.367   1.100   0.501
  106SOL    HW1  328   0.360   1.183   0.445
  106SOL    HW2  329   0.371   1.020   0.441
  107SOL     OW  330   0.566   0.537   0.865
  107SOL    HW1  331   0.578   0.603   0.791
  107SOL    HW2  332   0.612   0.571   0.948
  108SOL     OW  333   1.252   1.348   0.388
  108SOL    HW1  334   1.302   1.425   0.428
  108SOL    HW2  335   1.157   1.350   0.420
  109SOL     OW  336   1.272   1.445   1.142
  109SOL    HW1  337   1.319   1.458   1.229
  109SOL    HW2  338   1.206   1.371   1.151
  110SOL     OW  339   1.582   0.639   0.472
  110SOL    HW1  340   1.551   0.700   0.545
  110SOL    HW2  341   1.632   0.691   0.403
  111SOL     OW  342   0.354   1.510   1.329
  111SOL    HW1  343   0.333   1.466   1.242
  111SOL    HW2  344   0.451   1.536   1.332
  112SOL     OW  345   0.402   0.751   1.598
  112SOL    HW1  346   0.470   0.806   1.551
  112SOL    HW2  347   0.442   0.663   1.625
  113SOL     OW  348   1.587   0.779   1.670
  113SOL    HW1  349   1.495   0.817   1.665
  113SOL    HW2  350   1.647   0.826   1.605
  114SOL     OW  351   1.013   0.105   1.770
  114SOL    HW1  352   1.019   0.190   1.718
  114SOL    HW2  353   1.045   0.029   1.713
  115SOL     OW  354   0.504   0.050   1.740
  115SOL    HW1  355   0.462  -0.007   1.670
  115SOL    HW2  356   0.438   0.119   1.772
  116SOL     OW  357   0.573   0.870   1.029
  116SOL    HW1  358   0.617   0.959   1.020
  116SOL    HW2  359   0.510   0.870   1.106
  117SOL     OW  360   1.360   0.862   1.045
  117SOL    HW1  361   1.285   0.862   0.979
  117SOL    HW2  362   1.397   0.770   1.054
  118SOL     OW  363   1.209   0.525   0.275
  118SOL    HW1  364   1.222   0.441   0.329
  118SOL    HW2  365   1.180   0.599   0.335
  119SOL     OW  366   0.307   0.213   1.231
  119SOL    HW1  367   0.284   0.250   1.321
  119SOL    HW2  368   0.277   0.118   1.225
  120SOL     OW  369   0.037   1.310   1.282
  120SOL    HW1  370   0.090   1.261   1.350
  120SOL    HW2  371   0.059   1.408   1.287
  121SOL     OW  372   0.732   0.634   1.064
  121SOL    HW1  373   0.791   0.608   0.988
  121SOL    HW2  374   0.704   0.730   1.053
  122SOL     OW  375   1.728   0.935   1.854
  122SOL    HW1  376   1.682   0.928   1.765
  122SOL    HW2  377   1.666   0.979   1.920
  123SOL     OW  378   0.307   0.063   0.618
  123SOL    HW1  379   0.296   0.157   0.651
  123SOL    HW2  380   0.302   0.000   0.695
  124SOL     OW  381   1.622   0.367   0.374
  124SOL    HW1  382   1.624   0.291   0.438
  124SOL    HW2  383   1.574   0.444   0.414
  125SOL     OW  384   1.023   0.766   0.966
  125SOL    HW1  385   1.038   0.787   1.062
  125SOL    HW2  386   0.993   0.671   0.957
  126SOL     OW  387   0.980   1.573   1.700
  126SOL    HW1  388   0.960   1.617   1.612
  126SOL    HW2  389   1.019   1.482   1.684
  127SOL     OW  390   1.859   1.518   1.605
  127SOL    HW1  391   1.873   1.545   1.510
  127SOL    HW2  392   1.942   1.540   1.658
  128SOL     OW  393   0.350   0.898   1.804
  128SOL    HW1  394   0.426   0.942   1.852
  128SOL    HW2  395   0.385   0.851   1.722
  129SOL     OW  396   1.540   0.274   0.125
  129SOL    HW1  397   1.479   0.199   0.148
  129SOL    HW2  398   1.562   0.326   0.208
  130SOL     OW  399   1.303   0.838   0.042
  130SOL    HW1  400   1.337   0.745   0.057
  130SOL    HW2  401   1.321   0.865  -0.053
  131SOL     OW  402   1.068   1.333   0.849
  131SOL    HW1  403   1.075   1.249   0.794
  131SOL    HW2  404   1.130   1.402   0.813
  132SOL     OW  405   0.319   0.810   0.949
  132SOL    HW1  406   0.412   0.846   0.954
  132SOL    HW2  407   0.313   0.725   1.001
  133SOL     OW  408   0.339   0.509   1.006
  133SOL    HW1  409   0.287   0.426   0.989
  133SOL    HW2  410   0.416   0.514   0.942
  134SOL     OW  411   1.138   0.380   1.678
  134SOL    HW1  412   1.093   0.443   1.742
  134SOL    HW2  413   1.231   0.411   1.661
  135SOL     OW  414   1.160   0.207   1.477
  135SOL    HW1  415   1.160   0.271   1.554
  135SOL    HW2  416   1.188   0.255   1.394
  136SOL     OW  417   0.008   1.326   0.200
  136SOL    HW1  418  -0.085   1.347   0.169
  136SOL    HW2  419   0.018   1.227   0.213
  137SOL     OW  420   0.088   1.801   0.927
  137SOL    HW1  421   0.046   1.715   0.900
  137SOL    HW2  422   0.182   1.804   0.893
  138SOL     OW  423   0.504   1.568   0.910
  138SOL    HW1  424   0.570   1.642   0.919
  138SOL    HW2  425   0.548   1.489   0.868
  139SOL     OW  426   1.002   0.796   1.238
  139SOL    HW1  427   1.043   0.764   1.324
  139SOL    HW2  428   0.906   0.769   1.235
  140SOL     OW  429   0.040   0.544   1.114
  140SOL    HW1  430   0.125   0.511   1.073
  140SOL    HW2  431   0.053   0.559   1.212
  141SOL     OW  432   0.189   0.520   1.722
  141SOL    HW1  433   0.248   0.480   1.652
  141SOL    HW2  434   0.131   0.591   1.681
  142SOL     OW  435   1.369   0.950   1.660
  142SOL    HW1  436   1.408   1.039   1.680
  142SOL    HW2  437   1.379   0.930   1.563
  143SOL     OW  438   0.815   0.572   0.325
  143SOL    HW1  439   0.822   0.483   0.279
  143SOL    HW2  440   0.721   0.606   0.317
  144SOL     OW  441   1.657   0.604   1.206
  144SOL    HW1  442   1.619   0.535   1.268
  144SOL    HW2  443   1.739   0.568   1.162
  145SOL     OW  444   0.252   1.564   1.744
  145SOL    HW1  445   0.222   1.621   1.820
  145SOL    HW2  446   0.245   1.467   1.770
  146SOL     OW  447   0.671   0.464   1.269
  146SOL    HW1  448   0.637   0.375   1.239
  146SOL    HW2  449   0.697   0.518   1.189
  147SOL     OW  450   0.930   1.678   1.465
  147SOL    HW1  451   0.906   1.660   1.370
  147SOL    HW2  452   0.960   1.772   1.475
  148SOL     OW  453   0.473   0.500   0.191
  148SOL    HW1  454   0.534   0.580   0.195
  148SOL    HW2  455   0.378   0.531   0.198
  149SOL     OW  456   0.159   1.137   1.466
  149SOL    HW1  457   0.181   1.076   1.542
  149SOL    HW2  458   0.169   1.088   1.380
  150SOL     OW  459   1.347   1.059   1.234
  150SOL    HW1  460   1.371   0.996   1.160
  150SOL    HW2  461   1.257   1.099   1.216
  151SOL     OW  462   1.302   0.855   0.309
  151SOL    HW1  463   1.216   0.824   0.351
  151SOL    HW2  464   1.298   0.841   0.210
  152SOL     OW  465   1.759   1.747   1.154
  152SOL    HW1  466   1.820   1.777   1.081
  152SOL    HW2  467   1.721   1.658   1.132
  153SOL     OW  468   1.252   1.731   1.128
  153SOL    HW1  469   1.336   1.736   1.074
  153SOL    HW2  470   1.229   1.635   1.146
  154SOL     OW  471   0.083   1.258   1.022
  154SOL    HW1  472   0.078   1.257   1.122
  154SOL    HW2  473   0.000   1.217   0.984
  155SOL     OW  474   0.688   1.662   1.716
  155SOL    HW1  475   0.632   1.743   1.725
  155SOL    HW2  476   0.740   1.666   1.630
  156SOL     OW  477   0.903   0.086   0.133
  156SOL    HW1  478   0.954   0.087   0.047
  156SOL    HW2  479   0.959   0.044   0.204
  157SOL     OW  480   1.726   0.135   0.523
  157SOL    HW1  481   1.799   0.118   0.456
  157SOL    HW2  482   1.695   0.048   0.561
  158SOL     OW  483   1.388   1.573   0.477
  158SOL    HW1  484   1.455   1.585   0.403
  158SOL    HW2  485   1.348   1.662   0.500
  159SOL     OW  486   0.130   1.794   1.851
  159SOL    HW1  487   0.089   1.720   1.904
  159SOL    HW2  488   0.194   1.845   1.909
  160SOL     OW  489   1.280   0.927   0.672
  160SOL    HW1  490   1.340   0.846   0.674
  160SOL    HW2  491   1.320   0.996   0.612
  161SOL     OW  492   0.830   1.273   1.422
  161SOL    HW1  493   0.825   1.306   1.517
  161SOL    HW2  494   0.744   1.292   1.376
  162SOL     OW  495   0.672   1.616   0.154
  162SOL    HW1  496   0.681   1.626   0.055
  162SOL    HW2  497   0.632   1.527   0.175
  163SOL     OW  498   1.650   1.720   1.394
  163SOL    HW1  499   1.703   1.730   1.310
  163SOL    HW2  500   1.623   1.810   1.428
  164SOL     OW  501   1.841   0.175   0.963
  164SOL    HW1  502   1.880   0.090   0.927
  164SOL    HW2  503   1.743   0.177   0.944
  165SOL     OW  504   0.263   0.326   0.720
  165SOL    HW1  505   0.184   0.377   0.686
  165SOL    HW2  506   0.254   0.311   0.818
  166SOL     OW  507   1.194   1.612   0.031
  166SOL    HW1  508   1.200   1.519   0.068
  166SOL    HW2  509   1.135   1.612  -0.049
  167SOL     OW  510   0.822   1.002   1.372
  167SOL    HW1  511   0.862   1.001   1.280
  167SOL    HW2  512   0.832   1.094   1.412
  168SOL     OW  513   0.916   0.910   0.291
  168SOL    HW1  514   0.979   0.948   0.223
  168SOL    HW2  515   0.956   0.827   0.330
  169SOL     OW  516   1.504   1.607   0.044
  169SOL    HW1  517   1.412   1.644   0.051
  169SOL    HW2  518   1.542   1.627  -0.046
  170SOL     OW  519   0.372   1.288   1.490
  170SOL    HW1  520   0.359   1.381   1.456
  170SOL    HW2  521   0.288   1.236   1.477
  171SOL     OW  522   1.614   1.292   1.289
  171SOL    HW1  523   1.674   1.295   1.369
  171SOL    HW2  524   1.539   1.356   1.302
  172SOL     OW  525   1.039   1.098   0.696
  172SOL    HW1  526   0.969   1.051   0.750
  172SOL    HW2  527   1.098   1.030   0.653
  173SOL     OW  528   1.014   0.236   0.971
  173SOL    HW1  529   1.006   0.200   0.878
  173SOL    HW2  530   1.012   0.160   1.036
  174SOL     OW  531   0.590   1.487   0.491
  174SOL    HW1  532   0.632   1.429   0.421
  174SOL    HW2  533   0.546   1.566   0.447
  175SOL     OW  534   1.709   0.385   1.381
  175SOL    HW1  535   1.782   0.454   1.385
  175SOL    HW2  536   1.737   0.310   1.322
  176SOL     OW  537   0.255   1.348   0.290
  176SOL    HW1  538   0.159   1.349   0.263
  176SOL    HW2  539   0.267   1.401   0.374
  177SOL     OW  540   0.105   1.013   1.726
  177SOL    HW1  541   0.028   0.980   1.780
  177SOL    HW2  542   0.190   0.983   1.768
  178SOL     OW  543   0.672   0.203   1.489
  178SOL    HW1  544   0.762   0.187   1.449
  178SOL    HW2  545   0.680   0.208   1.588
  179SOL     OW  546   0.075   0.345   0.033
  179SOL    HW1  547  -0.017   0.317   0.004
  179SOL    HW2  548   0.106   0.422  -0.023
  180SOL     OW  549   1.440   0.856   1.398
  180SOL    HW1  550   1.383   0.908   1.335
  180SOL    HW2  551   1.536   0.868   1.374
  181SOL     OW  552   0.072   0.166   0.318
  181SOL    HW1  553   0.055   0.249   0.264
  181SOL    HW2  554   0.162   0.129   0.296
  182SOL     OW  555   1.183   1.335   0.119
  182SOL    HW1  556   1.084   1.324   0.121
  182SOL    HW2  557   1.217   1.350   0.212
  183SOL     OW  558   0.613   0.842   1.431
  183SOL    HW1  559   0.669   0.923   1.414
  183SOL    HW2  560   0.672   0.762   1.434
  184SOL     OW  561   1.493   1.767   0.959
  184SOL    HW1  562   1.526   1.831   0.890
  184SOL    HW2  563   1.559   1.761   1.034
  185SOL     OW  564   0.716   0.565   1.708
  185SOL    HW1  565   0.735   0.630   1.782
  185SOL    HW2  566   0.776   0.485   1.717
  186SOL     OW  567   1.450   1.220   1.633
  186SOL    HW1  568   1.441   1.210   1.732
  186SOL    HW2  569   1.546   1.213   1.607
  187SOL     OW  570   0.390   1.741   1.560
  187SOL    HW1  571   0.299   1.782   1.558
  187SOL    HW2  572   0.383   1.647   1.592
  188SOL     OW  573   1.674   0.883   1.254
  188SOL    HW1  574   1.647   0.794   1.217
  188SOL    HW2  575   1.675   0.951   1.181
  189SOL     OW  576   1.225   0.325   0.449
  189SOL    HW1  577   1.290   0.251   0.438
  189SOL    HW2  578   1.245   0.375   0.533
  190SOL     OW  579   0.594   0.745   0.652
  190SOL    HW1  580   0.644   0.830   0.633
  190SOL    HW2  581   0.506   0.747   0.604
  191SOL     OW  582   1.777   0.342   1.642
  191SOL    HW1  583   1.760   0.373   1.548
  191SOL    HW2  584   1.693   0.305   1.680
  192SOL     OW  585   1.730   0.934   1.517
  192SOL    HW1  586   1.768   1.025   1.532
  192SOL    HW2  587   1.722   0.917   1.418
  193SOL     OW  588   0.859   1.374   0.016
  193SOL    HW1  589   0.813   1.389   0.104
  193SOL    HW2  590   0.903   1.459  -0.014
  194SOL     OW  591   0.661   1.790   0.953
  194SOL    HW1  592   0.615   1.878   0.940
  194SOL    HW2  593   0.760   1.802   0.946
  195SOL     OW  594   0.859   0.956   0.861
  195SOL    HW1  595   0.913   0.887   0.909
  195SOL    HW2  596   0.827   1.025   0.927
  196SOL     OW  597   1.083   0.984   0.087
  196SOL    HW1  598   1.060   1.037   0.005
  196SOL    HW2  599   1.164   0.928   0.068
  197SOL     OW  600   1.861   1.569   0.851
  197SOL    HW1  601   1.790   1.557   0.781
  197SOL    HW2  602   1.862   1.490   0.911
  198SOL     OW  603   0.221   1.314   1.844
  198SOL    HW1  604   0.156   1.241   1.823
  198SOL    HW2  605   0.225   1.328   1.942
  199SOL     OW  606   0.079   1.240   0.653
  199SOL    HW1  607   0.078   1.193   0.741
  199SOL    HW2  608   0.161   1.212   0.602
  200SOL     OW  609   0.672   1.391   1.624
  200SOL    HW1  610   0.594   1.341   1.662
  200SOL    HW2  611   0.669   1.486   1.655
  201SOL     OW  612   1.824   0.192   1.227
  201SOL    HW1  613   1.820   0.102   1.271
  201SOL    HW2  614   1.827   0.181   1.128
  202SOL     OW  615   0.428   0.424   0.520
  202SOL    HW1  616   0.458   0.352   0.458
  202SOL    HW2  617   0.389   0.384   0.603
  203SOL     OW  618   1.705   1.487   1.104
  203SOL    HW1  619   1.612   1.462   1.077
  203SOL    HW2  620   1.731   1.437   1.186
  204SOL     OW  621   0.317   0.547   1.280
  204SOL    HW1  622   0.355   0.488   1.352
  204SOL    HW2  623   0.357   0.521   1.192
  205SOL     OW  624   0.812   1.586   0.687
  205SOL    HW1  625   0.844   1.596   0.593
  205SOL    HW2  626   0.733   1.524   0.689
  206SOL     OW  627   1.424   0.214   1.112
  206SOL    HW1  628   1.476   0.149   1.167
  206SOL    HW2  629   1.375   0.277   1.173
  207SOL     OW  630   1.001   0.034   1.154
  207SOL    HW1  631   0.938  -0.038   1.123
  207SOL    HW2  632   1.094  -0.002   1.154
  208SOL     OW  633   0.770   1.330   0.301
  208SOL    HW1  634   0.724   1.243   0.318
  208SOL    HW2  635   0.861   1.327   0.342
  209SOL     OW  636   0.618   1.567   1.284
  209SOL    HW1  637   0.613   1.649   1.341
  209SOL    HW2  638   0.707   1.564   1.239
  210SOL     OW  639   1.352   0.052   0.168
  210SOL    HW1  640   1.387   0.011   0.084
  210SOL    HW2  641   1.262   0.014   0.188
  211SOL     OW  642   1.300   0.453   0.691
  211SOL    HW1  643   1.241   0.533   0.695
  211SOL    HW2  644   1.315   0.418   0.784
  212SOL     OW  645   1.593   0.221   0.882
  212SOL    HW1  646   1.509   0.220   0.936
  212SOL    HW2  647   1.595   0.304   0.826
  213SOL     OW  648   0.039   1.077   0.300
  213SOL    HW1  649   0.138   1.066   0.291
  213SOL    HW2  650  -0.001   0.991   0.332
  214SOL     OW  651   0.875   1.646   0.337
  214SOL    HW1  652   0.798   1.611   0.283
  214SOL    HW2  653   0.843   1.717   0.399
  215SOL     OW  654   0.230   0.628   1.975
  215SOL    HW1  655   0.137   0.626   2.012
  215SOL    HW2  656   0.231   0.589   1.883
  216SOL     OW  657   0.225   0.275   2.858
  216SOL    HW1  658   0.260   0.258   2.950
  216SOL    HW2  659   0.137   0.230   2.846
  217SOL     OW  660   0.019   0.368   2.509
  217SOL    HW1  661  -0.063   0.411   2.548
  217SOL    HW2  662  -0.009   0.295   2.446
  218SOL     OW  663   0.569   1.275   3.027
  218SOL    HW1  664   0.476   1.268   2.990
  218SOL    HW2  665   0.580   1.364   3.071
  219SOL     OW  666   1.555   1.511   2.565
  219SOL    HW1  667   1.498   1.495   2.646
  219SOL    HW2  668   1.496   1.521   2.485
  220SOL     OW  669   1.135   0.703   2.579
  220SOL    HW1  670   1.192   0.781   2.554
  220SOL    HW2  671   1.075   0.729   2.655
  221SOL     OW  672   1.755   0.607   2.093
  221SOL    HW1  673   1.743   0.594   1.994
  221SOL    HW2  674   1.725   0.526   2.142
  222SOL     OW  675   0.768   1.144   2.885
  222SOL    HW1  676   0.690   1.161   2.945
  222SOL    HW2  677   0.802   1.231   2.849
  223SOL     OW  678   0.850   0.798   3.685
  223SOL    HW1  679   0.846   0.874   3.750
  223SOL    HW2  680   0.872   0.834   3.594
  224SOL     OW  681   0.685   1.012   2.527
  224SOL    HW1  682   0.754   0.996   2.597
  224SOL    HW2  683   0.612   1.069   2.565
  225SOL     OW  684   0.686   1.161   3.665
  225SOL    HW1  685   0.746   1.240   3.679
  225SOL    HW2  686   0.600   1.192   3.624
  226SOL     OW  687   0.335   1.435   2.923
  226SOL    HW1  688   0.257   1.404   2.870
  226SOL    HW2  689   0.393   1.493   2.866
  227SOL     OW  690   1.460   1.505   3.201
  227SOL    HW1  691   1.484   1.599   3.227
  227SOL    HW2  692   1.444   1.451   3.283
  228SOL     OW  693   0.438   0.392   3.361
  228SOL    HW1  694   0.520   0.336   3.370
  228SOL    HW2  695   0.357   0.334   3.365
  229SOL     OW  696   1.603   0.447   2.599
  229SOL    HW1  697   1.529   0.493   2.549
  229SOL    HW2  698   1.654   0.515   2.652
  230SOL     OW  699   0.231   1.713   2.345
  230SOL    HW1  700   0.265   1.790   2.399
  230SOL    HW2  701   0.275   1.713   2.255
  231SOL     OW  702   1.127   1.341   3.552
  231SOL    HW1  703   1.174   1.341   3.640
  231SOL    HW2  704   1.079   1.254   3.541
  232SOL     OW  705   0.230   1.434   2.400
  232SOL    HW1  706   0.204   1.530   2.400
  232SOL    HW2  707   0.159   1.380   2.445
  233SOL     OW  708   0.240   1.091   2.748
  233SOL    HW1  709   0.254   1.007   2.800
  233SOL    HW2  710   0.185   1.155   2.803
  234SOL     OW  711   0.620   1.786   3.301
  234SOL    HW1  712   0.528   1.769   3.336
  234SOL    HW2  713   0.648   1.878   3.327
  235SOL     OW  714   0.606   0.964   1.985
  235SOL    HW1  715   0.613   1.048   1.931
  235SOL    HW2  716   0.652   0.977   2.073
  236SOL     OW  717   1.594   0.114   3.342
  236SOL    HW1  718   1.576   0.181   3.270
  236SOL    HW2  719   1.591   0.160   3.431
  237SOL     OW  720   0.122   0.643   2.425
  237SOL    HW1  721   0.077   0.555   2.442
  237SOL    HW2  722   0.121   0.697   2.509
  238SOL     OW  723   1.842   1.767   2.221
  238SOL    HW1  724   1.896   1.738   2.301
  238SOL    HW2  725   1.872   1.857   2.192
  239SOL     OW  726   0.027   1.596   1.979
  239SOL    HW1  727   0.008   1.500   2.000
  239SOL    HW2  728  -0.006   1.654   2.054
  240SOL     OW  729   1.689   0.922   2.474
  240SOL    HW1  730   1.784   0.893   2.482
  240SOL    HW2  731   1.681   0.987   2.399
  241SOL     OW  732   1.641   1.108   2.294
  241SOL    HW1  733   1.727   1.110   2.242
  241SOL    HW2  734   1.655   1.155   2.382
  242SOL     OW  735   0.113   0.737   3.459
  242SOL    HW1  736   0.201   0.724   3.504
  242SOL    HW2  737   0.100   0.834   3.437
  243SOL     OW  738   0.613   1.365   2.588
  243SOL    HW1  739   0.564   1.278   2.597
  243SOL    HW2  740   0.590   1.408   2.501
  244SOL     OW  741   1.293   1.228   3.285
  244SOL    HW1  742   1.330   1.155   3.227
  244SOL    HW2  743   1.345   1.233   3.370
  245SOL     OW  744   0.809   0.004   2.364
  245SOL    HW1  745   0.849   0.095   2.355
  245SOL    HW2  746   0.709   0.012   2.370
  246SOL     OW  747   0.197   0.976   3.126
  246SOL    HW1  748   0.286   0.931   3.112
  246SOL    HW2  749   0.124   0.911   3.107
  247SOL     OW  750   1.525   0.999   2.052
  247SOL    HW1  751   1.462   0.923   2.065
  247SOL    HW2  752   1.573   1.017   2.138
  248SOL     OW  753   1.187   1.792   3.478
  248SOL    HW1  754   1.211   1.852   3.402
  248SOL    HW2  755   1.194   1.697   3.448
  249SOL     OW  756   0.317   0.251   3.663
  249SOL    HW1  757   0.388   0.322   3.669
  249SOL    HW2  758   0.229   0.290   3.691
  250SOL     OW  759   1.466   1.417   2.815
  250SOL    HW1  760   1.407   1.423   2.895
  250SOL    HW2  761   1.451   1.329   2.769
  251SOL     OW  762   1.667   1.714   2.434
  251SOL    HW1  763   1.626   1.691   2.346
  251SOL    HW2  764   1.649   1.640   2.499
  252SOL     OW  765   0.598   0.729   2.132
  252SOL    HW1  766   0.622   0.798   2.064
  252SOL    HW2  767   0.520   0.762   2.186
  253SOL     OW  768   1.281   0.345   2.806
  253SOL    HW1  769   1.195   0.295   2.793
  253SOL    HW2  770   1.343   0.291   2.862
  254SOL     OW  771   1.576   1.662   2.169
  254SOL    HW1  772   1.665   1.708   2.172
  254SOL    HW2  773   1.555   1.638   2.074
  255SOL     OW  774   0.807   0.605   3.327
  255SOL    HW1  775   0.760   0.602   3.416
  255SOL    HW2  776   0.756   0.550   3.261
  256SOL     OW  777   1.394   0.469   3.536
  256SOL    HW1  778   1.374   0.512   3.624
  256SOL    HW2  779   1.472   0.407   3.545
  257SOL     OW  780   0.973   0.890   3.434
  257SOL    HW1  781   1.019   0.806   3.405
  257SOL    HW2  782   0.917   0.924   3.359
  258SOL     OW  783   0.991   0.410   3.104
  258SOL    HW1  784   0.914   0.444   3.158
  258SOL    HW2  785   0.957   0.359   3.025
  259SOL     OW  786   1.041   0.701   2.291
  259SOL    HW1  787   1.067   0.697   2.387
  259SOL    HW2  788   0.956   0.650   2.277
  260SOL     OW  789   0.076   0.811   2.651
  260SOL    HW1  790   0.175   0.799   2.660
  260SOL    HW2  791   0.052   0.906   2.672
  261SOL     OW  792   0.130   1.821   3.433
  261SOL    HW1  793   0.120   1.806   3.532
  261SOL    HW2  794   0.044   1.857   3.397
  262SOL     OW  795   0.865   0.348   2.057
  262SOL    HW1  796   0.924   0.411   2.008
  262SOL    HW2  797   0.884   0.254   2.028
  263SOL     OW  798   1.719   0.585   3.693
  263SOL    HW1  799   1.693   0.674   3.657
  263SOL    HW2  800   1.717   0.517   3.620
  264SOL     OW  801   1.362   1.144   2.407
  264SOL    HW1  802   1.445   1.115   2.359
  264SOL    HW2  803   1.313   1.211   2.351
  265SOL     OW  804   0.550   0.196   2.747
  265SOL    HW1  805   0.545   0.191   2.847
  265SOL    HW2  806   0.552   0.292   2.718
  266SOL     OW  807   1.008   1.456   2.339
  266SOL    HW1  808   0.962   1.528   2.287
  266SOL    HW2  809   1.004   1.476   2.437
  267SOL     OW  810   0.351   1.801   2.715
  267SOL    HW1  811   0.401   1.715   2.721
  267SOL    HW2  812   0.416   1.878   2.712
  268SOL     OW  813   1.795   1.066   2.735
  268SOL    HW1  814   1.733   1.051   2.659
  268SOL    HW2  815   1.743   1.077   2.820
  269SOL     OW  816   1.227   1.550   3.368
  269SOL    HW1  817   1.233   1.473   3.432
  269SOL    HW2  818   1.175   1.524   3.288
  270SOL     OW  819   0.321   0.943   2.104
  270SOL    HW1  820   0.403   0.982   2.062
  270SOL    HW2  821   0.294   0.861   2.055
  271SOL     OW  822   1.458   0.735   2.590
  271SOL    HW1  823   1.453   0.670   2.665
  271SOL    HW2  824   1.538   0.794   2.603
  272SOL     OW  825   0.461   1.266   3.589
  272SOL    HW1  826   0.411   1.267   3.503
  272SOL    HW2  827   0.398   1.248   3.665
  273SOL     OW  828   1.111   1.776   2.099
  273SOL    HW1  829   1.051   1.714   2.149
  273SOL    HW2  830   1.142   1.732   2.014
  274SOL     OW  831   0.202   0.285   3.360
  274SOL    HW1  832   0.122   0.345   3.347
  274SOL    HW2  833   0.192   0.236   3.446
  275SOL     OW  834   1.632   1.377   1.943
  275SOL    HW1  835   1.600   1.471   1.933
  275SOL    HW2  836   1.556   1.314   1.931
  276SOL     OW  837   0.464   1.743   2.185
  276SOL    HW1  838   0.497   1.782   2.271
  276SOL    HW2  839   0.540   1.736   2.120
  277SOL     OW  840   1.400   0.107   2.288
  277SOL    HW1  841   1.376   0.070   2.198
  277SOL    HW2  842   1.499   0.123   2.292
  278SOL     OW  843   0.249   1.785   3.103
  278SOL    HW1  844   0.306   1.720   3.153
  278SOL    HW2  845   0.233   1.752   3.010
  279SOL     OW  846   0.940   1.698   2.766
  279SOL    HW1  847   1.020   1.641   2.787
  279SOL    HW2  848   0.891   1.658   2.689
  280SOL     OW  849   0.382   0.700   2.342
  280SOL    HW1  850   0.427   0.610   2.339
  280SOL    HW2  851   0.288   0.689   2.375
  281SOL     OW  852   1.547   0.222   3.591
  281SOL    HW1  853   1.542   0.259   3.683
  281SOL    HW2  854   1.475   0.153   3.579
  282SOL     OW  855   0.614   0.122   1.979
  282SOL    HW1  856   0.712   0.100   1.986
  282SOL    HW2  857   0.583   0.105   1.886
  283SOL     OW  858   0.781   0.264   3.611
  283SOL    HW1  859   0.848   0.203   3.654
  283SOL    HW2  860   0.708   0.283   3.676
  284SOL     OW  861   0.888   1.514   3.057
  284SOL    HW1  862   0.865   1.489   2.963
  284SOL    HW2  863   0.949   1.445   3.096
  285SOL     OW  864   1.351   0.590   3.295
  285SOL    HW1  865   1.379   0.547   3.380
  285SOL    HW2  866   1.376   0.686   3.296
  286SOL     OW  867   0.803   1.402   2.786
  286SOL    HW1  868   0.893   1.416   2.744
  286SOL    HW2  869   0.732   1.404   2.715
  287SOL     OW  870   0.922   0.503   2.761
  287SOL    HW1  871   0.897   0.494   2.665
  287SOL    HW2  872   0.970   0.421   2.792
  288SOL     OW  873   0.539   0.064   2.374
  288SOL    HW1  874   0.458   0.065   2.432
  288SOL    HW2  875   0.542   0.147   2.319
  289SOL     OW  876   1.434   1.188   1.903
  289SOL    HW1  877   1.466   1.112   1.960
  289SOL    HW2  878   1.342   1.215   1.933
  290SOL     OW  879   0.297   0.035   2.033
  290SOL    HW1  880   0.346   0.119   2.012
  290SOL    HW2  881   0.359  -0.030   2.078
  291SOL     OW  882   0.935   0.236   2.342
  291SOL    HW1  883   0.887   0.277   2.264
  291SOL    HW2  884   1.034   0.234   2.323
  292SOL     OW  885   1.076   0.683   3.326
  292SOL    HW1  886   0.996   0.622   3.329
  292SOL    HW2  887   1.157   0.630   3.302
  293SOL     OW  888   1.227   1.570   2.655
  293SOL    HW1  889   1.248   1.644   2.590
  293SOL    HW2  890   1.295   1.570   2.728
  294SOL     OW  891   0.459   1.152   2.603
  294SOL    HW1  892   0.388   1.125   2.668
  294SOL    HW2  893   0.433   1.124   2.510
  295SOL     OW  894   1.271   1.797   2.453
  295SOL    HW1  895   1.315   1.861   2.389
  295SOL    HW2  896   1.221   1.849   2.523
  296SOL     OW  897   1.032   0.549   1.878
  296SOL    HW1  898   0.991   0.631   1.839
  296SOL    HW2  899   1.096   0.575   1.951
  297SOL     OW  900   0.078   0.556   3.248
  297SOL    HW1  901   0.170   0.555   3.207
  297SOL    HW2  902   0.072   0.630   3.315
  298SOL     OW  903   0.561   0.222   3.009
  298SOL    HW1  904   0.599   0.138   3.046
  298SOL    HW2  905   0.473   0.241   3.053
  299SOL     OW  906   0.866   0.454   2.504
  299SOL    HW1  907   0.834   0.526   2.442
  299SOL    HW2  908   0.890   0.373   2.451
  300SOL     OW  909   1.017   0.039   2.615
  300SOL    HW1  910   0.945   0.044   2.546
  300SOL    HW2  911   0.993  -0.030   2.684
  301SOL     OW  912   1.429   1.173   2.729
  301SOL    HW1  913   1.374   1.089   2.722
  301SOL    HW2  914   1.455   1.202   2.637
  302SOL     OW  915   1.466   0.590   2.854
  302SOL    HW1  916   1.436   0.495   2.861
  302SOL    HW2  917   1.539   0.606   2.920
  303SOL     OW  918   1.857   0.833   2.239
  303SOL    HW1  919   1.899   0.769   2.303
  303SOL    HW2  920   1.819   0.782   2.161
  304SOL     OW  921   0.488   1.385   2.036
  304SOL    HW1  922   0.401   1.370   2.083
  304SOL    HW2  923   0.471   1.411   1.941
  305SOL     OW  924   1.664   1.280   2.519
  305SOL    HW1  925   1.763   1.288   2.533
  305SOL    HW2  926   1.619   1.364   2.550
  306SOL     OW  927   1.390   0.575   1.940
  306SOL    HW1  928   1.336   0.554   2.021
  306SOL    HW2  929   1.481   0.534   1.949
  307SOL     OW  930   0.527   0.256   2.190
  307SOL    HW1  931   0.554   0.197   2.115
  307SOL    HW2  932   0.527   0.351   2.159
  308SOL     OW  933   1.754   1.223   3.450
  308SOL    HW1  934   1.845   1.184   3.437
  308SOL    HW2  935   1.762   1.319   3.474
  309SOL     OW  936   1.064   1.347   3.202
  309SOL    HW1  937   0.984   1.324   3.257
  309SOL    HW2  938   1.147   1.321   3.251
  310SOL     OW  939   1.592   1.629   3.487
  310SOL    HW1  940   1.619   1.663   3.397
  310SOL    HW2  941   1.671   1.591   3.533
  311SOL     OW  942   1.111   1.195   2.962
  311SOL    HW1  943   1.071   1.239   3.043
  311SOL    HW2  944   1.070   1.232   2.879
  312SOL     OW  945   1.638   1.099   2.941
  312SOL    HW1  946   1.643   1.180   3.000
  312SOL    HW2  947   1.552   1.101   2.890
  313SOL     OW  948   0.915   0.089   3.264
  313SOL    HW1  949   0.940   0.069   3.169
  313SOL    HW2  950   0.987   0.145   3.306
  314SOL     OW  951   0.980   1.116   3.581
  314SOL    HW1  952   0.881   1.122   3.591
  314SOL    HW2  953   1.003   1.036   3.525
  315SOL     OW  954   0.705   1.050   2.230
  315SOL    HW1  955   0.691   1.057   2.329
  315SOL    HW2  956   0.789   0.999   2.212
  316SOL     OW  957   0.410   0.813   3.113
  316SOL    HW1  958   0.496   0.825   3.163
  316SOL    HW2  959   0.368   0.726   3.140
  317SOL     OW  960   1.274   0.386   3.124
  317SOL    HW1  961   1.295   0.460   3.188
  317SOL    HW2  962   1.185   0.403   3.081
  318SOL     OW  963   0.064   1.564   3.193
  318SOL    HW1  964   0.018   1.646   3.159
  318SOL    HW2  965   0.162   1.583   3.202
  319SOL     OW  966   0.367   1.100   2.363
  319SOL    HW1  967   0.360   1.183   2.307
  319SOL    HW2  968   0.371   1.020   2.303
  320SOL     OW  969   0.566   0.537   2.727
  320SOL    HW1  970   0.578   0.603   2.653
  320SOL    HW2  971   0.612   0.571   2.810
  321SOL     OW  972   1.252   1.348   2.250
  321SOL    HW1  973   1.302   1.425   2.290
  321SOL    HW2  974   1.157   1.350   2.282
  322SOL     OW  975   1.272   1.445   3.004
  322SOL    HW1  976   1.319   1.458   3.091
  322SOL    HW2  977   1.206   1.371   3.013
  323SOL     OW  978   1.582   0.639   2.334
  323SOL    HW1  979   1.551   0.700   2.407
  323SOL    HW2  980   1.632   0.691   2.265
  324SOL     OW  981   0.354   1.510   3.191
  324SOL    HW1  982   0.333   1.466   3.104
  324SOL    HW2  983   0.451   1.536   3.194
  325SOL     OW  984   0.402   0.751   3.460
  325SOL    HW1  985   0.470   0.806   3.413
  325SOL    HW2  986   0.442   0.663   3.487
  326SOL     OW  987   1.587   0.779   3.532
  326SOL    HW1  988   1.495   0.817   3.527
  326SOL    HW2  989   1.647   0.826   3.467
  327SOL     OW  990   1.013   0.105   3.632
  327SOL    HW1  991   1.019   0.190   3.580
  327SOL    HW2  992   1.045   0.029   3.575
  328SOL     OW  993   0.504   0.050   3.602
  328SOL    HW1  994   0.462  -0.007   3.532
  328SOL    HW2  995   0.438   0.119   3.634
  329SOL     OW  996   0.573   0.870   2.891
  329SOL    HW1  997   0.617   0.959   2.882
  329SOL    HW2  998   0.510   0.870   2.968
  330SOL     OW  999   1.360   0.862   2.907
  330SOL    HW1 1000   1.285   0.862   2.841
  330SOL    HW2 1001   1.397   0.770   2.916
  331SOL     OW 1002   1.209   0.525   2.137
  331SOL    HW1 1003   1.222   0.441   2.191
  331SOL    HW2 1004   1.180   0.599   2.197
  332SOL     OW 1005   0.307   0.213   3.093
  332SOL    HW1 1006   0.284   0.250   3.183
  332SOL    HW2 1007   0.277   0.118   3.087
  333SOL     OW 1008   0.037   1.310   3.144
  333SOL    HW1 1009   0.090   1.261   3.212
  333SOL    HW2 1010   0.059   1.408   3.149
  334SOL     OW 1011   0.732   0.634   2.926
  334SOL    HW1 1012   0.791   0.608   2.850
  334SOL    HW2 1013   0.704   0.730   2.915
  335SOL     OW 1014   1.728   0.935   3.716
  335SOL    HW1 1015   1.682   0.928   3.627
  335SOL    HW2 1016   1.666   0.979   3.782
  336SOL     OW 1017   0.307   0.063   2.480
  336SOL    HW1 1018   0.296   0.157   2.513
  336SOL    HW2 1019   0.302   0.000   2.557
  337SOL     OW 1020   1.622   0.367   2.236
  337SOL    HW1 1021   1.624   0.291   2.300
  337SOL    HW2 1022   1.574   0.444   2.276
  338SOL     OW 1023   1.023   0.766   2.828
  338SOL    HW1 1024   1.038   0.787   2.924
  338SOL    HW2 1025   0.993   0.671   2.819
  339SOL     OW 1026   0.980   1.573   3.562
  339SOL    HW1 1027   0.960   1.617   3.474
  339SOL    HW2 1028   1.019   1.482   3.546
  340SOL     OW 1029   1.859   1.518   3.467
  340SOL    HW1 1030   1.873   1.545   3.372
  340SOL    HW2 1031   1.942   1.540   3.520
  341SOL     OW 1032   0.350   0.898   3.666
  341SOL    HW1 1033   0.426   0.942   3.714
  341SOL    HW2 1034   0.385   0.851   3.584
  342SOL     OW 1035   1.540   0.274   1.987
  342SOL    HW1 1036   1.479   0.199   2.010
  342SOL    HW2 1037   1.562   0.326   2.070
  343SOL     OW 1038   1.303   0.838   1.904
  343SOL    HW1 1039   1.337   0.745   1.919
  343SOL    HW2 1040   1.321   0.865   1.809
  344SOL     OW 1041   1.068   1.333   2.711
  344SOL    HW1 1042   1.075   1.249   2.656
  344SOL    HW2 1043   1.130   1.402   2.675
  345SOL     OW 1044   0.319   0.810   2.811
  345SOL    HW1 1045   0.412   0.846   2.816
  345SOL    HW2 1046   0.313   0.725   2.863
  346SOL     OW 1047   0.339   0.509   2.868
  346SOL    HW1 1048   0.287   0.426   2.851
  346SOL    HW2 1049   0.416   0.514   2.804
  347SOL     OW 1050   1.138   0.380   3.540
  347SOL    HW1 1051   1.093   0.443   3.604
  347SOL    HW2 1052   1.231   0.411   3.523
  348SOL     OW 1053   1.160   0.207   3.339
  348SOL    HW1 1054   1.160   0.271   3.416
  348SOL    HW2 1055   1.188   0.255   3.256
  349SOL     OW 1056   0.008   1.326   2.062
  349SOL    HW1 1057  -0.085   1.347   2.031
  349SOL    HW2 1058   0.018   1.227   2.075
  350SOL     OW 1059   0.088   1.801   2.789
  350SOL    HW1 1060   0.046   1.715   2.762
  350SOL    HW2 1061   0.182   1.804   2.755
  351SOL     OW 1062   0.504   1.568   2.772
  351SOL    HW1 1063   0.570   1.642   2.781
  351SOL    HW2 1064   0.548   1.489   2.730
  352SOL     OW 1065   1.002   0.796   3.100
  352SOL    HW1 1066   1.043   0.764   3.186
  352SOL    HW2 1067   0.906   0.769   3.097
  353SOL     OW 1068   0.040   0.544   2.976
  353SOL    HW1 1069   0.125   0.511   2.935
  353SOL    HW2 1070   0.053   0.559   3.074
  354SOL     OW 1071   0.189   0.520   3.584
  354SOL    HW1 1072   0.248   0.480   3.514
  354SOL    HW2 1073   0.131   0.591   3.543
  355SOL     OW 1074   1.369   0.950   3.522
  355SOL    HW1 1075   1.408   1.039   3.542
  355SOL    HW2 1076   1.379   0.930   3.425
  356SOL     OW 1077   0.815   0.572   2.187
  356SOL    HW1 1078   0.822   0.483   2.141
  356SOL    HW2 1079   0.721   0.606   2.179
  357SOL     OW 1080   1.657   0.604   3.068
  357SOL    HW1 1081   1.619   0.535   3.130
  357SOL    HW2 1082   1.739   0.568   3.024
  358SOL     OW 1083   0.252   1.564   3.606
  358SOL    HW1 1084   0.222   1.621   3.682
  358SOL    HW2 1085   0.245   1.467   3.632
  359SOL     OW 1086   0.671   0.464   3.131
  359SOL    HW1 1087   0.637   0.375   3.101
  359SOL    HW2 1088   0.697   0.518   3.051
  360SOL     OW 1089   0.930   1.678   3.327
  360SOL    HW1 1090   0.906   1.660   3.232
  360SOL    HW2 1091   0.960   1.772   3.337
  361SOL     OW 1092   0.473   0.500   2.053
  361SOL    HW1 1093   0.534   0.580   2.057
  361SOL    HW2 1094   0.378   0.531   2.060
  362SOL     OW 1095   0.159   1.137   3.328
  362SOL    HW1 1096   0.181   1.076   3.404
  362SOL    HW2 1097   0.169   1.088   3.242
  363SOL     OW 1098   1.347   1.059   3.096
  363SOL    HW1 1099   1.371   0.996   3.022
  363SOL    HW2 1100   1.257   1.099   3.078
  364SOL     OW 1101   1.302   0.855   2.171
  364SOL    HW1 1102   1.216   0.824   2.213
  364SOL    HW2 1103   1.298   0.841   2.072
  365SOL     OW 1104   1.759   1.747   3.016
  365SOL    HW1 1105   1.820   1.777   2.943
  365SOL    HW2 1106   1.721   1.658   2.994
  366SOL     OW 1107   1.252   1.731   2.990
  366SOL    HW1 1108   1.336   1.736   2.936
  366SOL    HW2 1109   1.229   1.635   3.008
  367SOL     OW 1110   0.083   1.258   2.884
  367SOL    HW1 1111   0.078   1.257   2.984
  367SOL    HW2 1112   0.000   1.217   2.846
  368SOL     OW 1113   0.688   1.662   3.578
  368SOL    HW1 1114   0.632   1.743   3.587
  368SOL    HW2 1115   0.740   1.666   3.492
  369SOL     OW 1116   1.726   0.135   2.385
  369SOL    HW1 1117   1.799   0.118   2.318
  369SOL    HW2 1118   1.695   0.048   2.423
  370SOL     OW 1119   1.388   1.573   2.339
  370SOL    HW1 1120   1.455   1.585   2.265
  370SOL    HW2 1121   1.348   1.662   2.362
  371SOL     OW 1122   0.130   1.794   3.713
  371SOL    HW1 1123   0.089   1.720   3.766
  371SOL    HW2 1124   0.194   1.845   3.771
  372SOL     OW 1125   1.280   0.927   2.534
  372SOL    HW1 1126   1.340   0.846   2.536
  372SOL    HW2 1127   1.320   0.996   2.474
  373SOL     OW 1128   0.830   1.273   3.284
  373SOL    HW1 1129   0.825   1.306   3.379
  373SOL    HW2 1130   0.744   1.292   3.238
  374SOL     OW 1131   0.672   1.616   2.016
  374SOL    HW1 1132   0.681   1.626   1.917
  374SOL    HW2 1133   0.632   1.527   2.037
  375SOL     OW 1134   1.650   1.720   3.256
  375SOL    HW1 1135   1.703   1.730   3.172
  375SOL    HW2 1136   1.623   1.810   3.290
  376SOL     OW 1137   1.841   0.175   2.825
  376SOL    HW1 1138   1.880   0.090   2.789
  376SOL    HW2 1139   1.743   0.177   2.806
  377SOL     OW 1140   0.263   0.326   2.582
  377SOL    HW1 1141   0.184   0.377   2.548
  377SOL    HW2 1142   0.254   0.311   2.680
  378SOL     OW 1143   1.194   1.612   1.893
  378SOL    HW1 1144   1.200   1.519   1.930
  378SOL    HW2 1145   1.135   1.612   1.813
  379SOL     OW 1146   0.822   1.002   3.234
  379SOL    HW1 1147   0.862   1.001   3.142
  379SOL    HW2 1148   0.832   1.094   3.274
  380SOL     OW 1149   0.916   0.910   2.153
  380SOL    HW1 1150   0.979   0.948   2.085
  380SOL    HW2 1151   0.956   0.827   2.192
  381SOL     OW 1152   1.504   1.607   1.906
  381SOL    HW1 1153   1.412   1.644   1.913
  381SOL    HW2 1154   1.542   1.627   1.816
  382SOL     OW 1155   0.372   1.288   3.352
  382SOL    HW1 1156   0.359   1.381   3.318
  382SOL    HW2 1157   0.288   1.236   3.339
  383SOL     OW 1158   1.614   1.292   3.151
  383SOL    HW1 1159   1.674   1.295   3.231
  383SOL    HW2 1160   1.539   1.356   3.164
  384SOL     OW 1161   1.039   1.098   2.558
  384SOL    HW1 1162   0.969   1.051   2.612
  384SOL    HW2 1163   1.098   1.030   2.515
  385SOL     OW 1164   1.014   0.236   2.833
  385SOL    HW1 1165   1.006   0.200   2.740
  385SOL    HW2 1166   1.012   0.160   2.898
  386SOL     OW 1167   0.590   1.487   2.353
  386SOL    HW1 1168   0.632   1.429   2.283
  386SOL    HW2 1169   0.546   1.566   2.309
  387SOL     OW 1170   1.709   0.385   3.243
  387SOL    HW1 1171   1.782   0.454   3.247
  387SOL    HW2 1172   1.737   0.310   3.184
  388SOL     OW 1173   0.255   1.348   2.152
  388SOL    HW1 1174   0.159   1.349   2.125
  388SOL    HW2 1175   0.267   1.401   2.236
  389SOL     OW 1176   0.105   1.013   3.588
  389SOL    HW1 1177   0.028   0.980   3.642
  389SOL    HW2 1178   0.190   0.983   3.630
  390SOL     OW 1179   0.672   0.203   3.351
  390SOL    HW1 1180   0.762   0.187   3.311
  390SOL    HW2 1181   0.680   0.208   3.450
  391SOL     OW 1182   0.075   0.345   1.895
  391SOL    HW1 1183  -0.017   0.317   1.866
  391SOL    HW2 1184   0.106   0.422   1.839
  392SOL     OW 1185   1.440   0.856   3.260
  392SOL    HW1 1186   1.383   0.908   3.197
  392SOL    HW2 1187   1.536   0.868   3.236
  393SOL     OW 1188   0.072   0.166   2.180
  393SOL    HW1 1189   0.055   0.249   2.126
  393SOL    HW2 1190   0.162   0.129   2.158
  394SOL     OW 1191   1.183   1.335   1.981
  394SOL    HW1 1192   1.084   1.324   1.983
  394SOL    HW2 1193   1.217   1.350   2.074
  395SOL     OW 1194   0.613   0.842   3.293
  395SOL    HW1 1195   0.669   0.923   3.276
  395SOL    HW2 1196   0.672   0.762   3.296
  396SOL     OW 1197   1.493   1.767   2.821
  396SOL    HW1 1198   1.526   1.831   2.752
  396SOL    HW2 1199   1.559   1.761   2.896
  397SOL     OW 1200   0.716   0.565   3.570
  397SOL    HW1 1201   0.735   0.630   3.644
  397SOL    HW2 1202   0.776   0.485   3.579
  398SOL     OW 1203   1.450   1.220   3.495
  398SOL    HW1 1204   1.441   1.210   3.594
  398SOL    HW2 1205   1.546   1.213   3.469
  399SOL     OW 1206   0.390   1.741   3.422
  399SOL    HW1 1207   0.299   1.782   3.420
  399SOL    HW2 1208   0.383   1.647   3.454
  400SOL     OW 1209   1.674   0.883   3.116
  400SOL    HW1 1210   1.647   0.794   3.079
  400SOL    HW2 1211   1.675   0.951   3.043
  401SOL     OW 1212   1.225   0.325   2.311
  401SOL    HW1 1213   1.290   0.251   2.300
  401SOL    HW2 1214   1.245   0.375   2.395
  402SOL     OW 1215   0.594   0.745   2.514
  402SOL    HW1 1216   0.644   0.830   2.495
  402SOL    HW2 1217   0.506   0.747   2.466
  403SOL     OW 1218   1.777   0.342   3.504
  403SOL    HW1 1219   1.760   0.373   3.410
  403SOL    HW2 1220   1.693   0.305   3.542
  404SOL     OW 1221   1.730   0.934   3.379
  404SOL    HW1 1222   1.768   1.025   3.394
  404SOL    HW2 1223   1.722   0.917   3.280
  405SOL     OW 1224   0.859   1.374   1.878
  405SOL    HW1 1225   0.813   1.389   1.966
  405SOL    HW2 1226   0.903   1.459   1.848
  406SOL     OW 1227   0.661   1.790   2.815
  406SOL    HW1 1228   0.615   1.878   2.802
  406SOL    HW2 1229   0.760   1.802   2.808
  407SOL     OW 1230   0.859   0.956   2.723
  407SOL    HW1 1231   0.913   0.887   2.771
  407SOL    HW2 1232   0.827   1.025   2.789
  408SOL     OW 1233   1.083   0.984   1.949
  408SOL    HW1 1234   1.060   1.037   1.867
  408SOL    HW2 1235   1.164   0.928   1.930
  409SOL     OW 1236   1.861   1.569   2.713
  409SOL    HW1 1237   1.790   1.557   2.643
  409SOL    HW2 1238   1.862   1.490   2.773
  410SOL     OW 1239   0.221   1.314   3.706
  410SOL    HW1 1240   0.156   1.241   3.685
  410SOL    HW2 1241   0.225   1.328   3.804
  411SOL     OW 1242   0.079   1.240   2.515
  411SOL    HW1 1243   0.078   1.193   2.603
  411SOL    HW2 1244   0.161   1.212   2.464
  412SOL     OW 1245   0.672   1.391   3.486
  412SOL    HW1 1246   0.594   1.341   3.524
  412SOL    HW2 1247   0.669   1.486   3.517
  413SOL     OW 1248   1.824   0.192   3.089
  413SOL    HW1 1249   1.820   0.102   3.133
  413SOL    HW2 1250   1.827   0.181   2.990
  414SOL     OW 1251   0.428   0.424   2.382
  414SOL    HW1 1252   0.458   0.352   2.320
  414SOL    HW2 1253   0.389   0.384   2.465
  415SOL     OW 1254   1.705   1.487   2.966
  415SOL    HW1 1255   1.612   1.462   2.939
  415SOL    HW2 1256   1.731   1.437   3.048
  416SOL     OW 1257   0.317   0.547   3.142
  416SOL    HW1 1258   0.355   0.488   3.214
  416SOL    HW2 1259   0.357   0.521   3.054
  417SOL     OW 1260   0.812   1.586   2.549
  417SOL    HW1 1261   0.844   1.596   2.455
  417SOL    HW2 1262   0.733   1.524   2.551
  418SOL     OW 1263   1.424   0.214   2.974
  418SOL    HW1 1264   1.476   0.149   3.029
  418SOL    HW2 1265   1.375   0.277   3.035
  419SOL     OW 1266   1.001   0.034   3.016
  419SOL    HW1 1267   0.938  -0.038   2.985
  419SOL    HW2 1268   1.094  -0.002   3.016
  420SOL     OW 1269   0.770   1.330   2.163
  420SOL    HW1 1270   0.724   1.243   2.180
  420SOL    HW2 1271   0.861   1.327   2.204
  421SOL     OW 1272   0.618   1.567   3.146
  421SOL    HW1 1273   0.613   1.649   3.203
  421SOL    HW2 1274   0.707   1.564   3.101
  422SOL     OW 1275   1.352   0.052   2.030
  422SOL    HW1 1276   1.387   0.011   1.946
  422SOL    HW2 1277   1.262   0.014   2.050
  423SOL     OW 1278   1.300   0.453   2.553
  423SOL    HW1 1279   1.241   0.533   2.557
  423SOL    HW2 1280   1.315   0.418   2.646
  424SOL     OW 1281   1.593   0.221   2.744
  424SOL    HW1 1282   1.509   0.220   2.798
  424SOL    HW2 1283   1.595   0.304   2.688
  425SOL     OW 1284   0.039   1.077   2.162
  425SOL    HW1 1285   0.138   1.066   2.153
  425SOL    HW2 1286  -0.001   0.991   2.194
  426SOL     OW 1287   0.875   1.646   2.199
  426SOL    HW1 1288   0.798   1.611   2.145
  426SOL    HW2 1289   0.843   1.717   2.261
  427SOL     OW 1290   0.230   0.628   3.837
  427SOL    HW1 1291   0.137   0.626   3.874
  427SOL    HW2 1292   0.231   0.589   3.745
  428SOL     OW 1293   1.755   0.607   3.955
  428SOL    HW1 1294   1.743   0.594   3.856
  428SOL    HW2 1295   1.725   0.526   4.004
  429SOL     OW 1296   0.231   1.713   4.207
  429SOL    HW1 1297   0.265   1.790   4.261
  429SOL    HW2 1298   0.275   1.713   4.117
  430SOL     OW 1299   0.230   1.434   4.262
  430SOL    HW1 1300   0.204   1.530   4.262
  430SOL    HW2 1301   0.159   1.380   4.307
  431SOL     OW 1302   0.606   0.964   3.847
  431SOL    HW1 1303   0.613   1.048   3.793
  431SOL    HW2 1304   0.652   0.977   3.935
  432SOL     OW 1305   0.122   0.643   4.287
  432SOL    HW1 1306   0.077   0.555   4.304
  432SOL    HW2 1307   0.121   0.697   4.371
  433SOL     OW 1308   1.842   1.767   4.083
  433SOL    HW1 1309   1.896   1.738   4.163
  433SOL    HW2 1310   1.872   1.857   4.054
  434SOL     OW 1311   0.027   1.596   3.841
  434SOL    HW1 1312   0.008   1.500   3.862
  434SOL    HW2 1313  -0.006   1.654   3.916
  435SOL     OW 1314   1.689   0.922   4.336
  435SOL    HW1 1315   1.784   0.893   4.344
  435SOL    HW2 1316   1.681   0.987   4.261
  436SOL     OW 1317   1.641   1.108   4.156
  436SOL    HW1 1318   1.727   1.110   4.104
  436SOL    HW2 1319   1.655   1.155   4.244
  437SOL     OW 1320   0.613   1.365   4.450
  437SOL    HW1 1321   0.564   1.278   4.459
  437SOL    HW2 1322   0.590   1.408   4.363
  438SOL     OW 1323   0.809   0.004   4.226
  438SOL    HW1 1324   0.849   0.095   4.217
  438SOL    HW2 1325   0.709   0.012   4.232
  439SOL     OW 1326   1.525   0.999   3.914
  439SOL    HW1 1327   1.462   0.923   3.927
  439SOL    HW2 1328   1.573   1.017   4.000
  440SOL     OW 1329   1.466   1.417   4.677
  440SOL    HW1 1330   1.407   1.423   4.757
  440SOL    HW2 1331   1.451   1.329   4.631
  441SOL     OW 1332   0.598   0.729   3.994
  441SOL    HW1 1333   0.622   0.798   3.926
  441SOL    HW2 1334   0.520   0.762   4.048
  442SOL     OW 1335   1.576   1.662   4.031
  442SOL    HW1 1336   1.665   1.708   4.034
  442SOL    HW2 1337   1.555   1.638   3.936
  443SOL     OW 1338   1.041   0.701   4.153
  443SOL    HW1 1339   1.067   0.697   4.249
  443SOL    HW2 1340   0.956   0.650   4.139
  444SOL     OW 1341   0.076   0.811   4.513
  444SOL    HW1 1342   0.175   0.799   4.522
  444SOL    HW2 1343   0.052   0.906   4.534
  445SOL     OW 1344   0.865   0.348   3.919
  445SOL    HW1 1345   0.924   0.411   3.870
  445SOL    HW2 1346   0.884   0.254   3.890
  446SOL     OW 1347   1.362   1.144   4.269
  446SOL    HW1 1348   1.445   1.115   4.221
  446SOL    HW2 1349   1.313   1.211   4.213
  447SOL     OW 1350   1.008   1.456   4.201
  447SOL    HW1 1351   0.962   1.528   4.149
  447SOL    HW2 1352   1.004   1.476   4.299
  448SOL     OW 1353   0.351   1.801   4.577
  448SOL    HW1 1354   0.401   1.715   4.583
  448SOL    HW2 1355   0.416   1.878   4.574
  449SOL     OW 1356   1.795   1.066   4.597
  449SOL    HW1 1357   1.733   1.051   4.521
  449SOL    HW2 1358   1.743   1.077   4.682
  450SOL     OW 1359   0.321   0.943   3.966
  450SOL    HW1 1360   0.403   0.982   3.924
  450SOL    HW2 1361   0.294   0.861   3.917
  451SOL     OW 1362   1.111   1.776   3.961
  451SOL    HW1 1363   1.051   1.714   4.011
  451SOL    HW2 1364   1.142   1.732   3.876
  452SOL     OW 1365   1.632   1.377   3.805
  452SOL    HW1 1366   1.600   1.471   3.795
  452SOL    HW2 1367   1.556   1.314   3.793
  453SOL     OW 1368   0.464   1.743   4.047
  453SOL    HW1 1369   0.497   1.782   4.133
  453SOL    HW2 1370   0.540   1.736   3.982
  454SOL     OW 1371   1.400   0.107   4.150
  454SOL    HW1 1372   1.376   0.070   4.060
  454SOL    HW2 1373   1.499   0.123   4.154
  455SOL     OW 1374   0.382   0.700   4.204
  455SOL    HW1 1375   0.427   0.610   4.201
  455SOL    HW2 1376   0.288   0.689   4.237
  456SOL     OW 1377   0.614   0.122   3.841
  456SOL    HW1 1378   0.712   0.100   3.848
  456SOL    HW2 1379   0.583   0.105   3.748
  457SOL     OW 1380   0.539   0.064   4.236
  457SOL    HW1 1381   0.458   0.065   4.294
  457SOL    HW2 1382   0.542   0.147   4.181
  458SOL     OW 1383   1.434   1.188   3.765
  458SOL    HW1 1384   1.466   1.112   3.822
  458SOL    HW2 1385   1.342   1.215   3.795
  459SOL     OW 1386   0.297   0.035   3.895
  459SOL    HW1 1387   0.346   0.119   3.874
  459SOL    HW2 1388   0.359  -0.030   3.940
  460SOL     OW 1389   0.935   0.236   4.204
  460SOL    HW1 1390   0.887   0.277   4.126
  460SOL    HW2 1391   1.034   0.234   4.185
  461SOL     OW 1392   0.459   1.152   4.465
  461SOL    HW1 1393   0.388   1.125   4.530
  461SOL    HW2 1394   0.433   1.124   4.372
  462SOL     OW 1395   1.271   1.797   4.315
  462SOL    HW1 1396   1.315   1.861   4.251
  462SOL    HW2 1397   1.221   1.849   4.385
  463SOL     OW 1398   1.032   0.549   3.740
  463SOL    HW1 1399   0.991   0.631   3.701
  463SOL    HW2 1400   1.096   0.575   3.813
  464SOL     OW 1401   0.866   0.454   4.366
  464SOL    HW1 1402   0.834   0.526   4.304
  464SOL    HW2 1403   0.890   0.373   4.313
  465SOL     OW 1404   1.857   0.833   4.101
  465SOL    HW1 1405   1.899   0.769   4.165
  465SOL    HW2 1406   1.819   0.782   4.023
  466SOL     OW 1407   0.488   1.385   3.898
  466SOL    HW1 1408   0.401   1.370   3.945
  466SOL    HW2 1409   0.471   1.411   3.803
  467SOL     OW 1410   1.390   0.575   3.802
  467SOL    HW1 1411   1.336   0.554   3.883
  467SOL    HW2 1412   1.481   0.534   3.811
  468SOL     OW 1413   0.527   0.256   4.052
  468SOL    HW1 1414   0.554   0.197   3.977
  468SOL    HW2 1415   0.527   0.351   4.021
  469SOL     OW 1416   0.705   1.050   4.092
  469SOL    HW1 1417   0.691   1.057   4.191
  469SOL    HW2 1418   0.789   0.999   4.074
  470SOL     OW 1419   0.367   1.100   4.225
  470SOL    HW1 1420   0.360   1.183   4.169
  470SOL    HW2 1421   0.371   1.020   4.165
  471SOL     OW 1422   1.252   1.348   4.112
  471SOL    HW1 1423   1.302   1.425   4.152
  471SOL    HW2 1424   1.157   1.350   4.144
  472SOL     OW 1425   1.582   0.639   4.196
  472SOL    HW1 1426   1.551   0.700   4.269
  472SOL    HW2 1427   1.632   0.691   4.127
  473SOL     OW 1428   1.209   0.525   3.999
  473SOL    HW1 1429   1.222   0.441   4.053
  473SOL    HW2 1430   1.180   0.599   4.059
  474SOL     OW 1431   0.307   0.063   4.342
  474SOL    HW1 1432   0.296   0.157   4.375
  474SOL    HW2 1433   0.302   0.000   4.419
  475SOL     OW 1434   1.622   0.367   4.098
  475SOL    HW1 1435   1.624   0.291   4.162
  475SOL    HW2 1436   1.574   0.444   4.138
  476SOL     OW 1437   1.540   0.274   3.849
  476SOL    HW1 1438   1.479   0.199   3.872
  476SOL    HW2 1439   1.562   0.326   3.932
  477SOL     OW 1440   1.303   0.838   3.766
  477SOL    HW1 1441   1.337   0.745   3.781
  477SOL    HW2 1442   1.321   0.865   3.671
  478SOL     OW 1443   0.008   1.326   3.924
  478SOL    HW1 1444  -0.085   1.347   3.893
  478SOL    HW2 1445   0.018   1.227   3.937
  479SOL     OW 1446   0.815   0.572   4.049
  479SOL    HW1 1447   0.822   0.483   4.003
  479SOL    HW2 1448   0.721   0.606   4.041
  480SOL     OW 1449   0.473   0.500   3.915
  480SOL    HW1 1450   0.534   0.580   3.919
  480SOL    HW2 1451   0.378   0.531   3.922
  481SOL     OW 1452   1.302   0.855   4.033
  481SOL    HW1 1453   1.216   0.824   4.075
  481SOL    HW2 1454   1.298   0.841   3.934
  482SOL     OW 1455   1.726   0.135   4.247
  482SOL    HW1 1456   1.799   0.118   4.180
  482SOL    HW2 1457   1.695   0.048   4.285
  483SOL     OW 1458   1.388   1.573   4.201
  483SOL    HW1 1459   1.455   1.585   4.127
  483SOL    HW2 1460   1.348   1.662   4.224
  484SOL     OW 1461   0.672   1.616   3.878
  484SOL    HW1 1462   0.681   1.626   3.779
  484SOL    HW2 1463   0.632   1.527   3.899
  485SOL     OW 1464   1.841   0.175   4.687
  485SOL    HW1 1465   1.880   0.090   4.651
  485SOL    HW2 1466   1.743   0.177   4.668
  486SOL     OW 1467   1.194   1.612   3.755
  486SOL    HW1 1468   1.200   1.519   3.792
  486SOL    HW2 1469   1.135   1.612   3.675
  487SOL     OW 1470   0.916   0.910   4.015
  487SOL    HW1 1471   0.979   0.948   3.947
  487SOL    HW2 1472   0.956   0.827   4.054
  488SOL     OW 1473   1.504   1.607   3.768
  488SOL    HW1 1474   1.412   1.644   3.775
  488SOL    HW2 1475   1.542   1.627   3.678
  489SOL     OW 1476   0.590   1.487   4.215
  489SOL    HW1 1477   0.632   1.429   4.145
  489SOL    HW2 1478   0.546   1.566   4.171
  490SOL     OW 1479   0.255   1.348   4.014
  490SOL    HW1 1480   0.159   1.349   3.987
  490SOL    HW2 1481   0.267   1.401   4.098
  491SOL     OW 1482   0.075   0.345   3.757
  491SOL    HW1 1483  -0.017   0.317   3.728
  491SOL    HW2 1484   0.106   0.422   3.701
  492SOL     OW 1485   0.072   0.166   4.042
  492SOL    HW1 1486   0.055   0.249   3.988
  492SOL    HW2 1487   0.162   0.129   4.020
  493SOL     OW 1488   1.183   1.335   3.843
  493SOL    HW1 1489   1.084   1.324   3.845
  493SOL    HW2 1490   1.217   1.350   3.936
  494SOL     OW 1491   1.225   0.325   4.173
  494SOL    HW1 1492   1.290   0.251   4.162
  494SOL    HW2 1493   1.245   0.375   4.257
  495SOL     OW 1494   0.594   0.745   4.376
  495SOL    HW1 1495   0.644   0.830   4.357
  495SOL    HW2 1496   0.506   0.747   4.328
  496SOL     OW 1497   0.859   1.374   3.740
  496SOL    HW1 1498   0.813   1.389   3.828
  496SOL    HW2 1499   0.903   1.459   3.710
  497SOL     OW 1500   1.083   0.984   3.811
  497SOL    HW1 1501   1.060   1.037   3.729
  497SOL    HW2 1502   1.164   0.928   3.792
  498SOL     OW 1503   0.079   1.240   4.377
  498SOL    HW1 1504   0.078   1.193   4.465
  498SOL    HW2 1505   0.161   1.212   4.326
  499SOL     OW 1506   0.428   0.424   4.244
  499SOL    HW1 1507   0.458   0.352   4.182
  499SOL    HW2 1508   0.389   0.384   4.327
  500SOL     OW 1509   0.812   1.586   4.411
  500SOL    HW1 1510   0.844   1.596   4.317
  500SOL    HW2 1511   0.733   1.524   4.413
  501SOL     OW 1512   0.770   1.330   4.025
  501SOL    HW1 1513   0.724   1.243   4.042
  501SOL    HW2 1514   0.861   1.327   4.066
  502SOL     OW 1515   1.352   0.052   3.892
  502SOL    HW1 1516   1.387   0.011   3.808
  502SOL    HW2 1517   1.262   0.014   3.912
  503SOL     OW 1518   1.300   0.453   4.415
  503SOL    HW1 1519   1.241   0.533   4.419
  503SOL    HW2 1520   1.315   0.418   4.508
  504SOL     OW 1521   0.039   1.077   4.024
  504SOL    HW1 1522   0.138   1.066   4.015
  504SOL    HW2 1523  -0.001   0.991   4.056
  505SOL     OW 1524   0.875   1.646   4.061
  505SOL    HW1 1525   0.798   1.611   4.007
  505SOL    HW2 1526   0.843   1.717   4.123
  506SOL     OW 1527   0.230   2.490   0.113
  506SOL    HW1 1528   0.137   2.488   0.150
  506SOL    HW2 1529   0.231   2.451   0.021
  507SOL     OW 1530   0.225   2.137   0.996
  507SOL    HW1 1531   0.260   2.120   1.088
  507SOL    HW2 1532   0.137   2.092   0.984
  508SOL     OW 1533   0.019   2.230   0.647
  508SOL    HW1 1534  -0.063   2.273   0.686
  508SOL    HW2 1535  -0.009   2.157   0.584
  509SOL     OW 1536   0.569   3.137   1.165
  509SOL    HW1 1537   0.476   3.130   1.128
  509SOL    HW2 1538   0.580   3.226   1.209
  510SOL     OW 1539   1.555   3.373   0.703
  510SOL    HW1 1540   1.498   3.357   0.784
  510SOL    HW2 1541   1.496   3.383   0.623
  511SOL     OW 1542   1.135   2.565   0.717
  511SOL    HW1 1543   1.192   2.643   0.692
  511SOL    HW2 1544   1.075   2.591   0.793
  512SOL     OW 1545   1.755   2.469   0.231
  512SOL    HW1 1546   1.743   2.456   0.132
  512SOL    HW2 1547   1.725   2.388   0.280
  513SOL     OW 1548   0.768   3.006   1.023
  513SOL    HW1 1549   0.690   3.023   1.083
  513SOL    HW2 1550   0.802   3.093   0.987
  514SOL     OW 1551   0.850   2.660   1.823
  514SOL    HW1 1552   0.846   2.736   1.888
  514SOL    HW2 1553   0.872   2.696   1.732
  515SOL     OW 1554   0.685   2.874   0.665
  515SOL    HW1 1555   0.754   2.858   0.735
  515SOL    HW2 1556   0.612   2.931   0.703
  516SOL     OW 1557   0.686   3.023   1.803
  516SOL    HW1 1558   0.746   3.102   1.817
  516SOL    HW2 1559   0.600   3.054   1.762
  517SOL     OW 1560   0.335   3.297   1.061
  517SOL    HW1 1561   0.257   3.266   1.008
  517SOL    HW2 1562   0.393   3.355   1.004
  518SOL     OW 1563   1.460   3.367   1.339
  518SOL    HW1 1564   1.484   3.461   1.365
  518SOL    HW2 1565   1.444   3.313   1.421
  519SOL     OW 1566   0.438   2.254   1.499
  519SOL    HW1 1567   0.520   2.198   1.508
  519SOL    HW2 1568   0.357   2.196   1.503
  520SOL     OW 1569   1.603   2.309   0.737
  520SOL    HW1 1570   1.529   2.355   0.687
  520SOL    HW2 1571   1.654   2.377   0.790
  521SOL     OW 1572   0.231   3.575   0.483
  521SOL    HW1 1573   0.265   3.652   0.537
  521SOL    HW2 1574   0.275   3.575   0.393
  522SOL     OW 1575   1.127   3.203   1.690
  522SOL    HW1 1576   1.174   3.203   1.778
  522SOL    HW2 1577   1.079   3.116   1.679
  523SOL     OW 1578   0.230   3.296   0.538
  523SOL    HW1 1579   0.204   3.392   0.538
  523SOL    HW2 1580   0.159   3.242   0.583
  524SOL     OW 1581   0.240   2.953   0.886
  524SOL    HW1 1582   0.254   2.869   0.938
  524SOL    HW2 1583   0.185   3.017   0.941
  525SOL     OW 1584   0.620   3.648   1.439
  525SOL    HW1 1585   0.528   3.631   1.474
  525SOL    HW2 1586   0.648   3.740   1.465
  526SOL     OW 1587   0.606   2.826   0.123
  526SOL    HW1 1588   0.613   2.910   0.069
  526SOL    HW2 1589   0.652   2.839   0.211
  527SOL     OW 1590   1.594   1.976   1.480
  527SOL    HW1 1591   1.576   2.043   1.408
  527SOL    HW2 1592   1.591   2.022   1.569
  528SOL     OW 1593   0.122   2.505   0.563
  528SOL    HW1 1594   0.077   2.417   0.580
  528SOL    HW2 1595   0.121   2.559   0.647
  529SOL     OW 1596   1.842   3.629   0.359
  529SOL    HW1 1597   1.896   3.600   0.439
  529SOL    HW2 1598   1.872   3.719   0.330
  530SOL     OW 1599   0.027   3.458   0.117
  530SOL    HW1 1600   0.008   3.362   0.138
  530SOL    HW2 1601  -0.006   3.516   0.192
  531SOL     OW 1602   1.689   2.784   0.612
  531SOL    HW1 1603   1.784   2.755   0.620
  531SOL    HW2 1604   1.681   2.849   0.537
  532SOL     OW 1605   1.641   2.970   0.432
  532SOL    HW1 1606   1.727   2.972   0.380
  532SOL    HW2 1607   1.655   3.017   0.520
  533SOL     OW 1608   0.113   2.599   1.597
  533SOL    HW1 1609   0.201   2.586   1.642
  533SOL    HW2 1610   0.100   2.696   1.575
  534SOL     OW 1611   0.613   3.227   0.726
  534SOL    HW1 1612   0.564   3.140   0.735
  534SOL    HW2 1613   0.590   3.270   0.639
  535SOL     OW 1614   1.293   3.090   1.423
  535SOL    HW1 1615   1.330   3.017   1.365
  535SOL    HW2 1616   1.345   3.095   1.508
  536SOL     OW 1617   0.809   1.866   0.502
  536SOL    HW1 1618   0.849   1.957   0.493
  536SOL    HW2 1619   0.709   1.874   0.508
  537SOL     OW 1620   0.197   2.838   1.264
  537SOL    HW1 1621   0.286   2.793   1.250
  537SOL    HW2 1622   0.124   2.773   1.245
  538SOL     OW 1623   1.525   2.861   0.190
  538SOL    HW1 1624   1.462   2.785   0.203
  538SOL    HW2 1625   1.573   2.879   0.276
  539SOL     OW 1626   1.187   3.654   1.616
  539SOL    HW1 1627   1.211   3.714   1.540
  539SOL    HW2 1628   1.194   3.559   1.586
  540SOL     OW 1629   0.317   2.113   1.801
  540SOL    HW1 1630   0.388   2.184   1.807
  540SOL    HW2 1631   0.229   2.152   1.829
  541SOL     OW 1632   1.466   3.279   0.953
  541SOL    HW1 1633   1.407   3.285   1.033
  541SOL    HW2 1634   1.451   3.191   0.907
  542SOL     OW 1635   1.667   3.576   0.572
  542SOL    HW1 1636   1.626   3.553   0.484
  542SOL    HW2 1637   1.649   3.502   0.637
  543SOL     OW 1638   0.598   2.591   0.270
  543SOL    HW1 1639   0.622   2.660   0.202
  543SOL    HW2 1640   0.520   2.624   0.324
  544SOL     OW 1641   1.281   2.207   0.944
  544SOL    HW1 1642   1.195   2.157   0.931
  544SOL    HW2 1643   1.343   2.153   1.000
  545SOL     OW 1644   1.576   3.524   0.307
  545SOL    HW1 1645   1.665   3.570   0.310
  545SOL    HW2 1646   1.555   3.500   0.212
  546SOL     OW 1647   0.807   2.467   1.465
  546SOL    HW1 1648   0.760   2.464   1.554
  546SOL    HW2 1649   0.756   2.412   1.399
  547SOL     OW 1650   1.394   2.331   1.674
  547SOL    HW1 1651   1.374   2.374   1.762
  547SOL    HW2 1652   1.472   2.269   1.683
  548SOL     OW 1653   0.973   2.752   1.572
  548SOL    HW1 1654   1.019   2.668   1.543
  548SOL    HW2 1655   0.917   2.786   1.497
  549SOL     OW 1656   0.991   2.272   1.242
  549SOL    HW1 1657   0.914   2.306   1.296
  549SOL    HW2 1658   0.957   2.221   1.163
  550SOL     OW 1659   1.041   2.563   0.429
  550SOL    HW1 1660   1.067   2.559   0.525
  550SOL    HW2 1661   0.956   2.512   0.415
  551SOL     OW 1662   0.076   2.673   0.789
  551SOL    HW1 1663   0.175   2.661   0.798
  551SOL    HW2 1664   0.052   2.768   0.810
  552SOL     OW 1665   0.130   3.683   1.571
  552SOL    HW1 1666   0.120   3.668   1.670
  552SOL    HW2 1667   0.044   3.719   1.535
  553SOL     OW 1668   0.865   2.210   0.195
  553SOL    HW1 1669   0.924   2.273   0.146
  553SOL    HW2 1670   0.884   2.116   0.166
  554SOL     OW 1671   1.719   2.447   1.831
  554SOL    HW1 1672   1.693   2.536   1.795
  554SOL    HW2 1673   1.717   2.379   1.758
  555SOL     OW 1674   1.362   3.006   0.545
  555SOL    HW1 1675   1.445   2.977   0.497
  555SOL    HW2 1676   1.313   3.073   0.489
  556SOL     OW 1677   0.550   2.058   0.885
  556SOL    HW1 1678   0.545   2.053   0.985
  556SOL    HW2 1679   0.552   2.154   0.856
  557SOL     OW 1680   1.008   3.318   0.477
  557SOL    HW1 1681   0.962   3.390   0.425
  557SOL    HW2 1682   1.004   3.338   0.575
  558SOL     OW 1683   0.351   3.663   0.853
  558SOL    HW1 1684   0.401   3.577   0.859
  558SOL    HW2 1685   0.416   3.740   0.850
  559SOL     OW 1686   1.795   2.928   0.873
  559SOL    HW1 1687   1.733   2.913   0.797
  559SOL    HW2 1688   1.743   2.939   0.958
  560SOL     OW 1689   1.227   3.412   1.506
  560SOL    HW1 1690   1.233   3.335   1.570
  560SOL    HW2 1691   1.175   3.386   1.426
  561SOL     OW 1692   0.321   2.805   0.242
  561SOL    HW1 1693   0.403   2.844   0.200
  561SOL    HW2 1694   0.294   2.723   0.193
  562SOL     OW 1695   1.458   2.597   0.728
  562SOL    HW1 1696   1.453   2.532   0.803
  562SOL    HW2 1697   1.538   2.656   0.741
  563SOL     OW 1698   0.461   3.128   1.727
  563SOL    HW1 1699   0.411   3.129   1.641
  563SOL    HW2 1700   0.398   3.110   1.803
  564SOL     OW 1701   1.111   3.638   0.237
  564SOL    HW1 1702   1.051   3.576   0.287
  564SOL    HW2 1703   1.142   3.594   0.152
  565SOL     OW 1704   0.202   2.147   1.498
  565SOL    HW1 1705   0.122   2.207   1.485
  565SOL    HW2 1706   0.192   2.098   1.584
  566SOL     OW 1707   1.632   3.239   0.081
  566SOL    HW1 1708   1.600   3.333   0.071
  566SOL    HW2 1709   1.556   3.176   0.069
  567SOL     OW 1710   0.464   3.605   0.323
  567SOL    HW1 1711   0.497   3.644   0.409
  567SOL    HW2 1712   0.540   3.598   0.258
  568SOL     OW 1713   1.400   1.969   0.426
  568SOL    HW1 1714   1.376   1.932   0.336
  568SOL    HW2 1715   1.499   1.985   0.430
  569SOL     OW 1716   0.249   3.647   1.241
  569SOL    HW1 1717   0.306   3.582   1.291
  569SOL    HW2 1718   0.233   3.614   1.148
  570SOL     OW 1719   0.940   3.560   0.904
  570SOL    HW1 1720   1.020   3.503   0.925
  570SOL    HW2 1721   0.891   3.520   0.827
  571SOL     OW 1722   0.382   2.562   0.480
  571SOL    HW1 1723   0.427   2.472   0.477
  571SOL    HW2 1724   0.288   2.551   0.513
  572SOL     OW 1725   1.547   2.084   1.729
  572SOL    HW1 1726   1.542   2.121   1.821
  572SOL    HW2 1727   1.475   2.015   1.717
  573SOL     OW 1728   0.614   1.984   0.117
  573SOL    HW1 1729   0.712   1.962   0.124
  573SOL    HW2 1730   0.583   1.967   0.024
  574SOL     OW 1731   0.781   2.126   1.749
  574SOL    HW1 1732   0.848   2.065   1.792
  574SOL    HW2 1733   0.708   2.145   1.814
  575SOL     OW 1734   0.888   3.376   1.195
  575SOL    HW1 1735   0.865   3.351   1.101
  575SOL    HW2 1736   0.949   3.307   1.234
  576SOL     OW 1737   1.351   2.452   1.433
  576SOL    HW1 1738   1.379   2.409   1.518
  576SOL    HW2 1739   1.376   2.548   1.434
  577SOL     OW 1740   0.803   3.264   0.924
  577SOL    HW1 1741   0.893   3.278   0.882
  577SOL    HW2 1742   0.732   3.266   0.853
  578SOL     OW 1743   0.922   2.365   0.899
  578SOL    HW1 1744   0.897   2.356   0.803
  578SOL    HW2 1745   0.970   2.283   0.930
  579SOL     OW 1746   0.539   1.926   0.512
  579SOL    HW1 1747   0.458   1.927   0.570
  579SOL    HW2 1748   0.542   2.009   0.457
  580SOL     OW 1749   1.434   3.050   0.041
  580SOL    HW1 1750   1.466   2.974   0.098
  580SOL    HW2 1751   1.342   3.077   0.071
  581SOL     OW 1752   0.935   2.098   0.480
  581SOL    HW1 1753   0.887   2.139   0.402
  581SOL    HW2 1754   1.034   2.096   0.461
  582SOL     OW 1755   1.076   2.545   1.464
  582SOL    HW1 1756   0.996   2.484   1.467
  582SOL    HW2 1757   1.157   2.492   1.440
  583SOL     OW 1758   1.227   3.432   0.793
  583SOL    HW1 1759   1.248   3.506   0.728
  583SOL    HW2 1760   1.295   3.432   0.866
  584SOL     OW 1761   0.459   3.014   0.741
  584SOL    HW1 1762   0.388   2.987   0.806
  584SOL    HW2 1763   0.433   2.986   0.648
  585SOL     OW 1764   1.271   3.659   0.591
  585SOL    HW1 1765   1.315   3.723   0.527
  585SOL    HW2 1766   1.221   3.711   0.661
  586SOL     OW 1767   1.032   2.411   0.016
  586SOL    HW1 1768   0.991   2.493  -0.023
  586SOL    HW2 1769   1.096   2.437   0.089
  587SOL     OW 1770   0.078   2.418   1.386
  587SOL    HW1 1771   0.170   2.417   1.345
  587SOL    HW2 1772   0.072   2.492   1.453
  588SOL     OW 1773   0.561   2.084   1.147
  588SOL    HW1 1774   0.599   2.000   1.184
  588SOL    HW2 1775   0.473   2.103   1.191
  589SOL     OW 1776   0.866   2.316   0.642
  589SOL    HW1 1777   0.834   2.388   0.580
  589SOL    HW2 1778   0.890   2.235   0.589
  590SOL     OW 1779   1.017   1.901   0.753
  590SOL    HW1 1780   0.945   1.906   0.684
  590SOL    HW2 1781   0.993   1.832   0.822
  591SOL     OW 1782   1.429   3.035   0.867
  591SOL    HW1 1783   1.374   2.951   0.860
  591SOL    HW2 1784   1.455   3.064   0.775
  592SOL     OW 1785   1.466   2.452   0.992
  592SOL    HW1 1786   1.436   2.357   0.999
  592SOL    HW2 1787   1.539   2.468   1.058
  593SOL     OW 1788   1.857   2.695   0.377
  593SOL    HW1 1789   1.899   2.631   0.441
  593SOL    HW2 1790   1.819   2.644   0.299
  594SOL     OW 1791   0.488   3.247   0.174
  594SOL    HW1 1792   0.401   3.232   0.221
  594SOL    HW2 1793   0.471   3.273   0.079
  595SOL     OW 1794   1.664   3.142   0.657
  595SOL    HW1 1795   1.763   3.150   0.671
  595SOL    HW2 1796   1.619   3.226   0.688
  596SOL     OW 1797   1.390   2.437   0.078
  596SOL    HW1 1798   1.336   2.416   0.159
  596SOL    HW2 1799   1.481   2.396   0.087
  597SOL     OW 1800   0.527   2.118   0.328
  597SOL    HW1 1801   0.554   2.059   0.253
  597SOL    HW2 1802   0.527   2.213   0.297
  598SOL     OW 1803   1.754   3.085   1.588
  598SOL    HW1 1804   1.845   3.046   1.575
  598SOL    HW2 1805   1.762   3.181   1.612
  599SOL     OW 1806   1.064   3.209   1.340
  599SOL    HW1 1807   0.984   3.186   1.395
  599SOL    HW2 1808   1.147   3.183   1.389
  600SOL     OW 1809   1.592   3.491   1.625
  600SOL    HW1 1810   1.619   3.525   1.535
  600SOL    HW2 1811   1.671   3.453   1.671
  601SOL     OW 1812   1.111   3.057   1.100
  601SOL    HW1 1813   1.071   3.101   1.181
  601SOL    HW2 1814   1.070   3.094   1.017
  602SOL     OW 1815   1.638   2.961   1.079
  602SOL    HW1 1816   1.643   3.042   1.138
  602SOL    HW2 1817   1.552   2.963   1.028
  603SOL     OW 1818   0.915   1.951   1.402
  603SOL    HW1 1819   0.940   1.931   1.307
  603SOL    HW2 1820   0.987   2.007   1.444
  604SOL     OW 1821   0.980   2.978   1.719
  604SOL    HW1 1822   0.881   2.984   1.729
  604SOL    HW2 1823   1.003   2.898   1.663
  605SOL     OW 1824   0.705   2.912   0.368
  605SOL    HW1 1825   0.691   2.919   0.467
  605SOL    HW2 1826   0.789   2.861   0.350
  606SOL     OW 1827   0.410   2.675   1.251
  606SOL    HW1 1828   0.496   2.687   1.301
  606SOL    HW2 1829   0.368   2.588   1.278
  607SOL     OW 1830   1.274   2.248   1.262
  607SOL    HW1 1831   1.295   2.322   1.326
  607SOL    HW2 1832   1.185   2.265   1.219
  608SOL     OW 1833   0.064   3.426   1.331
  608SOL    HW1 1834   0.018   3.508   1.297
  608SOL    HW2 1835   0.162   3.445   1.340
  609SOL     OW 1836   0.367   2.962   0.501
  609SOL    HW1 1837   0.360   3.045   0.445
  609SOL    HW2 1838   0.371   2.882   0.441
  610SOL     OW 1839   0.566   2.399   0.865
  610SOL    HW1 1840   0.578   2.465   0.791
  610SOL    HW2 1841   0.612   2.433   0.948
  611SOL     OW 1842   1.252   3.210   0.388
  611SOL    HW1 1843   1.302   3.287   0.428
  611SOL    HW2 1844   1.157   3.212   0.420
  612SOL     OW 1845   1.272   3.307   1.142
  612SOL    HW1 1846   1.319   3.320   1.229
  612SOL    HW2 1847   1.206   3.233   1.151
  613SOL     OW 1848   1.582   2.501   0.472
  613SOL    HW1 1849   1.551   2.562   0.545
  613SOL    HW2 1850   1.632   2.553   0.403
  614SOL     OW 1851   0.354   3.372   1.329
  614SOL    HW1 1852   0.333   3.328   1.242
  614SOL    HW2 1853   0.451   3.398   1.332
  615SOL     OW 1854   0.402   2.613   1.598
  615SOL    HW1 1855   0.470   2.668   1.551
  615SOL    HW2 1856   0.442   2.525   1.625
  616SOL     OW 1857   1.587   2.641   1.670
  616SOL    HW1 1858   1.495   2.679   1.665
  616SOL    HW2 1859   1.647   2.688   1.605
  617SOL     OW 1860   1.013   1.967   1.770
  617SOL    HW1 1861   1.019   2.052   1.718
  617SOL    HW2 1862   1.045   1.891   1.713
  618SOL     OW 1863   0.504   1.912   1.740
  618SOL    HW1 1864   0.462   1.855   1.670
  618SOL    HW2 1865   0.438   1.981   1.772
  619SOL     OW 1866   0.573   2.732   1.029
  619SOL    HW1 1867   0.617   2.821   1.020
  619SOL    HW2 1868   0.510   2.732   1.106
  620SOL     OW 1869   1.360   2.724   1.045
  620SOL    HW1 1870   1.285   2.724   0.979
  620SOL    HW2 1871   1.397   2.632   1.054
  621SOL     OW 1872   1.209   2.387   0.275
  621SOL    HW1 1873   1.222   2.303   0.329
  621SOL    HW2 1874   1.180   2.461   0.335
  622SOL     OW 1875   0.307   2.075   1.231
  622SOL    HW1 1876   0.284   2.112   1.321
  622SOL    HW2 1877   0.277   1.980   1.225
  623SOL     OW 1878   0.037   3.172   1.282
  623SOL    HW1 1879   0.090   3.123   1.350
  623SOL    HW2 1880   0.059   3.270   1.287
  624SOL     OW 1881   0.732   2.496   1.064
  624SOL    HW1 1882   0.791   2.470   0.988
  624SOL    HW2 1883   0.704   2.592   1.053
  625SOL     OW 1884   1.728   2.797   1.854
  625SOL    HW1 1885   1.682   2.790   1.765
  625SOL    HW2 1886   1.666   2.841   1.920
  626SOL     OW 1887   0.307   1.925   0.618
  626SOL    HW1 1888   0.296   2.019   0.651
  626SOL    HW2 1889   0.302   1.862   0.695
  627SOL     OW 1890   1.622   2.229   0.374
  627SOL    HW1 1891   1.624   2.153   0.438
  627SOL    HW2 1892   1.574   2.306   0.414
  628SOL     OW 1893   1.023   2.628   0.966
  628SOL    HW1 1894   1.038   2.649   1.062
  628SOL    HW2 1895   0.993   2.533   0.957
  629SOL     OW 1896   0.980   3.435   1.700
  629SOL    HW1 1897   0.960   3.479   1.612
  629SOL    HW2 1898   1.019   3.344   1.684
  630SOL     OW 1899   1.859   3.380   1.605
  630SOL    HW1 1900   1.873   3.407   1.510
  630SOL    HW2 1901   1.942   3.402   1.658
  631SOL     OW 1902   0.350   2.760   1.804
  631SOL    HW1 1903   0.426   2.804   1.852
  631SOL    HW2 1904   0.385   2.713   1.722
  632SOL     OW 1905   1.540   2.136   0.125
  632SOL    HW1 1906   1.479   2.061   0.148
  632SOL    HW2 1907   1.562   2.188   0.208
  633SOL     OW 1908   1.303   2.700   0.042
  633SOL    HW1 1909   1.337   2.607   0.057
  633SOL    HW2 1910   1.321   2.727  -0.053
  634SOL     OW 1911   1.068   3.195   0.849
  634SOL    HW1 1912   1.075   3.111   0.794
  634SOL    HW2 1913   1.130   3.264   0.813
  635SOL     OW 1914   0.319   2.672   0.949
  635SOL    HW1 1915   0.412   2.708   0.954
  635SOL    HW2 1916   0.313   2.587   1.001
  636SOL     OW 1917   0.339   2.371   1.006
  636SOL    HW1 1918   0.287   2.288   0.989
  636SOL    HW2 1919   0.416   2.376   0.942
  637SOL     OW 1920   1.138   2.242   1.678
  637SOL    HW1 1921   1.093   2.305   1.742
  637SOL    HW2 1922   1.231   2.273   1.661
  638SOL     OW 1923   1.160   2.069   1.477
  638SOL    HW1 1924   1.160   2.133   1.554
  638SOL    HW2 1925   1.188   2.117   1.394
  639SOL     OW 1926   0.008   3.188   0.200
  639SOL    HW1 1927  -0.085   3.209   0.169
  639SOL    HW2 1928   0.018   3.089   0.213
  640SOL     OW 1929   0.088   3.663   0.927
  640SOL    HW1 1930   0.046   3.577   0.900
  640SOL    HW2 1931   0.182   3.666   0.893
  641SOL     OW 1932   0.504   3.430   0.910
  641SOL    HW1 1933   0.570   3.504   0.919
  641SOL    HW2 1934   0.548   3.351   0.868
  642SOL     OW 1935   1.002   2.658   1.238
  642SOL    HW1 1936   1.043   2.626   1.324
  642SOL    HW2 1937   0.906   2.631   1.235
  643SOL     OW 1938   0.040   2.406   1.114
  643SOL    HW1 1939   0.125   2.373   1.073
  643SOL    HW2 1940   0.053   2.421   1.212
  644SOL     OW 1941   0.189   2.382   1.722
  644SOL    HW1 1942   0.248   2.342   1.652
  644SOL    HW2 1943   0.131   2.453   1.681
  645SOL     OW 1944   1.369   2.812   1.660
  645SOL    HW1 1945   1.408   2.901   1.680
  645SOL    HW2 1946   1.379   2.792   1.563
  646SOL     OW 1947   0.815   2.434   0.325
  646SOL    HW1 1948   0.822   2.345   0.279
  646SOL    HW2 1949   0.721   2.468   0.317
  647SOL     OW 1950   1.657   2.466   1.206
  647SOL    HW1 1951   1.619   2.397   1.268
  647SOL    HW2 1952   1.739   2.430   1.162
  648SOL     OW 1953   0.252   3.426   1.744
  648SOL    HW1 1954   0.222   3.483   1.820
  648SOL    HW2 1955   0.245   3.329   1.770
  649SOL     OW 1956   0.671   2.326   1.269
  649SOL    HW1 1957   0.637   2.237   1.239
  649SOL    HW2 1958   0.697   2.380   1.189
  650SOL     OW 1959   0.930   3.540   1.465
  650SOL    HW1 1960   0.906   3.522   1.370
  650SOL    HW2 1961   0.960   3.634   1.475
  651SOL     OW 1962   0.473   2.362   0.191
  651SOL    HW1 1963   0.534   2.442   0.195
  651SOL    HW2 1964   0.378   2.393   0.198
  652SOL     OW 1965   0.159   2.999   1.466
  652SOL    HW1 1966   0.181   2.938   1.542
  652SOL    HW2 1967   0.169   2.950   1.380
  653SOL     OW 1968   1.347   2.921   1.234
  653SOL    HW1 1969   1.371   2.858   1.160
  653SOL    HW2 1970   1.257   2.961   1.216
  654SOL     OW 1971   1.302   2.717   0.309
  654SOL    HW1 1972   1.216   2.686   0.351
  654SOL    HW2 1973   1.298   2.703   0.210
  655SOL     OW 1974   1.759   3.609   1.154
  655SOL    HW1 1975   1.820   3.639   1.081
  655SOL    HW2 1976   1.721   3.520   1.132
  656SOL     OW 1977   1.252   3.593   1.128
  656SOL    HW1 1978   1.336   3.598   1.074
  656SOL    HW2 1979   1.229   3.497   1.146
  657SOL     OW 1980   0.083   3.120   1.022
  657SOL    HW1 1981   0.078   3.119   1.122
  657SOL    HW2 1982   0.000   3.079   0.984
  658SOL     OW 1983   0.688   3.524   1.716
  658SOL    HW1 1984   0.632   3.605   1.725
  658SOL    HW2 1985   0.740   3.528   1.630
  659SOL     OW 1986   0.903   1.948   0.133
  659SOL    HW1 1987   0.954   1.949   0.047
  659SOL    HW2 1988   0.959   1.906   0.204
  660SOL     OW 1989   1.726   1.997   0.523
  660SOL    HW1 1990   1.799   1.980   0.456
  660SOL    HW2 1991   1.695   1.910   0.561
  661SOL     OW 1992   1.388   3.435   0.477
  661SOL    HW1 1993   1.455   3.447   0.403
  661SOL    HW2 1994   1.348   3.524   0.500
  662SOL     OW 1995   0.130   3.656   1.851
  662SOL    HW1 1996   0.089   3.582   1.904
  662SOL    HW2 1997   0.194   3.707   1.909
  663SOL     OW 1998   1.280   2.789   0.672
  663SOL    HW1 1999   1.340   2.708   0.674
  663SOL    HW2 2000   1.320   2.858   0.612
  664SOL     OW 2001   0.830   3.135   1.422
  664SOL    HW1 2002   0.825   3.168   1.517
  664SOL    HW2 2003   0.744   3.154   1.376
  665SOL     OW 2004   0.672   3.478   0.154
  665SOL    HW1 2005   0.681   3.488   0.055
  665SOL    HW2 2006   0.632   3.389   0.175
  666SOL     OW 2007   1.650   3.582   1.394
  666SOL    HW1 2008   1.703   3.592   1.310
  666SOL    HW2 2009   1.623   3.672   1.428
  667SOL     OW 2010   1.841   2.037   0.963
  667SOL    HW1 2011   1.880   1.952   0.927
  667SOL    HW2 2012   1.743   2.039   0.944
  668SOL     OW 2013   0.263   2.188   0.720
  668SOL    HW1 2014   0.184   2.239   0.686
  668SOL    HW2 2015   0.254   2.173   0.818
  669SOL     OW 2016   1.194   3.474   0.031
  669SOL    HW1 2017   1.200   3.381   0.068
  669SOL    HW2 2018   1.135   3.474  -0.049
  670SOL     OW 2019   0.822   2.864   1.372
  670SOL    HW1 2020   0.862   2.863   1.280
  670SOL    HW2 2021   0.832   2.956   1.412
  671SOL     OW 2022   0.916   2.772   0.291
  671SOL    HW1 2023   0.979   2.810   0.223
  671SOL    HW2 2024   0.956   2.689   0.330
  672SOL     OW 2025   1.504   3.469   0.044
  672SOL    HW1 2026   1.412   3.506   0.051
  672SOL    HW2 2027   1.542   3.489  -0.046
  673SOL     OW 2028   0.372   3.150   1.490
  673SOL    HW1 2029   0.359   3.243   1.456
  673SOL    HW2 2030   0.288   3.098   1.477
  674SOL     OW 2031   1.614   3.154   1.289
  674SOL    HW1 2032   1.674   3.157   1.369
  674SOL    HW2 2033   1.539   3.218   1.302
  675SOL     OW 2034   1.039   2.960   0.696
  675SOL    HW1 2035   0.969   2.913   0.750
  675SOL    HW2 2036   1.098   2.892   0.653
  676SOL     OW 2037   1.014   2.098   0.971
  676SOL    HW1 2038   1.006   2.062   0.878
  676SOL    HW2 2039   1.012   2.022   1.036
  677SOL     OW 2040   0.590   3.349   0.491
  677SOL    HW1 2041   0.632   3.291   0.421
  677SOL    HW2 2042   0.546   3.428   0.447
  678SOL     OW 2043   1.709   2.247   1.381
  678SOL    HW1 2044   1.782   2.316   1.385
  678SOL    HW2 2045   1.737   2.172   1.322
  679SOL     OW 2046   0.255   3.210   0.290
  679SOL    HW1 2047   0.159   3.211   0.263
  679SOL    HW2 2048   0.267   3.263   0.374
  680SOL     OW 2049   0.105   2.875   1.726
  680SOL    HW1 2050   0.028   2.842   1.780
  680SOL    HW2 2051   0.190   2.845   1.768
  681SOL     OW 2052   0.672   2.065   1.489
  681SOL    HW1 2053   0.762   2.049   1.449
  681SOL    HW2 2054   0.680   2.070   1.588
  682SOL     OW 2055   0.075   2.207   0.033
  682SOL    HW1 2056  -0.017   2.179   0.004
  682SOL    HW2 2057   0.106   2.284  -0.023
  683SOL     OW 2058   1.440   2.718   1.398
  683SOL    HW1 2059   1.383   2.770   1.335
  683SOL    HW2 2060   1.536   2.730   1.374
  684SOL     OW 2061   0.072   2.028   0.318
  684SOL    HW1 2062   0.055   2.111   0.264
  684SOL    HW2 2063   0.162   1.991   0.296
  685SOL     OW 2064   1.183   3.197   0.119
  685SOL    HW1 2065   1.084   3.186   0.121
  685SOL    HW2 2066   1.217   3.212   0.212
  686SOL     OW 2067   0.613   2.704   1.431
  686SOL    HW1 2068   0.669   2.785   1.414
  686SOL    HW2 2069   0.672   2.624   1.434
  687SOL     OW 2070   1.493   3.629   0.959
  687SOL    HW1 2071   1.526   3.693   0.890
  687SOL    HW2 2072   1.559   3.623   1.034
  688SOL     OW 2073   0.716   2.427   1.708
  688SOL    HW1 2074   0.735   2.492   1.782
  688SOL    HW2 2075   0.776   2.347   1.717
  689SOL     OW 2076   1.450   3.082   1.633
  689SOL    HW1 2077   1.441   3.072   1.732
  689SOL    HW2 2078   1.546   3.075   1.607
  690SOL     OW 2079   0.390   3.603   1.560
  690SOL    HW1 2080   0.299   3.644   1.558
  690SOL    HW2 2081   0.383   3.509   1.592
  691SOL     OW 2082   1.674   2.745   1.254
  691SOL    HW1 2083   1.647   2.656   1.217
  691SOL    HW2 2084   1.675   2.813   1.181
  692SOL     OW 2085   1.225   2.187   0.449
  692SOL    HW1 2086   1.290   2.113   0.438
  692SOL    HW2 2087   1.245   2.237   0.533
  693SOL     OW 2088   0.594   2.607   0.652
  693SOL    HW1 2089   0.644   2.692   0.633
  693SOL    HW2 2090   0.506   2.609   0.604
  694SOL     OW 2091   1.777   2.204   1.642
  694SOL    HW1 2092   1.760   2.235   1.548
  694SOL    HW2 2093   1.693   2.167   1.680
  695SOL     OW 2094   1.730   2.796   1.517
  695SOL    HW1 2095   1.768   2.887   1.532
  695SOL    HW2 2096   1.722   2.779   1.418
  696SOL     OW 2097   0.859   3.236   0.016
  696SOL    HW1 2098   0.813   3.251   0.104
  696SOL    HW2 2099   0.903   3.321  -0.014
  697SOL     OW 2100   0.661   3.652   0.953
  697SOL    HW1 2101   0.615   3.740   0.940
  697SOL    HW2 2102   0.760   3.664   0.946
  698SOL     OW 2103   0.859   2.818   0.861
  698SOL    HW1 2104   0.913   2.749   0.909
  698SOL    HW2 2105   0.827   2.887   0.927
  699SOL     OW 2106   1.083   2.846   0.087
  699SOL    HW1 2107   1.060   2.899   0.005
  699SOL    HW2 2108   1.164   2.790   0.068
  700SOL     OW 2109   1.861   3.431   0.851
  700SOL    HW1 2110   1.790   3.419   0.781
  700SOL    HW2 2111   1.862   3.352   0.911
  701SOL     OW 2112   0.221   3.176   1.844
  701SOL    HW1 2113   0.156   3.103   1.823
  701SOL    HW2 2114   0.225   3.190   1.942
  702SOL     OW 2115   0.079   3.102   0.653
  702SOL    HW1 2116   0.078   3.055   0.741
  702SOL    HW2 2117   0.161   3.074   0.602
  703SOL     OW 2118   0.672   3.253   1.624
  703SOL    HW1 2119   0.594   3.203   1.662
  703SOL    HW2 2120   0.669   3.348   1.655
  704SOL     OW 2121   1.824   2.054   1.227
  704SOL    HW1 2122   1.820   1.964   1.271
  704SOL    HW2 2123   1.827   2.043   1.128
  705SOL     OW 2124   0.428   2.286   0.520
  705SOL    HW1 2125   0.458   2.214   0.458
  705SOL    HW2 2126   0.389   2.246   0.603
  706SOL     OW 2127   1.705   3.349   1.104
  706SOL    HW1 2128   1.612   3.324   1.077
  706SOL    HW2 2129   1.731   3.299   1.186
  707SOL     OW 2130   0.317   2.409   1.280
  707SOL    HW1 2131   0.355   2.350   1.352
  707SOL    HW2 2132   0.357   2.383   1.192
  708SOL     OW 2133   0.812   3.448   0.687
  708SOL    HW1 2134   0.844   3.458   0.593
  708SOL    HW2 2135   0.733   3.386   0.689
  709SOL     OW 2136   1.424   2.076   1.112
  709SOL    HW1 2137   1.476   2.011   1.167
  709SOL    HW2 2138   1.375   2.139   1.173
  710SOL     OW 2139   1.001   1.896   1.154
  710SOL    HW1 2140   0.938   1.824   1.123
  710SOL    HW2 2141   1.094   1.860   1.154
  711SOL     OW 2142   0.770   3.192   0.301
  711SOL    HW1 2143   0.724   3.105   0.318
  711SOL    HW2 2144   0.861   3.189   0.342
  712SOL     OW 2145   0.618   3.429   1.284
  712SOL    HW1 2146   0.613   3.511   1.341
  712SOL    HW2 2147   0.707   3.426   1.239
  713SOL     OW 2148   1.352   1.914   0.168
  713SOL    HW1 2149   1.387   1.873   0.084
  713SOL    HW2 2150   1.262   1.876   0.188
  714SOL     OW 2151   1.300   2.315   0.691
  714SOL    HW1 2152   1.241   2.395   0.695
  714SOL    HW2 2153   1.315   2.280   0.784
  715SOL     OW 2154   1.593   2.083   0.882
  715SOL    HW1 2155   1.509   2.082   0.936
  715SOL    HW2 2156   1.595   2.166   0.826
  716SOL     OW 2157   0.039   2.939   0.300
  716SOL    HW1 2158   0.138   2.928   0.291
  716SOL    HW2 2159  -0.001   2.853   0.332
  717SOL     OW 2160   0.875   3.508   0.337
  717SOL    HW1 2161   0.798   3.473   0.283
  717SOL    HW2 2162   0.843   3.579   0.399
  718SOL     OW 2163   0.230   2.490   1.975
  718SOL    HW1 2164   0.137   2.488   2.012
  718SOL    HW2 2165   0.231   2.451   1.883
  719SOL     OW 2166   0.225   2.137   2.858
  719SOL    HW1 2167   0.260   2.120   2.950
  719SOL    HW2 2168   0.137   2.092   2.846
  720SOL     OW 2169   0.019   2.230   2.509
  720SOL    HW1 2170  -0.063   2.273   2.548
  720SOL    HW2 2171  -0.009   2.157   2.446
  721SOL     OW 2172   0.569   3.137   3.027
  721SOL    HW1 2173   0.476   3.130   2.990
  721SOL    HW2 2174   0.580   3.226   3.071
  722SOL     OW 2175   1.555   3.373   2.565
  722SOL    HW1 2176   1.498   3.357   2.646
  722SOL    HW2 2177   1.496   3.383   2.485
  723SOL     OW 2178   1.135   2.565   2.579
  723SOL    HW1 2179   1.192   2.643   2.554
  723SOL    HW2 2180   1.075   2.591   2.655
  724SOL     OW 2181   1.755   2.469   2.093
  724SOL    HW1 2182   1.743   2.456   1.994
  724SOL    HW2 2183   1.725   2.388   2.142
  725SOL     OW 2184   0.768   3.006   2.885
  725SOL    HW1 2185   0.690   3.023   2.945
  725SOL    HW2 2186   0.802   3.093   2.849
  726SOL     OW 2187   0.850   2.660   3.685
  726SOL    HW1 2188   0.846   2.736   3.750
  726SOL    HW2 2189   0.872   2.696   3.594
  727SOL     OW 2190   0.685   2.874   2.527
  727SOL    HW1 2191   0.754   2.858   2.597
  727SOL    HW2 2192   0.612   2.931   2.565
  728SOL     OW 2193   0.686   3.023   3.665
  728SOL    HW1 2194   0.746   3.102   3.679
  728SOL    HW2 2195   0.600   3.054   3.624
  729SOL     OW 2196   0.335   3.297   2.923
  729SOL    HW1 2197   0.257   3.266   2.870
  729SOL    HW2 2198   0.393   3.355   2.866
  730SOL     OW 2199   1.460   3.367   3.201
  730SOL    HW1 2200   1.484   3.461   3.227
  730SOL    HW2 2201   1.444   3.313   3.283
  731SOL     OW 2202   0.438   2.254   3.361
  731SOL    HW1 2203   0.520   2.198   3.370
  731SOL    HW2 2204   0.357   2.196   3.365
  732SOL     OW 2205   1.603   2.309   2.599
  732SOL    HW1 2206   1.529   2.355   2.549
  732SOL    HW2 2207   1.654   2.377   2.652
  733SOL     OW 2208   0.231   3.575   2.345
  733SOL    HW1 2209   0.265   3.652   2.399
  733SOL    HW2 2210   0.275   3.575   2.255
  734SOL     OW 2211   1.127   3.203   3.552
  734SOL    HW1 2212   1.174   3.203   3.640
  734SOL    HW2 2213   1.079   3.116   3.541
  735SOL     OW 2214   0.230   3.296   2.400
  735SOL    HW1 2215   0.204   3.392   2.400
  735SOL    HW2 2216   0.159   3.242   2.445
  736SOL     OW 2217   0.240   2.953   2.748
  736SOL    HW1 2218   0.254   2.869   2.800
  736SOL    HW2 2219   0.185   3.017   2.803
  737SOL     OW 2220   0.620   3.648   3.301
  737SOL    HW1 2221   0.528   3.631   3.336
  737SOL    HW2 2222   0.648   3.740   3.327
  738SOL     OW 2223   0.606   2.826   1.985
  738SOL    HW1 2224   0.613   2.910   1.931
  738SOL    HW2 2225   0.652   2.839   2.073
  739SOL     OW 2226   1.594   1.976   3.342
  739SOL    HW1 2227   1.576   2.043   3.270
  739SOL    HW2 2228   1.591   2.022   3.431
  740SOL     OW 2229   0.122   2.505   2.425
  740SOL    HW1 2230   0.077   2.417   2.442
  740SOL    HW2 2231   0.121   2.559   2.509
  741SOL     OW 2232   1.842   3.629   2.221
  741SOL    HW1 2233   1.896   3.600   2.301
  741SOL    HW2 2234   1.872   3.719   2.192
  742SOL     OW 2235   0.027   3.458   1.979
  742SOL    HW1 2236   0.008   3.362   2.000
  742SOL    HW2 2237  -0.006   3.516   2.054
  743SOL     OW 2238   1.689   2.784   2.474
  743SOL    HW1 2239   1.784   2.755   2.482
  743SOL    HW2 2240   1.681   2.849   2.399
  744SOL     OW 2241   1.641   2.970   2.294
  744SOL    HW1 2242   1.727   2.972   2.242
  744SOL    HW2 2243   1.655   3.017   2.382
  745SOL     OW 2244   0.113   2.599   3.459
  745SOL    HW1 2245   0.201   2.586   3.504
  745SOL    HW2 2246   0.100   2.696   3.437
  746SOL     OW 2247   0.613   3.227   2.588
  746SOL    HW1 2248   0.564   3.140   2.597
  746SOL    HW2 2249   0.590   3.270   2.501
  747SOL     OW 2250   1.293   3.090   3.285
  747SOL    HW1 2251   1.330   3.017   3.227
  747SOL    HW2 2252   1.345   3.095   3.370
  748SOL     OW 2253   0.809   1.866   2.364
  748SOL    HW1 2254   0.849   1.957   2.355
  748SOL    HW2 2255   0.709   1.874   2.370
  749SOL     OW 2256   0.197   2.838   3.126
  749SOL    HW1 2257   0.286   2.793   3.112
  749SOL    HW2 2258   0.124   2.773   3.107
  750SOL     OW 2259   1.525   2.861   2.052
  750SOL    HW1 2260   1.462   2.785   2.065
  750SOL    HW2 2261   1.573   2.879   2.138
  751SOL     OW 2262   1.187   3.654   3.478
  751SOL    HW1 2263   1.211   3.714   3.402
  751SOL    HW2 2264   1.194   3.559   3.448
  752SOL     OW 2265   0.317   2.113   3.663
  752SOL    HW1 2266   0.388   2.184   3.669
  752SOL    HW2 2267   0.229   2.152   3.691
  753SOL     OW 2268   1.466   3.279   2.815
  753SOL    HW1 2269   1.407   3.285   2.895
  753SOL    HW2 2270   1.451   3.191   2.769
  754SOL     OW 2271   1.667   3.576   2.434
  754SOL    HW1 2272   1.626   3.553   2.346
  754SOL    HW2 2273   1.649   3.502   2.499
  755SOL     OW 2274   0.598   2.591   2.132
  755SOL    HW1 2275   0.622   2.660   2.064
  755SOL    HW2 2276   0.520   2.624   2.186
  756SOL     OW 2277   1.281   2.207   2.806
  756SOL    HW1 2278   1.195   2.157   2.793
  756SOL    HW2 2279   1.343   2.153   2.862
  757SOL     OW 2280   1.576   3.524   2.169
  757SOL    HW1 2281   1.665   3.570   2.172
  757SOL    HW2 2282   1.555   3.500   2.074
  758SOL     OW 2283   0.807   2.467   3.327
  758SOL    HW1 2284   0.760   2.464   3.416
  758SOL    HW2 2285   0.756   2.412   3.261
  759SOL     OW 2286   1.394   2.331   3.536
  759SOL    HW1 2287   1.374   2.374   3.624
  759SOL    HW2 2288   1.472   2.269   3.545
  760SOL     OW 2289   0.973   2.752   3.434
  760SOL    HW1 2290   1.019   2.668   3.405
  760SOL    HW2 2291   0.917   2.786   3.359
  761SOL     OW 2292   0.991   2.272   3.104
  761SOL    HW1 2293   0.914   2.306   3.158
  761SOL    HW2 2294   0.957   2.221   3.025
  762SOL     OW 2295   1.041   2.563   2.291
  762SOL    HW1 2296   1.067   2.559   2.387
  762SOL    HW2 2297   0.956   2.512   2.277
  763SOL     OW 2298   0.076   2.673   2.651
  763SOL    HW1 2299   0.175   2.661   2.660
  763SOL    HW2 2300   0.052   2.768   2.672
  764SOL     OW 2301   0.130   3.683   3.433
  764SOL    HW1 2302   0.120   3.668   3.532
  764SOL    HW2 2303   0.044   3.719   3.397
  765SOL     OW 2304   0.865   2.210   2.057
  765SOL    HW1 2305   0.924   2.273   2.008
  765SOL    HW2 2306   0.884   2.116   2.028
  766SOL     OW 2307   1.719   2.447   3.693
  766SOL    HW1 2308   1.693   2.536   3.657
  766SOL    HW2 2309   1.717   2.379   3.620
  767SOL     OW 2310   1.362   3.006   2.407
  767SOL    HW1 2311   1.445   2.977   2.359
  767SOL    HW2 2312   1.313   3.073   2.351
  768SOL     OW 2313   0.550   2.058   2.747
  768SOL    HW1 2314   0.545   2.053   2.847
  768SOL    HW2 2315   0.552   2.154   2.718
  769SOL     OW 2316   1.008   3.318   2.339
  769SOL    HW1 2317   0.962   3.390   2.287
  769SOL    HW2 2318   1.004   3.338   2.437
  770SOL     OW 2319   0.351   3.663   2.715
  770SOL    HW1 2320   0.401   3.577   2.721
  770SOL    HW2 2321   0.416   3.740   2.712
  771SOL     OW 2322   1.795   2.928   2.735
  771SOL    HW1 2323   1.733   2.913   2.659
  771SOL    HW2 2324   1.743   2.939   2.820
  772SOL     OW 2325   1.227   3.412   3.368
  772SOL    HW1 2326   1.233   3.335   3.432
  772SOL    HW2 2327   1.175   3.386   3.288
  773SOL     OW 2328   0.321   2.805   2.104
  773SOL    HW1 2329   0.403   2.844   2.062
  773SOL    HW2 2330   0.294   2.723   2.055
  774SOL     OW 2331   1.458   2.597   2.590
  774SOL    HW1 2332   1.453   2.532   2.665
  774SOL    HW2 2333   1.538   2.656   2.603
  775SOL     OW 2334   0.461   3.128   3.589
  775SOL    HW1 2335   0.411   3.129   3.503
  775SOL    HW2 2336   0.398   3.110   3.665
  776SOL     OW 2337   1.111   3.638   2.099
  776SOL    HW1 2338   1.051   3.576   2.149
  776SOL    HW2 2339   1.142   3.594   2.014
  777SOL     OW 2340   0.202   2.147   3.360
  777SOL    HW1 2341   0.122   2.207   3.347
  777SOL    HW2 2342   0.192   2.098   3.446
  778SOL     OW 2343   1.632   3.239   1.943
  778SOL    HW1 2344   1.600   3.333   1.933
  778SOL    HW2 2345   1.556   3.176   1.931
  779SOL     OW 2346   0.464   3.605   2.185
  779SOL    HW1 2347   0.497   3.644   2.271
  779SOL    HW2 2348   0.540   3.598   2.120
  780SOL     OW 2349   1.400   1.969   2.288
  780SOL    HW1 2350   1.376   1.932   2.198
  780SOL    HW2 2351   1.499   1.985   2.292
  781SOL     OW 2352   0.249   3.647   3.103
  781SOL    HW1 2353   0.306   3.582   3.153
  781SOL    HW2 2354   0.233   3.614   3.010
  782SOL     OW 2355   0.940   3.560   2.766
  782SOL    HW1 2356   1.020   3.503   2.787
  782SOL    HW2 2357   0.891   3.520   2.689
  783SOL     OW 2358   0.382   2.562   2.342
  783SOL    HW1 2359   0.427   2.472   2.339
  783SOL    HW2 2360   0.288   2.551   2.375
  784SOL     OW 2361   1.547   2.084   3.591
  784SOL    HW1 2362   1.542   2.121   3.683
  784SOL    HW2 2363   1.475   2.015   3.579
  785SOL     OW 2364   0.614   1.984   1.979
  785SOL    HW1 2365   0.712   1.962   1.986
  785SOL    HW2 2366   0.583   1.967   1.886
  786SOL     OW 2367   0.781   2.126   3.611
  786SOL    HW1 2368   0.848   2.065   3.654
  786SOL    HW2 2369   0.708   2.145   3.676
  787SOL     OW 2370   0.888   3.376   3.057
  787SOL    HW1 2371   0.865   3.351   2.963
  787SOL    HW2 2372   0.949   3.307   3.096
  788SOL     OW 2373   1.351   2.452   3.295
  788SOL    HW1 2374   1.379   2.409   3.380
  788SOL    HW2 2375   1.376   2.548   3.296
  789SOL     OW 2376   0.803   3.264   2.786
  789SOL    HW1 2377   0.893   3.278   2.744
  789SOL    HW2 2378   0.732   3.266   2.715
  790SOL     OW 2379   0.922   2.365   2.761
  790SOL    HW1 2380   0.897   2.356   2.665
  790SOL    HW2 2381   0.970   2.283   2.792
  791SOL     OW 2382   0.539   1.926   2.374
  791SOL    HW1 2383   0.458   1.927   2.432
  791SOL    HW2 2384   0.542   2.009   2.319
  792SOL     OW 2385   1.434   3.050   1.903
  792SOL    HW1 2386   1.466   2.974   1.960
  792SOL    HW2 2387   1.342   3.077   1.933
  793SOL     OW 2388   0.297   1.897   2.033
  793SOL    HW1 2389   0.346   1.981   2.012
  793SOL    HW2 2390   0.359   1.832   2.078
  794SOL     OW 2391   0.935   2.098   2.342
  794SOL    HW1 2392   0.887   2.139   2.264
  794SOL    HW2 2393   1.034   2.096   2.323
  795SOL     OW 2394   1.076   2.545   3.326
  795SOL    HW1 2395   0.996   2.484   3.329
  795SOL    HW2 2396   1.157   2.492   3.302
  796SOL     OW 2397   1.227   3.432   2.655
  796SOL    HW1 2398   1.248   3.506   2.590
  796SOL    HW2 2399   1.295   3.432   2.728
  797SOL     OW 2400   0.459   3.014   2.603
  797SOL    HW1 2401   0.388   2.987   2.668
  797SOL    HW2 2402   0.433   2.986   2.510
  798SOL     OW 2403   1.271   3.659   2.453
  798SOL    HW1 2404   1.315   3.723   2.389
  798SOL    HW2 2405   1.221   3.711   2.523
  799SOL     OW 2406   1.032   2.411   1.878
  799SOL    HW1 2407   0.991   2.493   1.839
  799SOL    HW2 2408   1.096   2.437   1.951
  800SOL     OW 2409   0.078   2.418   3.248
  800SOL    HW1 2410   0.170   2.417   3.207
  800SOL    HW2 2411   0.072   2.492   3.315
  801SOL     OW 2412   0.561   2.084   3.009
  801SOL    HW1 2413   0.599   2.000   3.046
  801SOL    HW2 2414   0.473   2.103   3.053
  802SOL     OW 2415   0.866   2.316   2.504
  802SOL    HW1 2416   0.834   2.388   2.442
  802SOL    HW2 2417   0.890   2.235   2.451
  803SOL     OW 2418   1.017   1.901   2.615
  803SOL    HW1 2419   0.945   1.906   2.546
  803SOL    HW2 2420   0.993   1.832   2.684
  804SOL     OW 2421   1.429   3.035   2.729
  804SOL    HW1 2422   1.374   2.951   2.722
  804SOL    HW2 2423   1.455   3.064   2.637
  805SOL     OW 2424   1.466   2.452   2.854
  805SOL    HW1 2425   1.436   2.357   2.861
  805SOL    HW2 2426   1.539   2.468   2.920
  806SOL     OW 2427   1.857   2.695   2.239
  806SOL    HW1 2428   1.899   2.631   2.303
  806SOL    HW2 2429   1.819   2.644   2.161
  807SOL     OW 2430   0.488   3.247   2.036
  807SOL    HW1 2431   0.401   3.232   2.083
  807SOL    HW2 2432   0.471   3.273   1.941
  808SOL     OW 2433   1.664   3.142   2.519
  808SOL    HW1 2434   1.763   3.150   2.533
  808SOL    HW2 2435   1.619   3.226   2.550
  809SOL     OW 2436   1.390   2.437   1.940
  809SOL    HW1 2437   1.336   2.416   2.021
  809SOL    HW2 2438   1.481   2.396   1.949
  810SOL     OW 2439   0.527   2.118   2.190
  810SOL    HW1 2440   0.554   2.059   2.115
  810SOL    HW2 2441   0.527   2.213   2.159
  811SOL     OW 2442   1.754   3.085   3.450
  811SOL    HW1 2443   1.845   3.046   3.437
  811SOL    HW2 2444   1.762   3.181   3.474
  812SOL     OW 2445   1.064   3.209   3.202
  812SOL    HW1 2446   0.984   3.186   3.257
  812SOL    HW2 2447   1.147   3.183   3.251
  813SOL     OW 2448   1.592   3.491   3.487
  813SOL    HW1 2449   1.619   3.525   3.397
  813SOL    HW2 2450   1.671   3.453   3.533
  814SOL     OW 2451   1.111   3.057   2.962
  814SOL    HW1 2452   1.071   3.101   3.043
  814SOL    HW2 2453   1.070   3.094   2.879
  815SOL     OW 2454   1.638   2.961   2.941
  815SOL    HW1 2455   1.643   3.042   3.000
  815SOL    HW2 2456   1.552   2.963   2.890
  816SOL     OW 2457   0.915   1.951   3.264
  816SOL    HW1 2458   0.940   1.931   3.169
  816SOL    HW2 2459   0.987   2.007   3.306
  817SOL     OW 2460   0.980   2.978   3.581
  817SOL    HW1 2461   0.881   2.984   3.591
  817SOL    HW2 2462   1.003   2.898   3.525
  818SOL     OW 2463   0.705   2.912   2.230
  818SOL    HW1 2464   0.691   2.919   2.329
  818SOL    HW2 2465   0.789   2.861   2.212
  819SOL     OW 2466   0.410   2.675   3.113
  819SOL    HW1 2467   0.496   2.687   3.163
  819SOL    HW2 2468   0.368   2.588   3.140
  820SOL     OW 2469   1.274   2.248   3.124
  820SOL    HW1 2470   1.295   2.322   3.188
  820SOL    HW2 2471   1.185   2.265   3.081
  821SOL     OW 2472   0.064   3.426   3.193
  821SOL    HW1 2473   0.018   3.508   3.159
  821SOL    HW2 2474   0.162   3.445   3.202
  822SOL     OW 2475   0.367   2.962   2.363
  822SOL    HW1 2476   0.360   3.045   2.307
  822SOL    HW2 2477   0.371   2.882   2.303
  823SOL     OW 2478   0.566   2.399   2.727
  823SOL    HW1 2479   0.578   2.465   2.653
  823SOL    HW2 2480   0.612   2.433   2.810
  824SOL     OW 2481   1.252   3.210   2.250
  824SOL    HW1 2482   1.302   3.287   2.290
  824SOL    HW2 2483   1.157   3.212   2.282
  825SOL     OW 2484   1.272   3.307   3.004
  825SOL    HW1 2485   1.319   3.320   3.091
  825SOL    HW2 2486   1.206   3.233   3.013
  826SOL     OW 2487   1.582   2.501   2.334
  826SOL    HW1 2488   1.551   2.562   2.407
  826SOL    HW2 2489   1.632   2.553   2.265
  827SOL     OW 2490   0.354   3.372   3.191
  827SOL    HW1 2491   0.333   3.328   3.104
  827SOL    HW2 2492   0.451   3.398   3.194
  828SOL     OW 2493   0.402   2.613   3.460
  828SOL    HW1 2494   0.470   2.668   3.413
  828SOL    HW2 2495   0.442   2.525   3.487
  829SOL     OW 2496   1.587   2.641   3.532
  829SOL    HW1 2497   1.495   2.679   3.527
  829SOL    HW2 2498   1.647   2.688   3.467
  830SOL     OW 2499   1.013   1.967   3.632
  830SOL    HW1 2500   1.019   2.052   3.580
  830SOL    HW2 2501   1.045   1.891   3.575
  831SOL     OW 2502   0.504   1.912   3.602
  831SOL    HW1 2503   0.462   1.855   3.532
  831SOL    HW2 2504   0.438   1.981   3.634
  832SOL     OW 2505   0.573   2.732   2.891
  832SOL    HW1 2506   0.617   2.821   2.882
  832SOL    HW2 2507   0.510   2.732   2.968
  833SOL     OW 2508   1.360   2.724   2.907
  833SOL    HW1 2509   1.285   2.724   2.841
  833SOL    HW2 2510   1.397   2.632   2.916
  834SOL     OW 2511   1.209   2.387   2.137
  834SOL    HW1 2512   1.222   2.303   2.191
  834SOL    HW2 2513   1.180   2.461   2.197
  835SOL     OW 2514   0.307   2.075   3.093
  835SOL    HW1 2515   0.284   2.112   3.183
  835SOL    HW2 2516   0.277   1.980   3.087
  836SOL     OW 2517   0.037   3.172   3.144
  836SOL    HW1 2518   0.090   3.123   3.212
  836SOL    HW2 2519   0.059   3.270   3.149
  837SOL     OW 2520   0.732   2.496   2.926
  837SOL    HW1 2521   0.791   2.470   2.850
  837SOL    HW2 2522   0.704   2.592   2.915
  838SOL     OW 2523   1.728   2.797   3.716
  838SOL    HW1 2524   1.682   2.790   3.627
  838SOL    HW2 2525   1.666   2.841   3.782
  839SOL     OW 2526   0.307   1.925   2.480
  839SOL    HW1 2527   0.296   2.019   2.513
  839SOL    HW2 2528   0.302   1.862   2.557
  840SOL     OW 2529   1.622   2.229   2.236
  840SOL    HW1 2530   1.624   2.153   2.300
  840SOL    HW2 2531   1.574   2.306   2.276
  841SOL     OW 2532   1.023   2.628   2.828
  841SOL    HW1 2533   1.038   2.649   2.924
  841SOL    HW2 2534   0.993   2.533   2.819
  842SOL     OW 2535   0.980   3.435   3.562
  842SOL    HW1 2536   0.960   3.479   3.474
  842SOL    HW2 2537   1.019   3.344   3.546
  843SOL     OW 2538   1.859   3.380   3.467
  843SOL    HW1 2539   1.873   3.407   3.372
  843SOL    HW2 2540   1.942   3.402   3.520
  844SOL     OW 2541   0.350   2.760   3.666
  844SOL    HW1 2542   0.426   2.804   3.714
  844SOL    HW2 2543   0.385   2.713   3.584
  845SOL     OW 2544   1.540   2.136   1.987
  845SOL    HW1 2545   1.479   2.061   2.010
  845SOL    HW2 2546   1.562   2.188   2.070
  846SOL     OW 2547   1.303   2.700   1.904
  846SOL    HW1 2548   1.337   2.607   1.919
  846SOL    HW2 2549   1.321   2.727   1.809
  847SOL     OW 2550   1.068   3.195   2.711
  847SOL    HW1 2551   1.075   3.111   2.656
  847SOL    HW2 2552   1.130   3.264   2.675
  848SOL     OW 2553   0.319   2.672   2.811
  848SOL    HW1 2554   0.412   2.708   2.816
  848SOL    HW2 2555   0.313   2.587   2.863
  849SOL     OW 2556   0.339   2.371   2.868
  849SOL    HW1 2557   0.287   2.288   2.851
  849SOL    HW2 2558   0.416   2.376   2.804
  850SOL     OW 2559   1.138   2.242   3.540
  850SOL    HW1 2560   1.093   2.305   3.604
  850SOL    HW2 2561   1.231   2.273   3.523
  851SOL     OW 2562   1.160   2.069   3.339
  851SOL    HW1 2563   1.160   2.133   3.416
  851SOL    HW2 2564   1.188   2.117   3.256
  852SOL     OW 2565   0.008   3.188   2.062
  852SOL    HW1 2566  -0.085   3.209   2.031
  852SOL    HW2 2567   0.018   3.089   2.075
  853SOL     OW 2568   0.088   3.663   2.789
  853SOL    HW1 2569   0.046   3.577   2.762
  853SOL    HW2 2570   0.182   3.666   2.755
  854SOL     OW 2571   0.504   3.430   2.772
  854SOL    HW1 2572   0.570   3.504   2.781
  854SOL    HW2 2573   0.548   3.351   2.730
  855SOL     OW 2574   1.002   2.658   3.100
  855SOL    HW1 2575   1.043   2.626   3.186
  855SOL    HW2 2576   0.906   2.631   3.097
  856SOL     OW 2577   0.040   2.406   2.976
  856SOL    HW1 2578   0.125   2.373   2.935
  856SOL    HW2 2579   0.053   2.421   3.074
  857SOL     OW 2580   0.189   2.382   3.584
  857SOL    HW1 2581   0.248   2.342   3.514
  857SOL    HW2 2582   0.131   2.453   3.543
  858SOL     OW 2583   1.369   2.812   3.522
  858SOL    HW1 2584   1.408   2.901   3.542
  858SOL    HW2 2585   1.379   2.792   3.425
  859SOL     OW 2586   0.815   2.434   2.187
  859SOL    HW1 2587   0.822   2.345   2.141
  859SOL    HW2 2588   0.721   2.468   2.179
  860SOL     OW 2589   1.657   2.466   3.068
  860SOL    HW1 2590   1.619   2.397   3.130
  860SOL    HW2 2591   1.739   2.430   3.024
  861SOL     OW 2592   0.252   3.426   3.606
  861SOL    HW1 2593   0.222   3.483   3.682
  861SOL    HW2 2594   0.245   3.329   3.632
  862SOL     OW 2595   0.671   2.326   3.131
  862SOL    HW1 2596   0.637   2.237   3.101
  862SOL    HW2 2597   0.697   2.380   3.051
  863SOL     OW 2598   0.930   3.540   3.327
  863SOL    HW1 2599   0.906   3.522   3.232
  863SOL    HW2 2600   0.960   3.634   3.337
  864SOL     OW 2601   0.473   2.362   2.053
  864SOL    HW1 2602   0.534   2.442   2.057
  864SOL    HW2 2603   0.378   2.393   2.060
  865SOL     OW 2604   0.159   2.999   3.328
  865SOL    HW1 2605   0.181   2.938   3.404
  865SOL    HW2 2606   0.169   2.950   3.242
  866SOL     OW 2607   1.347   2.921   3.096
  866SOL    HW1 2608   1.371   2.858   3.022
  866SOL    HW2 2609   1.257   2.961   3.078
  867SOL     OW 2610   1.302   2.717   2.171
  867SOL    HW1 2611   1.216   2.686   2.213
  867SOL    HW2 2612   1.298   2.703   2.072
  868SOL     OW 2613   1.759   3.609   3.016
  868SOL    HW1 2614   1.820   3.639   2.943
  868SOL    HW2 2615   1.721   3.520   2.994
  869SOL     OW 2616   1.252   3.593   2.990
  869SOL    HW1 2617   1.336   3.598   2.936
  869SOL    HW2 2618   1.229   3.497   3.008
  870SOL     OW 2619   0.083   3.120   2.884
  870SOL    HW1 2620   0.078   3.119   2.984
  870SOL    HW2 2621   0.000   3.079   2.846
  871SOL     OW 2622   0.688   3.524   3.578
  871SOL    HW1 2623   0.632   3.605   3.587
  871SOL    HW2 2624   0.740   3.528   3.492
  872SOL     OW 2625   1.726   1.997   2.385
  872SOL    HW1 2626   1.799   1.980   2.318
  872SOL    HW2 2627   1.695   1.910   2.423
  873SOL     OW 2628   1.388   3.435   2.339
  873SOL    HW1 2629   1.455   3.447   2.265
  873SOL    HW2 2630   1.348   3.524   2.362
  874SOL     OW 2631   0.130   3.656   3.713
  874SOL    HW1 2632   0.089   3.582   3.766
  874SOL    HW2 2633   0.194   3.707   3.771
  875SOL     OW 2634   1.280   2.789   2.534
  875SOL    HW1 2635   1.340   2.708   2.536
  875SOL    HW2 2636   1.320   2.858   2.474
  876SOL     OW 2637   0.830   3.135   3.284
  876SOL    HW1 2638   0.825   3.168   3.379
  876SOL    HW2 2639   0.744   3.154   3.238
  877SOL     OW 2640   0.672   3.478   2.016
  877SOL    HW1 2641   0.681   3.488   1.917
  877SOL    HW2 2642   0.632   3.389   2.037
  878SOL     OW 2643   1.650   3.582   3.256
  878SOL    HW1 2644   1.703   3.592   3.172
  878SOL    HW2 2645   1.623   3.672   3.290
  879SOL     OW 2646   1.841   2.037   2.825
  879SOL    HW1 2647   1.880   1.952   2.789
  879SOL    HW2 2648   1.743   2.039   2.806
  880SOL     OW 2649   0.263   2.188   2.582
  880SOL    HW1 2650   0.184   2.239   2.548
  880SOL    HW2 2651   0.254   2.173   2.680
  881SOL     OW 2652   1.194   3.474   1.893
  881SOL    HW1 2653   1.200   3.381   1.930
  881SOL    HW2 2654   1.135   3.474   1.813
  882SOL     OW 2655   0.822   2.864   3.234
  882SOL    HW1 2656   0.862   2.863   3.142
  882SOL    HW2 2657   0.832   2.956   3.274
  883SOL     OW 2658   0.916   2.772   2.153
  883SOL    HW1 2659   0.979   2.810   2.085
  883SOL    HW2 2660   0.956   2.689   2.192
  884SOL     OW 2661   1.504   3.469   1.906
  884SOL    HW1 2662   1.412   3.506   1.913
  884SOL    HW2 2663   1.542   3.489   1.816
  885SOL     OW 2664   0.372   3.150   3.352
  885SOL    HW1 2665   0.359   3.243   3.318
  885SOL    HW2 2666   0.288   3.098   3.339
  886SOL     OW 2667   1.614   3.154   3.151
  886SOL    HW1 2668   1.674   3.157   3.231
  886SOL    HW2 2669   1.539   3.218   3.164
  887SOL     OW 2670   1.039   2.960   2.558
  887SOL    HW1 2671   0.969   2.913   2.612
  887SOL    HW2 2672   1.098   2.892   2.515
  888SOL     OW 2673   1.014   2.098   2.833
  888SOL    HW1 2674   1.006   2.062   2.740
  888SOL    HW2 2675   1.012   2.022   2.898
  889SOL     OW 2676   0.590   3.349   2.353
  889SOL    HW1 2677   0.632   3.291   2.283
  889SOL    HW2 2678   0.546   3.428   2.309
  890SOL     OW 2679   1.709   2.247   3.243
  890SOL    HW1 2680   1.782   2.316   3.247
  890SOL    HW2 2681   1.737   2.172   3.184
  891SOL     OW 2682   0.255   3.210   2.152
  891SOL    HW1 2683   0.159   3.211   2.125
  891SOL    HW2 2684   0.267   3.263   2.236
  892SOL     OW 2685   0.105   2.875   3.588
  892SOL    HW1 2686   0.028   2.842   3.642
  892SOL    HW2 2687   0.190   2.845   3.630
  893SOL     OW 2688   0.672   2.065   3.351
  893SOL    HW1 2689   0.762   2.049   3.311
  893SOL    HW2 2690   0.680   2.070   3.450
  894SOL     OW 2691   0.075   2.207   1.895
  894SOL    HW1 2692  -0.017   2.179   1.866
  894SOL    HW2 2693   0.106   2.284   1.839
  895SOL     OW 2694   1.440   2.718   3.260
  895SOL    HW1 2695   1.383   2.770   3.197
  895SOL    HW2 2696   1.536   2.730   3.236
  896SOL     OW 2697   0.072   2.028   2.180
  896SOL    HW1 2698   0.055   2.111   2.126
  896SOL    HW2 2699   0.162   1.991   2.158
  897SOL     OW 2700   1.183   3.197   1.981
  897SOL    HW1 2701   1.084   3.186   1.983
  897SOL    HW2 2702   1.217   3.212   2.074
  898SOL     OW 2703   0.613   2.704   3.293
  898SOL    HW1 2704   0.669   2.785   3.276
  898SOL    HW2 2705   0.672   2.624   3.296
  899SOL     OW 2706   1.493   3.629   2.821
  899SOL    HW1 2707   1.526   3.693   2.752
  899SOL    HW2 2708   1.559   3.623   2.896
  900SOL     OW 2709   0.716   2.427   3.570
  900SOL    HW1 2710   0.735   2.492   3.644
  900SOL    HW2 2711   0.776   2.347   3.579
  901SOL     OW 2712   1.450   3.082   3.495
  901SOL    HW1 2713   1.441   3.072   3.594
  901SOL    HW2 2714   1.546   3.075   3.469
  902SOL     OW 2715   0.390   3.603   3.422
  902SOL    HW1 2716   0.299   3.644   3.420
  902SOL    HW2 2717   0.383   3.509   3.454
  903SOL     OW 2718   1.674   2.745   3.116
  903SOL    HW1 2719   1.647   2.656   3.079
  903SOL    HW2 2720   1.675   2.813   3.043
  904SOL     OW 2721   1.225   2.187   2.311
  904SOL    HW1 2722   1.290   2.113   2.300
  904SOL    HW2 2723   1.245   2.237   2.395
  905SOL     OW 2724   0.594   2.607   2.514
  905SOL    HW1 2725   0.644   2.692   2.495
  905SOL    HW2 2726   0.506   2.609   2.466
  906SOL     OW 2727   1.777   2.204   3.504
  906SOL    HW1 2728   1.760   2.235   3.410
  906SOL    HW2 2729   1.693   2.167   3.542
  907SOL     OW 2730   1.730   2.796   3.379
  907SOL    HW1 2731   1.768   2.887   3.394
  907SOL    HW2 2732   1.722   2.779   3.280
  908SOL     OW 2733   0.859   3.236   1.878
  908SOL    HW1 2734   0.813   3.251   1.966
  908SOL    HW2 2735   0.903   3.321   1.848
  909SOL     OW 2736   0.661   3.652   2.815
  909SOL    HW1 2737   0.615   3.740   2.802
  909SOL    HW2 2738   0.760   3.664   2.808
  910SOL     OW 2739   0.859   2.818   2.723
  910SOL    HW1 2740   0.913   2.749   2.771
  910SOL    HW2 2741   0.827   2.887   2.789
  911SOL     OW 2742   1.083   2.846   1.949
  911SOL    HW1 2743   1.060   2.899   1.867
  911SOL    HW2 2744   1.164   2.790   1.930
  912SOL     OW 2745   1.861   3.431   2.713
  912SOL    HW1 2746   1.790   3.419   2.643
  912SOL    HW2 2747   1.862   3.352   2.773
  913SOL     OW 2748   0.221   3.176   3.706
  913SOL    HW1 2749   0.156   3.103   3.685
  913SOL    HW2 2750   0.225   3.190   3.804
  914SOL     OW 2751   0.079   3.102   2.515
  914SOL    HW1 2752   0.078   3.055   2.603
  914SOL    HW2 2753   0.161   3.074   2.464
  915SOL     OW 2754   0.672   3.253   3.486
  915SOL    HW1 2755   0.594   3.203   3.524
  915SOL    HW2 2756   0.669   3.348   3.517
  916SOL     OW 2757   1.824   2.054   3.089
  916SOL    HW1 2758   1.820   1.964   3.133
  916SOL    HW2 2759   1.827   2.043   2.990
  917SOL     OW 2760   0.428   2.286   2.382
  917SOL    HW1 2761   0.458   2.214   2.320
  917SOL    HW2 2762   0.389   2.246   2.465
  918SOL     OW 2763   1.705   3.349   2.966
  918SOL    HW1 2764   1.612   3.324   2.939
  918SOL    HW2 2765   1.731   3.299   3.048
  919SOL     OW 2766   0.317   2.409   3.142
  919SOL    HW1 2767   0.355   2.350   3.214
  919SOL    HW2 2768   0.357   2.383   3.054
  920SOL     OW 2769   0.812   3.448   2.549
  920SOL    HW1 2770   0.844   3.458   2.455
  920SOL    HW2 2771   0.733   3.386   2.551
  921SOL     OW 2772   1.424   2.076   2.974
  921SOL    HW1 2773   1.476   2.011   3.029
  921SOL    HW2 2774   1.375   2.139   3.035
  922SOL     OW 2775   1.001   1.896   3.016
  922SOL    HW1 2776   0.938   1.824   2.985
  922SOL    HW2 2777   1.094   1.860   3.016
  923SOL     OW 2778   0.770   3.192   2.163
  923SOL    HW1 2779   0.724   3.105   2.180
  923SOL    HW2 2780   0.861   3.189   2.204
  924SOL     OW 2781   0.618   3.429   3.146
  924SOL    HW1 2782   0.613   3.511   3.203
  924SOL    HW2 2783   0.707   3.426   3.101
  925SOL     OW 2784   1.352   1.914   2.030
  925SOL    HW1 2785   1.387   1.873   1.946
  925SOL    HW2 2786   1.262   1.876   2.050
  926SOL     OW 2787   1.300   2.315   2.553
  926SOL    HW1 2788   1.241   2.395   2.557
  926SOL    HW2 2789   1.315   2.280   2.646
  927SOL     OW 2790   1.593   2.083   2.744
  927SOL    HW1 2791   1.509   2.082   2.798
  927SOL    HW2 2792   1.595   2.166   2.688
  928SOL     OW 2793   0.039   2.939   2.162
  928SOL    HW1 2794   0.138   2.928   2.153
  928SOL    HW2 2795  -0.001   2.853   2.194
  929SOL     OW 2796   0.875   3.508   2.199
  929SOL    HW1 2797   0.798   3.473   2.145
  929SOL    HW2 2798   0.843   3.579   2.261
  930SOL     OW 2799   0.230   2.490   3.837
  930SOL    HW1 2800   0.137   2.488   3.874
  930SOL    HW2 2801   0.231   2.451   3.745
  931SOL     OW 2802   1.755   2.469   3.955
  931SOL    HW1 2803   1.743   2.456   3.856
  931SOL    HW2 2804   1.725   2.388   4.004
  932SOL     OW 2805   0.231   3.575   4.207
  932SOL    HW1 2806   0.265   3.652   4.261
  932SOL    HW2 2807   0.275   3.575   4.117
  933SOL     OW 2808   0.230   3.296   4.262
  933SOL    HW1 2809   0.204   3.392   4.262
  933SOL    HW2 2810   0.159   3.242   4.307
  934SOL     OW 2811   0.606   2.826   3.847
  934SOL    HW1 2812   0.613   2.910   3.793
  934SOL    HW2 2813   0.652   2.839   3.935
  935SOL     OW 2814   0.122   2.505   4.287
  935SOL    HW1 2815   0.077   2.417   4.304
  935SOL    HW2 2816   0.121   2.559   4.371
  936SOL     OW 2817   1.842   3.629   4.083
  936SOL    HW1 2818   1.896   3.600   4.163
  936SOL    HW2 2819   1.872   3.719   4.054
  937SOL     OW 2820   0.027   3.458   3.841
  937SOL    HW1 2821   0.008   3.362   3.862
  937SOL    HW2 2822  -0.006   3.516   3.916
  938SOL     OW 2823   1.689   2.784   4.336
  938SOL    HW1 2824   1.784   2.755   4.344
  938SOL    HW2 2825   1.681   2.849   4.261
  939SOL     OW 2826   1.641   2.970   4.156
  939SOL    HW1 2827   1.727   2.972   4.104
  939SOL    HW2 2828   1.655   3.017   4.244
  940SOL     OW 2829   0.613   3.227   4.450
  940SOL    HW1 2830   0.564   3.140   4.459
  940SOL    HW2 2831   0.590   3.270   4.363
  941SOL     OW 2832   0.809   1.866   4.226
  941SOL    HW1 2833   0.849   1.957   4.217
  941SOL    HW2 2834   0.709   1.874   4.232
  942SOL     OW 2835   1.525   2.861   3.914
  942SOL    HW1 2836   1.462   2.785   3.927
  942SOL    HW2 2837   1.573   2.879   4.000
  943SOL     OW 2838   1.466   3.279   4.677
  943SOL    HW1 2839   1.407   3.285   4.757
  943SOL    HW2 2840   1.451   3.191   4.631
  944SOL     OW 2841   0.598   2.591   3.994
  944SOL    HW1 2842   0.622   2.660   3.926
  944SOL    HW2 2843   0.520   2.624   4.048
  945SOL     OW 2844   1.576   3.524   4.031
  945SOL    HW1 2845   1.665   3.570   4.034
  945SOL    HW2 2846   1.555   3.500   3.936
  946SOL     OW 2847   1.041   2.563   4.153
  946SOL    HW1 2848   1.067   2.559   4.249
  946SOL    HW2 2849   0.956   2.512   4.139
  947SOL     OW 2850   0.076   2.673   4.513
  947SOL    HW1 2851   0.175   2.661   4.522
  947SOL    HW2 2852   0.052   2.768   4.534
  948SOL     OW 2853   0.865   2.210   3.919
  948SOL    HW1 2854   0.924   2.273   3.870
  948SOL    HW2 2855   0.884   2.116   3.890
  949SOL     OW 2856   1.362   3.006   4.269
  949SOL    HW1 2857   1.445   2.977   4.221
  949SOL    HW2 2858   1.313   3.073   4.213
  950SOL     OW 2859   1.008   3.318   4.201
  950SOL    HW1 2860   0.962   3.390   4.149
  950SOL    HW2 2861   1.004   3.338   4.299
  951SOL     OW 2862   0.351   3.663   4.577
  951SOL    HW1 2863   0.401   3.577   4.583
  951SOL    HW2 2864   0.416   3.740   4.574
  952SOL     OW 2865   1.795   2.928   4.597
  952SOL    HW1 2866   1.733   2.913   4.521
  952SOL    HW2 2867   1.743   2.939   4.682
  953SOL     OW 2868   0.321   2.805   3.966
  953SOL    HW1 2869   0.403   2.844   3.924
  953SOL    HW2 2870   0.294   2.723   3.917
  954SOL     OW 2871   1.111   3.638   3.961
  954SOL    HW1 2872   1.051   3.576   4.011
  954SOL    HW2 2873   1.142   3.594   3.876
  955SOL     OW 2874   1.632   3.239   3.805
  955SOL    HW1 2875   1.600   3.333   3.795
  955SOL    HW2 2876   1.556   3.176   3.793
  956SOL     OW 2877   0.464   3.605   4.047
  956SOL    HW1 2878   0.497   3.644   4.133
  956SOL    HW2 2879   0.540   3.598   3.982
  957SOL     OW 2880   1.400   1.969   4.150
  957SOL    HW1 2881   1.376   1.932   4.060
  957SOL    HW2 2882   1.499   1.985   4.154
  958SOL     OW 2883   0.382   2.562   4.204
  958SOL    HW1 2884   0.427   2.472   4.201
  958SOL    HW2 2885   0.288   2.551   4.237
  959SOL     OW 2886   0.614   1.984   3.841
  959SOL    HW1 2887   0.712   1.962   3.848
  959SOL    HW2 2888   0.583   1.967   3.748
  960SOL     OW 2889   0.539   1.926   4.236
  960SOL    HW1 2890   0.458   1.927   4.294
  960SOL    HW2 2891   0.542   2.009   4.181
  961SOL     OW 2892   1.434   3.050   3.765
  961SOL    HW1 2893   1.466   2.974   3.822
  961SOL    HW2 2894   1.342   3.077   3.795
  962SOL     OW 2895   0.297   1.897   3.895
  962SOL    HW1 2896   0.346   1.981   3.874
  962SOL    HW2 2897   0.359   1.832   3.940
  963SOL     OW 2898   0.935   2.098   4.204
  963SOL    HW1 2899   0.887   2.139   4.126
  963SOL    HW2 2900   1.034   2.096   4.185
  964SOL     OW 2901   0.459   3.014   4.465
  964SOL    HW1 2902   0.388   2.987   4.530
  964SOL    HW2 2903   0.433   2.986   4.372
  965SOL     OW 2904   1.271   3.659   4.315
  965SOL    HW1 2905   1.315   3.723   4.251
  965SOL    HW2 2906   1.221   3.711   4.385
  966SOL     OW 2907   1.032   2.411   3.740
  966SOL    HW1 2908   0.991   2.493   3.701
  966SOL    HW2 2909   1.096   2.437   3.813
  967SOL     OW 2910   0.866   2.316   4.366
  967SOL    HW1 2911   0.834   2.388   4.304
  967SOL    HW2 2912   0.890   2.235   4.313
  968SOL     OW 2913   1.857   2.695   4.101
  968SOL    HW1 2914   1.899   2.631   4.165
  968SOL    HW2 2915   1.819   2.644   4.023
  969SOL     OW 2916   0.488   3.247   3.898
  969SOL    HW1 2917   0.401   3.232   3.945
  969SOL    HW2 2918   0.471   3.273   3.803
  970SOL     OW 2919   1.390   2.437   3.802
  970SOL    HW1 2920   1.336   2.416   3.883
  970SOL    HW2 2921   1.481   2.396   3.811
  971SOL     OW 2922   0.527   2.118   4.052
  971SOL    HW1 2923   0.554   2.059   3.977
  971SOL    HW2 2924   0.527   2.213   4.021
  972SOL     OW 2925   0.705   2.912   4.092
  972SOL    HW1 2926   0.691   2.919   4.191
  972SOL    HW2 2927   0.789   2.861   4.074
  973SOL     OW 2928   0.367   2.962   4.225
  973SOL    HW1 2929   0.360   3.045   4.169
  973SOL    HW2 2930   0.371   2.882   4.165
  974SOL     OW 2931   1.252   3.210   4.112
  974SOL    HW1 2932   1.302   3.287   4.152
  974SOL    HW2 2933   1.157   3.212   4.144
  975SOL     OW 2934   1.582   2.501   4.196
  975SOL    HW1 2935   1.551   2.562   4.269
  975SOL    HW2 2936   1.632   2.553   4.127
  976SOL     OW 2937   1.209   2.387   3.999
  976SOL    HW1 2938   1.222   2.303   4.053
  976SOL    HW2 2939   1.180   2.461   4.059
  977SOL     OW 2940   0.307   1.925   4.342
  977SOL    HW1 2941   0.296   2.019   4.375
  977SOL    HW2 2942   0.302   1.862   4.419
  978SOL     OW 2943   1.622   2.229   4.098
  978SOL    HW1 2944   1.624   2.153   4.162
  978SOL    HW2 2945   1.574   2.306   4.138
  979SOL     OW 2946   1.540   2.136   3.849
  979SOL    HW1 2947   1.479   2.061   3.872
  979SOL    HW2 2948   1.562   2.188   3.932
  980SOL     OW 2949   1.303   2.700   3.766
  980SOL    HW1 2950   1.337   2.607   3.781
  980SOL    HW2 2951   1.321   2.727   3.671
  981SOL     OW 2952   0.008   3.188   3.924
  981SOL    HW1 2953  -0.085   3.209   3.893
  981SOL    HW2 2954   0.018   3.089   3.937
  982SOL     OW 2955   0.815   2.434   4.049
  982SOL    HW1 2956   0.822   2.345   4.003
  982SOL    HW2 2957   0.721   2.468   4.041
  983SOL     OW 2958   0.473   2.362   3.915
  983SOL    HW1 2959   0.534   2.442   3.919
  983SOL    HW2 2960   0.378   2.393   3.922
  984SOL     OW 2961   1.302   2.717   4.033
  984SOL    HW1 2962   1.216   2.686   4.075
  984SOL    HW2 2963   1.298   2.703   3.934
  985SOL     OW 2964   1.726   1.997   4.247
  985SOL    HW1 2965   1.799   1.980   4.180
  985SOL    HW2 2966   1.695   1.910   4.285
  986SOL     OW 2967   1.388   3.435   4.201
  986SOL    HW1 2968   1.455   3.447   4.127
  986SOL    HW2 2969   1.348   3.524   4.224
  987SOL     OW 2970   0.672   3.478   3.878
  987SOL    HW1 2971   0.681   3.488   3.779
  987SOL    HW2 2972   0.632   3.389   3.899
  988SOL     OW 2973   1.841   2.037   4.687
  988SOL    HW1 2974   1.880   1.952   4.651
  988SOL    HW2 2975   1.743   2.039   4.668
  989SOL     OW 2976   1.194   3.474   3.755
  989SOL    HW1 2977   1.200   3.381   3.792
  989SOL    HW2 2978   1.135   3.474   3.675
  990SOL     OW 2979   0.916   2.772   4.015
  990SOL    HW1 2980   0.979   2.810   3.947
  990SOL    HW2 2981   0.956   2.689   4.054
  991SOL     OW 2982   1.504   3.469   3.768
  991SOL    HW1 2983   1.412   3.506   3.775
  991SOL    HW2 2984   1.542   3.489   3.678
  992SOL     OW 2985   0.590   3.349   4.215
  992SOL    HW1 2986   0.632   3.291   4.145
  992SOL    HW2 2987   0.546   3.428   4.171
  993SOL     OW 2988   0.255   3.210   4.014
  993SOL    HW1 2989   0.159   3.211   3.987
  993SOL    HW2 2990   0.267   3.263   4.098
  994SOL     OW 2991   0.075   2.207   3.757
  994SOL    HW1 2992  -0.017   2.179   3.728
  994SOL    HW2 2993   0.106   2.284   3.701
  995SOL     OW 2994   0.072   2.028   4.042
  995SOL    HW1 2995   0.055   2.111   3.988
  995SOL    HW2 2996   0.162   1.991   4.020
  996SOL     OW 2997   1.183   3.197   3.843
  996SOL    HW1 2998   1.084   3.186   3.845
  996SOL    HW2 2999   1.217   3.212   3.936
  997SOL     OW 3000   1.225   2.187   4.173
  997SOL    HW1 3001   1.290   2.113   4.162
  997SOL    HW2 3002   1.245   2.237   4.257
  998SOL     OW 3003   0.594   2.607   4.376
  998SOL    HW1 3004   0.644   2.692   4.357
  998SOL    HW2 3005   0.506   2.609   4.328
  999SOL     OW 3006   0.859   3.236   3.740
  999SOL    HW1 3007   0.813   3.251   3.828
  999SOL    HW2 3008   0.903   3.321   3.710
 1000SOL     OW 3009   1.083   2.846   3.811
 1000SOL    HW1 3010   1.060   2.899   3.729
 1000SOL    HW2 3011   1.164   2.790   3.792
 1001SOL     OW 3012   0.079   3.102   4.377
 1001SOL    HW1 3013   0.078   3.055   4.465
 1001SOL    HW2 3014   0.161   3.074   4.326
 1002SOL     OW 3015   0.428   2.286   4.244
 1002SOL    HW1 3016   0.458   2.214   4.182
 1002SOL    HW2 3017   0.389   2.246   4.327
 1003SOL     OW 3018   0.812   3.448   4.411
 1003SOL    HW1 3019   0.844   3.458   4.317
 1003SOL    HW2 3020   0.733   3.386   4.413
 1004SOL     OW 3021   0.770   3.192   4.025
 1004SOL    HW1 3022   0.724   3.105   4.042
 1004SOL    HW2 3023   0.861   3.189   4.066
 1005SOL     OW 3024   1.352   1.914   3.892
 1005SOL    HW1 3025   1.387   1.873   3.808
 1005SOL    HW2 3026   1.262   1.876   3.912
 1006SOL     OW 3027   1.300   2.315   4.415
 1006SOL    HW1 3028   1.241   2.395   4.419
 1006SOL    HW2 3029   1.315   2.280   4.508
 1007SOL     OW 3030   0.039   2.939   4.024
 1007SOL    HW1 3031   0.138   2.928   4.015
 1007SOL    HW2 3032  -0.001   2.853   4.056
 1008SOL     OW 3033   0.875   3.508   4.061
 1008SOL    HW1 3034   0.798   3.473   4.007
 1008SOL    HW2 3035   0.843   3.579   4.123
 1009SOL     OW 3036   0.225   3.999   0.996
 1009SOL    HW1 3037   0.260   3.982   1.088
 1009SOL    HW2 3038   0.137   3.954   0.984
 1010SOL     OW 3039   0.019   4.092   0.647
 1010SOL    HW1 3040  -0.063   4.135   0.686
 1010SOL    HW2 3041  -0.009   4.019   0.584
 1011SOL     OW 3042   1.755   4.331   0.231
 1011SOL    HW1 3043   1.743   4.318   0.132
 1011SOL    HW2 3044   1.725   4.250   0.280
 1012SOL     OW 3045   0.438   4.116   1.499
 1012SOL    HW1 3046   0.520   4.060   1.508
 1012SOL    HW2 3047   0.357   4.058   1.503
 1013SOL     OW 3048   1.603   4.171   0.737
 1013SOL    HW1 3049   1.529   4.217   0.687
 1013SOL    HW2 3050   1.654   4.239   0.790
 1014SOL     OW 3051   1.594   3.838   1.480
 1014SOL    HW1 3052   1.576   3.905   1.408
 1014SOL    HW2 3053   1.591   3.884   1.569
 1015SOL     OW 3054   0.122   4.367   0.563
 1015SOL    HW1 3055   0.077   4.279   0.580
 1015SOL    HW2 3056   0.121   4.421   0.647
 1016SOL     OW 3057   0.113   4.461   1.597
 1016SOL    HW1 3058   0.201   4.448   1.642
 1016SOL    HW2 3059   0.100   4.558   1.575
 1017SOL     OW 3060   0.809   3.728   0.502
 1017SOL    HW1 3061   0.849   3.819   0.493
 1017SOL    HW2 3062   0.709   3.736   0.508
 1018SOL     OW 3063   0.317   3.975   1.801
 1018SOL    HW1 3064   0.388   4.046   1.807
 1018SOL    HW2 3065   0.229   4.014   1.829
 1019SOL     OW 3066   1.281   4.069   0.944
 1019SOL    HW1 3067   1.195   4.019   0.931
 1019SOL    HW2 3068   1.343   4.015   1.000
 1020SOL     OW 3069   0.807   4.329   1.465
 1020SOL    HW1 3070   0.760   4.326   1.554
 1020SOL    HW2 3071   0.756   4.274   1.399
 1021SOL     OW 3072   1.394   4.193   1.674
 1021SOL    HW1 3073   1.374   4.236   1.762
 1021SOL    HW2 3074   1.472   4.131   1.683
 1022SOL     OW 3075   0.991   4.134   1.242
 1022SOL    HW1 3076   0.914   4.168   1.296
 1022SOL    HW2 3077   0.957   4.083   1.163
 1023SOL     OW 3078   1.041   4.425   0.429
 1023SOL    HW1 3079   1.067   4.421   0.525
 1023SOL    HW2 3080   0.956   4.374   0.415
 1024SOL     OW 3081   0.076   4.535   0.789
 1024SOL    HW1 3082   0.175   4.523   0.798
 1024SOL    HW2 3083   0.052   4.630   0.810
 1025SOL     OW 3084   0.865   4.072   0.195
 1025SOL    HW1 3085   0.924   4.135   0.146
 1025SOL    HW2 3086   0.884   3.978   0.166
 1026SOL     OW 3087   1.719   4.309   1.831
 1026SOL    HW1 3088   1.693   4.398   1.795
 1026SOL    HW2 3089   1.717   4.241   1.758
 1027SOL     OW 3090   0.550   3.920   0.885
 1027SOL    HW1 3091   0.545   3.915   0.985
 1027SOL    HW2 3092   0.552   4.016   0.856
 1028SOL     OW 3093   1.458   4.459   0.728
 1028SOL    HW1 3094   1.453   4.394   0.803
 1028SOL    HW2 3095   1.538   4.518   0.741
 1029SOL     OW 3096   0.202   4.009   1.498
 1029SOL    HW1 3097   0.122   4.069   1.485
 1029SOL    HW2 3098   0.192   3.960   1.584
 1030SOL     OW 3099   1.400   3.831   0.426
 1030SOL    HW1 3100   1.376   3.794   0.336
 1030SOL    HW2 3101   1.499   3.847   0.430
 1031SOL     OW 3102   1.547   3.946   1.729
 1031SOL    HW1 3103   1.542   3.983   1.821
 1031SOL    HW2 3104   1.475   3.877   1.717
 1032SOL     OW 3105   0.614   3.846   0.117
 1032SOL    HW1 3106   0.712   3.824   0.124
 1032SOL    HW2 3107   0.583   3.829   0.024
 1033SOL     OW 3108   0.781   3.988   1.749
 1033SOL    HW1 3109   0.848   3.927   1.792
 1033SOL    HW2 3110   0.708   4.007   1.814
 1034SOL     OW 3111   1.351   4.314   1.433
 1034SOL    HW1 3112   1.379   4.271   1.518
 1034SOL    HW2 3113   1.376   4.410   1.434
 1035SOL     OW 3114   0.922   4.227   0.899
 1035SOL    HW1 3115   0.897   4.218   0.803
 1035SOL    HW2 3116   0.970   4.145   0.930
 1036SOL     OW 3117   0.539   3.788   0.512
 1036SOL    HW1 3118   0.458   3.789   0.570
 1036SOL    HW2 3119   0.542   3.871   0.457
 1037SOL     OW 3120   0.935   3.960   0.480
 1037SOL    HW1 3121   0.887   4.001   0.402
 1037SOL    HW2 3122   1.034   3.958   0.461
 1038SOL     OW 3123   1.076   4.407   1.464
 1038SOL    HW1 3124   0.996   4.346   1.467
 1038SOL    HW2 3125   1.157   4.354   1.440
 1039SOL     OW 3126   1.032   4.273   0.016
 1039SOL    HW1 3127   0.991   4.355  -0.023
 1039SOL    HW2 3128   1.096   4.299   0.089
 1040SOL     OW 3129   0.078   4.280   1.386
 1040SOL    HW1 3130   0.170   4.279   1.345
 1040SOL    HW2 3131   0.072   4.354   1.453
 1041SOL     OW 3132   0.561   3.946   1.147
 1041SOL    HW1 3133   0.599   3.862   1.184
 1041SOL    HW2 3134   0.473   3.965   1.191
 1042SOL     OW 3135   0.866   4.178   0.642
 1042SOL    HW1 3136   0.834   4.250   0.580
 1042SOL    HW2 3137   0.890   4.097   0.589
 1043SOL     OW 3138   1.017   3.763   0.753
 1043SOL    HW1 3139   0.945   3.768   0.684
 1043SOL    HW2 3140   0.993   3.694   0.822
 1044SOL     OW 3141   1.466   4.314   0.992
 1044SOL    HW1 3142   1.436   4.219   0.999
 1044SOL    HW2 3143   1.539   4.330   1.058
 1045SOL     OW 3144   0.527   3.980   0.328
 1045SOL    HW1 3145   0.554   3.921   0.253
 1045SOL    HW2 3146   0.527   4.075   0.297
 1046SOL     OW 3147   0.915   3.813   1.402
 1046SOL    HW1 3148   0.940   3.793   1.307
 1046SOL    HW2 3149   0.987   3.869   1.444
 1047SOL     OW 3150   1.274   4.110   1.262
 1047SOL    HW1 3151   1.295   4.184   1.326
 1047SOL    HW2 3152   1.185   4.127   1.219
 1048SOL     OW 3153   0.566   4.261   0.865
 1048SOL    HW1 3154   0.578   4.327   0.791
 1048SOL    HW2 3155   0.612   4.295   0.948
 1049SOL     OW 3156   1.582   4.363   0.472
 1049SOL    HW1 3157   1.551   4.424   0.545
 1049SOL    HW2 3158   1.632   4.415   0.403
 1050SOL     OW 3159   1.013   3.829   1.770
 1050SOL    HW1 3160   1.019   3.914   1.718
 1050SOL    HW2 3161   1.045   3.753   1.713
 1051SOL     OW 3162   0.504   3.774   1.740
 1051SOL    HW1 3163   0.462   3.717   1.670
 1051SOL    HW2 3164   0.438   3.843   1.772
 1052SOL     OW 3165   1.209   4.249   0.275
 1052SOL    HW1 3166   1.222   4.165   0.329
 1052SOL    HW2 3167   1.180   4.323   0.335
 1053SOL     OW 3168   0.307   3.937   1.231
 1053SOL    HW1 3169   0.284   3.974   1.321
 1053SOL    HW2 3170   0.277   3.842   1.225
 1054SOL     OW 3171   0.732   4.358   1.064
 1054SOL    HW1 3172   0.791   4.332   0.988
 1054SOL    HW2 3173   0.704   4.454   1.053
 1055SOL     OW 3174   0.307   3.787   0.618
 1055SOL    HW1 3175   0.296   3.881   0.651
 1055SOL    HW2 3176   0.302   3.724   0.695
 1056SOL     OW 3177   1.622   4.091   0.374
 1056SOL    HW1 3178   1.624   4.015   0.438
 1056SOL    HW2 3179   1.574   4.168   0.414
 1057SOL     OW 3180   1.540   3.998   0.125
 1057SOL    HW1 3181   1.479   3.923   0.148
 1057SOL    HW2 3182   1.562   4.050   0.208
 1058SOL     OW 3183   0.319   4.534   0.949
 1058SOL    HW1 3184   0.412   4.570   0.954
 1058SOL    HW2 3185   0.313   4.449   1.001
 1059SOL     OW 3186   0.339   4.233   1.006
 1059SOL    HW1 3187   0.287   4.150   0.989
 1059SOL    HW2 3188   0.416   4.238   0.942
 1060SOL     OW 3189   1.138   4.104   1.678
 1060SOL    HW1 3190   1.093   4.167   1.742
 1060SOL    HW2 3191   1.231   4.135   1.661
 1061SOL     OW 3192   1.160   3.931   1.477
 1061SOL    HW1 3193   1.160   3.995   1.554
 1061SOL    HW2 3194   1.188   3.979   1.394
 1062SOL     OW 3195   0.040   4.268   1.114
 1062SOL    HW1 3196   0.125   4.235   1.073
 1062SOL    HW2 3197   0.053   4.283   1.212
 1063SOL     OW 3198   0.189   4.244   1.722
 1063SOL    HW1 3199   0.248   4.204   1.652
 1063SOL    HW2 3200   0.131   4.315   1.681
 1064SOL     OW 3201   0.815   4.296   0.325
 1064SOL    HW1 3202   0.822   4.207   0.279
 1064SOL    HW2 3203   0.721   4.330   0.317
 1065SOL     OW 3204   1.657   4.328   1.206
 1065SOL    HW1 3205   1.619   4.259   1.268
 1065SOL    HW2 3206   1.739   4.292   1.162
 1066SOL     OW 3207   0.671   4.188   1.269
 1066SOL    HW1 3208   0.637   4.099   1.239
 1066SOL    HW2 3209   0.697   4.242   1.189
 1067SOL     OW 3210   0.473   4.224   0.191
 1067SOL    HW1 3211   0.534   4.304   0.195
 1067SOL    HW2 3212   0.378   4.255   0.198
 1068SOL     OW 3213   0.903   3.810   0.133
 1068SOL    HW1 3214   0.954   3.811   0.047
 1068SOL    HW2 3215   0.959   3.768   0.204
 1069SOL     OW 3216   1.726   3.859   0.523
 1069SOL    HW1 3217   1.799   3.842   0.456
 1069SOL    HW2 3218   1.695   3.772   0.561
 1070SOL     OW 3219   1.280   4.651   0.672
 1070SOL    HW1 3220   1.340   4.570   0.674
 1070SOL    HW2 3221   1.320   4.720   0.612
 1071SOL     OW 3222   1.841   3.899   0.963
 1071SOL    HW1 3223   1.880   3.814   0.927
 1071SOL    HW2 3224   1.743   3.901   0.944
 1072SOL     OW 3225   0.263   4.050   0.720
 1072SOL    HW1 3226   0.184   4.101   0.686
 1072SOL    HW2 3227   0.254   4.035   0.818
 1073SOL     OW 3228   1.014   3.960   0.971
 1073SOL    HW1 3229   1.006   3.924   0.878
 1073SOL    HW2 3230   1.012   3.884   1.036
 1074SOL     OW 3231   1.709   4.109   1.381
 1074SOL    HW1 3232   1.782   4.178   1.385
 1074SOL    HW2 3233   1.737   4.034   1.322
 1075SOL     OW 3234   0.672   3.927   1.489
 1075SOL    HW1 3235   0.762   3.911   1.449
 1075SOL    HW2 3236   0.680   3.932   1.588
 1076SOL     OW 3237   0.075   4.069   0.033
 1076SOL    HW1 3238  -0.017   4.041   0.004
 1076SOL    HW2 3239   0.106   4.146  -0.023
 1077SOL     OW 3240   0.072   3.890   0.318
 1077SOL    HW1 3241   0.055   3.973   0.264
 1077SOL    HW2 3242   0.162   3.853   0.296
 1078SOL     OW 3243   0.716   4.289   1.708
 1078SOL    HW1 3244   0.735   4.354   1.782
 1078SOL    HW2 3245   0.776   4.209   1.717
 1079SOL     OW 3246   1.225   4.049   0.449
 1079SOL    HW1 3247   1.290   3.975   0.438
 1079SOL    HW2 3248   1.245   4.099   0.533
 1080SOL     OW 3249   1.777   4.066   1.642
 1080SOL    HW1 3250   1.760   4.097   1.548
 1080SOL    HW2 3251   1.693   4.029   1.680
 1081SOL     OW 3252   1.083   4.708   0.087
 1081SOL    HW1 3253   1.060   4.761   0.005
 1081SOL    HW2 3254   1.164   4.652   0.068
 1082SOL     OW 3255   1.824   3.916   1.227
 1082SOL    HW1 3256   1.820   3.826   1.271
 1082SOL    HW2 3257   1.827   3.905   1.128
 1083SOL     OW 3258   0.428   4.148   0.520
 1083SOL    HW1 3259   0.458   4.076   0.458
 1083SOL    HW2 3260   0.389   4.108   0.603
 1084SOL     OW 3261   0.317   4.271   1.280
 1084SOL    HW1 3262   0.355   4.212   1.352
 1084SOL    HW2 3263   0.357   4.245   1.192
 1085SOL     OW 3264   1.424   3.938   1.112
 1085SOL    HW1 3265   1.476   3.873   1.167
 1085SOL    HW2 3266   1.375   4.001   1.173
 1086SOL     OW 3267   1.001   3.758   1.154
 1086SOL    HW1 3268   0.938   3.686   1.123
 1086SOL    HW2 3269   1.094   3.722   1.154
 1087SOL     OW 3270   1.352   3.776   0.168
 1087SOL    HW1 3271   1.387   3.735   0.084
 1087SOL    HW2 3272   1.262   3.738   0.188
 1088SOL     OW 3273   1.300   4.177   0.691
 1088SOL    HW1 3274   1.241   4.257   0.695
 1088SOL    HW2 3275   1.315   4.142   0.784
 1089SOL     OW 3276   1.593   3.945   0.882
 1089SOL    HW1 3277   1.509   3.944   0.936
 1089SOL    HW2 3278   1.595   4.028   0.826
 1090SOL     OW 3279   0.225   3.999   2.858
 1090SOL    HW1 3280   0.260   3.982   2.950
 1090SOL    HW2 3281   0.137   3.954   2.846
 1091SOL     OW 3282   0.019   4.092   2.509
 1091SOL    HW1 3283  -0.063   4.135   2.548
 1091SOL    HW2 3284  -0.009   4.019   2.446
 1092SOL     OW 3285   1.755   4.331   2.093
 1092SOL    HW1 3286   1.743   4.318   1.994
 1092SOL    HW2 3287   1.725   4.250   2.142
 1093SOL     OW 3288   0.438   4.116   3.361
 1093SOL    HW1 3289   0.520   4.060   3.370
 1093SOL    HW2 3290   0.357   4.058   3.365
 1094SOL     OW 3291   1.603   4.171   2.599
 1094SOL    HW1 3292   1.529   4.217   2.549
 1094SOL    HW2 3293   1.654   4.239   2.652
 1095SOL     OW 3294   1.594   3.838   3.342
 1095SOL    HW1 3295   1.576   3.905   3.270
 1095SOL    HW2 3296   1.591   3.884   3.431
 1096SOL     OW 3297   0.122   4.367   2.425
 1096SOL    HW1 3298   0.077   4.279   2.442
 1096SOL    HW2 3299   0.121   4.421   2.509
 1097SOL     OW 3300   0.113   4.461   3.459
 1097SOL    HW1 3301   0.201   4.448   3.504
 1097SOL    HW2 3302   0.100   4.558   3.437
 1098SOL     OW 3303   0.809   3.728   2.364
 1098SOL    HW1 3304   0.849   3.819   2.355
 1098SOL    HW2 3305   0.709   3.736   2.370
 1099SOL     OW 3306   0.317   3.975   3.663
 1099SOL    HW1 3307   0.388   4.046   3.669
 1099SOL    HW2 3308   0.229   4.014   3.691
 1100SOL     OW 3309   1.281   4.069   2.806
 1100SOL    HW1 3310   1.195   4.019   2.793
 1100SOL    HW2 3311   1.343   4.015   2.862
 1101SOL     OW 3312   0.807   4.329   3.327
 1101SOL    HW1 3313   0.760   4.326   3.416
 1101SOL    HW2 3314   0.756   4.274   3.261
 1102SOL     OW 3315   1.394   4.193   3.536
 1102SOL    HW1 3316   1.374   4.236   3.624
 1102SOL    HW2 3317   1.472   4.131   3.545
 1103SOL     OW 3318   0.991   4.134   3.104
 1103SOL    HW1 3319   0.914   4.168   3.158
 1103SOL    HW2 3320   0.957   4.083   3.025
 1104SOL     OW 3321   1.041   4.425   2.291
 1104SOL    HW1 3322   1.067   4.421   2.387
 1104SOL    HW2 3323   0.956   4.374   2.277
 1105SOL     OW 3324   0.076   4.535   2.651
 1105SOL    HW1 3325   0.175   4.523   2.660
 1105SOL    HW2 3326   0.052   4.630   2.672
 1106SOL     OW 3327   0.865   4.072   2.057
 1106SOL    HW1 3328   0.924   4.135   2.008
 1106SOL    HW2 3329   0.884   3.978   2.028
 1107SOL     OW 3330   1.719   4.309   3.693
 1107SOL    HW1 3331   1.693   4.398   3.657
 1107SOL    HW2 3332   1.717   4.241   3.620
 1108SOL     OW 3333   0.550   3.920   2.747
 1108SOL    HW1 3334   0.545   3.915   2.847
 1108SOL    HW2 3335   0.552   4.016   2.718
 1109SOL     OW 3336   1.458   4.459   2.590
 1109SOL    HW1 3337   1.453   4.394   2.665
 1109SOL    HW2 3338   1.538   4.518   2.603
 1110SOL     OW 3339   0.202   4.009   3.360
 1110SOL    HW1 3340   0.122   4.069   3.347
 1110SOL    HW2 3341   0.192   3.960   3.446
 1111SOL     OW 3342   1.400   3.831   2.288
 1111SOL    HW1 3343   1.376   3.794   2.198
 1111SOL    HW2 3344   1.499   3.847   2.292
 1112SOL     OW 3345   1.547   3.946   3.591
 1112SOL    HW1 3346   1.542   3.983   3.683
 1112SOL    HW2 3347   1.475   3.877   3.579
 1113SOL     OW 3348   0.614   3.846   1.979
 1113SOL    HW1 3349   0.712   3.824   1.986
 1113SOL    HW2 3350   0.583   3.829   1.886
 1114SOL     OW 3351   0.781   3.988   3.611
 1114SOL    HW1 3352   0.848   3.927   3.654
 1114SOL    HW2 3353   0.708   4.007   3.676
 1115SOL     OW 3354   1.351   4.314   3.295
 1115SOL    HW1 3355   1.379   4.271   3.380
 1115SOL    HW2 3356   1.376   4.410   3.296
 1116SOL     OW 3357   0.922   4.227   2.761
 1116SOL    HW1 3358   0.897   4.218   2.665
 1116SOL    HW2 3359   0.970   4.145   2.792
 1117SOL     OW 3360   0.539   3.788   2.374
 1117SOL    HW1 3361   0.458   3.789   2.432
 1117SOL    HW2 3362   0.542   3.871   2.319
 1118SOL     OW 3363   0.297   3.759   2.033
 1118SOL    HW1 3364   0.346   3.843   2.012
 1118SOL    HW2 3365   0.359   3.694   2.078
 1119SOL     OW 3366   0.935   3.960   2.342
 1119SOL    HW1 3367   0.887   4.001   2.264
 1119SOL    HW2 3368   1.034   3.958   2.323
 1120SOL     OW 3369   1.076   4.407   3.326
 1120SOL    HW1 3370   0.996   4.346   3.329
 1120SOL    HW2 3371   1.157   4.354   3.302
 1121SOL     OW 3372   1.032   4.273   1.878
 1121SOL    HW1 3373   0.991   4.355   1.839
 1121SOL    HW2 3374   1.096   4.299   1.951
 1122SOL     OW 3375   0.078   4.280   3.248
 1122SOL    HW1 3376   0.170   4.279   3.207
 1122SOL    HW2 3377   0.072   4.354   3.315
 1123SOL     OW 3378   0.561   3.946   3.009
 1123SOL    HW1 3379   0.599   3.862   3.046
 1123SOL    HW2 3380   0.473   3.965   3.053
 1124SOL     OW 3381   0.866   4.178   2.504
 1124SOL    HW1 3382   0.834   4.250   2.442
 1124SOL    HW2 3383   0.890   4.097   2.451
 1125SOL     OW 3384   1.017   3.763   2.615
 1125SOL    HW1 3385   0.945   3.768   2.546
 1125SOL    HW2 3386   0.993   3.694   2.684
 1126SOL     OW 3387   1.466   4.314   2.854
 1126SOL    HW1 3388   1.436   4.219   2.861
 1126SOL    HW2 3389   1.539   4.330   2.920
 1127SOL     OW 3390   0.527   3.980   2.190
 1127SOL    HW1 3391   0.554   3.921   2.115
 1127SOL    HW2 3392   0.527   4.075   2.159
 1128SOL     OW 3393   0.915   3.813   3.264
 1128SOL    HW1 3394   0.940   3.793   3.169
 1128SOL    HW2 3395   0.987   3.869   3.306
 1129SOL     OW 3396   1.274   4.110   3.124
 1129SOL    HW1 3397   1.295   4.184   3.188
 1129SOL    HW2 3398   1.185   4.127   3.081
 1130SOL     OW 3399   0.566   4.261   2.727
 1130SOL    HW1 3400   0.578   4.327   2.653
 1130SOL    HW2 3401   0.612   4.295   2.810
 1131SOL     OW 3402   1.582   4.363   2.334
 1131SOL    HW1 3403   1.551   4.424   2.407
 1131SOL    HW2 3404   1.632   4.415   2.265
 1132SOL     OW 3405   1.013   3.829   3.632
 1132SOL    HW1 3406   1.019   3.914   3.580
 1132SOL    HW2 3407   1.045   3.753   3.575
 1133SOL     OW 3408   0.504   3.774   3.602
 1133SOL    HW1 3409   0.462   3.717   3.532
 1133SOL    HW2 3410   0.438   3.843   3.634
 1134SOL     OW 3411   1.209   4.249   2.137
 1134SOL    HW1 3412   1.222   4.165   2.191
 1134SOL    HW2 3413   1.180   4.323   2.197
 1135SOL     OW 3414   0.307   3.937   3.093
 1135SOL    HW1 3415   0.284   3.974   3.183
 1135SOL    HW2 3416   0.277   3.842   3.087
 1136SOL     OW 3417   0.732   4.358   2.926
 1136SOL    HW1 3418   0.791   4.332   2.850
 1136SOL    HW2 3419   0.704   4.454   2.915
 1137SOL     OW 3420   0.307   3.787   2.480
 1137SOL    HW1 3421   0.296   3.881   2.513
 1137SOL    HW2 3422   0.302   3.724   2.557
 1138SOL     OW 3423   1.622   4.091   2.236
 1138SOL    HW1 3424   1.624   4.015   2.300
 1138SOL    HW2 3425   1.574   4.168   2.276
 1139SOL     OW 3426   1.540   3.998   1.987
 1139SOL    HW1 3427   1.479   3.923   2.010
 1139SOL    HW2 3428   1.562   4.050   2.070
 1140SOL     OW 3429   0.319   4.534   2.811
 1140SOL    HW1 3430   0.412   4.570   2.816
 1140SOL    HW2 3431   0.313   4.449   2.863
 1141SOL     OW 3432   0.339   4.233   2.868
 1141SOL    HW1 3433   0.287   4.150   2.851
 1141SOL    HW2 3434   0.416   4.238   2.804
 1142SOL     OW 3435   1.138   4.104   3.540
 1142SOL    HW1 3436   1.093   4.167   3.604
 1142SOL    HW2 3437   1.231   4.135   3.523
 1143SOL     OW 3438   1.160   3.931   3.339
 1143SOL    HW1 3439   1.160   3.995   3.416
 1143SOL    HW2 3440   1.188   3.979   3.256
 1144SOL     OW 3441   0.040   4.268   2.976
 1144SOL    HW1 3442   0.125   4.235   2.935
 1144SOL    HW2 3443   0.053   4.283   3.074
 1145SOL     OW 3444   0.189   4.244   3.584
 1145SOL    HW1 3445   0.248   4.204   3.514
 1145SOL    HW2 3446   0.131   4.315   3.543
 1146SOL     OW 3447   0.815   4.296   2.187
 1146SOL    HW1 3448   0.822   4.207   2.141
 1146SOL    HW2 3449   0.721   4.330   2.179
 1147SOL     OW 3450   1.657   4.328   3.068
 1147SOL    HW1 3451   1.619   4.259   3.130
 1147SOL    HW2 3452   1.739   4.292   3.024
 1148SOL     OW 3453   0.671   4.188   3.131
 1148SOL    HW1 3454   0.637   4.099   3.101
 1148SOL    HW2 3455   0.697   4.242   3.051
 1149SOL     OW 3456   0.473   4.224   2.053
 1149SOL    HW1 3457   0.534   4.304   2.057
 1149SOL    HW2 3458   0.378   4.255   2.060
 1150SOL     OW 3459   1.726   3.859   2.385
 1150SOL    HW1 3460   1.799   3.842   2.318
 1150SOL    HW2 3461   1.695   3.772   2.423
 1151SOL     OW 3462   1.280   4.651   2.534
 1151SOL    HW1 3463   1.340   4.570   2.536
 1151SOL    HW2 3464   1.320   4.720   2.474
 1152SOL     OW 3465   1.841   3.899   2.825
 1152SOL    HW1 3466   1.880   3.814   2.789
 1152SOL    HW2 3467   1.743   3.901   2.806
 1153SOL     OW 3468   0.263   4.050   2.582
 1153SOL    HW1 3469   0.184   4.101   2.548
 1153SOL    HW2 3470   0.254   4.035   2.680
 1154SOL     OW 3471   1.014   3.960   2.833
 1154SOL    HW1 3472   1.006   3.924   2.740
 1154SOL    HW2 3473   1.012   3.884   2.898
 1155SOL     OW 3474   1.709   4.109   3.243
 1155SOL    HW1 3475   1.782   4.178   3.247
 1155SOL    HW2 3476   1.737   4.034   3.184
 1156SOL     OW 3477   0.672   3.927   3.351
 1156SOL    HW1 3478   0.762   3.911   3.311
 1156SOL    HW2 3479   0.680   3.932   3.450
 1157SOL     OW 3480   0.075   4.069   1.895
 1157SOL    HW1 3481  -0.017   4.041   1.866
 1157SOL    HW2 3482   0.106   4.146   1.839
 1158SOL     OW 3483   0.072   3.890   2.180
 1158SOL    HW1 3484   0.055   3.973   2.126
 1158SOL    HW2 3485   0.162   3.853   2.158
 1159SOL     OW 3486   0.716   4.289   3.570
 1159SOL    HW1 3487   0.735   4.354   3.644
 1159SOL    HW2 3488   0.776   4.209   3.579
 1160SOL     OW 3489   1.225   4.049   2.311
 1160SOL    HW1 3490   1.290   3.975   2.300
 1160SOL    HW2 3491   1.245   4.099   2.395
 1161SOL     OW 3492   1.777   4.066   3.504
 1161SOL    HW1 3493   1.760   4.097   3.410
 1161SOL    HW2 3494   1.693   4.029   3.542
 1162SOL     OW 3495   1.083   4.708   1.949
 1162SOL    HW1 3496   1.060   4.761   1.867
 1162SOL    HW2 3497   1.164   4.652   1.930
 1163SOL     OW 3498   1.824   3.916   3.089
 1163SOL    HW1 3499   1.820   3.826   3.133
 1163SOL    HW2 3500   1.827   3.905   2.990
 1164SOL     OW 3501   0.428   4.148   2.382
 1164SOL    HW1 3502   0.458   4.076   2.320
 1164SOL    HW2 3503   0.389   4.108   2.465
 1165SOL     OW 3504   0.317   4.271   3.142
 1165SOL    HW1 3505   0.355   4.212   3.214
 1165SOL    HW2 3506   0.357   4.245   3.054
 1166SOL     OW 3507   1.424   3.938   2.974
 1166SOL    HW1 3508   1.476   3.873   3.029
 1166SOL    HW2 3509   1.375   4.001   3.035
 1167SOL     OW 3510   1.001   3.758   3.016
 1167SOL    HW1 3511   0.938   3.686   2.985
 1167SOL    HW2 3512   1.094   3.722   3.016
 1168SOL     OW 3513   1.352   3.776   2.030
 1168SOL    HW1 3514   1.387   3.735   1.946
 1168SOL    HW2 3515   1.262   3.738   2.050
 1169SOL     OW 3516   1.300   4.177   2.553
 1169SOL    HW1 3517   1.241   4.257   2.557
 1169SOL    HW2 3518   1.315   4.142   2.646
 1170SOL     OW 3519   1.593   3.945   2.744
 1170SOL    HW1 3520   1.509   3.944   2.798
 1170SOL    HW2 3521   1.595   4.028   2.688
 1171SOL     OW 3522   1.135   4.427   4.441
 1171SOL    HW1 3523   1.192   4.505   4.416
 1171SOL    HW2 3524   1.075   4.453   4.517
 1172SOL     OW 3525   1.755   4.331   3.955
 1172SOL    HW1 3526   1.743   4.318   3.856
 1172SOL    HW2 3527   1.725   4.250   4.004
 1173SOL     OW 3528   0.122   4.367   4.287
 1173SOL    HW1 3529   0.077   4.279   4.304
 1173SOL    HW2 3530   0.121   4.421   4.371
 1174SOL     OW 3531   0.809   3.728   4.226
 1174SOL    HW1 3532   0.849   3.819   4.217
 1174SOL    HW2 3533   0.709   3.736   4.232
 1175SOL     OW 3534   1.041   4.425   4.153
 1175SOL    HW1 3535   1.067   4.421   4.249
 1175SOL    HW2 3536   0.956   4.374   4.139
 1176SOL     OW 3537   0.076   4.535   4.513
 1176SOL    HW1 3538   0.175   4.523   4.522
 1176SOL    HW2 3539   0.052   4.630   4.534
 1177SOL     OW 3540   0.865   4.072   3.919
 1177SOL    HW1 3541   0.924   4.135   3.870
 1177SOL    HW2 3542   0.884   3.978   3.890
 1178SOL     OW 3543   1.400   3.831   4.150
 1178SOL    HW1 3544   1.376   3.794   4.060
 1178SOL    HW2 3545   1.499   3.847   4.154
 1179SOL     OW 3546   0.614   3.846   3.841
 1179SOL    HW1 3547   0.712   3.824   3.848
 1179SOL    HW2 3548   0.583   3.829   3.748
 1180SOL     OW 3549   0.539   3.788   4.236
 1180SOL    HW1 3550   0.458   3.789   4.294
 1180SOL    HW2 3551   0.542   3.871   4.181
 1181SOL     OW 3552   0.297   3.759   3.895
 1181SOL    HW1 3553   0.346   3.843   3.874
 1181SOL    HW2 3554   0.359   3.694   3.940
 1182SOL     OW 3555   0.935   3.960   4.204
 1182SOL    HW1 3556   0.887   4.001   4.126
 1182SOL    HW2 3557   1.034   3.958   4.185
 1183SOL     OW 3558   1.032   4.273   3.740
 1183SOL    HW1 3559   0.991   4.355   3.701
 1183SOL    HW2 3560   1.096   4.299   3.813
 1184SOL     OW 3561   0.866   4.178   4.366
 1184SOL    HW1 3562   0.834   4.250   4.304
 1184SOL    HW2 3563   0.890   4.097   4.313
 1185SOL     OW 3564   0.527   3.980   4.052
 1185SOL    HW1 3565   0.554   3.921   3.977
 1185SOL    HW2 3566   0.527   4.075   4.021
 1186SOL     OW 3567   1.582   4.363   4.196
 1186SOL    HW1 3568   1.551   4.424   4.269
 1186SOL    HW2 3569   1.632   4.415   4.127
 1187SOL     OW 3570   1.209   4.249   3.999
 1187SOL    HW1 3571   1.222   4.165   4.053
 1187SOL    HW2 3572   1.180   4.323   4.059
 1188SOL     OW 3573   0.307   3.787   4.342
 1188SOL    HW1 3574   0.296   3.881   4.375
 1188SOL    HW2 3575   0.302   3.724   4.419
 1189SOL     OW 3576   1.622   4.091   4.098
 1189SOL    HW1 3577   1.624   4.015   4.162
 1189SOL    HW2 3578   1.574   4.168   4.138
 1190SOL     OW 3579   1.540   3.998   3.849
 1190SOL    HW1 3580   1.479   3.923   3.872
 1190SOL    HW2 3581   1.562   4.050   3.932
 1191SOL     OW 3582   0.815   4.296   4.049
 1191SOL    HW1 3583   0.822   4.207   4.003
 1191SOL    HW2 3584   0.721   4.330   4.041
 1192SOL     OW 3585   0.473   4.224   3.915
 1192SOL    HW1 3586   0.534   4.304   3.919
 1192SOL    HW2 3587   0.378   4.255   3.922
 1193SOL     OW 3588   1.726   3.859   4.247
 1193SOL    HW1 3589   1.799   3.842   4.180
 1193SOL    HW2 3590   1.695   3.772   4.285
 1194SOL     OW 3591   1.280   4.651   4.396
 1194SOL    HW1 3592   1.340   4.570   4.398
 1194SOL    HW2 3593   1.320   4.720   4.336
 1195SOL     OW 3594   1.841   3.899   4.687
 1195SOL    HW1 3595   1.880   3.814   4.651
 1195SOL    HW2 3596   1.743   3.901   4.668
 1196SOL     OW 3597   0.075   4.069   3.757
 1196SOL    HW1 3598  -0.017   4.041   3.728
 1196SOL    HW2 3599   0.106   4.146   3.701
 1197SOL     OW 3600   0.072   3.890   4.042
 1197SOL    HW1 3601   0.055   3.973   3.988
 1197SOL    HW2 3602   0.162   3.853   4.020
 1198SOL     OW 3603   1.225   4.049   4.173
 1198SOL    HW1 3604   1.290   3.975   4.162
 1198SOL    HW2 3605   1.245   4.099   4.257
 1199SOL     OW 3606   1.083   4.708   3.811
 1199SOL    HW1 3607   1.060   4.761   3.729
 1199SOL    HW2 3608   1.164   4.652   3.792
 1200SOL     OW 3609   0.428   4.148   4.244
 1200SOL    HW1 3610   0.458   4.076   4.182
 1200SOL    HW2 3611   0.389   4.108   4.327
 1201SOL     OW 3612   1.352   3.776   3.892
 1201SOL    HW1 3613   1.387   3.735   3.808
 1201SOL    HW2 3614   1.262   3.738   3.912
 1202SOL     OW 3615   1.300   4.177   4.415
 1202SOL    HW1 3616   1.241   4.257   4.419
 1202SOL    HW2 3617   1.315   4.142   4.508
 1203SOL     OW 3618   2.092   0.628   0.113
 1203SOL    HW1 3619   1.999   0.626   0.150
 1203SOL    HW2 3620   2.093   0.589   0.021
 1204SOL     OW 3621   2.087   0.275   0.996
 1204SOL    HW1 3622   2.122   0.258   1.088
 1204SOL    HW2 3623   1.999   0.230   0.984
 1205SOL     OW 3624   1.881   0.368   0.647
 1205SOL    HW1 3625   1.799   0.411   0.686
 1205SOL    HW2 3626   1.853   0.295   0.584
 1206SOL     OW 3627   2.431   1.275   1.165
 1206SOL    HW1 3628   2.338   1.268   1.128
 1206SOL    HW2 3629   2.442   1.364   1.209
 1207SOL     OW 3630   3.417   1.511   0.703
 1207SOL    HW1 3631   3.360   1.495   0.784
 1207SOL    HW2 3632   3.358   1.521   0.623
 1208SOL     OW 3633   2.997   0.703   0.717
 1208SOL    HW1 3634   3.054   0.781   0.692
 1208SOL    HW2 3635   2.937   0.729   0.793
 1209SOL     OW 3636   3.617   0.607   0.231
 1209SOL    HW1 3637   3.605   0.594   0.132
 1209SOL    HW2 3638   3.587   0.526   0.280
 1210SOL     OW 3639   2.630   1.144   1.023
 1210SOL    HW1 3640   2.552   1.161   1.083
 1210SOL    HW2 3641   2.664   1.231   0.987
 1211SOL     OW 3642   2.712   0.798   1.823
 1211SOL    HW1 3643   2.708   0.874   1.888
 1211SOL    HW2 3644   2.734   0.834   1.732
 1212SOL     OW 3645   2.547   1.012   0.665
 1212SOL    HW1 3646   2.616   0.996   0.735
 1212SOL    HW2 3647   2.474   1.069   0.703
 1213SOL     OW 3648   2.548   1.161   1.803
 1213SOL    HW1 3649   2.608   1.240   1.817
 1213SOL    HW2 3650   2.462   1.192   1.762
 1214SOL     OW 3651   2.197   1.435   1.061
 1214SOL    HW1 3652   2.119   1.404   1.008
 1214SOL    HW2 3653   2.255   1.493   1.004
 1215SOL     OW 3654   3.322   1.505   1.339
 1215SOL    HW1 3655   3.346   1.599   1.365
 1215SOL    HW2 3656   3.306   1.451   1.421
 1216SOL     OW 3657   2.300   0.392   1.499
 1216SOL    HW1 3658   2.382   0.336   1.508
 1216SOL    HW2 3659   2.219   0.334   1.503
 1217SOL     OW 3660   3.465   0.447   0.737
 1217SOL    HW1 3661   3.391   0.493   0.687
 1217SOL    HW2 3662   3.516   0.515   0.790
 1218SOL     OW 3663   2.093   1.713   0.483
 1218SOL    HW1 3664   2.127   1.790   0.537
 1218SOL    HW2 3665   2.137   1.713   0.393
 1219SOL     OW 3666   2.989   1.341   1.690
 1219SOL    HW1 3667   3.036   1.341   1.778
 1219SOL    HW2 3668   2.941   1.254   1.679
 1220SOL     OW 3669   2.092   1.434   0.538
 1220SOL    HW1 3670   2.066   1.530   0.538
 1220SOL    HW2 3671   2.021   1.380   0.583
 1221SOL     OW 3672   2.102   1.091   0.886
 1221SOL    HW1 3673   2.116   1.007   0.938
 1221SOL    HW2 3674   2.047   1.155   0.941
 1222SOL     OW 3675   2.482   1.786   1.439
 1222SOL    HW1 3676   2.390   1.769   1.474
 1222SOL    HW2 3677   2.510   1.878   1.465
 1223SOL     OW 3678   2.468   0.964   0.123
 1223SOL    HW1 3679   2.475   1.048   0.069
 1223SOL    HW2 3680   2.514   0.977   0.211
 1224SOL     OW 3681   3.456   0.114   1.480
 1224SOL    HW1 3682   3.438   0.181   1.408
 1224SOL    HW2 3683   3.453   0.160   1.569
 1225SOL     OW 3684   1.984   0.643   0.563
 1225SOL    HW1 3685   1.939   0.555   0.580
 1225SOL    HW2 3686   1.983   0.697   0.647
 1226SOL     OW 3687   3.704   1.767   0.359
 1226SOL    HW1 3688   3.758   1.738   0.439
 1226SOL    HW2 3689   3.734   1.857   0.330
 1227SOL     OW 3690   1.889   1.596   0.117
 1227SOL    HW1 3691   1.870   1.500   0.138
 1227SOL    HW2 3692   1.856   1.654   0.192
 1228SOL     OW 3693   3.551   0.922   0.612
 1228SOL    HW1 3694   3.646   0.893   0.620
 1228SOL    HW2 3695   3.543   0.987   0.537
 1229SOL     OW 3696   3.503   1.108   0.432
 1229SOL    HW1 3697   3.589   1.110   0.380
 1229SOL    HW2 3698   3.517   1.155   0.520
 1230SOL     OW 3699   1.975   0.737   1.597
 1230SOL    HW1 3700   2.063   0.724   1.642
 1230SOL    HW2 3701   1.962   0.834   1.575
 1231SOL     OW 3702   2.475   1.365   0.726
 1231SOL    HW1 3703   2.426   1.278   0.735
 1231SOL    HW2 3704   2.452   1.408   0.639
 1232SOL     OW 3705   3.155   1.228   1.423
 1232SOL    HW1 3706   3.192   1.155   1.365
 1232SOL    HW2 3707   3.207   1.233   1.508
 1233SOL     OW 3708   2.671   0.004   0.502
 1233SOL    HW1 3709   2.711   0.095   0.493
 1233SOL    HW2 3710   2.571   0.012   0.508
 1234SOL     OW 3711   2.059   0.976   1.264
 1234SOL    HW1 3712   2.148   0.931   1.250
 1234SOL    HW2 3713   1.986   0.911   1.245
 1235SOL     OW 3714   3.387   0.999   0.190
 1235SOL    HW1 3715   3.324   0.923   0.203
 1235SOL    HW2 3716   3.435   1.017   0.276
 1236SOL     OW 3717   3.049   1.792   1.616
 1236SOL    HW1 3718   3.073   1.852   1.540
 1236SOL    HW2 3719   3.056   1.697   1.586
 1237SOL     OW 3720   2.179   0.251   1.801
 1237SOL    HW1 3721   2.250   0.322   1.807
 1237SOL    HW2 3722   2.091   0.290   1.829
 1238SOL     OW 3723   3.328   1.417   0.953
 1238SOL    HW1 3724   3.269   1.423   1.033
 1238SOL    HW2 3725   3.313   1.329   0.907
 1239SOL     OW 3726   3.529   1.714   0.572
 1239SOL    HW1 3727   3.488   1.691   0.484
 1239SOL    HW2 3728   3.511   1.640   0.637
 1240SOL     OW 3729   2.460   0.729   0.270
 1240SOL    HW1 3730   2.484   0.798   0.202
 1240SOL    HW2 3731   2.382   0.762   0.324
 1241SOL     OW 3732   3.143   0.345   0.944
 1241SOL    HW1 3733   3.057   0.295   0.931
 1241SOL    HW2 3734   3.205   0.291   1.000
 1242SOL     OW 3735   3.438   1.662   0.307
 1242SOL    HW1 3736   3.527   1.708   0.310
 1242SOL    HW2 3737   3.417   1.638   0.212
 1243SOL     OW 3738   2.669   0.605   1.465
 1243SOL    HW1 3739   2.622   0.602   1.554
 1243SOL    HW2 3740   2.618   0.550   1.399
 1244SOL     OW 3741   3.256   0.469   1.674
 1244SOL    HW1 3742   3.236   0.512   1.762
 1244SOL    HW2 3743   3.334   0.407   1.683
 1245SOL     OW 3744   2.835   0.890   1.572
 1245SOL    HW1 3745   2.881   0.806   1.543
 1245SOL    HW2 3746   2.779   0.924   1.497
 1246SOL     OW 3747   2.853   0.410   1.242
 1246SOL    HW1 3748   2.776   0.444   1.296
 1246SOL    HW2 3749   2.819   0.359   1.163
 1247SOL     OW 3750   2.903   0.701   0.429
 1247SOL    HW1 3751   2.929   0.697   0.525
 1247SOL    HW2 3752   2.818   0.650   0.415
 1248SOL     OW 3753   1.938   0.811   0.789
 1248SOL    HW1 3754   2.037   0.799   0.798
 1248SOL    HW2 3755   1.914   0.906   0.810
 1249SOL     OW 3756   1.992   1.821   1.571
 1249SOL    HW1 3757   1.982   1.806   1.670
 1249SOL    HW2 3758   1.906   1.857   1.535
 1250SOL     OW 3759   2.727   0.348   0.195
 1250SOL    HW1 3760   2.786   0.411   0.146
 1250SOL    HW2 3761   2.746   0.254   0.166
 1251SOL     OW 3762   3.581   0.585   1.831
 1251SOL    HW1 3763   3.555   0.674   1.795
 1251SOL    HW2 3764   3.579   0.517   1.758
 1252SOL     OW 3765   3.224   1.144   0.545
 1252SOL    HW1 3766   3.307   1.115   0.497
 1252SOL    HW2 3767   3.175   1.211   0.489
 1253SOL     OW 3768   2.412   0.196   0.885
 1253SOL    HW1 3769   2.407   0.191   0.985
 1253SOL    HW2 3770   2.414   0.292   0.856
 1254SOL     OW 3771   2.870   1.456   0.477
 1254SOL    HW1 3772   2.824   1.528   0.425
 1254SOL    HW2 3773   2.866   1.476   0.575
 1255SOL     OW 3774   2.213   1.801   0.853
 1255SOL    HW1 3775   2.263   1.715   0.859
 1255SOL    HW2 3776   2.278   1.878   0.850
 1256SOL     OW 3777   3.657   1.066   0.873
 1256SOL    HW1 3778   3.595   1.051   0.797
 1256SOL    HW2 3779   3.605   1.077   0.958
 1257SOL     OW 3780   3.089   1.550   1.506
 1257SOL    HW1 3781   3.095   1.473   1.570
 1257SOL    HW2 3782   3.037   1.524   1.426
 1258SOL     OW 3783   2.183   0.943   0.242
 1258SOL    HW1 3784   2.265   0.982   0.200
 1258SOL    HW2 3785   2.156   0.861   0.193
 1259SOL     OW 3786   3.320   0.735   0.728
 1259SOL    HW1 3787   3.315   0.670   0.803
 1259SOL    HW2 3788   3.400   0.794   0.741
 1260SOL     OW 3789   2.323   1.266   1.727
 1260SOL    HW1 3790   2.273   1.267   1.641
 1260SOL    HW2 3791   2.260   1.248   1.803
 1261SOL     OW 3792   2.973   1.776   0.237
 1261SOL    HW1 3793   2.913   1.714   0.287
 1261SOL    HW2 3794   3.004   1.732   0.152
 1262SOL     OW 3795   2.064   0.285   1.498
 1262SOL    HW1 3796   1.984   0.345   1.485
 1262SOL    HW2 3797   2.054   0.236   1.584
 1263SOL     OW 3798   3.494   1.377   0.081
 1263SOL    HW1 3799   3.462   1.471   0.071
 1263SOL    HW2 3800   3.418   1.314   0.069
 1264SOL     OW 3801   2.326   1.743   0.323
 1264SOL    HW1 3802   2.359   1.782   0.409
 1264SOL    HW2 3803   2.402   1.736   0.258
 1265SOL     OW 3804   3.262   0.107   0.426
 1265SOL    HW1 3805   3.238   0.070   0.336
 1265SOL    HW2 3806   3.361   0.123   0.430
 1266SOL     OW 3807   2.111   1.785   1.241
 1266SOL    HW1 3808   2.168   1.720   1.291
 1266SOL    HW2 3809   2.095   1.752   1.148
 1267SOL     OW 3810   2.802   1.698   0.904
 1267SOL    HW1 3811   2.882   1.641   0.925
 1267SOL    HW2 3812   2.753   1.658   0.827
 1268SOL     OW 3813   2.244   0.700   0.480
 1268SOL    HW1 3814   2.289   0.610   0.477
 1268SOL    HW2 3815   2.150   0.689   0.513
 1269SOL     OW 3816   3.409   0.222   1.729
 1269SOL    HW1 3817   3.404   0.259   1.821
 1269SOL    HW2 3818   3.337   0.153   1.717
 1270SOL     OW 3819   2.476   0.122   0.117
 1270SOL    HW1 3820   2.574   0.100   0.124
 1270SOL    HW2 3821   2.445   0.105   0.024
 1271SOL     OW 3822   2.643   0.264   1.749
 1271SOL    HW1 3823   2.710   0.203   1.792
 1271SOL    HW2 3824   2.570   0.283   1.814
 1272SOL     OW 3825   2.750   1.514   1.195
 1272SOL    HW1 3826   2.727   1.489   1.101
 1272SOL    HW2 3827   2.811   1.445   1.234
 1273SOL     OW 3828   3.213   0.590   1.433
 1273SOL    HW1 3829   3.241   0.547   1.518
 1273SOL    HW2 3830   3.238   0.686   1.434
 1274SOL     OW 3831   2.665   1.402   0.924
 1274SOL    HW1 3832   2.755   1.416   0.882
 1274SOL    HW2 3833   2.594   1.404   0.853
 1275SOL     OW 3834   2.784   0.503   0.899
 1275SOL    HW1 3835   2.759   0.494   0.803
 1275SOL    HW2 3836   2.832   0.421   0.930
 1276SOL     OW 3837   2.401   0.064   0.512
 1276SOL    HW1 3838   2.320   0.065   0.570
 1276SOL    HW2 3839   2.404   0.147   0.457
 1277SOL     OW 3840   3.296   1.188   0.041
 1277SOL    HW1 3841   3.328   1.112   0.098
 1277SOL    HW2 3842   3.204   1.215   0.071
 1278SOL     OW 3843   2.159   0.035   0.171
 1278SOL    HW1 3844   2.208   0.119   0.150
 1278SOL    HW2 3845   2.221  -0.030   0.216
 1279SOL     OW 3846   2.797   0.236   0.480
 1279SOL    HW1 3847   2.749   0.277   0.402
 1279SOL    HW2 3848   2.896   0.234   0.461
 1280SOL     OW 3849   2.938   0.683   1.464
 1280SOL    HW1 3850   2.858   0.622   1.467
 1280SOL    HW2 3851   3.019   0.630   1.440
 1281SOL     OW 3852   3.089   1.570   0.793
 1281SOL    HW1 3853   3.110   1.644   0.728
 1281SOL    HW2 3854   3.157   1.570   0.866
 1282SOL     OW 3855   2.321   1.152   0.741
 1282SOL    HW1 3856   2.250   1.125   0.806
 1282SOL    HW2 3857   2.295   1.124   0.648
 1283SOL     OW 3858   3.133   1.797   0.591
 1283SOL    HW1 3859   3.177   1.861   0.527
 1283SOL    HW2 3860   3.083   1.849   0.661
 1284SOL     OW 3861   2.894   0.549   0.016
 1284SOL    HW1 3862   2.853   0.631  -0.023
 1284SOL    HW2 3863   2.958   0.575   0.089
 1285SOL     OW 3864   1.940   0.556   1.386
 1285SOL    HW1 3865   2.032   0.555   1.345
 1285SOL    HW2 3866   1.934   0.630   1.453
 1286SOL     OW 3867   2.423   0.222   1.147
 1286SOL    HW1 3868   2.461   0.138   1.184
 1286SOL    HW2 3869   2.335   0.241   1.191
 1287SOL     OW 3870   2.728   0.454   0.642
 1287SOL    HW1 3871   2.696   0.526   0.580
 1287SOL    HW2 3872   2.752   0.373   0.589
 1288SOL     OW 3873   2.879   0.039   0.753
 1288SOL    HW1 3874   2.807   0.044   0.684
 1288SOL    HW2 3875   2.855  -0.030   0.822
 1289SOL     OW 3876   3.291   1.173   0.867
 1289SOL    HW1 3877   3.236   1.089   0.860
 1289SOL    HW2 3878   3.317   1.202   0.775
 1290SOL     OW 3879   3.328   0.590   0.992
 1290SOL    HW1 3880   3.298   0.495   0.999
 1290SOL    HW2 3881   3.401   0.606   1.058
 1291SOL     OW 3882   3.719   0.833   0.377
 1291SOL    HW1 3883   3.761   0.769   0.441
 1291SOL    HW2 3884   3.681   0.782   0.299
 1292SOL     OW 3885   2.350   1.385   0.174
 1292SOL    HW1 3886   2.263   1.370   0.221
 1292SOL    HW2 3887   2.333   1.411   0.079
 1293SOL     OW 3888   3.526   1.280   0.657
 1293SOL    HW1 3889   3.625   1.288   0.671
 1293SOL    HW2 3890   3.481   1.364   0.688
 1294SOL     OW 3891   3.252   0.575   0.078
 1294SOL    HW1 3892   3.198   0.554   0.159
 1294SOL    HW2 3893   3.343   0.534   0.087
 1295SOL     OW 3894   2.389   0.256   0.328
 1295SOL    HW1 3895   2.416   0.197   0.253
 1295SOL    HW2 3896   2.389   0.351   0.297
 1296SOL     OW 3897   3.616   1.223   1.588
 1296SOL    HW1 3898   3.707   1.184   1.575
 1296SOL    HW2 3899   3.624   1.319   1.612
 1297SOL     OW 3900   2.926   1.347   1.340
 1297SOL    HW1 3901   2.846   1.324   1.395
 1297SOL    HW2 3902   3.009   1.321   1.389
 1298SOL     OW 3903   3.454   1.629   1.625
 1298SOL    HW1 3904   3.481   1.663   1.535
 1298SOL    HW2 3905   3.533   1.591   1.671
 1299SOL     OW 3906   2.973   1.195   1.100
 1299SOL    HW1 3907   2.933   1.239   1.181
 1299SOL    HW2 3908   2.932   1.232   1.017
 1300SOL     OW 3909   3.500   1.099   1.079
 1300SOL    HW1 3910   3.505   1.180   1.138
 1300SOL    HW2 3911   3.414   1.101   1.028
 1301SOL     OW 3912   2.777   0.089   1.402
 1301SOL    HW1 3913   2.802   0.069   1.307
 1301SOL    HW2 3914   2.849   0.145   1.444
 1302SOL     OW 3915   2.842   1.116   1.719
 1302SOL    HW1 3916   2.743   1.122   1.729
 1302SOL    HW2 3917   2.865   1.036   1.663
 1303SOL     OW 3918   2.567   1.050   0.368
 1303SOL    HW1 3919   2.553   1.057   0.467
 1303SOL    HW2 3920   2.651   0.999   0.350
 1304SOL     OW 3921   2.272   0.813   1.251
 1304SOL    HW1 3922   2.358   0.825   1.301
 1304SOL    HW2 3923   2.230   0.726   1.278
 1305SOL     OW 3924   3.136   0.386   1.262
 1305SOL    HW1 3925   3.157   0.460   1.326
 1305SOL    HW2 3926   3.047   0.403   1.219
 1306SOL     OW 3927   1.926   1.564   1.331
 1306SOL    HW1 3928   1.880   1.646   1.297
 1306SOL    HW2 3929   2.024   1.583   1.340
 1307SOL     OW 3930   2.229   1.100   0.501
 1307SOL    HW1 3931   2.222   1.183   0.445
 1307SOL    HW2 3932   2.233   1.020   0.441
 1308SOL     OW 3933   2.428   0.537   0.865
 1308SOL    HW1 3934   2.440   0.603   0.791
 1308SOL    HW2 3935   2.474   0.571   0.948
 1309SOL     OW 3936   3.114   1.348   0.388
 1309SOL    HW1 3937   3.164   1.425   0.428
 1309SOL    HW2 3938   3.019   1.350   0.420
 1310SOL     OW 3939   3.134   1.445   1.142
 1310SOL    HW1 3940   3.181   1.458   1.229
 1310SOL    HW2 3941   3.068   1.371   1.151
 1311SOL     OW 3942   3.444   0.639   0.472
 1311SOL    HW1 3943   3.413   0.700   0.545
 1311SOL    HW2 3944   3.494   0.691   0.403
 1312SOL     OW 3945   2.216   1.510   1.329
 1312SOL    HW1 3946   2.195   1.466   1.242
 1312SOL    HW2 3947   2.313   1.536   1.332
 1313SOL     OW 3948   2.264   0.751   1.598
 1313SOL    HW1 3949   2.332   0.806   1.551
 1313SOL    HW2 3950   2.304   0.663   1.625
 1314SOL     OW 3951   3.449   0.779   1.670
 1314SOL    HW1 3952   3.357   0.817   1.665
 1314SOL    HW2 3953   3.509   0.826   1.605
 1315SOL     OW 3954   2.875   0.105   1.770
 1315SOL    HW1 3955   2.881   0.190   1.718
 1315SOL    HW2 3956   2.907   0.029   1.713
 1316SOL     OW 3957   2.366   0.050   1.740
 1316SOL    HW1 3958   2.324  -0.007   1.670
 1316SOL    HW2 3959   2.300   0.119   1.772
 1317SOL     OW 3960   2.435   0.870   1.029
 1317SOL    HW1 3961   2.479   0.959   1.020
 1317SOL    HW2 3962   2.372   0.870   1.106
 1318SOL     OW 3963   3.222   0.862   1.045
 1318SOL    HW1 3964   3.147   0.862   0.979
 1318SOL    HW2 3965   3.259   0.770   1.054
 1319SOL     OW 3966   3.071   0.525   0.275
 1319SOL    HW1 3967   3.084   0.441   0.329
 1319SOL    HW2 3968   3.042   0.599   0.335
 1320SOL     OW 3969   2.169   0.213   1.231
 1320SOL    HW1 3970   2.146   0.250   1.321
 1320SOL    HW2 3971   2.139   0.118   1.225
 1321SOL     OW 3972   1.899   1.310   1.282
 1321SOL    HW1 3973   1.952   1.261   1.350
 1321SOL    HW2 3974   1.921   1.408   1.287
 1322SOL     OW 3975   2.594   0.634   1.064
 1322SOL    HW1 3976   2.653   0.608   0.988
 1322SOL    HW2 3977   2.566   0.730   1.053
 1323SOL     OW 3978   3.590   0.935   1.854
 1323SOL    HW1 3979   3.544   0.928   1.765
 1323SOL    HW2 3980   3.528   0.979   1.920
 1324SOL     OW 3981   2.169   0.063   0.618
 1324SOL    HW1 3982   2.158   0.157   0.651
 1324SOL    HW2 3983   2.164   0.000   0.695
 1325SOL     OW 3984   3.484   0.367   0.374
 1325SOL    HW1 3985   3.486   0.291   0.438
 1325SOL    HW2 3986   3.436   0.444   0.414
 1326SOL     OW 3987   2.885   0.766   0.966
 1326SOL    HW1 3988   2.900   0.787   1.062
 1326SOL    HW2 3989   2.855   0.671   0.957
 1327SOL     OW 3990   2.842   1.573   1.700
 1327SOL    HW1 3991   2.822   1.617   1.612
 1327SOL    HW2 3992   2.881   1.482   1.684
 1328SOL     OW 3993   3.721   1.518   1.605
 1328SOL    HW1 3994   3.735   1.545   1.510
 1328SOL    HW2 3995   3.804   1.540   1.658
 1329SOL     OW 3996   2.212   0.898   1.804
 1329SOL    HW1 3997   2.288   0.942   1.852
 1329SOL    HW2 3998   2.247   0.851   1.722
 1330SOL     OW 3999   3.402   0.274   0.125
 1330SOL    HW1 4000   3.341   0.199   0.148
 1330SOL    HW2 4001   3.424   0.326   0.208
 1331SOL     OW 4002   3.165   0.838   0.042
 1331SOL    HW1 4003   3.199   0.745   0.057
 1331SOL    HW2 4004   3.183   0.865  -0.053
 1332SOL     OW 4005   2.930   1.333   0.849
 1332SOL    HW1 4006   2.937   1.249   0.794
 1332SOL    HW2 4007   2.992   1.402   0.813
 1333SOL     OW 4008   2.181   0.810   0.949
 1333SOL    HW1 4009   2.274   0.846   0.954
 1333SOL    HW2 4010   2.175   0.725   1.001
 1334SOL     OW 4011   2.201   0.509   1.006
 1334SOL    HW1 4012   2.149   0.426   0.989
 1334SOL    HW2 4013   2.278   0.514   0.942
 1335SOL     OW 4014   3.000   0.380   1.678
 1335SOL    HW1 4015   2.955   0.443   1.742
 1335SOL    HW2 4016   3.093   0.411   1.661
 1336SOL     OW 4017   3.022   0.207   1.477
 1336SOL    HW1 4018   3.022   0.271   1.554
 1336SOL    HW2 4019   3.050   0.255   1.394
 1337SOL     OW 4020   1.870   1.326   0.200
 1337SOL    HW1 4021   1.777   1.347   0.169
 1337SOL    HW2 4022   1.880   1.227   0.213
 1338SOL     OW 4023   1.950   1.801   0.927
 1338SOL    HW1 4024   1.908   1.715   0.900
 1338SOL    HW2 4025   2.044   1.804   0.893
 1339SOL     OW 4026   2.366   1.568   0.910
 1339SOL    HW1 4027   2.432   1.642   0.919
 1339SOL    HW2 4028   2.410   1.489   0.868
 1340SOL     OW 4029   2.864   0.796   1.238
 1340SOL    HW1 4030   2.905   0.764   1.324
 1340SOL    HW2 4031   2.768   0.769   1.235
 1341SOL     OW 4032   1.902   0.544   1.114
 1341SOL    HW1 4033   1.987   0.511   1.073
 1341SOL    HW2 4034   1.915   0.559   1.212
 1342SOL     OW 4035   2.051   0.520   1.722
 1342SOL    HW1 4036   2.110   0.480   1.652
 1342SOL    HW2 4037   1.993   0.591   1.681
 1343SOL     OW 4038   3.231   0.950   1.660
 1343SOL    HW1 4039   3.270   1.039   1.680
 1343SOL    HW2 4040   3.241   0.930   1.563
 1344SOL     OW 4041   2.677   0.572   0.325
 1344SOL    HW1 4042   2.684   0.483   0.279
 1344SOL    HW2 4043   2.583   0.606   0.317
 1345SOL     OW 4044   3.519   0.604   1.206
 1345SOL    HW1 4045   3.481   0.535   1.268
 1345SOL    HW2 4046   3.601   0.568   1.162
 1346SOL     OW 4047   2.114   1.564   1.744
 1346SOL    HW1 4048   2.084   1.621   1.820
 1346SOL    HW2 4049   2.107   1.467   1.770
 1347SOL     OW 4050   2.533   0.464   1.269
 1347SOL    HW1 4051   2.499   0.375   1.239
 1347SOL    HW2 4052   2.559   0.518   1.189
 1348SOL     OW 4053   2.792   1.678   1.465
 1348SOL    HW1 4054   2.768   1.660   1.370
 1348SOL    HW2 4055   2.822   1.772   1.475
 1349SOL     OW 4056   2.335   0.500   0.191
 1349SOL    HW1 4057   2.396   0.580   0.195
 1349SOL    HW2 4058   2.240   0.531   0.198
 1350SOL     OW 4059   2.021   1.137   1.466
 1350SOL    HW1 4060   2.043   1.076   1.542
 1350SOL    HW2 4061   2.031   1.088   1.380
 1351SOL     OW 4062   3.209   1.059   1.234
 1351SOL    HW1 4063   3.233   0.996   1.160
 1351SOL    HW2 4064   3.119   1.099   1.216
 1352SOL     OW 4065   3.164   0.855   0.309
 1352SOL    HW1 4066   3.078   0.824   0.351
 1352SOL    HW2 4067   3.160   0.841   0.210
 1353SOL     OW 4068   3.621   1.747   1.154
 1353SOL    HW1 4069   3.682   1.777   1.081
 1353SOL    HW2 4070   3.583   1.658   1.132
 1354SOL     OW 4071   3.114   1.731   1.128
 1354SOL    HW1 4072   3.198   1.736   1.074
 1354SOL    HW2 4073   3.091   1.635   1.146
 1355SOL     OW 4074   1.945   1.258   1.022
 1355SOL    HW1 4075   1.940   1.257   1.122
 1355SOL    HW2 4076   1.862   1.217   0.984
 1356SOL     OW 4077   2.550   1.662   1.716
 1356SOL    HW1 4078   2.494   1.743   1.725
 1356SOL    HW2 4079   2.602   1.666   1.630
 1357SOL     OW 4080   2.765   0.086   0.133
 1357SOL    HW1 4081   2.816   0.087   0.047
 1357SOL    HW2 4082   2.821   0.044   0.204
 1358SOL     OW 4083   3.588   0.135   0.523
 1358SOL    HW1 4084   3.661   0.118   0.456
 1358SOL    HW2 4085   3.557   0.048   0.561
 1359SOL     OW 4086   3.250   1.573   0.477
 1359SOL    HW1 4087   3.317   1.585   0.403
 1359SOL    HW2 4088   3.210   1.662   0.500
 1360SOL     OW 4089   1.992   1.794   1.851
 1360SOL    HW1 4090   1.951   1.720   1.904
 1360SOL    HW2 4091   2.056   1.845   1.909
 1361SOL     OW 4092   3.142   0.927   0.672
 1361SOL    HW1 4093   3.202   0.846   0.674
 1361SOL    HW2 4094   3.182   0.996   0.612
 1362SOL     OW 4095   2.692   1.273   1.422
 1362SOL    HW1 4096   2.687   1.306   1.517
 1362SOL    HW2 4097   2.606   1.292   1.376
 1363SOL     OW 4098   2.534   1.616   0.154
 1363SOL    HW1 4099   2.543   1.626   0.055
 1363SOL    HW2 4100   2.494   1.527   0.175
 1364SOL     OW 4101   3.512   1.720   1.394
 1364SOL    HW1 4102   3.565   1.730   1.310
 1364SOL    HW2 4103   3.485   1.810   1.428
 1365SOL     OW 4104   3.703   0.175   0.963
 1365SOL    HW1 4105   3.742   0.090   0.927
 1365SOL    HW2 4106   3.605   0.177   0.944
 1366SOL     OW 4107   2.125   0.326   0.720
 1366SOL    HW1 4108   2.046   0.377   0.686
 1366SOL    HW2 4109   2.116   0.311   0.818
 1367SOL     OW 4110   3.056   1.612   0.031
 1367SOL    HW1 4111   3.062   1.519   0.068
 1367SOL    HW2 4112   2.997   1.612  -0.049
 1368SOL     OW 4113   2.684   1.002   1.372
 1368SOL    HW1 4114   2.724   1.001   1.280
 1368SOL    HW2 4115   2.694   1.094   1.412
 1369SOL     OW 4116   2.778   0.910   0.291
 1369SOL    HW1 4117   2.841   0.948   0.223
 1369SOL    HW2 4118   2.818   0.827   0.330
 1370SOL     OW 4119   3.366   1.607   0.044
 1370SOL    HW1 4120   3.274   1.644   0.051
 1370SOL    HW2 4121   3.404   1.627  -0.046
 1371SOL     OW 4122   2.234   1.288   1.490
 1371SOL    HW1 4123   2.221   1.381   1.456
 1371SOL    HW2 4124   2.150   1.236   1.477
 1372SOL     OW 4125   3.476   1.292   1.289
 1372SOL    HW1 4126   3.536   1.295   1.369
 1372SOL    HW2 4127   3.401   1.356   1.302
 1373SOL     OW 4128   2.901   1.098   0.696
 1373SOL    HW1 4129   2.831   1.051   0.750
 1373SOL    HW2 4130   2.960   1.030   0.653
 1374SOL     OW 4131   2.876   0.236   0.971
 1374SOL    HW1 4132   2.868   0.200   0.878
 1374SOL    HW2 4133   2.874   0.160   1.036
 1375SOL     OW 4134   2.452   1.487   0.491
 1375SOL    HW1 4135   2.494   1.429   0.421
 1375SOL    HW2 4136   2.408   1.566   0.447
 1376SOL     OW 4137   3.571   0.385   1.381
 1376SOL    HW1 4138   3.644   0.454   1.385
 1376SOL    HW2 4139   3.599   0.310   1.322
 1377SOL     OW 4140   2.117   1.348   0.290
 1377SOL    HW1 4141   2.021   1.349   0.263
 1377SOL    HW2 4142   2.129   1.401   0.374
 1378SOL     OW 4143   1.967   1.013   1.726
 1378SOL    HW1 4144   1.890   0.980   1.780
 1378SOL    HW2 4145   2.052   0.983   1.768
 1379SOL     OW 4146   2.534   0.203   1.489
 1379SOL    HW1 4147   2.624   0.187   1.449
 1379SOL    HW2 4148   2.542   0.208   1.588
 1380SOL     OW 4149   1.937   0.345   0.033
 1380SOL    HW1 4150   1.845   0.317   0.004
 1380SOL    HW2 4151   1.968   0.422  -0.023
 1381SOL     OW 4152   3.302   0.856   1.398
 1381SOL    HW1 4153   3.245   0.908   1.335
 1381SOL    HW2 4154   3.398   0.868   1.374
 1382SOL     OW 4155   3.045   1.335   0.119
 1382SOL    HW1 4156   2.946   1.324   0.121
 1382SOL    HW2 4157   3.079   1.350   0.212
 1383SOL     OW 4158   2.475   0.842   1.431
 1383SOL    HW1 4159   2.531   0.923   1.414
 1383SOL    HW2 4160   2.534   0.762   1.434
 1384SOL     OW 4161   3.355   1.767   0.959
 1384SOL    HW1 4162   3.388   1.831   0.890
 1384SOL    HW2 4163   3.421   1.761   1.034
 1385SOL     OW 4164   2.578   0.565   1.708
 1385SOL    HW1 4165   2.597   0.630   1.782
 1385SOL    HW2 4166   2.638   0.485   1.717
 1386SOL     OW 4167   3.312   1.220   1.633
 1386SOL    HW1 4168   3.303   1.210   1.732
 1386SOL    HW2 4169   3.408   1.213   1.607
 1387SOL     OW 4170   2.252   1.741   1.560
 1387SOL    HW1 4171   2.161   1.782   1.558
 1387SOL    HW2 4172   2.245   1.647   1.592
 1388SOL     OW 4173   3.536   0.883   1.254
 1388SOL    HW1 4174   3.509   0.794   1.217
 1388SOL    HW2 4175   3.537   0.951   1.181
 1389SOL     OW 4176   3.087   0.325   0.449
 1389SOL    HW1 4177   3.152   0.251   0.438
 1389SOL    HW2 4178   3.107   0.375   0.533
 1390SOL     OW 4179   2.456   0.745   0.652
 1390SOL    HW1 4180   2.506   0.830   0.633
 1390SOL    HW2 4181   2.368   0.747   0.604
 1391SOL     OW 4182   3.639   0.342   1.642
 1391SOL    HW1 4183   3.622   0.373   1.548
 1391SOL    HW2 4184   3.555   0.305   1.680
 1392SOL     OW 4185   3.592   0.934   1.517
 1392SOL    HW1 4186   3.630   1.025   1.532
 1392SOL    HW2 4187   3.584   0.917   1.418
 1393SOL     OW 4188   2.721   1.374   0.016
 1393SOL    HW1 4189   2.675   1.389   0.104
 1393SOL    HW2 4190   2.765   1.459  -0.014
 1394SOL     OW 4191   2.523   1.790   0.953
 1394SOL    HW1 4192   2.477   1.878   0.940
 1394SOL    HW2 4193   2.622   1.802   0.946
 1395SOL     OW 4194   2.721   0.956   0.861
 1395SOL    HW1 4195   2.775   0.887   0.909
 1395SOL    HW2 4196   2.689   1.025   0.927
 1396SOL     OW 4197   2.945   0.984   0.087
 1396SOL    HW1 4198   2.922   1.037   0.005
 1396SOL    HW2 4199   3.026   0.928   0.068
 1397SOL     OW 4200   3.723   1.569   0.851
 1397SOL    HW1 4201   3.652   1.557   0.781
 1397SOL    HW2 4202   3.724   1.490   0.911
 1398SOL     OW 4203   2.083   1.314   1.844
 1398SOL    HW1 4204   2.018   1.241   1.823
 1398SOL    HW2 4205   2.087   1.328   1.942
 1399SOL     OW 4206   1.941   1.240   0.653
 1399SOL    HW1 4207   1.940   1.193   0.741
 1399SOL    HW2 4208   2.023   1.212   0.602
 1400SOL     OW 4209   2.534   1.391   1.624
 1400SOL    HW1 4210   2.456   1.341   1.662
 1400SOL    HW2 4211   2.531   1.486   1.655
 1401SOL     OW 4212   3.686   0.192   1.227
 1401SOL    HW1 4213   3.682   0.102   1.271
 1401SOL    HW2 4214   3.689   0.181   1.128
 1402SOL     OW 4215   2.290   0.424   0.520
 1402SOL    HW1 4216   2.320   0.352   0.458
 1402SOL    HW2 4217   2.251   0.384   0.603
 1403SOL     OW 4218   3.567   1.487   1.104
 1403SOL    HW1 4219   3.474   1.462   1.077
 1403SOL    HW2 4220   3.593   1.437   1.186
 1404SOL     OW 4221   2.179   0.547   1.280
 1404SOL    HW1 4222   2.217   0.488   1.352
 1404SOL    HW2 4223   2.219   0.521   1.192
 1405SOL     OW 4224   2.674   1.586   0.687
 1405SOL    HW1 4225   2.706   1.596   0.593
 1405SOL    HW2 4226   2.595   1.524   0.689
 1406SOL     OW 4227   3.286   0.214   1.112
 1406SOL    HW1 4228   3.338   0.149   1.167
 1406SOL    HW2 4229   3.237   0.277   1.173
 1407SOL     OW 4230   2.863   0.034   1.154
 1407SOL    HW1 4231   2.800  -0.038   1.123
 1407SOL    HW2 4232   2.956  -0.002   1.154
 1408SOL     OW 4233   2.632   1.330   0.301
 1408SOL    HW1 4234   2.586   1.243   0.318
 1408SOL    HW2 4235   2.723   1.327   0.342
 1409SOL     OW 4236   2.480   1.567   1.284
 1409SOL    HW1 4237   2.475   1.649   1.341
 1409SOL    HW2 4238   2.569   1.564   1.239
 1410SOL     OW 4239   3.214   0.052   0.168
 1410SOL    HW1 4240   3.249   0.011   0.084
 1410SOL    HW2 4241   3.124   0.014   0.188
 1411SOL     OW 4242   3.162   0.453   0.691
 1411SOL    HW1 4243   3.103   0.533   0.695
 1411SOL    HW2 4244   3.177   0.418   0.784
 1412SOL     OW 4245   3.455   0.221   0.882
 1412SOL    HW1 4246   3.371   0.220   0.936
 1412SOL    HW2 4247   3.457   0.304   0.826
 1413SOL     OW 4248   1.901   1.077   0.300
 1413SOL    HW1 4249   2.000   1.066   0.291
 1413SOL    HW2 4250   1.861   0.991   0.332
 1414SOL     OW 4251   2.737   1.646   0.337
 1414SOL    HW1 4252   2.660   1.611   0.283
 1414SOL    HW2 4253   2.705   1.717   0.399
 1415SOL     OW 4254   2.092   0.628   1.975
 1415SOL    HW1 4255   1.999   0.626   2.012
 1415SOL    HW2 4256   2.093   0.589   1.883
 1416SOL     OW 4257   2.087   0.275   2.858
 1416SOL    HW1 4258   2.122   0.258   2.950
 1416SOL    HW2 4259   1.999   0.230   2.846
 1417SOL     OW 4260   1.881   0.368   2.509
 1417SOL    HW1 4261   1.799   0.411   2.548
 1417SOL    HW2 4262   1.853   0.295   2.446
 1418SOL     OW 4263   2.431   1.275   3.027
 1418SOL    HW1 4264   2.338   1.268   2.990
 1418SOL    HW2 4265   2.442   1.364   3.071
 1419SOL     OW 4266   3.417   1.511   2.565
 1419SOL    HW1 4267   3.360   1.495   2.646
 1419SOL    HW2 4268   3.358   1.521   2.485
 1420SOL     OW 4269   2.997   0.703   2.579
 1420SOL    HW1 4270   3.054   0.781   2.554
 1420SOL    HW2 4271   2.937   0.729   2.655
 1421SOL     OW 4272   3.617   0.607   2.093
 1421SOL    HW1 4273   3.605   0.594   1.994
 1421SOL    HW2 4274   3.587   0.526   2.142
 1422SOL     OW 4275   2.630   1.144   2.885
 1422SOL    HW1 4276   2.552   1.161   2.945
 1422SOL    HW2 4277   2.664   1.231   2.849
 1423SOL     OW 4278   2.712   0.798   3.685
 1423SOL    HW1 4279   2.708   0.874   3.750
 1423SOL    HW2 4280   2.734   0.834   3.594
 1424SOL     OW 4281   2.547   1.012   2.527
 1424SOL    HW1 4282   2.616   0.996   2.597
 1424SOL    HW2 4283   2.474   1.069   2.565
 1425SOL     OW 4284   2.548   1.161   3.665
 1425SOL    HW1 4285   2.608   1.240   3.679
 1425SOL    HW2 4286   2.462   1.192   3.624
 1426SOL     OW 4287   2.197   1.435   2.923
 1426SOL    HW1 4288   2.119   1.404   2.870
 1426SOL    HW2 4289   2.255   1.493   2.866
 1427SOL     OW 4290   3.322   1.505   3.201
 1427SOL    HW1 4291   3.346   1.599   3.227
 1427SOL    HW2 4292   3.306   1.451   3.283
 1428SOL     OW 4293   2.300   0.392   3.361
 1428SOL    HW1 4294   2.382   0.336   3.370
 1428SOL    HW2 4295   2.219   0.334   3.365
 1429SOL     OW 4296   3.465   0.447   2.599
 1429SOL    HW1 4297   3.391   0.493   2.549
 1429SOL    HW2 4298   3.516   0.515   2.652
 1430SOL     OW 4299   2.093   1.713   2.345
 1430SOL    HW1 4300   2.127   1.790   2.399
 1430SOL    HW2 4301   2.137   1.713   2.255
 1431SOL     OW 4302   2.989   1.341   3.552
 1431SOL    HW1 4303   3.036   1.341   3.640
 1431SOL    HW2 4304   2.941   1.254   3.541
 1432SOL     OW 4305   2.092   1.434   2.400
 1432SOL    HW1 4306   2.066   1.530   2.400
 1432SOL    HW2 4307   2.021   1.380   2.445
 1433SOL     OW 4308   2.102   1.091   2.748
 1433SOL    HW1 4309   2.116   1.007   2.800
 1433SOL    HW2 4310   2.047   1.155   2.803
 1434SOL     OW 4311   2.482   1.786   3.301
 1434SOL    HW1 4312   2.390   1.769   3.336
 1434SOL    HW2 4313   2.510   1.878   3.327
 1435SOL     OW 4314   2.468   0.964   1.985
 1435SOL    HW1 4315   2.475   1.048   1.931
 1435SOL    HW2 4316   2.514   0.977   2.073
 1436SOL     OW 4317   3.456   0.114   3.342
 1436SOL    HW1 4318   3.438   0.181   3.270
 1436SOL    HW2 4319   3.453   0.160   3.431
 1437SOL     OW 4320   1.984   0.643   2.425
 1437SOL    HW1 4321   1.939   0.555   2.442
 1437SOL    HW2 4322   1.983   0.697   2.509
 1438SOL     OW 4323   3.704   1.767   2.221
 1438SOL    HW1 4324   3.758   1.738   2.301
 1438SOL    HW2 4325   3.734   1.857   2.192
 1439SOL     OW 4326   1.889   1.596   1.979
 1439SOL    HW1 4327   1.870   1.500   2.000
 1439SOL    HW2 4328   1.856   1.654   2.054
 1440SOL     OW 4329   3.551   0.922   2.474
 1440SOL    HW1 4330   3.646   0.893   2.482
 1440SOL    HW2 4331   3.543   0.987   2.399
 1441SOL     OW 4332   3.503   1.108   2.294
 1441SOL    HW1 4333   3.589   1.110   2.242
 1441SOL    HW2 4334   3.517   1.155   2.382
 1442SOL     OW 4335   1.975   0.737   3.459
 1442SOL    HW1 4336   2.063   0.724   3.504
 1442SOL    HW2 4337   1.962   0.834   3.437
 1443SOL     OW 4338   2.475   1.365   2.588
 1443SOL    HW1 4339   2.426   1.278   2.597
 1443SOL    HW2 4340   2.452   1.408   2.501
 1444SOL     OW 4341   3.155   1.228   3.285
 1444SOL    HW1 4342   3.192   1.155   3.227
 1444SOL    HW2 4343   3.207   1.233   3.370
 1445SOL     OW 4344   2.671   0.004   2.364
 1445SOL    HW1 4345   2.711   0.095   2.355
 1445SOL    HW2 4346   2.571   0.012   2.370
 1446SOL     OW 4347   2.059   0.976   3.126
 1446SOL    HW1 4348   2.148   0.931   3.112
 1446SOL    HW2 4349   1.986   0.911   3.107
 1447SOL     OW 4350   3.387   0.999   2.052
 1447SOL    HW1 4351   3.324   0.923   2.065
 1447SOL    HW2 4352   3.435   1.017   2.138
 1448SOL     OW 4353   3.049   1.792   3.478
 1448SOL    HW1 4354   3.073   1.852   3.402
 1448SOL    HW2 4355   3.056   1.697   3.448
 1449SOL     OW 4356   2.179   0.251   3.663
 1449SOL    HW1 4357   2.250   0.322   3.669
 1449SOL    HW2 4358   2.091   0.290   3.691
 1450SOL     OW 4359   3.328   1.417   2.815
 1450SOL    HW1 4360   3.269   1.423   2.895
 1450SOL    HW2 4361   3.313   1.329   2.769
 1451SOL     OW 4362   3.529   1.714   2.434
 1451SOL    HW1 4363   3.488   1.691   2.346
 1451SOL    HW2 4364   3.511   1.640   2.499
 1452SOL     OW 4365   2.460   0.729   2.132
 1452SOL    HW1 4366   2.484   0.798   2.064
 1452SOL    HW2 4367   2.382   0.762   2.186
 1453SOL     OW 4368   3.143   0.345   2.806
 1453SOL    HW1 4369   3.057   0.295   2.793
 1453SOL    HW2 4370   3.205   0.291   2.862
 1454SOL     OW 4371   3.438   1.662   2.169
 1454SOL    HW1 4372   3.527   1.708   2.172
 1454SOL    HW2 4373   3.417   1.638   2.074
 1455SOL     OW 4374   2.669   0.605   3.327
 1455SOL    HW1 4375   2.622   0.602   3.416
 1455SOL    HW2 4376   2.618   0.550   3.261
 1456SOL     OW 4377   3.256   0.469   3.536
 1456SOL    HW1 4378   3.236   0.512   3.624
 1456SOL    HW2 4379   3.334   0.407   3.545
 1457SOL     OW 4380   2.835   0.890   3.434
 1457SOL    HW1 4381   2.881   0.806   3.405
 1457SOL    HW2 4382   2.779   0.924   3.359
 1458SOL     OW 4383   2.853   0.410   3.104
 1458SOL    HW1 4384   2.776   0.444   3.158
 1458SOL    HW2 4385   2.819   0.359   3.025
 1459SOL     OW 4386   2.903   0.701   2.291
 1459SOL    HW1 4387   2.929   0.697   2.387
 1459SOL    HW2 4388   2.818   0.650   2.277
 1460SOL     OW 4389   1.938   0.811   2.651
 1460SOL    HW1 4390   2.037   0.799   2.660
 1460SOL    HW2 4391   1.914   0.906   2.672
 1461SOL     OW 4392   1.992   1.821   3.433
 1461SOL    HW1 4393   1.982   1.806   3.532
 1461SOL    HW2 4394   1.906   1.857   3.397
 1462SOL     OW 4395   2.727   0.348   2.057
 1462SOL    HW1 4396   2.786   0.411   2.008
 1462SOL    HW2 4397   2.746   0.254   2.028
 1463SOL     OW 4398   3.581   0.585   3.693
 1463SOL    HW1 4399   3.555   0.674   3.657
 1463SOL    HW2 4400   3.579   0.517   3.620
 1464SOL     OW 4401   3.224   1.144   2.407
 1464SOL    HW1 4402   3.307   1.115   2.359
 1464SOL    HW2 4403   3.175   1.211   2.351
 1465SOL     OW 4404   2.412   0.196   2.747
 1465SOL    HW1 4405   2.407   0.191   2.847
 1465SOL    HW2 4406   2.414   0.292   2.718
 1466SOL     OW 4407   2.870   1.456   2.339
 1466SOL    HW1 4408   2.824   1.528   2.287
 1466SOL    HW2 4409   2.866   1.476   2.437
 1467SOL     OW 4410   2.213   1.801   2.715
 1467SOL    HW1 4411   2.263   1.715   2.721
 1467SOL    HW2 4412   2.278   1.878   2.712
 1468SOL     OW 4413   3.657   1.066   2.735
 1468SOL    HW1 4414   3.595   1.051   2.659
 1468SOL    HW2 4415   3.605   1.077   2.820
 1469SOL     OW 4416   3.089   1.550   3.368
 1469SOL    HW1 4417   3.095   1.473   3.432
 1469SOL    HW2 4418   3.037   1.524   3.288
 1470SOL     OW 4419   2.183   0.943   2.104
 1470SOL    HW1 4420   2.265   0.982   2.062
 1470SOL    HW2 4421   2.156   0.861   2.055
 1471SOL     OW 4422   3.320   0.735   2.590
 1471SOL    HW1 4423   3.315   0.670   2.665
 1471SOL    HW2 4424   3.400   0.794   2.603
 1472SOL     OW 4425   2.323   1.266   3.589
 1472SOL    HW1 4426   2.273   1.267   3.503
 1472SOL    HW2 4427   2.260   1.248   3.665
 1473SOL     OW 4428   2.973   1.776   2.099
 1473SOL    HW1 4429   2.913   1.714   2.149
 1473SOL    HW2 4430   3.004   1.732   2.014
 1474SOL     OW 4431   2.064   0.285   3.360
 1474SOL    HW1 4432   1.984   0.345   3.347
 1474SOL    HW2 4433   2.054   0.236   3.446
 1475SOL     OW 4434   3.494   1.377   1.943
 1475SOL    HW1 4435   3.462   1.471   1.933
 1475SOL    HW2 4436   3.418   1.314   1.931
 1476SOL     OW 4437   2.326   1.743   2.185
 1476SOL    HW1 4438   2.359   1.782   2.271
 1476SOL    HW2 4439   2.402   1.736   2.120
 1477SOL     OW 4440   3.262   0.107   2.288
 1477SOL    HW1 4441   3.238   0.070   2.198
 1477SOL    HW2 4442   3.361   0.123   2.292
 1478SOL     OW 4443   2.111   1.785   3.103
 1478SOL    HW1 4444   2.168   1.720   3.153
 1478SOL    HW2 4445   2.095   1.752   3.010
 1479SOL     OW 4446   2.802   1.698   2.766
 1479SOL    HW1 4447   2.882   1.641   2.787
 1479SOL    HW2 4448   2.753   1.658   2.689
 1480SOL     OW 4449   2.244   0.700   2.342
 1480SOL    HW1 4450   2.289   0.610   2.339
 1480SOL    HW2 4451   2.150   0.689   2.375
 1481SOL     OW 4452   3.409   0.222   3.591
 1481SOL    HW1 4453   3.404   0.259   3.683
 1481SOL    HW2 4454   3.337   0.153   3.579
 1482SOL     OW 4455   2.476   0.122   1.979
 1482SOL    HW1 4456   2.574   0.100   1.986
 1482SOL    HW2 4457   2.445   0.105   1.886
 1483SOL     OW 4458   2.643   0.264   3.611
 1483SOL    HW1 4459   2.710   0.203   3.654
 1483SOL    HW2 4460   2.570   0.283   3.676
 1484SOL     OW 4461   2.750   1.514   3.057
 1484SOL    HW1 4462   2.727   1.489   2.963
 1484SOL    HW2 4463   2.811   1.445   3.096
 1485SOL     OW 4464   3.213   0.590   3.295
 1485SOL    HW1 4465   3.241   0.547   3.380
 1485SOL    HW2 4466   3.238   0.686   3.296
 1486SOL     OW 4467   2.665   1.402   2.786
 1486SOL    HW1 4468   2.755   1.416   2.744
 1486SOL    HW2 4469   2.594   1.404   2.715
 1487SOL     OW 4470   2.784   0.503   2.761
 1487SOL    HW1 4471   2.759   0.494   2.665
 1487SOL    HW2 4472   2.832   0.421   2.792
 1488SOL     OW 4473   2.401   0.064   2.374
 1488SOL    HW1 4474   2.320   0.065   2.432
 1488SOL    HW2 4475   2.404   0.147   2.319
 1489SOL     OW 4476   3.296   1.188   1.903
 1489SOL    HW1 4477   3.328   1.112   1.960
 1489SOL    HW2 4478   3.204   1.215   1.933
 1490SOL     OW 4479   2.159   0.035   2.033
 1490SOL    HW1 4480   2.208   0.119   2.012
 1490SOL    HW2 4481   2.221  -0.030   2.078
 1491SOL     OW 4482   2.797   0.236   2.342
 1491SOL    HW1 4483   2.749   0.277   2.264
 1491SOL    HW2 4484   2.896   0.234   2.323
 1492SOL     OW 4485   2.938   0.683   3.326
 1492SOL    HW1 4486   2.858   0.622   3.329
 1492SOL    HW2 4487   3.019   0.630   3.302
 1493SOL     OW 4488   3.089   1.570   2.655
 1493SOL    HW1 4489   3.110   1.644   2.590
 1493SOL    HW2 4490   3.157   1.570   2.728
 1494SOL     OW 4491   2.321   1.152   2.603
 1494SOL    HW1 4492   2.250   1.125   2.668
 1494SOL    HW2 4493   2.295   1.124   2.510
 1495SOL     OW 4494   3.133   1.797   2.453
 1495SOL    HW1 4495   3.177   1.861   2.389
 1495SOL    HW2 4496   3.083   1.849   2.523
 1496SOL     OW 4497   2.894   0.549   1.878
 1496SOL    HW1 4498   2.853   0.631   1.839
 1496SOL    HW2 4499   2.958   0.575   1.951
 1497SOL     OW 4500   1.940   0.556   3.248
 1497SOL    HW1 4501   2.032   0.555   3.207
 1497SOL    HW2 4502   1.934   0.630   3.315
 1498SOL     OW 4503   2.423   0.222   3.009
 1498SOL    HW1 4504   2.461   0.138   3.046
 1498SOL    HW2 4505   2.335   0.241   3.053
 1499SOL     OW 4506   2.728   0.454   2.504
 1499SOL    HW1 4507   2.696   0.526   2.442
 1499SOL    HW2 4508   2.752   0.373   2.451
 1500SOL     OW 4509   2.879   0.039   2.615
 1500SOL    HW1 4510   2.807   0.044   2.546
 1500SOL    HW2 4511   2.855  -0.030   2.684
 1501SOL     OW 4512   3.291   1.173   2.729
 1501SOL    HW1 4513   3.236   1.089   2.722
 1501SOL    HW2 4514   3.317   1.202   2.637
 1502SOL     OW 4515   3.328   0.590   2.854
 1502SOL    HW1 4516   3.298   0.495   2.861
 1502SOL    HW2 4517   3.401   0.606   2.920
 1503SOL     OW 4518   3.719   0.833   2.239
 1503SOL    HW1 4519   3.761   0.769   2.303
 1503SOL    HW2 4520   3.681   0.782   2.161
 1504SOL     OW 4521   2.350   1.385   2.036
 1504SOL    HW1 4522   2.263   1.370   2.083
 1504SOL    HW2 4523   2.333   1.411   1.941
 1505SOL     OW 4524   3.526   1.280   2.519
 1505SOL    HW1 4525   3.625   1.288   2.533
 1505SOL    HW2 4526   3.481   1.364   2.550
 1506SOL     OW 4527   3.252   0.575   1.940
 1506SOL    HW1 4528   3.198   0.554   2.021
 1506SOL    HW2 4529   3.343   0.534   1.949
 1507SOL     OW 4530   2.389   0.256   2.190
 1507SOL    HW1 4531   2.416   0.197   2.115
 1507SOL    HW2 4532   2.389   0.351   2.159
 1508SOL     OW 4533   3.616   1.223   3.450
 1508SOL    HW1 4534   3.707   1.184   3.437
 1508SOL    HW2 4535   3.624   1.319   3.474
 1509SOL     OW 4536   2.926   1.347   3.202
 1509SOL    HW1 4537   2.846   1.324   3.257
 1509SOL    HW2 4538   3.009   1.321   3.251
 1510SOL     OW 4539   3.454   1.629   3.487
 1510SOL    HW1 4540   3.481   1.663   3.397
 1510SOL    HW2 4541   3.533   1.591   3.533
 1511SOL     OW 4542   2.973   1.195   2.962
 1511SOL    HW1 4543   2.933   1.239   3.043
 1511SOL    HW2 4544   2.932   1.232   2.879
 1512SOL     OW 4545   3.500   1.099   2.941
 1512SOL    HW1 4546   3.505   1.180   3.000
 1512SOL    HW2 4547   3.414   1.101   2.890
 1513SOL     OW 4548   2.777   0.089   3.264
 1513SOL    HW1 4549   2.802   0.069   3.169
 1513SOL    HW2 4550   2.849   0.145   3.306
 1514SOL     OW 4551   2.842   1.116   3.581
 1514SOL    HW1 4552   2.743   1.122   3.591
 1514SOL    HW2 4553   2.865   1.036   3.525
 1515SOL     OW 4554   2.567   1.050   2.230
 1515SOL    HW1 4555   2.553   1.057   2.329
 1515SOL    HW2 4556   2.651   0.999   2.212
 1516SOL     OW 4557   2.272   0.813   3.113
 1516SOL    HW1 4558   2.358   0.825   3.163
 1516SOL    HW2 4559   2.230   0.726   3.140
 1517SOL     OW 4560   3.136   0.386   3.124
 1517SOL    HW1 4561   3.157   0.460   3.188
 1517SOL    HW2 4562   3.047   0.403   3.081
 1518SOL     OW 4563   1.926   1.564   3.193
 1518SOL    HW1 4564   1.880   1.646   3.159
 1518SOL    HW2 4565   2.024   1.583   3.202
 1519SOL     OW 4566   2.229   1.100   2.363
 1519SOL    HW1 4567   2.222   1.183   2.307
 1519SOL    HW2 4568   2.233   1.020   2.303
 1520SOL     OW 4569   2.428   0.537   2.727
 1520SOL    HW1 4570   2.440   0.603   2.653
 1520SOL    HW2 4571   2.474   0.571   2.810
 1521SOL     OW 4572   3.114   1.348   2.250
 1521SOL    HW1 4573   3.164   1.425   2.290
 1521SOL    HW2 4574   3.019   1.350   2.282
 1522SOL     OW 4575   3.134   1.445   3.004
 1522SOL    HW1 4576   3.181   1.458   3.091
 1522SOL    HW2 4577   3.068   1.371   3.013
 1523SOL     OW 4578   3.444   0.639   2.334
 1523SOL    HW1 4579   3.413   0.700   2.407
 1523SOL    HW2 4580   3.494   0.691   2.265
 1524SOL     OW 4581   2.216   1.510   3.191
 1524SOL    HW1 4582   2.195   1.466   3.104
 1524SOL    HW2 4583   2.313   1.536   3.194
 1525SOL     OW 4584   2.264   0.751   3.460
 1525SOL    HW1 4585   2.332   0.806   3.413
 1525SOL    HW2 4586   2.304   0.663   3.487
 1526SOL     OW 4587   3.449   0.779   3.532
 1526SOL    HW1 4588   3.357   0.817   3.527
 1526SOL    HW2 4589   3.509   0.826   3.467
 1527SOL     OW 4590   2.875   0.105   3.632
 1527SOL    HW1 4591   2.881   0.190   3.580
 1527SOL    HW2 4592   2.907   0.029   3.575
 1528SOL     OW 4593   2.366   0.050   3.602
 1528SOL    HW1 4594   2.324  -0.007   3.532
 1528SOL    HW2 4595   2.300   0.119   3.634
 1529SOL     OW 4596   2.435   0.870   2.891
 1529SOL    HW1 4597   2.479   0.959   2.882
 1529SOL    HW2 4598   2.372   0.870   2.968
 1530SOL     OW 4599   3.222   0.862   2.907
 1530SOL    HW1 4600   3.147   0.862   2.841
 1530SOL    HW2 4601   3.259   0.770   2.916
 1531SOL     OW 4602   3.071   0.525   2.137
 1531SOL    HW1 4603   3.084   0.441   2.191
 1531SOL    HW2 4604   3.042   0.599   2.197
 1532SOL     OW 4605   2.169   0.213   3.093
 1532SOL    HW1 4606   2.146   0.250   3.183
 1532SOL    HW2 4607   2.139   0.118   3.087
 1533SOL     OW 4608   1.899   1.310   3.144
 1533SOL    HW1 4609   1.952   1.261   3.212
 1533SOL    HW2 4610   1.921   1.408   3.149
 1534SOL     OW 4611   2.594   0.634   2.926
 1534SOL    HW1 4612   2.653   0.608   2.850
 1534SOL    HW2 4613   2.566   0.730   2.915
 1535SOL     OW 4614   3.590   0.935   3.716
 1535SOL    HW1 4615   3.544   0.928   3.627
 1535SOL    HW2 4616   3.528   0.979   3.782
 1536SOL     OW 4617   2.169   0.063   2.480
 1536SOL    HW1 4618   2.158   0.157   2.513
 1536SOL    HW2 4619   2.164   0.000   2.557
 1537SOL     OW 4620   3.484   0.367   2.236
 1537SOL    HW1 4621   3.486   0.291   2.300
 1537SOL    HW2 4622   3.436   0.444   2.276
 1538SOL     OW 4623   2.885   0.766   2.828
 1538SOL    HW1 4624   2.900   0.787   2.924
 1538SOL    HW2 4625   2.855   0.671   2.819
 1539SOL     OW 4626   2.842   1.573   3.562
 1539SOL    HW1 4627   2.822   1.617   3.474
 1539SOL    HW2 4628   2.881   1.482   3.546
 1540SOL     OW 4629   3.721   1.518   3.467
 1540SOL    HW1 4630   3.735   1.545   3.372
 1540SOL    HW2 4631   3.804   1.540   3.520
 1541SOL     OW 4632   2.212   0.898   3.666
 1541SOL    HW1 4633   2.288   0.942   3.714
 1541SOL    HW2 4634   2.247   0.851   3.584
 1542SOL     OW 4635   3.402   0.274   1.987
 1542SOL    HW1 4636   3.341   0.199   2.010
 1542SOL    HW2 4637   3.424   0.326   2.070
 1543SOL     OW 4638   3.165   0.838   1.904
 1543SOL    HW1 4639   3.199   0.745   1.919
 1543SOL    HW2 4640   3.183   0.865   1.809
 1544SOL     OW 4641   2.930   1.333   2.711
 1544SOL    HW1 4642   2.937   1.249   2.656
 1544SOL    HW2 4643   2.992   1.402   2.675
 1545SOL     OW 4644   2.181   0.810   2.811
 1545SOL    HW1 4645   2.274   0.846   2.816
 1545SOL    HW2 4646   2.175   0.725   2.863
 1546SOL     OW 4647   2.201   0.509   2.868
 1546SOL    HW1 4648   2.149   0.426   2.851
 1546SOL    HW2 4649   2.278   0.514   2.804
 1547SOL     OW 4650   3.000   0.380   3.540
 1547SOL    HW1 4651   2.955   0.443   3.604
 1547SOL    HW2 4652   3.093   0.411   3.523
 1548SOL     OW 4653   3.022   0.207   3.339
 1548SOL    HW1 4654   3.022   0.271   3.416
 1548SOL    HW2 4655   3.050   0.255   3.256
 1549SOL     OW 4656   1.870   1.326   2.062
 1549SOL    HW1 4657   1.777   1.347   2.031
 1549SOL    HW2 4658   1.880   1.227   2.075
 1550SOL     OW 4659   1.950   1.801   2.789
 1550SOL    HW1 4660   1.908   1.715   2.762
 1550SOL    HW2 4661   2.044   1.804   2.755
 1551SOL     OW 4662   2.366   1.568   2.772
 1551SOL    HW1 4663   2.432   1.642   2.781
 1551SOL    HW2 4664   2.410   1.489   2.730
 1552SOL     OW 4665   2.864   0.796   3.100
 1552SOL    HW1 4666   2.905   0.764   3.186
 1552SOL    HW2 4667   2.768   0.769   3.097
 1553SOL     OW 4668   1.902   0.544   2.976
 1553SOL    HW1 4669   1.987   0.511   2.935
 1553SOL    HW2 4670   1.915   0.559   3.074
 1554SOL     OW 4671   2.051   0.520   3.584
 1554SOL    HW1 4672   2.110   0.480   3.514
 1554SOL    HW2 4673   1.993   0.591   3.543
 1555SOL     OW 4674   3.231   0.950   3.522
 1555SOL    HW1 4675   3.270   1.039   3.542
 1555SOL    HW2 4676   3.241   0.930   3.425
 1556SOL     OW 4677   2.677   0.572   2.187
 1556SOL    HW1 4678   2.684   0.483   2.141
 1556SOL    HW2 4679   2.583   0.606   2.179
 1557SOL     OW 4680   3.519   0.604   3.068
 1557SOL    HW1 4681   3.481   0.535   3.130
 1557SOL    HW2 4682   3.601   0.568   3.024
 1558SOL     OW 4683   2.114   1.564   3.606
 1558SOL    HW1 4684   2.084   1.621   3.682
 1558SOL    HW2 4685   2.107   1.467   3.632
 1559SOL     OW 4686   2.533   0.464   3.131
 1559SOL    HW1 4687   2.499   0.375   3.101
 1559SOL    HW2 4688   2.559   0.518   3.051
 1560SOL     OW 4689   2.792   1.678   3.327
 1560SOL    HW1 4690   2.768   1.660   3.232
 1560SOL    HW2 4691   2.822   1.772   3.337
 1561SOL     OW 4692   2.335   0.500   2.053
 1561SOL    HW1 4693   2.396   0.580   2.057
 1561SOL    HW2 4694   2.240   0.531   2.060
 1562SOL     OW 4695   2.021   1.137   3.328
 1562SOL    HW1 4696   2.043   1.076   3.404
 1562SOL    HW2 4697   2.031   1.088   3.242
 1563SOL     OW 4698   3.209   1.059   3.096
 1563SOL    HW1 4699   3.233   0.996   3.022
 1563SOL    HW2 4700   3.119   1.099   3.078
 1564SOL     OW 4701   3.164   0.855   2.171
 1564SOL    HW1 4702   3.078   0.824   2.213
 1564SOL    HW2 4703   3.160   0.841   2.072
 1565SOL     OW 4704   3.621   1.747   3.016
 1565SOL    HW1 4705   3.682   1.777   2.943
 1565SOL    HW2 4706   3.583   1.658   2.994
 1566SOL     OW 4707   3.114   1.731   2.990
 1566SOL    HW1 4708   3.198   1.736   2.936
 1566SOL    HW2 4709   3.091   1.635   3.008
 1567SOL     OW 4710   1.945   1.258   2.884
 1567SOL    HW1 4711   1.940   1.257   2.984
 1567SOL    HW2 4712   1.862   1.217   2.846
 1568SOL     OW 4713   2.550   1.662   3.578
 1568SOL    HW1 4714   2.494   1.743   3.587
 1568SOL    HW2 4715   2.602   1.666   3.492
 1569SOL     OW 4716   3.588   0.135   2.385
 1569SOL    HW1 4717   3.661   0.118   2.318
 1569SOL    HW2 4718   3.557   0.048   2.423
 1570SOL     OW 4719   3.250   1.573   2.339
 1570SOL    HW1 4720   3.317   1.585   2.265
 1570SOL    HW2 4721   3.210   1.662   2.362
 1571SOL     OW 4722   1.992   1.794   3.713
 1571SOL    HW1 4723   1.951   1.720   3.766
 1571SOL    HW2 4724   2.056   1.845   3.771
 1572SOL     OW 4725   3.142   0.927   2.534
 1572SOL    HW1 4726   3.202   0.846   2.536
 1572SOL    HW2 4727   3.182   0.996   2.474
 1573SOL     OW 4728   2.692   1.273   3.284
 1573SOL    HW1 4729   2.687   1.306   3.379
 1573SOL    HW2 4730   2.606   1.292   3.238
 1574SOL     OW 4731   2.534   1.616   2.016
 1574SOL    HW1 4732   2.543   1.626   1.917
 1574SOL    HW2 4733   2.494   1.527   2.037
 1575SOL     OW 4734   3.512   1.720   3.256
 1575SOL    HW1 4735   3.565   1.730   3.172
 1575SOL    HW2 4736   3.485   1.810   3.290
 1576SOL     OW 4737   3.703   0.175   2.825
 1576SOL    HW1 4738   3.742   0.090   2.789
 1576SOL    HW2 4739   3.605   0.177   2.806
 1577SOL     OW 4740   2.125   0.326   2.582
 1577SOL    HW1 4741   2.046   0.377   2.548
 1577SOL    HW2 4742   2.116   0.311   2.680
 1578SOL     OW 4743   3.056   1.612   1.893
 1578SOL    HW1 4744   3.062   1.519   1.930
 1578SOL    HW2 4745   2.997   1.612   1.813
 1579SOL     OW 4746   2.684   1.002   3.234
 1579SOL    HW1 4747   2.724   1.001   3.142
 1579SOL    HW2 4748   2.694   1.094   3.274
 1580SOL     OW 4749   2.778   0.910   2.153
 1580SOL    HW1 4750   2.841   0.948   2.085
 1580SOL    HW2 4751   2.818   0.827   2.192
 1581SOL     OW 4752   3.366   1.607   1.906
 1581SOL    HW1 4753   3.274   1.644   1.913
 1581SOL    HW2 4754   3.404   1.627   1.816
 1582SOL     OW 4755   2.234   1.288   3.352
 1582SOL    HW1 4756   2.221   1.381   3.318
 1582SOL    HW2 4757   2.150   1.236   3.339
 1583SOL     OW 4758   3.476   1.292   3.151
 1583SOL    HW1 4759   3.536   1.295   3.231
 1583SOL    HW2 4760   3.401   1.356   3.164
 1584SOL     OW 4761   2.901   1.098   2.558
 1584SOL    HW1 4762   2.831   1.051   2.612
 1584SOL    HW2 4763   2.960   1.030   2.515
 1585SOL     OW 4764   2.876   0.236   2.833
 1585SOL    HW1 4765   2.868   0.200   2.740
 1585SOL    HW2 4766   2.874   0.160   2.898
 1586SOL     OW 4767   2.452   1.487   2.353
 1586SOL    HW1 4768   2.494   1.429   2.283
 1586SOL    HW2 4769   2.408   1.566   2.309
 1587SOL     OW 4770   3.571   0.385   3.243
 1587SOL    HW1 4771   3.644   0.454   3.247
 1587SOL    HW2 4772   3.599   0.310   3.184
 1588SOL     OW 4773   2.117   1.348   2.152
 1588SOL    HW1 4774   2.021   1.349   2.125
 1588SOL    HW2 4775   2.129   1.401   2.236
 1589SOL     OW 4776   1.967   1.013   3.588
 1589SOL    HW1 4777   1.890   0.980   3.642
 1589SOL    HW2 4778   2.052   0.983   3.630
 1590SOL     OW 4779   2.534   0.203   3.351
 1590SOL    HW1 4780   2.624   0.187   3.311
 1590SOL    HW2 4781   2.542   0.208   3.450
 1591SOL     OW 4782   1.937   0.345   1.895
 1591SOL    HW1 4783   1.845   0.317   1.866
 1591SOL    HW2 4784   1.968   0.422   1.839
 1592SOL     OW 4785   3.302   0.856   3.260
 1592SOL    HW1 4786   3.245   0.908   3.197
 1592SOL    HW2 4787   3.398   0.868   3.236
 1593SOL     OW 4788   1.934   0.166   2.180
 1593SOL    HW1 4789   1.917   0.249   2.126
 1593SOL    HW2 4790   2.024   0.129   2.158
 1594SOL     OW 4791   3.045   1.335   1.981
 1594SOL    HW1 4792   2.946   1.324   1.983
 1594SOL    HW2 4793   3.079   1.350   2.074
 1595SOL     OW 4794   2.475   0.842   3.293
 1595SOL    HW1 4795   2.531   0.923   3.276
 1595SOL    HW2 4796   2.534   0.762   3.296
 1596SOL     OW 4797   3.355   1.767   2.821
 1596SOL    HW1 4798   3.388   1.831   2.752
 1596SOL    HW2 4799   3.421   1.761   2.896
 1597SOL     OW 4800   2.578   0.565   3.570
 1597SOL    HW1 4801   2.597   0.630   3.644
 1597SOL    HW2 4802   2.638   0.485   3.579
 1598SOL     OW 4803   3.312   1.220   3.495
 1598SOL    HW1 4804   3.303   1.210   3.594
 1598SOL    HW2 4805   3.408   1.213   3.469
 1599SOL     OW 4806   2.252   1.741   3.422
 1599SOL    HW1 4807   2.161   1.782   3.420
 1599SOL    HW2 4808   2.245   1.647   3.454
 1600SOL     OW 4809   3.536   0.883   3.116
 1600SOL    HW1 4810   3.509   0.794   3.079
 1600SOL    HW2 4811   3.537   0.951   3.043
 1601SOL     OW 4812   3.087   0.325   2.311
 1601SOL    HW1 4813   3.152   0.251   2.300
 1601SOL    HW2 4814   3.107   0.375   2.395
 1602SOL     OW 4815   2.456   0.745   2.514
 1602SOL    HW1 4816   2.506   0.830   2.495
 1602SOL    HW2 4817   2.368   0.747   2.466
 1603SOL     OW 4818   3.639   0.342   3.504
 1603SOL    HW1 4819   3.622   0.373   3.410
 1603SOL    HW2 4820   3.555   0.305   3.542
 1604SOL     OW 4821   3.592   0.934   3.379
 1604SOL    HW1 4822   3.630   1.025   3.394
 1604SOL    HW2 4823   3.584   0.917   3.280
 1605SOL     OW 4824   2.721   1.374   1.878
 1605SOL    HW1 4825   2.675   1.389   1.966
 1605SOL    HW2 4826   2.765   1.459   1.848
 1606SOL     OW 4827   2.523   1.790   2.815
 1606SOL    HW1 4828   2.477   1.878   2.802
 1606SOL    HW2 4829   2.622   1.802   2.808
 1607SOL     OW 4830   2.721   0.956   2.723
 1607SOL    HW1 4831   2.775   0.887   2.771
 1607SOL    HW2 4832   2.689   1.025   2.789
 1608SOL     OW 4833   2.945   0.984   1.949
 1608SOL    HW1 4834   2.922   1.037   1.867
 1608SOL    HW2 4835   3.026   0.928   1.930
 1609SOL     OW 4836   3.723   1.569   2.713
 1609SOL    HW1 4837   3.652   1.557   2.643
 1609SOL    HW2 4838   3.724   1.490   2.773
 1610SOL     OW 4839   2.083   1.314   3.706
 1610SOL    HW1 4840   2.018   1.241   3.685
 1610SOL    HW2 4841   2.087   1.328   3.804
 1611SOL     OW 4842   1.941   1.240   2.515
 1611SOL    HW1 4843   1.940   1.193   2.603
 1611SOL    HW2 4844   2.023   1.212   2.464
 1612SOL     OW 4845   2.534   1.391   3.486
 1612SOL    HW1 4846   2.456   1.341   3.524
 1612SOL    HW2 4847   2.531   1.486   3.517
 1613SOL     OW 4848   3.686   0.192   3.089
 1613SOL    HW1 4849   3.682   0.102   3.133
 1613SOL    HW2 4850   3.689   0.181   2.990
 1614SOL     OW 4851   2.290   0.424   2.382
 1614SOL    HW1 4852   2.320   0.352   2.320
 1614SOL    HW2 4853   2.251   0.384   2.465
 1615SOL     OW 4854   3.567   1.487   2.966
 1615SOL    HW1 4855   3.474   1.462   2.939
 1615SOL    HW2 4856   3.593   1.437   3.048
 1616SOL     OW 4857   2.179   0.547   3.142
 1616SOL    HW1 4858   2.217   0.488   3.214
 1616SOL    HW2 4859   2.219   0.521   3.054
 1617SOL     OW 4860   2.674   1.586   2.549
 1617SOL    HW1 4861   2.706   1.596   2.455
 1617SOL    HW2 4862   2.595   1.524   2.551
 1618SOL     OW 4863   3.286   0.214   2.974
 1618SOL    HW1 4864   3.338   0.149   3.029
 1618SOL    HW2 4865   3.237   0.277   3.035
 1619SOL     OW 4866   2.863   0.034   3.016
 1619SOL    HW1 4867   2.800  -0.038   2.985
 1619SOL    HW2 4868   2.956  -0.002   3.016
 1620SOL     OW 4869   2.632   1.330   2.163
 1620SOL    HW1 4870   2.586   1.243   2.180
 1620SOL    HW2 4871   2.723   1.327   2.204
 1621SOL     OW 4872   2.480   1.567   3.146
 1621SOL    HW1 4873   2.475   1.649   3.203
 1621SOL    HW2 4874   2.569   1.564   3.101
 1622SOL     OW 4875   3.214   0.052   2.030
 1622SOL    HW1 4876   3.249   0.011   1.946
 1622SOL    HW2 4877   3.124   0.014   2.050
 1623SOL     OW 4878   3.162   0.453   2.553
 1623SOL    HW1 4879   3.103   0.533   2.557
 1623SOL    HW2 4880   3.177   0.418   2.646
 1624SOL     OW 4881   3.455   0.221   2.744
 1624SOL    HW1 4882   3.371   0.220   2.798
 1624SOL    HW2 4883   3.457   0.304   2.688
 1625SOL     OW 4884   1.901   1.077   2.162
 1625SOL    HW1 4885   2.000   1.066   2.153
 1625SOL    HW2 4886   1.861   0.991   2.194
 1626SOL     OW 4887   2.737   1.646   2.199
 1626SOL    HW1 4888   2.660   1.611   2.145
 1626SOL    HW2 4889   2.705   1.717   2.261
 1627SOL     OW 4890   2.092   0.628   3.837
 1627SOL    HW1 4891   1.999   0.626   3.874
 1627SOL    HW2 4892   2.093   0.589   3.745
 1628SOL     OW 4893   3.617   0.607   3.955
 1628SOL    HW1 4894   3.605   0.594   3.856
 1628SOL    HW2 4895   3.587   0.526   4.004
 1629SOL     OW 4896   2.093   1.713   4.207
 1629SOL    HW1 4897   2.127   1.790   4.261
 1629SOL    HW2 4898   2.137   1.713   4.117
 1630SOL     OW 4899   2.092   1.434   4.262
 1630SOL    HW1 4900   2.066   1.530   4.262
 1630SOL    HW2 4901   2.021   1.380   4.307
 1631SOL     OW 4902   2.468   0.964   3.847
 1631SOL    HW1 4903   2.475   1.048   3.793
 1631SOL    HW2 4904   2.514   0.977   3.935
 1632SOL     OW 4905   1.984   0.643   4.287
 1632SOL    HW1 4906   1.939   0.555   4.304
 1632SOL    HW2 4907   1.983   0.697   4.371
 1633SOL     OW 4908   3.704   1.767   4.083
 1633SOL    HW1 4909   3.758   1.738   4.163
 1633SOL    HW2 4910   3.734   1.857   4.054
 1634SOL     OW 4911   1.889   1.596   3.841
 1634SOL    HW1 4912   1.870   1.500   3.862
 1634SOL    HW2 4913   1.856   1.654   3.916
 1635SOL     OW 4914   3.551   0.922   4.336
 1635SOL    HW1 4915   3.646   0.893   4.344
 1635SOL    HW2 4916   3.543   0.987   4.261
 1636SOL     OW 4917   3.503   1.108   4.156
 1636SOL    HW1 4918   3.589   1.110   4.104
 1636SOL    HW2 4919   3.517   1.155   4.244
 1637SOL     OW 4920   2.475   1.365   4.450
 1637SOL    HW1 4921   2.426   1.278   4.459
 1637SOL    HW2 4922   2.452   1.408   4.363
 1638SOL     OW 4923   2.671   0.004   4.226
 1638SOL    HW1 4924   2.711   0.095   4.217
 1638SOL    HW2 4925   2.571   0.012   4.232
 1639SOL     OW 4926   3.387   0.999   3.914
 1639SOL    HW1 4927   3.324   0.923   3.927
 1639SOL    HW2 4928   3.435   1.017   4.000
 1640SOL     OW 4929   3.328   1.417   4.677
 1640SOL    HW1 4930   3.269   1.423   4.757
 1640SOL    HW2 4931   3.313   1.329   4.631
 1641SOL     OW 4932   2.460   0.729   3.994
 1641SOL    HW1 4933   2.484   0.798   3.926
 1641SOL    HW2 4934   2.382   0.762   4.048
 1642SOL     OW 4935   3.438   1.662   4.031
 1642SOL    HW1 4936   3.527   1.708   4.034
 1642SOL    HW2 4937   3.417   1.638   3.936
 1643SOL     OW 4938   2.903   0.701   4.153
 1643SOL    HW1 4939   2.929   0.697   4.249
 1643SOL    HW2 4940   2.818   0.650   4.139
 1644SOL     OW 4941   1.938   0.811   4.513
 1644SOL    HW1 4942   2.037   0.799   4.522
 1644SOL    HW2 4943   1.914   0.906   4.534
 1645SOL     OW 4944   2.727   0.348   3.919
 1645SOL    HW1 4945   2.786   0.411   3.870
 1645SOL    HW2 4946   2.746   0.254   3.890
 1646SOL     OW 4947   3.224   1.144   4.269
 1646SOL    HW1 4948   3.307   1.115   4.221
 1646SOL    HW2 4949   3.175   1.211   4.213
 1647SOL     OW 4950   2.870   1.456   4.201
 1647SOL    HW1 4951   2.824   1.528   4.149
 1647SOL    HW2 4952   2.866   1.476   4.299
 1648SOL     OW 4953   2.213   1.801   4.577
 1648SOL    HW1 4954   2.263   1.715   4.583
 1648SOL    HW2 4955   2.278   1.878   4.574
 1649SOL     OW 4956   3.657   1.066   4.597
 1649SOL    HW1 4957   3.595   1.051   4.521
 1649SOL    HW2 4958   3.605   1.077   4.682
 1650SOL     OW 4959   2.183   0.943   3.966
 1650SOL    HW1 4960   2.265   0.982   3.924
 1650SOL    HW2 4961   2.156   0.861   3.917
 1651SOL     OW 4962   2.973   1.776   3.961
 1651SOL    HW1 4963   2.913   1.714   4.011
 1651SOL    HW2 4964   3.004   1.732   3.876
 1652SOL     OW 4965   3.494   1.377   3.805
 1652SOL    HW1 4966   3.462   1.471   3.795
 1652SOL    HW2 4967   3.418   1.314   3.793
 1653SOL     OW 4968   2.326   1.743   4.047
 1653SOL    HW1 4969   2.359   1.782   4.133
 1653SOL    HW2 4970   2.402   1.736   3.982
 1654SOL     OW 4971   3.262   0.107   4.150
 1654SOL    HW1 4972   3.238   0.070   4.060
 1654SOL    HW2 4973   3.361   0.123   4.154
 1655SOL     OW 4974   2.244   0.700   4.204
 1655SOL    HW1 4975   2.289   0.610   4.201
 1655SOL    HW2 4976   2.150   0.689   4.237
 1656SOL     OW 4977   2.476   0.122   3.841
 1656SOL    HW1 4978   2.574   0.100   3.848
 1656SOL    HW2 4979   2.445   0.105   3.748
 1657SOL     OW 4980   2.401   0.064   4.236
 1657SOL    HW1 4981   2.320   0.065   4.294
 1657SOL    HW2 4982   2.404   0.147   4.181
 1658SOL     OW 4983   3.296   1.188   3.765
 1658SOL    HW1 4984   3.328   1.112   3.822
 1658SOL    HW2 4985   3.204   1.215   3.795
 1659SOL     OW 4986   2.159   0.035   3.895
 1659SOL    HW1 4987   2.208   0.119   3.874
 1659SOL    HW2 4988   2.221  -0.030   3.940
 1660SOL     OW 4989   2.797   0.236   4.204
 1660SOL    HW1 4990   2.749   0.277   4.126
 1660SOL    HW2 4991   2.896   0.234   4.185
 1661SOL     OW 4992   2.321   1.152   4.465
 1661SOL    HW1 4993   2.250   1.125   4.530
 1661SOL    HW2 4994   2.295   1.124   4.372
 1662SOL     OW 4995   3.133   1.797   4.315
 1662SOL    HW1 4996   3.177   1.861   4.251
 1662SOL    HW2 4997   3.083   1.849   4.385
 1663SOL     OW 4998   2.894   0.549   3.740
 1663SOL    HW1 4999   2.853   0.631   3.701
 1663SOL    HW2 5000   2.958   0.575   3.813
 1664SOL     OW 5001   2.728   0.454   4.366
 1664SOL    HW1 5002   2.696   0.526   4.304
 1664SOL    HW2 5003   2.752   0.373   4.313
 1665SOL     OW 5004   3.719   0.833   4.101
 1665SOL    HW1 5005   3.761   0.769   4.165
 1665SOL    HW2 5006   3.681   0.782   4.023
 1666SOL     OW 5007   2.350   1.385   3.898
 1666SOL    HW1 5008   2.263   1.370   3.945
 1666SOL    HW2 5009   2.333   1.411   3.803
 1667SOL     OW 5010   3.252   0.575   3.802
 1667SOL    HW1 5011   3.198   0.554   3.883
 1667SOL    HW2 5012   3.343   0.534   3.811
 1668SOL     OW 5013   2.389   0.256   4.052
 1668SOL    HW1 5014   2.416   0.197   3.977
 1668SOL    HW2 5015   2.389   0.351   4.021
 1669SOL     OW 5016   2.567   1.050   4.092
 1669SOL    HW1 5017   2.553   1.057   4.191
 1669SOL    HW2 5018   2.651   0.999   4.074
 1670SOL     OW 5019   2.229   1.100   4.225
 1670SOL    HW1 5020   2.222   1.183   4.169
 1670SOL    HW2 5021   2.233   1.020   4.165
 1671SOL     OW 5022   3.114   1.348   4.112
 1671SOL    HW1 5023   3.164   1.425   4.152
 1671SOL    HW2 5024   3.019   1.350   4.144
 1672SOL     OW 5025   3.444   0.639   4.196
 1672SOL    HW1 5026   3.413   0.700   4.269
 1672SOL    HW2 5027   3.494   0.691   4.127
 1673SOL     OW 5028   3.071   0.525   3.999
 1673SOL    HW1 5029   3.084   0.441   4.053
 1673SOL    HW2 5030   3.042   0.599   4.059
 1674SOL     OW 5031   2.169   0.063   4.342
 1674SOL    HW1 5032   2.158   0.157   4.375
 1674SOL    HW2 5033   2.164   0.000   4.419
 1675SOL     OW 5034   3.484   0.367   4.098
 1675SOL    HW1 5035   3.486   0.291   4.162
 1675SOL    HW2 5036   3.436   0.444   4.138
 1676SOL     OW 5037   3.402   0.274   3.849
 1676SOL    HW1 5038   3.341   0.199   3.872
 1676SOL    HW2 5039   3.424   0.326   3.932
 1677SOL     OW 5040   3.165   0.838   3.766
 1677SOL    HW1 5041   3.199   0.745   3.781
 1677SOL    HW2 5042   3.183   0.865   3.671
 1678SOL     OW 5043   1.870   1.326   3.924
 1678SOL    HW1 5044   1.777   1.347   3.893
 1678SOL    HW2 5045   1.880   1.227   3.937
 1679SOL     OW 5046   2.677   0.572   4.049
 1679SOL    HW1 5047   2.684   0.483   4.003
 1679SOL    HW2 5048   2.583   0.606   4.041
 1680SOL     OW 5049   2.335   0.500   3.915
 1680SOL    HW1 5050   2.396   0.580   3.919
 1680SOL    HW2 5051   2.240   0.531   3.922
 1681SOL     OW 5052   3.164   0.855   4.033
 1681SOL    HW1 5053   3.078   0.824   4.075
 1681SOL    HW2 5054   3.160   0.841   3.934
 1682SOL     OW 5055   3.588   0.135   4.247
 1682SOL    HW1 5056   3.661   0.118   4.180
 1682SOL    HW2 5057   3.557   0.048   4.285
 1683SOL     OW 5058   3.250   1.573   4.201
 1683SOL    HW1 5059   3.317   1.585   4.127
 1683SOL    HW2 5060   3.210   1.662   4.224
 1684SOL     OW 5061   2.534   1.616   3.878
 1684SOL    HW1 5062   2.543   1.626   3.779
 1684SOL    HW2 5063   2.494   1.527   3.899
 1685SOL     OW 5064   3.703   0.175   4.687
 1685SOL    HW1 5065   3.742   0.090   4.651
 1685SOL    HW2 5066   3.605   0.177   4.668
 1686SOL     OW 5067   3.056   1.612   3.755
 1686SOL    HW1 5068   3.062   1.519   3.792
 1686SOL    HW2 5069   2.997   1.612   3.675
 1687SOL     OW 5070   2.778   0.910   4.015
 1687SOL    HW1 5071   2.841   0.948   3.947
 1687SOL    HW2 5072   2.818   0.827   4.054
 1688SOL     OW 5073   3.366   1.607   3.768
 1688SOL    HW1 5074   3.274   1.644   3.775
 1688SOL    HW2 5075   3.404   1.627   3.678
 1689SOL     OW 5076   2.452   1.487   4.215
 1689SOL    HW1 5077   2.494   1.429   4.145
 1689SOL    HW2 5078   2.408   1.566   4.171
 1690SOL     OW 5079   2.117   1.348   4.014
 1690SOL    HW1 5080   2.021   1.349   3.987
 1690SOL    HW2 5081   2.129   1.401   4.098
 1691SOL     OW 5082   1.937   0.345   3.757
 1691SOL    HW1 5083   1.845   0.317   3.728
 1691SOL    HW2 5084   1.968   0.422   3.701
 1692SOL     OW 5085   1.934   0.166   4.042
 1692SOL    HW1 5086   1.917   0.249   3.988
 1692SOL    HW2 5087   2.024   0.129   4.020
 1693SOL     OW 5088   3.045   1.335   3.843
 1693SOL    HW1 5089   2.946   1.324   3.845
 1693SOL    HW2 5090   3.079   1.350   3.936
 1694SOL     OW 5091   3.087   0.325   4.173
 1694SOL    HW1 5092   3.152   0.251   4.162
 1694SOL    HW2 5093   3.107   0.375   4.257
 1695SOL     OW 5094   2.456   0.745   4.376
 1695SOL    HW1 5095   2.506   0.830   4.357
 1695SOL    HW2 5096   2.368   0.747   4.328
 1696SOL     OW 5097   2.721   1.374   3.740
 1696SOL    HW1 5098   2.675   1.389   3.828
 1696SOL    HW2 5099   2.765   1.459   3.710
 1697SOL     OW 5100   2.945   0.984   3.811
 1697SOL    HW1 5101   2.922   1.037   3.729
 1697SOL    HW2 5102   3.026   0.928   3.792
 1698SOL     OW 5103   1.941   1.240   4.377
 1698SOL    HW1 5104   1.940   1.193   4.465
 1698SOL    HW2 5105   2.023   1.212   4.326
 1699SOL     OW 5106   2.290   0.424   4.244
 1699SOL    HW1 5107   2.320   0.352   4.182
 1699SOL    HW2 5108   2.251   0.384   4.327
 1700SOL     OW 5109   2.674   1.586   4.411
 1700SOL    HW1 5110   2.706   1.596   4.317
 1700SOL    HW2 5111   2.595   1.524   4.413
 1701SOL     OW 5112   2.632   1.330   4.025
 1701SOL    HW1 5113   2.586   1.243   4.042
 1701SOL    HW2 5114   2.723   1.327   4.066
 1702SOL     OW 5115   3.214   0.052   3.892
 1702SOL    HW1 5116   3.249   0.011   3.808
 1702SOL    HW2 5117   3.124   0.014   3.912
 1703SOL     OW 5118   3.162   0.453   4.415
 1703SOL    HW1 5119   3.103   0.533   4.419
 1703SOL    HW2 5120   3.177   0.418   4.508
 1704SOL     OW 5121   1.901   1.077   4.024
 1704SOL    HW1 5122   2.000   1.066   4.015
 1704SOL    HW2 5123   1.861   0.991   4.056
 1705SOL     OW 5124   2.737   1.646   4.061
 1705SOL    HW1 5125   2.660   1.611   4.007
 1705SOL    HW2 5126   2.705   1.717   4.123
 1706SOL     OW 5127   2.092   2.490   0.113
 1706SOL    HW1 5128   1.999   2.488   0.150
 1706SOL    HW2 5129   2.093   2.451   0.021
 1707SOL     OW 5130   2.087   2.137   0.996
 1707SOL    HW1 5131   2.122   2.120   1.088
 1707SOL    HW2 5132   1.999   2.092   0.984
 1708SOL     OW 5133   1.881   2.230   0.647
 1708SOL    HW1 5134   1.799   2.273   0.686
 1708SOL    HW2 5135   1.853   2.157   0.584
 1709SOL     OW 5136   2.431   3.137   1.165
 1709SOL    HW1 5137   2.338   3.130   1.128
 1709SOL    HW2 5138   2.442   3.226   1.209
 1710SOL     OW 5139   3.417   3.373   0.703
 1710SOL    HW1 5140   3.360   3.357   0.784
 1710SOL    HW2 5141   3.358   3.383   0.623
 1711SOL     OW 5142   2.997   2.565   0.717
 1711SOL    HW1 5143   3.054   2.643   0.692
 1711SOL    HW2 5144   2.937   2.591   0.793
 1712SOL     OW 5145   3.617   2.469   0.231
 1712SOL    HW1 5146   3.605   2.456   0.132
 1712SOL    HW2 5147   3.587   2.388   0.280
 1713SOL     OW 5148   2.630   3.006   1.023
 1713SOL    HW1 5149   2.552   3.023   1.083
 1713SOL    HW2 5150   2.664   3.093   0.987
 1714SOL     OW 5151   2.712   2.660   1.823
 1714SOL    HW1 5152   2.708   2.736   1.888
 1714SOL    HW2 5153   2.734   2.696   1.732
 1715SOL     OW 5154   2.547   2.874   0.665
 1715SOL    HW1 5155   2.616   2.858   0.735
 1715SOL    HW2 5156   2.474   2.931   0.703
 1716SOL     OW 5157   2.548   3.023   1.803
 1716SOL    HW1 5158   2.608   3.102   1.817
 1716SOL    HW2 5159   2.462   3.054   1.762
 1717SOL     OW 5160   2.197   3.297   1.061
 1717SOL    HW1 5161   2.119   3.266   1.008
 1717SOL    HW2 5162   2.255   3.355   1.004
 1718SOL     OW 5163   3.322   3.367   1.339
 1718SOL    HW1 5164   3.346   3.461   1.365
 1718SOL    HW2 5165   3.306   3.313   1.421
 1719SOL     OW 5166   2.300   2.254   1.499
 1719SOL    HW1 5167   2.382   2.198   1.508
 1719SOL    HW2 5168   2.219   2.196   1.503
 1720SOL     OW 5169   3.465   2.309   0.737
 1720SOL    HW1 5170   3.391   2.355   0.687
 1720SOL    HW2 5171   3.516   2.377   0.790
 1721SOL     OW 5172   2.093   3.575   0.483
 1721SOL    HW1 5173   2.127   3.652   0.537
 1721SOL    HW2 5174   2.137   3.575   0.393
 1722SOL     OW 5175   2.989   3.203   1.690
 1722SOL    HW1 5176   3.036   3.203   1.778
 1722SOL    HW2 5177   2.941   3.116   1.679
 1723SOL     OW 5178   2.092   3.296   0.538
 1723SOL    HW1 5179   2.066   3.392   0.538
 1723SOL    HW2 5180   2.021   3.242   0.583
 1724SOL     OW 5181   2.102   2.953   0.886
 1724SOL    HW1 5182   2.116   2.869   0.938
 1724SOL    HW2 5183   2.047   3.017   0.941
 1725SOL     OW 5184   2.482   3.648   1.439
 1725SOL    HW1 5185   2.390   3.631   1.474
 1725SOL    HW2 5186   2.510   3.740   1.465
 1726SOL     OW 5187   2.468   2.826   0.123
 1726SOL    HW1 5188   2.475   2.910   0.069
 1726SOL    HW2 5189   2.514   2.839   0.211
 1727SOL     OW 5190   3.456   1.976   1.480
 1727SOL    HW1 5191   3.438   2.043   1.408
 1727SOL    HW2 5192   3.453   2.022   1.569
 1728SOL     OW 5193   1.984   2.505   0.563
 1728SOL    HW1 5194   1.939   2.417   0.580
 1728SOL    HW2 5195   1.983   2.559   0.647
 1729SOL     OW 5196   3.704   3.629   0.359
 1729SOL    HW1 5197   3.758   3.600   0.439
 1729SOL    HW2 5198   3.734   3.719   0.330
 1730SOL     OW 5199   1.889   3.458   0.117
 1730SOL    HW1 5200   1.870   3.362   0.138
 1730SOL    HW2 5201   1.856   3.516   0.192
 1731SOL     OW 5202   3.551   2.784   0.612
 1731SOL    HW1 5203   3.646   2.755   0.620
 1731SOL    HW2 5204   3.543   2.849   0.537
 1732SOL     OW 5205   3.503   2.970   0.432
 1732SOL    HW1 5206   3.589   2.972   0.380
 1732SOL    HW2 5207   3.517   3.017   0.520
 1733SOL     OW 5208   1.975   2.599   1.597
 1733SOL    HW1 5209   2.063   2.586   1.642
 1733SOL    HW2 5210   1.962   2.696   1.575
 1734SOL     OW 5211   2.475   3.227   0.726
 1734SOL    HW1 5212   2.426   3.140   0.735
 1734SOL    HW2 5213   2.452   3.270   0.639
 1735SOL     OW 5214   3.155   3.090   1.423
 1735SOL    HW1 5215   3.192   3.017   1.365
 1735SOL    HW2 5216   3.207   3.095   1.508
 1736SOL     OW 5217   2.671   1.866   0.502
 1736SOL    HW1 5218   2.711   1.957   0.493
 1736SOL    HW2 5219   2.571   1.874   0.508
 1737SOL     OW 5220   2.059   2.838   1.264
 1737SOL    HW1 5221   2.148   2.793   1.250
 1737SOL    HW2 5222   1.986   2.773   1.245
 1738SOL     OW 5223   3.387   2.861   0.190
 1738SOL    HW1 5224   3.324   2.785   0.203
 1738SOL    HW2 5225   3.435   2.879   0.276
 1739SOL     OW 5226   3.049   3.654   1.616
 1739SOL    HW1 5227   3.073   3.714   1.540
 1739SOL    HW2 5228   3.056   3.559   1.586
 1740SOL     OW 5229   2.179   2.113   1.801
 1740SOL    HW1 5230   2.250   2.184   1.807
 1740SOL    HW2 5231   2.091   2.152   1.829
 1741SOL     OW 5232   3.328   3.279   0.953
 1741SOL    HW1 5233   3.269   3.285   1.033
 1741SOL    HW2 5234   3.313   3.191   0.907
 1742SOL     OW 5235   3.529   3.576   0.572
 1742SOL    HW1 5236   3.488   3.553   0.484
 1742SOL    HW2 5237   3.511   3.502   0.637
 1743SOL     OW 5238   2.460   2.591   0.270
 1743SOL    HW1 5239   2.484   2.660   0.202
 1743SOL    HW2 5240   2.382   2.624   0.324
 1744SOL     OW 5241   3.143   2.207   0.944
 1744SOL    HW1 5242   3.057   2.157   0.931
 1744SOL    HW2 5243   3.205   2.153   1.000
 1745SOL     OW 5244   3.438   3.524   0.307
 1745SOL    HW1 5245   3.527   3.570   0.310
 1745SOL    HW2 5246   3.417   3.500   0.212
 1746SOL     OW 5247   2.669   2.467   1.465
 1746SOL    HW1 5248   2.622   2.464   1.554
 1746SOL    HW2 5249   2.618   2.412   1.399
 1747SOL     OW 5250   3.256   2.331   1.674
 1747SOL    HW1 5251   3.236   2.374   1.762
 1747SOL    HW2 5252   3.334   2.269   1.683
 1748SOL     OW 5253   2.835   2.752   1.572
 1748SOL    HW1 5254   2.881   2.668   1.543
 1748SOL    HW2 5255   2.779   2.786   1.497
 1749SOL     OW 5256   2.853   2.272   1.242
 1749SOL    HW1 5257   2.776   2.306   1.296
 1749SOL    HW2 5258   2.819   2.221   1.163
 1750SOL     OW 5259   2.903   2.563   0.429
 1750SOL    HW1 5260   2.929   2.559   0.525
 1750SOL    HW2 5261   2.818   2.512   0.415
 1751SOL     OW 5262   1.938   2.673   0.789
 1751SOL    HW1 5263   2.037   2.661   0.798
 1751SOL    HW2 5264   1.914   2.768   0.810
 1752SOL     OW 5265   1.992   3.683   1.571
 1752SOL    HW1 5266   1.982   3.668   1.670
 1752SOL    HW2 5267   1.906   3.719   1.535
 1753SOL     OW 5268   2.727   2.210   0.195
 1753SOL    HW1 5269   2.786   2.273   0.146
 1753SOL    HW2 5270   2.746   2.116   0.166
 1754SOL     OW 5271   3.581   2.447   1.831
 1754SOL    HW1 5272   3.555   2.536   1.795
 1754SOL    HW2 5273   3.579   2.379   1.758
 1755SOL     OW 5274   3.224   3.006   0.545
 1755SOL    HW1 5275   3.307   2.977   0.497
 1755SOL    HW2 5276   3.175   3.073   0.489
 1756SOL     OW 5277   2.412   2.058   0.885
 1756SOL    HW1 5278   2.407   2.053   0.985
 1756SOL    HW2 5279   2.414   2.154   0.856
 1757SOL     OW 5280   2.870   3.318   0.477
 1757SOL    HW1 5281   2.824   3.390   0.425
 1757SOL    HW2 5282   2.866   3.338   0.575
 1758SOL     OW 5283   2.213   3.663   0.853
 1758SOL    HW1 5284   2.263   3.577   0.859
 1758SOL    HW2 5285   2.278   3.740   0.850
 1759SOL     OW 5286   3.657   2.928   0.873
 1759SOL    HW1 5287   3.595   2.913   0.797
 1759SOL    HW2 5288   3.605   2.939   0.958
 1760SOL     OW 5289   3.089   3.412   1.506
 1760SOL    HW1 5290   3.095   3.335   1.570
 1760SOL    HW2 5291   3.037   3.386   1.426
 1761SOL     OW 5292   2.183   2.805   0.242
 1761SOL    HW1 5293   2.265   2.844   0.200
 1761SOL    HW2 5294   2.156   2.723   0.193
 1762SOL     OW 5295   3.320   2.597   0.728
 1762SOL    HW1 5296   3.315   2.532   0.803
 1762SOL    HW2 5297   3.400   2.656   0.741
 1763SOL     OW 5298   2.323   3.128   1.727
 1763SOL    HW1 5299   2.273   3.129   1.641
 1763SOL    HW2 5300   2.260   3.110   1.803
 1764SOL     OW 5301   2.973   3.638   0.237
 1764SOL    HW1 5302   2.913   3.576   0.287
 1764SOL    HW2 5303   3.004   3.594   0.152
 1765SOL     OW 5304   2.064   2.147   1.498
 1765SOL    HW1 5305   1.984   2.207   1.485
 1765SOL    HW2 5306   2.054   2.098   1.584
 1766SOL     OW 5307   3.494   3.239   0.081
 1766SOL    HW1 5308   3.462   3.333   0.071
 1766SOL    HW2 5309   3.418   3.176   0.069
 1767SOL     OW 5310   2.326   3.605   0.323
 1767SOL    HW1 5311   2.359   3.644   0.409
 1767SOL    HW2 5312   2.402   3.598   0.258
 1768SOL     OW 5313   3.262   1.969   0.426
 1768SOL    HW1 5314   3.238   1.932   0.336
 1768SOL    HW2 5315   3.361   1.985   0.430
 1769SOL     OW 5316   2.111   3.647   1.241
 1769SOL    HW1 5317   2.168   3.582   1.291
 1769SOL    HW2 5318   2.095   3.614   1.148
 1770SOL     OW 5319   2.802   3.560   0.904
 1770SOL    HW1 5320   2.882   3.503   0.925
 1770SOL    HW2 5321   2.753   3.520   0.827
 1771SOL     OW 5322   2.244   2.562   0.480
 1771SOL    HW1 5323   2.289   2.472   0.477
 1771SOL    HW2 5324   2.150   2.551   0.513
 1772SOL     OW 5325   3.409   2.084   1.729
 1772SOL    HW1 5326   3.404   2.121   1.821
 1772SOL    HW2 5327   3.337   2.015   1.717
 1773SOL     OW 5328   2.476   1.984   0.117
 1773SOL    HW1 5329   2.574   1.962   0.124
 1773SOL    HW2 5330   2.445   1.967   0.024
 1774SOL     OW 5331   2.643   2.126   1.749
 1774SOL    HW1 5332   2.710   2.065   1.792
 1774SOL    HW2 5333   2.570   2.145   1.814
 1775SOL     OW 5334   2.750   3.376   1.195
 1775SOL    HW1 5335   2.727   3.351   1.101
 1775SOL    HW2 5336   2.811   3.307   1.234
 1776SOL     OW 5337   3.213   2.452   1.433
 1776SOL    HW1 5338   3.241   2.409   1.518
 1776SOL    HW2 5339   3.238   2.548   1.434
 1777SOL     OW 5340   2.665   3.264   0.924
 1777SOL    HW1 5341   2.755   3.278   0.882
 1777SOL    HW2 5342   2.594   3.266   0.853
 1778SOL     OW 5343   2.784   2.365   0.899
 1778SOL    HW1 5344   2.759   2.356   0.803
 1778SOL    HW2 5345   2.832   2.283   0.930
 1779SOL     OW 5346   2.401   1.926   0.512
 1779SOL    HW1 5347   2.320   1.927   0.570
 1779SOL    HW2 5348   2.404   2.009   0.457
 1780SOL     OW 5349   3.296   3.050   0.041
 1780SOL    HW1 5350   3.328   2.974   0.098
 1780SOL    HW2 5351   3.204   3.077   0.071
 1781SOL     OW 5352   2.797   2.098   0.480
 1781SOL    HW1 5353   2.749   2.139   0.402
 1781SOL    HW2 5354   2.896   2.096   0.461
 1782SOL     OW 5355   2.938   2.545   1.464
 1782SOL    HW1 5356   2.858   2.484   1.467
 1782SOL    HW2 5357   3.019   2.492   1.440
 1783SOL     OW 5358   3.089   3.432   0.793
 1783SOL    HW1 5359   3.110   3.506   0.728
 1783SOL    HW2 5360   3.157   3.432   0.866
 1784SOL     OW 5361   2.321   3.014   0.741
 1784SOL    HW1 5362   2.250   2.987   0.806
 1784SOL    HW2 5363   2.295   2.986   0.648
 1785SOL     OW 5364   3.133   3.659   0.591
 1785SOL    HW1 5365   3.177   3.723   0.527
 1785SOL    HW2 5366   3.083   3.711   0.661
 1786SOL     OW 5367   2.894   2.411   0.016
 1786SOL    HW1 5368   2.853   2.493  -0.023
 1786SOL    HW2 5369   2.958   2.437   0.089
 1787SOL     OW 5370   1.940   2.418   1.386
 1787SOL    HW1 5371   2.032   2.417   1.345
 1787SOL    HW2 5372   1.934   2.492   1.453
 1788SOL     OW 5373   2.423   2.084   1.147
 1788SOL    HW1 5374   2.461   2.000   1.184
 1788SOL    HW2 5375   2.335   2.103   1.191
 1789SOL     OW 5376   2.728   2.316   0.642
 1789SOL    HW1 5377   2.696   2.388   0.580
 1789SOL    HW2 5378   2.752   2.235   0.589
 1790SOL     OW 5379   2.879   1.901   0.753
 1790SOL    HW1 5380   2.807   1.906   0.684
 1790SOL    HW2 5381   2.855   1.832   0.822
 1791SOL     OW 5382   3.291   3.035   0.867
 1791SOL    HW1 5383   3.236   2.951   0.860
 1791SOL    HW2 5384   3.317   3.064   0.775
 1792SOL     OW 5385   3.328   2.452   0.992
 1792SOL    HW1 5386   3.298   2.357   0.999
 1792SOL    HW2 5387   3.401   2.468   1.058
 1793SOL     OW 5388   3.719   2.695   0.377
 1793SOL    HW1 5389   3.761   2.631   0.441
 1793SOL    HW2 5390   3.681   2.644   0.299
 1794SOL     OW 5391   2.350   3.247   0.174
 1794SOL    HW1 5392   2.263   3.232   0.221
 1794SOL    HW2 5393   2.333   3.273   0.079
 1795SOL     OW 5394   3.526   3.142   0.657
 1795SOL    HW1 5395   3.625   3.150   0.671
 1795SOL    HW2 5396   3.481   3.226   0.688
 1796SOL     OW 5397   3.252   2.437   0.078
 1796SOL    HW1 5398   3.198   2.416   0.159
 1796SOL    HW2 5399   3.343   2.396   0.087
 1797SOL     OW 5400   2.389   2.118   0.328
 1797SOL    HW1 5401   2.416   2.059   0.253
 1797SOL    HW2 5402   2.389   2.213   0.297
 1798SOL     OW 5403   3.616   3.085   1.588
 1798SOL    HW1 5404   3.707   3.046   1.575
 1798SOL    HW2 5405   3.624   3.181   1.612
 1799SOL     OW 5406   2.926   3.209   1.340
 1799SOL    HW1 5407   2.846   3.186   1.395
 1799SOL    HW2 5408   3.009   3.183   1.389
 1800SOL     OW 5409   3.454   3.491   1.625
 1800SOL    HW1 5410   3.481   3.525   1.535
 1800SOL    HW2 5411   3.533   3.453   1.671
 1801SOL     OW 5412   2.973   3.057   1.100
 1801SOL    HW1 5413   2.933   3.101   1.181
 1801SOL    HW2 5414   2.932   3.094   1.017
 1802SOL     OW 5415   3.500   2.961   1.079
 1802SOL    HW1 5416   3.505   3.042   1.138
 1802SOL    HW2 5417   3.414   2.963   1.028
 1803SOL     OW 5418   2.777   1.951   1.402
 1803SOL    HW1 5419   2.802   1.931   1.307
 1803SOL    HW2 5420   2.849   2.007   1.444
 1804SOL     OW 5421   2.842   2.978   1.719
 1804SOL    HW1 5422   2.743   2.984   1.729
 1804SOL    HW2 5423   2.865   2.898   1.663
 1805SOL     OW 5424   2.567   2.912   0.368
 1805SOL    HW1 5425   2.553   2.919   0.467
 1805SOL    HW2 5426   2.651   2.861   0.350
 1806SOL     OW 5427   2.272   2.675   1.251
 1806SOL    HW1 5428   2.358   2.687   1.301
 1806SOL    HW2 5429   2.230   2.588   1.278
 1807SOL     OW 5430   3.136   2.248   1.262
 1807SOL    HW1 5431   3.157   2.322   1.326
 1807SOL    HW2 5432   3.047   2.265   1.219
 1808SOL     OW 5433   1.926   3.426   1.331
 1808SOL    HW1 5434   1.880   3.508   1.297
 1808SOL    HW2 5435   2.024   3.445   1.340
 1809SOL     OW 5436   2.229   2.962   0.501
 1809SOL    HW1 5437   2.222   3.045   0.445
 1809SOL    HW2 5438   2.233   2.882   0.441
 1810SOL     OW 5439   2.428   2.399   0.865
 1810SOL    HW1 5440   2.440   2.465   0.791
 1810SOL    HW2 5441   2.474   2.433   0.948
 1811SOL     OW 5442   3.114   3.210   0.388
 1811SOL    HW1 5443   3.164   3.287   0.428
 1811SOL    HW2 5444   3.019   3.212   0.420
 1812SOL     OW 5445   3.134   3.307   1.142
 1812SOL    HW1 5446   3.181   3.320   1.229
 1812SOL    HW2 5447   3.068   3.233   1.151
 1813SOL     OW 5448   3.444   2.501   0.472
 1813SOL    HW1 5449   3.413   2.562   0.545
 1813SOL    HW2 5450   3.494   2.553   0.403
 1814SOL     OW 5451   2.216   3.372   1.329
 1814SOL    HW1 5452   2.195   3.328   1.242
 1814SOL    HW2 5453   2.313   3.398   1.332
 1815SOL     OW 5454   2.264   2.613   1.598
 1815SOL    HW1 5455   2.332   2.668   1.551
 1815SOL    HW2 5456   2.304   2.525   1.625
 1816SOL     OW 5457   3.449   2.641   1.670
 1816SOL    HW1 5458   3.357   2.679   1.665
 1816SOL    HW2 5459   3.509   2.688   1.605
 1817SOL     OW 5460   2.875   1.967   1.770
 1817SOL    HW1 5461   2.881   2.052   1.718
 1817SOL    HW2 5462   2.907   1.891   1.713
 1818SOL     OW 5463   2.366   1.912   1.740
 1818SOL    HW1 5464   2.324   1.855   1.670
 1818SOL    HW2 5465   2.300   1.981   1.772
 1819SOL     OW 5466   2.435   2.732   1.029
 1819SOL    HW1 5467   2.479   2.821   1.020
 1819SOL    HW2 5468   2.372   2.732   1.106
 1820SOL     OW 5469   3.222   2.724   1.045
 1820SOL    HW1 5470   3.147   2.724   0.979
 1820SOL    HW2 5471   3.259   2.632   1.054
 1821SOL     OW 5472   3.071   2.387   0.275
 1821SOL    HW1 5473   3.084   2.303   0.329
 1821SOL    HW2 5474   3.042   2.461   0.335
 1822SOL     OW 5475   2.169   2.075   1.231
 1822SOL    HW1 5476   2.146   2.112   1.321
 1822SOL    HW2 5477   2.139   1.980   1.225
 1823SOL     OW 5478   1.899   3.172   1.282
 1823SOL    HW1 5479   1.952   3.123   1.350
 1823SOL    HW2 5480   1.921   3.270   1.287
 1824SOL     OW 5481   2.594   2.496   1.064
 1824SOL    HW1 5482   2.653   2.470   0.988
 1824SOL    HW2 5483   2.566   2.592   1.053
 1825SOL     OW 5484   3.590   2.797   1.854
 1825SOL    HW1 5485   3.544   2.790   1.765
 1825SOL    HW2 5486   3.528   2.841   1.920
 1826SOL     OW 5487   2.169   1.925   0.618
 1826SOL    HW1 5488   2.158   2.019   0.651
 1826SOL    HW2 5489   2.164   1.862   0.695
 1827SOL     OW 5490   3.484   2.229   0.374
 1827SOL    HW1 5491   3.486   2.153   0.438
 1827SOL    HW2 5492   3.436   2.306   0.414
 1828SOL     OW 5493   2.885   2.628   0.966
 1828SOL    HW1 5494   2.900   2.649   1.062
 1828SOL    HW2 5495   2.855   2.533   0.957
 1829SOL     OW 5496   2.842   3.435   1.700
 1829SOL    HW1 5497   2.822   3.479   1.612
 1829SOL    HW2 5498   2.881   3.344   1.684
 1830SOL     OW 5499   3.721   3.380   1.605
 1830SOL    HW1 5500   3.735   3.407   1.510
 1830SOL    HW2 5501   3.804   3.402   1.658
 1831SOL     OW 5502   2.212   2.760   1.804
 1831SOL    HW1 5503   2.288   2.804   1.852
 1831SOL    HW2 5504   2.247   2.713   1.722
 1832SOL     OW 5505   3.402   2.136   0.125
 1832SOL    HW1 5506   3.341   2.061   0.148
 1832SOL    HW2 5507   3.424   2.188   0.208
 1833SOL     OW 5508   3.165   2.700   0.042
 1833SOL    HW1 5509   3.199   2.607   0.057
 1833SOL    HW2 5510   3.183   2.727  -0.053
 1834SOL     OW 5511   2.930   3.195   0.849
 1834SOL    HW1 5512   2.937   3.111   0.794
 1834SOL    HW2 5513   2.992   3.264   0.813
 1835SOL     OW 5514   2.181   2.672   0.949
 1835SOL    HW1 5515   2.274   2.708   0.954
 1835SOL    HW2 5516   2.175   2.587   1.001
 1836SOL     OW 5517   2.201   2.371   1.006
 1836SOL    HW1 5518   2.149   2.288   0.989
 1836SOL    HW2 5519   2.278   2.376   0.942
 1837SOL     OW 5520   3.000   2.242   1.678
 1837SOL    HW1 5521   2.955   2.305   1.742
 1837SOL    HW2 5522   3.093   2.273   1.661
 1838SOL     OW 5523   3.022   2.069   1.477
 1838SOL    HW1 5524   3.022   2.133   1.554
 1838SOL    HW2 5525   3.050   2.117   1.394
 1839SOL     OW 5526   1.870   3.188   0.200
 1839SOL    HW1 5527   1.777   3.209   0.169
 1839SOL    HW2 5528   1.880   3.089   0.213
 1840SOL     OW 5529   1.950   3.663   0.927
 1840SOL    HW1 5530   1.908   3.577   0.900
 1840SOL    HW2 5531   2.044   3.666   0.893
 1841SOL     OW 5532   2.366   3.430   0.910
 1841SOL    HW1 5533   2.432   3.504   0.919
 1841SOL    HW2 5534   2.410   3.351   0.868
 1842SOL     OW 5535   2.864   2.658   1.238
 1842SOL    HW1 5536   2.905   2.626   1.324
 1842SOL    HW2 5537   2.768   2.631   1.235
 1843SOL     OW 5538   1.902   2.406   1.114
 1843SOL    HW1 5539   1.987   2.373   1.073
 1843SOL    HW2 5540   1.915   2.421   1.212
 1844SOL     OW 5541   2.051   2.382   1.722
 1844SOL    HW1 5542   2.110   2.342   1.652
 1844SOL    HW2 5543   1.993   2.453   1.681
 1845SOL     OW 5544   3.231   2.812   1.660
 1845SOL    HW1 5545   3.270   2.901   1.680
 1845SOL    HW2 5546   3.241   2.792   1.563
 1846SOL     OW 5547   2.677   2.434   0.325
 1846SOL    HW1 5548   2.684   2.345   0.279
 1846SOL    HW2 5549   2.583   2.468   0.317
 1847SOL     OW 5550   3.519   2.466   1.206
 1847SOL    HW1 5551   3.481   2.397   1.268
 1847SOL    HW2 5552   3.601   2.430   1.162
 1848SOL     OW 5553   2.114   3.426   1.744
 1848SOL    HW1 5554   2.084   3.483   1.820
 1848SOL    HW2 5555   2.107   3.329   1.770
 1849SOL     OW 5556   2.533   2.326   1.269
 1849SOL    HW1 5557   2.499   2.237   1.239
 1849SOL    HW2 5558   2.559   2.380   1.189
 1850SOL     OW 5559   2.792   3.540   1.465
 1850SOL    HW1 5560   2.768   3.522   1.370
 1850SOL    HW2 5561   2.822   3.634   1.475
 1851SOL     OW 5562   2.335   2.362   0.191
 1851SOL    HW1 5563   2.396   2.442   0.195
 1851SOL    HW2 5564   2.240   2.393   0.198
 1852SOL     OW 5565   2.021   2.999   1.466
 1852SOL    HW1 5566   2.043   2.938   1.542
 1852SOL    HW2 5567   2.031   2.950   1.380
 1853SOL     OW 5568   3.209   2.921   1.234
 1853SOL    HW1 5569   3.233   2.858   1.160
 1853SOL    HW2 5570   3.119   2.961   1.216
 1854SOL     OW 5571   3.164   2.717   0.309
 1854SOL    HW1 5572   3.078   2.686   0.351
 1854SOL    HW2 5573   3.160   2.703   0.210
 1855SOL     OW 5574   3.621   3.609   1.154
 1855SOL    HW1 5575   3.682   3.639   1.081
 1855SOL    HW2 5576   3.583   3.520   1.132
 1856SOL     OW 5577   3.114   3.593   1.128
 1856SOL    HW1 5578   3.198   3.598   1.074
 1856SOL    HW2 5579   3.091   3.497   1.146
 1857SOL     OW 5580   1.945   3.120   1.022
 1857SOL    HW1 5581   1.940   3.119   1.122
 1857SOL    HW2 5582   1.862   3.079   0.984
 1858SOL     OW 5583   2.550   3.524   1.716
 1858SOL    HW1 5584   2.494   3.605   1.725
 1858SOL    HW2 5585   2.602   3.528   1.630
 1859SOL     OW 5586   2.765   1.948   0.133
 1859SOL    HW1 5587   2.816   1.949   0.047
 1859SOL    HW2 5588   2.821   1.906   0.204
 1860SOL     OW 5589   3.588   1.997   0.523
 1860SOL    HW1 5590   3.661   1.980   0.456
 1860SOL    HW2 5591   3.557   1.910   0.561
 1861SOL     OW 5592   3.250   3.435   0.477
 1861SOL    HW1 5593   3.317   3.447   0.403
 1861SOL    HW2 5594   3.210   3.524   0.500
 1862SOL     OW 5595   1.992   3.656   1.851
 1862SOL    HW1 5596   1.951   3.582   1.904
 1862SOL    HW2 5597   2.056   3.707   1.909
 1863SOL     OW 5598   3.142   2.789   0.672
 1863SOL    HW1 5599   3.202   2.708   0.674
 1863SOL    HW2 5600   3.182   2.858   0.612
 1864SOL     OW 5601   2.692   3.135   1.422
 1864SOL    HW1 5602   2.687   3.168   1.517
 1864SOL    HW2 5603   2.606   3.154   1.376
 1865SOL     OW 5604   2.534   3.478   0.154
 1865SOL    HW1 5605   2.543   3.488   0.055
 1865SOL    HW2 5606   2.494   3.389   0.175
 1866SOL     OW 5607   3.512   3.582   1.394
 1866SOL    HW1 5608   3.565   3.592   1.310
 1866SOL    HW2 5609   3.485   3.672   1.428
 1867SOL     OW 5610   3.703   2.037   0.963
 1867SOL    HW1 5611   3.742   1.952   0.927
 1867SOL    HW2 5612   3.605   2.039   0.944
 1868SOL     OW 5613   2.125   2.188   0.720
 1868SOL    HW1 5614   2.046   2.239   0.686
 1868SOL    HW2 5615   2.116   2.173   0.818
 1869SOL     OW 5616   3.056   3.474   0.031
 1869SOL    HW1 5617   3.062   3.381   0.068
 1869SOL    HW2 5618   2.997   3.474  -0.049
 1870SOL     OW 5619   2.684   2.864   1.372
 1870SOL    HW1 5620   2.724   2.863   1.280
 1870SOL    HW2 5621   2.694   2.956   1.412
 1871SOL     OW 5622   2.778   2.772   0.291
 1871SOL    HW1 5623   2.841   2.810   0.223
 1871SOL    HW2 5624   2.818   2.689   0.330
 1872SOL     OW 5625   3.366   3.469   0.044
 1872SOL    HW1 5626   3.274   3.506   0.051
 1872SOL    HW2 5627   3.404   3.489  -0.046
 1873SOL     OW 5628   2.234   3.150   1.490
 1873SOL    HW1 5629   2.221   3.243   1.456
 1873SOL    HW2 5630   2.150   3.098   1.477
 1874SOL     OW 5631   3.476   3.154   1.289
 1874SOL    HW1 5632   3.536   3.157   1.369
 1874SOL    HW2 5633   3.401   3.218   1.302
 1875SOL     OW 5634   2.901   2.960   0.696
 1875SOL    HW1 5635   2.831   2.913   0.750
 1875SOL    HW2 5636   2.960   2.892   0.653
 1876SOL     OW 5637   2.876   2.098   0.971
 1876SOL    HW1 5638   2.868   2.062   0.878
 1876SOL    HW2 5639   2.874   2.022   1.036
 1877SOL     OW 5640   2.452   3.349   0.491
 1877SOL    HW1 5641   2.494   3.291   0.421
 1877SOL    HW2 5642   2.408   3.428   0.447
 1878SOL     OW 5643   3.571   2.247   1.381
 1878SOL    HW1 5644   3.644   2.316   1.385
 1878SOL    HW2 5645   3.599   2.172   1.322
 1879SOL     OW 5646   2.117   3.210   0.290
 1879SOL    HW1 5647   2.021   3.211   0.263
 1879SOL    HW2 5648   2.129   3.263   0.374
 1880SOL     OW 5649   1.967   2.875   1.726
 1880SOL    HW1 5650   1.890   2.842   1.780
 1880SOL    HW2 5651   2.052   2.845   1.768
 1881SOL     OW 5652   2.534   2.065   1.489
 1881SOL    HW1 5653   2.624   2.049   1.449
 1881SOL    HW2 5654   2.542   2.070   1.588
 1882SOL     OW 5655   1.937   2.207   0.033
 1882SOL    HW1 5656   1.845   2.179   0.004
 1882SOL    HW2 5657   1.968   2.284  -0.023
 1883SOL     OW 5658   3.302   2.718   1.398
 1883SOL    HW1 5659   3.245   2.770   1.335
 1883SOL    HW2 5660   3.398   2.730   1.374
 1884SOL     OW 5661   3.045   3.197   0.119
 1884SOL    HW1 5662   2.946   3.186   0.121
 1884SOL    HW2 5663   3.079   3.212   0.212
 1885SOL     OW 5664   2.475   2.704   1.431
 1885SOL    HW1 5665   2.531   2.785   1.414
 1885SOL    HW2 5666   2.534   2.624   1.434
 1886SOL     OW 5667   3.355   3.629   0.959
 1886SOL    HW1 5668   3.388   3.693   0.890
 1886SOL    HW2 5669   3.421   3.623   1.034
 1887SOL     OW 5670   2.578   2.427   1.708
 1887SOL    HW1 5671   2.597   2.492   1.782
 1887SOL    HW2 5672   2.638   2.347   1.717
 1888SOL     OW 5673   3.312   3.082   1.633
 1888SOL    HW1 5674   3.303   3.072   1.732
 1888SOL    HW2 5675   3.408   3.075   1.607
 1889SOL     OW 5676   2.252   3.603   1.560
 1889SOL    HW1 5677   2.161   3.644   1.558
 1889SOL    HW2 5678   2.245   3.509   1.592
 1890SOL     OW 5679   3.536   2.745   1.254
 1890SOL    HW1 5680   3.509   2.656   1.217
 1890SOL    HW2 5681   3.537   2.813   1.181
 1891SOL     OW 5682   3.087   2.187   0.449
 1891SOL    HW1 5683   3.152   2.113   0.438
 1891SOL    HW2 5684   3.107   2.237   0.533
 1892SOL     OW 5685   2.456   2.607   0.652
 1892SOL    HW1 5686   2.506   2.692   0.633
 1892SOL    HW2 5687   2.368   2.609   0.604
 1893SOL     OW 5688   3.639   2.204   1.642
 1893SOL    HW1 5689   3.622   2.235   1.548
 1893SOL    HW2 5690   3.555   2.167   1.680
 1894SOL     OW 5691   3.592   2.796   1.517
 1894SOL    HW1 5692   3.630   2.887   1.532
 1894SOL    HW2 5693   3.584   2.779   1.418
 1895SOL     OW 5694   2.721   3.236   0.016
 1895SOL    HW1 5695   2.675   3.251   0.104
 1895SOL    HW2 5696   2.765   3.321  -0.014
 1896SOL     OW 5697   2.523   3.652   0.953
 1896SOL    HW1 5698   2.477   3.740   0.940
 1896SOL    HW2 5699   2.622   3.664   0.946
 1897SOL     OW 5700   2.721   2.818   0.861
 1897SOL    HW1 5701   2.775   2.749   0.909
 1897SOL    HW2 5702   2.689   2.887   0.927
 1898SOL     OW 5703   2.945   2.846   0.087
 1898SOL    HW1 5704   2.922   2.899   0.005
 1898SOL    HW2 5705   3.026   2.790   0.068
 1899SOL     OW 5706   3.723   3.431   0.851
 1899SOL    HW1 5707   3.652   3.419   0.781
 1899SOL    HW2 5708   3.724   3.352   0.911
 1900SOL     OW 5709   2.083   3.176   1.844
 1900SOL    HW1 5710   2.018   3.103   1.823
 1900SOL    HW2 5711   2.087   3.190   1.942
 1901SOL     OW 5712   1.941   3.102   0.653
 1901SOL    HW1 5713   1.940   3.055   0.741
 1901SOL    HW2 5714   2.023   3.074   0.602
 1902SOL     OW 5715   2.534   3.253   1.624
 1902SOL    HW1 5716   2.456   3.203   1.662
 1902SOL    HW2 5717   2.531   3.348   1.655
 1903SOL     OW 5718   3.686   2.054   1.227
 1903SOL    HW1 5719   3.682   1.964   1.271
 1903SOL    HW2 5720   3.689   2.043   1.128
 1904SOL     OW 5721   2.290   2.286   0.520
 1904SOL    HW1 5722   2.320   2.214   0.458
 1904SOL    HW2 5723   2.251   2.246   0.603
 1905SOL     OW 5724   3.567   3.349   1.104
 1905SOL    HW1 5725   3.474   3.324   1.077
 1905SOL    HW2 5726   3.593   3.299   1.186
 1906SOL     OW 5727   2.179   2.409   1.280
 1906SOL    HW1 5728   2.217   2.350   1.352
 1906SOL    HW2 5729   2.219   2.383   1.192
 1907SOL     OW 5730   2.674   3.448   0.687
 1907SOL    HW1 5731   2.706   3.458   0.593
 1907SOL    HW2 5732   2.595   3.386   0.689
 1908SOL     OW 5733   3.286   2.076   1.112
 1908SOL    HW1 5734   3.338   2.011   1.167
 1908SOL    HW2 5735   3.237   2.139   1.173
 1909SOL     OW 5736   2.863   1.896   1.154
 1909SOL    HW1 5737   2.800   1.824   1.123
 1909SOL    HW2 5738   2.956   1.860   1.154
 1910SOL     OW 5739   2.632   3.192   0.301
 1910SOL    HW1 5740   2.586   3.105   0.318
 1910SOL    HW2 5741   2.723   3.189   0.342
 1911SOL     OW 5742   2.480   3.429   1.284
 1911SOL    HW1 5743   2.475   3.511   1.341
 1911SOL    HW2 5744   2.569   3.426   1.239
 1912SOL     OW 5745   3.214   1.914   0.168
 1912SOL    HW1 5746   3.249   1.873   0.084
 1912SOL    HW2 5747   3.124   1.876   0.188
 1913SOL     OW 5748   3.162   2.315   0.691
 1913SOL    HW1 5749   3.103   2.395   0.695
 1913SOL    HW2 5750   3.177   2.280   0.784
 1914SOL     OW 5751   3.455   2.083   0.882
 1914SOL    HW1 5752   3.371   2.082   0.936
 1914SOL    HW2 5753   3.457   2.166   0.826
 1915SOL     OW 5754   1.901   2.939   0.300
 1915SOL    HW1 5755   2.000   2.928   0.291
 1915SOL    HW2 5756   1.861   2.853   0.332
 1916SOL     OW 5757   2.737   3.508   0.337
 1916SOL    HW1 5758   2.660   3.473   0.283
 1916SOL    HW2 5759   2.705   3.579   0.399
 1917SOL     OW 5760   2.092   2.490   1.975
 1917SOL    HW1 5761   1.999   2.488   2.012
 1917SOL    HW2 5762   2.093   2.451   1.883
 1918SOL     OW 5763   2.087   2.137   2.858
 1918SOL    HW1 5764   2.122   2.120   2.950
 1918SOL    HW2 5765   1.999   2.092   2.846
 1919SOL     OW 5766   1.881   2.230   2.509
 1919SOL    HW1 5767   1.799   2.273   2.548
 1919SOL    HW2 5768   1.853   2.157   2.446
 1920SOL     OW 5769   2.431   3.137   3.027
 1920SOL    HW1 5770   2.338   3.130   2.990
 1920SOL    HW2 5771   2.442   3.226   3.071
 1921SOL     OW 5772   3.417   3.373   2.565
 1921SOL    HW1 5773   3.360   3.357   2.646
 1921SOL    HW2 5774   3.358   3.383   2.485
 1922SOL     OW 5775   2.997   2.565   2.579
 1922SOL    HW1 5776   3.054   2.643   2.554
 1922SOL    HW2 5777   2.937   2.591   2.655
 1923SOL     OW 5778   3.617   2.469   2.093
 1923SOL    HW1 5779   3.605   2.456   1.994
 1923SOL    HW2 5780   3.587   2.388   2.142
 1924SOL     OW 5781   2.630   3.006   2.885
 1924SOL    HW1 5782   2.552   3.023   2.945
 1924SOL    HW2 5783   2.664   3.093   2.849
 1925SOL     OW 5784   2.712   2.660   3.685
 1925SOL    HW1 5785   2.708   2.736   3.750
 1925SOL    HW2 5786   2.734   2.696   3.594
 1926SOL     OW 5787   2.547   2.874   2.527
 1926SOL    HW1 5788   2.616   2.858   2.597
 1926SOL    HW2 5789   2.474   2.931   2.565
 1927SOL     OW 5790   2.548   3.023   3.665
 1927SOL    HW1 5791   2.608   3.102   3.679
 1927SOL    HW2 5792   2.462   3.054   3.624
 1928SOL     OW 5793   2.197   3.297   2.923
 1928SOL    HW1 5794   2.119   3.266   2.870
 1928SOL    HW2 5795   2.255   3.355   2.866
 1929SOL     OW 5796   3.322   3.367   3.201
 1929SOL    HW1 5797   3.346   3.461   3.227
 1929SOL    HW2 5798   3.306   3.313   3.283
 1930SOL     OW 5799   2.300   2.254   3.361
 1930SOL    HW1 5800   2.382   2.198   3.370
 1930SOL    HW2 5801   2.219   2.196   3.365
 1931SOL     OW 5802   3.465   2.309   2.599
 1931SOL    HW1 5803   3.391   2.355   2.549
 1931SOL    HW2 5804   3.516   2.377   2.652
 1932SOL     OW 5805   2.093   3.575   2.345
 1932SOL    HW1 5806   2.127   3.652   2.399
 1932SOL    HW2 5807   2.137   3.575   2.255
 1933SOL     OW 5808   2.989   3.203   3.552
 1933SOL    HW1 5809   3.036   3.203   3.640
 1933SOL    HW2 5810   2.941   3.116   3.541
 1934SOL     OW 5811   2.092   3.296   2.400
 1934SOL    HW1 5812   2.066   3.392   2.400
 1934SOL    HW2 5813   2.021   3.242   2.445
 1935SOL     OW 5814   2.102   2.953   2.748
 1935SOL    HW1 5815   2.116   2.869   2.800
 1935SOL    HW2 5816   2.047   3.017   2.803
 1936SOL     OW 5817   2.482   3.648   3.301
 1936SOL    HW1 5818   2.390   3.631   3.336
 1936SOL    HW2 5819   2.510   3.740   3.327
 1937SOL     OW 5820   2.468   2.826   1.985
 1937SOL    HW1 5821   2.475   2.910   1.931
 1937SOL    HW2 5822   2.514   2.839   2.073
 1938SOL     OW 5823   3.456   1.976   3.342
 1938SOL    HW1 5824   3.438   2.043   3.270
 1938SOL    HW2 5825   3.453   2.022   3.431
 1939SOL     OW 5826   1.984   2.505   2.425
 1939SOL    HW1 5827   1.939   2.417   2.442
 1939SOL    HW2 5828   1.983   2.559   2.509
 1940SOL     OW 5829   3.704   3.629   2.221
 1940SOL    HW1 5830   3.758   3.600   2.301
 1940SOL    HW2 5831   3.734   3.719   2.192
 1941SOL     OW 5832   1.889   3.458   1.979
 1941SOL    HW1 5833   1.870   3.362   2.000
 1941SOL    HW2 5834   1.856   3.516   2.054
 1942SOL     OW 5835   3.551   2.784   2.474
 1942SOL    HW1 5836   3.646   2.755   2.482
 1942SOL    HW2 5837   3.543   2.849   2.399
 1943SOL     OW 5838   3.503   2.970   2.294
 1943SOL    HW1 5839   3.589   2.972   2.242
 1943SOL    HW2 5840   3.517   3.017   2.382
 1944SOL     OW 5841   1.975   2.599   3.459
 1944SOL    HW1 5842   2.063   2.586   3.504
 1944SOL    HW2 5843   1.962   2.696   3.437
 1945SOL     OW 5844   2.475   3.227   2.588
 1945SOL    HW1 5845   2.426   3.140   2.597
 1945SOL    HW2 5846   2.452   3.270   2.501
 1946SOL     OW 5847   3.155   3.090   3.285
 1946SOL    HW1 5848   3.192   3.017   3.227
 1946SOL    HW2 5849   3.207   3.095   3.370
 1947SOL     OW 5850   2.671   1.866   2.364
 1947SOL    HW1 5851   2.711   1.957   2.355
 1947SOL    HW2 5852   2.571   1.874   2.370
 1948SOL     OW 5853   2.059   2.838   3.126
 1948SOL    HW1 5854   2.148   2.793   3.112
 1948SOL    HW2 5855   1.986   2.773   3.107
 1949SOL     OW 5856   3.387   2.861   2.052
 1949SOL    HW1 5857   3.324   2.785   2.065
 1949SOL    HW2 5858   3.435   2.879   2.138
 1950SOL     OW 5859   3.049   3.654   3.478
 1950SOL    HW1 5860   3.073   3.714   3.402
 1950SOL    HW2 5861   3.056   3.559   3.448
 1951SOL     OW 5862   2.179   2.113   3.663
 1951SOL    HW1 5863   2.250   2.184   3.669
 1951SOL    HW2 5864   2.091   2.152   3.691
 1952SOL     OW 5865   3.328   3.279   2.815
 1952SOL    HW1 5866   3.269   3.285   2.895
 1952SOL    HW2 5867   3.313   3.191   2.769
 1953SOL     OW 5868   3.529   3.576   2.434
 1953SOL    HW1 5869   3.488   3.553   2.346
 1953SOL    HW2 5870   3.511   3.502   2.499
 1954SOL     OW 5871   2.460   2.591   2.132
 1954SOL    HW1 5872   2.484   2.660   2.064
 1954SOL    HW2 5873   2.382   2.624   2.186
 1955SOL     OW 5874   3.143   2.207   2.806
 1955SOL    HW1 5875   3.057   2.157   2.793
 1955SOL    HW2 5876   3.205   2.153   2.862
 1956SOL     OW 5877   3.438   3.524   2.169
 1956SOL    HW1 5878   3.527   3.570   2.172
 1956SOL    HW2 5879   3.417   3.500   2.074
 1957SOL     OW 5880   2.669   2.467   3.327
 1957SOL    HW1 5881   2.622   2.464   3.416
 1957SOL    HW2 5882   2.618   2.412   3.261
 1958SOL     OW 5883   3.256   2.331   3.536
 1958SOL    HW1 5884   3.236   2.374   3.624
 1958SOL    HW2 5885   3.334   2.269   3.545
 1959SOL     OW 5886   2.835   2.752   3.434
 1959SOL    HW1 5887   2.881   2.668   3.405
 1959SOL    HW2 5888   2.779   2.786   3.359
 1960SOL     OW 5889   2.853   2.272   3.104
 1960SOL    HW1 5890   2.776   2.306   3.158
 1960SOL    HW2 5891   2.819   2.221   3.025
 1961SOL     OW 5892   2.903   2.563   2.291
 1961SOL    HW1 5893   2.929   2.559   2.387
 1961SOL    HW2 5894   2.818   2.512   2.277
 1962SOL     OW 5895   1.938   2.673   2.651
 1962SOL    HW1 5896   2.037   2.661   2.660
 1962SOL    HW2 5897   1.914   2.768   2.672
 1963SOL     OW 5898   1.992   3.683   3.433
 1963SOL    HW1 5899   1.982   3.668   3.532
 1963SOL    HW2 5900   1.906   3.719   3.397
 1964SOL     OW 5901   2.727   2.210   2.057
 1964SOL    HW1 5902   2.786   2.273   2.008
 1964SOL    HW2 5903   2.746   2.116   2.028
 1965SOL     OW 5904   3.581   2.447   3.693
 1965SOL    HW1 5905   3.555   2.536   3.657
 1965SOL    HW2 5906   3.579   2.379   3.620
 1966SOL     OW 5907   3.224   3.006   2.407
 1966SOL    HW1 5908   3.307   2.977   2.359
 1966SOL    HW2 5909   3.175   3.073   2.351
 1967SOL     OW 5910   2.412   2.058   2.747
 1967SOL    HW1 5911   2.407   2.053   2.847
 1967SOL    HW2 5912   2.414   2.154   2.718
 1968SOL     OW 5913   2.870   3.318   2.339
 1968SOL    HW1 5914   2.824   3.390   2.287
 1968SOL    HW2 5915   2.866   3.338   2.437
 1969SOL     OW 5916   2.213   3.663   2.715
 1969SOL    HW1 5917   2.263   3.577   2.721
 1969SOL    HW2 5918   2.278   3.740   2.712
 1970SOL     OW 5919   3.657   2.928   2.735
 1970SOL    HW1 5920   3.595   2.913   2.659
 1970SOL    HW2 5921   3.605   2.939   2.820
 1971SOL     OW 5922   3.089   3.412   3.368
 1971SOL    HW1 5923   3.095   3.335   3.432
 1971SOL    HW2 5924   3.037   3.386   3.288
 1972SOL     OW 5925   2.183   2.805   2.104
 1972SOL    HW1 5926   2.265   2.844   2.062
 1972SOL    HW2 5927   2.156   2.723   2.055
 1973SOL     OW 5928   3.320   2.597   2.590
 1973SOL    HW1 5929   3.315   2.532   2.665
 1973SOL    HW2 5930   3.400   2.656   2.603
 1974SOL     OW 5931   2.323   3.128   3.589
 1974SOL    HW1 5932   2.273   3.129   3.503
 1974SOL    HW2 5933   2.260   3.110   3.665
 1975SOL     OW 5934   2.973   3.638   2.099
 1975SOL    HW1 5935   2.913   3.576   2.149
 1975SOL    HW2 5936   3.004   3.594   2.014
 1976SOL     OW 5937   2.064   2.147   3.360
 1976SOL    HW1 5938   1.984   2.207   3.347
 1976SOL    HW2 5939   2.054   2.098   3.446
 1977SOL     OW 5940   3.494   3.239   1.943
 1977SOL    HW1 5941   3.462   3.333   1.933
 1977SOL    HW2 5942   3.418   3.176   1.931
 1978SOL     OW 5943   2.326   3.605   2.185
 1978SOL    HW1 5944   2.359   3.644   2.271
 1978SOL    HW2 5945   2.402   3.598   2.120
 1979SOL     OW 5946   3.262   1.969   2.288
 1979SOL    HW1 5947   3.238   1.932   2.198
 1979SOL    HW2 5948   3.361   1.985   2.292
 1980SOL     OW 5949   2.111   3.647   3.103
 1980SOL    HW1 5950   2.168   3.582   3.153
 1980SOL    HW2 5951   2.095   3.614   3.010
 1981SOL     OW 5952   2.802   3.560   2.766
 1981SOL    HW1 5953   2.882   3.503   2.787
 1981SOL    HW2 5954   2.753   3.520   2.689
 1982SOL     OW 5955   3.409   2.084   3.591
 1982SOL    HW1 5956   3.404   2.121   3.683
 1982SOL    HW2 5957   3.337   2.015   3.579
 1983SOL     OW 5958   2.476   1.984   1.979
 1983SOL    HW1 5959   2.574   1.962   1.986
 1983SOL    HW2 5960   2.445   1.967   1.886
 1984SOL     OW 5961   2.643   2.126   3.611
 1984SOL    HW1 5962   2.710   2.065   3.654
 1984SOL    HW2 5963   2.570   2.145   3.676
 1985SOL     OW 5964   2.750   3.376   3.057
 1985SOL    HW1 5965   2.727   3.351   2.963
 1985SOL    HW2 5966   2.811   3.307   3.096
 1986SOL     OW 5967   3.213   2.452   3.295
 1986SOL    HW1 5968   3.241   2.409   3.380
 1986SOL    HW2 5969   3.238   2.548   3.296
 1987SOL     OW 5970   2.665   3.264   2.786
 1987SOL    HW1 5971   2.755   3.278   2.744
 1987SOL    HW2 5972   2.594   3.266   2.715
 1988SOL     OW 5973   2.784   2.365   2.761
 1988SOL    HW1 5974   2.759   2.356   2.665
 1988SOL    HW2 5975   2.832   2.283   2.792
 1989SOL     OW 5976   3.296   3.050   1.903
 1989SOL    HW1 5977   3.328   2.974   1.960
 1989SOL    HW2 5978   3.204   3.077   1.933
 1990SOL     OW 5979   2.797   2.098   2.342
 1990SOL    HW1 5980   2.749   2.139   2.264
 1990SOL    HW2 5981   2.896   2.096   2.323
 1991SOL     OW 5982   2.938   2.545   3.326
 1991SOL    HW1 5983   2.858   2.484   3.329
 1991SOL    HW2 5984   3.019   2.492   3.302
 1992SOL     OW 5985   3.089   3.432   2.655
 1992SOL    HW1 5986   3.110   3.506   2.590
 1992SOL    HW2 5987   3.157   3.432   2.728
 1993SOL     OW 5988   2.321   3.014   2.603
 1993SOL    HW1 5989   2.250   2.987   2.668
 1993SOL    HW2 5990   2.295   2.986   2.510
 1994SOL     OW 5991   3.133   3.659   2.453
 1994SOL    HW1 5992   3.177   3.723   2.389
 1994SOL    HW2 5993   3.083   3.711   2.523
 1995SOL     OW 5994   2.894   2.411   1.878
 1995SOL    HW1 5995   2.853   2.493   1.839
 1995SOL    HW2 5996   2.958   2.437   1.951
 1996SOL     OW 5997   1.940   2.418   3.248
 1996SOL    HW1 5998   2.032   2.417   3.207
 1996SOL    HW2 5999   1.934   2.492   3.315
 1997SOL     OW 6000   2.423   2.084   3.009
 1997SOL    HW1 6001   2.461   2.000   3.046
 1997SOL    HW2 6002   2.335   2.103   3.053
 1998SOL     OW 6003   2.728   2.316   2.504
 1998SOL    HW1 6004   2.696   2.388   2.442
 1998SOL    HW2 6005   2.752   2.235   2.451
 1999SOL     OW 6006   2.879   1.901   2.615
 1999SOL    HW1 6007   2.807   1.906   2.546
 1999SOL    HW2 6008   2.855   1.832   2.684
 2000SOL     OW 6009   3.291   3.035   2.729
 2000SOL    HW1 6010   3.236   2.951   2.722
 2000SOL    HW2 6011   3.317   3.064   2.637
 2001SOL     OW 6012   3.328   2.452   2.854
 2001SOL    HW1 6013   3.298   2.357   2.861
 2001SOL    HW2 6014   3.401   2.468   2.920
 2002SOL     OW 6015   3.719   2.695   2.239
 2002SOL    HW1 6016   3.761   2.631   2.303
 2002SOL    HW2 6017   3.681   2.644   2.161
 2003SOL     OW 6018   2.350   3.247   2.036
 2003SOL    HW1 6019   2.263   3.232   2.083
 2003SOL    HW2 6020   2.333   3.273   1.941
 2004SOL     OW 6021   3.526   3.142   2.519
 2004SOL    HW1 6022   3.625   3.150   2.533
 2004SOL    HW2 6023   3.481   3.226   2.550
 2005SOL     OW 6024   3.252   2.437   1.940
 2005SOL    HW1 6025   3.198   2.416   2.021
 2005SOL    HW2 6026   3.343   2.396   1.949
 2006SOL     OW 6027   3.616   3.085   3.450
 2006SOL    HW1 6028   3.707   3.046   3.437
 2006SOL    HW2 6029   3.624   3.181   3.474
 2007SOL     OW 6030   2.926   3.209   3.202
 2007SOL    HW1 6031   2.846   3.186   3.257
 2007SOL    HW2 6032   3.009   3.183   3.251
 2008SOL     OW 6033   3.454   3.491   3.487
 2008SOL    HW1 6034   3.481   3.525   3.397
 2008SOL    HW2 6035   3.533   3.453   3.533
 2009SOL     OW 6036   2.973   3.057   2.962
 2009SOL    HW1 6037   2.933   3.101   3.043
 2009SOL    HW2 6038   2.932   3.094   2.879
 2010SOL     OW 6039   3.500   2.961   2.941
 2010SOL    HW1 6040   3.505   3.042   3.000
 2010SOL    HW2 6041   3.414   2.963   2.890
 2011SOL     OW 6042   2.777   1.951   3.264
 2011SOL    HW1 6043   2.802   1.931   3.169
 2011SOL    HW2 6044   2.849   2.007   3.306
 2012SOL     OW 6045   2.842   2.978   3.581
 2012SOL    HW1 6046   2.743   2.984   3.591
 2012SOL    HW2 6047   2.865   2.898   3.525
 2013SOL     OW 6048   2.567   2.912   2.230
 2013SOL    HW1 6049   2.553   2.919   2.329
 2013SOL    HW2 6050   2.651   2.861   2.212
 2014SOL     OW 6051   2.272   2.675   3.113
 2014SOL    HW1 6052   2.358   2.687   3.163
 2014SOL    HW2 6053   2.230   2.588   3.140
 2015SOL     OW 6054   3.136   2.248   3.124
 2015SOL    HW1 6055   3.157   2.322   3.188
 2015SOL    HW2 6056   3.047   2.265   3.081
 2016SOL     OW 6057   1.926   3.426   3.193
 2016SOL    HW1 6058   1.880   3.508   3.159
 2016SOL    HW2 6059   2.024   3.445   3.202
 2017SOL     OW 6060   2.229   2.962   2.363
 2017SOL    HW1 6061   2.222   3.045   2.307
 2017SOL    HW2 6062   2.233   2.882   2.303
 2018SOL     OW 6063   2.428   2.399   2.727
 2018SOL    HW1 6064   2.440   2.465   2.653
 2018SOL    HW2 6065   2.474   2.433   2.810
 2019SOL     OW 6066   3.114   3.210   2.250
 2019SOL    HW1 6067   3.164   3.287   2.290
 2019SOL    HW2 6068   3.019   3.212   2.282
 2020SOL     OW 6069   3.134   3.307   3.004
 2020SOL    HW1 6070   3.181   3.320   3.091
 2020SOL    HW2 6071   3.068   3.233   3.013
 2021SOL     OW 6072   3.444   2.501   2.334
 2021SOL    HW1 6073   3.413   2.562   2.407
 2021SOL    HW2 6074   3.494   2.553   2.265
 2022SOL     OW 6075   2.216   3.372   3.191
 2022SOL    HW1 6076   2.195   3.328   3.104
 2022SOL    HW2 6077   2.313   3.398   3.194
 2023SOL     OW 6078   2.264   2.613   3.460
 2023SOL    HW1 6079   2.332   2.668   3.413
 2023SOL    HW2 6080   2.304   2.525   3.487
 2024SOL     OW 6081   3.449   2.641   3.532
 2024SOL    HW1 6082   3.357   2.679   3.527
 2024SOL    HW2 6083   3.509   2.688   3.467
 2025SOL     OW 6084   2.875   1.967   3.632
 2025SOL    HW1 6085   2.881   2.052   3.580
 2025SOL    HW2 6086   2.907   1.891   3.575
 2026SOL     OW 6087   2.366   1.912   3.602
 2026SOL    HW1 6088   2.324   1.855   3.532
 2026SOL    HW2 6089   2.300   1.981   3.634
 2027SOL     OW 6090   2.435   2.732   2.891
 2027SOL    HW1 6091   2.479   2.821   2.882
 2027SOL    HW2 6092   2.372   2.732   2.968
 2028SOL     OW 6093   3.222   2.724   2.907
 2028SOL    HW1 6094   3.147   2.724   2.841
 2028SOL    HW2 6095   3.259   2.632   2.916
 2029SOL     OW 6096   3.071   2.387   2.137
 2029SOL    HW1 6097   3.084   2.303   2.191
 2029SOL    HW2 6098   3.042   2.461   2.197
 2030SOL     OW 6099   2.169   2.075   3.093
 2030SOL    HW1 6100   2.146   2.112   3.183
 2030SOL    HW2 6101   2.139   1.980   3.087
 2031SOL     OW 6102   1.899   3.172   3.144
 2031SOL    HW1 6103   1.952   3.123   3.212
 2031SOL    HW2 6104   1.921   3.270   3.149
 2032SOL     OW 6105   2.594   2.496   2.926
 2032SOL    HW1 6106   2.653   2.470   2.850
 2032SOL    HW2 6107   2.566   2.592   2.915
 2033SOL     OW 6108   3.590   2.797   3.716
 2033SOL    HW1 6109   3.544   2.790   3.627
 2033SOL    HW2 6110   3.528   2.841   3.782
 2034SOL     OW 6111   2.169   1.925   2.480
 2034SOL    HW1 6112   2.158   2.019   2.513
 2034SOL    HW2 6113   2.164   1.862   2.557
 2035SOL     OW 6114   3.484   2.229   2.236
 2035SOL    HW1 6115   3.486   2.153   2.300
 2035SOL    HW2 6116   3.436   2.306   2.276
 2036SOL     OW 6117   2.885   2.628   2.828
 2036SOL    HW1 6118   2.900   2.649   2.924
 2036SOL    HW2 6119   2.855   2.533   2.819
 2037SOL     OW 6120   2.842   3.435   3.562
 2037SOL    HW1 6121   2.822   3.479   3.474
 2037SOL    HW2 6122   2.881   3.344   3.546
 2038SOL     OW 6123   3.721   3.380   3.467
 2038SOL    HW1 6124   3.735   3.407   3.372
 2038SOL    HW2 6125   3.804   3.402   3.520
 2039SOL     OW 6126   2.212   2.760   3.666
 2039SOL    HW1 6127   2.288   2.804   3.714
 2039SOL    HW2 6128   2.247   2.713   3.584
 2040SOL     OW 6129   3.402   2.136   1.987
 2040SOL    HW1 6130   3.341   2.061   2.010
 2040SOL    HW2 6131   3.424   2.188   2.070
 2041SOL     OW 6132   3.165   2.700   1.904
 2041SOL    HW1 6133   3.199   2.607   1.919
 2041SOL    HW2 6134   3.183   2.727   1.809
 2042SOL     OW 6135   2.930   3.195   2.711
 2042SOL    HW1 6136   2.937   3.111   2.656
 2042SOL    HW2 6137   2.992   3.264   2.675
 2043SOL     OW 6138   2.181   2.672   2.811
 2043SOL    HW1 6139   2.274   2.708   2.816
 2043SOL    HW2 6140   2.175   2.587   2.863
 2044SOL     OW 6141   2.201   2.371   2.868
 2044SOL    HW1 6142   2.149   2.288   2.851
 2044SOL    HW2 6143   2.278   2.376   2.804
 2045SOL     OW 6144   3.000   2.242   3.540
 2045SOL    HW1 6145   2.955   2.305   3.604
 2045SOL    HW2 6146   3.093   2.273   3.523
 2046SOL     OW 6147   3.022   2.069   3.339
 2046SOL    HW1 6148   3.022   2.133   3.416
 2046SOL    HW2 6149   3.050   2.117   3.256
 2047SOL     OW 6150   1.870   3.188   2.062
 2047SOL    HW1 6151   1.777   3.209   2.031
 2047SOL    HW2 6152   1.880   3.089   2.075
 2048SOL     OW 6153   1.950   3.663   2.789
 2048SOL    HW1 6154   1.908   3.577   2.762
 2048SOL    HW2 6155   2.044   3.666   2.755
 2049SOL     OW 6156   2.366   3.430   2.772
 2049SOL    HW1 6157   2.432   3.504   2.781
 2049SOL    HW2 6158   2.410   3.351   2.730
 2050SOL     OW 6159   2.864   2.658   3.100
 2050SOL    HW1 6160   2.905   2.626   3.186
 2050SOL    HW2 6161   2.768   2.631   3.097
 2051SOL     OW 6162   1.902   2.406   2.976
 2051SOL    HW1 6163   1.987   2.373   2.935
 2051SOL    HW2 6164   1.915   2.421   3.074
 2052SOL     OW 6165   2.051   2.382   3.584
 2052SOL    HW1 6166   2.110   2.342   3.514
 2052SOL    HW2 6167   1.993   2.453   3.543
 2053SOL     OW 6168   3.231   2.812   3.522
 2053SOL    HW1 6169   3.270   2.901   3.542
 2053SOL    HW2 6170   3.241   2.792   3.425
 2054SOL     OW 6171   2.677   2.434   2.187
 2054SOL    HW1 6172   2.684   2.345   2.141
 2054SOL    HW2 6173   2.583   2.468   2.179
 2055SOL     OW 6174   3.519   2.466   3.068
 2055SOL    HW1 6175   3.481   2.397   3.130
 2055SOL    HW2 6176   3.601   2.430   3.024
 2056SOL     OW 6177   2.114   3.426   3.606
 2056SOL    HW1 6178   2.084   3.483   3.682
 2056SOL    HW2 6179   2.107   3.329   3.632
 2057SOL     OW 6180   2.533   2.326   3.131
 2057SOL    HW1 6181   2.499   2.237   3.101
 2057SOL    HW2 6182   2.559   2.380   3.051
 2058SOL     OW 6183   2.792   3.540   3.327
 2058SOL    HW1 6184   2.768   3.522   3.232
 2058SOL    HW2 6185   2.822   3.634   3.337
 2059SOL     OW 6186   2.021   2.999   3.328
 2059SOL    HW1 6187   2.043   2.938   3.404
 2059SOL    HW2 6188   2.031   2.950   3.242
 2060SOL     OW 6189   3.209   2.921   3.096
 2060SOL    HW1 6190   3.233   2.858   3.022
 2060SOL    HW2 6191   3.119   2.961   3.078
 2061SOL     OW 6192   3.164   2.717   2.171
 2061SOL    HW1 6193   3.078   2.686   2.213
 2061SOL    HW2 6194   3.160   2.703   2.072
 2062SOL     OW 6195   3.621   3.609   3.016
 2062SOL    HW1 6196   3.682   3.639   2.943
 2062SOL    HW2 6197   3.583   3.520   2.994
 2063SOL     OW 6198   3.114   3.593   2.990
 2063SOL    HW1 6199   3.198   3.598   2.936
 2063SOL    HW2 6200   3.091   3.497   3.008
 2064SOL     OW 6201   1.945   3.120   2.884
 2064SOL    HW1 6202   1.940   3.119   2.984
 2064SOL    HW2 6203   1.862   3.079   2.846
 2065SOL     OW 6204   2.550   3.524   3.578
 2065SOL    HW1 6205   2.494   3.605   3.587
 2065SOL    HW2 6206   2.602   3.528   3.492
 2066SOL     OW 6207   3.588   1.997   2.385
 2066SOL    HW1 6208   3.661   1.980   2.318
 2066SOL    HW2 6209   3.557   1.910   2.423
 2067SOL     OW 6210   3.250   3.435   2.339
 2067SOL    HW1 6211   3.317   3.447   2.265
 2067SOL    HW2 6212   3.210   3.524   2.362
 2068SOL     OW 6213   1.992   3.656   3.713
 2068SOL    HW1 6214   1.951   3.582   3.766
 2068SOL    HW2 6215   2.056   3.707   3.771
 2069SOL     OW 6216   3.142   2.789   2.534
 2069SOL    HW1 6217   3.202   2.708   2.536
 2069SOL    HW2 6218   3.182   2.858   2.474
 2070SOL     OW 6219   2.692   3.135   3.284
 2070SOL    HW1 6220   2.687   3.168   3.379
 2070SOL    HW2 6221   2.606   3.154   3.238
 2071SOL     OW 6222   2.534   3.478   2.016
 2071SOL    HW1 6223   2.543   3.488   1.917
 2071SOL    HW2 6224   2.494   3.389   2.037
 2072SOL     OW 6225   3.512   3.582   3.256
 2072SOL    HW1 6226   3.565   3.592   3.172
 2072SOL    HW2 6227   3.485   3.672   3.290
 2073SOL     OW 6228   3.703   2.037   2.825
 2073SOL    HW1 6229   3.742   1.952   2.789
 2073SOL    HW2 6230   3.605   2.039   2.806
 2074SOL     OW 6231   2.125   2.188   2.582
 2074SOL    HW1 6232   2.046   2.239   2.548
 2074SOL    HW2 6233   2.116   2.173   2.680
 2075SOL     OW 6234   3.056   3.474   1.893
 2075SOL    HW1 6235   3.062   3.381   1.930
 2075SOL    HW2 6236   2.997   3.474   1.813
 2076SOL     OW 6237   2.684   2.864   3.234
 2076SOL    HW1 6238   2.724   2.863   3.142
 2076SOL    HW2 6239   2.694   2.956   3.274
 2077SOL     OW 6240   2.778   2.772   2.153
 2077SOL    HW1 6241   2.841   2.810   2.085
 2077SOL    HW2 6242   2.818   2.689   2.192
 2078SOL     OW 6243   3.366   3.469   1.906
 2078SOL    HW1 6244   3.274   3.506   1.913
 2078SOL    HW2 6245   3.404   3.489   1.816
 2079SOL     OW 6246   2.234   3.150   3.352
 2079SOL    HW1 6247   2.221   3.243   3.318
 2079SOL    HW2 6248   2.150   3.098   3.339
 2080SOL     OW 6249   3.476   3.154   3.151
 2080SOL    HW1 6250   3.536   3.157   3.231
 2080SOL    HW2 6251   3.401   3.218   3.164
 2081SOL     OW 6252   2.901   2.960   2.558
 2081SOL    HW1 6253   2.831   2.913   2.612
 2081SOL    HW2 6254   2.960   2.892   2.515
 2082SOL     OW 6255   2.876   2.098   2.833
 2082SOL    HW1 6256   2.868   2.062   2.740
 2082SOL    HW2 6257   2.874   2.022   2.898
 2083SOL     OW 6258   2.452   3.349   2.353
 2083SOL    HW1 6259   2.494   3.291   2.283
 2083SOL    HW2 6260   2.408   3.428   2.309
 2084SOL     OW 6261   3.571   2.247   3.243
 2084SOL    HW1 6262   3.644   2.316   3.247
 2084SOL    HW2 6263   3.599   2.172   3.184
 2085SOL     OW 6264   2.117   3.210   2.152
 2085SOL    HW1 6265   2.021   3.211   2.125
 2085SOL    HW2 6266   2.129   3.263   2.236
 2086SOL     OW 6267   1.967   2.875   3.588
 2086SOL    HW1 6268   1.890   2.842   3.642
 2086SOL    HW2 6269   2.052   2.845   3.630
 2087SOL     OW 6270   2.534   2.065   3.351
 2087SOL    HW1 6271   2.624   2.049   3.311
 2087SOL    HW2 6272   2.542   2.070   3.450
 2088SOL     OW 6273   1.937   2.207   1.895
 2088SOL    HW1 6274   1.845   2.179   1.866
 2088SOL    HW2 6275   1.968   2.284   1.839
 2089SOL     OW 6276   3.302   2.718   3.260
 2089SOL    HW1 6277   3.245   2.770   3.197
 2089SOL    HW2 6278   3.398   2.730   3.236
 2090SOL     OW 6279   1.934   2.028   2.180
 2090SOL    HW1 6280   1.917   2.111   2.126
 2090SOL    HW2 6281   2.024   1.991   2.158
 2091SOL     OW 6282   3.045   3.197   1.981
 2091SOL    HW1 6283   2.946   3.186   1.983
 2091SOL    HW2 6284   3.079   3.212   2.074
 2092SOL     OW 6285   2.475   2.704   3.293
 2092SOL    HW1 6286   2.531   2.785   3.276
 2092SOL    HW2 6287   2.534   2.624   3.296
 2093SOL     OW 6288   3.355   3.629   2.821
 2093SOL    HW1 6289   3.388   3.693   2.752
 2093SOL    HW2 6290   3.421   3.623   2.896
 2094SOL     OW 6291   2.578   2.427   3.570
 2094SOL    HW1 6292   2.597   2.492   3.644
 2094SOL    HW2 6293   2.638   2.347   3.579
 2095SOL     OW 6294   3.312   3.082   3.495
 2095SOL    HW1 6295   3.303   3.072   3.594
 2095SOL    HW2 6296   3.408   3.075   3.469
 2096SOL     OW 6297   2.252   3.603   3.422
 2096SOL    HW1 6298   2.161   3.644   3.420
 2096SOL    HW2 6299   2.245   3.509   3.454
 2097SOL     OW 6300   3.536   2.745   3.116
 2097SOL    HW1 6301   3.509   2.656   3.079
 2097SOL    HW2 6302   3.537   2.813   3.043
 2098SOL     OW 6303   3.087   2.187   2.311
 2098SOL    HW1 6304   3.152   2.113   2.300
 2098SOL    HW2 6305   3.107   2.237   2.395
 2099SOL     OW 6306   2.456   2.607   2.514
 2099SOL    HW1 6307   2.506   2.692   2.495
 2099SOL    HW2 6308   2.368   2.609   2.466
 2100SOL     OW 6309   3.639   2.204   3.504
 2100SOL    HW1 6310   3.622   2.235   3.410
 2100SOL    HW2 6311   3.555   2.167   3.542
 2101SOL     OW 6312   3.592   2.796   3.379
 2101SOL    HW1 6313   3.630   2.887   3.394
 2101SOL    HW2 6314   3.584   2.779   3.280
 2102SOL     OW 6315   2.721   3.236   1.878
 2102SOL    HW1 6316   2.675   3.251   1.966
 2102SOL    HW2 6317   2.765   3.321   1.848
 2103SOL     OW 6318   2.523   3.652   2.815
 2103SOL    HW1 6319   2.477   3.740   2.802
 2103SOL    HW2 6320   2.622   3.664   2.808
 2104SOL     OW 6321   2.721   2.818   2.723
 2104SOL    HW1 6322   2.775   2.749   2.771
 2104SOL    HW2 6323   2.689   2.887   2.789
 2105SOL     OW 6324   2.945   2.846   1.949
 2105SOL    HW1 6325   2.922   2.899   1.867
 2105SOL    HW2 6326   3.026   2.790   1.930
 2106SOL     OW 6327   3.723   3.431   2.713
 2106SOL    HW1 6328   3.652   3.419   2.643
 2106SOL    HW2 6329   3.724   3.352   2.773
 2107SOL     OW 6330   2.083   3.176   3.706
 2107SOL    HW1 6331   2.018   3.103   3.685
 2107SOL    HW2 6332   2.087   3.190   3.804
 2108SOL     OW 6333   1.941   3.102   2.515
 2108SOL    HW1 6334   1.940   3.055   2.603
 2108SOL    HW2 6335   2.023   3.074   2.464
 2109SOL     OW 6336   2.534   3.253   3.486
 2109SOL    HW1 6337   2.456   3.203   3.524
 2109SOL    HW2 6338   2.531   3.348   3.517
 2110SOL     OW 6339   3.686   2.054   3.089
 2110SOL    HW1 6340   3.682   1.964   3.133
 2110SOL    HW2 6341   3.689   2.043   2.990
 2111SOL     OW 6342   3.567   3.349   2.966
 2111SOL    HW1 6343   3.474   3.324   2.939
 2111SOL    HW2 6344   3.593   3.299   3.048
 2112SOL     OW 6345   2.179   2.409   3.142
 2112SOL    HW1 6346   2.217   2.350   3.214
 2112SOL    HW2 6347   2.219   2.383   3.054
 2113SOL     OW 6348   2.674   3.448   2.549
 2113SOL    HW1 6349   2.706   3.458   2.455
 2113SOL    HW2 6350   2.595   3.386   2.551
 2114SOL     OW 6351   3.286   2.076   2.974
 2114SOL    HW1 6352   3.338   2.011   3.029
 2114SOL    HW2 6353   3.237   2.139   3.035
 2115SOL     OW 6354   2.863   1.896   3.016
 2115SOL    HW1 6355   2.800   1.824   2.985
 2115SOL    HW2 6356   2.956   1.860   3.016
 2116SOL     OW 6357   2.632   3.192   2.163
 2116SOL    HW1 6358   2.586   3.105   2.180
 2116SOL    HW2 6359   2.723   3.189   2.204
 2117SOL     OW 6360   2.480   3.429   3.146
 2117SOL    HW1 6361   2.475   3.511   3.203
 2117SOL    HW2 6362   2.569   3.426   3.101
 2118SOL     OW 6363   3.214   1.914   2.030
 2118SOL    HW1 6364   3.249   1.873   1.946
 2118SOL    HW2 6365   3.124   1.876   2.050
 2119SOL     OW 6366   3.162   2.315   2.553
 2119SOL    HW1 6367   3.103   2.395   2.557
 2119SOL    HW2 6368   3.177   2.280   2.646
 2120SOL     OW 6369   3.455   2.083   2.744
 2120SOL    HW1 6370   3.371   2.082   2.798
 2120SOL    HW2 6371   3.457   2.166   2.688
 2121SOL     OW 6372   1.901   2.939   2.162
 2121SOL    HW1 6373   2.000   2.928   2.153
 2121SOL    HW2 6374   1.861   2.853   2.194
 2122SOL     OW 6375   2.737   3.508   2.199
 2122SOL    HW1 6376   2.660   3.473   2.145
 2122SOL    HW2 6377   2.705   3.579   2.261
 2123SOL     OW 6378   2.092   2.490   3.837
 2123SOL    HW1 6379   1.999   2.488   3.874
 2123SOL    HW2 6380   2.093   2.451   3.745
 2124SOL     OW 6381   3.617   2.469   3.955
 2124SOL    HW1 6382   3.605   2.456   3.856
 2124SOL    HW2 6383   3.587   2.388   4.004
 2125SOL     OW 6384   2.093   3.575   4.207
 2125SOL    HW1 6385   2.127   3.652   4.261
 2125SOL    HW2 6386   2.137   3.575   4.117
 2126SOL     OW 6387   2.092   3.296   4.262
 2126SOL    HW1 6388   2.066   3.392   4.262
 2126SOL    HW2 6389   2.021   3.242   4.307
 2127SOL     OW 6390   2.468   2.826   3.847
 2127SOL    HW1 6391   2.475   2.910   3.793
 2127SOL    HW2 6392   2.514   2.839   3.935
 2128SOL     OW 6393   1.984   2.505   4.287
 2128SOL    HW1 6394   1.939   2.417   4.304
 2128SOL    HW2 6395   1.983   2.559   4.371
 2129SOL     OW 6396   3.704   3.629   4.083
 2129SOL    HW1 6397   3.758   3.600   4.163
 2129SOL    HW2 6398   3.734   3.719   4.054
 2130SOL     OW 6399   1.889   3.458   3.841
 2130SOL    HW1 6400   1.870   3.362   3.862
 2130SOL    HW2 6401   1.856   3.516   3.916
 2131SOL     OW 6402   3.551   2.784   4.336
 2131SOL    HW1 6403   3.646   2.755   4.344
 2131SOL    HW2 6404   3.543   2.849   4.261
 2132SOL     OW 6405   3.503   2.970   4.156
 2132SOL    HW1 6406   3.589   2.972   4.104
 2132SOL    HW2 6407   3.517   3.017   4.244
 2133SOL     OW 6408   2.475   3.227   4.450
 2133SOL    HW1 6409   2.426   3.140   4.459
 2133SOL    HW2 6410   2.452   3.270   4.363
 2134SOL     OW 6411   2.671   1.866   4.226
 2134SOL    HW1 6412   2.711   1.957   4.217
 2134SOL    HW2 6413   2.571   1.874   4.232
 2135SOL     OW 6414   3.387   2.861   3.914
 2135SOL    HW1 6415   3.324   2.785   3.927
 2135SOL    HW2 6416   3.435   2.879   4.000
 2136SOL     OW 6417   3.328   3.279   4.677
 2136SOL    HW1 6418   3.269   3.285   4.757
 2136SOL    HW2 6419   3.313   3.191   4.631
 2137SOL     OW 6420   2.460   2.591   3.994
 2137SOL    HW1 6421   2.484   2.660   3.926
 2137SOL    HW2 6422   2.382   2.624   4.048
 2138SOL     OW 6423   3.438   3.524   4.031
 2138SOL    HW1 6424   3.527   3.570   4.034
 2138SOL    HW2 6425   3.417   3.500   3.936
 2139SOL     OW 6426   2.903   2.563   4.153
 2139SOL    HW1 6427   2.929   2.559   4.249
 2139SOL    HW2 6428   2.818   2.512   4.139
 2140SOL     OW 6429   1.938   2.673   4.513
 2140SOL    HW1 6430   2.037   2.661   4.522
 2140SOL    HW2 6431   1.914   2.768   4.534
 2141SOL     OW 6432   2.727   2.210   3.919
 2141SOL    HW1 6433   2.786   2.273   3.870
 2141SOL    HW2 6434   2.746   2.116   3.890
 2142SOL     OW 6435   3.224   3.006   4.269
 2142SOL    HW1 6436   3.307   2.977   4.221
 2142SOL    HW2 6437   3.175   3.073   4.213
 2143SOL     OW 6438   2.870   3.318   4.201
 2143SOL    HW1 6439   2.824   3.390   4.149
 2143SOL    HW2 6440   2.866   3.338   4.299
 2144SOL     OW 6441   2.213   3.663   4.577
 2144SOL    HW1 6442   2.263   3.577   4.583
 2144SOL    HW2 6443   2.278   3.740   4.574
 2145SOL     OW 6444   3.657   2.928   4.597
 2145SOL    HW1 6445   3.595   2.913   4.521
 2145SOL    HW2 6446   3.605   2.939   4.682
 2146SOL     OW 6447   2.183   2.805   3.966
 2146SOL    HW1 6448   2.265   2.844   3.924
 2146SOL    HW2 6449   2.156   2.723   3.917
 2147SOL     OW 6450   2.973   3.638   3.961
 2147SOL    HW1 6451   2.913   3.576   4.011
 2147SOL    HW2 6452   3.004   3.594   3.876
 2148SOL     OW 6453   3.494   3.239   3.805
 2148SOL    HW1 6454   3.462   3.333   3.795
 2148SOL    HW2 6455   3.418   3.176   3.793
 2149SOL     OW 6456   2.326   3.605   4.047
 2149SOL    HW1 6457   2.359   3.644   4.133
 2149SOL    HW2 6458   2.402   3.598   3.982
 2150SOL     OW 6459   3.262   1.969   4.150
 2150SOL    HW1 6460   3.238   1.932   4.060
 2150SOL    HW2 6461   3.361   1.985   4.154
 2151SOL     OW 6462   2.244   2.562   4.204
 2151SOL    HW1 6463   2.289   2.472   4.201
 2151SOL    HW2 6464   2.150   2.551   4.237
 2152SOL     OW 6465   2.476   1.984   3.841
 2152SOL    HW1 6466   2.574   1.962   3.848
 2152SOL    HW2 6467   2.445   1.967   3.748
 2153SOL     OW 6468   2.401   1.926   4.236
 2153SOL    HW1 6469   2.320   1.927   4.294
 2153SOL    HW2 6470   2.404   2.009   4.181
 2154SOL     OW 6471   3.296   3.050   3.765
 2154SOL    HW1 6472   3.328   2.974   3.822
 2154SOL    HW2 6473   3.204   3.077   3.795
 2155SOL     OW 6474   2.159   1.897   3.895
 2155SOL    HW1 6475   2.208   1.981   3.874
 2155SOL    HW2 6476   2.221   1.832   3.940
 2156SOL     OW 6477   2.797   2.098   4.204
 2156SOL    HW1 6478   2.749   2.139   4.126
 2156SOL    HW2 6479   2.896   2.096   4.185
 2157SOL     OW 6480   2.321   3.014   4.465
 2157SOL    HW1 6481   2.250   2.987   4.530
 2157SOL    HW2 6482   2.295   2.986   4.372
 2158SOL     OW 6483   3.133   3.659   4.315
 2158SOL    HW1 6484   3.177   3.723   4.251
 2158SOL    HW2 6485   3.083   3.711   4.385
 2159SOL     OW 6486   2.894   2.411   3.740
 2159SOL    HW1 6487   2.853   2.493   3.701
 2159SOL    HW2 6488   2.958   2.437   3.813
 2160SOL     OW 6489   2.728   2.316   4.366
 2160SOL    HW1 6490   2.696   2.388   4.304
 2160SOL    HW2 6491   2.752   2.235   4.313
 2161SOL     OW 6492   3.719   2.695   4.101
 2161SOL    HW1 6493   3.761   2.631   4.165
 2161SOL    HW2 6494   3.681   2.644   4.023
 2162SOL     OW 6495   2.350   3.247   3.898
 2162SOL    HW1 6496   2.263   3.232   3.945
 2162SOL    HW2 6497   2.333   3.273   3.803
 2163SOL     OW 6498   3.252   2.437   3.802
 2163SOL    HW1 6499   3.198   2.416   3.883
 2163SOL    HW2 6500   3.343   2.396   3.811
 2164SOL     OW 6501   2.389   2.118   4.052
 2164SOL    HW1 6502   2.416   2.059   3.977
 2164SOL    HW2 6503   2.389   2.213   4.021
 2165SOL     OW 6504   2.567   2.912   4.092
 2165SOL    HW1 6505   2.553   2.919   4.191
 2165SOL    HW2 6506   2.651   2.861   4.074
 2166SOL     OW 6507   2.229   2.962   4.225
 2166SOL    HW1 6508   2.222   3.045   4.169
 2166SOL    HW2 6509   2.233   2.882   4.165
 2167SOL     OW 6510   3.114   3.210   4.112
 2167SOL    HW1 6511   3.164   3.287   4.152
 2167SOL    HW2 6512   3.019   3.212   4.144
 2168SOL     OW 6513   3.444   2.501   4.196
 2168SOL    HW1 6514   3.413   2.562   4.269
 2168SOL    HW2 6515   3.494   2.553   4.127
 2169SOL     OW 6516   3.071   2.387   3.999
 2169SOL    HW1 6517   3.084   2.303   4.053
 2169SOL    HW2 6518   3.042   2.461   4.059
 2170SOL     OW 6519   2.169   1.925   4.342
 2170SOL    HW1 6520   2.158   2.019   4.375
 2170SOL    HW2 6521   2.164   1.862   4.419
 2171SOL     OW 6522   3.484   2.229   4.098
 2171SOL    HW1 6523   3.486   2.153   4.162
 2171SOL    HW2 6524   3.436   2.306   4.138
 2172SOL     OW 6525   3.402   2.136   3.849
 2172SOL    HW1 6526   3.341   2.061   3.872
 2172SOL    HW2 6527   3.424   2.188   3.932
 2173SOL     OW 6528   3.165   2.700   3.766
 2173SOL    HW1 6529   3.199   2.607   3.781
 2173SOL    HW2 6530   3.183   2.727   3.671
 2174SOL     OW 6531   1.870   3.188   3.924
 2174SOL    HW1 6532   1.777   3.209   3.893
 2174SOL    HW2 6533   1.880   3.089   3.937
 2175SOL     OW 6534   2.677   2.434   4.049
 2175SOL    HW1 6535   2.684   2.345   4.003
 2175SOL    HW2 6536   2.583   2.468   4.041
 2176SOL     OW 6537   2.335   2.362   3.915
 2176SOL    HW1 6538   2.396   2.442   3.919
 2176SOL    HW2 6539   2.240   2.393   3.922
 2177SOL     OW 6540   3.164   2.717   4.033
 2177SOL    HW1 6541   3.078   2.686   4.075
 2177SOL    HW2 6542   3.160   2.703   3.934
 2178SOL     OW 6543   3.588   1.997   4.247
 2178SOL    HW1 6544   3.661   1.980   4.180
 2178SOL    HW2 6545   3.557   1.910   4.285
 2179SOL     OW 6546   3.250   3.435   4.201
 2179SOL    HW1 6547   3.317   3.447   4.127
 2179SOL    HW2 6548   3.210   3.524   4.224
 2180SOL     OW 6549   2.534   3.478   3.878
 2180SOL    HW1 6550   2.543   3.488   3.779
 2180SOL    HW2 6551   2.494   3.389   3.899
 2181SOL     OW 6552   3.703   2.037   4.687
 2181SOL    HW1 6553   3.742   1.952   4.651
 2181SOL    HW2 6554   3.605   2.039   4.668
 2182SOL     OW 6555   3.056   3.474   3.755
 2182SOL    HW1 6556   3.062   3.381   3.792
 2182SOL    HW2 6557   2.997   3.474   3.675
 2183SOL     OW 6558   2.778   2.772   4.015
 2183SOL    HW1 6559   2.841   2.810   3.947
 2183SOL    HW2 6560   2.818   2.689   4.054
 2184SOL     OW 6561   3.366   3.469   3.768
 2184SOL    HW1 6562   3.274   3.506   3.775
 2184SOL    HW2 6563   3.404   3.489   3.678
 2185SOL     OW 6564   2.452   3.349   4.215
 2185SOL    HW1 6565   2.494   3.291   4.145
 2185SOL    HW2 6566   2.408   3.428   4.171
 2186SOL     OW 6567   2.117   3.210   4.014
 2186SOL    HW1 6568   2.021   3.211   3.987
 2186SOL    HW2 6569   2.129   3.263   4.098
 2187SOL     OW 6570   1.937   2.207   3.757
 2187SOL    HW1 6571   1.845   2.179   3.728
 2187SOL    HW2 6572   1.968   2.284   3.701
 2188SOL     OW 6573   1.934   2.028   4.042
 2188SOL    HW1 6574   1.917   2.111   3.988
 2188SOL    HW2 6575   2.024   1.991   4.020
 2189SOL     OW 6576   3.045   3.197   3.843
 2189SOL    HW1 6577   2.946   3.186   3.845
 2189SOL    HW2 6578   3.079   3.212   3.936
 2190SOL     OW 6579   3.087   2.187   4.173
 2190SOL    HW1 6580   3.152   2.113   4.162
 2190SOL    HW2 6581   3.107   2.237   4.257
 2191SOL     OW 6582   2.456   2.607   4.376
 2191SOL    HW1 6583   2.506   2.692   4.357
 2191SOL    HW2 6584   2.368   2.609   4.328
 2192SOL     OW 6585   2.721   3.236   3.740
 2192SOL    HW1 6586   2.675   3.251   3.828
 2192SOL    HW2 6587   2.765   3.321   3.710
 2193SOL     OW 6588   2.945   2.846   3.811
 2193SOL    HW1 6589   2.922   2.899   3.729
 2193SOL    HW2 6590   3.026   2.790   3.792
 2194SOL     OW 6591   1.941   3.102   4.377
 2194SOL    HW1 6592   1.940   3.055   4.465
 2194SOL    HW2 6593   2.023   3.074   4.326
 2195SOL     OW 6594   2.290   2.286   4.244
 2195SOL    HW1 6595   2.320   2.214   4.182
 2195SOL    HW2 6596   2.251   2.246   4.327
 2196SOL     OW 6597   2.674   3.448   4.411
 2196SOL    HW1 6598   2.706   3.458   4.317
 2196SOL    HW2 6599   2.595   3.386   4.413
 2197SOL     OW 6600   2.632   3.192   4.025
 2197SOL    HW1 6601   2.586   3.105   4.042
 2197SOL    HW2 6602   2.723   3.189   4.066
 2198SOL     OW 6603   3.214   1.914   3.892
 2198SOL    HW1 6604   3.249   1.873   3.808
 2198SOL    HW2 6605   3.124   1.876   3.912
 2199SOL     OW 6606   3.162   2.315   4.415
 2199SOL    HW1 6607   3.103   2.395   4.419
 2199SOL    HW2 6608   3.177   2.280   4.508
 2200SOL     OW 6609   1.901   2.939   4.024
 2200SOL    HW1 6610   2.000   2.928   4.015
 2200SOL    HW2 6611   1.861   2.853   4.056
 2201SOL     OW 6612   2.737   3.508   4.061
 2201SOL    HW1 6613   2.660   3.473   4.007
 2201SOL    HW2 6614   2.705   3.579   4.123
 2202SOL     OW 6615   2.087   3.999   0.996
 2202SOL    HW1 6616   2.122   3.982   1.088
 2202SOL    HW2 6617   1.999   3.954   0.984
 2203SOL     OW 6618   1.881   4.092   0.647
 2203SOL    HW1 6619   1.799   4.135   0.686
 2203SOL    HW2 6620   1.853   4.019   0.584
 2204SOL     OW 6621   3.617   4.331   0.231
 2204SOL    HW1 6622   3.605   4.318   0.132
 2204SOL    HW2 6623   3.587   4.250   0.280
 2205SOL     OW 6624   2.300   4.116   1.499
 2205SOL    HW1 6625   2.382   4.060   1.508
 2205SOL    HW2 6626   2.219   4.058   1.503
 2206SOL     OW 6627   3.465   4.171   0.737
 2206SOL    HW1 6628   3.391   4.217   0.687
 2206SOL    HW2 6629   3.516   4.239   0.790
 2207SOL     OW 6630   3.456   3.838   1.480
 2207SOL    HW1 6631   3.438   3.905   1.408
 2207SOL    HW2 6632   3.453   3.884   1.569
 2208SOL     OW 6633   1.984   4.367   0.563
 2208SOL    HW1 6634   1.939   4.279   0.580
 2208SOL    HW2 6635   1.983   4.421   0.647
 2209SOL     OW 6636   1.975   4.461   1.597
 2209SOL    HW1 6637   2.063   4.448   1.642
 2209SOL    HW2 6638   1.962   4.558   1.575
 2210SOL     OW 6639   2.671   3.728   0.502
 2210SOL    HW1 6640   2.711   3.819   0.493
 2210SOL    HW2 6641   2.571   3.736   0.508
 2211SOL     OW 6642   2.179   3.975   1.801
 2211SOL    HW1 6643   2.250   4.046   1.807
 2211SOL    HW2 6644   2.091   4.014   1.829
 2212SOL     OW 6645   3.143   4.069   0.944
 2212SOL    HW1 6646   3.057   4.019   0.931
 2212SOL    HW2 6647   3.205   4.015   1.000
 2213SOL     OW 6648   2.669   4.329   1.465
 2213SOL    HW1 6649   2.622   4.326   1.554
 2213SOL    HW2 6650   2.618   4.274   1.399
 2214SOL     OW 6651   3.256   4.193   1.674
 2214SOL    HW1 6652   3.236   4.236   1.762
 2214SOL    HW2 6653   3.334   4.131   1.683
 2215SOL     OW 6654   2.853   4.134   1.242
 2215SOL    HW1 6655   2.776   4.168   1.296
 2215SOL    HW2 6656   2.819   4.083   1.163
 2216SOL     OW 6657   2.903   4.425   0.429
 2216SOL    HW1 6658   2.929   4.421   0.525
 2216SOL    HW2 6659   2.818   4.374   0.415
 2217SOL     OW 6660   2.727   4.072   0.195
 2217SOL    HW1 6661   2.786   4.135   0.146
 2217SOL    HW2 6662   2.746   3.978   0.166
 2218SOL     OW 6663   3.581   4.309   1.831
 2218SOL    HW1 6664   3.555   4.398   1.795
 2218SOL    HW2 6665   3.579   4.241   1.758
 2219SOL     OW 6666   2.412   3.920   0.885
 2219SOL    HW1 6667   2.407   3.915   0.985
 2219SOL    HW2 6668   2.414   4.016   0.856
 2220SOL     OW 6669   3.320   4.459   0.728
 2220SOL    HW1 6670   3.315   4.394   0.803
 2220SOL    HW2 6671   3.400   4.518   0.741
 2221SOL     OW 6672   2.064   4.009   1.498
 2221SOL    HW1 6673   1.984   4.069   1.485
 2221SOL    HW2 6674   2.054   3.960   1.584
 2222SOL     OW 6675   3.262   3.831   0.426
 2222SOL    HW1 6676   3.238   3.794   0.336
 2222SOL    HW2 6677   3.361   3.847   0.430
 2223SOL     OW 6678   3.409   3.946   1.729
 2223SOL    HW1 6679   3.404   3.983   1.821
 2223SOL    HW2 6680   3.337   3.877   1.717
 2224SOL     OW 6681   2.476   3.846   0.117
 2224SOL    HW1 6682   2.574   3.824   0.124
 2224SOL    HW2 6683   2.445   3.829   0.024
 2225SOL     OW 6684   2.643   3.988   1.749
 2225SOL    HW1 6685   2.710   3.927   1.792
 2225SOL    HW2 6686   2.570   4.007   1.814
 2226SOL     OW 6687   3.213   4.314   1.433
 2226SOL    HW1 6688   3.241   4.271   1.518
 2226SOL    HW2 6689   3.238   4.410   1.434
 2227SOL     OW 6690   2.784   4.227   0.899
 2227SOL    HW1 6691   2.759   4.218   0.803
 2227SOL    HW2 6692   2.832   4.145   0.930
 2228SOL     OW 6693   2.401   3.788   0.512
 2228SOL    HW1 6694   2.320   3.789   0.570
 2228SOL    HW2 6695   2.404   3.871   0.457
 2229SOL     OW 6696   2.797   3.960   0.480
 2229SOL    HW1 6697   2.749   4.001   0.402
 2229SOL    HW2 6698   2.896   3.958   0.461
 2230SOL     OW 6699   2.938   4.407   1.464
 2230SOL    HW1 6700   2.858   4.346   1.467
 2230SOL    HW2 6701   3.019   4.354   1.440
 2231SOL     OW 6702   2.894   4.273   0.016
 2231SOL    HW1 6703   2.853   4.355  -0.023
 2231SOL    HW2 6704   2.958   4.299   0.089
 2232SOL     OW 6705   1.940   4.280   1.386
 2232SOL    HW1 6706   2.032   4.279   1.345
 2232SOL    HW2 6707   1.934   4.354   1.453
 2233SOL     OW 6708   2.423   3.946   1.147
 2233SOL    HW1 6709   2.461   3.862   1.184
 2233SOL    HW2 6710   2.335   3.965   1.191
 2234SOL     OW 6711   2.728   4.178   0.642
 2234SOL    HW1 6712   2.696   4.250   0.580
 2234SOL    HW2 6713   2.752   4.097   0.589
 2235SOL     OW 6714   2.879   3.763   0.753
 2235SOL    HW1 6715   2.807   3.768   0.684
 2235SOL    HW2 6716   2.855   3.694   0.822
 2236SOL     OW 6717   3.328   4.314   0.992
 2236SOL    HW1 6718   3.298   4.219   0.999
 2236SOL    HW2 6719   3.401   4.330   1.058
 2237SOL     OW 6720   2.389   3.980   0.328
 2237SOL    HW1 6721   2.416   3.921   0.253
 2237SOL    HW2 6722   2.389   4.075   0.297
 2238SOL     OW 6723   2.777   3.813   1.402
 2238SOL    HW1 6724   2.802   3.793   1.307
 2238SOL    HW2 6725   2.849   3.869   1.444
 2239SOL     OW 6726   3.136   4.110   1.262
 2239SOL    HW1 6727   3.157   4.184   1.326
 2239SOL    HW2 6728   3.047   4.127   1.219
 2240SOL     OW 6729   2.428   4.261   0.865
 2240SOL    HW1 6730   2.440   4.327   0.791
 2240SOL    HW2 6731   2.474   4.295   0.948
 2241SOL     OW 6732   3.444   4.363   0.472
 2241SOL    HW1 6733   3.413   4.424   0.545
 2241SOL    HW2 6734   3.494   4.415   0.403
 2242SOL     OW 6735   2.875   3.829   1.770
 2242SOL    HW1 6736   2.881   3.914   1.718
 2242SOL    HW2 6737   2.907   3.753   1.713
 2243SOL     OW 6738   2.366   3.774   1.740
 2243SOL    HW1 6739   2.324   3.717   1.670
 2243SOL    HW2 6740   2.300   3.843   1.772
 2244SOL     OW 6741   3.071   4.249   0.275
 2244SOL    HW1 6742   3.084   4.165   0.329
 2244SOL    HW2 6743   3.042   4.323   0.335
 2245SOL     OW 6744   2.169   3.937   1.231
 2245SOL    HW1 6745   2.146   3.974   1.321
 2245SOL    HW2 6746   2.139   3.842   1.225
 2246SOL     OW 6747   2.594   4.358   1.064
 2246SOL    HW1 6748   2.653   4.332   0.988
 2246SOL    HW2 6749   2.566   4.454   1.053
 2247SOL     OW 6750   2.169   3.787   0.618
 2247SOL    HW1 6751   2.158   3.881   0.651
 2247SOL    HW2 6752   2.164   3.724   0.695
 2248SOL     OW 6753   3.484   4.091   0.374
 2248SOL    HW1 6754   3.486   4.015   0.438
 2248SOL    HW2 6755   3.436   4.168   0.414
 2249SOL     OW 6756   3.402   3.998   0.125
 2249SOL    HW1 6757   3.341   3.923   0.148
 2249SOL    HW2 6758   3.424   4.050   0.208
 2250SOL     OW 6759   2.181   4.534   0.949
 2250SOL    HW1 6760   2.274   4.570   0.954
 2250SOL    HW2 6761   2.175   4.449   1.001
 2251SOL     OW 6762   2.201   4.233   1.006
 2251SOL    HW1 6763   2.149   4.150   0.989
 2251SOL    HW2 6764   2.278   4.238   0.942
 2252SOL     OW 6765   3.000   4.104   1.678
 2252SOL    HW1 6766   2.955   4.167   1.742
 2252SOL    HW2 6767   3.093   4.135   1.661
 2253SOL     OW 6768   3.022   3.931   1.477
 2253SOL    HW1 6769   3.022   3.995   1.554
 2253SOL    HW2 6770   3.050   3.979   1.394
 2254SOL     OW 6771   1.902   4.268   1.114
 2254SOL    HW1 6772   1.987   4.235   1.073
 2254SOL    HW2 6773   1.915   4.283   1.212
 2255SOL     OW 6774   2.051   4.244   1.722
 2255SOL    HW1 6775   2.110   4.204   1.652
 2255SOL    HW2 6776   1.993   4.315   1.681
 2256SOL     OW 6777   2.677   4.296   0.325
 2256SOL    HW1 6778   2.684   4.207   0.279
 2256SOL    HW2 6779   2.583   4.330   0.317
 2257SOL     OW 6780   3.519   4.328   1.206
 2257SOL    HW1 6781   3.481   4.259   1.268
 2257SOL    HW2 6782   3.601   4.292   1.162
 2258SOL     OW 6783   2.533   4.188   1.269
 2258SOL    HW1 6784   2.499   4.099   1.239
 2258SOL    HW2 6785   2.559   4.242   1.189
 2259SOL     OW 6786   2.335   4.224   0.191
 2259SOL    HW1 6787   2.396   4.304   0.195
 2259SOL    HW2 6788   2.240   4.255   0.198
 2260SOL     OW 6789   2.765   3.810   0.133
 2260SOL    HW1 6790   2.816   3.811   0.047
 2260SOL    HW2 6791   2.821   3.768   0.204
 2261SOL     OW 6792   3.588   3.859   0.523
 2261SOL    HW1 6793   3.661   3.842   0.456
 2261SOL    HW2 6794   3.557   3.772   0.561
 2262SOL     OW 6795   3.142   4.651   0.672
 2262SOL    HW1 6796   3.202   4.570   0.674
 2262SOL    HW2 6797   3.182   4.720   0.612
 2263SOL     OW 6798   3.703   3.899   0.963
 2263SOL    HW1 6799   3.742   3.814   0.927
 2263SOL    HW2 6800   3.605   3.901   0.944
 2264SOL     OW 6801   2.125   4.050   0.720
 2264SOL    HW1 6802   2.046   4.101   0.686
 2264SOL    HW2 6803   2.116   4.035   0.818
 2265SOL     OW 6804   2.876   3.960   0.971
 2265SOL    HW1 6805   2.868   3.924   0.878
 2265SOL    HW2 6806   2.874   3.884   1.036
 2266SOL     OW 6807   3.571   4.109   1.381
 2266SOL    HW1 6808   3.644   4.178   1.385
 2266SOL    HW2 6809   3.599   4.034   1.322
 2267SOL     OW 6810   2.534   3.927   1.489
 2267SOL    HW1 6811   2.624   3.911   1.449
 2267SOL    HW2 6812   2.542   3.932   1.588
 2268SOL     OW 6813   1.937   4.069   0.033
 2268SOL    HW1 6814   1.845   4.041   0.004
 2268SOL    HW2 6815   1.968   4.146  -0.023
 2269SOL     OW 6816   2.578   4.289   1.708
 2269SOL    HW1 6817   2.597   4.354   1.782
 2269SOL    HW2 6818   2.638   4.209   1.717
 2270SOL     OW 6819   3.087   4.049   0.449
 2270SOL    HW1 6820   3.152   3.975   0.438
 2270SOL    HW2 6821   3.107   4.099   0.533
 2271SOL     OW 6822   3.639   4.066   1.642
 2271SOL    HW1 6823   3.622   4.097   1.548
 2271SOL    HW2 6824   3.555   4.029   1.680
 2272SOL     OW 6825   2.945   4.708   0.087
 2272SOL    HW1 6826   2.922   4.761   0.005
 2272SOL    HW2 6827   3.026   4.652   0.068
 2273SOL     OW 6828   3.686   3.916   1.227
 2273SOL    HW1 6829   3.682   3.826   1.271
 2273SOL    HW2 6830   3.689   3.905   1.128
 2274SOL     OW 6831   2.290   4.148   0.520
 2274SOL    HW1 6832   2.320   4.076   0.458
 2274SOL    HW2 6833   2.251   4.108   0.603
 2275SOL     OW 6834   2.179   4.271   1.280
 2275SOL    HW1 6835   2.217   4.212   1.352
 2275SOL    HW2 6836   2.219   4.245   1.192
 2276SOL     OW 6837   3.286   3.938   1.112
 2276SOL    HW1 6838   3.338   3.873   1.167
 2276SOL    HW2 6839   3.237   4.001   1.173
 2277SOL     OW 6840   2.863   3.758   1.154
 2277SOL    HW1 6841   2.800   3.686   1.123
 2277SOL    HW2 6842   2.956   3.722   1.154
 2278SOL     OW 6843   3.214   3.776   0.168
 2278SOL    HW1 6844   3.249   3.735   0.084
 2278SOL    HW2 6845   3.124   3.738   0.188
 2279SOL     OW 6846   3.162   4.177   0.691
 2279SOL    HW1 6847   3.103   4.257   0.695
 2279SOL    HW2 6848   3.177   4.142   0.784
 2280SOL     OW 6849   3.455   3.945   0.882
 2280SOL    HW1 6850   3.371   3.944   0.936
 2280SOL    HW2 6851   3.457   4.028   0.826
 2281SOL     OW 6852   2.087   3.999   2.858
 2281SOL    HW1 6853   2.122   3.982   2.950
 2281SOL    HW2 6854   1.999   3.954   2.846
 2282SOL     OW 6855   1.881   4.092   2.509
 2282SOL    HW1 6856   1.799   4.135   2.548
 2282SOL    HW2 6857   1.853   4.019   2.446
 2283SOL     OW 6858   3.617   4.331   2.093
 2283SOL    HW1 6859   3.605   4.318   1.994
 2283SOL    HW2 6860   3.587   4.250   2.142
 2284SOL     OW 6861   2.300   4.116   3.361
 2284SOL    HW1 6862   2.382   4.060   3.370
 2284SOL    HW2 6863   2.219   4.058   3.365
 2285SOL     OW 6864   3.465   4.171   2.599
 2285SOL    HW1 6865   3.391   4.217   2.549
 2285SOL    HW2 6866   3.516   4.239   2.652
 2286SOL     OW 6867   3.456   3.838   3.342
 2286SOL    HW1 6868   3.438   3.905   3.270
 2286SOL    HW2 6869   3.453   3.884   3.431
 2287SOL     OW 6870   1.984   4.367   2.425
 2287SOL    HW1 6871   1.939   4.279   2.442
 2287SOL    HW2 6872   1.983   4.421   2.509
 2288SOL     OW 6873   1.975   4.461   3.459
 2288SOL    HW1 6874   2.063   4.448   3.504
 2288SOL    HW2 6875   1.962   4.558   3.437
 2289SOL     OW 6876   2.671   3.728   2.364
 2289SOL    HW1 6877   2.711   3.819   2.355
 2289SOL    HW2 6878   2.571   3.736   2.370
 2290SOL     OW 6879   2.179   3.975   3.663
 2290SOL    HW1 6880   2.250   4.046   3.669
 2290SOL    HW2 6881   2.091   4.014   3.691
 2291SOL     OW 6882   3.143   4.069   2.806
 2291SOL    HW1 6883   3.057   4.019   2.793
 2291SOL    HW2 6884   3.205   4.015   2.862
 2292SOL     OW 6885   2.669   4.329   3.327
 2292SOL    HW1 6886   2.622   4.326   3.416
 2292SOL    HW2 6887   2.618   4.274   3.261
 2293SOL     OW 6888   3.256   4.193   3.536
 2293SOL    HW1 6889   3.236   4.236   3.624
 2293SOL    HW2 6890   3.334   4.131   3.545
 2294SOL     OW 6891   2.853   4.134   3.104
 2294SOL    HW1 6892   2.776   4.168   3.158
 2294SOL    HW2 6893   2.819   4.083   3.025
 2295SOL     OW 6894   2.903   4.425   2.291
 2295SOL    HW1 6895   2.929   4.421   2.387
 2295SOL    HW2 6896   2.818   4.374   2.277
 2296SOL     OW 6897   2.727   4.072   2.057
 2296SOL    HW1 6898   2.786   4.135   2.008
 2296SOL    HW2 6899   2.746   3.978   2.028
 2297SOL     OW 6900   3.581   4.309   3.693
 2297SOL    HW1 6901   3.555   4.398   3.657
 2297SOL    HW2 6902   3.579   4.241   3.620
 2298SOL     OW 6903   2.412   3.920   2.747
 2298SOL    HW1 6904   2.407   3.915   2.847
 2298SOL    HW2 6905   2.414   4.016   2.718
 2299SOL     OW 6906   3.320   4.459   2.590
 2299SOL    HW1 6907   3.315   4.394   2.665
 2299SOL    HW2 6908   3.400   4.518   2.603
 2300SOL     OW 6909   2.064   4.009   3.360
 2300SOL    HW1 6910   1.984   4.069   3.347
 2300SOL    HW2 6911   2.054   3.960   3.446
 2301SOL     OW 6912   3.262   3.831   2.288
 2301SOL    HW1 6913   3.238   3.794   2.198
 2301SOL    HW2 6914   3.361   3.847   2.292
 2302SOL     OW 6915   3.409   3.946   3.591
 2302SOL    HW1 6916   3.404   3.983   3.683
 2302SOL    HW2 6917   3.337   3.877   3.579
 2303SOL     OW 6918   2.476   3.846   1.979
 2303SOL    HW1 6919   2.574   3.824   1.986
 2303SOL    HW2 6920   2.445   3.829   1.886
 2304SOL     OW 6921   2.643   3.988   3.611
 2304SOL    HW1 6922   2.710   3.927   3.654
 2304SOL    HW2 6923   2.570   4.007   3.676
 2305SOL     OW 6924   3.213   4.314   3.295
 2305SOL    HW1 6925   3.241   4.271   3.380
 2305SOL    HW2 6926   3.238   4.410   3.296
 2306SOL     OW 6927   2.784   4.227   2.761
 2306SOL    HW1 6928   2.759   4.218   2.665
 2306SOL    HW2 6929   2.832   4.145   2.792
 2307SOL     OW 6930   2.401   3.788   2.374
 2307SOL    HW1 6931   2.320   3.789   2.432
 2307SOL    HW2 6932   2.404   3.871   2.319
 2308SOL     OW 6933   2.159   3.759   2.033
 2308SOL    HW1 6934   2.208   3.843   2.012
 2308SOL    HW2 6935   2.221   3.694   2.078
 2309SOL     OW 6936   2.797   3.960   2.342
 2309SOL    HW1 6937   2.749   4.001   2.264
 2309SOL    HW2 6938   2.896   3.958   2.323
 2310SOL     OW 6939   2.938   4.407   3.326
 2310SOL    HW1 6940   2.858   4.346   3.329
 2310SOL    HW2 6941   3.019   4.354   3.302
 2311SOL     OW 6942   2.894   4.273   1.878
 2311SOL    HW1 6943   2.853   4.355   1.839
 2311SOL    HW2 6944   2.958   4.299   1.951
 2312SOL     OW 6945   1.940   4.280   3.248
 2312SOL    HW1 6946   2.032   4.279   3.207
 2312SOL    HW2 6947   1.934   4.354   3.315
 2313SOL     OW 6948   2.423   3.946   3.009
 2313SOL    HW1 6949   2.461   3.862   3.046
 2313SOL    HW2 6950   2.335   3.965   3.053
 2314SOL     OW 6951   2.728   4.178   2.504
 2314SOL    HW1 6952   2.696   4.250   2.442
 2314SOL    HW2 6953   2.752   4.097   2.451
 2315SOL     OW 6954   2.879   3.763   2.615
 2315SOL    HW1 6955   2.807   3.768   2.546
 2315SOL    HW2 6956   2.855   3.694   2.684
 2316SOL     OW 6957   3.328   4.314   2.854
 2316SOL    HW1 6958   3.298   4.219   2.861
 2316SOL    HW2 6959   3.401   4.330   2.920
 2317SOL     OW 6960   2.389   3.980   2.190
 2317SOL    HW1 6961   2.416   3.921   2.115
 2317SOL    HW2 6962   2.389   4.075   2.159
 2318SOL     OW 6963   2.777   3.813   3.264
 2318SOL    HW1 6964   2.802   3.793   3.169
 2318SOL    HW2 6965   2.849   3.869   3.306
 2319SOL     OW 6966   3.136   4.110   3.124
 2319SOL    HW1 6967   3.157   4.184   3.188
 2319SOL    HW2 6968   3.047   4.127   3.081
 2320SOL     OW 6969   2.428   4.261   2.727
 2320SOL    HW1 6970   2.440   4.327   2.653
 2320SOL    HW2 6971   2.474   4.295   2.810
 2321SOL     OW 6972   3.444   4.363   2.334
 2321SOL    HW1 6973   3.413   4.424   2.407
 2321SOL    HW2 6974   3.494   4.415   2.265
 2322SOL     OW 6975   2.875   3.829   3.632
 2322SOL    HW1 6976   2.881   3.914   3.580
 2322SOL    HW2 6977   2.907   3.753   3.575
 2323SOL     OW 6978   2.366   3.774   3.602
 2323SOL    HW1 6979   2.324   3.717   3.532
 2323SOL    HW2 6980   2.300   3.843   3.634
 2324SOL     OW 6981   3.071   4.249   2.137
 2324SOL    HW1 6982   3.084   4.165   2.191
 2324SOL    HW2 6983   3.042   4.323   2.197
 2325SOL     OW 6984   2.169   3.937   3.093
 2325SOL    HW1 6985   2.146   3.974   3.183
 2325SOL    HW2 6986   2.139   3.842   3.087
 2326SOL     OW 6987   2.594   4.358   2.926
 2326SOL    HW1 6988   2.653   4.332   2.850
 2326SOL    HW2 6989   2.566   4.454   2.915
 2327SOL     OW 6990   2.169   3.787   2.480
 2327SOL    HW1 6991   2.158   3.881   2.513
 2327SOL    HW2 6992   2.164   3.724   2.557
 2328SOL     OW 6993   3.484   4.091   2.236
 2328SOL    HW1 6994   3.486   4.015   2.300
 2328SOL    HW2 6995   3.436   4.168   2.276
 2329SOL     OW 6996   3.402   3.998   1.987
 2329SOL    HW1 6997   3.341   3.923   2.010
 2329SOL    HW2 6998   3.424   4.050   2.070
 2330SOL     OW 6999   2.181   4.534   2.811
 2330SOL    HW1 7000   2.274   4.570   2.816
 2330SOL    HW2 7001   2.175   4.449   2.863
 2331SOL     OW 7002   2.201   4.233   2.868
 2331SOL    HW1 7003   2.149   4.150   2.851
 2331SOL    HW2 7004   2.278   4.238   2.804
 2332SOL     OW 7005   3.000   4.104   3.540
 2332SOL    HW1 7006   2.955   4.167   3.604
 2332SOL    HW2 7007   3.093   4.135   3.523
 2333SOL     OW 7008   3.022   3.931   3.339
 2333SOL    HW1 7009   3.022   3.995   3.416
 2333SOL    HW2 7010   3.050   3.979   3.256
 2334SOL     OW 7011   1.902   4.268   2.976
 2334SOL    HW1 7012   1.987   4.235   2.935
 2334SOL    HW2 7013   1.915   4.283   3.074
 2335SOL     OW 7014   2.051   4.244   3.584
 2335SOL    HW1 7015   2.110   4.204   3.514
 2335SOL    HW2 7016   1.993   4.315   3.543
 2336SOL     OW 7017   2.677   4.296   2.187
 2336SOL    HW1 7018   2.684   4.207   2.141
 2336SOL    HW2 7019   2.583   4.330   2.179
 2337SOL     OW 7020   3.519   4.328   3.068
 2337SOL    HW1 7021   3.481   4.259   3.130
 2337SOL    HW2 7022   3.601   4.292   3.024
 2338SOL     OW 7023   2.533   4.188   3.131
 2338SOL    HW1 7024   2.499   4.099   3.101
 2338SOL    HW2 7025   2.559   4.242   3.051
 2339SOL     OW 7026   2.335   4.224   2.053
 2339SOL    HW1 7027   2.396   4.304   2.057
 2339SOL    HW2 7028   2.240   4.255   2.060
 2340SOL     OW 7029   3.588   3.859   2.385
 2340SOL    HW1 7030   3.661   3.842   2.318
 2340SOL    HW2 7031   3.557   3.772   2.423
 2341SOL     OW 7032   3.142   4.651   2.534
 2341SOL    HW1 7033   3.202   4.570   2.536
 2341SOL    HW2 7034   3.182   4.720   2.474
 2342SOL     OW 7035   3.703   3.899   2.825
 2342SOL    HW1 7036   3.742   3.814   2.789
 2342SOL    HW2 7037   3.605   3.901   2.806
 2343SOL     OW 7038   2.125   4.050   2.582
 2343SOL    HW1 7039   2.046   4.101   2.548
 2343SOL    HW2 7040   2.116   4.035   2.680
 2344SOL     OW 7041   2.876   3.960   2.833
 2344SOL    HW1 7042   2.868   3.924   2.740
 2344SOL    HW2 7043   2.874   3.884   2.898
 2345SOL     OW 7044   3.571   4.109   3.243
 2345SOL    HW1 7045   3.644   4.178   3.247
 2345SOL    HW2 7046   3.599   4.034   3.184
 2346SOL     OW 7047   2.534   3.927   3.351
 2346SOL    HW1 7048   2.624   3.911   3.311
 2346SOL    HW2 7049   2.542   3.932   3.450
 2347SOL     OW 7050   1.937   4.069   1.895
 2347SOL    HW1 7051   1.845   4.041   1.866
 2347SOL    HW2 7052   1.968   4.146   1.839
 2348SOL     OW 7053   1.934   3.890   2.180
 2348SOL    HW1 7054   1.917   3.973   2.126
 2348SOL    HW2 7055   2.024   3.853   2.158
 2349SOL     OW 7056   2.578   4.289   3.570
 2349SOL    HW1 7057   2.597   4.354   3.644
 2349SOL    HW2 7058   2.638   4.209   3.579
 2350SOL     OW 7059   3.087   4.049   2.311
 2350SOL    HW1 7060   3.152   3.975   2.300
 2350SOL    HW2 7061   3.107   4.099   2.395
 2351SOL     OW 7062   3.639   4.066   3.504
 2351SOL    HW1 7063   3.622   4.097   3.410
 2351SOL    HW2 7064   3.555   4.029   3.542
 2352SOL     OW 7065   2.945   4.708   1.949
 2352SOL    HW1 7066   2.922   4.761   1.867
 2352SOL    HW2 7067   3.026   4.652   1.930
 2353SOL     OW 7068   3.686   3.916   3.089
 2353SOL    HW1 7069   3.682   3.826   3.133
 2353SOL    HW2 7070   3.689   3.905   2.990
 2354SOL     OW 7071   2.290   4.148   2.382
 2354SOL    HW1 7072   2.320   4.076   2.320
 2354SOL    HW2 7073   2.251   4.108   2.465
 2355SOL     OW 7074   2.179   4.271   3.142
 2355SOL    HW1 7075   2.217   4.212   3.214
 2355SOL    HW2 7076   2.219   4.245   3.054
 2356SOL     OW 7077   3.286   3.938   2.974
 2356SOL    HW1 7078   3.338   3.873   3.029
 2356SOL    HW2 7079   3.237   4.001   3.035
 2357SOL     OW 7080   2.863   3.758   3.016
 2357SOL    HW1 7081   2.800   3.686   2.985
 2357SOL    HW2 7082   2.956   3.722   3.016
 2358SOL     OW 7083   3.214   3.776   2.030
 2358SOL    HW1 7084   3.249   3.735   1.946
 2358SOL    HW2 7085   3.124   3.738   2.050
 2359SOL     OW 7086   3.162   4.177   2.553
 2359SOL    HW1 7087   3.103   4.257   2.557
 2359SOL    HW2 7088   3.177   4.142   2.646
 2360SOL     OW 7089   3.455   3.945   2.744
 2360SOL    HW1 7090   3.371   3.944   2.798
 2360SOL    HW2 7091   3.457   4.028   2.688
 2361SOL     OW 7092   2.997   4.427   4.441
 2361SOL    HW1 7093   3.054   4.505   4.416
 2361SOL    HW2 7094   2.937   4.453   4.517
 2362SOL     OW 7095   3.617   4.331   3.955
 2362SOL    HW1 7096   3.605   4.318   3.856
 2362SOL    HW2 7097   3.587   4.250   4.004
 2363SOL     OW 7098   1.984   4.367   4.287
 2363SOL    HW1 7099   1.939   4.279   4.304
 2363SOL    HW2 7100   1.983   4.421   4.371
 2364SOL     OW 7101   2.671   3.728   4.226
 2364SOL    HW1 7102   2.711   3.819   4.217
 2364SOL    HW2 7103   2.571   3.736   4.232
 2365SOL     OW 7104   2.903   4.425   4.153
 2365SOL    HW1 7105   2.929   4.421   4.249
 2365SOL    HW2 7106   2.818   4.374   4.139
 2366SOL     OW 7107   2.727   4.072   3.919
 2366SOL    HW1 7108   2.786   4.135   3.870
 2366SOL    HW2 7109   2.746   3.978   3.890
 2367SOL     OW 7110   3.262   3.831   4.150
 2367SOL    HW1 7111   3.238   3.794   4.060
 2367SOL    HW2 7112   3.361   3.847   4.154
 2368SOL     OW 7113   2.476   3.846   3.841
 2368SOL    HW1 7114   2.574   3.824   3.848
 2368SOL    HW2 7115   2.445   3.829   3.748
 2369SOL     OW 7116   2.401   3.788   4.236
 2369SOL    HW1 7117   2.320   3.789   4.294
 2369SOL    HW2 7118   2.404   3.871   4.181
 2370SOL     OW 7119   2.159   3.759   3.895
 2370SOL    HW1 7120   2.208   3.843   3.874
 2370SOL    HW2 7121   2.221   3.694   3.940
 2371SOL     OW 7122   2.797   3.960   4.204
 2371SOL    HW1 7123   2.749   4.001   4.126
 2371SOL    HW2 7124   2.896   3.958   4.185
 2372SOL     OW 7125   2.894   4.273   3.740
 2372SOL    HW1 7126   2.853   4.355   3.701
 2372SOL    HW2 7127   2.958   4.299   3.813
 2373SOL     OW 7128   2.728   4.178   4.366
 2373SOL    HW1 7129   2.696   4.250   4.304
 2373SOL    HW2 7130   2.752   4.097   4.313
 2374SOL     OW 7131   2.389   3.980   4.052
 2374SOL    HW1 7132   2.416   3.921   3.977
 2374SOL    HW2 7133   2.389   4.075   4.021
 2375SOL     OW 7134   3.444   4.363   4.196
 2375SOL    HW1 7135   3.413   4.424   4.269
 2375SOL    HW2 7136   3.494   4.415   4.127
 2376SOL     OW 7137   3.071   4.249   3.999
 2376SOL    HW1 7138   3.084   4.165   4.053
 2376SOL    HW2 7139   3.042   4.323   4.059
 2377SOL     OW 7140   2.169   3.787   4.342
 2377SOL    HW1 7141   2.158   3.881   4.375
 2377SOL    HW2 7142   2.164   3.724   4.419
 2378SOL     OW 7143   3.484   4.091   4.098
 2378SOL    HW1 7144   3.486   4.015   4.162
 2378SOL    HW2 7145   3.436   4.168   4.138
 2379SOL     OW 7146   3.402   3.998   3.849
 2379SOL    HW1 7147   3.341   3.923   3.872
 2379SOL    HW2 7148   3.424   4.050   3.932
 2380SOL     OW 7149   2.677   4.296   4.049
 2380SOL    HW1 7150   2.684   4.207   4.003
 2380SOL    HW2 7151   2.583   4.330   4.041
 2381SOL     OW 7152   2.335   4.224   3.915
 2381SOL    HW1 7153   2.396   4.304   3.919
 2381SOL    HW2 7154   2.240   4.255   3.922
 2382SOL     OW 7155   3.588   3.859   4.247
 2382SOL    HW1 7156   3.661   3.842   4.180
 2382SOL    HW2 7157   3.557   3.772   4.285
 2383SOL     OW 7158   3.142   4.651   4.396
 2383SOL    HW1 7159   3.202   4.570   4.398
 2383SOL    HW2 7160   3.182   4.720   4.336
 2384SOL     OW 7161   3.703   3.899   4.687
 2384SOL    HW1 7162   3.742   3.814   4.651
 2384SOL    HW2 7163   3.605   3.901   4.668
 2385SOL     OW 7164   1.937   4.069   3.757
 2385SOL    HW1 7165   1.845   4.041   3.728
 2385SOL    HW2 7166   1.968   4.146   3.701
 2386SOL     OW 7167   1.934   3.890   4.042
 2386SOL    HW1 7168   1.917   3.973   3.988
 2386SOL    HW2 7169   2.024   3.853   4.020
 2387SOL     OW 7170   3.087   4.049   4.173
 2387SOL    HW1 7171   3.152   3.975   4.162
 2387SOL    HW2 7172   3.107   4.099   4.257
 2388SOL     OW 7173   2.945   4.708   3.811
 2388SOL    HW1 7174   2.922   4.761   3.729
 2388SOL    HW2 7175   3.026   4.652   3.792
 2389SOL     OW 7176   2.290   4.148   4.244
 2389SOL    HW1 7177   2.320   4.076   4.182
 2389SOL    HW2 7178   2.251   4.108   4.327
 2390SOL     OW 7179   3.214   3.776   3.892
 2390SOL    HW1 7180   3.249   3.735   3.808
 2390SOL    HW2 7181   3.124   3.738   3.912
 2391SOL     OW 7182   3.162   4.177   4.415
 2391SOL    HW1 7183   3.103   4.257   4.419
 2391SOL    HW2 7184   3.177   4.142   4.508
 2392SOL     OW 7185   3.954   0.628   0.113
 2392SOL    HW1 7186   3.861   0.626   0.150
 2392SOL    HW2 7187   3.955   0.589   0.021
 2393SOL     OW 7188   3.949   0.275   0.996
 2393SOL    HW1 7189   3.984   0.258   1.088
 2393SOL    HW2 7190   3.861   0.230   0.984
 2394SOL     OW 7191   3.743   0.368   0.647
 2394SOL    HW1 7192   3.661   0.411   0.686
 2394SOL    HW2 7193   3.715   0.295   0.584
 2395SOL     OW 7194   4.293   1.275   1.165
 2395SOL    HW1 7195   4.200   1.268   1.128
 2395SOL    HW2 7196   4.304   1.364   1.209
 2396SOL     OW 7197   4.574   0.798   1.823
 2396SOL    HW1 7198   4.570   0.874   1.888
 2396SOL    HW2 7199   4.596   0.834   1.732
 2397SOL     OW 7200   4.059   1.435   1.061
 2397SOL    HW1 7201   3.981   1.404   1.008
 2397SOL    HW2 7202   4.117   1.493   1.004
 2398SOL     OW 7203   4.162   0.392   1.499
 2398SOL    HW1 7204   4.244   0.336   1.508
 2398SOL    HW2 7205   4.081   0.334   1.503
 2399SOL     OW 7206   3.955   1.713   0.483
 2399SOL    HW1 7207   3.989   1.790   0.537
 2399SOL    HW2 7208   3.999   1.713   0.393
 2400SOL     OW 7209   3.954   1.434   0.538
 2400SOL    HW1 7210   3.928   1.530   0.538
 2400SOL    HW2 7211   3.883   1.380   0.583
 2401SOL     OW 7212   3.964   1.091   0.886
 2401SOL    HW1 7213   3.978   1.007   0.938
 2401SOL    HW2 7214   3.909   1.155   0.941
 2402SOL     OW 7215   3.846   0.643   0.563
 2402SOL    HW1 7216   3.801   0.555   0.580
 2402SOL    HW2 7217   3.845   0.697   0.647
 2403SOL     OW 7218   3.751   1.596   0.117
 2403SOL    HW1 7219   3.732   1.500   0.138
 2403SOL    HW2 7220   3.718   1.654   0.192
 2404SOL     OW 7221   3.837   0.737   1.597
 2404SOL    HW1 7222   3.925   0.724   1.642
 2404SOL    HW2 7223   3.824   0.834   1.575
 2405SOL     OW 7224   4.337   1.365   0.726
 2405SOL    HW1 7225   4.288   1.278   0.735
 2405SOL    HW2 7226   4.314   1.408   0.639
 2406SOL     OW 7227   3.921   0.976   1.264
 2406SOL    HW1 7228   4.010   0.931   1.250
 2406SOL    HW2 7229   3.848   0.911   1.245
 2407SOL     OW 7230   4.041   0.251   1.801
 2407SOL    HW1 7231   4.112   0.322   1.807
 2407SOL    HW2 7232   3.953   0.290   1.829
 2408SOL     OW 7233   4.322   0.729   0.270
 2408SOL    HW1 7234   4.346   0.798   0.202
 2408SOL    HW2 7235   4.244   0.762   0.324
 2409SOL     OW 7236   3.800   0.811   0.789
 2409SOL    HW1 7237   3.899   0.799   0.798
 2409SOL    HW2 7238   3.776   0.906   0.810
 2410SOL     OW 7239   3.854   1.821   1.571
 2410SOL    HW1 7240   3.844   1.806   1.670
 2410SOL    HW2 7241   3.768   1.857   1.535
 2411SOL     OW 7242   4.589   0.348   0.195
 2411SOL    HW1 7243   4.648   0.411   0.146
 2411SOL    HW2 7244   4.608   0.254   0.166
 2412SOL     OW 7245   4.274   0.196   0.885
 2412SOL    HW1 7246   4.269   0.191   0.985
 2412SOL    HW2 7247   4.276   0.292   0.856
 2413SOL     OW 7248   4.075   1.801   0.853
 2413SOL    HW1 7249   4.125   1.715   0.859
 2413SOL    HW2 7250   4.140   1.878   0.850
 2414SOL     OW 7251   4.045   0.943   0.242
 2414SOL    HW1 7252   4.127   0.982   0.200
 2414SOL    HW2 7253   4.018   0.861   0.193
 2415SOL     OW 7254   4.185   1.266   1.727
 2415SOL    HW1 7255   4.135   1.267   1.641
 2415SOL    HW2 7256   4.122   1.248   1.803
 2416SOL     OW 7257   3.926   0.285   1.498
 2416SOL    HW1 7258   3.846   0.345   1.485
 2416SOL    HW2 7259   3.916   0.236   1.584
 2417SOL     OW 7260   4.188   1.743   0.323
 2417SOL    HW1 7261   4.221   1.782   0.409
 2417SOL    HW2 7262   4.264   1.736   0.258
 2418SOL     OW 7263   3.973   1.785   1.241
 2418SOL    HW1 7264   4.030   1.720   1.291
 2418SOL    HW2 7265   3.957   1.752   1.148
 2419SOL     OW 7266   4.106   0.700   0.480
 2419SOL    HW1 7267   4.151   0.610   0.477
 2419SOL    HW2 7268   4.012   0.689   0.513
 2420SOL     OW 7269   4.527   1.402   0.924
 2420SOL    HW1 7270   4.617   1.416   0.882
 2420SOL    HW2 7271   4.456   1.404   0.853
 2421SOL     OW 7272   4.263   0.064   0.512
 2421SOL    HW1 7273   4.182   0.065   0.570
 2421SOL    HW2 7274   4.266   0.147   0.457
 2422SOL     OW 7275   4.021   0.035   0.171
 2422SOL    HW1 7276   4.070   0.119   0.150
 2422SOL    HW2 7277   4.083  -0.030   0.216
 2423SOL     OW 7278   4.659   0.236   0.480
 2423SOL    HW1 7279   4.611   0.277   0.402
 2423SOL    HW2 7280   4.758   0.234   0.461
 2424SOL     OW 7281   4.183   1.152   0.741
 2424SOL    HW1 7282   4.112   1.125   0.806
 2424SOL    HW2 7283   4.157   1.124   0.648
 2425SOL     OW 7284   3.802   0.556   1.386
 2425SOL    HW1 7285   3.894   0.555   1.345
 2425SOL    HW2 7286   3.796   0.630   1.453
 2426SOL     OW 7287   4.285   0.222   1.147
 2426SOL    HW1 7288   4.323   0.138   1.184
 2426SOL    HW2 7289   4.197   0.241   1.191
 2427SOL     OW 7290   4.251   0.256   0.328
 2427SOL    HW1 7291   4.278   0.197   0.253
 2427SOL    HW2 7292   4.251   0.351   0.297
 2428SOL     OW 7293   4.134   0.813   1.251
 2428SOL    HW1 7294   4.220   0.825   1.301
 2428SOL    HW2 7295   4.092   0.726   1.278
 2429SOL     OW 7296   3.788   1.564   1.331
 2429SOL    HW1 7297   3.742   1.646   1.297
 2429SOL    HW2 7298   3.886   1.583   1.340
 2430SOL     OW 7299   4.091   1.100   0.501
 2430SOL    HW1 7300   4.084   1.183   0.445
 2430SOL    HW2 7301   4.095   1.020   0.441
 2431SOL     OW 7302   4.290   0.537   0.865
 2431SOL    HW1 7303   4.302   0.603   0.791
 2431SOL    HW2 7304   4.336   0.571   0.948
 2432SOL     OW 7305   4.078   1.510   1.329
 2432SOL    HW1 7306   4.057   1.466   1.242
 2432SOL    HW2 7307   4.175   1.536   1.332
 2433SOL     OW 7308   4.126   0.751   1.598
 2433SOL    HW1 7309   4.194   0.806   1.551
 2433SOL    HW2 7310   4.166   0.663   1.625
 2434SOL     OW 7311   4.228   0.050   1.740
 2434SOL    HW1 7312   4.186  -0.007   1.670
 2434SOL    HW2 7313   4.162   0.119   1.772
 2435SOL     OW 7314   4.297   0.870   1.029
 2435SOL    HW1 7315   4.341   0.959   1.020
 2435SOL    HW2 7316   4.234   0.870   1.106
 2436SOL     OW 7317   4.031   0.213   1.231
 2436SOL    HW1 7318   4.008   0.250   1.321
 2436SOL    HW2 7319   4.001   0.118   1.225
 2437SOL     OW 7320   3.761   1.310   1.282
 2437SOL    HW1 7321   3.814   1.261   1.350
 2437SOL    HW2 7322   3.783   1.408   1.287
 2438SOL     OW 7323   4.031   0.063   0.618
 2438SOL    HW1 7324   4.020   0.157   0.651
 2438SOL    HW2 7325   4.026   0.000   0.695
 2439SOL     OW 7326   4.074   0.898   1.804
 2439SOL    HW1 7327   4.150   0.942   1.852
 2439SOL    HW2 7328   4.109   0.851   1.722
 2440SOL     OW 7329   4.043   0.810   0.949
 2440SOL    HW1 7330   4.136   0.846   0.954
 2440SOL    HW2 7331   4.037   0.725   1.001
 2441SOL     OW 7332   4.063   0.509   1.006
 2441SOL    HW1 7333   4.011   0.426   0.989
 2441SOL    HW2 7334   4.140   0.514   0.942
 2442SOL     OW 7335   3.732   1.326   0.200
 2442SOL    HW1 7336   3.639   1.347   0.169
 2442SOL    HW2 7337   3.742   1.227   0.213
 2443SOL     OW 7338   3.812   1.801   0.927
 2443SOL    HW1 7339   3.770   1.715   0.900
 2443SOL    HW2 7340   3.906   1.804   0.893
 2444SOL     OW 7341   4.228   1.568   0.910
 2444SOL    HW1 7342   4.294   1.642   0.919
 2444SOL    HW2 7343   4.272   1.489   0.868
 2445SOL     OW 7344   3.764   0.544   1.114
 2445SOL    HW1 7345   3.849   0.511   1.073
 2445SOL    HW2 7346   3.777   0.559   1.212
 2446SOL     OW 7347   3.913   0.520   1.722
 2446SOL    HW1 7348   3.972   0.480   1.652
 2446SOL    HW2 7349   3.855   0.591   1.681
 2447SOL     OW 7350   4.539   0.572   0.325
 2447SOL    HW1 7351   4.546   0.483   0.279
 2447SOL    HW2 7352   4.445   0.606   0.317
 2448SOL     OW 7353   3.976   1.564   1.744
 2448SOL    HW1 7354   3.946   1.621   1.820
 2448SOL    HW2 7355   3.969   1.467   1.770
 2449SOL     OW 7356   4.197   0.500   0.191
 2449SOL    HW1 7357   4.258   0.580   0.195
 2449SOL    HW2 7358   4.102   0.531   0.198
 2450SOL     OW 7359   3.883   1.137   1.466
 2450SOL    HW1 7360   3.905   1.076   1.542
 2450SOL    HW2 7361   3.893   1.088   1.380
 2451SOL     OW 7362   3.807   1.258   1.022
 2451SOL    HW1 7363   3.802   1.257   1.122
 2451SOL    HW2 7364   3.724   1.217   0.984
 2452SOL     OW 7365   4.412   1.662   1.716
 2452SOL    HW1 7366   4.356   1.743   1.725
 2452SOL    HW2 7367   4.464   1.666   1.630
 2453SOL     OW 7368   3.854   1.794   1.851
 2453SOL    HW1 7369   3.813   1.720   1.904
 2453SOL    HW2 7370   3.918   1.845   1.909
 2454SOL     OW 7371   3.987   0.326   0.720
 2454SOL    HW1 7372   3.908   0.377   0.686
 2454SOL    HW2 7373   3.978   0.311   0.818
 2455SOL     OW 7374   4.096   1.288   1.490
 2455SOL    HW1 7375   4.083   1.381   1.456
 2455SOL    HW2 7376   4.012   1.236   1.477
 2456SOL     OW 7377   4.314   1.487   0.491
 2456SOL    HW1 7378   4.356   1.429   0.421
 2456SOL    HW2 7379   4.270   1.566   0.447
 2457SOL     OW 7380   3.979   1.348   0.290
 2457SOL    HW1 7381   3.883   1.349   0.263
 2457SOL    HW2 7382   3.991   1.401   0.374
 2458SOL     OW 7383   3.829   1.013   1.726
 2458SOL    HW1 7384   3.752   0.980   1.780
 2458SOL    HW2 7385   3.914   0.983   1.768
 2459SOL     OW 7386   4.396   0.203   1.489
 2459SOL    HW1 7387   4.486   0.187   1.449
 2459SOL    HW2 7388   4.404   0.208   1.588
 2460SOL     OW 7389   3.799   0.345   0.033
 2460SOL    HW1 7390   3.707   0.317   0.004
 2460SOL    HW2 7391   3.830   0.422  -0.023
 2461SOL     OW 7392   4.337   0.842   1.431
 2461SOL    HW1 7393   4.393   0.923   1.414
 2461SOL    HW2 7394   4.396   0.762   1.434
 2462SOL     OW 7395   4.114   1.741   1.560
 2462SOL    HW1 7396   4.023   1.782   1.558
 2462SOL    HW2 7397   4.107   1.647   1.592
 2463SOL     OW 7398   4.318   0.745   0.652
 2463SOL    HW1 7399   4.368   0.830   0.633
 2463SOL    HW2 7400   4.230   0.747   0.604
 2464SOL     OW 7401   3.945   1.314   1.844
 2464SOL    HW1 7402   3.880   1.241   1.823
 2464SOL    HW2 7403   3.949   1.328   1.942
 2465SOL     OW 7404   3.803   1.240   0.653
 2465SOL    HW1 7405   3.802   1.193   0.741
 2465SOL    HW2 7406   3.885   1.212   0.602
 2466SOL     OW 7407   4.396   1.391   1.624
 2466SOL    HW1 7408   4.318   1.341   1.662
 2466SOL    HW2 7409   4.393   1.486   1.655
 2467SOL     OW 7410   4.152   0.424   0.520
 2467SOL    HW1 7411   4.182   0.352   0.458
 2467SOL    HW2 7412   4.113   0.384   0.603
 2468SOL     OW 7413   4.041   0.547   1.280
 2468SOL    HW1 7414   4.079   0.488   1.352
 2468SOL    HW2 7415   4.081   0.521   1.192
 2469SOL     OW 7416   3.763   1.077   0.300
 2469SOL    HW1 7417   3.862   1.066   0.291
 2469SOL    HW2 7418   3.723   0.991   0.332
 2470SOL     OW 7419   3.954   0.628   1.975
 2470SOL    HW1 7420   3.861   0.626   2.012
 2470SOL    HW2 7421   3.955   0.589   1.883
 2471SOL     OW 7422   3.949   0.275   2.858
 2471SOL    HW1 7423   3.984   0.258   2.950
 2471SOL    HW2 7424   3.861   0.230   2.846
 2472SOL     OW 7425   3.743   0.368   2.509
 2472SOL    HW1 7426   3.661   0.411   2.548
 2472SOL    HW2 7427   3.715   0.295   2.446
 2473SOL     OW 7428   4.293   1.275   3.027
 2473SOL    HW1 7429   4.200   1.268   2.990
 2473SOL    HW2 7430   4.304   1.364   3.071
 2474SOL     OW 7431   4.574   0.798   3.685
 2474SOL    HW1 7432   4.570   0.874   3.750
 2474SOL    HW2 7433   4.596   0.834   3.594
 2475SOL     OW 7434   4.059   1.435   2.923
 2475SOL    HW1 7435   3.981   1.404   2.870
 2475SOL    HW2 7436   4.117   1.493   2.866
 2476SOL     OW 7437   4.162   0.392   3.361
 2476SOL    HW1 7438   4.244   0.336   3.370
 2476SOL    HW2 7439   4.081   0.334   3.365
 2477SOL     OW 7440   3.955   1.713   2.345
 2477SOL    HW1 7441   3.989   1.790   2.399
 2477SOL    HW2 7442   3.999   1.713   2.255
 2478SOL     OW 7443   3.954   1.434   2.400
 2478SOL    HW1 7444   3.928   1.530   2.400
 2478SOL    HW2 7445   3.883   1.380   2.445
 2479SOL     OW 7446   3.964   1.091   2.748
 2479SOL    HW1 7447   3.978   1.007   2.800
 2479SOL    HW2 7448   3.909   1.155   2.803
 2480SOL     OW 7449   3.846   0.643   2.425
 2480SOL    HW1 7450   3.801   0.555   2.442
 2480SOL    HW2 7451   3.845   0.697   2.509
 2481SOL     OW 7452   3.751   1.596   1.979
 2481SOL    HW1 7453   3.732   1.500   2.000
 2481SOL    HW2 7454   3.718   1.654   2.054
 2482SOL     OW 7455   3.837   0.737   3.459
 2482SOL    HW1 7456   3.925   0.724   3.504
 2482SOL    HW2 7457   3.824   0.834   3.437
 2483SOL     OW 7458   4.337   1.365   2.588
 2483SOL    HW1 7459   4.288   1.278   2.597
 2483SOL    HW2 7460   4.314   1.408   2.501
 2484SOL     OW 7461   3.921   0.976   3.126
 2484SOL    HW1 7462   4.010   0.931   3.112
 2484SOL    HW2 7463   3.848   0.911   3.107
 2485SOL     OW 7464   4.041   0.251   3.663
 2485SOL    HW1 7465   4.112   0.322   3.669
 2485SOL    HW2 7466   3.953   0.290   3.691
 2486SOL     OW 7467   4.322   0.729   2.132
 2486SOL    HW1 7468   4.346   0.798   2.064
 2486SOL    HW2 7469   4.244   0.762   2.186
 2487SOL     OW 7470   3.800   0.811   2.651
 2487SOL    HW1 7471   3.899   0.799   2.660
 2487SOL    HW2 7472   3.776   0.906   2.672
 2488SOL     OW 7473   3.854   1.821   3.433
 2488SOL    HW1 7474   3.844   1.806   3.532
 2488SOL    HW2 7475   3.768   1.857   3.397
 2489SOL     OW 7476   4.589   0.348   2.057
 2489SOL    HW1 7477   4.648   0.411   2.008
 2489SOL    HW2 7478   4.608   0.254   2.028
 2490SOL     OW 7479   4.274   0.196   2.747
 2490SOL    HW1 7480   4.269   0.191   2.847
 2490SOL    HW2 7481   4.276   0.292   2.718
 2491SOL     OW 7482   4.075   1.801   2.715
 2491SOL    HW1 7483   4.125   1.715   2.721
 2491SOL    HW2 7484   4.140   1.878   2.712
 2492SOL     OW 7485   4.045   0.943   2.104
 2492SOL    HW1 7486   4.127   0.982   2.062
 2492SOL    HW2 7487   4.018   0.861   2.055
 2493SOL     OW 7488   4.185   1.266   3.589
 2493SOL    HW1 7489   4.135   1.267   3.503
 2493SOL    HW2 7490   4.122   1.248   3.665
 2494SOL     OW 7491   3.926   0.285   3.360
 2494SOL    HW1 7492   3.846   0.345   3.347
 2494SOL    HW2 7493   3.916   0.236   3.446
 2495SOL     OW 7494   4.188   1.743   2.185
 2495SOL    HW1 7495   4.221   1.782   2.271
 2495SOL    HW2 7496   4.264   1.736   2.120
 2496SOL     OW 7497   3.973   1.785   3.103
 2496SOL    HW1 7498   4.030   1.720   3.153
 2496SOL    HW2 7499   3.957   1.752   3.010
 2497SOL     OW 7500   4.106   0.700   2.342
 2497SOL    HW1 7501   4.151   0.610   2.339
 2497SOL    HW2 7502   4.012   0.689   2.375
 2498SOL     OW 7503   4.338   0.122   1.979
 2498SOL    HW1 7504   4.436   0.100   1.986
 2498SOL    HW2 7505   4.307   0.105   1.886
 2499SOL     OW 7506   4.527   1.402   2.786
 2499SOL    HW1 7507   4.617   1.416   2.744
 2499SOL    HW2 7508   4.456   1.404   2.715
 2500SOL     OW 7509   4.263   0.064   2.374
 2500SOL    HW1 7510   4.182   0.065   2.432
 2500SOL    HW2 7511   4.266   0.147   2.319
 2501SOL     OW 7512   4.021   0.035   2.033
 2501SOL    HW1 7513   4.070   0.119   2.012
 2501SOL    HW2 7514   4.083  -0.030   2.078
 2502SOL     OW 7515   4.659   0.236   2.342
 2502SOL    HW1 7516   4.611   0.277   2.264
 2502SOL    HW2 7517   4.758   0.234   2.323
 2503SOL     OW 7518   4.183   1.152   2.603
 2503SOL    HW1 7519   4.112   1.125   2.668
 2503SOL    HW2 7520   4.157   1.124   2.510
 2504SOL     OW 7521   3.802   0.556   3.248
 2504SOL    HW1 7522   3.894   0.555   3.207
 2504SOL    HW2 7523   3.796   0.630   3.315
 2505SOL     OW 7524   4.285   0.222   3.009
 2505SOL    HW1 7525   4.323   0.138   3.046
 2505SOL    HW2 7526   4.197   0.241   3.053
 2506SOL     OW 7527   4.251   0.256   2.190
 2506SOL    HW1 7528   4.278   0.197   2.115
 2506SOL    HW2 7529   4.251   0.351   2.159
 2507SOL     OW 7530   4.134   0.813   3.113
 2507SOL    HW1 7531   4.220   0.825   3.163
 2507SOL    HW2 7532   4.092   0.726   3.140
 2508SOL     OW 7533   3.788   1.564   3.193
 2508SOL    HW1 7534   3.742   1.646   3.159
 2508SOL    HW2 7535   3.886   1.583   3.202
 2509SOL     OW 7536   4.091   1.100   2.363
 2509SOL    HW1 7537   4.084   1.183   2.307
 2509SOL    HW2 7538   4.095   1.020   2.303
 2510SOL     OW 7539   4.290   0.537   2.727
 2510SOL    HW1 7540   4.302   0.603   2.653
 2510SOL    HW2 7541   4.336   0.571   2.810
 2511SOL     OW 7542   4.078   1.510   3.191
 2511SOL    HW1 7543   4.057   1.466   3.104
 2511SOL    HW2 7544   4.175   1.536   3.194
 2512SOL     OW 7545   4.126   0.751   3.460
 2512SOL    HW1 7546   4.194   0.806   3.413
 2512SOL    HW2 7547   4.166   0.663   3.487
 2513SOL     OW 7548   4.228   0.050   3.602
 2513SOL    HW1 7549   4.186  -0.007   3.532
 2513SOL    HW2 7550   4.162   0.119   3.634
 2514SOL     OW 7551   4.297   0.870   2.891
 2514SOL    HW1 7552   4.341   0.959   2.882
 2514SOL    HW2 7553   4.234   0.870   2.968
 2515SOL     OW 7554   4.031   0.213   3.093
 2515SOL    HW1 7555   4.008   0.250   3.183
 2515SOL    HW2 7556   4.001   0.118   3.087
 2516SOL     OW 7557   3.761   1.310   3.144
 2516SOL    HW1 7558   3.814   1.261   3.212
 2516SOL    HW2 7559   3.783   1.408   3.149
 2517SOL     OW 7560   4.031   0.063   2.480
 2517SOL    HW1 7561   4.020   0.157   2.513
 2517SOL    HW2 7562   4.026   0.000   2.557
 2518SOL     OW 7563   4.074   0.898   3.666
 2518SOL    HW1 7564   4.150   0.942   3.714
 2518SOL    HW2 7565   4.109   0.851   3.584
 2519SOL     OW 7566   4.043   0.810   2.811
 2519SOL    HW1 7567   4.136   0.846   2.816
 2519SOL    HW2 7568   4.037   0.725   2.863
 2520SOL     OW 7569   4.063   0.509   2.868
 2520SOL    HW1 7570   4.011   0.426   2.851
 2520SOL    HW2 7571   4.140   0.514   2.804
 2521SOL     OW 7572   3.732   1.326   2.062
 2521SOL    HW1 7573   3.639   1.347   2.031
 2521SOL    HW2 7574   3.742   1.227   2.075
 2522SOL     OW 7575   3.812   1.801   2.789
 2522SOL    HW1 7576   3.770   1.715   2.762
 2522SOL    HW2 7577   3.906   1.804   2.755
 2523SOL     OW 7578   4.228   1.568   2.772
 2523SOL    HW1 7579   4.294   1.642   2.781
 2523SOL    HW2 7580   4.272   1.489   2.730
 2524SOL     OW 7581   3.764   0.544   2.976
 2524SOL    HW1 7582   3.849   0.511   2.935
 2524SOL    HW2 7583   3.777   0.559   3.074
 2525SOL     OW 7584   3.913   0.520   3.584
 2525SOL    HW1 7585   3.972   0.480   3.514
 2525SOL    HW2 7586   3.855   0.591   3.543
 2526SOL     OW 7587   4.539   0.572   2.187
 2526SOL    HW1 7588   4.546   0.483   2.141
 2526SOL    HW2 7589   4.445   0.606   2.179
 2527SOL     OW 7590   3.976   1.564   3.606
 2527SOL    HW1 7591   3.946   1.621   3.682
 2527SOL    HW2 7592   3.969   1.467   3.632
 2528SOL     OW 7593   4.197   0.500   2.053
 2528SOL    HW1 7594   4.258   0.580   2.057
 2528SOL    HW2 7595   4.102   0.531   2.060
 2529SOL     OW 7596   3.883   1.137   3.328
 2529SOL    HW1 7597   3.905   1.076   3.404
 2529SOL    HW2 7598   3.893   1.088   3.242
 2530SOL     OW 7599   3.807   1.258   2.884
 2530SOL    HW1 7600   3.802   1.257   2.984
 2530SOL    HW2 7601   3.724   1.217   2.846
 2531SOL     OW 7602   4.412   1.662   3.578
 2531SOL    HW1 7603   4.356   1.743   3.587
 2531SOL    HW2 7604   4.464   1.666   3.492
 2532SOL     OW 7605   3.854   1.794   3.713
 2532SOL    HW1 7606   3.813   1.720   3.766
 2532SOL    HW2 7607   3.918   1.845   3.771
 2533SOL     OW 7608   3.987   0.326   2.582
 2533SOL    HW1 7609   3.908   0.377   2.548
 2533SOL    HW2 7610   3.978   0.311   2.680
 2534SOL     OW 7611   4.096   1.288   3.352
 2534SOL    HW1 7612   4.083   1.381   3.318
 2534SOL    HW2 7613   4.012   1.236   3.339
 2535SOL     OW 7614   4.314   1.487   2.353
 2535SOL    HW1 7615   4.356   1.429   2.283
 2535SOL    HW2 7616   4.270   1.566   2.309
 2536SOL     OW 7617   3.979   1.348   2.152
 2536SOL    HW1 7618   3.883   1.349   2.125
 2536SOL    HW2 7619   3.991   1.401   2.236
 2537SOL     OW 7620   3.829   1.013   3.588
 2537SOL    HW1 7621   3.752   0.980   3.642
 2537SOL    HW2 7622   3.914   0.983   3.630
 2538SOL     OW 7623   4.396   0.203   3.351
 2538SOL    HW1 7624   4.486   0.187   3.311
 2538SOL    HW2 7625   4.404   0.208   3.450
 2539SOL     OW 7626   3.799   0.345   1.895
 2539SOL    HW1 7627   3.707   0.317   1.866
 2539SOL    HW2 7628   3.830   0.422   1.839
 2540SOL     OW 7629   3.796   0.166   2.180
 2540SOL    HW1 7630   3.779   0.249   2.126
 2540SOL    HW2 7631   3.886   0.129   2.158
 2541SOL     OW 7632   4.337   0.842   3.293
 2541SOL    HW1 7633   4.393   0.923   3.276
 2541SOL    HW2 7634   4.396   0.762   3.296
 2542SOL     OW 7635   4.114   1.741   3.422
 2542SOL    HW1 7636   4.023   1.782   3.420
 2542SOL    HW2 7637   4.107   1.647   3.454
 2543SOL     OW 7638   4.318   0.745   2.514
 2543SOL    HW1 7639   4.368   0.830   2.495
 2543SOL    HW2 7640   4.230   0.747   2.466
 2544SOL     OW 7641   3.945   1.314   3.706
 2544SOL    HW1 7642   3.880   1.241   3.685
 2544SOL    HW2 7643   3.949   1.328   3.804
 2545SOL     OW 7644   3.803   1.240   2.515
 2545SOL    HW1 7645   3.802   1.193   2.603
 2545SOL    HW2 7646   3.885   1.212   2.464
 2546SOL     OW 7647   4.396   1.391   3.486
 2546SOL    HW1 7648   4.318   1.341   3.524
 2546SOL    HW2 7649   4.393   1.486   3.517
 2547SOL     OW 7650   4.152   0.424   2.382
 2547SOL    HW1 7651   4.182   0.352   2.320
 2547SOL    HW2 7652   4.113   0.384   2.465
 2548SOL     OW 7653   4.041   0.547   3.142
 2548SOL    HW1 7654   4.079   0.488   3.214
 2548SOL    HW2 7655   4.081   0.521   3.054
 2549SOL     OW 7656   3.763   1.077   2.162
 2549SOL    HW1 7657   3.862   1.066   2.153
 2549SOL    HW2 7658   3.723   0.991   2.194
 2550SOL     OW 7659   3.954   0.628   3.837
 2550SOL    HW1 7660   3.861   0.626   3.874
 2550SOL    HW2 7661   3.955   0.589   3.745
 2551SOL     OW 7662   3.955   1.713   4.207
 2551SOL    HW1 7663   3.989   1.790   4.261
 2551SOL    HW2 7664   3.999   1.713   4.117
 2552SOL     OW 7665   3.954   1.434   4.262
 2552SOL    HW1 7666   3.928   1.530   4.262
 2552SOL    HW2 7667   3.883   1.380   4.307
 2553SOL     OW 7668   3.846   0.643   4.287
 2553SOL    HW1 7669   3.801   0.555   4.304
 2553SOL    HW2 7670   3.845   0.697   4.371
 2554SOL     OW 7671   3.751   1.596   3.841
 2554SOL    HW1 7672   3.732   1.500   3.862
 2554SOL    HW2 7673   3.718   1.654   3.916
 2555SOL     OW 7674   4.322   0.729   3.994
 2555SOL    HW1 7675   4.346   0.798   3.926
 2555SOL    HW2 7676   4.244   0.762   4.048
 2556SOL     OW 7677   3.800   0.811   4.513
 2556SOL    HW1 7678   3.899   0.799   4.522
 2556SOL    HW2 7679   3.776   0.906   4.534
 2557SOL     OW 7680   4.589   0.348   3.919
 2557SOL    HW1 7681   4.648   0.411   3.870
 2557SOL    HW2 7682   4.608   0.254   3.890
 2558SOL     OW 7683   4.075   1.801   4.577
 2558SOL    HW1 7684   4.125   1.715   4.583
 2558SOL    HW2 7685   4.140   1.878   4.574
 2559SOL     OW 7686   4.045   0.943   3.966
 2559SOL    HW1 7687   4.127   0.982   3.924
 2559SOL    HW2 7688   4.018   0.861   3.917
 2560SOL     OW 7689   4.188   1.743   4.047
 2560SOL    HW1 7690   4.221   1.782   4.133
 2560SOL    HW2 7691   4.264   1.736   3.982
 2561SOL     OW 7692   4.106   0.700   4.204
 2561SOL    HW1 7693   4.151   0.610   4.201
 2561SOL    HW2 7694   4.012   0.689   4.237
 2562SOL     OW 7695   4.338   0.122   3.841
 2562SOL    HW1 7696   4.436   0.100   3.848
 2562SOL    HW2 7697   4.307   0.105   3.748
 2563SOL     OW 7698   4.263   0.064   4.236
 2563SOL    HW1 7699   4.182   0.065   4.294
 2563SOL    HW2 7700   4.266   0.147   4.181
 2564SOL     OW 7701   4.021   0.035   3.895
 2564SOL    HW1 7702   4.070   0.119   3.874
 2564SOL    HW2 7703   4.083  -0.030   3.940
 2565SOL     OW 7704   4.659   0.236   4.204
 2565SOL    HW1 7705   4.611   0.277   4.126
 2565SOL    HW2 7706   4.758   0.234   4.185
 2566SOL     OW 7707   4.183   1.152   4.465
 2566SOL    HW1 7708   4.112   1.125   4.530
 2566SOL    HW2 7709   4.157   1.124   4.372
 2567SOL     OW 7710   4.251   0.256   4.052
 2567SOL    HW1 7711   4.278   0.197   3.977
 2567SOL    HW2 7712   4.251   0.351   4.021
 2568SOL     OW 7713   4.091   1.100   4.225
 2568SOL    HW1 7714   4.084   1.183   4.169
 2568SOL    HW2 7715   4.095   1.020   4.165
 2569SOL     OW 7716   4.031   0.063   4.342
 2569SOL    HW1 7717   4.020   0.157   4.375
 2569SOL    HW2 7718   4.026   0.000   4.419
 2570SOL     OW 7719   3.732   1.326   3.924
 2570SOL    HW1 7720   3.639   1.347   3.893
 2570SOL    HW2 7721   3.742   1.227   3.937
 2571SOL     OW 7722   4.539   0.572   4.049
 2571SOL    HW1 7723   4.546   0.483   4.003
 2571SOL    HW2 7724   4.445   0.606   4.041
 2572SOL     OW 7725   4.197   0.500   3.915
 2572SOL    HW1 7726   4.258   0.580   3.919
 2572SOL    HW2 7727   4.102   0.531   3.922
 2573SOL     OW 7728   4.314   1.487   4.215
 2573SOL    HW1 7729   4.356   1.429   4.145
 2573SOL    HW2 7730   4.270   1.566   4.171
 2574SOL     OW 7731   3.979   1.348   4.014
 2574SOL    HW1 7732   3.883   1.349   3.987
 2574SOL    HW2 7733   3.991   1.401   4.098
 2575SOL     OW 7734   3.799   0.345   3.757
 2575SOL    HW1 7735   3.707   0.317   3.728
 2575SOL    HW2 7736   3.830   0.422   3.701
 2576SOL     OW 7737   3.796   0.166   4.042
 2576SOL    HW1 7738   3.779   0.249   3.988
 2576SOL    HW2 7739   3.886   0.129   4.020
 2577SOL     OW 7740   4.318   0.745   4.376
 2577SOL    HW1 7741   4.368   0.830   4.357
 2577SOL    HW2 7742   4.230   0.747   4.328
 2578SOL     OW 7743   3.803   1.240   4.377
 2578SOL    HW1 7744   3.802   1.193   4.465
 2578SOL    HW2 7745   3.885   1.212   4.326
 2579SOL     OW 7746   4.152   0.424   4.244
 2579SOL    HW1 7747   4.182   0.352   4.182
 2579SOL    HW2 7748   4.113   0.384   4.327
 2580SOL     OW 7749   3.763   1.077   4.024
 2580SOL    HW1 7750   3.862   1.066   4.015
 2580SOL    HW2 7751   3.723   0.991   4.056
 2581SOL     OW 7752   3.954   2.490   0.113
 2581SOL    HW1 7753   3.861   2.488   0.150
 2581SOL    HW2 7754   3.955   2.451   0.021
 2582SOL     OW 7755   3.949   2.137   0.996
 2582SOL    HW1 7756   3.984   2.120   1.088
 2582SOL    HW2 7757   3.861   2.092   0.984
 2583SOL     OW 7758   3.743   2.230   0.647
 2583SOL    HW1 7759   3.661   2.273   0.686
 2583SOL    HW2 7760   3.715   2.157   0.584
 2584SOL     OW 7761   4.293   3.137   1.165
 2584SOL    HW1 7762   4.200   3.130   1.128
 2584SOL    HW2 7763   4.304   3.226   1.209
 2585SOL     OW 7764   4.574   2.660   1.823
 2585SOL    HW1 7765   4.570   2.736   1.888
 2585SOL    HW2 7766   4.596   2.696   1.732
 2586SOL     OW 7767   4.059   3.297   1.061
 2586SOL    HW1 7768   3.981   3.266   1.008
 2586SOL    HW2 7769   4.117   3.355   1.004
 2587SOL     OW 7770   4.162   2.254   1.499
 2587SOL    HW1 7771   4.244   2.198   1.508
 2587SOL    HW2 7772   4.081   2.196   1.503
 2588SOL     OW 7773   3.955   3.575   0.483
 2588SOL    HW1 7774   3.989   3.652   0.537
 2588SOL    HW2 7775   3.999   3.575   0.393
 2589SOL     OW 7776   3.954   3.296   0.538
 2589SOL    HW1 7777   3.928   3.392   0.538
 2589SOL    HW2 7778   3.883   3.242   0.583
 2590SOL     OW 7779   3.964   2.953   0.886
 2590SOL    HW1 7780   3.978   2.869   0.938
 2590SOL    HW2 7781   3.909   3.017   0.941
 2591SOL     OW 7782   3.846   2.505   0.563
 2591SOL    HW1 7783   3.801   2.417   0.580
 2591SOL    HW2 7784   3.845   2.559   0.647
 2592SOL     OW 7785   3.751   3.458   0.117
 2592SOL    HW1 7786   3.732   3.362   0.138
 2592SOL    HW2 7787   3.718   3.516   0.192
 2593SOL     OW 7788   3.837   2.599   1.597
 2593SOL    HW1 7789   3.925   2.586   1.642
 2593SOL    HW2 7790   3.824   2.696   1.575
 2594SOL     OW 7791   4.337   3.227   0.726
 2594SOL    HW1 7792   4.288   3.140   0.735
 2594SOL    HW2 7793   4.314   3.270   0.639
 2595SOL     OW 7794   4.533   1.866   0.502
 2595SOL    HW1 7795   4.573   1.957   0.493
 2595SOL    HW2 7796   4.433   1.874   0.508
 2596SOL     OW 7797   3.921   2.838   1.264
 2596SOL    HW1 7798   4.010   2.793   1.250
 2596SOL    HW2 7799   3.848   2.773   1.245
 2597SOL     OW 7800   4.041   2.113   1.801
 2597SOL    HW1 7801   4.112   2.184   1.807
 2597SOL    HW2 7802   3.953   2.152   1.829
 2598SOL     OW 7803   4.322   2.591   0.270
 2598SOL    HW1 7804   4.346   2.660   0.202
 2598SOL    HW2 7805   4.244   2.624   0.324
 2599SOL     OW 7806   3.800   2.673   0.789
 2599SOL    HW1 7807   3.899   2.661   0.798
 2599SOL    HW2 7808   3.776   2.768   0.810
 2600SOL     OW 7809   3.854   3.683   1.571
 2600SOL    HW1 7810   3.844   3.668   1.670
 2600SOL    HW2 7811   3.768   3.719   1.535
 2601SOL     OW 7812   4.589   2.210   0.195
 2601SOL    HW1 7813   4.648   2.273   0.146
 2601SOL    HW2 7814   4.608   2.116   0.166
 2602SOL     OW 7815   4.274   2.058   0.885
 2602SOL    HW1 7816   4.269   2.053   0.985
 2602SOL    HW2 7817   4.276   2.154   0.856
 2603SOL     OW 7818   4.075   3.663   0.853
 2603SOL    HW1 7819   4.125   3.577   0.859
 2603SOL    HW2 7820   4.140   3.740   0.850
 2604SOL     OW 7821   4.045   2.805   0.242
 2604SOL    HW1 7822   4.127   2.844   0.200
 2604SOL    HW2 7823   4.018   2.723   0.193
 2605SOL     OW 7824   4.185   3.128   1.727
 2605SOL    HW1 7825   4.135   3.129   1.641
 2605SOL    HW2 7826   4.122   3.110   1.803
 2606SOL     OW 7827   3.926   2.147   1.498
 2606SOL    HW1 7828   3.846   2.207   1.485
 2606SOL    HW2 7829   3.916   2.098   1.584
 2607SOL     OW 7830   4.188   3.605   0.323
 2607SOL    HW1 7831   4.221   3.644   0.409
 2607SOL    HW2 7832   4.264   3.598   0.258
 2608SOL     OW 7833   3.973   3.647   1.241
 2608SOL    HW1 7834   4.030   3.582   1.291
 2608SOL    HW2 7835   3.957   3.614   1.148
 2609SOL     OW 7836   4.106   2.562   0.480
 2609SOL    HW1 7837   4.151   2.472   0.477
 2609SOL    HW2 7838   4.012   2.551   0.513
 2610SOL     OW 7839   4.338   1.984   0.117
 2610SOL    HW1 7840   4.436   1.962   0.124
 2610SOL    HW2 7841   4.307   1.967   0.024
 2611SOL     OW 7842   4.527   3.264   0.924
 2611SOL    HW1 7843   4.617   3.278   0.882
 2611SOL    HW2 7844   4.456   3.266   0.853
 2612SOL     OW 7845   4.263   1.926   0.512
 2612SOL    HW1 7846   4.182   1.927   0.570
 2612SOL    HW2 7847   4.266   2.009   0.457
 2613SOL     OW 7848   4.659   2.098   0.480
 2613SOL    HW1 7849   4.611   2.139   0.402
 2613SOL    HW2 7850   4.758   2.096   0.461
 2614SOL     OW 7851   4.183   3.014   0.741
 2614SOL    HW1 7852   4.112   2.987   0.806
 2614SOL    HW2 7853   4.157   2.986   0.648
 2615SOL     OW 7854   3.802   2.418   1.386
 2615SOL    HW1 7855   3.894   2.417   1.345
 2615SOL    HW2 7856   3.796   2.492   1.453
 2616SOL     OW 7857   4.285   2.084   1.147
 2616SOL    HW1 7858   4.323   2.000   1.184
 2616SOL    HW2 7859   4.197   2.103   1.191
 2617SOL     OW 7860   4.251   2.118   0.328
 2617SOL    HW1 7861   4.278   2.059   0.253
 2617SOL    HW2 7862   4.251   2.213   0.297
 2618SOL     OW 7863   4.134   2.675   1.251
 2618SOL    HW1 7864   4.220   2.687   1.301
 2618SOL    HW2 7865   4.092   2.588   1.278
 2619SOL     OW 7866   3.788   3.426   1.331
 2619SOL    HW1 7867   3.742   3.508   1.297
 2619SOL    HW2 7868   3.886   3.445   1.340
 2620SOL     OW 7869   4.091   2.962   0.501
 2620SOL    HW1 7870   4.084   3.045   0.445
 2620SOL    HW2 7871   4.095   2.882   0.441
 2621SOL     OW 7872   4.290   2.399   0.865
 2621SOL    HW1 7873   4.302   2.465   0.791
 2621SOL    HW2 7874   4.336   2.433   0.948
 2622SOL     OW 7875   4.078   3.372   1.329
 2622SOL    HW1 7876   4.057   3.328   1.242
 2622SOL    HW2 7877   4.175   3.398   1.332
 2623SOL     OW 7878   4.126   2.613   1.598
 2623SOL    HW1 7879   4.194   2.668   1.551
 2623SOL    HW2 7880   4.166   2.525   1.625
 2624SOL     OW 7881   4.228   1.912   1.740
 2624SOL    HW1 7882   4.186   1.855   1.670
 2624SOL    HW2 7883   4.162   1.981   1.772
 2625SOL     OW 7884   4.297   2.732   1.029
 2625SOL    HW1 7885   4.341   2.821   1.020
 2625SOL    HW2 7886   4.234   2.732   1.106
 2626SOL     OW 7887   4.031   2.075   1.231
 2626SOL    HW1 7888   4.008   2.112   1.321
 2626SOL    HW2 7889   4.001   1.980   1.225
 2627SOL     OW 7890   3.761   3.172   1.282
 2627SOL    HW1 7891   3.814   3.123   1.350
 2627SOL    HW2 7892   3.783   3.270   1.287
 2628SOL     OW 7893   4.031   1.925   0.618
 2628SOL    HW1 7894   4.020   2.019   0.651
 2628SOL    HW2 7895   4.026   1.862   0.695
 2629SOL     OW 7896   4.074   2.760   1.804
 2629SOL    HW1 7897   4.150   2.804   1.852
 2629SOL    HW2 7898   4.109   2.713   1.722
 2630SOL     OW 7899   4.043   2.672   0.949
 2630SOL    HW1 7900   4.136   2.708   0.954
 2630SOL    HW2 7901   4.037   2.587   1.001
 2631SOL     OW 7902   4.063   2.371   1.006
 2631SOL    HW1 7903   4.011   2.288   0.989
 2631SOL    HW2 7904   4.140   2.376   0.942
 2632SOL     OW 7905   3.732   3.188   0.200
 2632SOL    HW1 7906   3.639   3.209   0.169
 2632SOL    HW2 7907   3.742   3.089   0.213
 2633SOL     OW 7908   3.812   3.663   0.927
 2633SOL    HW1 7909   3.770   3.577   0.900
 2633SOL    HW2 7910   3.906   3.666   0.893
 2634SOL     OW 7911   4.228   3.430   0.910
 2634SOL    HW1 7912   4.294   3.504   0.919
 2634SOL    HW2 7913   4.272   3.351   0.868
 2635SOL     OW 7914   3.764   2.406   1.114
 2635SOL    HW1 7915   3.849   2.373   1.073
 2635SOL    HW2 7916   3.777   2.421   1.212
 2636SOL     OW 7917   3.913   2.382   1.722
 2636SOL    HW1 7918   3.972   2.342   1.652
 2636SOL    HW2 7919   3.855   2.453   1.681
 2637SOL     OW 7920   4.539   2.434   0.325
 2637SOL    HW1 7921   4.546   2.345   0.279
 2637SOL    HW2 7922   4.445   2.468   0.317
 2638SOL     OW 7923   3.976   3.426   1.744
 2638SOL    HW1 7924   3.946   3.483   1.820
 2638SOL    HW2 7925   3.969   3.329   1.770
 2639SOL     OW 7926   4.197   2.362   0.191
 2639SOL    HW1 7927   4.258   2.442   0.195
 2639SOL    HW2 7928   4.102   2.393   0.198
 2640SOL     OW 7929   3.883   2.999   1.466
 2640SOL    HW1 7930   3.905   2.938   1.542
 2640SOL    HW2 7931   3.893   2.950   1.380
 2641SOL     OW 7932   3.807   3.120   1.022
 2641SOL    HW1 7933   3.802   3.119   1.122
 2641SOL    HW2 7934   3.724   3.079   0.984
 2642SOL     OW 7935   4.412   3.524   1.716
 2642SOL    HW1 7936   4.356   3.605   1.725
 2642SOL    HW2 7937   4.464   3.528   1.630
 2643SOL     OW 7938   3.854   3.656   1.851
 2643SOL    HW1 7939   3.813   3.582   1.904
 2643SOL    HW2 7940   3.918   3.707   1.909
 2644SOL     OW 7941   3.987   2.188   0.720
 2644SOL    HW1 7942   3.908   2.239   0.686
 2644SOL    HW2 7943   3.978   2.173   0.818
 2645SOL     OW 7944   4.096   3.150   1.490
 2645SOL    HW1 7945   4.083   3.243   1.456
 2645SOL    HW2 7946   4.012   3.098   1.477
 2646SOL     OW 7947   4.314   3.349   0.491
 2646SOL    HW1 7948   4.356   3.291   0.421
 2646SOL    HW2 7949   4.270   3.428   0.447
 2647SOL     OW 7950   3.979   3.210   0.290
 2647SOL    HW1 7951   3.883   3.211   0.263
 2647SOL    HW2 7952   3.991   3.263   0.374
 2648SOL     OW 7953   3.829   2.875   1.726
 2648SOL    HW1 7954   3.752   2.842   1.780
 2648SOL    HW2 7955   3.914   2.845   1.768
 2649SOL     OW 7956   4.396   2.065   1.489
 2649SOL    HW1 7957   4.486   2.049   1.449
 2649SOL    HW2 7958   4.404   2.070   1.588
 2650SOL     OW 7959   3.799   2.207   0.033
 2650SOL    HW1 7960   3.707   2.179   0.004
 2650SOL    HW2 7961   3.830   2.284  -0.023
 2651SOL     OW 7962   4.337   2.704   1.431
 2651SOL    HW1 7963   4.393   2.785   1.414
 2651SOL    HW2 7964   4.396   2.624   1.434
 2652SOL     OW 7965   4.114   3.603   1.560
 2652SOL    HW1 7966   4.023   3.644   1.558
 2652SOL    HW2 7967   4.107   3.509   1.592
 2653SOL     OW 7968   4.318   2.607   0.652
 2653SOL    HW1 7969   4.368   2.692   0.633
 2653SOL    HW2 7970   4.230   2.609   0.604
 2654SOL     OW 7971   3.945   3.176   1.844
 2654SOL    HW1 7972   3.880   3.103   1.823
 2654SOL    HW2 7973   3.949   3.190   1.942
 2655SOL     OW 7974   3.803   3.102   0.653
 2655SOL    HW1 7975   3.802   3.055   0.741
 2655SOL    HW2 7976   3.885   3.074   0.602
 2656SOL     OW 7977   4.396   3.253   1.624
 2656SOL    HW1 7978   4.318   3.203   1.662
 2656SOL    HW2 7979   4.393   3.348   1.655
 2657SOL     OW 7980   4.152   2.286   0.520
 2657SOL    HW1 7981   4.182   2.214   0.458
 2657SOL    HW2 7982   4.113   2.246   0.603
 2658SOL     OW 7983   4.041   2.409   1.280
 2658SOL    HW1 7984   4.079   2.350   1.352
 2658SOL    HW2 7985   4.081   2.383   1.192
 2659SOL     OW 7986   3.763   2.939   0.300
 2659SOL    HW1 7987   3.862   2.928   0.291
 2659SOL    HW2 7988   3.723   2.853   0.332
 2660SOL     OW 7989   3.954   2.490   1.975
 2660SOL    HW1 7990   3.861   2.488   2.012
 2660SOL    HW2 7991   3.955   2.451   1.883
 2661SOL     OW 7992   3.949   2.137   2.858
 2661SOL    HW1 7993   3.984   2.120   2.950
 2661SOL    HW2 7994   3.861   2.092   2.846
 2662SOL     OW 7995   3.743   2.230   2.509
 2662SOL    HW1 7996   3.661   2.273   2.548
 2662SOL    HW2 7997   3.715   2.157   2.446
 2663SOL     OW 7998   4.293   3.137   3.027
 2663SOL    HW1 7999   4.200   3.130   2.990
 2663SOL    HW2 8000   4.304   3.226   3.071
 2664SOL     OW 8001   4.574   2.660   3.685
 2664SOL    HW1 8002   4.570   2.736   3.750
 2664SOL    HW2 8003   4.596   2.696   3.594
 2665SOL     OW 8004   4.059   3.297   2.923
 2665SOL    HW1 8005   3.981   3.266   2.870
 2665SOL    HW2 8006   4.117   3.355   2.866
 2666SOL     OW 8007   4.162   2.254   3.361
 2666SOL    HW1 8008   4.244   2.198   3.370
 2666SOL    HW2 8009   4.081   2.196   3.365
 2667SOL     OW 8010   3.955   3.575   2.345
 2667SOL    HW1 8011   3.989   3.652   2.399
 2667SOL    HW2 8012   3.999   3.575   2.255
 2668SOL     OW 8013   3.954   3.296   2.400
 2668SOL    HW1 8014   3.928   3.392   2.400
 2668SOL    HW2 8015   3.883   3.242   2.445
 2669SOL     OW 8016   3.964   2.953   2.748
 2669SOL    HW1 8017   3.978   2.869   2.800
 2669SOL    HW2 8018   3.909   3.017   2.803
 2670SOL     OW 8019   3.846   2.505   2.425
 2670SOL    HW1 8020   3.801   2.417   2.442
 2670SOL    HW2 8021   3.845   2.559   2.509
 2671SOL     OW 8022   3.751   3.458   1.979
 2671SOL    HW1 8023   3.732   3.362   2.000
 2671SOL    HW2 8024   3.718   3.516   2.054
 2672SOL     OW 8025   3.837   2.599   3.459
 2672SOL    HW1 8026   3.925   2.586   3.504
 2672SOL    HW2 8027   3.824   2.696   3.437
 2673SOL     OW 8028   4.337   3.227   2.588
 2673SOL    HW1 8029   4.288   3.140   2.597
 2673SOL    HW2 8030   4.314   3.270   2.501
 2674SOL     OW 8031   4.533   1.866   2.364
 2674SOL    HW1 8032   4.573   1.957   2.355
 2674SOL    HW2 8033   4.433   1.874   2.370
 2675SOL     OW 8034   3.921   2.838   3.126
 2675SOL    HW1 8035   4.010   2.793   3.112
 2675SOL    HW2 8036   3.848   2.773   3.107
 2676SOL     OW 8037   4.041   2.113   3.663
 2676SOL    HW1 8038   4.112   2.184   3.669
 2676SOL    HW2 8039   3.953   2.152   3.691
 2677SOL     OW 8040   4.322   2.591   2.132
 2677SOL    HW1 8041   4.346   2.660   2.064
 2677SOL    HW2 8042   4.244   2.624   2.186
 2678SOL     OW 8043   3.800   2.673   2.651
 2678SOL    HW1 8044   3.899   2.661   2.660
 2678SOL    HW2 8045   3.776   2.768   2.672
 2679SOL     OW 8046   3.854   3.683   3.433
 2679SOL    HW1 8047   3.844   3.668   3.532
 2679SOL    HW2 8048   3.768   3.719   3.397
 2680SOL     OW 8049   4.589   2.210   2.057
 2680SOL    HW1 8050   4.648   2.273   2.008
 2680SOL    HW2 8051   4.608   2.116   2.028
 2681SOL     OW 8052   4.274   2.058   2.747
 2681SOL    HW1 8053   4.269   2.053   2.847
 2681SOL    HW2 8054   4.276   2.154   2.718
 2682SOL     OW 8055   4.075   3.663   2.715
 2682SOL    HW1 8056   4.125   3.577   2.721
 2682SOL    HW2 8057   4.140   3.740   2.712
 2683SOL     OW 8058   4.045   2.805   2.104
 2683SOL    HW1 8059   4.127   2.844   2.062
 2683SOL    HW2 8060   4.018   2.723   2.055
 2684SOL     OW 8061   4.185   3.128   3.589
 2684SOL    HW1 8062   4.135   3.129   3.503
 2684SOL    HW2 8063   4.122   3.110   3.665
 2685SOL     OW 8064   3.926   2.147   3.360
 2685SOL    HW1 8065   3.846   2.207   3.347
 2685SOL    HW2 8066   3.916   2.098   3.446
 2686SOL     OW 8067   4.188   3.605   2.185
 2686SOL    HW1 8068   4.221   3.644   2.271
 2686SOL    HW2 8069   4.264   3.598   2.120
 2687SOL     OW 8070   3.973   3.647   3.103
 2687SOL    HW1 8071   4.030   3.582   3.153
 2687SOL    HW2 8072   3.957   3.614   3.010
 2688SOL     OW 8073   4.106   2.562   2.342
 2688SOL    HW1 8074   4.151   2.472   2.339
 2688SOL    HW2 8075   4.012   2.551   2.375
 2689SOL     OW 8076   4.338   1.984   1.979
 2689SOL    HW1 8077   4.436   1.962   1.986
 2689SOL    HW2 8078   4.307   1.967   1.886
 2690SOL     OW 8079   4.527   3.264   2.786
 2690SOL    HW1 8080   4.617   3.278   2.744
 2690SOL    HW2 8081   4.456   3.266   2.715
 2691SOL     OW 8082   4.263   1.926   2.374
 2691SOL    HW1 8083   4.182   1.927   2.432
 2691SOL    HW2 8084   4.266   2.009   2.319
 2692SOL     OW 8085   4.021   1.897   2.033
 2692SOL    HW1 8086   4.070   1.981   2.012
 2692SOL    HW2 8087   4.083   1.832   2.078
 2693SOL     OW 8088   4.659   2.098   2.342
 2693SOL    HW1 8089   4.611   2.139   2.264
 2693SOL    HW2 8090   4.758   2.096   2.323
 2694SOL     OW 8091   4.183   3.014   2.603
 2694SOL    HW1 8092   4.112   2.987   2.668
 2694SOL    HW2 8093   4.157   2.986   2.510
 2695SOL     OW 8094   3.802   2.418   3.248
 2695SOL    HW1 8095   3.894   2.417   3.207
 2695SOL    HW2 8096   3.796   2.492   3.315
 2696SOL     OW 8097   4.285   2.084   3.009
 2696SOL    HW1 8098   4.323   2.000   3.046
 2696SOL    HW2 8099   4.197   2.103   3.053
 2697SOL     OW 8100   4.251   2.118   2.190
 2697SOL    HW1 8101   4.278   2.059   2.115
 2697SOL    HW2 8102   4.251   2.213   2.159
 2698SOL     OW 8103   4.134   2.675   3.113
 2698SOL    HW1 8104   4.220   2.687   3.163
 2698SOL    HW2 8105   4.092   2.588   3.140
 2699SOL     OW 8106   3.788   3.426   3.193
 2699SOL    HW1 8107   3.742   3.508   3.159
 2699SOL    HW2 8108   3.886   3.445   3.202
 2700SOL     OW 8109   4.091   2.962   2.363
 2700SOL    HW1 8110   4.084   3.045   2.307
 2700SOL    HW2 8111   4.095   2.882   2.303
 2701SOL     OW 8112   4.290   2.399   2.727
 2701SOL    HW1 8113   4.302   2.465   2.653
 2701SOL    HW2 8114   4.336   2.433   2.810
 2702SOL     OW 8115   4.078   3.372   3.191
 2702SOL    HW1 8116   4.057   3.328   3.104
 2702SOL    HW2 8117   4.175   3.398   3.194
 2703SOL     OW 8118   4.126   2.613   3.460
 2703SOL    HW1 8119   4.194   2.668   3.413
 2703SOL    HW2 8120   4.166   2.525   3.487
 2704SOL     OW 8121   4.228   1.912   3.602
 2704SOL    HW1 8122   4.186   1.855   3.532
 2704SOL    HW2 8123   4.162   1.981   3.634
 2705SOL     OW 8124   4.297   2.732   2.891
 2705SOL    HW1 8125   4.341   2.821   2.882
 2705SOL    HW2 8126   4.234   2.732   2.968
 2706SOL     OW 8127   4.031   2.075   3.093
 2706SOL    HW1 8128   4.008   2.112   3.183
 2706SOL    HW2 8129   4.001   1.980   3.087
 2707SOL     OW 8130   3.761   3.172   3.144
 2707SOL    HW1 8131   3.814   3.123   3.212
 2707SOL    HW2 8132   3.783   3.270   3.149
 2708SOL     OW 8133   4.031   1.925   2.480
 2708SOL    HW1 8134   4.020   2.019   2.513
 2708SOL    HW2 8135   4.026   1.862   2.557
 2709SOL     OW 8136   4.074   2.760   3.666
 2709SOL    HW1 8137   4.150   2.804   3.714
 2709SOL    HW2 8138   4.109   2.713   3.584
 2710SOL     OW 8139   4.043   2.672   2.811
 2710SOL    HW1 8140   4.136   2.708   2.816
 2710SOL    HW2 8141   4.037   2.587   2.863
 2711SOL     OW 8142   4.063   2.371   2.868
 2711SOL    HW1 8143   4.011   2.288   2.851
 2711SOL    HW2 8144   4.140   2.376   2.804
 2712SOL     OW 8145   3.732   3.188   2.062
 2712SOL    HW1 8146   3.639   3.209   2.031
 2712SOL    HW2 8147   3.742   3.089   2.075
 2713SOL     OW 8148   3.812   3.663   2.789
 2713SOL    HW1 8149   3.770   3.577   2.762
 2713SOL    HW2 8150   3.906   3.666   2.755
 2714SOL     OW 8151   4.228   3.430   2.772
 2714SOL    HW1 8152   4.294   3.504   2.781
 2714SOL    HW2 8153   4.272   3.351   2.730
 2715SOL     OW 8154   3.764   2.406   2.976
 2715SOL    HW1 8155   3.849   2.373   2.935
 2715SOL    HW2 8156   3.777   2.421   3.074
 2716SOL     OW 8157   3.913   2.382   3.584
 2716SOL    HW1 8158   3.972   2.342   3.514
 2716SOL    HW2 8159   3.855   2.453   3.543
 2717SOL     OW 8160   4.539   2.434   2.187
 2717SOL    HW1 8161   4.546   2.345   2.141
 2717SOL    HW2 8162   4.445   2.468   2.179
 2718SOL     OW 8163   3.976   3.426   3.606
 2718SOL    HW1 8164   3.946   3.483   3.682
 2718SOL    HW2 8165   3.969   3.329   3.632
 2719SOL     OW 8166   4.197   2.362   2.053
 2719SOL    HW1 8167   4.258   2.442   2.057
 2719SOL    HW2 8168   4.102   2.393   2.060
 2720SOL     OW 8169   3.883   2.999   3.328
 2720SOL    HW1 8170   3.905   2.938   3.404
 2720SOL    HW2 8171   3.893   2.950   3.242
 2721SOL     OW 8172   3.807   3.120   2.884
 2721SOL    HW1 8173   3.802   3.119   2.984
 2721SOL    HW2 8174   3.724   3.079   2.846
 2722SOL     OW 8175   4.412   3.524   3.578
 2722SOL    HW1 8176   4.356   3.605   3.587
 2722SOL    HW2 8177   4.464   3.528   3.492
 2723SOL     OW 8178   3.854   3.656   3.713
 2723SOL    HW1 8179   3.813   3.582   3.766
 2723SOL    HW2 8180   3.918   3.707   3.771
 2724SOL     OW 8181   3.987   2.188   2.582
 2724SOL    HW1 8182   3.908   2.239   2.548
 2724SOL    HW2 8183   3.978   2.173   2.680
 2725SOL     OW 8184   4.096   3.150   3.352
 2725SOL    HW1 8185   4.083   3.243   3.318
 2725SOL    HW2 8186   4.012   3.098   3.339
 2726SOL     OW 8187   4.314   3.349   2.353
 2726SOL    HW1 8188   4.356   3.291   2.283
 2726SOL    HW2 8189   4.270   3.428   2.309
 2727SOL     OW 8190   3.979   3.210   2.152
 2727SOL    HW1 8191   3.883   3.211   2.125
 2727SOL    HW2 8192   3.991   3.263   2.236
 2728SOL     OW 8193   3.829   2.875   3.588
 2728SOL    HW1 8194   3.752   2.842   3.642
 2728SOL    HW2 8195   3.914   2.845   3.630
 2729SOL     OW 8196   4.396   2.065   3.351
 2729SOL    HW1 8197   4.486   2.049   3.311
 2729SOL    HW2 8198   4.404   2.070   3.450
 2730SOL     OW 8199   3.799   2.207   1.895
 2730SOL    HW1 8200   3.707   2.179   1.866
 2730SOL    HW2 8201   3.830   2.284   1.839
 2731SOL     OW 8202   3.796   2.028   2.180
 2731SOL    HW1 8203   3.779   2.111   2.126
 2731SOL    HW2 8204   3.886   1.991   2.158
 2732SOL     OW 8205   4.337   2.704   3.293
 2732SOL    HW1 8206   4.393   2.785   3.276
 2732SOL    HW2 8207   4.396   2.624   3.296
 2733SOL     OW 8208   4.114   3.603   3.422
 2733SOL    HW1 8209   4.023   3.644   3.420
 2733SOL    HW2 8210   4.107   3.509   3.454
 2734SOL     OW 8211   4.318   2.607   2.514
 2734SOL    HW1 8212   4.368   2.692   2.495
 2734SOL    HW2 8213   4.230   2.609   2.466
 2735SOL     OW 8214   3.945   3.176   3.706
 2735SOL    HW1 8215   3.880   3.103   3.685
 2735SOL    HW2 8216   3.949   3.190   3.804
 2736SOL     OW 8217   3.803   3.102   2.515
 2736SOL    HW1 8218   3.802   3.055   2.603
 2736SOL    HW2 8219   3.885   3.074   2.464
 2737SOL     OW 8220   4.396   3.253   3.486
 2737SOL    HW1 8221   4.318   3.203   3.524
 2737SOL    HW2 8222   4.393   3.348   3.517
 2738SOL     OW 8223   4.152   2.286   2.382
 2738SOL    HW1 8224   4.182   2.214   2.320
 2738SOL    HW2 8225   4.113   2.246   2.465
 2739SOL     OW 8226   4.041   2.409   3.142
 2739SOL    HW1 8227   4.079   2.350   3.214
 2739SOL    HW2 8228   4.081   2.383   3.054
 2740SOL     OW 8229   3.763   2.939   2.162
 2740SOL    HW1 8230   3.862   2.928   2.153
 2740SOL    HW2 8231   3.723   2.853   2.194
 2741SOL     OW 8232   3.954   2.490   3.837
 2741SOL    HW1 8233   3.861   2.488   3.874
 2741SOL    HW2 8234   3.955   2.451   3.745
 2742SOL     OW 8235   3.955   3.575   4.207
 2742SOL    HW1 8236   3.989   3.652   4.261
 2742SOL    HW2 8237   3.999   3.575   4.117
 2743SOL     OW 8238   3.954   3.296   4.262
 2743SOL    HW1 8239   3.928   3.392   4.262
 2743SOL    HW2 8240   3.883   3.242   4.307
 2744SOL     OW 8241   3.846   2.505   4.287
 2744SOL    HW1 8242   3.801   2.417   4.304
 2744SOL    HW2 8243   3.845   2.559   4.371
 2745SOL     OW 8244   3.751   3.458   3.841
 2745SOL    HW1 8245   3.732   3.362   3.862
 2745SOL    HW2 8246   3.718   3.516   3.916
 2746SOL     OW 8247   4.533   1.866   4.226
 2746SOL    HW1 8248   4.573   1.957   4.217
 2746SOL    HW2 8249   4.433   1.874   4.232
 2747SOL     OW 8250   4.322   2.591   3.994
 2747SOL    HW1 8251   4.346   2.660   3.926
 2747SOL    HW2 8252   4.244   2.624   4.048
 2748SOL     OW 8253   3.800   2.673   4.513
 2748SOL    HW1 8254   3.899   2.661   4.522
 2748SOL    HW2 8255   3.776   2.768   4.534
 2749SOL     OW 8256   4.589   2.210   3.919
 2749SOL    HW1 8257   4.648   2.273   3.870
 2749SOL    HW2 8258   4.608   2.116   3.890
 2750SOL     OW 8259   4.075   3.663   4.577
 2750SOL    HW1 8260   4.125   3.577   4.583
 2750SOL    HW2 8261   4.140   3.740   4.574
 2751SOL     OW 8262   4.045   2.805   3.966
 2751SOL    HW1 8263   4.127   2.844   3.924
 2751SOL    HW2 8264   4.018   2.723   3.917
 2752SOL     OW 8265   4.188   3.605   4.047
 2752SOL    HW1 8266   4.221   3.644   4.133
 2752SOL    HW2 8267   4.264   3.598   3.982
 2753SOL     OW 8268   4.106   2.562   4.204
 2753SOL    HW1 8269   4.151   2.472   4.201
 2753SOL    HW2 8270   4.012   2.551   4.237
 2754SOL     OW 8271   4.338   1.984   3.841
 2754SOL    HW1 8272   4.436   1.962   3.848
 2754SOL    HW2 8273   4.307   1.967   3.748
 2755SOL     OW 8274   4.263   1.926   4.236
 2755SOL    HW1 8275   4.182   1.927   4.294
 2755SOL    HW2 8276   4.266   2.009   4.181
 2756SOL     OW 8277   4.021   1.897   3.895
 2756SOL    HW1 8278   4.070   1.981   3.874
 2756SOL    HW2 8279   4.083   1.832   3.940
 2757SOL     OW 8280   4.659   2.098   4.204
 2757SOL    HW1 8281   4.611   2.139   4.126
 2757SOL    HW2 8282   4.758   2.096   4.185
 2758SOL     OW 8283   4.183   3.014   4.465
 2758SOL    HW1 8284   4.112   2.987   4.530
 2758SOL    HW2 8285   4.157   2.986   4.372
 2759SOL     OW 8286   4.251   2.118   4.052
 2759SOL    HW1 8287   4.278   2.059   3.977
 2759SOL    HW2 8288   4.251   2.213   4.021
 2760SOL     OW 8289   4.091   2.962   4.225
 2760SOL    HW1 8290   4.084   3.045   4.169
 2760SOL    HW2 8291   4.095   2.882   4.165
 2761SOL     OW 8292   4.031   1.925   4.342
 2761SOL    HW1 8293   4.020   2.019   4.375
 2761SOL    HW2 8294   4.026   1.862   4.419
 2762SOL     OW 8295   3.732   3.188   3.924
 2762SOL    HW1 8296   3.639   3.209   3.893
 2762SOL    HW2 8297   3.742   3.089   3.937
 2763SOL     OW 8298   4.539   2.434   4.049
 2763SOL    HW1 8299   4.546   2.345   4.003
 2763SOL    HW2 8300   4.445   2.468   4.041
 2764SOL     OW 8301   4.197   2.362   3.915
 2764SOL    HW1 8302   4.258   2.442   3.919
 2764SOL    HW2 8303   4.102   2.393   3.922
 2765SOL     OW 8304   4.314   3.349   4.215
 2765SOL    HW1 8305   4.356   3.291   4.145
 2765SOL    HW2 8306   4.270   3.428   4.171
 2766SOL     OW 8307   3.979   3.210   4.014
 2766SOL    HW1 8308   3.883   3.211   3.987
 2766SOL    HW2 8309   3.991   3.263   4.098
 2767SOL     OW 8310   3.799   2.207   3.757
 2767SOL    HW1 8311   3.707   2.179   3.728
 2767SOL    HW2 8312   3.830   2.284   3.701
 2768SOL     OW 8313   3.796   2.028   4.042
 2768SOL    HW1 8314   3.779   2.111   3.988
 2768SOL    HW2 8315   3.886   1.991   4.020
 2769SOL     OW 8316   4.318   2.607   4.376
 2769SOL    HW1 8317   4.368   2.692   4.357
 2769SOL    HW2 8318   4.230   2.609   4.328
 2770SOL     OW 8319   3.803   3.102   4.377
 2770SOL    HW1 8320   3.802   3.055   4.465
 2770SOL    HW2 8321   3.885   3.074   4.326
 2771SOL     OW 8322   4.152   2.286   4.244
 2771SOL    HW1 8323   4.182   2.214   4.182
 2771SOL    HW2 8324   4.113   2.246   4.327
 2772SOL     OW 8325   3.763   2.939   4.024
 2772SOL    HW1 8326   3.862   2.928   4.015
 2772SOL    HW2 8327   3.723   2.853   4.056
 2773SOL     OW 8328   3.949   3.999   0.996
 2773SOL    HW1 8329   3.984   3.982   1.088
 2773SOL    HW2 8330   3.861   3.954   0.984
 2774SOL     OW 8331   3.743   4.092   0.647
 2774SOL    HW1 8332   3.661   4.135   0.686
 2774SOL    HW2 8333   3.715   4.019   0.584
 2775SOL     OW 8334   4.574   4.522   1.823
 2775SOL    HW1 8335   4.570   4.598   1.888
 2775SOL    HW2 8336   4.596   4.558   1.732
 2776SOL     OW 8337   4.162   4.116   1.499
 2776SOL    HW1 8338   4.244   4.060   1.508
 2776SOL    HW2 8339   4.081   4.058   1.503
 2777SOL     OW 8340   3.846   4.367   0.563
 2777SOL    HW1 8341   3.801   4.279   0.580
 2777SOL    HW2 8342   3.845   4.421   0.647
 2778SOL     OW 8343   3.837   4.461   1.597
 2778SOL    HW1 8344   3.925   4.448   1.642
 2778SOL    HW2 8345   3.824   4.558   1.575
 2779SOL     OW 8346   4.533   3.728   0.502
 2779SOL    HW1 8347   4.573   3.819   0.493
 2779SOL    HW2 8348   4.433   3.736   0.508
 2780SOL     OW 8349   4.041   3.975   1.801
 2780SOL    HW1 8350   4.112   4.046   1.807
 2780SOL    HW2 8351   3.953   4.014   1.829
 2781SOL     OW 8352   4.322   4.453   0.270
 2781SOL    HW1 8353   4.346   4.522   0.202
 2781SOL    HW2 8354   4.244   4.486   0.324
 2782SOL     OW 8355   4.589   4.072   0.195
 2782SOL    HW1 8356   4.648   4.135   0.146
 2782SOL    HW2 8357   4.608   3.978   0.166
 2783SOL     OW 8358   4.274   3.920   0.885
 2783SOL    HW1 8359   4.269   3.915   0.985
 2783SOL    HW2 8360   4.276   4.016   0.856
 2784SOL     OW 8361   3.926   4.009   1.498
 2784SOL    HW1 8362   3.846   4.069   1.485
 2784SOL    HW2 8363   3.916   3.960   1.584
 2785SOL     OW 8364   4.338   3.846   0.117
 2785SOL    HW1 8365   4.436   3.824   0.124
 2785SOL    HW2 8366   4.307   3.829   0.024
 2786SOL     OW 8367   4.263   3.788   0.512
 2786SOL    HW1 8368   4.182   3.789   0.570
 2786SOL    HW2 8369   4.266   3.871   0.457
 2787SOL     OW 8370   4.659   3.960   0.480
 2787SOL    HW1 8371   4.611   4.001   0.402
 2787SOL    HW2 8372   4.758   3.958   0.461
 2788SOL     OW 8373   3.802   4.280   1.386
 2788SOL    HW1 8374   3.894   4.279   1.345
 2788SOL    HW2 8375   3.796   4.354   1.453
 2789SOL     OW 8376   4.285   3.946   1.147
 2789SOL    HW1 8377   4.323   3.862   1.184
 2789SOL    HW2 8378   4.197   3.965   1.191
 2790SOL     OW 8379   4.251   3.980   0.328
 2790SOL    HW1 8380   4.278   3.921   0.253
 2790SOL    HW2 8381   4.251   4.075   0.297
 2791SOL     OW 8382   4.290   4.261   0.865
 2791SOL    HW1 8383   4.302   4.327   0.791
 2791SOL    HW2 8384   4.336   4.295   0.948
 2792SOL     OW 8385   4.228   3.774   1.740
 2792SOL    HW1 8386   4.186   3.717   1.670
 2792SOL    HW2 8387   4.162   3.843   1.772
 2793SOL     OW 8388   4.031   3.937   1.231
 2793SOL    HW1 8389   4.008   3.974   1.321
 2793SOL    HW2 8390   4.001   3.842   1.225
 2794SOL     OW 8391   4.031   3.787   0.618
 2794SOL    HW1 8392   4.020   3.881   0.651
 2794SOL    HW2 8393   4.026   3.724   0.695
 2795SOL     OW 8394   4.043   4.534   0.949
 2795SOL    HW1 8395   4.136   4.570   0.954
 2795SOL    HW2 8396   4.037   4.449   1.001
 2796SOL     OW 8397   4.063   4.233   1.006
 2796SOL    HW1 8398   4.011   4.150   0.989
 2796SOL    HW2 8399   4.140   4.238   0.942
 2797SOL     OW 8400   3.764   4.268   1.114
 2797SOL    HW1 8401   3.849   4.235   1.073
 2797SOL    HW2 8402   3.777   4.283   1.212
 2798SOL     OW 8403   3.913   4.244   1.722
 2798SOL    HW1 8404   3.972   4.204   1.652
 2798SOL    HW2 8405   3.855   4.315   1.681
 2799SOL     OW 8406   4.539   4.296   0.325
 2799SOL    HW1 8407   4.546   4.207   0.279
 2799SOL    HW2 8408   4.445   4.330   0.317
 2800SOL     OW 8409   4.197   4.224   0.191
 2800SOL    HW1 8410   4.258   4.304   0.195
 2800SOL    HW2 8411   4.102   4.255   0.198
 2801SOL     OW 8412   3.987   4.050   0.720
 2801SOL    HW1 8413   3.908   4.101   0.686
 2801SOL    HW2 8414   3.978   4.035   0.818
 2802SOL     OW 8415   4.396   3.927   1.489
 2802SOL    HW1 8416   4.486   3.911   1.449
 2802SOL    HW2 8417   4.404   3.932   1.588
 2803SOL     OW 8418   3.799   4.069   0.033
 2803SOL    HW1 8419   3.707   4.041   0.004
 2803SOL    HW2 8420   3.830   4.146  -0.023
 2804SOL     OW 8421   4.152   4.148   0.520
 2804SOL    HW1 8422   4.182   4.076   0.458
 2804SOL    HW2 8423   4.113   4.108   0.603
 2805SOL     OW 8424   4.041   4.271   1.280
 2805SOL    HW1 8425   4.079   4.212   1.352
 2805SOL    HW2 8426   4.081   4.245   1.192
 2806SOL     OW 8427   3.949   3.999   2.858
 2806SOL    HW1 8428   3.984   3.982   2.950
 2806SOL    HW2 8429   3.861   3.954   2.846
 2807SOL     OW 8430   3.743   4.092   2.509
 2807SOL    HW1 8431   3.661   4.135   2.548
 2807SOL    HW2 8432   3.715   4.019   2.446
 2808SOL     OW 8433   4.574   4.522   3.685
 2808SOL    HW1 8434   4.570   4.598   3.750
 2808SOL    HW2 8435   4.596   4.558   3.594
 2809SOL     OW 8436   4.162   4.116   3.361
 2809SOL    HW1 8437   4.244   4.060   3.370
 2809SOL    HW2 8438   4.081   4.058   3.365
 2810SOL     OW 8439   3.846   4.367   2.425
 2810SOL    HW1 8440   3.801   4.279   2.442
 2810SOL    HW2 8441   3.845   4.421   2.509
 2811SOL     OW 8442   3.837   4.461   3.459
 2811SOL    HW1 8443   3.925   4.448   3.504
 2811SOL    HW2 8444   3.824   4.558   3.437
 2812SOL     OW 8445   4.533   3.728   2.364
 2812SOL    HW1 8446   4.573   3.819   2.355
 2812SOL    HW2 8447   4.433   3.736   2.370
 2813SOL     OW 8448   4.041   3.975   3.663
 2813SOL    HW1 8449   4.112   4.046   3.669
 2813SOL    HW2 8450   3.953   4.014   3.691
 2814SOL     OW 8451   4.589   4.072   2.057
 2814SOL    HW1 8452   4.648   4.135   2.008
 2814SOL    HW2 8453   4.608   3.978   2.028
 2815SOL     OW 8454   4.274   3.920   2.747
 2815SOL    HW1 8455   4.269   3.915   2.847
 2815SOL    HW2 8456   4.276   4.016   2.718
 2816SOL     OW 8457   3.926   4.009   3.360
 2816SOL    HW1 8458   3.846   4.069   3.347
 2816SOL    HW2 8459   3.916   3.960   3.446
 2817SOL     OW 8460   4.338   3.846   1.979
 2817SOL    HW1 8461   4.436   3.824   1.986
 2817SOL    HW2 8462   4.307   3.829   1.886
 2818SOL     OW 8463   4.263   3.788   2.374
 2818SOL    HW1 8464   4.182   3.789   2.432
 2818SOL    HW2 8465   4.266   3.871   2.319
 2819SOL     OW 8466   4.021   3.759   2.033
 2819SOL    HW1 8467   4.070   3.843   2.012
 2819SOL    HW2 8468   4.083   3.694   2.078
 2820SOL     OW 8469   4.659   3.960   2.342
 2820SOL    HW1 8470   4.611   4.001   2.264
 2820SOL    HW2 8471   4.758   3.958   2.323
 2821SOL     OW 8472   3.802   4.280   3.248
 2821SOL    HW1 8473   3.894   4.279   3.207
 2821SOL    HW2 8474   3.796   4.354   3.315
 2822SOL     OW 8475   4.285   3.946   3.009
 2822SOL    HW1 8476   4.323   3.862   3.046
 2822SOL    HW2 8477   4.197   3.965   3.053
 2823SOL     OW 8478   4.251   3.980   2.190
 2823SOL    HW1 8479   4.278   3.921   2.115
 2823SOL    HW2 8480   4.251   4.075   2.159
 2824SOL     OW 8481   4.290   4.261   2.727
 2824SOL    HW1 8482   4.302   4.327   2.653
 2824SOL    HW2 8483   4.336   4.295   2.810
 2825SOL     OW 8484   4.228   3.774   3.602
 2825SOL    HW1 8485   4.186   3.717   3.532
 2825SOL    HW2 8486   4.162   3.843   3.634
 2826SOL     OW 8487   4.031   3.937   3.093
 2826SOL    HW1 8488   4.008   3.974   3.183
 2826SOL    HW2 8489   4.001   3.842   3.087
 2827SOL     OW 8490   4.031   3.787   2.480
 2827SOL    HW1 8491   4.020   3.881   2.513
 2827SOL    HW2 8492   4.026   3.724   2.557
 2828SOL     OW 8493   4.043   4.534   2.811
 2828SOL    HW1 8494   4.136   4.570   2.816
 2828SOL    HW2 8495   4.037   4.449   2.863
 2829SOL     OW 8496   4.063   4.233   2.868
 2829SOL    HW1 8497   4.011   4.150   2.851
 2829SOL    HW2 8498   4.140   4.238   2.804
 2830SOL     OW 8499   3.764   4.268   2.976
 2830SOL    HW1 8500   3.849   4.235   2.935
 2830SOL    HW2 8501   3.777   4.283   3.074
 2831SOL     OW 8502   3.913   4.244   3.584
 2831SOL    HW1 8503   3.972   4.204   3.514
 2831SOL    HW2 8504   3.855   4.315   3.543
 2832SOL     OW 8505   4.539   4.296   2.187
 2832SOL    HW1 8506   4.546   4.207   2.141
 2832SOL    HW2 8507   4.445   4.330   2.179
 2833SOL     OW 8508   4.197   4.224   2.053
 2833SOL    HW1 8509   4.258   4.304   2.057
 2833SOL    HW2 8510   4.102   4.255   2.060
 2834SOL     OW 8511   3.987   4.050   2.582
 2834SOL    HW1 8512   3.908   4.101   2.548
 2834SOL    HW2 8513   3.978   4.035   2.680
 2835SOL     OW 8514   4.396   3.927   3.351
 2835SOL    HW1 8515   4.486   3.911   3.311
 2835SOL    HW2 8516   4.404   3.932   3.450
 2836SOL     OW 8517   3.799   4.069   1.895
 2836SOL    HW1 8518   3.707   4.041   1.866
 2836SOL    HW2 8519   3.830   4.146   1.839
 2837SOL     OW 8520   3.796   3.890   2.180
 2837SOL    HW1 8521   3.779   3.973   2.126
 2837SOL    HW2 8522   3.886   3.853   2.158
 2838SOL     OW 8523   4.152   4.148   2.382
 2838SOL    HW1 8524   4.182   4.076   2.320
 2838SOL    HW2 8525   4.113   4.108   2.465
 2839SOL     OW 8526   4.041   4.271   3.142
 2839SOL    HW1 8527   4.079   4.212   3.214
 2839SOL    HW2 8528   4.081   4.245   3.054
 2840SOL     OW 8529   3.846   4.367   4.287
 2840SOL    HW1 8530   3.801   4.279   4.304
 2840SOL    HW2 8531   3.845   4.421   4.371
 2841SOL     OW 8532   4.533   3.728   4.226
 2841SOL    HW1 8533   4.573   3.819   4.217
 2841SOL    HW2 8534   4.433   3.736   4.232
 2842SOL     OW 8535   4.589   4.072   3.919
 2842SOL    HW1 8536   4.648   4.135   3.870
 2842SOL    HW2 8537   4.608   3.978   3.890
 2843SOL     OW 8538   4.338   3.846   3.841
 2843SOL    HW1 8539   4.436   3.824   3.848
 2843SOL    HW2 8540   4.307   3.829   3.748
 2844SOL     OW 8541   4.263   3.788   4.236
 2844SOL    HW1 8542   4.182   3.789   4.294
 2844SOL    HW2 8543   4.266   3.871   4.181
 2845SOL     OW 8544   4.021   3.759   3.895
 2845SOL    HW1 8545   4.070   3.843   3.874
 2845SOL    HW2 8546   4.083   3.694   3.940
 2846SOL     OW 8547   4.659   3.960   4.204
 2846SOL    HW1 8548   4.611   4.001   4.126
 2846SOL    HW2 8549   4.758   3.958   4.185
 2847SOL     OW 8550   4.251   3.980   4.052
 2847SOL    HW1 8551   4.278   3.921   3.977
 2847SOL    HW2 8552   4.251   4.075   4.021
 2848SOL     OW 8553   4.031   3.787   4.342
 2848SOL    HW1 8554   4.020   3.881   4.375
 2848SOL    HW2 8555   4.026   3.724   4.419
 2849SOL     OW 8556   4.539   4.296   4.049
 2849SOL    HW1 8557   4.546   4.207   4.003
 2849SOL    HW2 8558   4.445   4.330   4.041
 2850SOL     OW 8559   4.197   4.224   3.915
 2850SOL    HW1 8560   4.258   4.304   3.919
 2850SOL    HW2 8561   4.102   4.255   3.922
 2851SOL     OW 8562   3.799   4.069   3.757
 2851SOL    HW1 8563   3.707   4.041   3.728
 2851SOL    HW2 8564   3.830   4.146   3.701
 2852SOL     OW 8565   3.796   3.890   4.042
 2852SOL    HW1 8566   3.779   3.973   3.988
 2852SOL    HW2 8567   3.886   3.853   4.020
 2853SOL     OW 8568   4.152   4.148   4.244
 2853SOL    HW1 8569   4.182   4.076   4.182
 2853SOL    HW2 8570   4.113   4.108   4.327
   4.43447   4.43447   4.43447
