; mobley_5857_GMX.top created by acpype (v: 2023.10.27) on Tue May 19 12:24:12 2026

[ defaults ]
; nbfunc        comb-rule       gen-pairs       fudgeLJ fudgeQQ
1               2               yes             0.5     0.8333333333

; Include mobley_5857_GMX.itp topology
#include "mobley_5857_GMX.itp"

; Ligand position restraints
#ifdef POSRES_LIG
#include "posre_mobley_5857.itp"
#endif

[ system ]
mobley_5857 in water

[ molecules ]
; Compound        nmols
 mobley_5857      1     
SOL              3405
