mobley_5857_GMX.gro created by acpype (v: 2023.10.27) on Tue May 19 12:24:12 2026
 17
    1  MOL   C1    1   0.021   0.207  -0.055
    1  MOL   C2    2  -0.051   0.090  -0.034
    1  MOL   C3    3  -0.391   0.427  -0.184
    1  MOL   C4    4  -0.046   0.321  -0.098
    1  MOL   C5    5  -0.254   0.433  -0.163
    1  MOL   C6    6  -0.189   0.087  -0.055
    1  MOL   C7    7  -0.455   0.307  -0.160
    1  MOL   C8    8  -0.185   0.319  -0.120
    1  MOL   C9    9  -0.258   0.200  -0.098
    1  MOL   N1   10  -0.391   0.195  -0.118
    1  MOL   H1   11   0.128   0.209  -0.038
    1  MOL   H2   12   0.000   0.000  -0.000
    1  MOL   H3   13  -0.447   0.514  -0.217
    1  MOL   H4   14   0.011   0.412  -0.114
    1  MOL   H5   15  -0.202   0.526  -0.181
    1  MOL   H6   16  -0.243  -0.006  -0.038
    1  MOL   H7   17  -0.561   0.296  -0.174
   13.78800    10.63600     4.33800
