%VERSION  VERSION_STAMP = V0001.000  DATE = 05/20/26  23:52:25                  
%FLAG TITLE                                                                     
%FORMAT(20a4)                                                                   
di_n_propylamine                                                                
%FLAG POINTERS                                                                  
%FORMAT(10I8)                                                                   
      22       5      15       6      34       5      44       4       0       0
     109       1       6       5       4       5       9       9       5       0
       0       0       0       0       0       0       0       0      22       0
       0
%FLAG ATOM_NAME                                                                 
%FORMAT(20a4)                                                                   
C1  C2  C3  C4  C5  C6  N1  H1  H2  H3  H4  H5  H6  H7  H8  H9  H10 H11 H12 H13 
H14 H15 
%FLAG CHARGE                                                                    
%FORMAT(5E16.8)                                                                 
 -1.69649613E+00 -1.69649613E+00 -1.53796212E+00 -1.53796212E+00  2.98481274E+00
  2.98481274E+00 -1.50370420E+01  6.26245784E-01  6.26245784E-01  6.26245784E-01
  6.26245784E-01  6.26245784E-01  6.26245784E-01  8.32759110E-01  8.32759110E-01
  8.32759110E-01  8.32759110E-01  5.04757710E-01  5.04757710E-01  5.04757710E-01
  5.04757710E-01  6.46527204E+00
%FLAG ATOMIC_NUMBER                                                             
%FORMAT(10I8)                                                                   
       6       6       6       6       6       6       7       1       1       1
       1       1       1       1       1       1       1       1       1       1
       1       1
%FLAG MASS                                                                      
%FORMAT(5E16.8)                                                                 
  1.20100000E+01  1.20100000E+01  1.20100000E+01  1.20100000E+01  1.20100000E+01
  1.20100000E+01  1.40100000E+01  1.00800000E+00  1.00800000E+00  1.00800000E+00
  1.00800000E+00  1.00800000E+00  1.00800000E+00  1.00800000E+00  1.00800000E+00
  1.00800000E+00  1.00800000E+00  1.00800000E+00  1.00800000E+00  1.00800000E+00
  1.00800000E+00  1.00800000E+00
%FLAG ATOM_TYPE_INDEX                                                           
%FORMAT(10I8)                                                                   
       1       1       1       1       1       1       2       3       3       3
       3       3       3       3       3       3       3       4       4       4
       4       5
%FLAG NUMBER_EXCLUDED_ATOMS                                                     
%FORMAT(10I8)                                                                   
      10      10      11      11      12      11       9       4       3       2
       4       3       2       3       2       3       2       2       1       2
       1       1
%FLAG NONBONDED_PARM_INDEX                                                      
%FORMAT(10I8)                                                                   
       1       2       4       7      11       2       3       5       8      12
       4       5       6       9      13       7       8       9      10      14
      11      12      13      14      15
%FLAG RESIDUE_LABEL                                                             
%FORMAT(20a4)                                                                   
MOL 
%FLAG RESIDUE_POINTER                                                           
%FORMAT(10I8)                                                                   
       1
%FLAG BOND_FORCE_CONSTANT                                                       
%FORMAT(5E16.8)                                                                 
  2.28890000E+02  3.45250000E+02  2.55520000E+02  3.44220000E+02  4.60050000E+02
%FLAG BOND_EQUIL_VALUE                                                          
%FORMAT(5E16.8)                                                                 
  1.53540000E+00  1.09620000E+00  1.46300000E+00  1.09690000E+00  1.01950000E+00
%FLAG ANGLE_FORCE_CONSTANT                                                      
%FORMAT(5E16.8)                                                                 
  5.98700000E+01  4.32700000E+01  6.57200000E+01  4.32800000E+01  7.69900000E+01
  5.64400000E+01  4.77900000E+01  3.58000000E+01  3.56400000E+01
%FLAG ANGLE_EQUIL_VALUE                                                         
%FORMAT(5E16.8)                                                                 
  1.96576518E+00  1.91427794E+00  1.92370273E+00  1.91270715E+00  1.99979911E+00
  1.89996624E+00  1.92492446E+00  1.88024401E+00  1.89455572E+00
%FLAG DIHEDRAL_FORCE_CONSTANT                                                   
%FORMAT(5E16.8)                                                                 
  2.10000000E-01  1.55555556E-01  1.40000000E-01  2.17000000E-01  1.30000000E-01
  2.15000000E-01  1.00000000E-01  1.20000000E-01  3.00000000E-01
%FLAG DIHEDRAL_PERIODICITY                                                      
%FORMAT(5E16.8)                                                                 
  3.00000000E+00  3.00000000E+00  3.00000000E+00  3.00000000E+00  3.00000000E+00
  3.00000000E+00  3.00000000E+00  3.00000000E+00  3.00000000E+00
%FLAG DIHEDRAL_PHASE                                                            
%FORMAT(5E16.8)                                                                 
  0.00000000E+00  0.00000000E+00  0.00000000E+00  0.00000000E+00  0.00000000E+00
  0.00000000E+00  0.00000000E+00  0.00000000E+00  0.00000000E+00
%FLAG SCEE_SCALE_FACTOR                                                         
%FORMAT(5E16.8)                                                                 
  1.20000000E+00  1.20000000E+00  1.20000000E+00  1.20000000E+00  1.20000000E+00
  1.20000000E+00  1.20000000E+00  1.20000000E+00  1.20000000E+00
%FLAG SCNB_SCALE_FACTOR                                                         
%FORMAT(5E16.8)                                                                 
  2.00000000E+00  2.00000000E+00  2.00000000E+00  2.00000000E+00  2.00000000E+00
  2.00000000E+00  2.00000000E+00  2.00000000E+00  2.00000000E+00
%FLAG SOLTY                                                                     
%FORMAT(5E16.8)                                                                 
  0.00000000E+00  0.00000000E+00  0.00000000E+00  0.00000000E+00  0.00000000E+00
%FLAG LENNARD_JONES_ACOEF                                                       
%FORMAT(5E16.8)                                                                 
  1.02073671E+06  8.61147463E+05  7.24302894E+05  1.00235148E+05  8.67370500E+04
  7.94617769E+03  6.97998263E+04  6.08009173E+04  5.22955465E+03  3.39005767E+03
  2.23577481E+03  2.07791361E+03  9.47421632E+01  5.24570081E+01  1.34728399E-01
%FLAG LENNARD_JONES_BCOEF                                                       
%FORMAT(5E16.8)                                                                 
  6.63431737E+02  5.08324538E+02  3.88888730E+02  1.37787728E+02  1.06921681E+02
  2.57122925E+01  1.14981426E+02  8.95196800E+01  2.08590256E+01  1.67944276E+01
  1.71355763E+01  1.37803855E+01  2.33785449E+00  1.73959275E+00  7.34107347E-02
%FLAG BONDS_INC_HYDROGEN                                                        
%FORMAT(10I8)                                                                   
       0      21       2       0      24       2       0      27       2       3
      30       2       3      33       2       3      36       2       6      39
       2       6      42       2       9      45       2       9      48       2
      12      51       4      12      54       4      15      57       4      15
      60       4      18      63       5
%FLAG BONDS_WITHOUT_HYDROGEN                                                    
%FORMAT(10I8)                                                                   
       0       6       1       3       9       1       6      12       1       9
      15       1      12      18       3      15      18       3
%FLAG ANGLES_INC_HYDROGEN                                                       
%FORMAT(10I8)                                                                   
       0       6      39       2       0       6      42       2       3       9
      45       2       3       9      48       2       6       0      21       2
       6       0      24       2       6       0      27       2       6      12
      51       4       6      12      54       4       9       3      30       2
       9       3      33       2       9       3      36       2       9      15
      57       4       9      15      60       4      12       6      39       2
      12       6      42       2      12      18      63       6      15       9
      45       2      15       9      48       2      15      18      63       6
      18      12      51       7      18      12      54       7      18      15
      57       7      18      15      60       7      21       0      24       8
      21       0      27       8      24       0      27       8      30       3
      33       8      30       3      36       8      33       3      36       8
      39       6      42       8      45       9      48       8      51      12
      54       9      57      15      60       9
%FLAG ANGLES_WITHOUT_HYDROGEN                                                   
%FORMAT(10I8)                                                                   
       0       6      12       1       3       9      15       1       6      12
      18       3       9      15      18       3      12      18      15       5
%FLAG DIHEDRALS_INC_HYDROGEN                                                    
%FORMAT(10I8)                                                                   
       0       6      12      51       2       0       6      12      54       2
       3       9      15      57       2       3       9      15      60       2
       6      12      18      63       4       9      15      18      63       4
      21       0       6      12       5      24       0       6      12       5
      27       0       6      12       5      12      18      15      57       6
      12      18      15      60       6      15       9       3      30       5
      15       9       3      33       5      15       9       3      36       5
      15      18      12      51       6      15      18      12      54       6
      18      12       6      39       7      18      12       6      42       7
      18      15       9      45       7      18      15       9      48       7
      21       0       6      39       8      21       0       6      42       8
      24       0       6      39       8      24       0       6      42       8
      27       0       6      39       8      27       0       6      42       8
      30       3       9      45       8      30       3       9      48       8
      33       3       9      45       8      33       3       9      48       8
      36       3       9      45       8      36       3       9      48       8
      39       6      12      51       2      39       6      12      54       2
      42       6      12      51       2      42       6      12      54       2
      45       9      15      57       2      45       9      15      60       2
      48       9      15      57       2      48       9      15      60       2
      51      12      18      63       9      54      12      18      63       9
      57      15      18      63       9      60      15      18      63       9
%FLAG DIHEDRALS_WITHOUT_HYDROGEN                                                
%FORMAT(10I8)                                                                   
       0       6      12      18       1       3       9      15      18       1
       6      12      18      15       3       9      15      18      12       3
%FLAG EXCLUDED_ATOMS_LIST                                                       
%FORMAT(10I8)                                                                   
       3       5       7       8       9      10      14      15      18      19
       4       6       7      11      12      13      16      17      20      21
       5       6       7       8       9      10      14      15      18      19
      22       5       6       7      11      12      13      16      17      20
      21      22       6       7       8       9      10      14      15      18
      19      20      21      22       7      11      12      13      16      17
      18      19      20      21      22      14      15      16      17      18
      19      20      21      22       9      10      14      15      10      14
      15      14      15      12      13      16      17      13      16      17
      16      17      15      18      19      18      19      17      20      21
      20      21      19      22      22      21      22      22       0
%FLAG HBOND_ACOEF                                                               
%FORMAT(5E16.8)                                                                 

%FLAG HBOND_BCOEF                                                               
%FORMAT(5E16.8)                                                                 

%FLAG HBCUT                                                                     
%FORMAT(5E16.8)                                                                 

%FLAG AMBER_ATOM_TYPE                                                           
%FORMAT(20a4)                                                                   
c3  c3  c3  c3  c3  c3  n7  hc  hc  hc  hc  hc  hc  hc  hc  hc  hc  h1  h1  h1  
h1  hn  
%FLAG TREE_CHAIN_CLASSIFICATION                                                 
%FORMAT(20a4)                                                                   
BLA BLA BLA BLA BLA BLA BLA BLA BLA BLA BLA BLA BLA BLA BLA BLA BLA BLA BLA BLA 
BLA BLA 
%FLAG JOIN_ARRAY                                                                
%FORMAT(10I8)                                                                   
       0       0       0       0       0       0       0       0       0       0
       0       0       0       0       0       0       0       0       0       0
       0       0
%FLAG IROTAT                                                                    
%FORMAT(10I8)                                                                   
       0       0       0       0       0       0       0       0       0       0
       0       0       0       0       0       0       0       0       0       0
       0       0
%FLAG RADIUS_SET                                                                
%FORMAT(1a80)                                                                   
modified Bondi radii (mbondi)                                                   
%FLAG RADII                                                                     
%FORMAT(5E16.8)                                                                 
  1.70000000E+00  1.70000000E+00  1.70000000E+00  1.70000000E+00  1.70000000E+00
  1.70000000E+00  1.55000000E+00  1.30000000E+00  1.30000000E+00  1.30000000E+00
  1.30000000E+00  1.30000000E+00  1.30000000E+00  1.30000000E+00  1.30000000E+00
  1.30000000E+00  1.30000000E+00  1.30000000E+00  1.30000000E+00  1.30000000E+00
  1.30000000E+00  1.30000000E+00
%FLAG SCREEN                                                                    
%FORMAT(5E16.8)                                                                 
  7.20000000E-01  7.20000000E-01  7.20000000E-01  7.20000000E-01  7.20000000E-01
  7.20000000E-01  7.90000000E-01  8.50000000E-01  8.50000000E-01  8.50000000E-01
  8.50000000E-01  8.50000000E-01  8.50000000E-01  8.50000000E-01  8.50000000E-01
  8.50000000E-01  8.50000000E-01  8.50000000E-01  8.50000000E-01  8.50000000E-01
  8.50000000E-01  8.50000000E-01
%FLAG IPOL                                                                      
%FORMAT(1I8)                                                                    
       0
