; mobley_2958326_GMX.top created by acpype (v: 2023.10.27) on Wed May 20 23:52:23 2026

[ defaults ]
; nbfunc        comb-rule       gen-pairs       fudgeLJ fudgeQQ
1               2               yes             0.5     0.8333333333

; Include mobley_2958326_GMX.itp topology
#include "mobley_2958326_GMX.itp"

; Ligand position restraints
#ifdef POSRES_LIG
#include "posre_mobley_2958326.itp"
#endif

[ system ]
mobley_2958326 in water

[ molecules ]
; Compound        nmols
 mobley_2958326   1     
SOL              3880
