; mobley_2958326_GMX_OPLS.top created by acpype (v: 2023.10.27) on Wed May 20 23:52:23 2026

; Include forcefield parameters
#include "ffoplsaa.itp"

; Include mobley_2958326_GMX.itp topology
#include "mobley_2958326_GMX.itp"

; Ligand position restraints
#ifdef POSRES_LIG
#include "posre_mobley_2958326.itp"
#endif

[ system ]
 mobley_2958326

[ molecules ]
; Compound        nmols
 mobley_2958326   1     
