mobley_2958326_GMX.gro created by acpype (v: 2023.10.27) on Wed May 20 23:52:23 2026
 22
    1  MOL   C1    1  -0.155  -0.128   0.097
    1  MOL   C2    2   0.341   0.062   0.617
    1  MOL   C3    3  -0.132  -0.086   0.242
    1  MOL   C4    4   0.195   0.036   0.585
    1  MOL   C5    5   0.016  -0.062   0.270
    1  MOL   C6    6   0.176  -0.003   0.439
    1  MOL   N1    7   0.035  -0.025   0.410
    1  MOL   H1    8  -0.120  -0.050   0.028
    1  MOL   H2    9  -0.102  -0.221   0.074
    1  MOL   H3   10  -0.262  -0.144   0.079
    1  MOL   H4   11   0.402  -0.028   0.599
    1  MOL   H5   12   0.381   0.144   0.557
    1  MOL   H6   13   0.353   0.089   0.723
    1  MOL   H7   14  -0.171  -0.165   0.308
    1  MOL   H8   15  -0.190   0.005   0.262
    1  MOL   H9   16   0.137   0.126   0.608
    1  MOL  H10   17   0.158  -0.044   0.650
    1  MOL  H11   18   0.054   0.017   0.206
    1  MOL  H12   19   0.073  -0.153   0.250
    1  MOL  H13   20   0.233  -0.094   0.416
    1  MOL  H14   21   0.214   0.077   0.374
    1  MOL  H15   22  -0.017   0.061   0.429
   13.27000     7.28600    13.88800
