; mobley_2958326_GMX_OPLS.itp created by acpype (v: 2023.10.27) on Wed May 20 23:52:23 2026

; For OPLS atomtypes manual fine tuning
; AC_at:OPLS_at:OPLScode: Possible_Alternatives (see ffoplsaa.atp and ffoplsaanb.itp)
; c3:CT:opls_135: ['136', '137', '149', '157', '158', '206', '209', '210', '223B', '224B', '245', '246', '274', '283', '284', '285', '292', '292B', '293B', '296', '307', '308', '505']
; n7:x:opls_x: []
; hc:HC:opls_140: []
; h1:HC:opls_140: []
; hn:H:opls_240: ['241', '290', '301', '304', '310', '504', '513']

[ moleculetype ]
;name            nrexcl
 mobley_2958326   3

[ atoms ]
;   nr  type  resi  res  atom  cgnr     charge      mass       ; qtot   bond_type
     1 opls_135     1   MOL    C1    1    -0.093100     12.01100 ; qtot -0.093  CT  
     2 opls_135     1   MOL    C2    2    -0.093100     12.01100 ; qtot -0.186  CT  
     3 opls_135     1   MOL    C3    3    -0.084400     12.01100 ; qtot -0.271  CT  
     4 opls_135     1   MOL    C4    4    -0.084400     12.01100 ; qtot -0.355  CT  
     5 opls_135     1   MOL    C5    5     0.163800     12.01100 ; qtot -0.191  CT  
     6 opls_135     1   MOL    C6    6     0.163800     12.01100 ; qtot -0.027  CT  
     7 opls_x     1   MOL    N1    7    -0.827202      0.00000 ; qtot -0.855  x   
     8 opls_140     1   MOL    H1    8     0.034367      1.00800 ; qtot -0.820  HC  
     9 opls_140     1   MOL    H2    9     0.034367      1.00800 ; qtot -0.786  HC  
    10 opls_140     1   MOL    H3   10     0.034367      1.00800 ; qtot -0.752  HC  
    11 opls_140     1   MOL    H4   11     0.034367      1.00800 ; qtot -0.717  HC  
    12 opls_140     1   MOL    H5   12     0.034367      1.00800 ; qtot -0.683  HC  
    13 opls_140     1   MOL    H6   13     0.034367      1.00800 ; qtot -0.648  HC  
    14 opls_140     1   MOL    H7   14     0.045700      1.00800 ; qtot -0.603  HC  
    15 opls_140     1   MOL    H8   15     0.045700      1.00800 ; qtot -0.557  HC  
    16 opls_140     1   MOL    H9   16     0.045700      1.00800 ; qtot -0.511  HC  
    17 opls_140     1   MOL   H10   17     0.045700      1.00800 ; qtot -0.466  HC  
    18 opls_140     1   MOL   H11   18     0.027700      1.00800 ; qtot -0.438  HC  
    19 opls_140     1   MOL   H12   19     0.027700      1.00800 ; qtot -0.410  HC  
    20 opls_140     1   MOL   H13   20     0.027700      1.00800 ; qtot -0.382  HC  
    21 opls_140     1   MOL   H14   21     0.027700      1.00800 ; qtot -0.355  HC  
    22 opls_240     1   MOL   H15   22     0.354800      1.00800 ; qtot  0.000  H   

[ bonds ]
;   ai     aj funct   r             k
     1      3   1 ;    1.5354e-01    1.9154e+05 ;     C1 - C3         CT - CT    
     1      8   1 ;    1.0962e-01    2.8891e+05 ;     C1 - H1         CT - HC    
     1      9   1 ;    1.0962e-01    2.8891e+05 ;     C1 - H2         CT - HC    
     1     10   1 ;    1.0962e-01    2.8891e+05 ;     C1 - H3         CT - HC    
     2      4   1 ;    1.5354e-01    1.9154e+05 ;     C2 - C4         CT - CT    
     2     11   1 ;    1.0962e-01    2.8891e+05 ;     C2 - H4         CT - HC    
     2     12   1 ;    1.0962e-01    2.8891e+05 ;     C2 - H5         CT - HC    
     2     13   1 ;    1.0962e-01    2.8891e+05 ;     C2 - H6         CT - HC    
     3      5   1 ;    1.5354e-01    1.9154e+05 ;     C3 - C5         CT - CT    
     3     14   1 ;    1.0962e-01    2.8891e+05 ;     C3 - H7         CT - HC    
     3     15   1 ;    1.0962e-01    2.8891e+05 ;     C3 - H8         CT - HC    
     4      6   1 ;    1.5354e-01    1.9154e+05 ;     C4 - C6         CT - CT    
     4     16   1 ;    1.0962e-01    2.8891e+05 ;     C4 - H9         CT - HC    
     4     17   1 ;    1.0962e-01    2.8891e+05 ;     C4 - H10        CT - HC    
     5      7   1 ;    1.4630e-01    2.1382e+05 ;     C5 - N1         CT - x     
     5     18   1 ;    1.0969e-01    2.8804e+05 ;     C5 - H11        CT - HC    
     5     19   1 ;    1.0969e-01    2.8804e+05 ;     C5 - H12        CT - HC    
     6      7   1 ;    1.4630e-01    2.1382e+05 ;     C6 - N1         CT - x     
     6     20   1 ;    1.0969e-01    2.8804e+05 ;     C6 - H13        CT - HC    
     6     21   1 ;    1.0969e-01    2.8804e+05 ;     C6 - H14        CT - HC    
     7     22   1 ;    1.0195e-01    3.8497e+05 ;     N1 - H15         x - H     

[ pairs ]
;   ai     aj    funct
     1      7      1 ;     C1 - N1    
     1     18      1 ;     C1 - H11   
     1     19      1 ;     C1 - H12   
     2      7      1 ;     C2 - N1    
     2     20      1 ;     C2 - H13   
     2     21      1 ;     C2 - H14   
     3      6      1 ;     C3 - C6    
     3     22      1 ;     C3 - H15   
     4      5      1 ;     C4 - C5    
     4     22      1 ;     C4 - H15   
     5     20      1 ;     C5 - H13   
     5     21      1 ;     C5 - H14   
     6     11      1 ;     C6 - H4    
     6     12      1 ;     C6 - H5    
     6     13      1 ;     C6 - H6    
     6     18      1 ;     C6 - H11   
     6     19      1 ;     C6 - H12   
     7     14      1 ;     N1 - H7    
     7     15      1 ;     N1 - H8    
     7     16      1 ;     N1 - H9    
     7     17      1 ;     N1 - H10   
     8      5      1 ;     H1 - C5    
     8     14      1 ;     H1 - H7    
     8     15      1 ;     H1 - H8    
     9      5      1 ;     H2 - C5    
     9     14      1 ;     H2 - H7    
     9     15      1 ;     H2 - H8    
    10      5      1 ;     H3 - C5    
    10     14      1 ;     H3 - H7    
    10     15      1 ;     H3 - H8    
    11     16      1 ;     H4 - H9    
    11     17      1 ;     H4 - H10   
    12     16      1 ;     H5 - H9    
    12     17      1 ;     H5 - H10   
    13     16      1 ;     H6 - H9    
    13     17      1 ;     H6 - H10   
    14     18      1 ;     H7 - H11   
    14     19      1 ;     H7 - H12   
    15     18      1 ;     H8 - H11   
    15     19      1 ;     H8 - H12   
    16     20      1 ;     H9 - H13   
    16     21      1 ;     H9 - H14   
    17     20      1 ;    H10 - H13   
    17     21      1 ;    H10 - H14   
    18     22      1 ;    H11 - H15   
    19     22      1 ;    H12 - H15   
    20     22      1 ;    H13 - H15   
    21     22      1 ;    H14 - H15   

[ angles ]
;   ai     aj     ak    funct   theta         cth
     1      3      5      1 ;    1.1263e+02    5.0099e+02 ;     C1 - C3   - C5       CT -   CT - CT  
     1      3     14      1 ;    1.0968e+02    3.6208e+02 ;     C1 - C3   - H7       CT -   CT - HC  
     1      3     15      1 ;    1.0968e+02    3.6208e+02 ;     C1 - C3   - H8       CT -   CT - HC  
     2      4      6      1 ;    1.1263e+02    5.0099e+02 ;     C2 - C4   - C6       CT -   CT - CT  
     2      4     16      1 ;    1.0968e+02    3.6208e+02 ;     C2 - C4   - H9       CT -   CT - HC  
     2      4     17      1 ;    1.0968e+02    3.6208e+02 ;     C2 - C4   - H10      CT -   CT - HC  
     3      1      8      1 ;    1.0968e+02    3.6208e+02 ;     C3 - C1   - H1       CT -   CT - HC  
     3      1      9      1 ;    1.0968e+02    3.6208e+02 ;     C3 - C1   - H2       CT -   CT - HC  
     3      1     10      1 ;    1.0968e+02    3.6208e+02 ;     C3 - C1   - H3       CT -   CT - HC  
     3      5      7      1 ;    1.1022e+02    5.4994e+02 ;     C3 - C5   - N1       CT -   CT - x   
     3      5     18      1 ;    1.0959e+02    3.6217e+02 ;     C3 - C5   - H11      CT -   CT - HC  
     3      5     19      1 ;    1.0959e+02    3.6217e+02 ;     C3 - C5   - H12      CT -   CT - HC  
     4      2     11      1 ;    1.0968e+02    3.6208e+02 ;     C4 - C2   - H4       CT -   CT - HC  
     4      2     12      1 ;    1.0968e+02    3.6208e+02 ;     C4 - C2   - H5       CT -   CT - HC  
     4      2     13      1 ;    1.0968e+02    3.6208e+02 ;     C4 - C2   - H6       CT -   CT - HC  
     4      6      7      1 ;    1.1022e+02    5.4994e+02 ;     C4 - C6   - N1       CT -   CT - x   
     4      6     20      1 ;    1.0959e+02    3.6217e+02 ;     C4 - C6   - H13      CT -   CT - HC  
     4      6     21      1 ;    1.0959e+02    3.6217e+02 ;     C4 - C6   - H14      CT -   CT - HC  
     5      3     14      1 ;    1.0968e+02    3.6208e+02 ;     C5 - C3   - H7       CT -   CT - HC  
     5      3     15      1 ;    1.0968e+02    3.6208e+02 ;     C5 - C3   - H8       CT -   CT - HC  
     5      7      6      1 ;    1.1458e+02    6.4425e+02 ;     C5 - N1   - C6       CT -    x - CT  
     5      7     22      1 ;    1.0886e+02    4.7229e+02 ;     C5 - N1   - H15      CT -    x - H   
     6      4     16      1 ;    1.0968e+02    3.6208e+02 ;     C6 - C4   - H9       CT -   CT - HC  
     6      4     17      1 ;    1.0968e+02    3.6208e+02 ;     C6 - C4   - H10      CT -   CT - HC  
     6      7     22      1 ;    1.0886e+02    4.7229e+02 ;     C6 - N1   - H15      CT -    x - H   
     7      5     18      1 ;    1.1029e+02    3.9991e+02 ;     N1 - C5   - H11       x -   CT - HC  
     7      5     19      1 ;    1.1029e+02    3.9991e+02 ;     N1 - C5   - H12       x -   CT - HC  
     7      6     20      1 ;    1.1029e+02    3.9991e+02 ;     N1 - C6   - H13       x -   CT - HC  
     7      6     21      1 ;    1.1029e+02    3.9991e+02 ;     N1 - C6   - H14       x -   CT - HC  
     8      1      9      1 ;    1.0773e+02    2.9957e+02 ;     H1 - C1   - H2       HC -   CT - HC  
     8      1     10      1 ;    1.0773e+02    2.9957e+02 ;     H1 - C1   - H3       HC -   CT - HC  
     9      1     10      1 ;    1.0773e+02    2.9957e+02 ;     H2 - C1   - H3       HC -   CT - HC  
    11      2     12      1 ;    1.0773e+02    2.9957e+02 ;     H4 - C2   - H5       HC -   CT - HC  
    11      2     13      1 ;    1.0773e+02    2.9957e+02 ;     H4 - C2   - H6       HC -   CT - HC  
    12      2     13      1 ;    1.0773e+02    2.9957e+02 ;     H5 - C2   - H6       HC -   CT - HC  
    14      3     15      1 ;    1.0773e+02    2.9957e+02 ;     H7 - C3   - H8       HC -   CT - HC  
    16      4     17      1 ;    1.0773e+02    2.9957e+02 ;     H9 - C4   - H10      HC -   CT - HC  
    18      5     19      1 ;    1.0855e+02    2.9824e+02 ;    H11 - C5   - H12      HC -   CT - HC  
    20      6     21      1 ;    1.0855e+02    2.9824e+02 ;    H13 - C6   - H14      HC -   CT - HC  

[ dihedrals ] ; propers
; for gromacs 4.5 or higher, using funct 9
;    i      j      k      l   func   phase     kd      pn
     1      3      5      7      9 ;     0.00   0.87864   3 ;     C1-    C3-    C5-    N1
     1      3      5     18      9 ;     0.00   0.65084   3 ;     C1-    C3-    C5-   H11
     1      3      5     19      9 ;     0.00   0.65084   3 ;     C1-    C3-    C5-   H12
     2      4      6      7      9 ;     0.00   0.87864   3 ;     C2-    C4-    C6-    N1
     2      4      6     20      9 ;     0.00   0.65084   3 ;     C2-    C4-    C6-   H13
     2      4      6     21      9 ;     0.00   0.65084   3 ;     C2-    C4-    C6-   H14
     3      5      7      6      9 ;     0.00   0.58576   3 ;     C3-    C5-    N1-    C6
     3      5      7     22      9 ;     0.00   0.90793   3 ;     C3-    C5-    N1-   H15
     4      6      7      5      9 ;     0.00   0.58576   3 ;     C4-    C6-    N1-    C5
     4      6      7     22      9 ;     0.00   0.90793   3 ;     C4-    C6-    N1-   H15
     5      7      6     20      9 ;     0.00   0.89956   3 ;     C5-    N1-    C6-   H13
     5      7      6     21      9 ;     0.00   0.89956   3 ;     C5-    N1-    C6-   H14
     6      4      2     11      9 ;     0.00   0.54392   3 ;     C6-    C4-    C2-    H4
     6      4      2     12      9 ;     0.00   0.54392   3 ;     C6-    C4-    C2-    H5
     6      4      2     13      9 ;     0.00   0.54392   3 ;     C6-    C4-    C2-    H6
     6      7      5     18      9 ;     0.00   0.89956   3 ;     C6-    N1-    C5-   H11
     6      7      5     19      9 ;     0.00   0.89956   3 ;     C6-    N1-    C5-   H12
     7      5      3     14      9 ;     0.00   0.41840   3 ;     N1-    C5-    C3-    H7
     7      5      3     15      9 ;     0.00   0.41840   3 ;     N1-    C5-    C3-    H8
     7      6      4     16      9 ;     0.00   0.41840   3 ;     N1-    C6-    C4-    H9
     7      6      4     17      9 ;     0.00   0.41840   3 ;     N1-    C6-    C4-   H10
     8      1      3      5      9 ;     0.00   0.54392   3 ;     H1-    C1-    C3-    C5
     8      1      3     14      9 ;     0.00   0.50208   3 ;     H1-    C1-    C3-    H7
     8      1      3     15      9 ;     0.00   0.50208   3 ;     H1-    C1-    C3-    H8
     9      1      3      5      9 ;     0.00   0.54392   3 ;     H2-    C1-    C3-    C5
     9      1      3     14      9 ;     0.00   0.50208   3 ;     H2-    C1-    C3-    H7
     9      1      3     15      9 ;     0.00   0.50208   3 ;     H2-    C1-    C3-    H8
    10      1      3      5      9 ;     0.00   0.54392   3 ;     H3-    C1-    C3-    C5
    10      1      3     14      9 ;     0.00   0.50208   3 ;     H3-    C1-    C3-    H7
    10      1      3     15      9 ;     0.00   0.50208   3 ;     H3-    C1-    C3-    H8
    11      2      4     16      9 ;     0.00   0.50208   3 ;     H4-    C2-    C4-    H9
    11      2      4     17      9 ;     0.00   0.50208   3 ;     H4-    C2-    C4-   H10
    12      2      4     16      9 ;     0.00   0.50208   3 ;     H5-    C2-    C4-    H9
    12      2      4     17      9 ;     0.00   0.50208   3 ;     H5-    C2-    C4-   H10
    13      2      4     16      9 ;     0.00   0.50208   3 ;     H6-    C2-    C4-    H9
    13      2      4     17      9 ;     0.00   0.50208   3 ;     H6-    C2-    C4-   H10
    14      3      5     18      9 ;     0.00   0.65084   3 ;     H7-    C3-    C5-   H11
    14      3      5     19      9 ;     0.00   0.65084   3 ;     H7-    C3-    C5-   H12
    15      3      5     18      9 ;     0.00   0.65084   3 ;     H8-    C3-    C5-   H11
    15      3      5     19      9 ;     0.00   0.65084   3 ;     H8-    C3-    C5-   H12
    16      4      6     20      9 ;     0.00   0.65084   3 ;     H9-    C4-    C6-   H13
    16      4      6     21      9 ;     0.00   0.65084   3 ;     H9-    C4-    C6-   H14
    17      4      6     20      9 ;     0.00   0.65084   3 ;    H10-    C4-    C6-   H13
    17      4      6     21      9 ;     0.00   0.65084   3 ;    H10-    C4-    C6-   H14
    18      5      7     22      9 ;     0.00   1.25520   3 ;    H11-    C5-    N1-   H15
    19      5      7     22      9 ;     0.00   1.25520   3 ;    H12-    C5-    N1-   H15
    20      6      7     22      9 ;     0.00   1.25520   3 ;    H13-    C6-    N1-   H15
    21      6      7     22      9 ;     0.00   1.25520   3 ;    H14-    C6-    N1-   H15
