di_n_propylamine
    22
  -1.5500000  -1.2780000   0.9740000   3.4120000   0.6160000   6.1740000
  -1.3230000  -0.8630000   2.4200000   1.9480000   0.3580000   5.8520000
   0.1580000  -0.6240000   2.7040000   1.7610000  -0.0260000   4.3870000
   0.3510000  -0.2480000   4.0990000  -1.2020000  -0.5030000   0.2840000
  -1.0180000  -2.2070000   0.7450000  -2.6160000  -1.4430000   0.7900000
   4.0190000  -0.2760000   5.9860000   3.8090000   1.4360000   5.5670000
   3.5270000   0.8880000   7.2280000  -1.7120000  -1.6470000   3.0820000
  -1.8990000   0.0480000   2.6240000   1.3680000   1.2590000   6.0820000
   1.5760000  -0.4430000   6.5030000   0.5440000   0.1710000   2.0570000
   0.7330000  -1.5330000   2.4960000   2.3250000  -0.9370000   4.1580000
   2.1370000   0.7710000   3.7370000  -0.1700000   0.6070000   4.2900000
