; mobley_7010316_GMX_OPLS.top created by acpype (v: 2023.10.27) on Thu May 21 00:01:18 2026

; Include forcefield parameters
#include "ffoplsaa.itp"

; Include mobley_7010316_GMX.itp topology
#include "mobley_7010316_GMX.itp"

; Ligand position restraints
#ifdef POSRES_LIG
#include "posre_mobley_7010316.itp"
#endif

[ system ]
 mobley_7010316

[ molecules ]
; Compound        nmols
 mobley_7010316   1     
