cyclohexanol
    19
   0.8600000  -0.5760000  -0.3650000   1.9980000  -0.4820000   0.6480000
   1.2770000  -0.0490000  -1.7360000   2.5550000   0.9350000   0.7370000
   1.8340000   1.3680000  -1.6460000   2.9750000   1.4610000  -0.6340000
   3.4010000   2.8140000  -0.5170000   0.5300000  -1.6170000  -0.4540000
   0.0000000   0.0000000  -0.0000000   1.6420000  -0.8020000   1.6340000
   2.8010000  -1.1720000   0.3590000   2.0370000  -0.7130000  -2.1650000
   0.4170000  -0.0660000  -2.4150000   1.8040000   1.6050000   1.1760000
   3.4110000   0.9600000   1.4220000   2.1840000   1.6980000  -2.6320000
   1.0350000   2.0660000  -1.3660000   3.8330000   0.8830000  -0.9990000
   3.9380000   3.0060000  -1.3020000
