; mobley_7010316_GMX.itp created by acpype (v: 2023.10.27) on Thu May 21 00:01:18 2026

[ atomtypes ]
;name   bond_type     mass     charge   ptype   sigma         epsilon       Amb
 c6       c6          0.00000  0.00000   A     3.39771e-01   4.51035e-01 ; 1.91  0.1078
 oh       oh          0.00000  0.00000   A     3.24287e-01   3.89112e-01 ; 1.82  0.0930
 hc       hc          0.00000  0.00000   A     2.60018e-01   8.70272e-02 ; 1.46  0.0208
 h1       h1          0.00000  0.00000   A     2.42200e-01   8.70272e-02 ; 1.36  0.0208
 ho       ho          0.00000  0.00000   A     5.37925e-02   1.96648e-02 ; 0.30  0.0047

[ moleculetype ]
;name            nrexcl
 mobley_7010316   3

[ atoms ]
;   nr  type  resi  res  atom  cgnr     charge      mass       ; qtot   bond_type
     1   c6     1   MOL    C1    1    -0.078400     12.01000 ; qtot -0.078
     2   c6     1   MOL    C2    2    -0.074900     12.01000 ; qtot -0.153
     3   c6     1   MOL    C3    3    -0.074900     12.01000 ; qtot -0.228
     4   c6     1   MOL    C4    4    -0.093400     12.01000 ; qtot -0.322
     5   c6     1   MOL    C5    5    -0.093400     12.01000 ; qtot -0.415
     6   c6     1   MOL    C6    6     0.142100     12.01000 ; qtot -0.273
     7   oh     1   MOL    O1    7    -0.604800     16.00000 ; qtot -0.878
     8   hc     1   MOL    H1    8     0.041700      1.00800 ; qtot -0.836
     9   hc     1   MOL    H2    9     0.041700      1.00800 ; qtot -0.794
    10   hc     1   MOL    H3   10     0.041200      1.00800 ; qtot -0.753
    11   hc     1   MOL    H4   11     0.041200      1.00800 ; qtot -0.712
    12   hc     1   MOL    H5   12     0.041200      1.00800 ; qtot -0.671
    13   hc     1   MOL    H6   13     0.041200      1.00800 ; qtot -0.630
    14   hc     1   MOL    H7   14     0.050200      1.00800 ; qtot -0.579
    15   hc     1   MOL    H8   15     0.050200      1.00800 ; qtot -0.529
    16   hc     1   MOL    H9   16     0.050200      1.00800 ; qtot -0.479
    17   hc     1   MOL   H10   17     0.050200      1.00800 ; qtot -0.429
    18   h1     1   MOL   H11   18     0.030700      1.00800 ; qtot -0.398
    19   ho     1   MOL   H12   19     0.398000      1.00800 ; qtot 0.000

[ bonds ]
;   ai     aj funct   r             k
     1      2   1    1.5384e-01    1.8979e+05 ;     C1 - C2    
     1      3   1    1.5384e-01    1.8979e+05 ;     C1 - C3    
     1      8   1    1.0979e-01    2.8681e+05 ;     C1 - H1    
     1      9   1    1.0979e-01    2.8681e+05 ;     C1 - H2    
     2      4   1    1.5384e-01    1.8979e+05 ;     C2 - C4    
     2     10   1    1.0979e-01    2.8681e+05 ;     C2 - H3    
     2     11   1    1.0979e-01    2.8681e+05 ;     C2 - H4    
     3      5   1    1.5384e-01    1.8979e+05 ;     C3 - C5    
     3     12   1    1.0979e-01    2.8681e+05 ;     C3 - H5    
     3     13   1    1.0979e-01    2.8681e+05 ;     C3 - H6    
     4      6   1    1.5384e-01    1.8979e+05 ;     C4 - C6    
     4     14   1    1.0979e-01    2.8681e+05 ;     C4 - H7    
     4     15   1    1.0979e-01    2.8681e+05 ;     C4 - H8    
     5      6   1    1.5384e-01    1.8979e+05 ;     C5 - C6    
     5     16   1    1.0979e-01    2.8681e+05 ;     C5 - H9    
     5     17   1    1.0979e-01    2.8681e+05 ;     C5 - H10   
     6      7   1    1.4241e-01    2.3870e+05 ;     C6 - O1    
     6     18   1    1.0984e-01    2.8620e+05 ;     C6 - H11   
     7     19   1    9.7250e-02    4.4811e+05 ;     O1 - H12   

[ pairs ]
;   ai     aj    funct
     1      6      1 ;     C1 - C6    
     1     14      1 ;     C1 - H7    
     1     15      1 ;     C1 - H8    
     1     16      1 ;     C1 - H9    
     1     17      1 ;     C1 - H10   
     2      5      1 ;     C2 - C5    
     2      7      1 ;     C2 - O1    
     2     12      1 ;     C2 - H5    
     2     13      1 ;     C2 - H6    
     2     18      1 ;     C2 - H11   
     3      4      1 ;     C3 - C4    
     3      7      1 ;     C3 - O1    
     3     10      1 ;     C3 - H3    
     3     11      1 ;     C3 - H4    
     3     18      1 ;     C3 - H11   
     4     16      1 ;     C4 - H9    
     4     17      1 ;     C4 - H10   
     4     19      1 ;     C4 - H12   
     5     14      1 ;     C5 - H7    
     5     15      1 ;     C5 - H8    
     5     19      1 ;     C5 - H12   
     6     10      1 ;     C6 - H3    
     6     11      1 ;     C6 - H4    
     6     12      1 ;     C6 - H5    
     6     13      1 ;     C6 - H6    
     7     14      1 ;     O1 - H7    
     7     15      1 ;     O1 - H8    
     7     16      1 ;     O1 - H9    
     7     17      1 ;     O1 - H10   
     8      4      1 ;     H1 - C4    
     8      5      1 ;     H1 - C5    
     8     10      1 ;     H1 - H3    
     8     11      1 ;     H1 - H4    
     8     12      1 ;     H1 - H5    
     8     13      1 ;     H1 - H6    
     9      4      1 ;     H2 - C4    
     9      5      1 ;     H2 - C5    
     9     10      1 ;     H2 - H3    
     9     11      1 ;     H2 - H4    
     9     12      1 ;     H2 - H5    
     9     13      1 ;     H2 - H6    
    10     14      1 ;     H3 - H7    
    10     15      1 ;     H3 - H8    
    11     14      1 ;     H4 - H7    
    11     15      1 ;     H4 - H8    
    12     16      1 ;     H5 - H9    
    12     17      1 ;     H5 - H10   
    13     16      1 ;     H6 - H9    
    13     17      1 ;     H6 - H10   
    14     18      1 ;     H7 - H11   
    15     18      1 ;     H8 - H11   
    16     18      1 ;     H9 - H11   
    17     18      1 ;    H10 - H11   
    18     19      1 ;    H11 - H12   

[ angles ]
;   ai     aj     ak    funct   theta         cth
     1      2      4      1    1.1106e+02    5.0359e+02 ;     C1 - C2     - C4    
     1      2     10      1    1.0945e+02    3.6175e+02 ;     C1 - C2     - H3    
     1      2     11      1    1.0945e+02    3.6175e+02 ;     C1 - C2     - H4    
     1      3      5      1    1.1106e+02    5.0359e+02 ;     C1 - C3     - C5    
     1      3     12      1    1.0945e+02    3.6175e+02 ;     C1 - C3     - H5    
     1      3     13      1    1.0945e+02    3.6175e+02 ;     C1 - C3     - H6    
     2      1      3      1    1.1106e+02    5.0359e+02 ;     C2 - C1     - C3    
     2      1      8      1    1.0945e+02    3.6175e+02 ;     C2 - C1     - H1    
     2      1      9      1    1.0945e+02    3.6175e+02 ;     C2 - C1     - H2    
     2      4      6      1    1.1106e+02    5.0359e+02 ;     C2 - C4     - C6    
     2      4     14      1    1.0945e+02    3.6175e+02 ;     C2 - C4     - H7    
     2      4     15      1    1.0945e+02    3.6175e+02 ;     C2 - C4     - H8    
     3      1      8      1    1.0945e+02    3.6175e+02 ;     C3 - C1     - H1    
     3      1      9      1    1.0945e+02    3.6175e+02 ;     C3 - C1     - H2    
     3      5      6      1    1.1106e+02    5.0359e+02 ;     C3 - C5     - C6    
     3      5     16      1    1.0945e+02    3.6175e+02 ;     C3 - C5     - H9    
     3      5     17      1    1.0945e+02    3.6175e+02 ;     C3 - C5     - H10   
     4      2     10      1    1.0945e+02    3.6175e+02 ;     C4 - C2     - H3    
     4      2     11      1    1.0945e+02    3.6175e+02 ;     C4 - C2     - H4    
     4      6      5      1    1.1106e+02    5.0359e+02 ;     C4 - C6     - C5    
     4      6      7      1    1.1005e+02    6.4065e+02 ;     C4 - C6     - O1    
     4      6     18      1    1.0918e+02    3.6217e+02 ;     C4 - C6     - H11   
     5      3     12      1    1.0945e+02    3.6175e+02 ;     C5 - C3     - H5    
     5      3     13      1    1.0945e+02    3.6175e+02 ;     C5 - C3     - H6    
     5      6      7      1    1.1005e+02    6.4065e+02 ;     C5 - C6     - O1    
     5      6     18      1    1.0918e+02    3.6217e+02 ;     C5 - C6     - H11   
     6      4     14      1    1.0945e+02    3.6175e+02 ;     C6 - C4     - H7    
     6      4     15      1    1.0945e+02    3.6175e+02 ;     C6 - C4     - H8    
     6      5     16      1    1.0945e+02    3.6175e+02 ;     C6 - C5     - H9    
     6      5     17      1    1.0945e+02    3.6175e+02 ;     C6 - C5     - H10   
     6      7     19      1    1.0707e+02    5.4584e+02 ;     C6 - O1     - H12   
     7      6     18      1    1.0996e+02    4.7187e+02 ;     O1 - C6     - H11   
     8      1      9      1    1.0662e+02    3.0066e+02 ;     H1 - C1     - H2    
    10      2     11      1    1.0662e+02    3.0066e+02 ;     H3 - C2     - H4    
    12      3     13      1    1.0662e+02    3.0066e+02 ;     H5 - C3     - H6    
    14      4     15      1    1.0662e+02    3.0066e+02 ;     H7 - C4     - H8    
    16      5     17      1    1.0662e+02    3.0066e+02 ;     H9 - C5     - H10   

[ dihedrals ] ; propers
; for gromacs 4.5 or higher, using funct 9
;    i      j      k      l   func   phase     kd      pn
     1      2      4      6      9     0.00   2.17568   3 ;     C1-    C2-    C4-    C6
     1      2      4     14      9     0.00   0.54392   3 ;     C1-    C2-    C4-    H7
     1      2      4     15      9     0.00   0.54392   3 ;     C1-    C2-    C4-    H8
     1      3      5      6      9     0.00   2.17568   3 ;     C1-    C3-    C5-    C6
     1      3      5     16      9     0.00   0.54392   3 ;     C1-    C3-    C5-    H9
     1      3      5     17      9     0.00   0.54392   3 ;     C1-    C3-    C5-   H10
     2      1      3      5      9     0.00   2.17568   3 ;     C2-    C1-    C3-    C5
     2      1      3     12      9     0.00   0.54392   3 ;     C2-    C1-    C3-    H5
     2      1      3     13      9     0.00   0.54392   3 ;     C2-    C1-    C3-    H6
     2      4      6      5      9     0.00   2.17568   3 ;     C2-    C4-    C6-    C5
     2      4      6      7      9     0.00   0.75312   3 ;     C2-    C4-    C6-    O1
     2      4      6     18      9     0.00   0.65084   3 ;     C2-    C4-    C6-   H11
     3      1      2      4      9     0.00   2.17568   3 ;     C3-    C1-    C2-    C4
     3      1      2     10      9     0.00   0.54392   3 ;     C3-    C1-    C2-    H3
     3      1      2     11      9     0.00   0.54392   3 ;     C3-    C1-    C2-    H4
     3      5      6      4      9     0.00   2.17568   3 ;     C3-    C5-    C6-    C4
     3      5      6      7      9     0.00   0.75312   3 ;     C3-    C5-    C6-    O1
     3      5      6     18      9     0.00   0.65084   3 ;     C3-    C5-    C6-   H11
     4      6      5     16      9     0.00   0.54392   3 ;     C4-    C6-    C5-    H9
     4      6      5     17      9     0.00   0.54392   3 ;     C4-    C6-    C5-   H10
     4      6      7     19      9     0.00   0.25104   3 ;     C4-    C6-    O1-   H12
     5      6      4     14      9     0.00   0.54392   3 ;     C5-    C6-    C4-    H7
     5      6      4     15      9     0.00   0.54392   3 ;     C5-    C6-    C4-    H8
     5      6      7     19      9     0.00   0.25104   3 ;     C5-    C6-    O1-   H12
     6      4      2     10      9     0.00   0.54392   3 ;     C6-    C4-    C2-    H3
     6      4      2     11      9     0.00   0.54392   3 ;     C6-    C4-    C2-    H4
     6      5      3     12      9     0.00   0.54392   3 ;     C6-    C5-    C3-    H5
     6      5      3     13      9     0.00   0.54392   3 ;     C6-    C5-    C3-    H6
     7      6      4     14      9     0.00   0.37656   3 ;     O1-    C6-    C4-    H7
     7      6      4     15      9     0.00   0.37656   3 ;     O1-    C6-    C4-    H8
     7      6      5     16      9     0.00   0.37656   3 ;     O1-    C6-    C5-    H9
     7      6      5     17      9     0.00   0.37656   3 ;     O1-    C6-    C5-   H10
     8      1      2      4      9     0.00   0.54392   3 ;     H1-    C1-    C2-    C4
     8      1      2     10      9     0.00   0.50208   3 ;     H1-    C1-    C2-    H3
     8      1      2     11      9     0.00   0.50208   3 ;     H1-    C1-    C2-    H4
     8      1      3      5      9     0.00   0.54392   3 ;     H1-    C1-    C3-    C5
     8      1      3     12      9     0.00   0.50208   3 ;     H1-    C1-    C3-    H5
     8      1      3     13      9     0.00   0.50208   3 ;     H1-    C1-    C3-    H6
     9      1      2      4      9     0.00   0.54392   3 ;     H2-    C1-    C2-    C4
     9      1      2     10      9     0.00   0.50208   3 ;     H2-    C1-    C2-    H3
     9      1      2     11      9     0.00   0.50208   3 ;     H2-    C1-    C2-    H4
     9      1      3      5      9     0.00   0.54392   3 ;     H2-    C1-    C3-    C5
     9      1      3     12      9     0.00   0.50208   3 ;     H2-    C1-    C3-    H5
     9      1      3     13      9     0.00   0.50208   3 ;     H2-    C1-    C3-    H6
    10      2      4     14      9     0.00   0.50208   3 ;     H3-    C2-    C4-    H7
    10      2      4     15      9     0.00   0.50208   3 ;     H3-    C2-    C4-    H8
    11      2      4     14      9     0.00   0.50208   3 ;     H4-    C2-    C4-    H7
    11      2      4     15      9     0.00   0.50208   3 ;     H4-    C2-    C4-    H8
    12      3      5     16      9     0.00   0.50208   3 ;     H5-    C3-    C5-    H9
    12      3      5     17      9     0.00   0.50208   3 ;     H5-    C3-    C5-   H10
    13      3      5     16      9     0.00   0.50208   3 ;     H6-    C3-    C5-    H9
    13      3      5     17      9     0.00   0.50208   3 ;     H6-    C3-    C5-   H10
    14      4      6     18      9     0.00   0.65084   3 ;     H7-    C4-    C6-   H11
    15      4      6     18      9     0.00   0.65084   3 ;     H8-    C4-    C6-   H11
    16      5      6     18      9     0.00   0.65084   3 ;     H9-    C5-    C6-   H11
    17      5      6     18      9     0.00   0.65084   3 ;    H10-    C5-    C6-   H11
    18      6      7     19      9     0.00   0.51463   3 ;    H11-    C6-    O1-   H12
