; mobley_1363784_GMX_OPLS.top created by acpype (v: 2023.10.27) on Thu May 21 00:02:49 2026

; Include forcefield parameters
#include "ffoplsaa.itp"

; Include mobley_1363784_GMX.itp topology
#include "mobley_1363784_GMX.itp"

; Ligand position restraints
#ifdef POSRES_LIG
#include "posre_mobley_1363784.itp"
#endif

[ system ]
 mobley_1363784

[ molecules ]
; Compound        nmols
 mobley_1363784   1     
