mobley_1363784_GMX.gro created by acpype (v: 2023.10.27) on Thu May 21 00:02:49 2026
 17
    1  MOL   C1    1   0.161  -0.016   0.143
    1  MOL   C2    2  -0.049  -0.123   0.170
    1  MOL   C3    3   0.111  -0.151   0.332
    1  MOL   C4    4   0.034  -0.042   0.094
    1  MOL   C5    5   0.202  -0.072   0.264
    1  MOL   C6    6  -0.013   0.016  -0.035
    1  MOL   C7    7   0.338  -0.046   0.318
    1  MOL   N1    8  -0.014  -0.179   0.288
    1  MOL   H1    9   0.230   0.047   0.086
    1  MOL   H2   10  -0.150  -0.147   0.137
    1  MOL   H3   11   0.137  -0.197   0.427
    1  MOL   H4   12  -0.063  -0.061  -0.096
    1  MOL   H5   13  -0.082   0.099  -0.019
    1  MOL   H6   14   0.071   0.056  -0.094
    1  MOL   H7   15   0.343   0.054   0.362
    1  MOL   H8   16   0.365  -0.119   0.396
    1  MOL   H9   17   0.415  -0.054   0.240
   11.29600     5.92800    10.44200
