; mobley_1363784_GMX_OPLS.itp created by acpype (v: 2023.10.27) on Thu May 21 00:02:49 2026

; For OPLS atomtypes manual fine tuning
; AC_at:OPLS_at:OPLScode: Possible_Alternatives (see ffoplsaa.atp and ffoplsaanb.itp)
; ca:CA:opls_145: ['166', '501', '502']
; c3:CT:opls_135: ['136', '137', '149', '157', '158', '206', '209', '210', '223B', '224B', '245', '246', '274', '283', '284', '285', '292', '292B', '293B', '296', '307', '308', '505']
; nb:x:opls_x: []
; ha:HA:opls_146: []
; h4:HA:opls_146: []
; hc:HC:opls_140: []

[ moleculetype ]
;name            nrexcl
 mobley_1363784   3

[ atoms ]
;   nr  type  resi  res  atom  cgnr     charge      mass       ; qtot   bond_type
     1 opls_145     1   MOL    C1    1    -0.098000     12.01100 ; qtot -0.098  CA  
     2 opls_145     1   MOL    C2    2     0.386200     12.01100 ; qtot  0.288  CA  
     3 opls_145     1   MOL    C3    3     0.386200     12.01100 ; qtot  0.674  CA  
     4 opls_145     1   MOL    C4    4    -0.187600     12.01100 ; qtot  0.487  CA  
     5 opls_145     1   MOL    C5    5    -0.187600     12.01100 ; qtot  0.299  CA  
     6 opls_135     1   MOL    C6    6    -0.049800     12.01100 ; qtot  0.249  CT  
     7 opls_135     1   MOL    C7    7    -0.049800     12.01100 ; qtot  0.200  CT  
     8 opls_x     1   MOL    N1    8    -0.659000      0.00000 ; qtot -0.459  x   
     9 opls_146     1   MOL    H1    9     0.137000      1.00800 ; qtot -0.322  HA  
    10 opls_146     1   MOL    H2   10     0.021100      1.00800 ; qtot -0.301  HA  
    11 opls_146     1   MOL    H3   11     0.021100      1.00800 ; qtot -0.280  HA  
    12 opls_140     1   MOL    H4   12     0.046700      1.00800 ; qtot -0.234  HC  
    13 opls_140     1   MOL    H5   13     0.046700      1.00800 ; qtot -0.187  HC  
    14 opls_140     1   MOL    H6   14     0.046700      1.00800 ; qtot -0.140  HC  
    15 opls_140     1   MOL    H7   15     0.046700      1.00800 ; qtot -0.093  HC  
    16 opls_140     1   MOL    H8   16     0.046700      1.00800 ; qtot -0.047  HC  
    17 opls_140     1   MOL    H9   17     0.046700      1.00800 ; qtot -0.000  HC  

[ bonds ]
;   ai     aj funct   r             k
     1      4   1 ;    1.3986e-01    2.9644e+05 ;     C1 - C4         CA - CA    
     1      5   1 ;    1.3986e-01    2.9644e+05 ;     C1 - C5         CA - CA    
     1      9   1 ;    1.0860e-01    3.0183e+05 ;     C1 - H1         CA - HA    
     2      4   1 ;    1.3986e-01    2.9644e+05 ;     C2 - C4         CA - CA    
     2      8   1 ;    1.3392e-01    3.2341e+05 ;     C2 - N1         CA - x     
     2     10   1 ;    1.0885e-01    2.9859e+05 ;     C2 - H2         CA - HA    
     3      5   1 ;    1.3986e-01    2.9644e+05 ;     C3 - C5         CA - CA    
     3      8   1 ;    1.3392e-01    3.2341e+05 ;     C3 - N1         CA - x     
     3     11   1 ;    1.0885e-01    2.9859e+05 ;     C3 - H3         CA - HA    
     4      6   1 ;    1.5147e-01    2.0410e+05 ;     C4 - C6         CA - CT    
     5      7   1 ;    1.5147e-01    2.0410e+05 ;     C5 - C7         CA - CT    
     6     12   1 ;    1.0962e-01    2.8891e+05 ;     C6 - H4         CT - HC    
     6     13   1 ;    1.0962e-01    2.8891e+05 ;     C6 - H5         CT - HC    
     6     14   1 ;    1.0962e-01    2.8891e+05 ;     C6 - H6         CT - HC    
     7     15   1 ;    1.0962e-01    2.8891e+05 ;     C7 - H7         CT - HC    
     7     16   1 ;    1.0962e-01    2.8891e+05 ;     C7 - H8         CT - HC    
     7     17   1 ;    1.0962e-01    2.8891e+05 ;     C7 - H9         CT - HC    

[ pairs ]
;   ai     aj    funct
     1      8      1 ;     C1 - N1    
     1     10      1 ;     C1 - H2    
     1     11      1 ;     C1 - H3    
     1     12      1 ;     C1 - H4    
     1     13      1 ;     C1 - H5    
     1     14      1 ;     C1 - H6    
     1     15      1 ;     C1 - H7    
     1     16      1 ;     C1 - H8    
     1     17      1 ;     C1 - H9    
     2     11      1 ;     C2 - H3    
     2     12      1 ;     C2 - H4    
     2     13      1 ;     C2 - H5    
     2     14      1 ;     C2 - H6    
     3     10      1 ;     C3 - H2    
     3     15      1 ;     C3 - H7    
     3     16      1 ;     C3 - H8    
     3     17      1 ;     C3 - H9    
     4      3      1 ;     C4 - C3    
     4      7      1 ;     C4 - C7    
     5      2      1 ;     C5 - C2    
     5      6      1 ;     C5 - C6    
     6      8      1 ;     C6 - N1    
     6     10      1 ;     C6 - H2    
     7      8      1 ;     C7 - N1    
     7     11      1 ;     C7 - H3    
     9      2      1 ;     H1 - C2    
     9      3      1 ;     H1 - C3    
     9      6      1 ;     H1 - C6    
     9      7      1 ;     H1 - C7    

[ angles ]
;   ai     aj     ak    funct   theta         cth
     1      4      2      1 ;    1.2002e+02    5.3279e+02 ;     C1 - C4   - C2       CA -   CA - CA  
     1      4      6      1 ;    1.2083e+02    5.0827e+02 ;     C1 - C4   - C6       CA -   CA - CT  
     1      5      3      1 ;    1.2002e+02    5.3279e+02 ;     C1 - C5   - C3       CA -   CA - CA  
     1      5      7      1 ;    1.2083e+02    5.0827e+02 ;     C1 - C5   - C7       CA -   CA - CT  
     2      4      6      1 ;    1.2083e+02    5.0827e+02 ;     C2 - C4   - C6       CA -   CA - CT  
     2      8      3      1 ;    1.1724e+02    6.9580e+02 ;     C2 - N1   - C3       CA -    x - CA  
     3      5      7      1 ;    1.2083e+02    5.0827e+02 ;     C3 - C5   - C7       CA -   CA - CT  
     4      1      5      1 ;    1.2002e+02    5.3279e+02 ;     C4 - C1   - C5       CA -   CA - CA  
     4      1      9      1 ;    1.1988e+02    3.7572e+02 ;     C4 - C1   - H1       CA -   CA - HA  
     4      2      8      1 ;    1.2294e+02    5.7045e+02 ;     C4 - C2   - N1       CA -   CA - x   
     4      2     10      1 ;    1.2032e+02    3.7489e+02 ;     C4 - C2   - H2       CA -   CA - HA  
     4      6     12      1 ;    1.1063e+02    3.6493e+02 ;     C4 - C6   - H4       CA -   CT - HC  
     4      6     13      1 ;    1.1063e+02    3.6493e+02 ;     C4 - C6   - H5       CA -   CT - HC  
     4      6     14      1 ;    1.1063e+02    3.6493e+02 ;     C4 - C6   - H6       CA -   CT - HC  
     5      1      9      1 ;    1.1988e+02    3.7572e+02 ;     C5 - C1   - H1       CA -   CA - HA  
     5      3      8      1 ;    1.2294e+02    5.7045e+02 ;     C5 - C3   - N1       CA -   CA - x   
     5      3     11      1 ;    1.2032e+02    3.7489e+02 ;     C5 - C3   - H3       CA -   CA - HA  
     5      7     15      1 ;    1.1063e+02    3.6493e+02 ;     C5 - C7   - H7       CA -   CT - HC  
     5      7     16      1 ;    1.1063e+02    3.6493e+02 ;     C5 - C7   - H8       CA -   CT - HC  
     5      7     17      1 ;    1.1063e+02    3.6493e+02 ;     C5 - C7   - H9       CA -   CT - HC  
     8      2     10      1 ;    1.1602e+02    4.1924e+02 ;     N1 - C2   - H2        x -   CA - HA  
     8      3     11      1 ;    1.1602e+02    4.1924e+02 ;     N1 - C3   - H3        x -   CA - HA  
    12      6     13      1 ;    1.0773e+02    2.9957e+02 ;     H4 - C6   - H5       HC -   CT - HC  
    12      6     14      1 ;    1.0773e+02    2.9957e+02 ;     H4 - C6   - H6       HC -   CT - HC  
    13      6     14      1 ;    1.0773e+02    2.9957e+02 ;     H5 - C6   - H6       HC -   CT - HC  
    15      7     16      1 ;    1.0773e+02    2.9957e+02 ;     H7 - C7   - H8       HC -   CT - HC  
    15      7     17      1 ;    1.0773e+02    2.9957e+02 ;     H7 - C7   - H9       HC -   CT - HC  
    16      7     17      1 ;    1.0773e+02    2.9957e+02 ;     H8 - C7   - H9       HC -   CT - HC  

[ dihedrals ] ; propers
; for gromacs 4.5 or higher, using funct 9
;    i      j      k      l   func   phase     kd      pn
     1      4      2      8      9 ;   180.00  15.16700   2 ;     C1-    C4-    C2-    N1
     1      4      2     10      9 ;   180.00  15.16700   2 ;     C1-    C4-    C2-    H2
     1      4      6     12      9 ;     0.00   0.00000   0 ;     C1-    C4-    C6-    H4
     1      4      6     13      9 ;     0.00   0.00000   0 ;     C1-    C4-    C6-    H5
     1      4      6     14      9 ;     0.00   0.00000   0 ;     C1-    C4-    C6-    H6
     1      5      3      8      9 ;   180.00  15.16700   2 ;     C1-    C5-    C3-    N1
     1      5      3     11      9 ;   180.00  15.16700   2 ;     C1-    C5-    C3-    H3
     1      5      7     15      9 ;     0.00   0.00000   0 ;     C1-    C5-    C7-    H7
     1      5      7     16      9 ;     0.00   0.00000   0 ;     C1-    C5-    C7-    H8
     1      5      7     17      9 ;     0.00   0.00000   0 ;     C1-    C5-    C7-    H9
     2      4      6     12      9 ;     0.00   0.00000   0 ;     C2-    C4-    C6-    H4
     2      4      6     13      9 ;     0.00   0.00000   0 ;     C2-    C4-    C6-    H5
     2      4      6     14      9 ;     0.00   0.00000   0 ;     C2-    C4-    C6-    H6
     2      8      3      5      9 ;   180.00  20.08320   2 ;     C2-    N1-    C3-    C5
     2      8      3     11      9 ;   180.00  20.08320   2 ;     C2-    N1-    C3-    H3
     3      5      7     15      9 ;     0.00   0.00000   0 ;     C3-    C5-    C7-    H7
     3      5      7     16      9 ;     0.00   0.00000   0 ;     C3-    C5-    C7-    H8
     3      5      7     17      9 ;     0.00   0.00000   0 ;     C3-    C5-    C7-    H9
     3      8      2      4      9 ;   180.00  20.08320   2 ;     C3-    N1-    C2-    C4
     3      8      2     10      9 ;   180.00  20.08320   2 ;     C3-    N1-    C2-    H2
     4      1      5      3      9 ;   180.00  15.16700   2 ;     C4-    C1-    C5-    C3
     4      1      5      7      9 ;   180.00  15.16700   2 ;     C4-    C1-    C5-    C7
     5      1      4      2      9 ;   180.00  15.16700   2 ;     C5-    C1-    C4-    C2
     5      1      4      6      9 ;   180.00  15.16700   2 ;     C5-    C1-    C4-    C6
     6      4      2      8      9 ;   180.00  15.16700   2 ;     C6-    C4-    C2-    N1
     6      4      2     10      9 ;   180.00  15.16700   2 ;     C6-    C4-    C2-    H2
     7      5      3      8      9 ;   180.00  15.16700   2 ;     C7-    C5-    C3-    N1
     7      5      3     11      9 ;   180.00  15.16700   2 ;     C7-    C5-    C3-    H3
     9      1      4      2      9 ;   180.00  15.16700   2 ;     H1-    C1-    C4-    C2
     9      1      4      6      9 ;   180.00  15.16700   2 ;     H1-    C1-    C4-    C6
     9      1      5      3      9 ;   180.00  15.16700   2 ;     H1-    C1-    C5-    C3
     9      1      5      7      9 ;   180.00  15.16700   2 ;     H1-    C1-    C5-    C7

[ dihedrals ] ; impropers
; treated as propers in GROMACS to use correct AMBER analytical function
;    i      j      k      l   func   phase     kd      pn
     1      2      4      6      4 ;   180.00   4.60240   2 ;     C1-    C2-    C4-    C6
     4     10      2      8      4 ;   180.00   4.60240   2 ;     C4-    H2-    C2-    N1
     5     11      3      8      4 ;   180.00   4.60240   2 ;     C5-    H3-    C3-    N1
     7      1      5      3      4 ;   180.00   4.60240   2 ;     C7-    C1-    C5-    C3
     9      1      5      4      4 ;   180.00   4.60240   2 ;     H1-    C1-    C5-    C4
