35_dimethylpyridine
    17
   1.6140000  -0.1640000   1.4250000  -0.4940000  -1.2320000   1.6990000
   1.1130000  -1.5150000   3.3170000   0.3360000  -0.4210000   0.9410000
   2.0180000  -0.7180000   2.6350000  -0.1260000   0.1570000  -0.3500000
   3.3780000  -0.4620000   3.1790000  -0.1370000  -1.7870000   2.8780000
   2.2950000   0.4680000   0.8590000  -1.5020000  -1.4670000   1.3720000
   1.3710000  -1.9740000   4.2660000  -0.6330000  -0.6070000  -0.9550000
  -0.8240000   0.9900000  -0.1910000   0.7140000   0.5580000  -0.9350000
   3.4340000   0.5430000   3.6190000   3.6450000  -1.1930000   3.9550000
   4.1460000  -0.5390000   2.3970000
