; mobley_6456034_GMX_OPLS.itp created by acpype (v: 2023.10.27) on Thu May 21 00:02:32 2026

; For OPLS atomtypes manual fine tuning
; AC_at:OPLS_at:OPLScode: Possible_Alternatives (see ffoplsaa.atp and ffoplsaanb.itp)
; c:C:opls_235: ['271']
; c3:CT:opls_135: ['136', '137', '149', '157', '158', '206', '209', '210', '223B', '224B', '245', '246', '274', '283', '284', '285', '292', '292B', '293B', '296', '307', '308', '505']
; o:O:opls_236: ['272']
; os:x:opls_x: []
; hc:HC:opls_140: []
; h1:HC:opls_140: []

[ moleculetype ]
;name            nrexcl
 mobley_6456034   3

[ atoms ]
;   nr  type  resi  res  atom  cgnr     charge      mass       ; qtot   bond_type
     1 opls_235     1   MOL    C1    1     0.633098     12.01100 ; qtot  0.633  C   
     2 opls_135     1   MOL    C2    2    -0.093100     12.01100 ; qtot  0.540  CT  
     3 opls_135     1   MOL    C3    3    -0.093100     12.01100 ; qtot  0.447  CT  
     4 opls_135     1   MOL    C4    4    -0.091100     12.01100 ; qtot  0.356  CT  
     5 opls_135     1   MOL    C5    5    -0.091100     12.01100 ; qtot  0.265  CT  
     6 opls_135     1   MOL    C6    6     0.139400     12.01100 ; qtot  0.404  CT  
     7 opls_135     1   MOL    C7    7    -0.107700     12.01100 ; qtot  0.296  CT  
     8 opls_135     1   MOL    C8    8    -0.071700     12.01100 ; qtot  0.225  CT  
     9 opls_236     1   MOL    O1    9    -0.543000     15.99940 ; qtot -0.318  O   
    10 opls_x     1   MOL    O2   10    -0.442900      0.00000 ; qtot -0.761  x   
    11 opls_140     1   MOL    H1   11     0.047867      1.00800 ; qtot -0.713  HC  
    12 opls_140     1   MOL    H2   12     0.047867      1.00800 ; qtot -0.665  HC  
    13 opls_140     1   MOL    H3   13     0.047867      1.00800 ; qtot -0.618  HC  
    14 opls_140     1   MOL    H4   14     0.047867      1.00800 ; qtot -0.570  HC  
    15 opls_140     1   MOL    H5   15     0.047867      1.00800 ; qtot -0.522  HC  
    16 opls_140     1   MOL    H6   16     0.047867      1.00800 ; qtot -0.474  HC  
    17 opls_140     1   MOL    H7   17     0.037700      1.00800 ; qtot -0.436  HC  
    18 opls_140     1   MOL    H8   18     0.037700      1.00800 ; qtot -0.399  HC  
    19 opls_140     1   MOL    H9   19     0.037700      1.00800 ; qtot -0.361  HC  
    20 opls_140     1   MOL   H10   20     0.037700      1.00800 ; qtot -0.323  HC  
    21 opls_140     1   MOL   H11   21     0.037700      1.00800 ; qtot -0.285  HC  
    22 opls_140     1   MOL   H12   22     0.037700      1.00800 ; qtot -0.248  HC  
    23 opls_140     1   MOL   H13   23     0.052700      1.00800 ; qtot -0.195  HC  
    24 opls_140     1   MOL   H14   24     0.052700      1.00800 ; qtot -0.142  HC  
    25 opls_140     1   MOL   H15   25     0.079700      1.00800 ; qtot -0.063  HC  
    26 opls_140     1   MOL   H16   26     0.062700      1.00800 ; qtot  0.000  HC  

[ bonds ]
;   ai     aj funct   r             k
     1      7   1 ;    1.5270e-01    1.9652e+05 ;     C1 - C7          C - CT    
     1      9   1 ;    1.2190e-01    4.9421e+05 ;     C1 - O1          C - O     
     1     10   1 ;    1.3621e-01    2.9398e+05 ;     C1 - O2          C - x     
     2      7   1 ;    1.5354e-01    1.9154e+05 ;     C2 - C7         CT - CT    
     2     11   1 ;    1.0962e-01    2.8891e+05 ;     C2 - H1         CT - HC    
     2     12   1 ;    1.0962e-01    2.8891e+05 ;     C2 - H2         CT - HC    
     2     13   1 ;    1.0962e-01    2.8891e+05 ;     C2 - H3         CT - HC    
     3      7   1 ;    1.5354e-01    1.9154e+05 ;     C3 - C7         CT - CT    
     3     14   1 ;    1.0962e-01    2.8891e+05 ;     C3 - H4         CT - HC    
     3     15   1 ;    1.0962e-01    2.8891e+05 ;     C3 - H5         CT - HC    
     3     16   1 ;    1.0962e-01    2.8891e+05 ;     C3 - H6         CT - HC    
     4      8   1 ;    1.5354e-01    1.9154e+05 ;     C4 - C8         CT - CT    
     4     17   1 ;    1.0962e-01    2.8891e+05 ;     C4 - H7         CT - HC    
     4     18   1 ;    1.0962e-01    2.8891e+05 ;     C4 - H8         CT - HC    
     4     19   1 ;    1.0962e-01    2.8891e+05 ;     C4 - H9         CT - HC    
     5      8   1 ;    1.5354e-01    1.9154e+05 ;     C5 - C8         CT - CT    
     5     20   1 ;    1.0962e-01    2.8891e+05 ;     C5 - H10        CT - HC    
     5     21   1 ;    1.0962e-01    2.8891e+05 ;     C5 - H11        CT - HC    
     5     22   1 ;    1.0962e-01    2.8891e+05 ;     C5 - H12        CT - HC    
     6      8   1 ;    1.5354e-01    1.9154e+05 ;     C6 - C8         CT - CT    
     6     10   1 ;    1.4273e-01    2.3620e+05 ;     C6 - O2         CT - x     
     6     23   1 ;    1.0969e-01    2.8804e+05 ;     C6 - H13        CT - HC    
     6     24   1 ;    1.0969e-01    2.8804e+05 ;     C6 - H14        CT - HC    
     7     25   1 ;    1.0962e-01    2.8891e+05 ;     C7 - H15        CT - HC    
     8     26   1 ;    1.0962e-01    2.8891e+05 ;     C8 - H16        CT - HC    

[ pairs ]
;   ai     aj    funct
     1      8      1 ;     C1 - C8    
     1     11      1 ;     C1 - H1    
     1     12      1 ;     C1 - H2    
     1     13      1 ;     C1 - H3    
     1     14      1 ;     C1 - H4    
     1     15      1 ;     C1 - H5    
     1     16      1 ;     C1 - H6    
     1     23      1 ;     C1 - H13   
     1     24      1 ;     C1 - H14   
     2     14      1 ;     C2 - H4    
     2     15      1 ;     C2 - H5    
     2     16      1 ;     C2 - H6    
     3     11      1 ;     C3 - H1    
     3     12      1 ;     C3 - H2    
     3     13      1 ;     C3 - H3    
     4     10      1 ;     C4 - O2    
     4     20      1 ;     C4 - H10   
     4     21      1 ;     C4 - H11   
     4     22      1 ;     C4 - H12   
     4     23      1 ;     C4 - H13   
     4     24      1 ;     C4 - H14   
     5     10      1 ;     C5 - O2    
     5     17      1 ;     C5 - H7    
     5     18      1 ;     C5 - H8    
     5     19      1 ;     C5 - H9    
     5     23      1 ;     C5 - H13   
     5     24      1 ;     C5 - H14   
     6     17      1 ;     C6 - H7    
     6     18      1 ;     C6 - H8    
     6     19      1 ;     C6 - H9    
     6     20      1 ;     C6 - H10   
     6     21      1 ;     C6 - H11   
     6     22      1 ;     C6 - H12   
     7      6      1 ;     C7 - C6    
     9      2      1 ;     O1 - C2    
     9      3      1 ;     O1 - C3    
     9      6      1 ;     O1 - C6    
     9     25      1 ;     O1 - H15   
    10      2      1 ;     O2 - C2    
    10      3      1 ;     O2 - C3    
    10     25      1 ;     O2 - H15   
    10     26      1 ;     O2 - H16   
    11     25      1 ;     H1 - H15   
    12     25      1 ;     H2 - H15   
    13     25      1 ;     H3 - H15   
    14     25      1 ;     H4 - H15   
    15     25      1 ;     H5 - H15   
    16     25      1 ;     H6 - H15   
    17     26      1 ;     H7 - H16   
    18     26      1 ;     H8 - H16   
    19     26      1 ;     H9 - H16   
    20     26      1 ;    H10 - H16   
    21     26      1 ;    H11 - H16   
    22     26      1 ;    H12 - H16   
    23     26      1 ;    H13 - H16   
    24     26      1 ;    H14 - H16   

[ angles ]
;   ai     aj     ak    funct   theta         cth
     1      7      2      1 ;    1.1143e+02    5.0509e+02 ;     C1 - C7   - C2        C -   CT - CT  
     1      7      3      1 ;    1.1143e+02    5.0509e+02 ;     C1 - C7   - C3        C -   CT - CT  
     1      7     25      1 ;    1.0895e+02    3.6510e+02 ;     C1 - C7   - H15       C -   CT - HC  
     1     10      6      1 ;    1.1582e+02    7.4835e+02 ;     C1 - O2   - C6        C -    x - CT  
     2      7      3      1 ;    1.1263e+02    5.0099e+02 ;     C2 - C7   - C3       CT -   CT - CT  
     2      7     25      1 ;    1.0968e+02    3.6208e+02 ;     C2 - C7   - H15      CT -   CT - HC  
     3      7     25      1 ;    1.0968e+02    3.6208e+02 ;     C3 - C7   - H15      CT -   CT - HC  
     4      8      5      1 ;    1.1263e+02    5.0099e+02 ;     C4 - C8   - C5       CT -   CT - CT  
     4      8      6      1 ;    1.1263e+02    5.0099e+02 ;     C4 - C8   - C6       CT -   CT - CT  
     4      8     26      1 ;    1.0968e+02    3.6208e+02 ;     C4 - C8   - H16      CT -   CT - HC  
     5      8      6      1 ;    1.1263e+02    5.0099e+02 ;     C5 - C8   - C6       CT -   CT - CT  
     5      8     26      1 ;    1.0968e+02    3.6208e+02 ;     C5 - C8   - H16      CT -   CT - HC  
     6      8     26      1 ;    1.0968e+02    3.6208e+02 ;     C6 - C8   - H16      CT -   CT - HC  
     7      1      9      1 ;    1.2290e+02    6.3973e+02 ;     C7 - C1   - O1       CT -    C - O   
     7      1     10      1 ;    1.1080e+02    6.5245e+02 ;     C7 - C1   - O2       CT -    C - x   
     7      2     11      1 ;    1.0968e+02    3.6208e+02 ;     C7 - C2   - H1       CT -   CT - HC  
     7      2     12      1 ;    1.0968e+02    3.6208e+02 ;     C7 - C2   - H2       CT -   CT - HC  
     7      2     13      1 ;    1.0968e+02    3.6208e+02 ;     C7 - C2   - H3       CT -   CT - HC  
     7      3     14      1 ;    1.0968e+02    3.6208e+02 ;     C7 - C3   - H4       CT -   CT - HC  
     7      3     15      1 ;    1.0968e+02    3.6208e+02 ;     C7 - C3   - H5       CT -   CT - HC  
     7      3     16      1 ;    1.0968e+02    3.6208e+02 ;     C7 - C3   - H6       CT -   CT - HC  
     8      4     17      1 ;    1.0968e+02    3.6208e+02 ;     C8 - C4   - H7       CT -   CT - HC  
     8      4     18      1 ;    1.0968e+02    3.6208e+02 ;     C8 - C4   - H8       CT -   CT - HC  
     8      4     19      1 ;    1.0968e+02    3.6208e+02 ;     C8 - C4   - H9       CT -   CT - HC  
     8      5     20      1 ;    1.0968e+02    3.6208e+02 ;     C8 - C5   - H10      CT -   CT - HC  
     8      5     21      1 ;    1.0968e+02    3.6208e+02 ;     C8 - C5   - H11      CT -   CT - HC  
     8      5     22      1 ;    1.0968e+02    3.6208e+02 ;     C8 - C5   - H12      CT -   CT - HC  
     8      6     10      1 ;    1.0762e+02    6.4802e+02 ;     C8 - C6   - O2       CT -   CT - x   
     8      6     23      1 ;    1.0959e+02    3.6217e+02 ;     C8 - C6   - H13      CT -   CT - HC  
     8      6     24      1 ;    1.0959e+02    3.6217e+02 ;     C8 - C6   - H14      CT -   CT - HC  
     9      1     10      1 ;    1.2320e+02    8.4734e+02 ;     O1 - C1   - O2        O -    C - x   
    10      6     23      1 ;    1.1034e+02    4.7028e+02 ;     O2 - C6   - H13       x -   CT - HC  
    10      6     24      1 ;    1.1034e+02    4.7028e+02 ;     O2 - C6   - H14       x -   CT - HC  
    11      2     12      1 ;    1.0773e+02    2.9957e+02 ;     H1 - C2   - H2       HC -   CT - HC  
    11      2     13      1 ;    1.0773e+02    2.9957e+02 ;     H1 - C2   - H3       HC -   CT - HC  
    12      2     13      1 ;    1.0773e+02    2.9957e+02 ;     H2 - C2   - H3       HC -   CT - HC  
    14      3     15      1 ;    1.0773e+02    2.9957e+02 ;     H4 - C3   - H5       HC -   CT - HC  
    14      3     16      1 ;    1.0773e+02    2.9957e+02 ;     H4 - C3   - H6       HC -   CT - HC  
    15      3     16      1 ;    1.0773e+02    2.9957e+02 ;     H5 - C3   - H6       HC -   CT - HC  
    17      4     18      1 ;    1.0773e+02    2.9957e+02 ;     H7 - C4   - H8       HC -   CT - HC  
    17      4     19      1 ;    1.0773e+02    2.9957e+02 ;     H7 - C4   - H9       HC -   CT - HC  
    18      4     19      1 ;    1.0773e+02    2.9957e+02 ;     H8 - C4   - H9       HC -   CT - HC  
    20      5     21      1 ;    1.0773e+02    2.9957e+02 ;    H10 - C5   - H11      HC -   CT - HC  
    20      5     22      1 ;    1.0773e+02    2.9957e+02 ;    H10 - C5   - H12      HC -   CT - HC  
    21      5     22      1 ;    1.0773e+02    2.9957e+02 ;    H11 - C5   - H12      HC -   CT - HC  
    23      6     24      1 ;    1.0855e+02    2.9824e+02 ;    H13 - C6   - H14      HC -   CT - HC  

[ dihedrals ] ; propers
; for gromacs 4.5 or higher, using funct 9
;    i      j      k      l   func   phase     kd      pn
     1      7      2     11      9 ;     0.00   0.65084   3 ;     C1-    C7-    C2-    H1
     1      7      2     12      9 ;     0.00   0.65084   3 ;     C1-    C7-    C2-    H2
     1      7      2     13      9 ;     0.00   0.65084   3 ;     C1-    C7-    C2-    H3
     1      7      3     14      9 ;     0.00   0.65084   3 ;     C1-    C7-    C3-    H4
     1      7      3     15      9 ;     0.00   0.65084   3 ;     C1-    C7-    C3-    H5
     1      7      3     16      9 ;     0.00   0.65084   3 ;     C1-    C7-    C3-    H6
     1     10      6      8      9 ;     0.00   1.60247   3 ;     C1-    O2-    C6-    C8
     1     10      6      8      9 ;   180.00   3.34720   1 ;     C1-    O2-    C6-    C8
     1     10      6     23      9 ;     0.00   1.60387   3 ;     C1-    O2-    C6-   H13
     1     10      6     24      9 ;     0.00   1.60387   3 ;     C1-    O2-    C6-   H14
     2      7      3     14      9 ;     0.00   0.54392   3 ;     C2-    C7-    C3-    H4
     2      7      3     15      9 ;     0.00   0.54392   3 ;     C2-    C7-    C3-    H5
     2      7      3     16      9 ;     0.00   0.54392   3 ;     C2-    C7-    C3-    H6
     3      7      2     11      9 ;     0.00   0.54392   3 ;     C3-    C7-    C2-    H1
     3      7      2     12      9 ;     0.00   0.54392   3 ;     C3-    C7-    C2-    H2
     3      7      2     13      9 ;     0.00   0.54392   3 ;     C3-    C7-    C2-    H3
     4      8      5     20      9 ;     0.00   0.54392   3 ;     C4-    C8-    C5-   H10
     4      8      5     21      9 ;     0.00   0.54392   3 ;     C4-    C8-    C5-   H11
     4      8      5     22      9 ;     0.00   0.54392   3 ;     C4-    C8-    C5-   H12
     4      8      6     10      9 ;     0.00   0.65084   3 ;     C4-    C8-    C6-    O2
     4      8      6     23      9 ;     0.00   0.65084   3 ;     C4-    C8-    C6-   H13
     4      8      6     24      9 ;     0.00   0.65084   3 ;     C4-    C8-    C6-   H14
     5      8      4     17      9 ;     0.00   0.54392   3 ;     C5-    C8-    C4-    H7
     5      8      4     18      9 ;     0.00   0.54392   3 ;     C5-    C8-    C4-    H8
     5      8      4     19      9 ;     0.00   0.54392   3 ;     C5-    C8-    C4-    H9
     5      8      6     10      9 ;     0.00   0.65084   3 ;     C5-    C8-    C6-    O2
     5      8      6     23      9 ;     0.00   0.65084   3 ;     C5-    C8-    C6-   H13
     5      8      6     24      9 ;     0.00   0.65084   3 ;     C5-    C8-    C6-   H14
     6      8      4     17      9 ;     0.00   0.54392   3 ;     C6-    C8-    C4-    H7
     6      8      4     18      9 ;     0.00   0.54392   3 ;     C6-    C8-    C4-    H8
     6      8      4     19      9 ;     0.00   0.54392   3 ;     C6-    C8-    C4-    H9
     6      8      5     20      9 ;     0.00   0.54392   3 ;     C6-    C8-    C5-   H10
     6      8      5     21      9 ;     0.00   0.54392   3 ;     C6-    C8-    C5-   H11
     6      8      5     22      9 ;     0.00   0.54392   3 ;     C6-    C8-    C5-   H12
     7      1     10      6      9 ;     0.00   3.13800   3 ;     C7-    C1-    O2-    C6
     7      1     10      6      9 ;   180.00   7.90776   1 ;     C7-    C1-    O2-    C6
     7      1     10      6      9 ;   180.00  13.76536   2 ;     C7-    C1-    O2-    C6
     9      1      7      2      9 ;     0.00   2.84512   1 ;     O1-    C1-    C7-    C2
     9      1      7      2      9 ;   180.00   0.83680   2 ;     O1-    C1-    C7-    C2
     9      1      7      2      9 ;   180.00   1.84096   3 ;     O1-    C1-    C7-    C2
     9      1      7      3      9 ;     0.00   2.84512   1 ;     O1-    C1-    C7-    C3
     9      1      7      3      9 ;   180.00   0.83680   2 ;     O1-    C1-    C7-    C3
     9      1      7      3      9 ;   180.00   1.84096   3 ;     O1-    C1-    C7-    C3
     9      1      7     25      9 ;     0.00  16.86152   1 ;     O1-    C1-    C7-   H15
     9      1      7     25      9 ;   180.00  15.31344   2 ;     O1-    C1-    C7-   H15
     9      1     10      6      9 ;   180.00   5.85760   1 ;     O1-    C1-    O2-    C6
     9      1     10      6      9 ;   180.00  11.29680   2 ;     O1-    C1-    O2-    C6
    10      1      7      2      9 ;   180.00   0.00000   2 ;     O2-    C1-    C7-    C2
    10      1      7      3      9 ;   180.00   0.00000   2 ;     O2-    C1-    C7-    C3
    10      1      7     25      9 ;   180.00   0.00000   2 ;     O2-    C1-    C7-   H15
    10      6      8     26      9 ;     0.00   0.00000   0 ;     O2-    C6-    C8-   H16
    10      6      8     26      9 ;     0.00   1.04600   1 ;     O2-    C6-    C8-   H16
    11      2      7     25      9 ;     0.00   0.50208   3 ;     H1-    C2-    C7-   H15
    12      2      7     25      9 ;     0.00   0.50208   3 ;     H2-    C2-    C7-   H15
    13      2      7     25      9 ;     0.00   0.50208   3 ;     H3-    C2-    C7-   H15
    14      3      7     25      9 ;     0.00   0.50208   3 ;     H4-    C3-    C7-   H15
    15      3      7     25      9 ;     0.00   0.50208   3 ;     H5-    C3-    C7-   H15
    16      3      7     25      9 ;     0.00   0.50208   3 ;     H6-    C3-    C7-   H15
    17      4      8     26      9 ;     0.00   0.50208   3 ;     H7-    C4-    C8-   H16
    18      4      8     26      9 ;     0.00   0.50208   3 ;     H8-    C4-    C8-   H16
    19      4      8     26      9 ;     0.00   0.50208   3 ;     H9-    C4-    C8-   H16
    20      5      8     26      9 ;     0.00   0.50208   3 ;    H10-    C5-    C8-   H16
    21      5      8     26      9 ;     0.00   0.50208   3 ;    H11-    C5-    C8-   H16
    22      5      8     26      9 ;     0.00   0.50208   3 ;    H12-    C5-    C8-   H16
    23      6      8     26      9 ;     0.00   0.65084   3 ;    H13-    C6-    C8-   H16
    24      6      8     26      9 ;     0.00   0.65084   3 ;    H14-    C6-    C8-   H16

[ dihedrals ] ; impropers
; treated as propers in GROMACS to use correct AMBER analytical function
;    i      j      k      l   func   phase     kd      pn
    10      1      9      7      4 ;   180.00   4.60240   2 ;     O2-    C1-    O1-    C7
