; mobley_6456034_GMX_OPLS.top created by acpype (v: 2023.10.27) on Thu May 21 00:02:32 2026

; Include forcefield parameters
#include "ffoplsaa.itp"

; Include mobley_6456034_GMX.itp topology
#include "mobley_6456034_GMX.itp"

; Ligand position restraints
#ifdef POSRES_LIG
#include "posre_mobley_6456034.itp"
#endif

[ system ]
 mobley_6456034

[ molecules ]
; Compound        nmols
 mobley_6456034   1     
