isobutyl_isobutanoate
    26
   1.4250000  -0.3060000  -1.6680000   1.3700000  -1.9950000   0.1580000
  -0.5630000  -0.4170000  -0.1460000   1.9660000  -1.5540000  -5.6440000
   4.1750000  -0.3640000  -5.6910000   2.7460000  -0.2390000  -3.6300000
   0.5290000  -1.2190000  -0.8490000   3.1730000  -1.1110000  -4.8140000
   1.7000000   0.8500000  -1.3740000   1.8770000  -0.9790000  -2.7680000
   0.7450000  -2.6680000   0.7530000   1.8930000  -1.3190000   0.8440000
   2.1300000  -2.6000000  -0.3480000  -1.2460000  -1.0810000   0.3950000
  -1.1520000   0.1560000  -0.8710000  -0.1410000   0.2930000   0.5730000
   2.2840000  -2.1790000  -6.4860000   1.4250000  -0.6920000  -6.0480000
   1.2660000  -2.1420000  -5.0410000   4.5090000  -0.9940000  -6.5230000
   5.0610000  -0.0780000  -5.1140000   3.7360000   0.5470000  -6.1120000
   3.6190000   0.0710000  -3.0460000   2.2180000   0.6580000  -3.9700000
   0.0380000  -1.9160000  -1.5380000   3.6540000  -2.0170000  -4.4240000
