%VERSION  VERSION_STAMP = V0001.000  DATE = 05/21/26  00:02:38                  
%FLAG TITLE                                                                     
%FORMAT(20a4)                                                                   
isobutyl_isobutanoate                                                           
%FLAG POINTERS                                                                  
%FORMAT(10I8)                                                                   
      26       6      16       9      35      11      49      18       0       0
     129       1       9      11      18       7      13      20       6       0
       0       0       0       0       0       0       0       0      26       0
       0
%FLAG ATOM_NAME                                                                 
%FORMAT(20a4)                                                                   
C1  C2  C3  C4  C5  C6  C7  C8  O1  O2  H1  H2  H3  H4  H5  H6  H7  H8  H9  H10 
H11 H12 H13 H14 H15 H16 
%FLAG CHARGE                                                                    
%FORMAT(5E16.8)                                                                 
  1.15183158E+01 -1.69649613E+00 -1.69649613E+00 -1.66005153E+00 -1.66005153E+00
  2.54018862E+00 -1.96254171E+00 -1.30653891E+00 -9.89470890E+00 -8.07065667E+00
  8.72246834E-01  8.72246834E-01  8.72246834E-01  8.72246834E-01  8.72246834E-01
  8.72246834E-01  6.86980710E-01  6.86980710E-01  6.86980710E-01  6.86980710E-01
  6.86980710E-01  6.86980710E-01  9.60315210E-01  9.60315210E-01  1.45231731E+00
  1.14253821E+00
%FLAG ATOMIC_NUMBER                                                             
%FORMAT(10I8)                                                                   
       6       6       6       6       6       6       6       6       8       8
       1       1       1       1       1       1       1       1       1       1
       1       1       1       1       1       1
%FLAG MASS                                                                      
%FORMAT(5E16.8)                                                                 
  1.20100000E+01  1.20100000E+01  1.20100000E+01  1.20100000E+01  1.20100000E+01
  1.20100000E+01  1.20100000E+01  1.20100000E+01  1.60000000E+01  1.60000000E+01
  1.00800000E+00  1.00800000E+00  1.00800000E+00  1.00800000E+00  1.00800000E+00
  1.00800000E+00  1.00800000E+00  1.00800000E+00  1.00800000E+00  1.00800000E+00
  1.00800000E+00  1.00800000E+00  1.00800000E+00  1.00800000E+00  1.00800000E+00
  1.00800000E+00
%FLAG ATOM_TYPE_INDEX                                                           
%FORMAT(10I8)                                                                   
       1       2       2       2       2       2       2       2       3       4
       5       5       5       5       5       5       5       5       5       5
       5       5       6       6       5       5
%FLAG NUMBER_EXCLUDED_ATOMS                                                     
%FORMAT(10I8)                                                                   
      16      11      10      13      12      13       9      10       2       4
       3       2       1       3       2       1       3       2       1       3
       2       1       2       1       1       1
%FLAG NONBONDED_PARM_INDEX                                                      
%FORMAT(10I8)                                                                   
       1       2       4       7      11      16       2       3       5       8
      12      17       4       5       6       9      13      18       7       8
       9      10      14      19      11      12      13      14      15      20
      16      17      18      19      20      21
%FLAG RESIDUE_LABEL                                                             
%FORMAT(20a4)                                                                   
MOL 
%FLAG RESIDUE_POINTER                                                           
%FORMAT(10I8)                                                                   
       1
%FLAG BOND_FORCE_CONSTANT                                                       
%FORMAT(5E16.8)                                                                 
  2.34850000E+02  5.90600000E+02  3.51310000E+02  2.28890000E+02  3.45250000E+02
  2.82270000E+02  3.44220000E+02
%FLAG BOND_EQUIL_VALUE                                                          
%FORMAT(5E16.8)                                                                 
  1.52700000E+00  1.21900000E+00  1.36210000E+00  1.53540000E+00  1.09620000E+00
  1.42730000E+00  1.09690000E+00
%FLAG ANGLE_FORCE_CONSTANT                                                      
%FORMAT(5E16.8)                                                                 
  6.03600000E+01  4.36300000E+01  8.94300000E+01  5.98700000E+01  4.32700000E+01
  7.64500000E+01  7.79700000E+01  7.74400000E+01  4.32800000E+01  1.01260000E+02
  5.62000000E+01  3.58000000E+01  3.56400000E+01
%FLAG ANGLE_EQUIL_VALUE                                                         
%FORMAT(5E16.8)                                                                 
  1.94482122E+00  1.90153704E+00  2.02144121E+00  1.96576518E+00  1.91427794E+00
  2.14501057E+00  1.93382564E+00  1.87832415E+00  1.91270715E+00  2.15024656E+00
  1.92579712E+00  1.88024401E+00  1.89455572E+00
%FLAG DIHEDRAL_FORCE_CONSTANT                                                   
%FORMAT(5E16.8)                                                                 
  1.55555556E-01  8.00000000E-01  3.83000000E-01  3.83333333E-01  6.80000000E-01
  2.00000000E-01  4.40000000E-01  0.00000000E+00  1.30000000E-01  1.89000000E+00
  3.29000000E+00  7.50000000E-01  1.40000000E+00  2.70000000E+00  4.03000000E+00
  3.66000000E+00  2.50000000E-01  0.00000000E+00  1.20000000E-01  1.10000000E+00
%FLAG DIHEDRAL_PERIODICITY                                                      
%FORMAT(5E16.8)                                                                 
  3.00000000E+00  1.00000000E+00  3.00000000E+00  3.00000000E+00  1.00000000E+00
  2.00000000E+00  3.00000000E+00  2.00000000E+00  3.00000000E+00  1.00000000E+00
  2.00000000E+00  3.00000000E+00  1.00000000E+00  2.00000000E+00  1.00000000E+00
  2.00000000E+00  1.00000000E+00  3.00000000E+00  3.00000000E+00  2.00000000E+00
%FLAG DIHEDRAL_PHASE                                                            
%FORMAT(5E16.8)                                                                 
  0.00000000E+00  3.14159400E+00  0.00000000E+00  0.00000000E+00  0.00000000E+00
  3.14159400E+00  3.14159400E+00  3.14159400E+00  0.00000000E+00  3.14159400E+00
  3.14159400E+00  0.00000000E+00  3.14159400E+00  3.14159400E+00  0.00000000E+00
  3.14159400E+00  0.00000000E+00  0.00000000E+00  0.00000000E+00  3.14159400E+00
%FLAG SCEE_SCALE_FACTOR                                                         
%FORMAT(5E16.8)                                                                 
  1.20000000E+00  1.20000000E+00  1.20000000E+00  1.20000000E+00  1.20000000E+00
  1.20000000E+00  1.20000000E+00  1.20000000E+00  1.20000000E+00  1.20000000E+00
  1.20000000E+00  1.20000000E+00  1.20000000E+00  1.20000000E+00  1.20000000E+00
  1.20000000E+00  1.20000000E+00  1.20000000E+00  1.20000000E+00  0.00000000E+00
%FLAG SCNB_SCALE_FACTOR                                                         
%FORMAT(5E16.8)                                                                 
  2.00000000E+00  2.00000000E+00  2.00000000E+00  2.00000000E+00  2.00000000E+00
  2.00000000E+00  2.00000000E+00  2.00000000E+00  2.00000000E+00  2.00000000E+00
  2.00000000E+00  2.00000000E+00  2.00000000E+00  2.00000000E+00  2.00000000E+00
  2.00000000E+00  2.00000000E+00  2.00000000E+00  2.00000000E+00  0.00000000E+00
%FLAG SOLTY                                                                     
%FORMAT(5E16.8)                                                                 
  0.00000000E+00  0.00000000E+00  0.00000000E+00  0.00000000E+00  0.00000000E+00
  0.00000000E+00
%FLAG LENNARD_JONES_ACOEF                                                       
%FORMAT(5E16.8)                                                                 
  6.96551276E+05  8.43969952E+05  1.02073671E+06  5.17507491E+05  6.30925504E+05
  3.76435470E+05  4.46121722E+05  5.42502534E+05  3.27367585E+05  2.83662575E+05
  8.12662403E+04  1.00235148E+05  5.68021765E+04  5.02224902E+04  7.94617769E+03
  5.63013422E+04  6.97998263E+04  3.86646725E+04  3.44374471E+04  5.22955465E+03
  3.39005767E+03
%FLAG LENNARD_JONES_BCOEF                                                       
%FORMAT(5E16.8)                                                                 
  5.24668528E+02  5.90251928E+02  6.63431737E+02  4.98871431E+02  5.62969425E+02
  4.69350655E+02  3.88758656E+02  4.38146883E+02  3.67361018E+02  2.87011518E+02
  1.21392023E+02  1.37787728E+02  1.11953944E+02  8.83545880E+01  2.57122925E+01
  1.01040256E+02  1.14981426E+02  9.23664132E+01  7.31636661E+01  2.08590256E+01
  1.67944276E+01
%FLAG BONDS_INC_HYDROGEN                                                        
%FORMAT(10I8)                                                                   
       3      30       5       3      33       5       3      36       5       6
      39       5       6      42       5       6      45       5       9      48
       5       9      51       5       9      54       5      12      57       5
      12      60       5      12      63       5      15      66       7      15
      69       7      18      72       5      21      75       5
%FLAG BONDS_WITHOUT_HYDROGEN                                                    
%FORMAT(10I8)                                                                   
       0      18       1       0      24       2       0      27       3       3
      18       4       6      18       4       9      21       4      12      21
       4      15      21       4      15      27       6
%FLAG ANGLES_INC_HYDROGEN                                                       
%FORMAT(10I8)                                                                   
       0      18      72       2       3      18      72       5       6      18
      72       5       9      21      75       5      12      21      75       5
      15      21      75       5      18       3      30       5      18       3
      33       5      18       3      36       5      18       6      39       5
      18       6      42       5      18       6      45       5      21       9
      48       5      21       9      51       5      21       9      54       5
      21      12      57       5      21      12      60       5      21      12
      63       5      21      15      66       9      21      15      69       9
      27      15      66      11      27      15      69      11      30       3
      33      12      30       3      36      12      33       3      36      12
      39       6      42      12      39       6      45      12      42       6
      45      12      48       9      51      12      48       9      54      12
      51       9      54      12      57      12      60      12      57      12
      63      12      60      12      63      12      66      15      69      13
%FLAG ANGLES_WITHOUT_HYDROGEN                                                   
%FORMAT(10I8)                                                                   
       0      18       3       1       0      18       6       1       0      27
      15       3       3      18       6       4       9      21      12       4
       9      21      15       4      12      21      15       4      18       0
      24       6      18       0      27       7      21      15      27       8
      24       0      27      10
%FLAG DIHEDRALS_INC_HYDROGEN                                                    
%FORMAT(10I8)                                                                   
       0      18       3      30       1       0      18       3      33       1
       0      18       3      36       1       0      18       6      39       1
       0      18       6      42       1       0      18       6      45       1
       0      27      15      66       4       0      27      15      69       4
       3      18       6      39       9       3      18       6      42       9
       3      18       6      45       9       6      18       3      30       9
       6      18       3      33       9       6      18       3      36       9
       9      21      12      57       9       9      21      12      60       9
       9      21      12      63       9       9      21      15      66       1
       9      21      15      69       1      12      21       9      48       9
      12      21       9      51       9      12      21       9      54       9
      12      21      15      66       1      12      21      15      69       1
      15      21       9      48       9      15      21       9      51       9
      15      21       9      54       9      15      21      12      57       9
      15      21      12      60       9      15      21      12      63       9
      24       0      18      72      15      24       0     -18      72      16
      27       0      18      72       8      27      15      21      75      17
      27      15     -21      75      18      30       3      18      72      19
      33       3      18      72      19      36       3      18      72      19
      39       6      18      72      19      42       6      18      72      19
      45       6      18      72      19      48       9      21      75      19
      51       9      21      75      19      54       9      21      75      19
      57      12      21      75      19      60      12      21      75      19
      63      12      21      75      19      66      15      21      75       1
      69      15      21      75       1
%FLAG DIHEDRALS_WITHOUT_HYDROGEN                                                
%FORMAT(10I8)                                                                   
       0      27      15      21       2       0      27     -15      21       3
      24       0      18       3       5      24       0     -18       3       6
      24       0     -18       3       7      27       0      18       3       8
      24       0      18       6       5      24       0     -18       6       6
      24       0     -18       6       7      27       0      18       6       8
       9      21      15      27       1      12      21      15      27       1
      18       0      27      15      10      18       0     -27      15      11
      18       0     -27      15      12      24       0      27      15      13
      24       0     -27      15      14      27       0     -24     -18      20
%FLAG EXCLUDED_ATOMS_LIST                                                       
%FORMAT(10I8)                                                                   
       2       3       6       7       8       9      10      11      12      13
      14      15      16      23      24      25       3       7       9      10
      11      12      13      14      15      16      25       7       9      10
      11      12      13      14      15      16      25       5       6       8
      10      17      18      19      20      21      22      23      24      26
       6       8      10      17      18      19      20      21      22      23
      24      26       7       8       9      10      17      18      19      20
      21      22      23      24      26       9      10      11      12      13
      14      15      16      25      10      17      18      19      20      21
      22      23      24      26      10      25      23      24      25      26
      12      13      25      13      25      25      15      16      25      16
      25      25      18      19      26      19      26      26      21      22
      26      22      26      26      24      26      26       0       0
%FLAG HBOND_ACOEF                                                               
%FORMAT(5E16.8)                                                                 

%FLAG HBOND_BCOEF                                                               
%FORMAT(5E16.8)                                                                 

%FLAG HBCUT                                                                     
%FORMAT(5E16.8)                                                                 

%FLAG AMBER_ATOM_TYPE                                                           
%FORMAT(20a4)                                                                   
c   c3  c3  c3  c3  c3  c3  c3  o   os  hc  hc  hc  hc  hc  hc  hc  hc  hc  hc  
hc  hc  h1  h1  hc  hc  
%FLAG TREE_CHAIN_CLASSIFICATION                                                 
%FORMAT(20a4)                                                                   
BLA BLA BLA BLA BLA BLA BLA BLA BLA BLA BLA BLA BLA BLA BLA BLA BLA BLA BLA BLA 
BLA BLA BLA BLA BLA BLA 
%FLAG JOIN_ARRAY                                                                
%FORMAT(10I8)                                                                   
       0       0       0       0       0       0       0       0       0       0
       0       0       0       0       0       0       0       0       0       0
       0       0       0       0       0       0
%FLAG IROTAT                                                                    
%FORMAT(10I8)                                                                   
       0       0       0       0       0       0       0       0       0       0
       0       0       0       0       0       0       0       0       0       0
       0       0       0       0       0       0
%FLAG RADIUS_SET                                                                
%FORMAT(1a80)                                                                   
modified Bondi radii (mbondi)                                                   
%FLAG RADII                                                                     
%FORMAT(5E16.8)                                                                 
  1.70000000E+00  1.70000000E+00  1.70000000E+00  1.70000000E+00  1.70000000E+00
  1.70000000E+00  1.70000000E+00  1.70000000E+00  1.50000000E+00  1.50000000E+00
  1.30000000E+00  1.30000000E+00  1.30000000E+00  1.30000000E+00  1.30000000E+00
  1.30000000E+00  1.30000000E+00  1.30000000E+00  1.30000000E+00  1.30000000E+00
  1.30000000E+00  1.30000000E+00  1.30000000E+00  1.30000000E+00  1.30000000E+00
  1.30000000E+00
%FLAG SCREEN                                                                    
%FORMAT(5E16.8)                                                                 
  7.20000000E-01  7.20000000E-01  7.20000000E-01  7.20000000E-01  7.20000000E-01
  7.20000000E-01  7.20000000E-01  7.20000000E-01  8.50000000E-01  8.50000000E-01
  8.50000000E-01  8.50000000E-01  8.50000000E-01  8.50000000E-01  8.50000000E-01
  8.50000000E-01  8.50000000E-01  8.50000000E-01  8.50000000E-01  8.50000000E-01
  8.50000000E-01  8.50000000E-01  8.50000000E-01  8.50000000E-01  8.50000000E-01
  8.50000000E-01
%FLAG IPOL                                                                      
%FORMAT(1I8)                                                                    
       0
