mobley_2245668_GMX.gro created by acpype (v: 2023.10.27) on Wed May 20 23:52:04 2026
   15
    1MOL     C1    1   2.200   2.125   2.302
    1MOL     C2    2   2.216   2.279   2.104
    1MOL     C3    3   2.300   2.356   2.328
    1MOL     C4    4   2.282   2.236   2.235
    1MOL     O1    5   2.369   2.316   2.445
    1MOL     H1    6   2.188   2.040   2.234
    1MOL     H2    7   2.100   2.161   2.329
    1MOL     H3    8   2.249   2.089   2.392
    1MOL     H4    9   2.205   2.194   2.036
    1MOL     H5   10   2.276   2.355   2.053
    1MOL     H6   11   2.116   2.321   2.122
    1MOL     H7   12   2.359   2.434   2.278
    1MOL     H8   13   2.203   2.398   2.357
    1MOL     H9   14   2.381   2.194   2.212
    1MOL    H10   15   2.441   2.380   2.458
   4.51805   4.51805   4.51805
