mobley_2245668_GMX.gro created by acpype (v: 2023.10.27) on Wed May 20 23:52:04 2026
 8991
    1MOL     C1    1   2.200   2.125   2.302
    1MOL     C2    2   2.216   2.279   2.104
    1MOL     C3    3   2.300   2.356   2.328
    1MOL     C4    4   2.282   2.236   2.235
    1MOL     O1    5   2.369   2.316   2.445
    1MOL     H1    6   2.188   2.040   2.234
    1MOL     H2    7   2.100   2.161   2.329
    1MOL     H3    8   2.249   2.089   2.392
    1MOL     H4    9   2.205   2.194   2.036
    1MOL     H5   10   2.276   2.355   2.053
    1MOL     H6   11   2.116   2.321   2.122
    1MOL     H7   12   2.359   2.434   2.278
    1MOL     H8   13   2.203   2.398   2.357
    1MOL     H9   14   2.381   2.194   2.212
    1MOL    H10   15   2.441   2.380   2.458
    2SOL     OW   16   0.230   0.628   0.113
    2SOL    HW1   17   0.137   0.626   0.150
    2SOL    HW2   18   0.231   0.589   0.021
    3SOL     OW   19   0.225   0.275   0.996
    3SOL    HW1   20   0.260   0.258   1.088
    3SOL    HW2   21   0.137   0.230   0.984
    4SOL     OW   22   0.019   0.368   0.647
    4SOL    HW1   23  -0.063   0.411   0.686
    4SOL    HW2   24  -0.009   0.295   0.584
    5SOL     OW   25   0.569   1.275   1.165
    5SOL    HW1   26   0.476   1.268   1.128
    5SOL    HW2   27   0.580   1.364   1.209
    6SOL     OW   28   1.555   1.511   0.703
    6SOL    HW1   29   1.498   1.495   0.784
    6SOL    HW2   30   1.496   1.521   0.623
    7SOL     OW   31   1.135   0.703   0.717
    7SOL    HW1   32   1.192   0.781   0.692
    7SOL    HW2   33   1.075   0.729   0.793
    8SOL     OW   34   1.755   0.607   0.231
    8SOL    HW1   35   1.743   0.594   0.132
    8SOL    HW2   36   1.725   0.526   0.280
    9SOL     OW   37   0.768   1.144   1.023
    9SOL    HW1   38   0.690   1.161   1.083
    9SOL    HW2   39   0.802   1.231   0.987
   10SOL     OW   40   0.850   0.798   1.823
   10SOL    HW1   41   0.846   0.874   1.888
   10SOL    HW2   42   0.872   0.834   1.732
   11SOL     OW   43   0.685   1.012   0.665
   11SOL    HW1   44   0.754   0.996   0.735
   11SOL    HW2   45   0.612   1.069   0.703
   12SOL     OW   46   0.686   1.161   1.803
   12SOL    HW1   47   0.746   1.240   1.817
   12SOL    HW2   48   0.600   1.192   1.762
   13SOL     OW   49   0.335   1.435   1.061
   13SOL    HW1   50   0.257   1.404   1.008
   13SOL    HW2   51   0.393   1.493   1.004
   14SOL     OW   52   1.460   1.505   1.339
   14SOL    HW1   53   1.484   1.599   1.365
   14SOL    HW2   54   1.444   1.451   1.421
   15SOL     OW   55   0.438   0.392   1.499
   15SOL    HW1   56   0.520   0.336   1.508
   15SOL    HW2   57   0.357   0.334   1.503
   16SOL     OW   58   1.603   0.447   0.737
   16SOL    HW1   59   1.529   0.493   0.687
   16SOL    HW2   60   1.654   0.515   0.790
   17SOL     OW   61   0.231   1.713   0.483
   17SOL    HW1   62   0.265   1.790   0.537
   17SOL    HW2   63   0.275   1.713   0.393
   18SOL     OW   64   1.127   1.341   1.690
   18SOL    HW1   65   1.174   1.341   1.778
   18SOL    HW2   66   1.079   1.254   1.679
   19SOL     OW   67   0.230   1.434   0.538
   19SOL    HW1   68   0.204   1.530   0.538
   19SOL    HW2   69   0.159   1.380   0.583
   20SOL     OW   70   0.240   1.091   0.886
   20SOL    HW1   71   0.254   1.007   0.938
   20SOL    HW2   72   0.185   1.155   0.941
   21SOL     OW   73   0.620   1.786   1.439
   21SOL    HW1   74   0.528   1.769   1.474
   21SOL    HW2   75   0.648   1.878   1.465
   22SOL     OW   76   0.606   0.964   0.123
   22SOL    HW1   77   0.613   1.048   0.069
   22SOL    HW2   78   0.652   0.977   0.211
   23SOL     OW   79   1.594   0.114   1.480
   23SOL    HW1   80   1.576   0.181   1.408
   23SOL    HW2   81   1.591   0.160   1.569
   24SOL     OW   82   0.122   0.643   0.563
   24SOL    HW1   83   0.077   0.555   0.580
   24SOL    HW2   84   0.121   0.697   0.647
   25SOL     OW   85   1.842   1.767   0.359
   25SOL    HW1   86   1.896   1.738   0.439
   25SOL    HW2   87   1.872   1.857   0.330
   26SOL     OW   88   0.027   1.596   0.117
   26SOL    HW1   89   0.008   1.500   0.138
   26SOL    HW2   90  -0.006   1.654   0.192
   27SOL     OW   91   1.689   0.922   0.612
   27SOL    HW1   92   1.784   0.893   0.620
   27SOL    HW2   93   1.681   0.987   0.537
   28SOL     OW   94   1.641   1.108   0.432
   28SOL    HW1   95   1.727   1.110   0.380
   28SOL    HW2   96   1.655   1.155   0.520
   29SOL     OW   97   0.113   0.737   1.597
   29SOL    HW1   98   0.201   0.724   1.642
   29SOL    HW2   99   0.100   0.834   1.575
   30SOL     OW  100   0.613   1.365   0.726
   30SOL    HW1  101   0.564   1.278   0.735
   30SOL    HW2  102   0.590   1.408   0.639
   31SOL     OW  103   1.293   1.228   1.423
   31SOL    HW1  104   1.330   1.155   1.365
   31SOL    HW2  105   1.345   1.233   1.508
   32SOL     OW  106   0.809   0.004   0.502
   32SOL    HW1  107   0.849   0.095   0.493
   32SOL    HW2  108   0.709   0.012   0.508
   33SOL     OW  109   0.197   0.976   1.264
   33SOL    HW1  110   0.286   0.931   1.250
   33SOL    HW2  111   0.124   0.911   1.245
   34SOL     OW  112   1.525   0.999   0.190
   34SOL    HW1  113   1.462   0.923   0.203
   34SOL    HW2  114   1.573   1.017   0.276
   35SOL     OW  115   1.187   1.792   1.616
   35SOL    HW1  116   1.211   1.852   1.540
   35SOL    HW2  117   1.194   1.697   1.586
   36SOL     OW  118   0.317   0.251   1.801
   36SOL    HW1  119   0.388   0.322   1.807
   36SOL    HW2  120   0.229   0.290   1.829
   37SOL     OW  121   1.466   1.417   0.953
   37SOL    HW1  122   1.407   1.423   1.033
   37SOL    HW2  123   1.451   1.329   0.907
   38SOL     OW  124   1.667   1.714   0.572
   38SOL    HW1  125   1.626   1.691   0.484
   38SOL    HW2  126   1.649   1.640   0.637
   39SOL     OW  127   0.598   0.729   0.270
   39SOL    HW1  128   0.622   0.798   0.202
   39SOL    HW2  129   0.520   0.762   0.324
   40SOL     OW  130   1.281   0.345   0.944
   40SOL    HW1  131   1.195   0.295   0.931
   40SOL    HW2  132   1.343   0.291   1.000
   41SOL     OW  133   1.576   1.662   0.307
   41SOL    HW1  134   1.665   1.708   0.310
   41SOL    HW2  135   1.555   1.638   0.212
   42SOL     OW  136   0.807   0.605   1.465
   42SOL    HW1  137   0.760   0.602   1.554
   42SOL    HW2  138   0.756   0.550   1.399
   43SOL     OW  139   1.394   0.469   1.674
   43SOL    HW1  140   1.374   0.512   1.762
   43SOL    HW2  141   1.472   0.407   1.683
   44SOL     OW  142   0.973   0.890   1.572
   44SOL    HW1  143   1.019   0.806   1.543
   44SOL    HW2  144   0.917   0.924   1.497
   45SOL     OW  145   0.991   0.410   1.242
   45SOL    HW1  146   0.914   0.444   1.296
   45SOL    HW2  147   0.957   0.359   1.163
   46SOL     OW  148   1.041   0.701   0.429
   46SOL    HW1  149   1.067   0.697   0.525
   46SOL    HW2  150   0.956   0.650   0.415
   47SOL     OW  151   0.076   0.811   0.789
   47SOL    HW1  152   0.175   0.799   0.798
   47SOL    HW2  153   0.052   0.906   0.810
   48SOL     OW  154   0.130   1.821   1.571
   48SOL    HW1  155   0.120   1.806   1.670
   48SOL    HW2  156   0.044   1.857   1.535
   49SOL     OW  157   0.865   0.348   0.195
   49SOL    HW1  158   0.924   0.411   0.146
   49SOL    HW2  159   0.884   0.254   0.166
   50SOL     OW  160   1.719   0.585   1.831
   50SOL    HW1  161   1.693   0.674   1.795
   50SOL    HW2  162   1.717   0.517   1.758
   51SOL     OW  163   1.362   1.144   0.545
   51SOL    HW1  164   1.445   1.115   0.497
   51SOL    HW2  165   1.313   1.211   0.489
   52SOL     OW  166   0.550   0.196   0.885
   52SOL    HW1  167   0.545   0.191   0.985
   52SOL    HW2  168   0.552   0.292   0.856
   53SOL     OW  169   1.008   1.456   0.477
   53SOL    HW1  170   0.962   1.528   0.425
   53SOL    HW2  171   1.004   1.476   0.575
   54SOL     OW  172   0.351   1.801   0.853
   54SOL    HW1  173   0.401   1.715   0.859
   54SOL    HW2  174   0.416   1.878   0.850
   55SOL     OW  175   1.795   1.066   0.873
   55SOL    HW1  176   1.733   1.051   0.797
   55SOL    HW2  177   1.743   1.077   0.958
   56SOL     OW  178   1.227   1.550   1.506
   56SOL    HW1  179   1.233   1.473   1.570
   56SOL    HW2  180   1.175   1.524   1.426
   57SOL     OW  181   0.321   0.943   0.242
   57SOL    HW1  182   0.403   0.982   0.200
   57SOL    HW2  183   0.294   0.861   0.193
   58SOL     OW  184   1.458   0.735   0.728
   58SOL    HW1  185   1.453   0.670   0.803
   58SOL    HW2  186   1.538   0.794   0.741
   59SOL     OW  187   0.461   1.266   1.727
   59SOL    HW1  188   0.411   1.267   1.641
   59SOL    HW2  189   0.398   1.248   1.803
   60SOL     OW  190   1.111   1.776   0.237
   60SOL    HW1  191   1.051   1.714   0.287
   60SOL    HW2  192   1.142   1.732   0.152
   61SOL     OW  193   0.202   0.285   1.498
   61SOL    HW1  194   0.122   0.345   1.485
   61SOL    HW2  195   0.192   0.236   1.584
   62SOL     OW  196   1.632   1.377   0.081
   62SOL    HW1  197   1.600   1.471   0.071
   62SOL    HW2  198   1.556   1.314   0.069
   63SOL     OW  199   0.464   1.743   0.323
   63SOL    HW1  200   0.497   1.782   0.409
   63SOL    HW2  201   0.540   1.736   0.258
   64SOL     OW  202   1.400   0.107   0.426
   64SOL    HW1  203   1.376   0.070   0.336
   64SOL    HW2  204   1.499   0.123   0.430
   65SOL     OW  205   0.249   1.785   1.241
   65SOL    HW1  206   0.306   1.720   1.291
   65SOL    HW2  207   0.233   1.752   1.148
   66SOL     OW  208   0.940   1.698   0.904
   66SOL    HW1  209   1.020   1.641   0.925
   66SOL    HW2  210   0.891   1.658   0.827
   67SOL     OW  211   0.382   0.700   0.480
   67SOL    HW1  212   0.427   0.610   0.477
   67SOL    HW2  213   0.288   0.689   0.513
   68SOL     OW  214   1.547   0.222   1.729
   68SOL    HW1  215   1.542   0.259   1.821
   68SOL    HW2  216   1.475   0.153   1.717
   69SOL     OW  217   0.614   0.122   0.117
   69SOL    HW1  218   0.712   0.100   0.124
   69SOL    HW2  219   0.583   0.105   0.024
   70SOL     OW  220   0.781   0.264   1.749
   70SOL    HW1  221   0.848   0.203   1.792
   70SOL    HW2  222   0.708   0.283   1.814
   71SOL     OW  223   0.888   1.514   1.195
   71SOL    HW1  224   0.865   1.489   1.101
   71SOL    HW2  225   0.949   1.445   1.234
   72SOL     OW  226   1.351   0.590   1.433
   72SOL    HW1  227   1.379   0.547   1.518
   72SOL    HW2  228   1.376   0.686   1.434
   73SOL     OW  229   0.803   1.402   0.924
   73SOL    HW1  230   0.893   1.416   0.882
   73SOL    HW2  231   0.732   1.404   0.853
   74SOL     OW  232   0.922   0.503   0.899
   74SOL    HW1  233   0.897   0.494   0.803
   74SOL    HW2  234   0.970   0.421   0.930
   75SOL     OW  235   0.539   0.064   0.512
   75SOL    HW1  236   0.458   0.065   0.570
   75SOL    HW2  237   0.542   0.147   0.457
   76SOL     OW  238   1.434   1.188   0.041
   76SOL    HW1  239   1.466   1.112   0.098
   76SOL    HW2  240   1.342   1.215   0.071
   77SOL     OW  241   0.297   0.035   0.171
   77SOL    HW1  242   0.346   0.119   0.150
   77SOL    HW2  243   0.359  -0.030   0.216
   78SOL     OW  244   0.935   0.236   0.480
   78SOL    HW1  245   0.887   0.277   0.402
   78SOL    HW2  246   1.034   0.234   0.461
   79SOL     OW  247   1.076   0.683   1.464
   79SOL    HW1  248   0.996   0.622   1.467
   79SOL    HW2  249   1.157   0.630   1.440
   80SOL     OW  250   1.227   1.570   0.793
   80SOL    HW1  251   1.248   1.644   0.728
   80SOL    HW2  252   1.295   1.570   0.866
   81SOL     OW  253   0.459   1.152   0.741
   81SOL    HW1  254   0.388   1.125   0.806
   81SOL    HW2  255   0.433   1.124   0.648
   82SOL     OW  256   1.271   1.797   0.591
   82SOL    HW1  257   1.315   1.861   0.527
   82SOL    HW2  258   1.221   1.849   0.661
   83SOL     OW  259   1.032   0.549   0.016
   83SOL    HW1  260   0.991   0.631  -0.023
   83SOL    HW2  261   1.096   0.575   0.089
   84SOL     OW  262   0.078   0.556   1.386
   84SOL    HW1  263   0.170   0.555   1.345
   84SOL    HW2  264   0.072   0.630   1.453
   85SOL     OW  265   0.561   0.222   1.147
   85SOL    HW1  266   0.599   0.138   1.184
   85SOL    HW2  267   0.473   0.241   1.191
   86SOL     OW  268   0.866   0.454   0.642
   86SOL    HW1  269   0.834   0.526   0.580
   86SOL    HW2  270   0.890   0.373   0.589
   87SOL     OW  271   1.017   0.039   0.753
   87SOL    HW1  272   0.945   0.044   0.684
   87SOL    HW2  273   0.993  -0.030   0.822
   88SOL     OW  274   1.429   1.173   0.867
   88SOL    HW1  275   1.374   1.089   0.860
   88SOL    HW2  276   1.455   1.202   0.775
   89SOL     OW  277   1.466   0.590   0.992
   89SOL    HW1  278   1.436   0.495   0.999
   89SOL    HW2  279   1.539   0.606   1.058
   90SOL     OW  280   1.857   0.833   0.377
   90SOL    HW1  281   1.899   0.769   0.441
   90SOL    HW2  282   1.819   0.782   0.299
   91SOL     OW  283   0.488   1.385   0.174
   91SOL    HW1  284   0.401   1.370   0.221
   91SOL    HW2  285   0.471   1.411   0.079
   92SOL     OW  286   1.664   1.280   0.657
   92SOL    HW1  287   1.763   1.288   0.671
   92SOL    HW2  288   1.619   1.364   0.688
   93SOL     OW  289   1.390   0.575   0.078
   93SOL    HW1  290   1.336   0.554   0.159
   93SOL    HW2  291   1.481   0.534   0.087
   94SOL     OW  292   0.527   0.256   0.328
   94SOL    HW1  293   0.554   0.197   0.253
   94SOL    HW2  294   0.527   0.351   0.297
   95SOL     OW  295   1.754   1.223   1.588
   95SOL    HW1  296   1.845   1.184   1.575
   95SOL    HW2  297   1.762   1.319   1.612
   96SOL     OW  298   1.064   1.347   1.340
   96SOL    HW1  299   0.984   1.324   1.395
   96SOL    HW2  300   1.147   1.321   1.389
   97SOL     OW  301   1.592   1.629   1.625
   97SOL    HW1  302   1.619   1.663   1.535
   97SOL    HW2  303   1.671   1.591   1.671
   98SOL     OW  304   1.111   1.195   1.100
   98SOL    HW1  305   1.071   1.239   1.181
   98SOL    HW2  306   1.070   1.232   1.017
   99SOL     OW  307   1.638   1.099   1.079
   99SOL    HW1  308   1.643   1.180   1.138
   99SOL    HW2  309   1.552   1.101   1.028
  100SOL     OW  310   0.915   0.089   1.402
  100SOL    HW1  311   0.940   0.069   1.307
  100SOL    HW2  312   0.987   0.145   1.444
  101SOL     OW  313   0.980   1.116   1.719
  101SOL    HW1  314   0.881   1.122   1.729
  101SOL    HW2  315   1.003   1.036   1.663
  102SOL     OW  316   0.705   1.050   0.368
  102SOL    HW1  317   0.691   1.057   0.467
  102SOL    HW2  318   0.789   0.999   0.350
  103SOL     OW  319   0.410   0.813   1.251
  103SOL    HW1  320   0.496   0.825   1.301
  103SOL    HW2  321   0.368   0.726   1.278
  104SOL     OW  322   1.274   0.386   1.262
  104SOL    HW1  323   1.295   0.460   1.326
  104SOL    HW2  324   1.185   0.403   1.219
  105SOL     OW  325   0.064   1.564   1.331
  105SOL    HW1  326   0.018   1.646   1.297
  105SOL    HW2  327   0.162   1.583   1.340
  106SOL     OW  328   0.367   1.100   0.501
  106SOL    HW1  329   0.360   1.183   0.445
  106SOL    HW2  330   0.371   1.020   0.441
  107SOL     OW  331   0.566   0.537   0.865
  107SOL    HW1  332   0.578   0.603   0.791
  107SOL    HW2  333   0.612   0.571   0.948
  108SOL     OW  334   1.252   1.348   0.388
  108SOL    HW1  335   1.302   1.425   0.428
  108SOL    HW2  336   1.157   1.350   0.420
  109SOL     OW  337   1.272   1.445   1.142
  109SOL    HW1  338   1.319   1.458   1.229
  109SOL    HW2  339   1.206   1.371   1.151
  110SOL     OW  340   1.582   0.639   0.472
  110SOL    HW1  341   1.551   0.700   0.545
  110SOL    HW2  342   1.632   0.691   0.403
  111SOL     OW  343   0.354   1.510   1.329
  111SOL    HW1  344   0.333   1.466   1.242
  111SOL    HW2  345   0.451   1.536   1.332
  112SOL     OW  346   0.402   0.751   1.598
  112SOL    HW1  347   0.470   0.806   1.551
  112SOL    HW2  348   0.442   0.663   1.625
  113SOL     OW  349   1.587   0.779   1.670
  113SOL    HW1  350   1.495   0.817   1.665
  113SOL    HW2  351   1.647   0.826   1.605
  114SOL     OW  352   1.013   0.105   1.770
  114SOL    HW1  353   1.019   0.190   1.718
  114SOL    HW2  354   1.045   0.029   1.713
  115SOL     OW  355   0.504   0.050   1.740
  115SOL    HW1  356   0.462  -0.007   1.670
  115SOL    HW2  357   0.438   0.119   1.772
  116SOL     OW  358   0.573   0.870   1.029
  116SOL    HW1  359   0.617   0.959   1.020
  116SOL    HW2  360   0.510   0.870   1.106
  117SOL     OW  361   1.360   0.862   1.045
  117SOL    HW1  362   1.285   0.862   0.979
  117SOL    HW2  363   1.397   0.770   1.054
  118SOL     OW  364   1.209   0.525   0.275
  118SOL    HW1  365   1.222   0.441   0.329
  118SOL    HW2  366   1.180   0.599   0.335
  119SOL     OW  367   0.307   0.213   1.231
  119SOL    HW1  368   0.284   0.250   1.321
  119SOL    HW2  369   0.277   0.118   1.225
  120SOL     OW  370   0.037   1.310   1.282
  120SOL    HW1  371   0.090   1.261   1.350
  120SOL    HW2  372   0.059   1.408   1.287
  121SOL     OW  373   0.732   0.634   1.064
  121SOL    HW1  374   0.791   0.608   0.988
  121SOL    HW2  375   0.704   0.730   1.053
  122SOL     OW  376   1.728   0.935   1.854
  122SOL    HW1  377   1.682   0.928   1.765
  122SOL    HW2  378   1.666   0.979   1.920
  123SOL     OW  379   0.307   0.063   0.618
  123SOL    HW1  380   0.296   0.157   0.651
  123SOL    HW2  381   0.302   0.000   0.695
  124SOL     OW  382   1.622   0.367   0.374
  124SOL    HW1  383   1.624   0.291   0.438
  124SOL    HW2  384   1.574   0.444   0.414
  125SOL     OW  385   1.023   0.766   0.966
  125SOL    HW1  386   1.038   0.787   1.062
  125SOL    HW2  387   0.993   0.671   0.957
  126SOL     OW  388   0.980   1.573   1.700
  126SOL    HW1  389   0.960   1.617   1.612
  126SOL    HW2  390   1.019   1.482   1.684
  127SOL     OW  391   1.859   1.518   1.605
  127SOL    HW1  392   1.873   1.545   1.510
  127SOL    HW2  393   1.942   1.540   1.658
  128SOL     OW  394   0.350   0.898   1.804
  128SOL    HW1  395   0.426   0.942   1.852
  128SOL    HW2  396   0.385   0.851   1.722
  129SOL     OW  397   1.540   0.274   0.125
  129SOL    HW1  398   1.479   0.199   0.148
  129SOL    HW2  399   1.562   0.326   0.208
  130SOL     OW  400   1.303   0.838   0.042
  130SOL    HW1  401   1.337   0.745   0.057
  130SOL    HW2  402   1.321   0.865  -0.053
  131SOL     OW  403   1.068   1.333   0.849
  131SOL    HW1  404   1.075   1.249   0.794
  131SOL    HW2  405   1.130   1.402   0.813
  132SOL     OW  406   0.319   0.810   0.949
  132SOL    HW1  407   0.412   0.846   0.954
  132SOL    HW2  408   0.313   0.725   1.001
  133SOL     OW  409   0.339   0.509   1.006
  133SOL    HW1  410   0.287   0.426   0.989
  133SOL    HW2  411   0.416   0.514   0.942
  134SOL     OW  412   1.138   0.380   1.678
  134SOL    HW1  413   1.093   0.443   1.742
  134SOL    HW2  414   1.231   0.411   1.661
  135SOL     OW  415   1.160   0.207   1.477
  135SOL    HW1  416   1.160   0.271   1.554
  135SOL    HW2  417   1.188   0.255   1.394
  136SOL     OW  418   0.008   1.326   0.200
  136SOL    HW1  419  -0.085   1.347   0.169
  136SOL    HW2  420   0.018   1.227   0.213
  137SOL     OW  421   0.088   1.801   0.927
  137SOL    HW1  422   0.046   1.715   0.900
  137SOL    HW2  423   0.182   1.804   0.893
  138SOL     OW  424   0.504   1.568   0.910
  138SOL    HW1  425   0.570   1.642   0.919
  138SOL    HW2  426   0.548   1.489   0.868
  139SOL     OW  427   1.002   0.796   1.238
  139SOL    HW1  428   1.043   0.764   1.324
  139SOL    HW2  429   0.906   0.769   1.235
  140SOL     OW  430   0.040   0.544   1.114
  140SOL    HW1  431   0.125   0.511   1.073
  140SOL    HW2  432   0.053   0.559   1.212
  141SOL     OW  433   0.189   0.520   1.722
  141SOL    HW1  434   0.248   0.480   1.652
  141SOL    HW2  435   0.131   0.591   1.681
  142SOL     OW  436   1.369   0.950   1.660
  142SOL    HW1  437   1.408   1.039   1.680
  142SOL    HW2  438   1.379   0.930   1.563
  143SOL     OW  439   0.815   0.572   0.325
  143SOL    HW1  440   0.822   0.483   0.279
  143SOL    HW2  441   0.721   0.606   0.317
  144SOL     OW  442   1.657   0.604   1.206
  144SOL    HW1  443   1.619   0.535   1.268
  144SOL    HW2  444   1.739   0.568   1.162
  145SOL     OW  445   0.252   1.564   1.744
  145SOL    HW1  446   0.222   1.621   1.820
  145SOL    HW2  447   0.245   1.467   1.770
  146SOL     OW  448   0.671   0.464   1.269
  146SOL    HW1  449   0.637   0.375   1.239
  146SOL    HW2  450   0.697   0.518   1.189
  147SOL     OW  451   0.930   1.678   1.465
  147SOL    HW1  452   0.906   1.660   1.370
  147SOL    HW2  453   0.960   1.772   1.475
  148SOL     OW  454   0.473   0.500   0.191
  148SOL    HW1  455   0.534   0.580   0.195
  148SOL    HW2  456   0.378   0.531   0.198
  149SOL     OW  457   0.159   1.137   1.466
  149SOL    HW1  458   0.181   1.076   1.542
  149SOL    HW2  459   0.169   1.088   1.380
  150SOL     OW  460   1.347   1.059   1.234
  150SOL    HW1  461   1.371   0.996   1.160
  150SOL    HW2  462   1.257   1.099   1.216
  151SOL     OW  463   1.302   0.855   0.309
  151SOL    HW1  464   1.216   0.824   0.351
  151SOL    HW2  465   1.298   0.841   0.210
  152SOL     OW  466   1.759   1.747   1.154
  152SOL    HW1  467   1.820   1.777   1.081
  152SOL    HW2  468   1.721   1.658   1.132
  153SOL     OW  469   1.252   1.731   1.128
  153SOL    HW1  470   1.336   1.736   1.074
  153SOL    HW2  471   1.229   1.635   1.146
  154SOL     OW  472   0.083   1.258   1.022
  154SOL    HW1  473   0.078   1.257   1.122
  154SOL    HW2  474   0.000   1.217   0.984
  155SOL     OW  475   0.688   1.662   1.716
  155SOL    HW1  476   0.632   1.743   1.725
  155SOL    HW2  477   0.740   1.666   1.630
  156SOL     OW  478   0.903   0.086   0.133
  156SOL    HW1  479   0.954   0.087   0.047
  156SOL    HW2  480   0.959   0.044   0.204
  157SOL     OW  481   1.726   0.135   0.523
  157SOL    HW1  482   1.799   0.118   0.456
  157SOL    HW2  483   1.695   0.048   0.561
  158SOL     OW  484   1.388   1.573   0.477
  158SOL    HW1  485   1.455   1.585   0.403
  158SOL    HW2  486   1.348   1.662   0.500
  159SOL     OW  487   0.130   1.794   1.851
  159SOL    HW1  488   0.089   1.720   1.904
  159SOL    HW2  489   0.194   1.845   1.909
  160SOL     OW  490   1.280   0.927   0.672
  160SOL    HW1  491   1.340   0.846   0.674
  160SOL    HW2  492   1.320   0.996   0.612
  161SOL     OW  493   0.830   1.273   1.422
  161SOL    HW1  494   0.825   1.306   1.517
  161SOL    HW2  495   0.744   1.292   1.376
  162SOL     OW  496   0.672   1.616   0.154
  162SOL    HW1  497   0.681   1.626   0.055
  162SOL    HW2  498   0.632   1.527   0.175
  163SOL     OW  499   1.650   1.720   1.394
  163SOL    HW1  500   1.703   1.730   1.310
  163SOL    HW2  501   1.623   1.810   1.428
  164SOL     OW  502   1.841   0.175   0.963
  164SOL    HW1  503   1.880   0.090   0.927
  164SOL    HW2  504   1.743   0.177   0.944
  165SOL     OW  505   0.263   0.326   0.720
  165SOL    HW1  506   0.184   0.377   0.686
  165SOL    HW2  507   0.254   0.311   0.818
  166SOL     OW  508   1.194   1.612   0.031
  166SOL    HW1  509   1.200   1.519   0.068
  166SOL    HW2  510   1.135   1.612  -0.049
  167SOL     OW  511   0.822   1.002   1.372
  167SOL    HW1  512   0.862   1.001   1.280
  167SOL    HW2  513   0.832   1.094   1.412
  168SOL     OW  514   0.916   0.910   0.291
  168SOL    HW1  515   0.979   0.948   0.223
  168SOL    HW2  516   0.956   0.827   0.330
  169SOL     OW  517   1.504   1.607   0.044
  169SOL    HW1  518   1.412   1.644   0.051
  169SOL    HW2  519   1.542   1.627  -0.046
  170SOL     OW  520   0.372   1.288   1.490
  170SOL    HW1  521   0.359   1.381   1.456
  170SOL    HW2  522   0.288   1.236   1.477
  171SOL     OW  523   1.614   1.292   1.289
  171SOL    HW1  524   1.674   1.295   1.369
  171SOL    HW2  525   1.539   1.356   1.302
  172SOL     OW  526   1.039   1.098   0.696
  172SOL    HW1  527   0.969   1.051   0.750
  172SOL    HW2  528   1.098   1.030   0.653
  173SOL     OW  529   1.014   0.236   0.971
  173SOL    HW1  530   1.006   0.200   0.878
  173SOL    HW2  531   1.012   0.160   1.036
  174SOL     OW  532   0.590   1.487   0.491
  174SOL    HW1  533   0.632   1.429   0.421
  174SOL    HW2  534   0.546   1.566   0.447
  175SOL     OW  535   1.709   0.385   1.381
  175SOL    HW1  536   1.782   0.454   1.385
  175SOL    HW2  537   1.737   0.310   1.322
  176SOL     OW  538   0.255   1.348   0.290
  176SOL    HW1  539   0.159   1.349   0.263
  176SOL    HW2  540   0.267   1.401   0.374
  177SOL     OW  541   0.105   1.013   1.726
  177SOL    HW1  542   0.028   0.980   1.780
  177SOL    HW2  543   0.190   0.983   1.768
  178SOL     OW  544   0.672   0.203   1.489
  178SOL    HW1  545   0.762   0.187   1.449
  178SOL    HW2  546   0.680   0.208   1.588
  179SOL     OW  547   0.075   0.345   0.033
  179SOL    HW1  548  -0.017   0.317   0.004
  179SOL    HW2  549   0.106   0.422  -0.023
  180SOL     OW  550   1.440   0.856   1.398
  180SOL    HW1  551   1.383   0.908   1.335
  180SOL    HW2  552   1.536   0.868   1.374
  181SOL     OW  553   0.072   0.166   0.318
  181SOL    HW1  554   0.055   0.249   0.264
  181SOL    HW2  555   0.162   0.129   0.296
  182SOL     OW  556   1.183   1.335   0.119
  182SOL    HW1  557   1.084   1.324   0.121
  182SOL    HW2  558   1.217   1.350   0.212
  183SOL     OW  559   0.613   0.842   1.431
  183SOL    HW1  560   0.669   0.923   1.414
  183SOL    HW2  561   0.672   0.762   1.434
  184SOL     OW  562   1.493   1.767   0.959
  184SOL    HW1  563   1.526   1.831   0.890
  184SOL    HW2  564   1.559   1.761   1.034
  185SOL     OW  565   0.716   0.565   1.708
  185SOL    HW1  566   0.735   0.630   1.782
  185SOL    HW2  567   0.776   0.485   1.717
  186SOL     OW  568   1.450   1.220   1.633
  186SOL    HW1  569   1.441   1.210   1.732
  186SOL    HW2  570   1.546   1.213   1.607
  187SOL     OW  571   0.390   1.741   1.560
  187SOL    HW1  572   0.299   1.782   1.558
  187SOL    HW2  573   0.383   1.647   1.592
  188SOL     OW  574   1.674   0.883   1.254
  188SOL    HW1  575   1.647   0.794   1.217
  188SOL    HW2  576   1.675   0.951   1.181
  189SOL     OW  577   1.225   0.325   0.449
  189SOL    HW1  578   1.290   0.251   0.438
  189SOL    HW2  579   1.245   0.375   0.533
  190SOL     OW  580   0.594   0.745   0.652
  190SOL    HW1  581   0.644   0.830   0.633
  190SOL    HW2  582   0.506   0.747   0.604
  191SOL     OW  583   1.777   0.342   1.642
  191SOL    HW1  584   1.760   0.373   1.548
  191SOL    HW2  585   1.693   0.305   1.680
  192SOL     OW  586   1.730   0.934   1.517
  192SOL    HW1  587   1.768   1.025   1.532
  192SOL    HW2  588   1.722   0.917   1.418
  193SOL     OW  589   0.859   1.374   0.016
  193SOL    HW1  590   0.813   1.389   0.104
  193SOL    HW2  591   0.903   1.459  -0.014
  194SOL     OW  592   0.661   1.790   0.953
  194SOL    HW1  593   0.615   1.878   0.940
  194SOL    HW2  594   0.760   1.802   0.946
  195SOL     OW  595   0.859   0.956   0.861
  195SOL    HW1  596   0.913   0.887   0.909
  195SOL    HW2  597   0.827   1.025   0.927
  196SOL     OW  598   1.083   0.984   0.087
  196SOL    HW1  599   1.060   1.037   0.005
  196SOL    HW2  600   1.164   0.928   0.068
  197SOL     OW  601   1.861   1.569   0.851
  197SOL    HW1  602   1.790   1.557   0.781
  197SOL    HW2  603   1.862   1.490   0.911
  198SOL     OW  604   0.221   1.314   1.844
  198SOL    HW1  605   0.156   1.241   1.823
  198SOL    HW2  606   0.225   1.328   1.942
  199SOL     OW  607   0.079   1.240   0.653
  199SOL    HW1  608   0.078   1.193   0.741
  199SOL    HW2  609   0.161   1.212   0.602
  200SOL     OW  610   0.672   1.391   1.624
  200SOL    HW1  611   0.594   1.341   1.662
  200SOL    HW2  612   0.669   1.486   1.655
  201SOL     OW  613   1.824   0.192   1.227
  201SOL    HW1  614   1.820   0.102   1.271
  201SOL    HW2  615   1.827   0.181   1.128
  202SOL     OW  616   0.428   0.424   0.520
  202SOL    HW1  617   0.458   0.352   0.458
  202SOL    HW2  618   0.389   0.384   0.603
  203SOL     OW  619   1.705   1.487   1.104
  203SOL    HW1  620   1.612   1.462   1.077
  203SOL    HW2  621   1.731   1.437   1.186
  204SOL     OW  622   0.317   0.547   1.280
  204SOL    HW1  623   0.355   0.488   1.352
  204SOL    HW2  624   0.357   0.521   1.192
  205SOL     OW  625   0.812   1.586   0.687
  205SOL    HW1  626   0.844   1.596   0.593
  205SOL    HW2  627   0.733   1.524   0.689
  206SOL     OW  628   1.424   0.214   1.112
  206SOL    HW1  629   1.476   0.149   1.167
  206SOL    HW2  630   1.375   0.277   1.173
  207SOL     OW  631   1.001   0.034   1.154
  207SOL    HW1  632   0.938  -0.038   1.123
  207SOL    HW2  633   1.094  -0.002   1.154
  208SOL     OW  634   0.770   1.330   0.301
  208SOL    HW1  635   0.724   1.243   0.318
  208SOL    HW2  636   0.861   1.327   0.342
  209SOL     OW  637   0.618   1.567   1.284
  209SOL    HW1  638   0.613   1.649   1.341
  209SOL    HW2  639   0.707   1.564   1.239
  210SOL     OW  640   1.352   0.052   0.168
  210SOL    HW1  641   1.387   0.011   0.084
  210SOL    HW2  642   1.262   0.014   0.188
  211SOL     OW  643   1.300   0.453   0.691
  211SOL    HW1  644   1.241   0.533   0.695
  211SOL    HW2  645   1.315   0.418   0.784
  212SOL     OW  646   1.593   0.221   0.882
  212SOL    HW1  647   1.509   0.220   0.936
  212SOL    HW2  648   1.595   0.304   0.826
  213SOL     OW  649   0.039   1.077   0.300
  213SOL    HW1  650   0.138   1.066   0.291
  213SOL    HW2  651  -0.001   0.991   0.332
  214SOL     OW  652   0.875   1.646   0.337
  214SOL    HW1  653   0.798   1.611   0.283
  214SOL    HW2  654   0.843   1.717   0.399
  215SOL     OW  655   0.230   0.628   1.975
  215SOL    HW1  656   0.137   0.626   2.012
  215SOL    HW2  657   0.231   0.589   1.883
  216SOL     OW  658   0.225   0.275   2.858
  216SOL    HW1  659   0.260   0.258   2.950
  216SOL    HW2  660   0.137   0.230   2.846
  217SOL     OW  661   0.019   0.368   2.509
  217SOL    HW1  662  -0.063   0.411   2.548
  217SOL    HW2  663  -0.009   0.295   2.446
  218SOL     OW  664   0.569   1.275   3.027
  218SOL    HW1  665   0.476   1.268   2.990
  218SOL    HW2  666   0.580   1.364   3.071
  219SOL     OW  667   1.555   1.511   2.565
  219SOL    HW1  668   1.498   1.495   2.646
  219SOL    HW2  669   1.496   1.521   2.485
  220SOL     OW  670   1.135   0.703   2.579
  220SOL    HW1  671   1.192   0.781   2.554
  220SOL    HW2  672   1.075   0.729   2.655
  221SOL     OW  673   1.755   0.607   2.093
  221SOL    HW1  674   1.743   0.594   1.994
  221SOL    HW2  675   1.725   0.526   2.142
  222SOL     OW  676   0.768   1.144   2.885
  222SOL    HW1  677   0.690   1.161   2.945
  222SOL    HW2  678   0.802   1.231   2.849
  223SOL     OW  679   0.850   0.798   3.685
  223SOL    HW1  680   0.846   0.874   3.750
  223SOL    HW2  681   0.872   0.834   3.594
  224SOL     OW  682   0.685   1.012   2.527
  224SOL    HW1  683   0.754   0.996   2.597
  224SOL    HW2  684   0.612   1.069   2.565
  225SOL     OW  685   0.686   1.161   3.665
  225SOL    HW1  686   0.746   1.240   3.679
  225SOL    HW2  687   0.600   1.192   3.624
  226SOL     OW  688   0.335   1.435   2.923
  226SOL    HW1  689   0.257   1.404   2.870
  226SOL    HW2  690   0.393   1.493   2.866
  227SOL     OW  691   1.460   1.505   3.201
  227SOL    HW1  692   1.484   1.599   3.227
  227SOL    HW2  693   1.444   1.451   3.283
  228SOL     OW  694   0.438   0.392   3.361
  228SOL    HW1  695   0.520   0.336   3.370
  228SOL    HW2  696   0.357   0.334   3.365
  229SOL     OW  697   1.603   0.447   2.599
  229SOL    HW1  698   1.529   0.493   2.549
  229SOL    HW2  699   1.654   0.515   2.652
  230SOL     OW  700   0.231   1.713   2.345
  230SOL    HW1  701   0.265   1.790   2.399
  230SOL    HW2  702   0.275   1.713   2.255
  231SOL     OW  703   1.127   1.341   3.552
  231SOL    HW1  704   1.174   1.341   3.640
  231SOL    HW2  705   1.079   1.254   3.541
  232SOL     OW  706   0.230   1.434   2.400
  232SOL    HW1  707   0.204   1.530   2.400
  232SOL    HW2  708   0.159   1.380   2.445
  233SOL     OW  709   0.240   1.091   2.748
  233SOL    HW1  710   0.254   1.007   2.800
  233SOL    HW2  711   0.185   1.155   2.803
  234SOL     OW  712   0.620   1.786   3.301
  234SOL    HW1  713   0.528   1.769   3.336
  234SOL    HW2  714   0.648   1.878   3.327
  235SOL     OW  715   0.606   0.964   1.985
  235SOL    HW1  716   0.613   1.048   1.931
  235SOL    HW2  717   0.652   0.977   2.073
  236SOL     OW  718   1.594   0.114   3.342
  236SOL    HW1  719   1.576   0.181   3.270
  236SOL    HW2  720   1.591   0.160   3.431
  237SOL     OW  721   0.122   0.643   2.425
  237SOL    HW1  722   0.077   0.555   2.442
  237SOL    HW2  723   0.121   0.697   2.509
  238SOL     OW  724   1.842   1.767   2.221
  238SOL    HW1  725   1.896   1.738   2.301
  238SOL    HW2  726   1.872   1.857   2.192
  239SOL     OW  727   0.027   1.596   1.979
  239SOL    HW1  728   0.008   1.500   2.000
  239SOL    HW2  729  -0.006   1.654   2.054
  240SOL     OW  730   1.689   0.922   2.474
  240SOL    HW1  731   1.784   0.893   2.482
  240SOL    HW2  732   1.681   0.987   2.399
  241SOL     OW  733   1.641   1.108   2.294
  241SOL    HW1  734   1.727   1.110   2.242
  241SOL    HW2  735   1.655   1.155   2.382
  242SOL     OW  736   0.113   0.737   3.459
  242SOL    HW1  737   0.201   0.724   3.504
  242SOL    HW2  738   0.100   0.834   3.437
  243SOL     OW  739   0.613   1.365   2.588
  243SOL    HW1  740   0.564   1.278   2.597
  243SOL    HW2  741   0.590   1.408   2.501
  244SOL     OW  742   1.293   1.228   3.285
  244SOL    HW1  743   1.330   1.155   3.227
  244SOL    HW2  744   1.345   1.233   3.370
  245SOL     OW  745   0.809   0.004   2.364
  245SOL    HW1  746   0.849   0.095   2.355
  245SOL    HW2  747   0.709   0.012   2.370
  246SOL     OW  748   0.197   0.976   3.126
  246SOL    HW1  749   0.286   0.931   3.112
  246SOL    HW2  750   0.124   0.911   3.107
  247SOL     OW  751   1.525   0.999   2.052
  247SOL    HW1  752   1.462   0.923   2.065
  247SOL    HW2  753   1.573   1.017   2.138
  248SOL     OW  754   1.187   1.792   3.478
  248SOL    HW1  755   1.211   1.852   3.402
  248SOL    HW2  756   1.194   1.697   3.448
  249SOL     OW  757   0.317   0.251   3.663
  249SOL    HW1  758   0.388   0.322   3.669
  249SOL    HW2  759   0.229   0.290   3.691
  250SOL     OW  760   1.466   1.417   2.815
  250SOL    HW1  761   1.407   1.423   2.895
  250SOL    HW2  762   1.451   1.329   2.769
  251SOL     OW  763   1.667   1.714   2.434
  251SOL    HW1  764   1.626   1.691   2.346
  251SOL    HW2  765   1.649   1.640   2.499
  252SOL     OW  766   0.598   0.729   2.132
  252SOL    HW1  767   0.622   0.798   2.064
  252SOL    HW2  768   0.520   0.762   2.186
  253SOL     OW  769   1.281   0.345   2.806
  253SOL    HW1  770   1.195   0.295   2.793
  253SOL    HW2  771   1.343   0.291   2.862
  254SOL     OW  772   1.576   1.662   2.169
  254SOL    HW1  773   1.665   1.708   2.172
  254SOL    HW2  774   1.555   1.638   2.074
  255SOL     OW  775   0.807   0.605   3.327
  255SOL    HW1  776   0.760   0.602   3.416
  255SOL    HW2  777   0.756   0.550   3.261
  256SOL     OW  778   1.394   0.469   3.536
  256SOL    HW1  779   1.374   0.512   3.624
  256SOL    HW2  780   1.472   0.407   3.545
  257SOL     OW  781   0.973   0.890   3.434
  257SOL    HW1  782   1.019   0.806   3.405
  257SOL    HW2  783   0.917   0.924   3.359
  258SOL     OW  784   0.991   0.410   3.104
  258SOL    HW1  785   0.914   0.444   3.158
  258SOL    HW2  786   0.957   0.359   3.025
  259SOL     OW  787   1.041   0.701   2.291
  259SOL    HW1  788   1.067   0.697   2.387
  259SOL    HW2  789   0.956   0.650   2.277
  260SOL     OW  790   0.076   0.811   2.651
  260SOL    HW1  791   0.175   0.799   2.660
  260SOL    HW2  792   0.052   0.906   2.672
  261SOL     OW  793   0.130   1.821   3.433
  261SOL    HW1  794   0.120   1.806   3.532
  261SOL    HW2  795   0.044   1.857   3.397
  262SOL     OW  796   0.865   0.348   2.057
  262SOL    HW1  797   0.924   0.411   2.008
  262SOL    HW2  798   0.884   0.254   2.028
  263SOL     OW  799   1.719   0.585   3.693
  263SOL    HW1  800   1.693   0.674   3.657
  263SOL    HW2  801   1.717   0.517   3.620
  264SOL     OW  802   1.362   1.144   2.407
  264SOL    HW1  803   1.445   1.115   2.359
  264SOL    HW2  804   1.313   1.211   2.351
  265SOL     OW  805   0.550   0.196   2.747
  265SOL    HW1  806   0.545   0.191   2.847
  265SOL    HW2  807   0.552   0.292   2.718
  266SOL     OW  808   1.008   1.456   2.339
  266SOL    HW1  809   0.962   1.528   2.287
  266SOL    HW2  810   1.004   1.476   2.437
  267SOL     OW  811   0.351   1.801   2.715
  267SOL    HW1  812   0.401   1.715   2.721
  267SOL    HW2  813   0.416   1.878   2.712
  268SOL     OW  814   1.795   1.066   2.735
  268SOL    HW1  815   1.733   1.051   2.659
  268SOL    HW2  816   1.743   1.077   2.820
  269SOL     OW  817   1.227   1.550   3.368
  269SOL    HW1  818   1.233   1.473   3.432
  269SOL    HW2  819   1.175   1.524   3.288
  270SOL     OW  820   0.321   0.943   2.104
  270SOL    HW1  821   0.403   0.982   2.062
  270SOL    HW2  822   0.294   0.861   2.055
  271SOL     OW  823   1.458   0.735   2.590
  271SOL    HW1  824   1.453   0.670   2.665
  271SOL    HW2  825   1.538   0.794   2.603
  272SOL     OW  826   0.461   1.266   3.589
  272SOL    HW1  827   0.411   1.267   3.503
  272SOL    HW2  828   0.398   1.248   3.665
  273SOL     OW  829   1.111   1.776   2.099
  273SOL    HW1  830   1.051   1.714   2.149
  273SOL    HW2  831   1.142   1.732   2.014
  274SOL     OW  832   0.202   0.285   3.360
  274SOL    HW1  833   0.122   0.345   3.347
  274SOL    HW2  834   0.192   0.236   3.446
  275SOL     OW  835   1.632   1.377   1.943
  275SOL    HW1  836   1.600   1.471   1.933
  275SOL    HW2  837   1.556   1.314   1.931
  276SOL     OW  838   0.464   1.743   2.185
  276SOL    HW1  839   0.497   1.782   2.271
  276SOL    HW2  840   0.540   1.736   2.120
  277SOL     OW  841   1.400   0.107   2.288
  277SOL    HW1  842   1.376   0.070   2.198
  277SOL    HW2  843   1.499   0.123   2.292
  278SOL     OW  844   0.249   1.785   3.103
  278SOL    HW1  845   0.306   1.720   3.153
  278SOL    HW2  846   0.233   1.752   3.010
  279SOL     OW  847   0.940   1.698   2.766
  279SOL    HW1  848   1.020   1.641   2.787
  279SOL    HW2  849   0.891   1.658   2.689
  280SOL     OW  850   0.382   0.700   2.342
  280SOL    HW1  851   0.427   0.610   2.339
  280SOL    HW2  852   0.288   0.689   2.375
  281SOL     OW  853   1.547   0.222   3.591
  281SOL    HW1  854   1.542   0.259   3.683
  281SOL    HW2  855   1.475   0.153   3.579
  282SOL     OW  856   0.614   0.122   1.979
  282SOL    HW1  857   0.712   0.100   1.986
  282SOL    HW2  858   0.583   0.105   1.886
  283SOL     OW  859   0.781   0.264   3.611
  283SOL    HW1  860   0.848   0.203   3.654
  283SOL    HW2  861   0.708   0.283   3.676
  284SOL     OW  862   0.888   1.514   3.057
  284SOL    HW1  863   0.865   1.489   2.963
  284SOL    HW2  864   0.949   1.445   3.096
  285SOL     OW  865   1.351   0.590   3.295
  285SOL    HW1  866   1.379   0.547   3.380
  285SOL    HW2  867   1.376   0.686   3.296
  286SOL     OW  868   0.803   1.402   2.786
  286SOL    HW1  869   0.893   1.416   2.744
  286SOL    HW2  870   0.732   1.404   2.715
  287SOL     OW  871   0.922   0.503   2.761
  287SOL    HW1  872   0.897   0.494   2.665
  287SOL    HW2  873   0.970   0.421   2.792
  288SOL     OW  874   0.539   0.064   2.374
  288SOL    HW1  875   0.458   0.065   2.432
  288SOL    HW2  876   0.542   0.147   2.319
  289SOL     OW  877   1.434   1.188   1.903
  289SOL    HW1  878   1.466   1.112   1.960
  289SOL    HW2  879   1.342   1.215   1.933
  290SOL     OW  880   0.297   0.035   2.033
  290SOL    HW1  881   0.346   0.119   2.012
  290SOL    HW2  882   0.359  -0.030   2.078
  291SOL     OW  883   0.935   0.236   2.342
  291SOL    HW1  884   0.887   0.277   2.264
  291SOL    HW2  885   1.034   0.234   2.323
  292SOL     OW  886   1.076   0.683   3.326
  292SOL    HW1  887   0.996   0.622   3.329
  292SOL    HW2  888   1.157   0.630   3.302
  293SOL     OW  889   1.227   1.570   2.655
  293SOL    HW1  890   1.248   1.644   2.590
  293SOL    HW2  891   1.295   1.570   2.728
  294SOL     OW  892   0.459   1.152   2.603
  294SOL    HW1  893   0.388   1.125   2.668
  294SOL    HW2  894   0.433   1.124   2.510
  295SOL     OW  895   1.271   1.797   2.453
  295SOL    HW1  896   1.315   1.861   2.389
  295SOL    HW2  897   1.221   1.849   2.523
  296SOL     OW  898   1.032   0.549   1.878
  296SOL    HW1  899   0.991   0.631   1.839
  296SOL    HW2  900   1.096   0.575   1.951
  297SOL     OW  901   0.078   0.556   3.248
  297SOL    HW1  902   0.170   0.555   3.207
  297SOL    HW2  903   0.072   0.630   3.315
  298SOL     OW  904   0.561   0.222   3.009
  298SOL    HW1  905   0.599   0.138   3.046
  298SOL    HW2  906   0.473   0.241   3.053
  299SOL     OW  907   0.866   0.454   2.504
  299SOL    HW1  908   0.834   0.526   2.442
  299SOL    HW2  909   0.890   0.373   2.451
  300SOL     OW  910   1.017   0.039   2.615
  300SOL    HW1  911   0.945   0.044   2.546
  300SOL    HW2  912   0.993  -0.030   2.684
  301SOL     OW  913   1.429   1.173   2.729
  301SOL    HW1  914   1.374   1.089   2.722
  301SOL    HW2  915   1.455   1.202   2.637
  302SOL     OW  916   1.466   0.590   2.854
  302SOL    HW1  917   1.436   0.495   2.861
  302SOL    HW2  918   1.539   0.606   2.920
  303SOL     OW  919   1.857   0.833   2.239
  303SOL    HW1  920   1.899   0.769   2.303
  303SOL    HW2  921   1.819   0.782   2.161
  304SOL     OW  922   0.488   1.385   2.036
  304SOL    HW1  923   0.401   1.370   2.083
  304SOL    HW2  924   0.471   1.411   1.941
  305SOL     OW  925   1.664   1.280   2.519
  305SOL    HW1  926   1.763   1.288   2.533
  305SOL    HW2  927   1.619   1.364   2.550
  306SOL     OW  928   1.390   0.575   1.940
  306SOL    HW1  929   1.336   0.554   2.021
  306SOL    HW2  930   1.481   0.534   1.949
  307SOL     OW  931   0.527   0.256   2.190
  307SOL    HW1  932   0.554   0.197   2.115
  307SOL    HW2  933   0.527   0.351   2.159
  308SOL     OW  934   1.754   1.223   3.450
  308SOL    HW1  935   1.845   1.184   3.437
  308SOL    HW2  936   1.762   1.319   3.474
  309SOL     OW  937   1.064   1.347   3.202
  309SOL    HW1  938   0.984   1.324   3.257
  309SOL    HW2  939   1.147   1.321   3.251
  310SOL     OW  940   1.592   1.629   3.487
  310SOL    HW1  941   1.619   1.663   3.397
  310SOL    HW2  942   1.671   1.591   3.533
  311SOL     OW  943   1.111   1.195   2.962
  311SOL    HW1  944   1.071   1.239   3.043
  311SOL    HW2  945   1.070   1.232   2.879
  312SOL     OW  946   1.638   1.099   2.941
  312SOL    HW1  947   1.643   1.180   3.000
  312SOL    HW2  948   1.552   1.101   2.890
  313SOL     OW  949   0.915   0.089   3.264
  313SOL    HW1  950   0.940   0.069   3.169
  313SOL    HW2  951   0.987   0.145   3.306
  314SOL     OW  952   0.980   1.116   3.581
  314SOL    HW1  953   0.881   1.122   3.591
  314SOL    HW2  954   1.003   1.036   3.525
  315SOL     OW  955   0.705   1.050   2.230
  315SOL    HW1  956   0.691   1.057   2.329
  315SOL    HW2  957   0.789   0.999   2.212
  316SOL     OW  958   0.410   0.813   3.113
  316SOL    HW1  959   0.496   0.825   3.163
  316SOL    HW2  960   0.368   0.726   3.140
  317SOL     OW  961   1.274   0.386   3.124
  317SOL    HW1  962   1.295   0.460   3.188
  317SOL    HW2  963   1.185   0.403   3.081
  318SOL     OW  964   0.064   1.564   3.193
  318SOL    HW1  965   0.018   1.646   3.159
  318SOL    HW2  966   0.162   1.583   3.202
  319SOL     OW  967   0.367   1.100   2.363
  319SOL    HW1  968   0.360   1.183   2.307
  319SOL    HW2  969   0.371   1.020   2.303
  320SOL     OW  970   0.566   0.537   2.727
  320SOL    HW1  971   0.578   0.603   2.653
  320SOL    HW2  972   0.612   0.571   2.810
  321SOL     OW  973   1.252   1.348   2.250
  321SOL    HW1  974   1.302   1.425   2.290
  321SOL    HW2  975   1.157   1.350   2.282
  322SOL     OW  976   1.272   1.445   3.004
  322SOL    HW1  977   1.319   1.458   3.091
  322SOL    HW2  978   1.206   1.371   3.013
  323SOL     OW  979   1.582   0.639   2.334
  323SOL    HW1  980   1.551   0.700   2.407
  323SOL    HW2  981   1.632   0.691   2.265
  324SOL     OW  982   0.354   1.510   3.191
  324SOL    HW1  983   0.333   1.466   3.104
  324SOL    HW2  984   0.451   1.536   3.194
  325SOL     OW  985   0.402   0.751   3.460
  325SOL    HW1  986   0.470   0.806   3.413
  325SOL    HW2  987   0.442   0.663   3.487
  326SOL     OW  988   1.587   0.779   3.532
  326SOL    HW1  989   1.495   0.817   3.527
  326SOL    HW2  990   1.647   0.826   3.467
  327SOL     OW  991   1.013   0.105   3.632
  327SOL    HW1  992   1.019   0.190   3.580
  327SOL    HW2  993   1.045   0.029   3.575
  328SOL     OW  994   0.504   0.050   3.602
  328SOL    HW1  995   0.462  -0.007   3.532
  328SOL    HW2  996   0.438   0.119   3.634
  329SOL     OW  997   0.573   0.870   2.891
  329SOL    HW1  998   0.617   0.959   2.882
  329SOL    HW2  999   0.510   0.870   2.968
  330SOL     OW 1000   1.360   0.862   2.907
  330SOL    HW1 1001   1.285   0.862   2.841
  330SOL    HW2 1002   1.397   0.770   2.916
  331SOL     OW 1003   1.209   0.525   2.137
  331SOL    HW1 1004   1.222   0.441   2.191
  331SOL    HW2 1005   1.180   0.599   2.197
  332SOL     OW 1006   0.307   0.213   3.093
  332SOL    HW1 1007   0.284   0.250   3.183
  332SOL    HW2 1008   0.277   0.118   3.087
  333SOL     OW 1009   0.037   1.310   3.144
  333SOL    HW1 1010   0.090   1.261   3.212
  333SOL    HW2 1011   0.059   1.408   3.149
  334SOL     OW 1012   0.732   0.634   2.926
  334SOL    HW1 1013   0.791   0.608   2.850
  334SOL    HW2 1014   0.704   0.730   2.915
  335SOL     OW 1015   1.728   0.935   3.716
  335SOL    HW1 1016   1.682   0.928   3.627
  335SOL    HW2 1017   1.666   0.979   3.782
  336SOL     OW 1018   0.307   0.063   2.480
  336SOL    HW1 1019   0.296   0.157   2.513
  336SOL    HW2 1020   0.302   0.000   2.557
  337SOL     OW 1021   1.622   0.367   2.236
  337SOL    HW1 1022   1.624   0.291   2.300
  337SOL    HW2 1023   1.574   0.444   2.276
  338SOL     OW 1024   1.023   0.766   2.828
  338SOL    HW1 1025   1.038   0.787   2.924
  338SOL    HW2 1026   0.993   0.671   2.819
  339SOL     OW 1027   0.980   1.573   3.562
  339SOL    HW1 1028   0.960   1.617   3.474
  339SOL    HW2 1029   1.019   1.482   3.546
  340SOL     OW 1030   1.859   1.518   3.467
  340SOL    HW1 1031   1.873   1.545   3.372
  340SOL    HW2 1032   1.942   1.540   3.520
  341SOL     OW 1033   0.350   0.898   3.666
  341SOL    HW1 1034   0.426   0.942   3.714
  341SOL    HW2 1035   0.385   0.851   3.584
  342SOL     OW 1036   1.540   0.274   1.987
  342SOL    HW1 1037   1.479   0.199   2.010
  342SOL    HW2 1038   1.562   0.326   2.070
  343SOL     OW 1039   1.303   0.838   1.904
  343SOL    HW1 1040   1.337   0.745   1.919
  343SOL    HW2 1041   1.321   0.865   1.809
  344SOL     OW 1042   1.068   1.333   2.711
  344SOL    HW1 1043   1.075   1.249   2.656
  344SOL    HW2 1044   1.130   1.402   2.675
  345SOL     OW 1045   0.319   0.810   2.811
  345SOL    HW1 1046   0.412   0.846   2.816
  345SOL    HW2 1047   0.313   0.725   2.863
  346SOL     OW 1048   0.339   0.509   2.868
  346SOL    HW1 1049   0.287   0.426   2.851
  346SOL    HW2 1050   0.416   0.514   2.804
  347SOL     OW 1051   1.138   0.380   3.540
  347SOL    HW1 1052   1.093   0.443   3.604
  347SOL    HW2 1053   1.231   0.411   3.523
  348SOL     OW 1054   1.160   0.207   3.339
  348SOL    HW1 1055   1.160   0.271   3.416
  348SOL    HW2 1056   1.188   0.255   3.256
  349SOL     OW 1057   0.008   1.326   2.062
  349SOL    HW1 1058  -0.085   1.347   2.031
  349SOL    HW2 1059   0.018   1.227   2.075
  350SOL     OW 1060   0.088   1.801   2.789
  350SOL    HW1 1061   0.046   1.715   2.762
  350SOL    HW2 1062   0.182   1.804   2.755
  351SOL     OW 1063   0.504   1.568   2.772
  351SOL    HW1 1064   0.570   1.642   2.781
  351SOL    HW2 1065   0.548   1.489   2.730
  352SOL     OW 1066   1.002   0.796   3.100
  352SOL    HW1 1067   1.043   0.764   3.186
  352SOL    HW2 1068   0.906   0.769   3.097
  353SOL     OW 1069   0.040   0.544   2.976
  353SOL    HW1 1070   0.125   0.511   2.935
  353SOL    HW2 1071   0.053   0.559   3.074
  354SOL     OW 1072   0.189   0.520   3.584
  354SOL    HW1 1073   0.248   0.480   3.514
  354SOL    HW2 1074   0.131   0.591   3.543
  355SOL     OW 1075   1.369   0.950   3.522
  355SOL    HW1 1076   1.408   1.039   3.542
  355SOL    HW2 1077   1.379   0.930   3.425
  356SOL     OW 1078   0.815   0.572   2.187
  356SOL    HW1 1079   0.822   0.483   2.141
  356SOL    HW2 1080   0.721   0.606   2.179
  357SOL     OW 1081   1.657   0.604   3.068
  357SOL    HW1 1082   1.619   0.535   3.130
  357SOL    HW2 1083   1.739   0.568   3.024
  358SOL     OW 1084   0.252   1.564   3.606
  358SOL    HW1 1085   0.222   1.621   3.682
  358SOL    HW2 1086   0.245   1.467   3.632
  359SOL     OW 1087   0.671   0.464   3.131
  359SOL    HW1 1088   0.637   0.375   3.101
  359SOL    HW2 1089   0.697   0.518   3.051
  360SOL     OW 1090   0.930   1.678   3.327
  360SOL    HW1 1091   0.906   1.660   3.232
  360SOL    HW2 1092   0.960   1.772   3.337
  361SOL     OW 1093   0.473   0.500   2.053
  361SOL    HW1 1094   0.534   0.580   2.057
  361SOL    HW2 1095   0.378   0.531   2.060
  362SOL     OW 1096   0.159   1.137   3.328
  362SOL    HW1 1097   0.181   1.076   3.404
  362SOL    HW2 1098   0.169   1.088   3.242
  363SOL     OW 1099   1.347   1.059   3.096
  363SOL    HW1 1100   1.371   0.996   3.022
  363SOL    HW2 1101   1.257   1.099   3.078
  364SOL     OW 1102   1.302   0.855   2.171
  364SOL    HW1 1103   1.216   0.824   2.213
  364SOL    HW2 1104   1.298   0.841   2.072
  365SOL     OW 1105   1.759   1.747   3.016
  365SOL    HW1 1106   1.820   1.777   2.943
  365SOL    HW2 1107   1.721   1.658   2.994
  366SOL     OW 1108   1.252   1.731   2.990
  366SOL    HW1 1109   1.336   1.736   2.936
  366SOL    HW2 1110   1.229   1.635   3.008
  367SOL     OW 1111   0.083   1.258   2.884
  367SOL    HW1 1112   0.078   1.257   2.984
  367SOL    HW2 1113   0.000   1.217   2.846
  368SOL     OW 1114   0.688   1.662   3.578
  368SOL    HW1 1115   0.632   1.743   3.587
  368SOL    HW2 1116   0.740   1.666   3.492
  369SOL     OW 1117   1.726   0.135   2.385
  369SOL    HW1 1118   1.799   0.118   2.318
  369SOL    HW2 1119   1.695   0.048   2.423
  370SOL     OW 1120   1.388   1.573   2.339
  370SOL    HW1 1121   1.455   1.585   2.265
  370SOL    HW2 1122   1.348   1.662   2.362
  371SOL     OW 1123   0.130   1.794   3.713
  371SOL    HW1 1124   0.089   1.720   3.766
  371SOL    HW2 1125   0.194   1.845   3.771
  372SOL     OW 1126   1.280   0.927   2.534
  372SOL    HW1 1127   1.340   0.846   2.536
  372SOL    HW2 1128   1.320   0.996   2.474
  373SOL     OW 1129   0.830   1.273   3.284
  373SOL    HW1 1130   0.825   1.306   3.379
  373SOL    HW2 1131   0.744   1.292   3.238
  374SOL     OW 1132   0.672   1.616   2.016
  374SOL    HW1 1133   0.681   1.626   1.917
  374SOL    HW2 1134   0.632   1.527   2.037
  375SOL     OW 1135   1.650   1.720   3.256
  375SOL    HW1 1136   1.703   1.730   3.172
  375SOL    HW2 1137   1.623   1.810   3.290
  376SOL     OW 1138   1.841   0.175   2.825
  376SOL    HW1 1139   1.880   0.090   2.789
  376SOL    HW2 1140   1.743   0.177   2.806
  377SOL     OW 1141   0.263   0.326   2.582
  377SOL    HW1 1142   0.184   0.377   2.548
  377SOL    HW2 1143   0.254   0.311   2.680
  378SOL     OW 1144   1.194   1.612   1.893
  378SOL    HW1 1145   1.200   1.519   1.930
  378SOL    HW2 1146   1.135   1.612   1.813
  379SOL     OW 1147   0.822   1.002   3.234
  379SOL    HW1 1148   0.862   1.001   3.142
  379SOL    HW2 1149   0.832   1.094   3.274
  380SOL     OW 1150   0.916   0.910   2.153
  380SOL    HW1 1151   0.979   0.948   2.085
  380SOL    HW2 1152   0.956   0.827   2.192
  381SOL     OW 1153   1.504   1.607   1.906
  381SOL    HW1 1154   1.412   1.644   1.913
  381SOL    HW2 1155   1.542   1.627   1.816
  382SOL     OW 1156   0.372   1.288   3.352
  382SOL    HW1 1157   0.359   1.381   3.318
  382SOL    HW2 1158   0.288   1.236   3.339
  383SOL     OW 1159   1.614   1.292   3.151
  383SOL    HW1 1160   1.674   1.295   3.231
  383SOL    HW2 1161   1.539   1.356   3.164
  384SOL     OW 1162   1.039   1.098   2.558
  384SOL    HW1 1163   0.969   1.051   2.612
  384SOL    HW2 1164   1.098   1.030   2.515
  385SOL     OW 1165   1.014   0.236   2.833
  385SOL    HW1 1166   1.006   0.200   2.740
  385SOL    HW2 1167   1.012   0.160   2.898
  386SOL     OW 1168   0.590   1.487   2.353
  386SOL    HW1 1169   0.632   1.429   2.283
  386SOL    HW2 1170   0.546   1.566   2.309
  387SOL     OW 1171   1.709   0.385   3.243
  387SOL    HW1 1172   1.782   0.454   3.247
  387SOL    HW2 1173   1.737   0.310   3.184
  388SOL     OW 1174   0.255   1.348   2.152
  388SOL    HW1 1175   0.159   1.349   2.125
  388SOL    HW2 1176   0.267   1.401   2.236
  389SOL     OW 1177   0.105   1.013   3.588
  389SOL    HW1 1178   0.028   0.980   3.642
  389SOL    HW2 1179   0.190   0.983   3.630
  390SOL     OW 1180   0.672   0.203   3.351
  390SOL    HW1 1181   0.762   0.187   3.311
  390SOL    HW2 1182   0.680   0.208   3.450
  391SOL     OW 1183   0.075   0.345   1.895
  391SOL    HW1 1184  -0.017   0.317   1.866
  391SOL    HW2 1185   0.106   0.422   1.839
  392SOL     OW 1186   1.440   0.856   3.260
  392SOL    HW1 1187   1.383   0.908   3.197
  392SOL    HW2 1188   1.536   0.868   3.236
  393SOL     OW 1189   0.072   0.166   2.180
  393SOL    HW1 1190   0.055   0.249   2.126
  393SOL    HW2 1191   0.162   0.129   2.158
  394SOL     OW 1192   1.183   1.335   1.981
  394SOL    HW1 1193   1.084   1.324   1.983
  394SOL    HW2 1194   1.217   1.350   2.074
  395SOL     OW 1195   0.613   0.842   3.293
  395SOL    HW1 1196   0.669   0.923   3.276
  395SOL    HW2 1197   0.672   0.762   3.296
  396SOL     OW 1198   1.493   1.767   2.821
  396SOL    HW1 1199   1.526   1.831   2.752
  396SOL    HW2 1200   1.559   1.761   2.896
  397SOL     OW 1201   0.716   0.565   3.570
  397SOL    HW1 1202   0.735   0.630   3.644
  397SOL    HW2 1203   0.776   0.485   3.579
  398SOL     OW 1204   1.450   1.220   3.495
  398SOL    HW1 1205   1.441   1.210   3.594
  398SOL    HW2 1206   1.546   1.213   3.469
  399SOL     OW 1207   0.390   1.741   3.422
  399SOL    HW1 1208   0.299   1.782   3.420
  399SOL    HW2 1209   0.383   1.647   3.454
  400SOL     OW 1210   1.674   0.883   3.116
  400SOL    HW1 1211   1.647   0.794   3.079
  400SOL    HW2 1212   1.675   0.951   3.043
  401SOL     OW 1213   1.225   0.325   2.311
  401SOL    HW1 1214   1.290   0.251   2.300
  401SOL    HW2 1215   1.245   0.375   2.395
  402SOL     OW 1216   0.594   0.745   2.514
  402SOL    HW1 1217   0.644   0.830   2.495
  402SOL    HW2 1218   0.506   0.747   2.466
  403SOL     OW 1219   1.777   0.342   3.504
  403SOL    HW1 1220   1.760   0.373   3.410
  403SOL    HW2 1221   1.693   0.305   3.542
  404SOL     OW 1222   1.730   0.934   3.379
  404SOL    HW1 1223   1.768   1.025   3.394
  404SOL    HW2 1224   1.722   0.917   3.280
  405SOL     OW 1225   0.859   1.374   1.878
  405SOL    HW1 1226   0.813   1.389   1.966
  405SOL    HW2 1227   0.903   1.459   1.848
  406SOL     OW 1228   0.661   1.790   2.815
  406SOL    HW1 1229   0.615   1.878   2.802
  406SOL    HW2 1230   0.760   1.802   2.808
  407SOL     OW 1231   0.859   0.956   2.723
  407SOL    HW1 1232   0.913   0.887   2.771
  407SOL    HW2 1233   0.827   1.025   2.789
  408SOL     OW 1234   1.083   0.984   1.949
  408SOL    HW1 1235   1.060   1.037   1.867
  408SOL    HW2 1236   1.164   0.928   1.930
  409SOL     OW 1237   1.861   1.569   2.713
  409SOL    HW1 1238   1.790   1.557   2.643
  409SOL    HW2 1239   1.862   1.490   2.773
  410SOL     OW 1240   0.221   1.314   3.706
  410SOL    HW1 1241   0.156   1.241   3.685
  410SOL    HW2 1242   0.225   1.328   3.804
  411SOL     OW 1243   0.079   1.240   2.515
  411SOL    HW1 1244   0.078   1.193   2.603
  411SOL    HW2 1245   0.161   1.212   2.464
  412SOL     OW 1246   0.672   1.391   3.486
  412SOL    HW1 1247   0.594   1.341   3.524
  412SOL    HW2 1248   0.669   1.486   3.517
  413SOL     OW 1249   1.824   0.192   3.089
  413SOL    HW1 1250   1.820   0.102   3.133
  413SOL    HW2 1251   1.827   0.181   2.990
  414SOL     OW 1252   0.428   0.424   2.382
  414SOL    HW1 1253   0.458   0.352   2.320
  414SOL    HW2 1254   0.389   0.384   2.465
  415SOL     OW 1255   1.705   1.487   2.966
  415SOL    HW1 1256   1.612   1.462   2.939
  415SOL    HW2 1257   1.731   1.437   3.048
  416SOL     OW 1258   0.317   0.547   3.142
  416SOL    HW1 1259   0.355   0.488   3.214
  416SOL    HW2 1260   0.357   0.521   3.054
  417SOL     OW 1261   0.812   1.586   2.549
  417SOL    HW1 1262   0.844   1.596   2.455
  417SOL    HW2 1263   0.733   1.524   2.551
  418SOL     OW 1264   1.424   0.214   2.974
  418SOL    HW1 1265   1.476   0.149   3.029
  418SOL    HW2 1266   1.375   0.277   3.035
  419SOL     OW 1267   1.001   0.034   3.016
  419SOL    HW1 1268   0.938  -0.038   2.985
  419SOL    HW2 1269   1.094  -0.002   3.016
  420SOL     OW 1270   0.770   1.330   2.163
  420SOL    HW1 1271   0.724   1.243   2.180
  420SOL    HW2 1272   0.861   1.327   2.204
  421SOL     OW 1273   0.618   1.567   3.146
  421SOL    HW1 1274   0.613   1.649   3.203
  421SOL    HW2 1275   0.707   1.564   3.101
  422SOL     OW 1276   1.352   0.052   2.030
  422SOL    HW1 1277   1.387   0.011   1.946
  422SOL    HW2 1278   1.262   0.014   2.050
  423SOL     OW 1279   1.300   0.453   2.553
  423SOL    HW1 1280   1.241   0.533   2.557
  423SOL    HW2 1281   1.315   0.418   2.646
  424SOL     OW 1282   1.593   0.221   2.744
  424SOL    HW1 1283   1.509   0.220   2.798
  424SOL    HW2 1284   1.595   0.304   2.688
  425SOL     OW 1285   0.039   1.077   2.162
  425SOL    HW1 1286   0.138   1.066   2.153
  425SOL    HW2 1287  -0.001   0.991   2.194
  426SOL     OW 1288   0.875   1.646   2.199
  426SOL    HW1 1289   0.798   1.611   2.145
  426SOL    HW2 1290   0.843   1.717   2.261
  427SOL     OW 1291   0.230   0.628   3.837
  427SOL    HW1 1292   0.137   0.626   3.874
  427SOL    HW2 1293   0.231   0.589   3.745
  428SOL     OW 1294   0.019   0.368   4.371
  428SOL    HW1 1295  -0.063   0.411   4.410
  428SOL    HW2 1296  -0.009   0.295   4.308
  429SOL     OW 1297   1.755   0.607   3.955
  429SOL    HW1 1298   1.743   0.594   3.856
  429SOL    HW2 1299   1.725   0.526   4.004
  430SOL     OW 1300   0.685   1.012   4.389
  430SOL    HW1 1301   0.754   0.996   4.459
  430SOL    HW2 1302   0.612   1.069   4.427
  431SOL     OW 1303   1.603   0.447   4.461
  431SOL    HW1 1304   1.529   0.493   4.411
  431SOL    HW2 1305   1.654   0.515   4.514
  432SOL     OW 1306   0.231   1.713   4.207
  432SOL    HW1 1307   0.265   1.790   4.261
  432SOL    HW2 1308   0.275   1.713   4.117
  433SOL     OW 1309   0.230   1.434   4.262
  433SOL    HW1 1310   0.204   1.530   4.262
  433SOL    HW2 1311   0.159   1.380   4.307
  434SOL     OW 1312   0.606   0.964   3.847
  434SOL    HW1 1313   0.613   1.048   3.793
  434SOL    HW2 1314   0.652   0.977   3.935
  435SOL     OW 1315   0.122   0.643   4.287
  435SOL    HW1 1316   0.077   0.555   4.304
  435SOL    HW2 1317   0.121   0.697   4.371
  436SOL     OW 1318   1.842   1.767   4.083
  436SOL    HW1 1319   1.896   1.738   4.163
  436SOL    HW2 1320   1.872   1.857   4.054
  437SOL     OW 1321   0.027   1.596   3.841
  437SOL    HW1 1322   0.008   1.500   3.862
  437SOL    HW2 1323  -0.006   1.654   3.916
  438SOL     OW 1324   1.689   0.922   4.336
  438SOL    HW1 1325   1.784   0.893   4.344
  438SOL    HW2 1326   1.681   0.987   4.261
  439SOL     OW 1327   1.641   1.108   4.156
  439SOL    HW1 1328   1.727   1.110   4.104
  439SOL    HW2 1329   1.655   1.155   4.244
  440SOL     OW 1330   0.613   1.365   4.450
  440SOL    HW1 1331   0.564   1.278   4.459
  440SOL    HW2 1332   0.590   1.408   4.363
  441SOL     OW 1333   0.809   0.004   4.226
  441SOL    HW1 1334   0.849   0.095   4.217
  441SOL    HW2 1335   0.709   0.012   4.232
  442SOL     OW 1336   1.525   0.999   3.914
  442SOL    HW1 1337   1.462   0.923   3.927
  442SOL    HW2 1338   1.573   1.017   4.000
  443SOL     OW 1339   1.667   1.714   4.296
  443SOL    HW1 1340   1.626   1.691   4.208
  443SOL    HW2 1341   1.649   1.640   4.361
  444SOL     OW 1342   0.598   0.729   3.994
  444SOL    HW1 1343   0.622   0.798   3.926
  444SOL    HW2 1344   0.520   0.762   4.048
  445SOL     OW 1345   1.281   0.345   4.668
  445SOL    HW1 1346   1.195   0.295   4.655
  445SOL    HW2 1347   1.343   0.291   4.724
  446SOL     OW 1348   1.576   1.662   4.031
  446SOL    HW1 1349   1.665   1.708   4.034
  446SOL    HW2 1350   1.555   1.638   3.936
  447SOL     OW 1351   1.041   0.701   4.153
  447SOL    HW1 1352   1.067   0.697   4.249
  447SOL    HW2 1353   0.956   0.650   4.139
  448SOL     OW 1354   0.076   0.811   4.513
  448SOL    HW1 1355   0.175   0.799   4.522
  448SOL    HW2 1356   0.052   0.906   4.534
  449SOL     OW 1357   0.865   0.348   3.919
  449SOL    HW1 1358   0.924   0.411   3.870
  449SOL    HW2 1359   0.884   0.254   3.890
  450SOL     OW 1360   1.362   1.144   4.269
  450SOL    HW1 1361   1.445   1.115   4.221
  450SOL    HW2 1362   1.313   1.211   4.213
  451SOL     OW 1363   1.008   1.456   4.201
  451SOL    HW1 1364   0.962   1.528   4.149
  451SOL    HW2 1365   1.004   1.476   4.299
  452SOL     OW 1366   0.351   1.801   4.577
  452SOL    HW1 1367   0.401   1.715   4.583
  452SOL    HW2 1368   0.416   1.878   4.574
  453SOL     OW 1369   1.795   1.066   4.597
  453SOL    HW1 1370   1.733   1.051   4.521
  453SOL    HW2 1371   1.743   1.077   4.682
  454SOL     OW 1372   0.321   0.943   3.966
  454SOL    HW1 1373   0.403   0.982   3.924
  454SOL    HW2 1374   0.294   0.861   3.917
  455SOL     OW 1375   1.111   1.776   3.961
  455SOL    HW1 1376   1.051   1.714   4.011
  455SOL    HW2 1377   1.142   1.732   3.876
  456SOL     OW 1378   1.632   1.377   3.805
  456SOL    HW1 1379   1.600   1.471   3.795
  456SOL    HW2 1380   1.556   1.314   3.793
  457SOL     OW 1381   0.464   1.743   4.047
  457SOL    HW1 1382   0.497   1.782   4.133
  457SOL    HW2 1383   0.540   1.736   3.982
  458SOL     OW 1384   1.400   0.107   4.150
  458SOL    HW1 1385   1.376   0.070   4.060
  458SOL    HW2 1386   1.499   0.123   4.154
  459SOL     OW 1387   0.940   1.698   4.628
  459SOL    HW1 1388   1.020   1.641   4.649
  459SOL    HW2 1389   0.891   1.658   4.551
  460SOL     OW 1390   0.382   0.700   4.204
  460SOL    HW1 1391   0.427   0.610   4.201
  460SOL    HW2 1392   0.288   0.689   4.237
  461SOL     OW 1393   0.614   0.122   3.841
  461SOL    HW1 1394   0.712   0.100   3.848
  461SOL    HW2 1395   0.583   0.105   3.748
  462SOL     OW 1396   0.539   0.064   4.236
  462SOL    HW1 1397   0.458   0.065   4.294
  462SOL    HW2 1398   0.542   0.147   4.181
  463SOL     OW 1399   1.434   1.188   3.765
  463SOL    HW1 1400   1.466   1.112   3.822
  463SOL    HW2 1401   1.342   1.215   3.795
  464SOL     OW 1402   0.297   0.035   3.895
  464SOL    HW1 1403   0.346   0.119   3.874
  464SOL    HW2 1404   0.359  -0.030   3.940
  465SOL     OW 1405   0.935   0.236   4.204
  465SOL    HW1 1406   0.887   0.277   4.126
  465SOL    HW2 1407   1.034   0.234   4.185
  466SOL     OW 1408   0.459   1.152   4.465
  466SOL    HW1 1409   0.388   1.125   4.530
  466SOL    HW2 1410   0.433   1.124   4.372
  467SOL     OW 1411   1.271   1.797   4.315
  467SOL    HW1 1412   1.315   1.861   4.251
  467SOL    HW2 1413   1.221   1.849   4.385
  468SOL     OW 1414   1.032   0.549   3.740
  468SOL    HW1 1415   0.991   0.631   3.701
  468SOL    HW2 1416   1.096   0.575   3.813
  469SOL     OW 1417   0.866   0.454   4.366
  469SOL    HW1 1418   0.834   0.526   4.304
  469SOL    HW2 1419   0.890   0.373   4.313
  470SOL     OW 1420   1.857   0.833   4.101
  470SOL    HW1 1421   1.899   0.769   4.165
  470SOL    HW2 1422   1.819   0.782   4.023
  471SOL     OW 1423   0.488   1.385   3.898
  471SOL    HW1 1424   0.401   1.370   3.945
  471SOL    HW2 1425   0.471   1.411   3.803
  472SOL     OW 1426   1.664   1.280   4.381
  472SOL    HW1 1427   1.763   1.288   4.395
  472SOL    HW2 1428   1.619   1.364   4.412
  473SOL     OW 1429   1.390   0.575   3.802
  473SOL    HW1 1430   1.336   0.554   3.883
  473SOL    HW2 1431   1.481   0.534   3.811
  474SOL     OW 1432   0.527   0.256   4.052
  474SOL    HW1 1433   0.554   0.197   3.977
  474SOL    HW2 1434   0.527   0.351   4.021
  475SOL     OW 1435   1.111   1.195   4.824
  475SOL    HW1 1436   1.071   1.239   4.905
  475SOL    HW2 1437   1.070   1.232   4.741
  476SOL     OW 1438   0.705   1.050   4.092
  476SOL    HW1 1439   0.691   1.057   4.191
  476SOL    HW2 1440   0.789   0.999   4.074
  477SOL     OW 1441   0.367   1.100   4.225
  477SOL    HW1 1442   0.360   1.183   4.169
  477SOL    HW2 1443   0.371   1.020   4.165
  478SOL     OW 1444   1.252   1.348   4.112
  478SOL    HW1 1445   1.302   1.425   4.152
  478SOL    HW2 1446   1.157   1.350   4.144
  479SOL     OW 1447   1.582   0.639   4.196
  479SOL    HW1 1448   1.551   0.700   4.269
  479SOL    HW2 1449   1.632   0.691   4.127
  480SOL     OW 1450   1.209   0.525   3.999
  480SOL    HW1 1451   1.222   0.441   4.053
  480SOL    HW2 1452   1.180   0.599   4.059
  481SOL     OW 1453   0.307   0.063   4.342
  481SOL    HW1 1454   0.296   0.157   4.375
  481SOL    HW2 1455   0.302   0.000   4.419
  482SOL     OW 1456   1.622   0.367   4.098
  482SOL    HW1 1457   1.624   0.291   4.162
  482SOL    HW2 1458   1.574   0.444   4.138
  483SOL     OW 1459   1.540   0.274   3.849
  483SOL    HW1 1460   1.479   0.199   3.872
  483SOL    HW2 1461   1.562   0.326   3.932
  484SOL     OW 1462   1.303   0.838   3.766
  484SOL    HW1 1463   1.337   0.745   3.781
  484SOL    HW2 1464   1.321   0.865   3.671
  485SOL     OW 1465   0.008   1.326   3.924
  485SOL    HW1 1466  -0.085   1.347   3.893
  485SOL    HW2 1467   0.018   1.227   3.937
  486SOL     OW 1468   0.815   0.572   4.049
  486SOL    HW1 1469   0.822   0.483   4.003
  486SOL    HW2 1470   0.721   0.606   4.041
  487SOL     OW 1471   0.473   0.500   3.915
  487SOL    HW1 1472   0.534   0.580   3.919
  487SOL    HW2 1473   0.378   0.531   3.922
  488SOL     OW 1474   1.302   0.855   4.033
  488SOL    HW1 1475   1.216   0.824   4.075
  488SOL    HW2 1476   1.298   0.841   3.934
  489SOL     OW 1477   1.726   0.135   4.247
  489SOL    HW1 1478   1.799   0.118   4.180
  489SOL    HW2 1479   1.695   0.048   4.285
  490SOL     OW 1480   1.388   1.573   4.201
  490SOL    HW1 1481   1.455   1.585   4.127
  490SOL    HW2 1482   1.348   1.662   4.224
  491SOL     OW 1483   0.672   1.616   3.878
  491SOL    HW1 1484   0.681   1.626   3.779
  491SOL    HW2 1485   0.632   1.527   3.899
  492SOL     OW 1486   1.194   1.612   3.755
  492SOL    HW1 1487   1.200   1.519   3.792
  492SOL    HW2 1488   1.135   1.612   3.675
  493SOL     OW 1489   0.916   0.910   4.015
  493SOL    HW1 1490   0.979   0.948   3.947
  493SOL    HW2 1491   0.956   0.827   4.054
  494SOL     OW 1492   1.504   1.607   3.768
  494SOL    HW1 1493   1.412   1.644   3.775
  494SOL    HW2 1494   1.542   1.627   3.678
  495SOL     OW 1495   0.590   1.487   4.215
  495SOL    HW1 1496   0.632   1.429   4.145
  495SOL    HW2 1497   0.546   1.566   4.171
  496SOL     OW 1498   0.255   1.348   4.014
  496SOL    HW1 1499   0.159   1.349   3.987
  496SOL    HW2 1500   0.267   1.401   4.098
  497SOL     OW 1501   0.075   0.345   3.757
  497SOL    HW1 1502  -0.017   0.317   3.728
  497SOL    HW2 1503   0.106   0.422   3.701
  498SOL     OW 1504   0.072   0.166   4.042
  498SOL    HW1 1505   0.055   0.249   3.988
  498SOL    HW2 1506   0.162   0.129   4.020
  499SOL     OW 1507   1.183   1.335   3.843
  499SOL    HW1 1508   1.084   1.324   3.845
  499SOL    HW2 1509   1.217   1.350   3.936
  500SOL     OW 1510   1.225   0.325   4.173
  500SOL    HW1 1511   1.290   0.251   4.162
  500SOL    HW2 1512   1.245   0.375   4.257
  501SOL     OW 1513   0.594   0.745   4.376
  501SOL    HW1 1514   0.644   0.830   4.357
  501SOL    HW2 1515   0.506   0.747   4.328
  502SOL     OW 1516   0.859   1.374   3.740
  502SOL    HW1 1517   0.813   1.389   3.828
  502SOL    HW2 1518   0.903   1.459   3.710
  503SOL     OW 1519   0.661   1.790   4.677
  503SOL    HW1 1520   0.615   1.878   4.664
  503SOL    HW2 1521   0.760   1.802   4.670
  504SOL     OW 1522   0.859   0.956   4.585
  504SOL    HW1 1523   0.913   0.887   4.633
  504SOL    HW2 1524   0.827   1.025   4.651
  505SOL     OW 1525   1.083   0.984   3.811
  505SOL    HW1 1526   1.060   1.037   3.729
  505SOL    HW2 1527   1.164   0.928   3.792
  506SOL     OW 1528   0.079   1.240   4.377
  506SOL    HW1 1529   0.078   1.193   4.465
  506SOL    HW2 1530   0.161   1.212   4.326
  507SOL     OW 1531   0.428   0.424   4.244
  507SOL    HW1 1532   0.458   0.352   4.182
  507SOL    HW2 1533   0.389   0.384   4.327
  508SOL     OW 1534   0.812   1.586   4.411
  508SOL    HW1 1535   0.844   1.596   4.317
  508SOL    HW2 1536   0.733   1.524   4.413
  509SOL     OW 1537   0.770   1.330   4.025
  509SOL    HW1 1538   0.724   1.243   4.042
  509SOL    HW2 1539   0.861   1.327   4.066
  510SOL     OW 1540   1.352   0.052   3.892
  510SOL    HW1 1541   1.387   0.011   3.808
  510SOL    HW2 1542   1.262   0.014   3.912
  511SOL     OW 1543   1.300   0.453   4.415
  511SOL    HW1 1544   1.241   0.533   4.419
  511SOL    HW2 1545   1.315   0.418   4.508
  512SOL     OW 1546   0.039   1.077   4.024
  512SOL    HW1 1547   0.138   1.066   4.015
  512SOL    HW2 1548  -0.001   0.991   4.056
  513SOL     OW 1549   0.875   1.646   4.061
  513SOL    HW1 1550   0.798   1.611   4.007
  513SOL    HW2 1551   0.843   1.717   4.123
  514SOL     OW 1552   0.230   2.490   0.113
  514SOL    HW1 1553   0.137   2.488   0.150
  514SOL    HW2 1554   0.231   2.451   0.021
  515SOL     OW 1555   0.225   2.137   0.996
  515SOL    HW1 1556   0.260   2.120   1.088
  515SOL    HW2 1557   0.137   2.092   0.984
  516SOL     OW 1558   0.019   2.230   0.647
  516SOL    HW1 1559  -0.063   2.273   0.686
  516SOL    HW2 1560  -0.009   2.157   0.584
  517SOL     OW 1561   0.569   3.137   1.165
  517SOL    HW1 1562   0.476   3.130   1.128
  517SOL    HW2 1563   0.580   3.226   1.209
  518SOL     OW 1564   1.555   3.373   0.703
  518SOL    HW1 1565   1.498   3.357   0.784
  518SOL    HW2 1566   1.496   3.383   0.623
  519SOL     OW 1567   1.135   2.565   0.717
  519SOL    HW1 1568   1.192   2.643   0.692
  519SOL    HW2 1569   1.075   2.591   0.793
  520SOL     OW 1570   1.755   2.469   0.231
  520SOL    HW1 1571   1.743   2.456   0.132
  520SOL    HW2 1572   1.725   2.388   0.280
  521SOL     OW 1573   0.768   3.006   1.023
  521SOL    HW1 1574   0.690   3.023   1.083
  521SOL    HW2 1575   0.802   3.093   0.987
  522SOL     OW 1576   0.850   2.660   1.823
  522SOL    HW1 1577   0.846   2.736   1.888
  522SOL    HW2 1578   0.872   2.696   1.732
  523SOL     OW 1579   0.685   2.874   0.665
  523SOL    HW1 1580   0.754   2.858   0.735
  523SOL    HW2 1581   0.612   2.931   0.703
  524SOL     OW 1582   0.686   3.023   1.803
  524SOL    HW1 1583   0.746   3.102   1.817
  524SOL    HW2 1584   0.600   3.054   1.762
  525SOL     OW 1585   0.335   3.297   1.061
  525SOL    HW1 1586   0.257   3.266   1.008
  525SOL    HW2 1587   0.393   3.355   1.004
  526SOL     OW 1588   1.460   3.367   1.339
  526SOL    HW1 1589   1.484   3.461   1.365
  526SOL    HW2 1590   1.444   3.313   1.421
  527SOL     OW 1591   0.438   2.254   1.499
  527SOL    HW1 1592   0.520   2.198   1.508
  527SOL    HW2 1593   0.357   2.196   1.503
  528SOL     OW 1594   1.603   2.309   0.737
  528SOL    HW1 1595   1.529   2.355   0.687
  528SOL    HW2 1596   1.654   2.377   0.790
  529SOL     OW 1597   0.231   3.575   0.483
  529SOL    HW1 1598   0.265   3.652   0.537
  529SOL    HW2 1599   0.275   3.575   0.393
  530SOL     OW 1600   1.127   3.203   1.690
  530SOL    HW1 1601   1.174   3.203   1.778
  530SOL    HW2 1602   1.079   3.116   1.679
  531SOL     OW 1603   0.230   3.296   0.538
  531SOL    HW1 1604   0.204   3.392   0.538
  531SOL    HW2 1605   0.159   3.242   0.583
  532SOL     OW 1606   0.240   2.953   0.886
  532SOL    HW1 1607   0.254   2.869   0.938
  532SOL    HW2 1608   0.185   3.017   0.941
  533SOL     OW 1609   0.620   3.648   1.439
  533SOL    HW1 1610   0.528   3.631   1.474
  533SOL    HW2 1611   0.648   3.740   1.465
  534SOL     OW 1612   0.606   2.826   0.123
  534SOL    HW1 1613   0.613   2.910   0.069
  534SOL    HW2 1614   0.652   2.839   0.211
  535SOL     OW 1615   1.594   1.976   1.480
  535SOL    HW1 1616   1.576   2.043   1.408
  535SOL    HW2 1617   1.591   2.022   1.569
  536SOL     OW 1618   0.122   2.505   0.563
  536SOL    HW1 1619   0.077   2.417   0.580
  536SOL    HW2 1620   0.121   2.559   0.647
  537SOL     OW 1621   1.842   3.629   0.359
  537SOL    HW1 1622   1.896   3.600   0.439
  537SOL    HW2 1623   1.872   3.719   0.330
  538SOL     OW 1624   0.027   3.458   0.117
  538SOL    HW1 1625   0.008   3.362   0.138
  538SOL    HW2 1626  -0.006   3.516   0.192
  539SOL     OW 1627   1.689   2.784   0.612
  539SOL    HW1 1628   1.784   2.755   0.620
  539SOL    HW2 1629   1.681   2.849   0.537
  540SOL     OW 1630   1.641   2.970   0.432
  540SOL    HW1 1631   1.727   2.972   0.380
  540SOL    HW2 1632   1.655   3.017   0.520
  541SOL     OW 1633   0.113   2.599   1.597
  541SOL    HW1 1634   0.201   2.586   1.642
  541SOL    HW2 1635   0.100   2.696   1.575
  542SOL     OW 1636   0.613   3.227   0.726
  542SOL    HW1 1637   0.564   3.140   0.735
  542SOL    HW2 1638   0.590   3.270   0.639
  543SOL     OW 1639   1.293   3.090   1.423
  543SOL    HW1 1640   1.330   3.017   1.365
  543SOL    HW2 1641   1.345   3.095   1.508
  544SOL     OW 1642   0.809   1.866   0.502
  544SOL    HW1 1643   0.849   1.957   0.493
  544SOL    HW2 1644   0.709   1.874   0.508
  545SOL     OW 1645   0.197   2.838   1.264
  545SOL    HW1 1646   0.286   2.793   1.250
  545SOL    HW2 1647   0.124   2.773   1.245
  546SOL     OW 1648   1.525   2.861   0.190
  546SOL    HW1 1649   1.462   2.785   0.203
  546SOL    HW2 1650   1.573   2.879   0.276
  547SOL     OW 1651   1.187   3.654   1.616
  547SOL    HW1 1652   1.211   3.714   1.540
  547SOL    HW2 1653   1.194   3.559   1.586
  548SOL     OW 1654   0.317   2.113   1.801
  548SOL    HW1 1655   0.388   2.184   1.807
  548SOL    HW2 1656   0.229   2.152   1.829
  549SOL     OW 1657   1.466   3.279   0.953
  549SOL    HW1 1658   1.407   3.285   1.033
  549SOL    HW2 1659   1.451   3.191   0.907
  550SOL     OW 1660   1.667   3.576   0.572
  550SOL    HW1 1661   1.626   3.553   0.484
  550SOL    HW2 1662   1.649   3.502   0.637
  551SOL     OW 1663   0.598   2.591   0.270
  551SOL    HW1 1664   0.622   2.660   0.202
  551SOL    HW2 1665   0.520   2.624   0.324
  552SOL     OW 1666   1.281   2.207   0.944
  552SOL    HW1 1667   1.195   2.157   0.931
  552SOL    HW2 1668   1.343   2.153   1.000
  553SOL     OW 1669   1.576   3.524   0.307
  553SOL    HW1 1670   1.665   3.570   0.310
  553SOL    HW2 1671   1.555   3.500   0.212
  554SOL     OW 1672   0.807   2.467   1.465
  554SOL    HW1 1673   0.760   2.464   1.554
  554SOL    HW2 1674   0.756   2.412   1.399
  555SOL     OW 1675   1.394   2.331   1.674
  555SOL    HW1 1676   1.374   2.374   1.762
  555SOL    HW2 1677   1.472   2.269   1.683
  556SOL     OW 1678   0.973   2.752   1.572
  556SOL    HW1 1679   1.019   2.668   1.543
  556SOL    HW2 1680   0.917   2.786   1.497
  557SOL     OW 1681   0.991   2.272   1.242
  557SOL    HW1 1682   0.914   2.306   1.296
  557SOL    HW2 1683   0.957   2.221   1.163
  558SOL     OW 1684   1.041   2.563   0.429
  558SOL    HW1 1685   1.067   2.559   0.525
  558SOL    HW2 1686   0.956   2.512   0.415
  559SOL     OW 1687   0.076   2.673   0.789
  559SOL    HW1 1688   0.175   2.661   0.798
  559SOL    HW2 1689   0.052   2.768   0.810
  560SOL     OW 1690   0.130   3.683   1.571
  560SOL    HW1 1691   0.120   3.668   1.670
  560SOL    HW2 1692   0.044   3.719   1.535
  561SOL     OW 1693   0.865   2.210   0.195
  561SOL    HW1 1694   0.924   2.273   0.146
  561SOL    HW2 1695   0.884   2.116   0.166
  562SOL     OW 1696   1.719   2.447   1.831
  562SOL    HW1 1697   1.693   2.536   1.795
  562SOL    HW2 1698   1.717   2.379   1.758
  563SOL     OW 1699   1.362   3.006   0.545
  563SOL    HW1 1700   1.445   2.977   0.497
  563SOL    HW2 1701   1.313   3.073   0.489
  564SOL     OW 1702   0.550   2.058   0.885
  564SOL    HW1 1703   0.545   2.053   0.985
  564SOL    HW2 1704   0.552   2.154   0.856
  565SOL     OW 1705   1.008   3.318   0.477
  565SOL    HW1 1706   0.962   3.390   0.425
  565SOL    HW2 1707   1.004   3.338   0.575
  566SOL     OW 1708   0.351   3.663   0.853
  566SOL    HW1 1709   0.401   3.577   0.859
  566SOL    HW2 1710   0.416   3.740   0.850
  567SOL     OW 1711   1.795   2.928   0.873
  567SOL    HW1 1712   1.733   2.913   0.797
  567SOL    HW2 1713   1.743   2.939   0.958
  568SOL     OW 1714   1.227   3.412   1.506
  568SOL    HW1 1715   1.233   3.335   1.570
  568SOL    HW2 1716   1.175   3.386   1.426
  569SOL     OW 1717   0.321   2.805   0.242
  569SOL    HW1 1718   0.403   2.844   0.200
  569SOL    HW2 1719   0.294   2.723   0.193
  570SOL     OW 1720   1.458   2.597   0.728
  570SOL    HW1 1721   1.453   2.532   0.803
  570SOL    HW2 1722   1.538   2.656   0.741
  571SOL     OW 1723   0.461   3.128   1.727
  571SOL    HW1 1724   0.411   3.129   1.641
  571SOL    HW2 1725   0.398   3.110   1.803
  572SOL     OW 1726   1.111   3.638   0.237
  572SOL    HW1 1727   1.051   3.576   0.287
  572SOL    HW2 1728   1.142   3.594   0.152
  573SOL     OW 1729   0.202   2.147   1.498
  573SOL    HW1 1730   0.122   2.207   1.485
  573SOL    HW2 1731   0.192   2.098   1.584
  574SOL     OW 1732   1.632   3.239   0.081
  574SOL    HW1 1733   1.600   3.333   0.071
  574SOL    HW2 1734   1.556   3.176   0.069
  575SOL     OW 1735   0.464   3.605   0.323
  575SOL    HW1 1736   0.497   3.644   0.409
  575SOL    HW2 1737   0.540   3.598   0.258
  576SOL     OW 1738   1.400   1.969   0.426
  576SOL    HW1 1739   1.376   1.932   0.336
  576SOL    HW2 1740   1.499   1.985   0.430
  577SOL     OW 1741   0.249   3.647   1.241
  577SOL    HW1 1742   0.306   3.582   1.291
  577SOL    HW2 1743   0.233   3.614   1.148
  578SOL     OW 1744   0.940   3.560   0.904
  578SOL    HW1 1745   1.020   3.503   0.925
  578SOL    HW2 1746   0.891   3.520   0.827
  579SOL     OW 1747   0.382   2.562   0.480
  579SOL    HW1 1748   0.427   2.472   0.477
  579SOL    HW2 1749   0.288   2.551   0.513
  580SOL     OW 1750   1.547   2.084   1.729
  580SOL    HW1 1751   1.542   2.121   1.821
  580SOL    HW2 1752   1.475   2.015   1.717
  581SOL     OW 1753   0.781   2.126   1.749
  581SOL    HW1 1754   0.848   2.065   1.792
  581SOL    HW2 1755   0.708   2.145   1.814
  582SOL     OW 1756   0.888   3.376   1.195
  582SOL    HW1 1757   0.865   3.351   1.101
  582SOL    HW2 1758   0.949   3.307   1.234
  583SOL     OW 1759   1.351   2.452   1.433
  583SOL    HW1 1760   1.379   2.409   1.518
  583SOL    HW2 1761   1.376   2.548   1.434
  584SOL     OW 1762   0.803   3.264   0.924
  584SOL    HW1 1763   0.893   3.278   0.882
  584SOL    HW2 1764   0.732   3.266   0.853
  585SOL     OW 1765   0.922   2.365   0.899
  585SOL    HW1 1766   0.897   2.356   0.803
  585SOL    HW2 1767   0.970   2.283   0.930
  586SOL     OW 1768   0.539   1.926   0.512
  586SOL    HW1 1769   0.458   1.927   0.570
  586SOL    HW2 1770   0.542   2.009   0.457
  587SOL     OW 1771   1.434   3.050   0.041
  587SOL    HW1 1772   1.466   2.974   0.098
  587SOL    HW2 1773   1.342   3.077   0.071
  588SOL     OW 1774   0.935   2.098   0.480
  588SOL    HW1 1775   0.887   2.139   0.402
  588SOL    HW2 1776   1.034   2.096   0.461
  589SOL     OW 1777   1.076   2.545   1.464
  589SOL    HW1 1778   0.996   2.484   1.467
  589SOL    HW2 1779   1.157   2.492   1.440
  590SOL     OW 1780   1.227   3.432   0.793
  590SOL    HW1 1781   1.248   3.506   0.728
  590SOL    HW2 1782   1.295   3.432   0.866
  591SOL     OW 1783   0.459   3.014   0.741
  591SOL    HW1 1784   0.388   2.987   0.806
  591SOL    HW2 1785   0.433   2.986   0.648
  592SOL     OW 1786   1.271   3.659   0.591
  592SOL    HW1 1787   1.315   3.723   0.527
  592SOL    HW2 1788   1.221   3.711   0.661
  593SOL     OW 1789   1.032   2.411   0.016
  593SOL    HW1 1790   0.991   2.493  -0.023
  593SOL    HW2 1791   1.096   2.437   0.089
  594SOL     OW 1792   0.078   2.418   1.386
  594SOL    HW1 1793   0.170   2.417   1.345
  594SOL    HW2 1794   0.072   2.492   1.453
  595SOL     OW 1795   0.561   2.084   1.147
  595SOL    HW1 1796   0.599   2.000   1.184
  595SOL    HW2 1797   0.473   2.103   1.191
  596SOL     OW 1798   0.866   2.316   0.642
  596SOL    HW1 1799   0.834   2.388   0.580
  596SOL    HW2 1800   0.890   2.235   0.589
  597SOL     OW 1801   1.017   1.901   0.753
  597SOL    HW1 1802   0.945   1.906   0.684
  597SOL    HW2 1803   0.993   1.832   0.822
  598SOL     OW 1804   1.429   3.035   0.867
  598SOL    HW1 1805   1.374   2.951   0.860
  598SOL    HW2 1806   1.455   3.064   0.775
  599SOL     OW 1807   1.466   2.452   0.992
  599SOL    HW1 1808   1.436   2.357   0.999
  599SOL    HW2 1809   1.539   2.468   1.058
  600SOL     OW 1810   1.857   2.695   0.377
  600SOL    HW1 1811   1.899   2.631   0.441
  600SOL    HW2 1812   1.819   2.644   0.299
  601SOL     OW 1813   0.488   3.247   0.174
  601SOL    HW1 1814   0.401   3.232   0.221
  601SOL    HW2 1815   0.471   3.273   0.079
  602SOL     OW 1816   1.664   3.142   0.657
  602SOL    HW1 1817   1.763   3.150   0.671
  602SOL    HW2 1818   1.619   3.226   0.688
  603SOL     OW 1819   1.390   2.437   0.078
  603SOL    HW1 1820   1.336   2.416   0.159
  603SOL    HW2 1821   1.481   2.396   0.087
  604SOL     OW 1822   0.527   2.118   0.328
  604SOL    HW1 1823   0.554   2.059   0.253
  604SOL    HW2 1824   0.527   2.213   0.297
  605SOL     OW 1825   1.754   3.085   1.588
  605SOL    HW1 1826   1.845   3.046   1.575
  605SOL    HW2 1827   1.762   3.181   1.612
  606SOL     OW 1828   1.064   3.209   1.340
  606SOL    HW1 1829   0.984   3.186   1.395
  606SOL    HW2 1830   1.147   3.183   1.389
  607SOL     OW 1831   1.592   3.491   1.625
  607SOL    HW1 1832   1.619   3.525   1.535
  607SOL    HW2 1833   1.671   3.453   1.671
  608SOL     OW 1834   1.111   3.057   1.100
  608SOL    HW1 1835   1.071   3.101   1.181
  608SOL    HW2 1836   1.070   3.094   1.017
  609SOL     OW 1837   1.638   2.961   1.079
  609SOL    HW1 1838   1.643   3.042   1.138
  609SOL    HW2 1839   1.552   2.963   1.028
  610SOL     OW 1840   0.915   1.951   1.402
  610SOL    HW1 1841   0.940   1.931   1.307
  610SOL    HW2 1842   0.987   2.007   1.444
  611SOL     OW 1843   0.980   2.978   1.719
  611SOL    HW1 1844   0.881   2.984   1.729
  611SOL    HW2 1845   1.003   2.898   1.663
  612SOL     OW 1846   0.705   2.912   0.368
  612SOL    HW1 1847   0.691   2.919   0.467
  612SOL    HW2 1848   0.789   2.861   0.350
  613SOL     OW 1849   0.410   2.675   1.251
  613SOL    HW1 1850   0.496   2.687   1.301
  613SOL    HW2 1851   0.368   2.588   1.278
  614SOL     OW 1852   1.274   2.248   1.262
  614SOL    HW1 1853   1.295   2.322   1.326
  614SOL    HW2 1854   1.185   2.265   1.219
  615SOL     OW 1855   0.064   3.426   1.331
  615SOL    HW1 1856   0.018   3.508   1.297
  615SOL    HW2 1857   0.162   3.445   1.340
  616SOL     OW 1858   0.367   2.962   0.501
  616SOL    HW1 1859   0.360   3.045   0.445
  616SOL    HW2 1860   0.371   2.882   0.441
  617SOL     OW 1861   0.566   2.399   0.865
  617SOL    HW1 1862   0.578   2.465   0.791
  617SOL    HW2 1863   0.612   2.433   0.948
  618SOL     OW 1864   1.252   3.210   0.388
  618SOL    HW1 1865   1.302   3.287   0.428
  618SOL    HW2 1866   1.157   3.212   0.420
  619SOL     OW 1867   1.272   3.307   1.142
  619SOL    HW1 1868   1.319   3.320   1.229
  619SOL    HW2 1869   1.206   3.233   1.151
  620SOL     OW 1870   1.582   2.501   0.472
  620SOL    HW1 1871   1.551   2.562   0.545
  620SOL    HW2 1872   1.632   2.553   0.403
  621SOL     OW 1873   0.354   3.372   1.329
  621SOL    HW1 1874   0.333   3.328   1.242
  621SOL    HW2 1875   0.451   3.398   1.332
  622SOL     OW 1876   0.402   2.613   1.598
  622SOL    HW1 1877   0.470   2.668   1.551
  622SOL    HW2 1878   0.442   2.525   1.625
  623SOL     OW 1879   1.587   2.641   1.670
  623SOL    HW1 1880   1.495   2.679   1.665
  623SOL    HW2 1881   1.647   2.688   1.605
  624SOL     OW 1882   1.013   1.967   1.770
  624SOL    HW1 1883   1.019   2.052   1.718
  624SOL    HW2 1884   1.045   1.891   1.713
  625SOL     OW 1885   0.504   1.912   1.740
  625SOL    HW1 1886   0.462   1.855   1.670
  625SOL    HW2 1887   0.438   1.981   1.772
  626SOL     OW 1888   0.573   2.732   1.029
  626SOL    HW1 1889   0.617   2.821   1.020
  626SOL    HW2 1890   0.510   2.732   1.106
  627SOL     OW 1891   1.360   2.724   1.045
  627SOL    HW1 1892   1.285   2.724   0.979
  627SOL    HW2 1893   1.397   2.632   1.054
  628SOL     OW 1894   1.209   2.387   0.275
  628SOL    HW1 1895   1.222   2.303   0.329
  628SOL    HW2 1896   1.180   2.461   0.335
  629SOL     OW 1897   0.307   2.075   1.231
  629SOL    HW1 1898   0.284   2.112   1.321
  629SOL    HW2 1899   0.277   1.980   1.225
  630SOL     OW 1900   0.037   3.172   1.282
  630SOL    HW1 1901   0.090   3.123   1.350
  630SOL    HW2 1902   0.059   3.270   1.287
  631SOL     OW 1903   0.732   2.496   1.064
  631SOL    HW1 1904   0.791   2.470   0.988
  631SOL    HW2 1905   0.704   2.592   1.053
  632SOL     OW 1906   1.728   2.797   1.854
  632SOL    HW1 1907   1.682   2.790   1.765
  632SOL    HW2 1908   1.666   2.841   1.920
  633SOL     OW 1909   0.307   1.925   0.618
  633SOL    HW1 1910   0.296   2.019   0.651
  633SOL    HW2 1911   0.302   1.862   0.695
  634SOL     OW 1912   1.622   2.229   0.374
  634SOL    HW1 1913   1.624   2.153   0.438
  634SOL    HW2 1914   1.574   2.306   0.414
  635SOL     OW 1915   1.023   2.628   0.966
  635SOL    HW1 1916   1.038   2.649   1.062
  635SOL    HW2 1917   0.993   2.533   0.957
  636SOL     OW 1918   0.980   3.435   1.700
  636SOL    HW1 1919   0.960   3.479   1.612
  636SOL    HW2 1920   1.019   3.344   1.684
  637SOL     OW 1921   1.859   3.380   1.605
  637SOL    HW1 1922   1.873   3.407   1.510
  637SOL    HW2 1923   1.942   3.402   1.658
  638SOL     OW 1924   0.350   2.760   1.804
  638SOL    HW1 1925   0.426   2.804   1.852
  638SOL    HW2 1926   0.385   2.713   1.722
  639SOL     OW 1927   1.540   2.136   0.125
  639SOL    HW1 1928   1.479   2.061   0.148
  639SOL    HW2 1929   1.562   2.188   0.208
  640SOL     OW 1930   1.303   2.700   0.042
  640SOL    HW1 1931   1.337   2.607   0.057
  640SOL    HW2 1932   1.321   2.727  -0.053
  641SOL     OW 1933   1.068   3.195   0.849
  641SOL    HW1 1934   1.075   3.111   0.794
  641SOL    HW2 1935   1.130   3.264   0.813
  642SOL     OW 1936   0.319   2.672   0.949
  642SOL    HW1 1937   0.412   2.708   0.954
  642SOL    HW2 1938   0.313   2.587   1.001
  643SOL     OW 1939   0.339   2.371   1.006
  643SOL    HW1 1940   0.287   2.288   0.989
  643SOL    HW2 1941   0.416   2.376   0.942
  644SOL     OW 1942   1.138   2.242   1.678
  644SOL    HW1 1943   1.093   2.305   1.742
  644SOL    HW2 1944   1.231   2.273   1.661
  645SOL     OW 1945   1.160   2.069   1.477
  645SOL    HW1 1946   1.160   2.133   1.554
  645SOL    HW2 1947   1.188   2.117   1.394
  646SOL     OW 1948   0.008   3.188   0.200
  646SOL    HW1 1949  -0.085   3.209   0.169
  646SOL    HW2 1950   0.018   3.089   0.213
  647SOL     OW 1951   0.088   3.663   0.927
  647SOL    HW1 1952   0.046   3.577   0.900
  647SOL    HW2 1953   0.182   3.666   0.893
  648SOL     OW 1954   0.504   3.430   0.910
  648SOL    HW1 1955   0.570   3.504   0.919
  648SOL    HW2 1956   0.548   3.351   0.868
  649SOL     OW 1957   1.002   2.658   1.238
  649SOL    HW1 1958   1.043   2.626   1.324
  649SOL    HW2 1959   0.906   2.631   1.235
  650SOL     OW 1960   0.040   2.406   1.114
  650SOL    HW1 1961   0.125   2.373   1.073
  650SOL    HW2 1962   0.053   2.421   1.212
  651SOL     OW 1963   0.189   2.382   1.722
  651SOL    HW1 1964   0.248   2.342   1.652
  651SOL    HW2 1965   0.131   2.453   1.681
  652SOL     OW 1966   1.369   2.812   1.660
  652SOL    HW1 1967   1.408   2.901   1.680
  652SOL    HW2 1968   1.379   2.792   1.563
  653SOL     OW 1969   0.815   2.434   0.325
  653SOL    HW1 1970   0.822   2.345   0.279
  653SOL    HW2 1971   0.721   2.468   0.317
  654SOL     OW 1972   1.657   2.466   1.206
  654SOL    HW1 1973   1.619   2.397   1.268
  654SOL    HW2 1974   1.739   2.430   1.162
  655SOL     OW 1975   0.252   3.426   1.744
  655SOL    HW1 1976   0.222   3.483   1.820
  655SOL    HW2 1977   0.245   3.329   1.770
  656SOL     OW 1978   0.671   2.326   1.269
  656SOL    HW1 1979   0.637   2.237   1.239
  656SOL    HW2 1980   0.697   2.380   1.189
  657SOL     OW 1981   0.930   3.540   1.465
  657SOL    HW1 1982   0.906   3.522   1.370
  657SOL    HW2 1983   0.960   3.634   1.475
  658SOL     OW 1984   0.473   2.362   0.191
  658SOL    HW1 1985   0.534   2.442   0.195
  658SOL    HW2 1986   0.378   2.393   0.198
  659SOL     OW 1987   0.159   2.999   1.466
  659SOL    HW1 1988   0.181   2.938   1.542
  659SOL    HW2 1989   0.169   2.950   1.380
  660SOL     OW 1990   1.347   2.921   1.234
  660SOL    HW1 1991   1.371   2.858   1.160
  660SOL    HW2 1992   1.257   2.961   1.216
  661SOL     OW 1993   1.302   2.717   0.309
  661SOL    HW1 1994   1.216   2.686   0.351
  661SOL    HW2 1995   1.298   2.703   0.210
  662SOL     OW 1996   1.759   3.609   1.154
  662SOL    HW1 1997   1.820   3.639   1.081
  662SOL    HW2 1998   1.721   3.520   1.132
  663SOL     OW 1999   1.252   3.593   1.128
  663SOL    HW1 2000   1.336   3.598   1.074
  663SOL    HW2 2001   1.229   3.497   1.146
  664SOL     OW 2002   0.083   3.120   1.022
  664SOL    HW1 2003   0.078   3.119   1.122
  664SOL    HW2 2004   0.000   3.079   0.984
  665SOL     OW 2005   0.688   3.524   1.716
  665SOL    HW1 2006   0.632   3.605   1.725
  665SOL    HW2 2007   0.740   3.528   1.630
  666SOL     OW 2008   0.903   1.948   0.133
  666SOL    HW1 2009   0.954   1.949   0.047
  666SOL    HW2 2010   0.959   1.906   0.204
  667SOL     OW 2011   1.726   1.997   0.523
  667SOL    HW1 2012   1.799   1.980   0.456
  667SOL    HW2 2013   1.695   1.910   0.561
  668SOL     OW 2014   1.388   3.435   0.477
  668SOL    HW1 2015   1.455   3.447   0.403
  668SOL    HW2 2016   1.348   3.524   0.500
  669SOL     OW 2017   0.130   3.656   1.851
  669SOL    HW1 2018   0.089   3.582   1.904
  669SOL    HW2 2019   0.194   3.707   1.909
  670SOL     OW 2020   1.280   2.789   0.672
  670SOL    HW1 2021   1.340   2.708   0.674
  670SOL    HW2 2022   1.320   2.858   0.612
  671SOL     OW 2023   0.830   3.135   1.422
  671SOL    HW1 2024   0.825   3.168   1.517
  671SOL    HW2 2025   0.744   3.154   1.376
  672SOL     OW 2026   0.672   3.478   0.154
  672SOL    HW1 2027   0.681   3.488   0.055
  672SOL    HW2 2028   0.632   3.389   0.175
  673SOL     OW 2029   1.650   3.582   1.394
  673SOL    HW1 2030   1.703   3.592   1.310
  673SOL    HW2 2031   1.623   3.672   1.428
  674SOL     OW 2032   1.841   2.037   0.963
  674SOL    HW1 2033   1.880   1.952   0.927
  674SOL    HW2 2034   1.743   2.039   0.944
  675SOL     OW 2035   0.263   2.188   0.720
  675SOL    HW1 2036   0.184   2.239   0.686
  675SOL    HW2 2037   0.254   2.173   0.818
  676SOL     OW 2038   1.194   3.474   0.031
  676SOL    HW1 2039   1.200   3.381   0.068
  676SOL    HW2 2040   1.135   3.474  -0.049
  677SOL     OW 2041   0.822   2.864   1.372
  677SOL    HW1 2042   0.862   2.863   1.280
  677SOL    HW2 2043   0.832   2.956   1.412
  678SOL     OW 2044   0.916   2.772   0.291
  678SOL    HW1 2045   0.979   2.810   0.223
  678SOL    HW2 2046   0.956   2.689   0.330
  679SOL     OW 2047   1.504   3.469   0.044
  679SOL    HW1 2048   1.412   3.506   0.051
  679SOL    HW2 2049   1.542   3.489  -0.046
  680SOL     OW 2050   0.372   3.150   1.490
  680SOL    HW1 2051   0.359   3.243   1.456
  680SOL    HW2 2052   0.288   3.098   1.477
  681SOL     OW 2053   1.614   3.154   1.289
  681SOL    HW1 2054   1.674   3.157   1.369
  681SOL    HW2 2055   1.539   3.218   1.302
  682SOL     OW 2056   1.039   2.960   0.696
  682SOL    HW1 2057   0.969   2.913   0.750
  682SOL    HW2 2058   1.098   2.892   0.653
  683SOL     OW 2059   1.014   2.098   0.971
  683SOL    HW1 2060   1.006   2.062   0.878
  683SOL    HW2 2061   1.012   2.022   1.036
  684SOL     OW 2062   0.590   3.349   0.491
  684SOL    HW1 2063   0.632   3.291   0.421
  684SOL    HW2 2064   0.546   3.428   0.447
  685SOL     OW 2065   1.709   2.247   1.381
  685SOL    HW1 2066   1.782   2.316   1.385
  685SOL    HW2 2067   1.737   2.172   1.322
  686SOL     OW 2068   0.255   3.210   0.290
  686SOL    HW1 2069   0.159   3.211   0.263
  686SOL    HW2 2070   0.267   3.263   0.374
  687SOL     OW 2071   0.105   2.875   1.726
  687SOL    HW1 2072   0.028   2.842   1.780
  687SOL    HW2 2073   0.190   2.845   1.768
  688SOL     OW 2074   0.672   2.065   1.489
  688SOL    HW1 2075   0.762   2.049   1.449
  688SOL    HW2 2076   0.680   2.070   1.588
  689SOL     OW 2077   0.075   2.207   0.033
  689SOL    HW1 2078  -0.017   2.179   0.004
  689SOL    HW2 2079   0.106   2.284  -0.023
  690SOL     OW 2080   1.440   2.718   1.398
  690SOL    HW1 2081   1.383   2.770   1.335
  690SOL    HW2 2082   1.536   2.730   1.374
  691SOL     OW 2083   0.072   2.028   0.318
  691SOL    HW1 2084   0.055   2.111   0.264
  691SOL    HW2 2085   0.162   1.991   0.296
  692SOL     OW 2086   1.183   3.197   0.119
  692SOL    HW1 2087   1.084   3.186   0.121
  692SOL    HW2 2088   1.217   3.212   0.212
  693SOL     OW 2089   0.613   2.704   1.431
  693SOL    HW1 2090   0.669   2.785   1.414
  693SOL    HW2 2091   0.672   2.624   1.434
  694SOL     OW 2092   1.493   3.629   0.959
  694SOL    HW1 2093   1.526   3.693   0.890
  694SOL    HW2 2094   1.559   3.623   1.034
  695SOL     OW 2095   0.716   2.427   1.708
  695SOL    HW1 2096   0.735   2.492   1.782
  695SOL    HW2 2097   0.776   2.347   1.717
  696SOL     OW 2098   1.450   3.082   1.633
  696SOL    HW1 2099   1.441   3.072   1.732
  696SOL    HW2 2100   1.546   3.075   1.607
  697SOL     OW 2101   0.390   3.603   1.560
  697SOL    HW1 2102   0.299   3.644   1.558
  697SOL    HW2 2103   0.383   3.509   1.592
  698SOL     OW 2104   1.674   2.745   1.254
  698SOL    HW1 2105   1.647   2.656   1.217
  698SOL    HW2 2106   1.675   2.813   1.181
  699SOL     OW 2107   1.225   2.187   0.449
  699SOL    HW1 2108   1.290   2.113   0.438
  699SOL    HW2 2109   1.245   2.237   0.533
  700SOL     OW 2110   0.594   2.607   0.652
  700SOL    HW1 2111   0.644   2.692   0.633
  700SOL    HW2 2112   0.506   2.609   0.604
  701SOL     OW 2113   1.777   2.204   1.642
  701SOL    HW1 2114   1.760   2.235   1.548
  701SOL    HW2 2115   1.693   2.167   1.680
  702SOL     OW 2116   1.730   2.796   1.517
  702SOL    HW1 2117   1.768   2.887   1.532
  702SOL    HW2 2118   1.722   2.779   1.418
  703SOL     OW 2119   0.859   3.236   0.016
  703SOL    HW1 2120   0.813   3.251   0.104
  703SOL    HW2 2121   0.903   3.321  -0.014
  704SOL     OW 2122   0.661   3.652   0.953
  704SOL    HW1 2123   0.615   3.740   0.940
  704SOL    HW2 2124   0.760   3.664   0.946
  705SOL     OW 2125   0.859   2.818   0.861
  705SOL    HW1 2126   0.913   2.749   0.909
  705SOL    HW2 2127   0.827   2.887   0.927
  706SOL     OW 2128   1.083   2.846   0.087
  706SOL    HW1 2129   1.060   2.899   0.005
  706SOL    HW2 2130   1.164   2.790   0.068
  707SOL     OW 2131   1.861   3.431   0.851
  707SOL    HW1 2132   1.790   3.419   0.781
  707SOL    HW2 2133   1.862   3.352   0.911
  708SOL     OW 2134   0.221   3.176   1.844
  708SOL    HW1 2135   0.156   3.103   1.823
  708SOL    HW2 2136   0.225   3.190   1.942
  709SOL     OW 2137   0.079   3.102   0.653
  709SOL    HW1 2138   0.078   3.055   0.741
  709SOL    HW2 2139   0.161   3.074   0.602
  710SOL     OW 2140   0.672   3.253   1.624
  710SOL    HW1 2141   0.594   3.203   1.662
  710SOL    HW2 2142   0.669   3.348   1.655
  711SOL     OW 2143   1.824   2.054   1.227
  711SOL    HW1 2144   1.820   1.964   1.271
  711SOL    HW2 2145   1.827   2.043   1.128
  712SOL     OW 2146   0.428   2.286   0.520
  712SOL    HW1 2147   0.458   2.214   0.458
  712SOL    HW2 2148   0.389   2.246   0.603
  713SOL     OW 2149   1.705   3.349   1.104
  713SOL    HW1 2150   1.612   3.324   1.077
  713SOL    HW2 2151   1.731   3.299   1.186
  714SOL     OW 2152   0.317   2.409   1.280
  714SOL    HW1 2153   0.355   2.350   1.352
  714SOL    HW2 2154   0.357   2.383   1.192
  715SOL     OW 2155   0.812   3.448   0.687
  715SOL    HW1 2156   0.844   3.458   0.593
  715SOL    HW2 2157   0.733   3.386   0.689
  716SOL     OW 2158   1.424   2.076   1.112
  716SOL    HW1 2159   1.476   2.011   1.167
  716SOL    HW2 2160   1.375   2.139   1.173
  717SOL     OW 2161   1.001   1.896   1.154
  717SOL    HW1 2162   0.938   1.824   1.123
  717SOL    HW2 2163   1.094   1.860   1.154
  718SOL     OW 2164   0.770   3.192   0.301
  718SOL    HW1 2165   0.724   3.105   0.318
  718SOL    HW2 2166   0.861   3.189   0.342
  719SOL     OW 2167   0.618   3.429   1.284
  719SOL    HW1 2168   0.613   3.511   1.341
  719SOL    HW2 2169   0.707   3.426   1.239
  720SOL     OW 2170   1.352   1.914   0.168
  720SOL    HW1 2171   1.387   1.873   0.084
  720SOL    HW2 2172   1.262   1.876   0.188
  721SOL     OW 2173   1.300   2.315   0.691
  721SOL    HW1 2174   1.241   2.395   0.695
  721SOL    HW2 2175   1.315   2.280   0.784
  722SOL     OW 2176   1.593   2.083   0.882
  722SOL    HW1 2177   1.509   2.082   0.936
  722SOL    HW2 2178   1.595   2.166   0.826
  723SOL     OW 2179   0.039   2.939   0.300
  723SOL    HW1 2180   0.138   2.928   0.291
  723SOL    HW2 2181  -0.001   2.853   0.332
  724SOL     OW 2182   0.875   3.508   0.337
  724SOL    HW1 2183   0.798   3.473   0.283
  724SOL    HW2 2184   0.843   3.579   0.399
  725SOL     OW 2185   0.230   2.490   1.975
  725SOL    HW1 2186   0.137   2.488   2.012
  725SOL    HW2 2187   0.231   2.451   1.883
  726SOL     OW 2188   0.225   2.137   2.858
  726SOL    HW1 2189   0.260   2.120   2.950
  726SOL    HW2 2190   0.137   2.092   2.846
  727SOL     OW 2191   0.019   2.230   2.509
  727SOL    HW1 2192  -0.063   2.273   2.548
  727SOL    HW2 2193  -0.009   2.157   2.446
  728SOL     OW 2194   0.569   3.137   3.027
  728SOL    HW1 2195   0.476   3.130   2.990
  728SOL    HW2 2196   0.580   3.226   3.071
  729SOL     OW 2197   1.555   3.373   2.565
  729SOL    HW1 2198   1.498   3.357   2.646
  729SOL    HW2 2199   1.496   3.383   2.485
  730SOL     OW 2200   1.135   2.565   2.579
  730SOL    HW1 2201   1.192   2.643   2.554
  730SOL    HW2 2202   1.075   2.591   2.655
  731SOL     OW 2203   1.755   2.469   2.093
  731SOL    HW1 2204   1.743   2.456   1.994
  731SOL    HW2 2205   1.725   2.388   2.142
  732SOL     OW 2206   0.768   3.006   2.885
  732SOL    HW1 2207   0.690   3.023   2.945
  732SOL    HW2 2208   0.802   3.093   2.849
  733SOL     OW 2209   0.850   2.660   3.685
  733SOL    HW1 2210   0.846   2.736   3.750
  733SOL    HW2 2211   0.872   2.696   3.594
  734SOL     OW 2212   0.685   2.874   2.527
  734SOL    HW1 2213   0.754   2.858   2.597
  734SOL    HW2 2214   0.612   2.931   2.565
  735SOL     OW 2215   0.686   3.023   3.665
  735SOL    HW1 2216   0.746   3.102   3.679
  735SOL    HW2 2217   0.600   3.054   3.624
  736SOL     OW 2218   0.335   3.297   2.923
  736SOL    HW1 2219   0.257   3.266   2.870
  736SOL    HW2 2220   0.393   3.355   2.866
  737SOL     OW 2221   1.460   3.367   3.201
  737SOL    HW1 2222   1.484   3.461   3.227
  737SOL    HW2 2223   1.444   3.313   3.283
  738SOL     OW 2224   0.438   2.254   3.361
  738SOL    HW1 2225   0.520   2.198   3.370
  738SOL    HW2 2226   0.357   2.196   3.365
  739SOL     OW 2227   1.603   2.309   2.599
  739SOL    HW1 2228   1.529   2.355   2.549
  739SOL    HW2 2229   1.654   2.377   2.652
  740SOL     OW 2230   0.231   3.575   2.345
  740SOL    HW1 2231   0.265   3.652   2.399
  740SOL    HW2 2232   0.275   3.575   2.255
  741SOL     OW 2233   1.127   3.203   3.552
  741SOL    HW1 2234   1.174   3.203   3.640
  741SOL    HW2 2235   1.079   3.116   3.541
  742SOL     OW 2236   0.230   3.296   2.400
  742SOL    HW1 2237   0.204   3.392   2.400
  742SOL    HW2 2238   0.159   3.242   2.445
  743SOL     OW 2239   0.240   2.953   2.748
  743SOL    HW1 2240   0.254   2.869   2.800
  743SOL    HW2 2241   0.185   3.017   2.803
  744SOL     OW 2242   0.620   3.648   3.301
  744SOL    HW1 2243   0.528   3.631   3.336
  744SOL    HW2 2244   0.648   3.740   3.327
  745SOL     OW 2245   0.606   2.826   1.985
  745SOL    HW1 2246   0.613   2.910   1.931
  745SOL    HW2 2247   0.652   2.839   2.073
  746SOL     OW 2248   1.594   1.976   3.342
  746SOL    HW1 2249   1.576   2.043   3.270
  746SOL    HW2 2250   1.591   2.022   3.431
  747SOL     OW 2251   0.122   2.505   2.425
  747SOL    HW1 2252   0.077   2.417   2.442
  747SOL    HW2 2253   0.121   2.559   2.509
  748SOL     OW 2254   1.842   3.629   2.221
  748SOL    HW1 2255   1.896   3.600   2.301
  748SOL    HW2 2256   1.872   3.719   2.192
  749SOL     OW 2257   0.027   3.458   1.979
  749SOL    HW1 2258   0.008   3.362   2.000
  749SOL    HW2 2259  -0.006   3.516   2.054
  750SOL     OW 2260   1.689   2.784   2.474
  750SOL    HW1 2261   1.784   2.755   2.482
  750SOL    HW2 2262   1.681   2.849   2.399
  751SOL     OW 2263   1.641   2.970   2.294
  751SOL    HW1 2264   1.727   2.972   2.242
  751SOL    HW2 2265   1.655   3.017   2.382
  752SOL     OW 2266   0.113   2.599   3.459
  752SOL    HW1 2267   0.201   2.586   3.504
  752SOL    HW2 2268   0.100   2.696   3.437
  753SOL     OW 2269   0.613   3.227   2.588
  753SOL    HW1 2270   0.564   3.140   2.597
  753SOL    HW2 2271   0.590   3.270   2.501
  754SOL     OW 2272   1.293   3.090   3.285
  754SOL    HW1 2273   1.330   3.017   3.227
  754SOL    HW2 2274   1.345   3.095   3.370
  755SOL     OW 2275   0.809   1.866   2.364
  755SOL    HW1 2276   0.849   1.957   2.355
  755SOL    HW2 2277   0.709   1.874   2.370
  756SOL     OW 2278   0.197   2.838   3.126
  756SOL    HW1 2279   0.286   2.793   3.112
  756SOL    HW2 2280   0.124   2.773   3.107
  757SOL     OW 2281   1.525   2.861   2.052
  757SOL    HW1 2282   1.462   2.785   2.065
  757SOL    HW2 2283   1.573   2.879   2.138
  758SOL     OW 2284   1.187   3.654   3.478
  758SOL    HW1 2285   1.211   3.714   3.402
  758SOL    HW2 2286   1.194   3.559   3.448
  759SOL     OW 2287   0.317   2.113   3.663
  759SOL    HW1 2288   0.388   2.184   3.669
  759SOL    HW2 2289   0.229   2.152   3.691
  760SOL     OW 2290   1.466   3.279   2.815
  760SOL    HW1 2291   1.407   3.285   2.895
  760SOL    HW2 2292   1.451   3.191   2.769
  761SOL     OW 2293   1.667   3.576   2.434
  761SOL    HW1 2294   1.626   3.553   2.346
  761SOL    HW2 2295   1.649   3.502   2.499
  762SOL     OW 2296   0.598   2.591   2.132
  762SOL    HW1 2297   0.622   2.660   2.064
  762SOL    HW2 2298   0.520   2.624   2.186
  763SOL     OW 2299   1.281   2.207   2.806
  763SOL    HW1 2300   1.195   2.157   2.793
  763SOL    HW2 2301   1.343   2.153   2.862
  764SOL     OW 2302   1.576   3.524   2.169
  764SOL    HW1 2303   1.665   3.570   2.172
  764SOL    HW2 2304   1.555   3.500   2.074
  765SOL     OW 2305   0.807   2.467   3.327
  765SOL    HW1 2306   0.760   2.464   3.416
  765SOL    HW2 2307   0.756   2.412   3.261
  766SOL     OW 2308   1.394   2.331   3.536
  766SOL    HW1 2309   1.374   2.374   3.624
  766SOL    HW2 2310   1.472   2.269   3.545
  767SOL     OW 2311   0.973   2.752   3.434
  767SOL    HW1 2312   1.019   2.668   3.405
  767SOL    HW2 2313   0.917   2.786   3.359
  768SOL     OW 2314   0.991   2.272   3.104
  768SOL    HW1 2315   0.914   2.306   3.158
  768SOL    HW2 2316   0.957   2.221   3.025
  769SOL     OW 2317   1.041   2.563   2.291
  769SOL    HW1 2318   1.067   2.559   2.387
  769SOL    HW2 2319   0.956   2.512   2.277
  770SOL     OW 2320   0.076   2.673   2.651
  770SOL    HW1 2321   0.175   2.661   2.660
  770SOL    HW2 2322   0.052   2.768   2.672
  771SOL     OW 2323   0.130   3.683   3.433
  771SOL    HW1 2324   0.120   3.668   3.532
  771SOL    HW2 2325   0.044   3.719   3.397
  772SOL     OW 2326   0.865   2.210   2.057
  772SOL    HW1 2327   0.924   2.273   2.008
  772SOL    HW2 2328   0.884   2.116   2.028
  773SOL     OW 2329   1.719   2.447   3.693
  773SOL    HW1 2330   1.693   2.536   3.657
  773SOL    HW2 2331   1.717   2.379   3.620
  774SOL     OW 2332   1.362   3.006   2.407
  774SOL    HW1 2333   1.445   2.977   2.359
  774SOL    HW2 2334   1.313   3.073   2.351
  775SOL     OW 2335   0.550   2.058   2.747
  775SOL    HW1 2336   0.545   2.053   2.847
  775SOL    HW2 2337   0.552   2.154   2.718
  776SOL     OW 2338   1.008   3.318   2.339
  776SOL    HW1 2339   0.962   3.390   2.287
  776SOL    HW2 2340   1.004   3.338   2.437
  777SOL     OW 2341   0.351   3.663   2.715
  777SOL    HW1 2342   0.401   3.577   2.721
  777SOL    HW2 2343   0.416   3.740   2.712
  778SOL     OW 2344   1.795   2.928   2.735
  778SOL    HW1 2345   1.733   2.913   2.659
  778SOL    HW2 2346   1.743   2.939   2.820
  779SOL     OW 2347   1.227   3.412   3.368
  779SOL    HW1 2348   1.233   3.335   3.432
  779SOL    HW2 2349   1.175   3.386   3.288
  780SOL     OW 2350   0.321   2.805   2.104
  780SOL    HW1 2351   0.403   2.844   2.062
  780SOL    HW2 2352   0.294   2.723   2.055
  781SOL     OW 2353   1.458   2.597   2.590
  781SOL    HW1 2354   1.453   2.532   2.665
  781SOL    HW2 2355   1.538   2.656   2.603
  782SOL     OW 2356   0.461   3.128   3.589
  782SOL    HW1 2357   0.411   3.129   3.503
  782SOL    HW2 2358   0.398   3.110   3.665
  783SOL     OW 2359   1.111   3.638   2.099
  783SOL    HW1 2360   1.051   3.576   2.149
  783SOL    HW2 2361   1.142   3.594   2.014
  784SOL     OW 2362   0.202   2.147   3.360
  784SOL    HW1 2363   0.122   2.207   3.347
  784SOL    HW2 2364   0.192   2.098   3.446
  785SOL     OW 2365   1.632   3.239   1.943
  785SOL    HW1 2366   1.600   3.333   1.933
  785SOL    HW2 2367   1.556   3.176   1.931
  786SOL     OW 2368   0.464   3.605   2.185
  786SOL    HW1 2369   0.497   3.644   2.271
  786SOL    HW2 2370   0.540   3.598   2.120
  787SOL     OW 2371   1.400   1.969   2.288
  787SOL    HW1 2372   1.376   1.932   2.198
  787SOL    HW2 2373   1.499   1.985   2.292
  788SOL     OW 2374   0.249   3.647   3.103
  788SOL    HW1 2375   0.306   3.582   3.153
  788SOL    HW2 2376   0.233   3.614   3.010
  789SOL     OW 2377   0.940   3.560   2.766
  789SOL    HW1 2378   1.020   3.503   2.787
  789SOL    HW2 2379   0.891   3.520   2.689
  790SOL     OW 2380   0.382   2.562   2.342
  790SOL    HW1 2381   0.427   2.472   2.339
  790SOL    HW2 2382   0.288   2.551   2.375
  791SOL     OW 2383   1.547   2.084   3.591
  791SOL    HW1 2384   1.542   2.121   3.683
  791SOL    HW2 2385   1.475   2.015   3.579
  792SOL     OW 2386   0.614   1.984   1.979
  792SOL    HW1 2387   0.712   1.962   1.986
  792SOL    HW2 2388   0.583   1.967   1.886
  793SOL     OW 2389   0.781   2.126   3.611
  793SOL    HW1 2390   0.848   2.065   3.654
  793SOL    HW2 2391   0.708   2.145   3.676
  794SOL     OW 2392   0.888   3.376   3.057
  794SOL    HW1 2393   0.865   3.351   2.963
  794SOL    HW2 2394   0.949   3.307   3.096
  795SOL     OW 2395   1.351   2.452   3.295
  795SOL    HW1 2396   1.379   2.409   3.380
  795SOL    HW2 2397   1.376   2.548   3.296
  796SOL     OW 2398   0.803   3.264   2.786
  796SOL    HW1 2399   0.893   3.278   2.744
  796SOL    HW2 2400   0.732   3.266   2.715
  797SOL     OW 2401   0.922   2.365   2.761
  797SOL    HW1 2402   0.897   2.356   2.665
  797SOL    HW2 2403   0.970   2.283   2.792
  798SOL     OW 2404   0.539   1.926   2.374
  798SOL    HW1 2405   0.458   1.927   2.432
  798SOL    HW2 2406   0.542   2.009   2.319
  799SOL     OW 2407   1.434   3.050   1.903
  799SOL    HW1 2408   1.466   2.974   1.960
  799SOL    HW2 2409   1.342   3.077   1.933
  800SOL     OW 2410   0.297   1.897   2.033
  800SOL    HW1 2411   0.346   1.981   2.012
  800SOL    HW2 2412   0.359   1.832   2.078
  801SOL     OW 2413   0.935   2.098   2.342
  801SOL    HW1 2414   0.887   2.139   2.264
  801SOL    HW2 2415   1.034   2.096   2.323
  802SOL     OW 2416   1.076   2.545   3.326
  802SOL    HW1 2417   0.996   2.484   3.329
  802SOL    HW2 2418   1.157   2.492   3.302
  803SOL     OW 2419   1.227   3.432   2.655
  803SOL    HW1 2420   1.248   3.506   2.590
  803SOL    HW2 2421   1.295   3.432   2.728
  804SOL     OW 2422   0.459   3.014   2.603
  804SOL    HW1 2423   0.388   2.987   2.668
  804SOL    HW2 2424   0.433   2.986   2.510
  805SOL     OW 2425   1.271   3.659   2.453
  805SOL    HW1 2426   1.315   3.723   2.389
  805SOL    HW2 2427   1.221   3.711   2.523
  806SOL     OW 2428   1.032   2.411   1.878
  806SOL    HW1 2429   0.991   2.493   1.839
  806SOL    HW2 2430   1.096   2.437   1.951
  807SOL     OW 2431   0.078   2.418   3.248
  807SOL    HW1 2432   0.170   2.417   3.207
  807SOL    HW2 2433   0.072   2.492   3.315
  808SOL     OW 2434   0.561   2.084   3.009
  808SOL    HW1 2435   0.599   2.000   3.046
  808SOL    HW2 2436   0.473   2.103   3.053
  809SOL     OW 2437   0.866   2.316   2.504
  809SOL    HW1 2438   0.834   2.388   2.442
  809SOL    HW2 2439   0.890   2.235   2.451
  810SOL     OW 2440   1.017   1.901   2.615
  810SOL    HW1 2441   0.945   1.906   2.546
  810SOL    HW2 2442   0.993   1.832   2.684
  811SOL     OW 2443   1.429   3.035   2.729
  811SOL    HW1 2444   1.374   2.951   2.722
  811SOL    HW2 2445   1.455   3.064   2.637
  812SOL     OW 2446   1.466   2.452   2.854
  812SOL    HW1 2447   1.436   2.357   2.861
  812SOL    HW2 2448   1.539   2.468   2.920
  813SOL     OW 2449   1.857   2.695   2.239
  813SOL    HW1 2450   1.899   2.631   2.303
  813SOL    HW2 2451   1.819   2.644   2.161
  814SOL     OW 2452   0.488   3.247   2.036
  814SOL    HW1 2453   0.401   3.232   2.083
  814SOL    HW2 2454   0.471   3.273   1.941
  815SOL     OW 2455   1.664   3.142   2.519
  815SOL    HW1 2456   1.763   3.150   2.533
  815SOL    HW2 2457   1.619   3.226   2.550
  816SOL     OW 2458   1.390   2.437   1.940
  816SOL    HW1 2459   1.336   2.416   2.021
  816SOL    HW2 2460   1.481   2.396   1.949
  817SOL     OW 2461   0.527   2.118   2.190
  817SOL    HW1 2462   0.554   2.059   2.115
  817SOL    HW2 2463   0.527   2.213   2.159
  818SOL     OW 2464   1.754   3.085   3.450
  818SOL    HW1 2465   1.845   3.046   3.437
  818SOL    HW2 2466   1.762   3.181   3.474
  819SOL     OW 2467   1.064   3.209   3.202
  819SOL    HW1 2468   0.984   3.186   3.257
  819SOL    HW2 2469   1.147   3.183   3.251
  820SOL     OW 2470   1.592   3.491   3.487
  820SOL    HW1 2471   1.619   3.525   3.397
  820SOL    HW2 2472   1.671   3.453   3.533
  821SOL     OW 2473   1.111   3.057   2.962
  821SOL    HW1 2474   1.071   3.101   3.043
  821SOL    HW2 2475   1.070   3.094   2.879
  822SOL     OW 2476   1.638   2.961   2.941
  822SOL    HW1 2477   1.643   3.042   3.000
  822SOL    HW2 2478   1.552   2.963   2.890
  823SOL     OW 2479   0.915   1.951   3.264
  823SOL    HW1 2480   0.940   1.931   3.169
  823SOL    HW2 2481   0.987   2.007   3.306
  824SOL     OW 2482   0.980   2.978   3.581
  824SOL    HW1 2483   0.881   2.984   3.591
  824SOL    HW2 2484   1.003   2.898   3.525
  825SOL     OW 2485   0.705   2.912   2.230
  825SOL    HW1 2486   0.691   2.919   2.329
  825SOL    HW2 2487   0.789   2.861   2.212
  826SOL     OW 2488   0.410   2.675   3.113
  826SOL    HW1 2489   0.496   2.687   3.163
  826SOL    HW2 2490   0.368   2.588   3.140
  827SOL     OW 2491   1.274   2.248   3.124
  827SOL    HW1 2492   1.295   2.322   3.188
  827SOL    HW2 2493   1.185   2.265   3.081
  828SOL     OW 2494   0.064   3.426   3.193
  828SOL    HW1 2495   0.018   3.508   3.159
  828SOL    HW2 2496   0.162   3.445   3.202
  829SOL     OW 2497   0.367   2.962   2.363
  829SOL    HW1 2498   0.360   3.045   2.307
  829SOL    HW2 2499   0.371   2.882   2.303
  830SOL     OW 2500   0.566   2.399   2.727
  830SOL    HW1 2501   0.578   2.465   2.653
  830SOL    HW2 2502   0.612   2.433   2.810
  831SOL     OW 2503   1.252   3.210   2.250
  831SOL    HW1 2504   1.302   3.287   2.290
  831SOL    HW2 2505   1.157   3.212   2.282
  832SOL     OW 2506   1.272   3.307   3.004
  832SOL    HW1 2507   1.319   3.320   3.091
  832SOL    HW2 2508   1.206   3.233   3.013
  833SOL     OW 2509   1.582   2.501   2.334
  833SOL    HW1 2510   1.551   2.562   2.407
  833SOL    HW2 2511   1.632   2.553   2.265
  834SOL     OW 2512   0.354   3.372   3.191
  834SOL    HW1 2513   0.333   3.328   3.104
  834SOL    HW2 2514   0.451   3.398   3.194
  835SOL     OW 2515   0.402   2.613   3.460
  835SOL    HW1 2516   0.470   2.668   3.413
  835SOL    HW2 2517   0.442   2.525   3.487
  836SOL     OW 2518   1.587   2.641   3.532
  836SOL    HW1 2519   1.495   2.679   3.527
  836SOL    HW2 2520   1.647   2.688   3.467
  837SOL     OW 2521   1.013   1.967   3.632
  837SOL    HW1 2522   1.019   2.052   3.580
  837SOL    HW2 2523   1.045   1.891   3.575
  838SOL     OW 2524   0.504   1.912   3.602
  838SOL    HW1 2525   0.462   1.855   3.532
  838SOL    HW2 2526   0.438   1.981   3.634
  839SOL     OW 2527   0.573   2.732   2.891
  839SOL    HW1 2528   0.617   2.821   2.882
  839SOL    HW2 2529   0.510   2.732   2.968
  840SOL     OW 2530   1.360   2.724   2.907
  840SOL    HW1 2531   1.285   2.724   2.841
  840SOL    HW2 2532   1.397   2.632   2.916
  841SOL     OW 2533   1.209   2.387   2.137
  841SOL    HW1 2534   1.222   2.303   2.191
  841SOL    HW2 2535   1.180   2.461   2.197
  842SOL     OW 2536   0.307   2.075   3.093
  842SOL    HW1 2537   0.284   2.112   3.183
  842SOL    HW2 2538   0.277   1.980   3.087
  843SOL     OW 2539   0.037   3.172   3.144
  843SOL    HW1 2540   0.090   3.123   3.212
  843SOL    HW2 2541   0.059   3.270   3.149
  844SOL     OW 2542   0.732   2.496   2.926
  844SOL    HW1 2543   0.791   2.470   2.850
  844SOL    HW2 2544   0.704   2.592   2.915
  845SOL     OW 2545   1.728   2.797   3.716
  845SOL    HW1 2546   1.682   2.790   3.627
  845SOL    HW2 2547   1.666   2.841   3.782
  846SOL     OW 2548   0.307   1.925   2.480
  846SOL    HW1 2549   0.296   2.019   2.513
  846SOL    HW2 2550   0.302   1.862   2.557
  847SOL     OW 2551   1.622   2.229   2.236
  847SOL    HW1 2552   1.624   2.153   2.300
  847SOL    HW2 2553   1.574   2.306   2.276
  848SOL     OW 2554   1.023   2.628   2.828
  848SOL    HW1 2555   1.038   2.649   2.924
  848SOL    HW2 2556   0.993   2.533   2.819
  849SOL     OW 2557   0.980   3.435   3.562
  849SOL    HW1 2558   0.960   3.479   3.474
  849SOL    HW2 2559   1.019   3.344   3.546
  850SOL     OW 2560   1.859   3.380   3.467
  850SOL    HW1 2561   1.873   3.407   3.372
  850SOL    HW2 2562   1.942   3.402   3.520
  851SOL     OW 2563   0.350   2.760   3.666
  851SOL    HW1 2564   0.426   2.804   3.714
  851SOL    HW2 2565   0.385   2.713   3.584
  852SOL     OW 2566   1.540   2.136   1.987
  852SOL    HW1 2567   1.479   2.061   2.010
  852SOL    HW2 2568   1.562   2.188   2.070
  853SOL     OW 2569   1.303   2.700   1.904
  853SOL    HW1 2570   1.337   2.607   1.919
  853SOL    HW2 2571   1.321   2.727   1.809
  854SOL     OW 2572   1.068   3.195   2.711
  854SOL    HW1 2573   1.075   3.111   2.656
  854SOL    HW2 2574   1.130   3.264   2.675
  855SOL     OW 2575   0.319   2.672   2.811
  855SOL    HW1 2576   0.412   2.708   2.816
  855SOL    HW2 2577   0.313   2.587   2.863
  856SOL     OW 2578   0.339   2.371   2.868
  856SOL    HW1 2579   0.287   2.288   2.851
  856SOL    HW2 2580   0.416   2.376   2.804
  857SOL     OW 2581   1.138   2.242   3.540
  857SOL    HW1 2582   1.093   2.305   3.604
  857SOL    HW2 2583   1.231   2.273   3.523
  858SOL     OW 2584   1.160   2.069   3.339
  858SOL    HW1 2585   1.160   2.133   3.416
  858SOL    HW2 2586   1.188   2.117   3.256
  859SOL     OW 2587   0.008   3.188   2.062
  859SOL    HW1 2588  -0.085   3.209   2.031
  859SOL    HW2 2589   0.018   3.089   2.075
  860SOL     OW 2590   0.088   3.663   2.789
  860SOL    HW1 2591   0.046   3.577   2.762
  860SOL    HW2 2592   0.182   3.666   2.755
  861SOL     OW 2593   0.504   3.430   2.772
  861SOL    HW1 2594   0.570   3.504   2.781
  861SOL    HW2 2595   0.548   3.351   2.730
  862SOL     OW 2596   1.002   2.658   3.100
  862SOL    HW1 2597   1.043   2.626   3.186
  862SOL    HW2 2598   0.906   2.631   3.097
  863SOL     OW 2599   0.040   2.406   2.976
  863SOL    HW1 2600   0.125   2.373   2.935
  863SOL    HW2 2601   0.053   2.421   3.074
  864SOL     OW 2602   0.189   2.382   3.584
  864SOL    HW1 2603   0.248   2.342   3.514
  864SOL    HW2 2604   0.131   2.453   3.543
  865SOL     OW 2605   1.369   2.812   3.522
  865SOL    HW1 2606   1.408   2.901   3.542
  865SOL    HW2 2607   1.379   2.792   3.425
  866SOL     OW 2608   0.815   2.434   2.187
  866SOL    HW1 2609   0.822   2.345   2.141
  866SOL    HW2 2610   0.721   2.468   2.179
  867SOL     OW 2611   1.657   2.466   3.068
  867SOL    HW1 2612   1.619   2.397   3.130
  867SOL    HW2 2613   1.739   2.430   3.024
  868SOL     OW 2614   0.252   3.426   3.606
  868SOL    HW1 2615   0.222   3.483   3.682
  868SOL    HW2 2616   0.245   3.329   3.632
  869SOL     OW 2617   0.671   2.326   3.131
  869SOL    HW1 2618   0.637   2.237   3.101
  869SOL    HW2 2619   0.697   2.380   3.051
  870SOL     OW 2620   0.930   3.540   3.327
  870SOL    HW1 2621   0.906   3.522   3.232
  870SOL    HW2 2622   0.960   3.634   3.337
  871SOL     OW 2623   0.473   2.362   2.053
  871SOL    HW1 2624   0.534   2.442   2.057
  871SOL    HW2 2625   0.378   2.393   2.060
  872SOL     OW 2626   0.159   2.999   3.328
  872SOL    HW1 2627   0.181   2.938   3.404
  872SOL    HW2 2628   0.169   2.950   3.242
  873SOL     OW 2629   1.347   2.921   3.096
  873SOL    HW1 2630   1.371   2.858   3.022
  873SOL    HW2 2631   1.257   2.961   3.078
  874SOL     OW 2632   1.302   2.717   2.171
  874SOL    HW1 2633   1.216   2.686   2.213
  874SOL    HW2 2634   1.298   2.703   2.072
  875SOL     OW 2635   1.759   3.609   3.016
  875SOL    HW1 2636   1.820   3.639   2.943
  875SOL    HW2 2637   1.721   3.520   2.994
  876SOL     OW 2638   1.252   3.593   2.990
  876SOL    HW1 2639   1.336   3.598   2.936
  876SOL    HW2 2640   1.229   3.497   3.008
  877SOL     OW 2641   0.083   3.120   2.884
  877SOL    HW1 2642   0.078   3.119   2.984
  877SOL    HW2 2643   0.000   3.079   2.846
  878SOL     OW 2644   0.688   3.524   3.578
  878SOL    HW1 2645   0.632   3.605   3.587
  878SOL    HW2 2646   0.740   3.528   3.492
  879SOL     OW 2647   1.726   1.997   2.385
  879SOL    HW1 2648   1.799   1.980   2.318
  879SOL    HW2 2649   1.695   1.910   2.423
  880SOL     OW 2650   1.388   3.435   2.339
  880SOL    HW1 2651   1.455   3.447   2.265
  880SOL    HW2 2652   1.348   3.524   2.362
  881SOL     OW 2653   0.130   3.656   3.713
  881SOL    HW1 2654   0.089   3.582   3.766
  881SOL    HW2 2655   0.194   3.707   3.771
  882SOL     OW 2656   1.280   2.789   2.534
  882SOL    HW1 2657   1.340   2.708   2.536
  882SOL    HW2 2658   1.320   2.858   2.474
  883SOL     OW 2659   0.830   3.135   3.284
  883SOL    HW1 2660   0.825   3.168   3.379
  883SOL    HW2 2661   0.744   3.154   3.238
  884SOL     OW 2662   0.672   3.478   2.016
  884SOL    HW1 2663   0.681   3.488   1.917
  884SOL    HW2 2664   0.632   3.389   2.037
  885SOL     OW 2665   1.650   3.582   3.256
  885SOL    HW1 2666   1.703   3.592   3.172
  885SOL    HW2 2667   1.623   3.672   3.290
  886SOL     OW 2668   1.841   2.037   2.825
  886SOL    HW1 2669   1.880   1.952   2.789
  886SOL    HW2 2670   1.743   2.039   2.806
  887SOL     OW 2671   0.263   2.188   2.582
  887SOL    HW1 2672   0.184   2.239   2.548
  887SOL    HW2 2673   0.254   2.173   2.680
  888SOL     OW 2674   1.194   3.474   1.893
  888SOL    HW1 2675   1.200   3.381   1.930
  888SOL    HW2 2676   1.135   3.474   1.813
  889SOL     OW 2677   0.822   2.864   3.234
  889SOL    HW1 2678   0.862   2.863   3.142
  889SOL    HW2 2679   0.832   2.956   3.274
  890SOL     OW 2680   0.916   2.772   2.153
  890SOL    HW1 2681   0.979   2.810   2.085
  890SOL    HW2 2682   0.956   2.689   2.192
  891SOL     OW 2683   1.504   3.469   1.906
  891SOL    HW1 2684   1.412   3.506   1.913
  891SOL    HW2 2685   1.542   3.489   1.816
  892SOL     OW 2686   0.372   3.150   3.352
  892SOL    HW1 2687   0.359   3.243   3.318
  892SOL    HW2 2688   0.288   3.098   3.339
  893SOL     OW 2689   1.614   3.154   3.151
  893SOL    HW1 2690   1.674   3.157   3.231
  893SOL    HW2 2691   1.539   3.218   3.164
  894SOL     OW 2692   1.039   2.960   2.558
  894SOL    HW1 2693   0.969   2.913   2.612
  894SOL    HW2 2694   1.098   2.892   2.515
  895SOL     OW 2695   1.014   2.098   2.833
  895SOL    HW1 2696   1.006   2.062   2.740
  895SOL    HW2 2697   1.012   2.022   2.898
  896SOL     OW 2698   0.590   3.349   2.353
  896SOL    HW1 2699   0.632   3.291   2.283
  896SOL    HW2 2700   0.546   3.428   2.309
  897SOL     OW 2701   1.709   2.247   3.243
  897SOL    HW1 2702   1.782   2.316   3.247
  897SOL    HW2 2703   1.737   2.172   3.184
  898SOL     OW 2704   0.255   3.210   2.152
  898SOL    HW1 2705   0.159   3.211   2.125
  898SOL    HW2 2706   0.267   3.263   2.236
  899SOL     OW 2707   0.105   2.875   3.588
  899SOL    HW1 2708   0.028   2.842   3.642
  899SOL    HW2 2709   0.190   2.845   3.630
  900SOL     OW 2710   0.672   2.065   3.351
  900SOL    HW1 2711   0.762   2.049   3.311
  900SOL    HW2 2712   0.680   2.070   3.450
  901SOL     OW 2713   0.075   2.207   1.895
  901SOL    HW1 2714  -0.017   2.179   1.866
  901SOL    HW2 2715   0.106   2.284   1.839
  902SOL     OW 2716   1.440   2.718   3.260
  902SOL    HW1 2717   1.383   2.770   3.197
  902SOL    HW2 2718   1.536   2.730   3.236
  903SOL     OW 2719   0.072   2.028   2.180
  903SOL    HW1 2720   0.055   2.111   2.126
  903SOL    HW2 2721   0.162   1.991   2.158
  904SOL     OW 2722   1.183   3.197   1.981
  904SOL    HW1 2723   1.084   3.186   1.983
  904SOL    HW2 2724   1.217   3.212   2.074
  905SOL     OW 2725   0.613   2.704   3.293
  905SOL    HW1 2726   0.669   2.785   3.276
  905SOL    HW2 2727   0.672   2.624   3.296
  906SOL     OW 2728   1.493   3.629   2.821
  906SOL    HW1 2729   1.526   3.693   2.752
  906SOL    HW2 2730   1.559   3.623   2.896
  907SOL     OW 2731   0.716   2.427   3.570
  907SOL    HW1 2732   0.735   2.492   3.644
  907SOL    HW2 2733   0.776   2.347   3.579
  908SOL     OW 2734   1.450   3.082   3.495
  908SOL    HW1 2735   1.441   3.072   3.594
  908SOL    HW2 2736   1.546   3.075   3.469
  909SOL     OW 2737   0.390   3.603   3.422
  909SOL    HW1 2738   0.299   3.644   3.420
  909SOL    HW2 2739   0.383   3.509   3.454
  910SOL     OW 2740   1.674   2.745   3.116
  910SOL    HW1 2741   1.647   2.656   3.079
  910SOL    HW2 2742   1.675   2.813   3.043
  911SOL     OW 2743   1.225   2.187   2.311
  911SOL    HW1 2744   1.290   2.113   2.300
  911SOL    HW2 2745   1.245   2.237   2.395
  912SOL     OW 2746   0.594   2.607   2.514
  912SOL    HW1 2747   0.644   2.692   2.495
  912SOL    HW2 2748   0.506   2.609   2.466
  913SOL     OW 2749   1.777   2.204   3.504
  913SOL    HW1 2750   1.760   2.235   3.410
  913SOL    HW2 2751   1.693   2.167   3.542
  914SOL     OW 2752   1.730   2.796   3.379
  914SOL    HW1 2753   1.768   2.887   3.394
  914SOL    HW2 2754   1.722   2.779   3.280
  915SOL     OW 2755   0.859   3.236   1.878
  915SOL    HW1 2756   0.813   3.251   1.966
  915SOL    HW2 2757   0.903   3.321   1.848
  916SOL     OW 2758   0.661   3.652   2.815
  916SOL    HW1 2759   0.615   3.740   2.802
  916SOL    HW2 2760   0.760   3.664   2.808
  917SOL     OW 2761   0.859   2.818   2.723
  917SOL    HW1 2762   0.913   2.749   2.771
  917SOL    HW2 2763   0.827   2.887   2.789
  918SOL     OW 2764   1.083   2.846   1.949
  918SOL    HW1 2765   1.060   2.899   1.867
  918SOL    HW2 2766   1.164   2.790   1.930
  919SOL     OW 2767   1.861   3.431   2.713
  919SOL    HW1 2768   1.790   3.419   2.643
  919SOL    HW2 2769   1.862   3.352   2.773
  920SOL     OW 2770   0.221   3.176   3.706
  920SOL    HW1 2771   0.156   3.103   3.685
  920SOL    HW2 2772   0.225   3.190   3.804
  921SOL     OW 2773   0.079   3.102   2.515
  921SOL    HW1 2774   0.078   3.055   2.603
  921SOL    HW2 2775   0.161   3.074   2.464
  922SOL     OW 2776   0.672   3.253   3.486
  922SOL    HW1 2777   0.594   3.203   3.524
  922SOL    HW2 2778   0.669   3.348   3.517
  923SOL     OW 2779   1.824   2.054   3.089
  923SOL    HW1 2780   1.820   1.964   3.133
  923SOL    HW2 2781   1.827   2.043   2.990
  924SOL     OW 2782   0.428   2.286   2.382
  924SOL    HW1 2783   0.458   2.214   2.320
  924SOL    HW2 2784   0.389   2.246   2.465
  925SOL     OW 2785   1.705   3.349   2.966
  925SOL    HW1 2786   1.612   3.324   2.939
  925SOL    HW2 2787   1.731   3.299   3.048
  926SOL     OW 2788   0.317   2.409   3.142
  926SOL    HW1 2789   0.355   2.350   3.214
  926SOL    HW2 2790   0.357   2.383   3.054
  927SOL     OW 2791   0.812   3.448   2.549
  927SOL    HW1 2792   0.844   3.458   2.455
  927SOL    HW2 2793   0.733   3.386   2.551
  928SOL     OW 2794   1.424   2.076   2.974
  928SOL    HW1 2795   1.476   2.011   3.029
  928SOL    HW2 2796   1.375   2.139   3.035
  929SOL     OW 2797   1.001   1.896   3.016
  929SOL    HW1 2798   0.938   1.824   2.985
  929SOL    HW2 2799   1.094   1.860   3.016
  930SOL     OW 2800   0.770   3.192   2.163
  930SOL    HW1 2801   0.724   3.105   2.180
  930SOL    HW2 2802   0.861   3.189   2.204
  931SOL     OW 2803   0.618   3.429   3.146
  931SOL    HW1 2804   0.613   3.511   3.203
  931SOL    HW2 2805   0.707   3.426   3.101
  932SOL     OW 2806   1.352   1.914   2.030
  932SOL    HW1 2807   1.387   1.873   1.946
  932SOL    HW2 2808   1.262   1.876   2.050
  933SOL     OW 2809   1.300   2.315   2.553
  933SOL    HW1 2810   1.241   2.395   2.557
  933SOL    HW2 2811   1.315   2.280   2.646
  934SOL     OW 2812   1.593   2.083   2.744
  934SOL    HW1 2813   1.509   2.082   2.798
  934SOL    HW2 2814   1.595   2.166   2.688
  935SOL     OW 2815   0.039   2.939   2.162
  935SOL    HW1 2816   0.138   2.928   2.153
  935SOL    HW2 2817  -0.001   2.853   2.194
  936SOL     OW 2818   0.875   3.508   2.199
  936SOL    HW1 2819   0.798   3.473   2.145
  936SOL    HW2 2820   0.843   3.579   2.261
  937SOL     OW 2821   0.230   2.490   3.837
  937SOL    HW1 2822   0.137   2.488   3.874
  937SOL    HW2 2823   0.231   2.451   3.745
  938SOL     OW 2824   0.019   2.230   4.371
  938SOL    HW1 2825  -0.063   2.273   4.410
  938SOL    HW2 2826  -0.009   2.157   4.308
  939SOL     OW 2827   1.755   2.469   3.955
  939SOL    HW1 2828   1.743   2.456   3.856
  939SOL    HW2 2829   1.725   2.388   4.004
  940SOL     OW 2830   0.685   2.874   4.389
  940SOL    HW1 2831   0.754   2.858   4.459
  940SOL    HW2 2832   0.612   2.931   4.427
  941SOL     OW 2833   1.603   2.309   4.461
  941SOL    HW1 2834   1.529   2.355   4.411
  941SOL    HW2 2835   1.654   2.377   4.514
  942SOL     OW 2836   0.231   3.575   4.207
  942SOL    HW1 2837   0.265   3.652   4.261
  942SOL    HW2 2838   0.275   3.575   4.117
  943SOL     OW 2839   0.230   3.296   4.262
  943SOL    HW1 2840   0.204   3.392   4.262
  943SOL    HW2 2841   0.159   3.242   4.307
  944SOL     OW 2842   0.606   2.826   3.847
  944SOL    HW1 2843   0.613   2.910   3.793
  944SOL    HW2 2844   0.652   2.839   3.935
  945SOL     OW 2845   0.122   2.505   4.287
  945SOL    HW1 2846   0.077   2.417   4.304
  945SOL    HW2 2847   0.121   2.559   4.371
  946SOL     OW 2848   1.842   3.629   4.083
  946SOL    HW1 2849   1.896   3.600   4.163
  946SOL    HW2 2850   1.872   3.719   4.054
  947SOL     OW 2851   0.027   3.458   3.841
  947SOL    HW1 2852   0.008   3.362   3.862
  947SOL    HW2 2853  -0.006   3.516   3.916
  948SOL     OW 2854   1.689   2.784   4.336
  948SOL    HW1 2855   1.784   2.755   4.344
  948SOL    HW2 2856   1.681   2.849   4.261
  949SOL     OW 2857   1.641   2.970   4.156
  949SOL    HW1 2858   1.727   2.972   4.104
  949SOL    HW2 2859   1.655   3.017   4.244
  950SOL     OW 2860   0.613   3.227   4.450
  950SOL    HW1 2861   0.564   3.140   4.459
  950SOL    HW2 2862   0.590   3.270   4.363
  951SOL     OW 2863   0.809   1.866   4.226
  951SOL    HW1 2864   0.849   1.957   4.217
  951SOL    HW2 2865   0.709   1.874   4.232
  952SOL     OW 2866   1.525   2.861   3.914
  952SOL    HW1 2867   1.462   2.785   3.927
  952SOL    HW2 2868   1.573   2.879   4.000
  953SOL     OW 2869   1.667   3.576   4.296
  953SOL    HW1 2870   1.626   3.553   4.208
  953SOL    HW2 2871   1.649   3.502   4.361
  954SOL     OW 2872   0.598   2.591   3.994
  954SOL    HW1 2873   0.622   2.660   3.926
  954SOL    HW2 2874   0.520   2.624   4.048
  955SOL     OW 2875   1.281   2.207   4.668
  955SOL    HW1 2876   1.195   2.157   4.655
  955SOL    HW2 2877   1.343   2.153   4.724
  956SOL     OW 2878   1.576   3.524   4.031
  956SOL    HW1 2879   1.665   3.570   4.034
  956SOL    HW2 2880   1.555   3.500   3.936
  957SOL     OW 2881   1.041   2.563   4.153
  957SOL    HW1 2882   1.067   2.559   4.249
  957SOL    HW2 2883   0.956   2.512   4.139
  958SOL     OW 2884   0.076   2.673   4.513
  958SOL    HW1 2885   0.175   2.661   4.522
  958SOL    HW2 2886   0.052   2.768   4.534
  959SOL     OW 2887   0.865   2.210   3.919
  959SOL    HW1 2888   0.924   2.273   3.870
  959SOL    HW2 2889   0.884   2.116   3.890
  960SOL     OW 2890   1.362   3.006   4.269
  960SOL    HW1 2891   1.445   2.977   4.221
  960SOL    HW2 2892   1.313   3.073   4.213
  961SOL     OW 2893   1.008   3.318   4.201
  961SOL    HW1 2894   0.962   3.390   4.149
  961SOL    HW2 2895   1.004   3.338   4.299
  962SOL     OW 2896   0.351   3.663   4.577
  962SOL    HW1 2897   0.401   3.577   4.583
  962SOL    HW2 2898   0.416   3.740   4.574
  963SOL     OW 2899   1.795   2.928   4.597
  963SOL    HW1 2900   1.733   2.913   4.521
  963SOL    HW2 2901   1.743   2.939   4.682
  964SOL     OW 2902   0.321   2.805   3.966
  964SOL    HW1 2903   0.403   2.844   3.924
  964SOL    HW2 2904   0.294   2.723   3.917
  965SOL     OW 2905   1.111   3.638   3.961
  965SOL    HW1 2906   1.051   3.576   4.011
  965SOL    HW2 2907   1.142   3.594   3.876
  966SOL     OW 2908   1.632   3.239   3.805
  966SOL    HW1 2909   1.600   3.333   3.795
  966SOL    HW2 2910   1.556   3.176   3.793
  967SOL     OW 2911   0.464   3.605   4.047
  967SOL    HW1 2912   0.497   3.644   4.133
  967SOL    HW2 2913   0.540   3.598   3.982
  968SOL     OW 2914   1.400   1.969   4.150
  968SOL    HW1 2915   1.376   1.932   4.060
  968SOL    HW2 2916   1.499   1.985   4.154
  969SOL     OW 2917   0.940   3.560   4.628
  969SOL    HW1 2918   1.020   3.503   4.649
  969SOL    HW2 2919   0.891   3.520   4.551
  970SOL     OW 2920   0.382   2.562   4.204
  970SOL    HW1 2921   0.427   2.472   4.201
  970SOL    HW2 2922   0.288   2.551   4.237
  971SOL     OW 2923   0.614   1.984   3.841
  971SOL    HW1 2924   0.712   1.962   3.848
  971SOL    HW2 2925   0.583   1.967   3.748
  972SOL     OW 2926   0.539   1.926   4.236
  972SOL    HW1 2927   0.458   1.927   4.294
  972SOL    HW2 2928   0.542   2.009   4.181
  973SOL     OW 2929   1.434   3.050   3.765
  973SOL    HW1 2930   1.466   2.974   3.822
  973SOL    HW2 2931   1.342   3.077   3.795
  974SOL     OW 2932   0.297   1.897   3.895
  974SOL    HW1 2933   0.346   1.981   3.874
  974SOL    HW2 2934   0.359   1.832   3.940
  975SOL     OW 2935   0.935   2.098   4.204
  975SOL    HW1 2936   0.887   2.139   4.126
  975SOL    HW2 2937   1.034   2.096   4.185
  976SOL     OW 2938   0.459   3.014   4.465
  976SOL    HW1 2939   0.388   2.987   4.530
  976SOL    HW2 2940   0.433   2.986   4.372
  977SOL     OW 2941   1.271   3.659   4.315
  977SOL    HW1 2942   1.315   3.723   4.251
  977SOL    HW2 2943   1.221   3.711   4.385
  978SOL     OW 2944   1.032   2.411   3.740
  978SOL    HW1 2945   0.991   2.493   3.701
  978SOL    HW2 2946   1.096   2.437   3.813
  979SOL     OW 2947   0.866   2.316   4.366
  979SOL    HW1 2948   0.834   2.388   4.304
  979SOL    HW2 2949   0.890   2.235   4.313
  980SOL     OW 2950   1.857   2.695   4.101
  980SOL    HW1 2951   1.899   2.631   4.165
  980SOL    HW2 2952   1.819   2.644   4.023
  981SOL     OW 2953   0.488   3.247   3.898
  981SOL    HW1 2954   0.401   3.232   3.945
  981SOL    HW2 2955   0.471   3.273   3.803
  982SOL     OW 2956   1.664   3.142   4.381
  982SOL    HW1 2957   1.763   3.150   4.395
  982SOL    HW2 2958   1.619   3.226   4.412
  983SOL     OW 2959   1.390   2.437   3.802
  983SOL    HW1 2960   1.336   2.416   3.883
  983SOL    HW2 2961   1.481   2.396   3.811
  984SOL     OW 2962   0.527   2.118   4.052
  984SOL    HW1 2963   0.554   2.059   3.977
  984SOL    HW2 2964   0.527   2.213   4.021
  985SOL     OW 2965   1.111   3.057   4.824
  985SOL    HW1 2966   1.071   3.101   4.905
  985SOL    HW2 2967   1.070   3.094   4.741
  986SOL     OW 2968   0.705   2.912   4.092
  986SOL    HW1 2969   0.691   2.919   4.191
  986SOL    HW2 2970   0.789   2.861   4.074
  987SOL     OW 2971   0.367   2.962   4.225
  987SOL    HW1 2972   0.360   3.045   4.169
  987SOL    HW2 2973   0.371   2.882   4.165
  988SOL     OW 2974   1.252   3.210   4.112
  988SOL    HW1 2975   1.302   3.287   4.152
  988SOL    HW2 2976   1.157   3.212   4.144
  989SOL     OW 2977   1.582   2.501   4.196
  989SOL    HW1 2978   1.551   2.562   4.269
  989SOL    HW2 2979   1.632   2.553   4.127
  990SOL     OW 2980   1.209   2.387   3.999
  990SOL    HW1 2981   1.222   2.303   4.053
  990SOL    HW2 2982   1.180   2.461   4.059
  991SOL     OW 2983   0.307   1.925   4.342
  991SOL    HW1 2984   0.296   2.019   4.375
  991SOL    HW2 2985   0.302   1.862   4.419
  992SOL     OW 2986   1.622   2.229   4.098
  992SOL    HW1 2987   1.624   2.153   4.162
  992SOL    HW2 2988   1.574   2.306   4.138
  993SOL     OW 2989   1.540   2.136   3.849
  993SOL    HW1 2990   1.479   2.061   3.872
  993SOL    HW2 2991   1.562   2.188   3.932
  994SOL     OW 2992   1.303   2.700   3.766
  994SOL    HW1 2993   1.337   2.607   3.781
  994SOL    HW2 2994   1.321   2.727   3.671
  995SOL     OW 2995   0.008   3.188   3.924
  995SOL    HW1 2996  -0.085   3.209   3.893
  995SOL    HW2 2997   0.018   3.089   3.937
  996SOL     OW 2998   0.815   2.434   4.049
  996SOL    HW1 2999   0.822   2.345   4.003
  996SOL    HW2 3000   0.721   2.468   4.041
  997SOL     OW 3001   0.473   2.362   3.915
  997SOL    HW1 3002   0.534   2.442   3.919
  997SOL    HW2 3003   0.378   2.393   3.922
  998SOL     OW 3004   1.302   2.717   4.033
  998SOL    HW1 3005   1.216   2.686   4.075
  998SOL    HW2 3006   1.298   2.703   3.934
  999SOL     OW 3007   1.726   1.997   4.247
  999SOL    HW1 3008   1.799   1.980   4.180
  999SOL    HW2 3009   1.695   1.910   4.285
 1000SOL     OW 3010   1.388   3.435   4.201
 1000SOL    HW1 3011   1.455   3.447   4.127
 1000SOL    HW2 3012   1.348   3.524   4.224
 1001SOL     OW 3013   0.672   3.478   3.878
 1001SOL    HW1 3014   0.681   3.488   3.779
 1001SOL    HW2 3015   0.632   3.389   3.899
 1002SOL     OW 3016   1.194   3.474   3.755
 1002SOL    HW1 3017   1.200   3.381   3.792
 1002SOL    HW2 3018   1.135   3.474   3.675
 1003SOL     OW 3019   0.916   2.772   4.015
 1003SOL    HW1 3020   0.979   2.810   3.947
 1003SOL    HW2 3021   0.956   2.689   4.054
 1004SOL     OW 3022   1.504   3.469   3.768
 1004SOL    HW1 3023   1.412   3.506   3.775
 1004SOL    HW2 3024   1.542   3.489   3.678
 1005SOL     OW 3025   0.590   3.349   4.215
 1005SOL    HW1 3026   0.632   3.291   4.145
 1005SOL    HW2 3027   0.546   3.428   4.171
 1006SOL     OW 3028   0.255   3.210   4.014
 1006SOL    HW1 3029   0.159   3.211   3.987
 1006SOL    HW2 3030   0.267   3.263   4.098
 1007SOL     OW 3031   0.075   2.207   3.757
 1007SOL    HW1 3032  -0.017   2.179   3.728
 1007SOL    HW2 3033   0.106   2.284   3.701
 1008SOL     OW 3034   0.072   2.028   4.042
 1008SOL    HW1 3035   0.055   2.111   3.988
 1008SOL    HW2 3036   0.162   1.991   4.020
 1009SOL     OW 3037   1.183   3.197   3.843
 1009SOL    HW1 3038   1.084   3.186   3.845
 1009SOL    HW2 3039   1.217   3.212   3.936
 1010SOL     OW 3040   1.225   2.187   4.173
 1010SOL    HW1 3041   1.290   2.113   4.162
 1010SOL    HW2 3042   1.245   2.237   4.257
 1011SOL     OW 3043   0.594   2.607   4.376
 1011SOL    HW1 3044   0.644   2.692   4.357
 1011SOL    HW2 3045   0.506   2.609   4.328
 1012SOL     OW 3046   0.859   3.236   3.740
 1012SOL    HW1 3047   0.813   3.251   3.828
 1012SOL    HW2 3048   0.903   3.321   3.710
 1013SOL     OW 3049   0.661   3.652   4.677
 1013SOL    HW1 3050   0.615   3.740   4.664
 1013SOL    HW2 3051   0.760   3.664   4.670
 1014SOL     OW 3052   0.859   2.818   4.585
 1014SOL    HW1 3053   0.913   2.749   4.633
 1014SOL    HW2 3054   0.827   2.887   4.651
 1015SOL     OW 3055   1.083   2.846   3.811
 1015SOL    HW1 3056   1.060   2.899   3.729
 1015SOL    HW2 3057   1.164   2.790   3.792
 1016SOL     OW 3058   0.079   3.102   4.377
 1016SOL    HW1 3059   0.078   3.055   4.465
 1016SOL    HW2 3060   0.161   3.074   4.326
 1017SOL     OW 3061   0.428   2.286   4.244
 1017SOL    HW1 3062   0.458   2.214   4.182
 1017SOL    HW2 3063   0.389   2.246   4.327
 1018SOL     OW 3064   0.812   3.448   4.411
 1018SOL    HW1 3065   0.844   3.458   4.317
 1018SOL    HW2 3066   0.733   3.386   4.413
 1019SOL     OW 3067   0.770   3.192   4.025
 1019SOL    HW1 3068   0.724   3.105   4.042
 1019SOL    HW2 3069   0.861   3.189   4.066
 1020SOL     OW 3070   1.352   1.914   3.892
 1020SOL    HW1 3071   1.387   1.873   3.808
 1020SOL    HW2 3072   1.262   1.876   3.912
 1021SOL     OW 3073   1.300   2.315   4.415
 1021SOL    HW1 3074   1.241   2.395   4.419
 1021SOL    HW2 3075   1.315   2.280   4.508
 1022SOL     OW 3076   0.039   2.939   4.024
 1022SOL    HW1 3077   0.138   2.928   4.015
 1022SOL    HW2 3078  -0.001   2.853   4.056
 1023SOL     OW 3079   0.875   3.508   4.061
 1023SOL    HW1 3080   0.798   3.473   4.007
 1023SOL    HW2 3081   0.843   3.579   4.123
 1024SOL     OW 3082   0.230   4.352   0.113
 1024SOL    HW1 3083   0.137   4.350   0.150
 1024SOL    HW2 3084   0.231   4.313   0.021
 1025SOL     OW 3085   0.225   3.999   0.996
 1025SOL    HW1 3086   0.260   3.982   1.088
 1025SOL    HW2 3087   0.137   3.954   0.984
 1026SOL     OW 3088   0.019   4.092   0.647
 1026SOL    HW1 3089  -0.063   4.135   0.686
 1026SOL    HW2 3090  -0.009   4.019   0.584
 1027SOL     OW 3091   1.755   4.331   0.231
 1027SOL    HW1 3092   1.743   4.318   0.132
 1027SOL    HW2 3093   1.725   4.250   0.280
 1028SOL     OW 3094   0.850   4.522   1.823
 1028SOL    HW1 3095   0.846   4.598   1.888
 1028SOL    HW2 3096   0.872   4.558   1.732
 1029SOL     OW 3097   0.685   4.736   0.665
 1029SOL    HW1 3098   0.754   4.720   0.735
 1029SOL    HW2 3099   0.612   4.793   0.703
 1030SOL     OW 3100   0.438   4.116   1.499
 1030SOL    HW1 3101   0.520   4.060   1.508
 1030SOL    HW2 3102   0.357   4.058   1.503
 1031SOL     OW 3103   1.603   4.171   0.737
 1031SOL    HW1 3104   1.529   4.217   0.687
 1031SOL    HW2 3105   1.654   4.239   0.790
 1032SOL     OW 3106   1.594   3.838   1.480
 1032SOL    HW1 3107   1.576   3.905   1.408
 1032SOL    HW2 3108   1.591   3.884   1.569
 1033SOL     OW 3109   0.122   4.367   0.563
 1033SOL    HW1 3110   0.077   4.279   0.580
 1033SOL    HW2 3111   0.121   4.421   0.647
 1034SOL     OW 3112   0.113   4.461   1.597
 1034SOL    HW1 3113   0.201   4.448   1.642
 1034SOL    HW2 3114   0.100   4.558   1.575
 1035SOL     OW 3115   0.809   3.728   0.502
 1035SOL    HW1 3116   0.849   3.819   0.493
 1035SOL    HW2 3117   0.709   3.736   0.508
 1036SOL     OW 3118   0.317   3.975   1.801
 1036SOL    HW1 3119   0.388   4.046   1.807
 1036SOL    HW2 3120   0.229   4.014   1.829
 1037SOL     OW 3121   1.281   4.069   0.944
 1037SOL    HW1 3122   1.195   4.019   0.931
 1037SOL    HW2 3123   1.343   4.015   1.000
 1038SOL     OW 3124   0.807   4.329   1.465
 1038SOL    HW1 3125   0.760   4.326   1.554
 1038SOL    HW2 3126   0.756   4.274   1.399
 1039SOL     OW 3127   1.394   4.193   1.674
 1039SOL    HW1 3128   1.374   4.236   1.762
 1039SOL    HW2 3129   1.472   4.131   1.683
 1040SOL     OW 3130   0.991   4.134   1.242
 1040SOL    HW1 3131   0.914   4.168   1.296
 1040SOL    HW2 3132   0.957   4.083   1.163
 1041SOL     OW 3133   1.041   4.425   0.429
 1041SOL    HW1 3134   1.067   4.421   0.525
 1041SOL    HW2 3135   0.956   4.374   0.415
 1042SOL     OW 3136   0.076   4.535   0.789
 1042SOL    HW1 3137   0.175   4.523   0.798
 1042SOL    HW2 3138   0.052   4.630   0.810
 1043SOL     OW 3139   0.865   4.072   0.195
 1043SOL    HW1 3140   0.924   4.135   0.146
 1043SOL    HW2 3141   0.884   3.978   0.166
 1044SOL     OW 3142   1.719   4.309   1.831
 1044SOL    HW1 3143   1.693   4.398   1.795
 1044SOL    HW2 3144   1.717   4.241   1.758
 1045SOL     OW 3145   0.550   3.920   0.885
 1045SOL    HW1 3146   0.545   3.915   0.985
 1045SOL    HW2 3147   0.552   4.016   0.856
 1046SOL     OW 3148   1.458   4.459   0.728
 1046SOL    HW1 3149   1.453   4.394   0.803
 1046SOL    HW2 3150   1.538   4.518   0.741
 1047SOL     OW 3151   0.202   4.009   1.498
 1047SOL    HW1 3152   0.122   4.069   1.485
 1047SOL    HW2 3153   0.192   3.960   1.584
 1048SOL     OW 3154   1.400   3.831   0.426
 1048SOL    HW1 3155   1.376   3.794   0.336
 1048SOL    HW2 3156   1.499   3.847   0.430
 1049SOL     OW 3157   0.382   4.424   0.480
 1049SOL    HW1 3158   0.427   4.334   0.477
 1049SOL    HW2 3159   0.288   4.413   0.513
 1050SOL     OW 3160   1.547   3.946   1.729
 1050SOL    HW1 3161   1.542   3.983   1.821
 1050SOL    HW2 3162   1.475   3.877   1.717
 1051SOL     OW 3163   0.781   3.988   1.749
 1051SOL    HW1 3164   0.848   3.927   1.792
 1051SOL    HW2 3165   0.708   4.007   1.814
 1052SOL     OW 3166   1.351   4.314   1.433
 1052SOL    HW1 3167   1.379   4.271   1.518
 1052SOL    HW2 3168   1.376   4.410   1.434
 1053SOL     OW 3169   0.922   4.227   0.899
 1053SOL    HW1 3170   0.897   4.218   0.803
 1053SOL    HW2 3171   0.970   4.145   0.930
 1054SOL     OW 3172   0.539   3.788   0.512
 1054SOL    HW1 3173   0.458   3.789   0.570
 1054SOL    HW2 3174   0.542   3.871   0.457
 1055SOL     OW 3175   0.935   3.960   0.480
 1055SOL    HW1 3176   0.887   4.001   0.402
 1055SOL    HW2 3177   1.034   3.958   0.461
 1056SOL     OW 3178   1.076   4.407   1.464
 1056SOL    HW1 3179   0.996   4.346   1.467
 1056SOL    HW2 3180   1.157   4.354   1.440
 1057SOL     OW 3181   1.032   4.273   0.016
 1057SOL    HW1 3182   0.991   4.355  -0.023
 1057SOL    HW2 3183   1.096   4.299   0.089
 1058SOL     OW 3184   0.078   4.280   1.386
 1058SOL    HW1 3185   0.170   4.279   1.345
 1058SOL    HW2 3186   0.072   4.354   1.453
 1059SOL     OW 3187   0.561   3.946   1.147
 1059SOL    HW1 3188   0.599   3.862   1.184
 1059SOL    HW2 3189   0.473   3.965   1.191
 1060SOL     OW 3190   0.866   4.178   0.642
 1060SOL    HW1 3191   0.834   4.250   0.580
 1060SOL    HW2 3192   0.890   4.097   0.589
 1061SOL     OW 3193   1.017   3.763   0.753
 1061SOL    HW1 3194   0.945   3.768   0.684
 1061SOL    HW2 3195   0.993   3.694   0.822
 1062SOL     OW 3196   1.466   4.314   0.992
 1062SOL    HW1 3197   1.436   4.219   0.999
 1062SOL    HW2 3198   1.539   4.330   1.058
 1063SOL     OW 3199   1.390   4.299   0.078
 1063SOL    HW1 3200   1.336   4.278   0.159
 1063SOL    HW2 3201   1.481   4.258   0.087
 1064SOL     OW 3202   0.527   3.980   0.328
 1064SOL    HW1 3203   0.554   3.921   0.253
 1064SOL    HW2 3204   0.527   4.075   0.297
 1065SOL     OW 3205   0.915   3.813   1.402
 1065SOL    HW1 3206   0.940   3.793   1.307
 1065SOL    HW2 3207   0.987   3.869   1.444
 1066SOL     OW 3208   0.410   4.537   1.251
 1066SOL    HW1 3209   0.496   4.549   1.301
 1066SOL    HW2 3210   0.368   4.450   1.278
 1067SOL     OW 3211   1.274   4.110   1.262
 1067SOL    HW1 3212   1.295   4.184   1.326
 1067SOL    HW2 3213   1.185   4.127   1.219
 1068SOL     OW 3214   0.566   4.261   0.865
 1068SOL    HW1 3215   0.578   4.327   0.791
 1068SOL    HW2 3216   0.612   4.295   0.948
 1069SOL     OW 3217   1.582   4.363   0.472
 1069SOL    HW1 3218   1.551   4.424   0.545
 1069SOL    HW2 3219   1.632   4.415   0.403
 1070SOL     OW 3220   1.587   4.503   1.670
 1070SOL    HW1 3221   1.495   4.541   1.665
 1070SOL    HW2 3222   1.647   4.550   1.605
 1071SOL     OW 3223   1.013   3.829   1.770
 1071SOL    HW1 3224   1.019   3.914   1.718
 1071SOL    HW2 3225   1.045   3.753   1.713
 1072SOL     OW 3226   0.504   3.774   1.740
 1072SOL    HW1 3227   0.462   3.717   1.670
 1072SOL    HW2 3228   0.438   3.843   1.772
 1073SOL     OW 3229   1.209   4.249   0.275
 1073SOL    HW1 3230   1.222   4.165   0.329
 1073SOL    HW2 3231   1.180   4.323   0.335
 1074SOL     OW 3232   0.307   3.937   1.231
 1074SOL    HW1 3233   0.284   3.974   1.321
 1074SOL    HW2 3234   0.277   3.842   1.225
 1075SOL     OW 3235   0.732   4.358   1.064
 1075SOL    HW1 3236   0.791   4.332   0.988
 1075SOL    HW2 3237   0.704   4.454   1.053
 1076SOL     OW 3238   1.728   4.659   1.854
 1076SOL    HW1 3239   1.682   4.652   1.765
 1076SOL    HW2 3240   1.666   4.703   1.920
 1077SOL     OW 3241   0.307   3.787   0.618
 1077SOL    HW1 3242   0.296   3.881   0.651
 1077SOL    HW2 3243   0.302   3.724   0.695
 1078SOL     OW 3244   1.622   4.091   0.374
 1078SOL    HW1 3245   1.624   4.015   0.438
 1078SOL    HW2 3246   1.574   4.168   0.414
 1079SOL     OW 3247   1.540   3.998   0.125
 1079SOL    HW1 3248   1.479   3.923   0.148
 1079SOL    HW2 3249   1.562   4.050   0.208
 1080SOL     OW 3250   0.319   4.534   0.949
 1080SOL    HW1 3251   0.412   4.570   0.954
 1080SOL    HW2 3252   0.313   4.449   1.001
 1081SOL     OW 3253   0.339   4.233   1.006
 1081SOL    HW1 3254   0.287   4.150   0.989
 1081SOL    HW2 3255   0.416   4.238   0.942
 1082SOL     OW 3256   1.138   4.104   1.678
 1082SOL    HW1 3257   1.093   4.167   1.742
 1082SOL    HW2 3258   1.231   4.135   1.661
 1083SOL     OW 3259   1.160   3.931   1.477
 1083SOL    HW1 3260   1.160   3.995   1.554
 1083SOL    HW2 3261   1.188   3.979   1.394
 1084SOL     OW 3262   0.040   4.268   1.114
 1084SOL    HW1 3263   0.125   4.235   1.073
 1084SOL    HW2 3264   0.053   4.283   1.212
 1085SOL     OW 3265   0.189   4.244   1.722
 1085SOL    HW1 3266   0.248   4.204   1.652
 1085SOL    HW2 3267   0.131   4.315   1.681
 1086SOL     OW 3268   0.815   4.296   0.325
 1086SOL    HW1 3269   0.822   4.207   0.279
 1086SOL    HW2 3270   0.721   4.330   0.317
 1087SOL     OW 3271   1.657   4.328   1.206
 1087SOL    HW1 3272   1.619   4.259   1.268
 1087SOL    HW2 3273   1.739   4.292   1.162
 1088SOL     OW 3274   0.671   4.188   1.269
 1088SOL    HW1 3275   0.637   4.099   1.239
 1088SOL    HW2 3276   0.697   4.242   1.189
 1089SOL     OW 3277   0.473   4.224   0.191
 1089SOL    HW1 3278   0.534   4.304   0.195
 1089SOL    HW2 3279   0.378   4.255   0.198
 1090SOL     OW 3280   0.903   3.810   0.133
 1090SOL    HW1 3281   0.954   3.811   0.047
 1090SOL    HW2 3282   0.959   3.768   0.204
 1091SOL     OW 3283   1.726   3.859   0.523
 1091SOL    HW1 3284   1.799   3.842   0.456
 1091SOL    HW2 3285   1.695   3.772   0.561
 1092SOL     OW 3286   1.280   4.651   0.672
 1092SOL    HW1 3287   1.340   4.570   0.674
 1092SOL    HW2 3288   1.320   4.720   0.612
 1093SOL     OW 3289   1.841   3.899   0.963
 1093SOL    HW1 3290   1.880   3.814   0.927
 1093SOL    HW2 3291   1.743   3.901   0.944
 1094SOL     OW 3292   0.263   4.050   0.720
 1094SOL    HW1 3293   0.184   4.101   0.686
 1094SOL    HW2 3294   0.254   4.035   0.818
 1095SOL     OW 3295   1.039   4.822   0.696
 1095SOL    HW1 3296   0.969   4.775   0.750
 1095SOL    HW2 3297   1.098   4.754   0.653
 1096SOL     OW 3298   1.014   3.960   0.971
 1096SOL    HW1 3299   1.006   3.924   0.878
 1096SOL    HW2 3300   1.012   3.884   1.036
 1097SOL     OW 3301   1.709   4.109   1.381
 1097SOL    HW1 3302   1.782   4.178   1.385
 1097SOL    HW2 3303   1.737   4.034   1.322
 1098SOL     OW 3304   0.672   3.927   1.489
 1098SOL    HW1 3305   0.762   3.911   1.449
 1098SOL    HW2 3306   0.680   3.932   1.588
 1099SOL     OW 3307   0.075   4.069   0.033
 1099SOL    HW1 3308  -0.017   4.041   0.004
 1099SOL    HW2 3309   0.106   4.146  -0.023
 1100SOL     OW 3310   0.072   3.890   0.318
 1100SOL    HW1 3311   0.055   3.973   0.264
 1100SOL    HW2 3312   0.162   3.853   0.296
 1101SOL     OW 3313   0.716   4.289   1.708
 1101SOL    HW1 3314   0.735   4.354   1.782
 1101SOL    HW2 3315   0.776   4.209   1.717
 1102SOL     OW 3316   1.225   4.049   0.449
 1102SOL    HW1 3317   1.290   3.975   0.438
 1102SOL    HW2 3318   1.245   4.099   0.533
 1103SOL     OW 3319   1.777   4.066   1.642
 1103SOL    HW1 3320   1.760   4.097   1.548
 1103SOL    HW2 3321   1.693   4.029   1.680
 1104SOL     OW 3322   1.083   4.708   0.087
 1104SOL    HW1 3323   1.060   4.761   0.005
 1104SOL    HW2 3324   1.164   4.652   0.068
 1105SOL     OW 3325   1.824   3.916   1.227
 1105SOL    HW1 3326   1.820   3.826   1.271
 1105SOL    HW2 3327   1.827   3.905   1.128
 1106SOL     OW 3328   0.428   4.148   0.520
 1106SOL    HW1 3329   0.458   4.076   0.458
 1106SOL    HW2 3330   0.389   4.108   0.603
 1107SOL     OW 3331   0.317   4.271   1.280
 1107SOL    HW1 3332   0.355   4.212   1.352
 1107SOL    HW2 3333   0.357   4.245   1.192
 1108SOL     OW 3334   1.424   3.938   1.112
 1108SOL    HW1 3335   1.476   3.873   1.167
 1108SOL    HW2 3336   1.375   4.001   1.173
 1109SOL     OW 3337   1.001   3.758   1.154
 1109SOL    HW1 3338   0.938   3.686   1.123
 1109SOL    HW2 3339   1.094   3.722   1.154
 1110SOL     OW 3340   1.352   3.776   0.168
 1110SOL    HW1 3341   1.387   3.735   0.084
 1110SOL    HW2 3342   1.262   3.738   0.188
 1111SOL     OW 3343   1.300   4.177   0.691
 1111SOL    HW1 3344   1.241   4.257   0.695
 1111SOL    HW2 3345   1.315   4.142   0.784
 1112SOL     OW 3346   1.593   3.945   0.882
 1112SOL    HW1 3347   1.509   3.944   0.936
 1112SOL    HW2 3348   1.595   4.028   0.826
 1113SOL     OW 3349   0.230   4.352   1.975
 1113SOL    HW1 3350   0.137   4.350   2.012
 1113SOL    HW2 3351   0.231   4.313   1.883
 1114SOL     OW 3352   0.225   3.999   2.858
 1114SOL    HW1 3353   0.260   3.982   2.950
 1114SOL    HW2 3354   0.137   3.954   2.846
 1115SOL     OW 3355   0.019   4.092   2.509
 1115SOL    HW1 3356  -0.063   4.135   2.548
 1115SOL    HW2 3357  -0.009   4.019   2.446
 1116SOL     OW 3358   1.755   4.331   2.093
 1116SOL    HW1 3359   1.743   4.318   1.994
 1116SOL    HW2 3360   1.725   4.250   2.142
 1117SOL     OW 3361   0.850   4.522   3.685
 1117SOL    HW1 3362   0.846   4.598   3.750
 1117SOL    HW2 3363   0.872   4.558   3.594
 1118SOL     OW 3364   0.685   4.736   2.527
 1118SOL    HW1 3365   0.754   4.720   2.597
 1118SOL    HW2 3366   0.612   4.793   2.565
 1119SOL     OW 3367   0.438   4.116   3.361
 1119SOL    HW1 3368   0.520   4.060   3.370
 1119SOL    HW2 3369   0.357   4.058   3.365
 1120SOL     OW 3370   1.603   4.171   2.599
 1120SOL    HW1 3371   1.529   4.217   2.549
 1120SOL    HW2 3372   1.654   4.239   2.652
 1121SOL     OW 3373   1.594   3.838   3.342
 1121SOL    HW1 3374   1.576   3.905   3.270
 1121SOL    HW2 3375   1.591   3.884   3.431
 1122SOL     OW 3376   0.122   4.367   2.425
 1122SOL    HW1 3377   0.077   4.279   2.442
 1122SOL    HW2 3378   0.121   4.421   2.509
 1123SOL     OW 3379   0.113   4.461   3.459
 1123SOL    HW1 3380   0.201   4.448   3.504
 1123SOL    HW2 3381   0.100   4.558   3.437
 1124SOL     OW 3382   0.809   3.728   2.364
 1124SOL    HW1 3383   0.849   3.819   2.355
 1124SOL    HW2 3384   0.709   3.736   2.370
 1125SOL     OW 3385   0.317   3.975   3.663
 1125SOL    HW1 3386   0.388   4.046   3.669
 1125SOL    HW2 3387   0.229   4.014   3.691
 1126SOL     OW 3388   1.281   4.069   2.806
 1126SOL    HW1 3389   1.195   4.019   2.793
 1126SOL    HW2 3390   1.343   4.015   2.862
 1127SOL     OW 3391   0.807   4.329   3.327
 1127SOL    HW1 3392   0.760   4.326   3.416
 1127SOL    HW2 3393   0.756   4.274   3.261
 1128SOL     OW 3394   1.394   4.193   3.536
 1128SOL    HW1 3395   1.374   4.236   3.624
 1128SOL    HW2 3396   1.472   4.131   3.545
 1129SOL     OW 3397   0.991   4.134   3.104
 1129SOL    HW1 3398   0.914   4.168   3.158
 1129SOL    HW2 3399   0.957   4.083   3.025
 1130SOL     OW 3400   1.041   4.425   2.291
 1130SOL    HW1 3401   1.067   4.421   2.387
 1130SOL    HW2 3402   0.956   4.374   2.277
 1131SOL     OW 3403   0.076   4.535   2.651
 1131SOL    HW1 3404   0.175   4.523   2.660
 1131SOL    HW2 3405   0.052   4.630   2.672
 1132SOL     OW 3406   0.865   4.072   2.057
 1132SOL    HW1 3407   0.924   4.135   2.008
 1132SOL    HW2 3408   0.884   3.978   2.028
 1133SOL     OW 3409   1.719   4.309   3.693
 1133SOL    HW1 3410   1.693   4.398   3.657
 1133SOL    HW2 3411   1.717   4.241   3.620
 1134SOL     OW 3412   0.550   3.920   2.747
 1134SOL    HW1 3413   0.545   3.915   2.847
 1134SOL    HW2 3414   0.552   4.016   2.718
 1135SOL     OW 3415   1.458   4.459   2.590
 1135SOL    HW1 3416   1.453   4.394   2.665
 1135SOL    HW2 3417   1.538   4.518   2.603
 1136SOL     OW 3418   0.202   4.009   3.360
 1136SOL    HW1 3419   0.122   4.069   3.347
 1136SOL    HW2 3420   0.192   3.960   3.446
 1137SOL     OW 3421   1.400   3.831   2.288
 1137SOL    HW1 3422   1.376   3.794   2.198
 1137SOL    HW2 3423   1.499   3.847   2.292
 1138SOL     OW 3424   0.382   4.424   2.342
 1138SOL    HW1 3425   0.427   4.334   2.339
 1138SOL    HW2 3426   0.288   4.413   2.375
 1139SOL     OW 3427   1.547   3.946   3.591
 1139SOL    HW1 3428   1.542   3.983   3.683
 1139SOL    HW2 3429   1.475   3.877   3.579
 1140SOL     OW 3430   0.614   3.846   1.979
 1140SOL    HW1 3431   0.712   3.824   1.986
 1140SOL    HW2 3432   0.583   3.829   1.886
 1141SOL     OW 3433   0.781   3.988   3.611
 1141SOL    HW1 3434   0.848   3.927   3.654
 1141SOL    HW2 3435   0.708   4.007   3.676
 1142SOL     OW 3436   1.351   4.314   3.295
 1142SOL    HW1 3437   1.379   4.271   3.380
 1142SOL    HW2 3438   1.376   4.410   3.296
 1143SOL     OW 3439   0.922   4.227   2.761
 1143SOL    HW1 3440   0.897   4.218   2.665
 1143SOL    HW2 3441   0.970   4.145   2.792
 1144SOL     OW 3442   0.539   3.788   2.374
 1144SOL    HW1 3443   0.458   3.789   2.432
 1144SOL    HW2 3444   0.542   3.871   2.319
 1145SOL     OW 3445   0.297   3.759   2.033
 1145SOL    HW1 3446   0.346   3.843   2.012
 1145SOL    HW2 3447   0.359   3.694   2.078
 1146SOL     OW 3448   0.935   3.960   2.342
 1146SOL    HW1 3449   0.887   4.001   2.264
 1146SOL    HW2 3450   1.034   3.958   2.323
 1147SOL     OW 3451   1.076   4.407   3.326
 1147SOL    HW1 3452   0.996   4.346   3.329
 1147SOL    HW2 3453   1.157   4.354   3.302
 1148SOL     OW 3454   1.032   4.273   1.878
 1148SOL    HW1 3455   0.991   4.355   1.839
 1148SOL    HW2 3456   1.096   4.299   1.951
 1149SOL     OW 3457   0.078   4.280   3.248
 1149SOL    HW1 3458   0.170   4.279   3.207
 1149SOL    HW2 3459   0.072   4.354   3.315
 1150SOL     OW 3460   0.561   3.946   3.009
 1150SOL    HW1 3461   0.599   3.862   3.046
 1150SOL    HW2 3462   0.473   3.965   3.053
 1151SOL     OW 3463   0.866   4.178   2.504
 1151SOL    HW1 3464   0.834   4.250   2.442
 1151SOL    HW2 3465   0.890   4.097   2.451
 1152SOL     OW 3466   1.017   3.763   2.615
 1152SOL    HW1 3467   0.945   3.768   2.546
 1152SOL    HW2 3468   0.993   3.694   2.684
 1153SOL     OW 3469   1.466   4.314   2.854
 1153SOL    HW1 3470   1.436   4.219   2.861
 1153SOL    HW2 3471   1.539   4.330   2.920
 1154SOL     OW 3472   1.390   4.299   1.940
 1154SOL    HW1 3473   1.336   4.278   2.021
 1154SOL    HW2 3474   1.481   4.258   1.949
 1155SOL     OW 3475   0.527   3.980   2.190
 1155SOL    HW1 3476   0.554   3.921   2.115
 1155SOL    HW2 3477   0.527   4.075   2.159
 1156SOL     OW 3478   0.915   3.813   3.264
 1156SOL    HW1 3479   0.940   3.793   3.169
 1156SOL    HW2 3480   0.987   3.869   3.306
 1157SOL     OW 3481   0.410   4.537   3.113
 1157SOL    HW1 3482   0.496   4.549   3.163
 1157SOL    HW2 3483   0.368   4.450   3.140
 1158SOL     OW 3484   1.274   4.110   3.124
 1158SOL    HW1 3485   1.295   4.184   3.188
 1158SOL    HW2 3486   1.185   4.127   3.081
 1159SOL     OW 3487   0.566   4.261   2.727
 1159SOL    HW1 3488   0.578   4.327   2.653
 1159SOL    HW2 3489   0.612   4.295   2.810
 1160SOL     OW 3490   1.582   4.363   2.334
 1160SOL    HW1 3491   1.551   4.424   2.407
 1160SOL    HW2 3492   1.632   4.415   2.265
 1161SOL     OW 3493   1.587   4.503   3.532
 1161SOL    HW1 3494   1.495   4.541   3.527
 1161SOL    HW2 3495   1.647   4.550   3.467
 1162SOL     OW 3496   1.013   3.829   3.632
 1162SOL    HW1 3497   1.019   3.914   3.580
 1162SOL    HW2 3498   1.045   3.753   3.575
 1163SOL     OW 3499   0.504   3.774   3.602
 1163SOL    HW1 3500   0.462   3.717   3.532
 1163SOL    HW2 3501   0.438   3.843   3.634
 1164SOL     OW 3502   1.209   4.249   2.137
 1164SOL    HW1 3503   1.222   4.165   2.191
 1164SOL    HW2 3504   1.180   4.323   2.197
 1165SOL     OW 3505   0.307   3.937   3.093
 1165SOL    HW1 3506   0.284   3.974   3.183
 1165SOL    HW2 3507   0.277   3.842   3.087
 1166SOL     OW 3508   0.732   4.358   2.926
 1166SOL    HW1 3509   0.791   4.332   2.850
 1166SOL    HW2 3510   0.704   4.454   2.915
 1167SOL     OW 3511   1.728   4.659   3.716
 1167SOL    HW1 3512   1.682   4.652   3.627
 1167SOL    HW2 3513   1.666   4.703   3.782
 1168SOL     OW 3514   0.307   3.787   2.480
 1168SOL    HW1 3515   0.296   3.881   2.513
 1168SOL    HW2 3516   0.302   3.724   2.557
 1169SOL     OW 3517   1.622   4.091   2.236
 1169SOL    HW1 3518   1.624   4.015   2.300
 1169SOL    HW2 3519   1.574   4.168   2.276
 1170SOL     OW 3520   1.540   3.998   1.987
 1170SOL    HW1 3521   1.479   3.923   2.010
 1170SOL    HW2 3522   1.562   4.050   2.070
 1171SOL     OW 3523   0.319   4.534   2.811
 1171SOL    HW1 3524   0.412   4.570   2.816
 1171SOL    HW2 3525   0.313   4.449   2.863
 1172SOL     OW 3526   0.339   4.233   2.868
 1172SOL    HW1 3527   0.287   4.150   2.851
 1172SOL    HW2 3528   0.416   4.238   2.804
 1173SOL     OW 3529   1.138   4.104   3.540
 1173SOL    HW1 3530   1.093   4.167   3.604
 1173SOL    HW2 3531   1.231   4.135   3.523
 1174SOL     OW 3532   1.160   3.931   3.339
 1174SOL    HW1 3533   1.160   3.995   3.416
 1174SOL    HW2 3534   1.188   3.979   3.256
 1175SOL     OW 3535   0.040   4.268   2.976
 1175SOL    HW1 3536   0.125   4.235   2.935
 1175SOL    HW2 3537   0.053   4.283   3.074
 1176SOL     OW 3538   0.189   4.244   3.584
 1176SOL    HW1 3539   0.248   4.204   3.514
 1176SOL    HW2 3540   0.131   4.315   3.543
 1177SOL     OW 3541   0.815   4.296   2.187
 1177SOL    HW1 3542   0.822   4.207   2.141
 1177SOL    HW2 3543   0.721   4.330   2.179
 1178SOL     OW 3544   1.657   4.328   3.068
 1178SOL    HW1 3545   1.619   4.259   3.130
 1178SOL    HW2 3546   1.739   4.292   3.024
 1179SOL     OW 3547   0.671   4.188   3.131
 1179SOL    HW1 3548   0.637   4.099   3.101
 1179SOL    HW2 3549   0.697   4.242   3.051
 1180SOL     OW 3550   0.473   4.224   2.053
 1180SOL    HW1 3551   0.534   4.304   2.057
 1180SOL    HW2 3552   0.378   4.255   2.060
 1181SOL     OW 3553   1.726   3.859   2.385
 1181SOL    HW1 3554   1.799   3.842   2.318
 1181SOL    HW2 3555   1.695   3.772   2.423
 1182SOL     OW 3556   1.280   4.651   2.534
 1182SOL    HW1 3557   1.340   4.570   2.536
 1182SOL    HW2 3558   1.320   4.720   2.474
 1183SOL     OW 3559   1.841   3.899   2.825
 1183SOL    HW1 3560   1.880   3.814   2.789
 1183SOL    HW2 3561   1.743   3.901   2.806
 1184SOL     OW 3562   0.263   4.050   2.582
 1184SOL    HW1 3563   0.184   4.101   2.548
 1184SOL    HW2 3564   0.254   4.035   2.680
 1185SOL     OW 3565   0.916   4.634   2.153
 1185SOL    HW1 3566   0.979   4.672   2.085
 1185SOL    HW2 3567   0.956   4.551   2.192
 1186SOL     OW 3568   1.039   4.822   2.558
 1186SOL    HW1 3569   0.969   4.775   2.612
 1186SOL    HW2 3570   1.098   4.754   2.515
 1187SOL     OW 3571   1.014   3.960   2.833
 1187SOL    HW1 3572   1.006   3.924   2.740
 1187SOL    HW2 3573   1.012   3.884   2.898
 1188SOL     OW 3574   1.709   4.109   3.243
 1188SOL    HW1 3575   1.782   4.178   3.247
 1188SOL    HW2 3576   1.737   4.034   3.184
 1189SOL     OW 3577   0.672   3.927   3.351
 1189SOL    HW1 3578   0.762   3.911   3.311
 1189SOL    HW2 3579   0.680   3.932   3.450
 1190SOL     OW 3580   0.075   4.069   1.895
 1190SOL    HW1 3581  -0.017   4.041   1.866
 1190SOL    HW2 3582   0.106   4.146   1.839
 1191SOL     OW 3583   0.072   3.890   2.180
 1191SOL    HW1 3584   0.055   3.973   2.126
 1191SOL    HW2 3585   0.162   3.853   2.158
 1192SOL     OW 3586   0.716   4.289   3.570
 1192SOL    HW1 3587   0.735   4.354   3.644
 1192SOL    HW2 3588   0.776   4.209   3.579
 1193SOL     OW 3589   1.225   4.049   2.311
 1193SOL    HW1 3590   1.290   3.975   2.300
 1193SOL    HW2 3591   1.245   4.099   2.395
 1194SOL     OW 3592   1.777   4.066   3.504
 1194SOL    HW1 3593   1.760   4.097   3.410
 1194SOL    HW2 3594   1.693   4.029   3.542
 1195SOL     OW 3595   1.083   4.708   1.949
 1195SOL    HW1 3596   1.060   4.761   1.867
 1195SOL    HW2 3597   1.164   4.652   1.930
 1196SOL     OW 3598   1.824   3.916   3.089
 1196SOL    HW1 3599   1.820   3.826   3.133
 1196SOL    HW2 3600   1.827   3.905   2.990
 1197SOL     OW 3601   0.428   4.148   2.382
 1197SOL    HW1 3602   0.458   4.076   2.320
 1197SOL    HW2 3603   0.389   4.108   2.465
 1198SOL     OW 3604   0.317   4.271   3.142
 1198SOL    HW1 3605   0.355   4.212   3.214
 1198SOL    HW2 3606   0.357   4.245   3.054
 1199SOL     OW 3607   1.424   3.938   2.974
 1199SOL    HW1 3608   1.476   3.873   3.029
 1199SOL    HW2 3609   1.375   4.001   3.035
 1200SOL     OW 3610   1.001   3.758   3.016
 1200SOL    HW1 3611   0.938   3.686   2.985
 1200SOL    HW2 3612   1.094   3.722   3.016
 1201SOL     OW 3613   1.352   3.776   2.030
 1201SOL    HW1 3614   1.387   3.735   1.946
 1201SOL    HW2 3615   1.262   3.738   2.050
 1202SOL     OW 3616   1.300   4.177   2.553
 1202SOL    HW1 3617   1.241   4.257   2.557
 1202SOL    HW2 3618   1.315   4.142   2.646
 1203SOL     OW 3619   1.593   3.945   2.744
 1203SOL    HW1 3620   1.509   3.944   2.798
 1203SOL    HW2 3621   1.595   4.028   2.688
 1204SOL     OW 3622   0.230   4.352   3.837
 1204SOL    HW1 3623   0.137   4.350   3.874
 1204SOL    HW2 3624   0.231   4.313   3.745
 1205SOL     OW 3625   0.019   4.092   4.371
 1205SOL    HW1 3626  -0.063   4.135   4.410
 1205SOL    HW2 3627  -0.009   4.019   4.308
 1206SOL     OW 3628   1.755   4.331   3.955
 1206SOL    HW1 3629   1.743   4.318   3.856
 1206SOL    HW2 3630   1.725   4.250   4.004
 1207SOL     OW 3631   0.685   4.736   4.389
 1207SOL    HW1 3632   0.754   4.720   4.459
 1207SOL    HW2 3633   0.612   4.793   4.427
 1208SOL     OW 3634   1.603   4.171   4.461
 1208SOL    HW1 3635   1.529   4.217   4.411
 1208SOL    HW2 3636   1.654   4.239   4.514
 1209SOL     OW 3637   0.122   4.367   4.287
 1209SOL    HW1 3638   0.077   4.279   4.304
 1209SOL    HW2 3639   0.121   4.421   4.371
 1210SOL     OW 3640   0.809   3.728   4.226
 1210SOL    HW1 3641   0.849   3.819   4.217
 1210SOL    HW2 3642   0.709   3.736   4.232
 1211SOL     OW 3643   1.281   4.069   4.668
 1211SOL    HW1 3644   1.195   4.019   4.655
 1211SOL    HW2 3645   1.343   4.015   4.724
 1212SOL     OW 3646   1.041   4.425   4.153
 1212SOL    HW1 3647   1.067   4.421   4.249
 1212SOL    HW2 3648   0.956   4.374   4.139
 1213SOL     OW 3649   0.076   4.535   4.513
 1213SOL    HW1 3650   0.175   4.523   4.522
 1213SOL    HW2 3651   0.052   4.630   4.534
 1214SOL     OW 3652   0.865   4.072   3.919
 1214SOL    HW1 3653   0.924   4.135   3.870
 1214SOL    HW2 3654   0.884   3.978   3.890
 1215SOL     OW 3655   1.400   3.831   4.150
 1215SOL    HW1 3656   1.376   3.794   4.060
 1215SOL    HW2 3657   1.499   3.847   4.154
 1216SOL     OW 3658   0.382   4.424   4.204
 1216SOL    HW1 3659   0.427   4.334   4.201
 1216SOL    HW2 3660   0.288   4.413   4.237
 1217SOL     OW 3661   0.614   3.846   3.841
 1217SOL    HW1 3662   0.712   3.824   3.848
 1217SOL    HW2 3663   0.583   3.829   3.748
 1218SOL     OW 3664   0.539   3.788   4.236
 1218SOL    HW1 3665   0.458   3.789   4.294
 1218SOL    HW2 3666   0.542   3.871   4.181
 1219SOL     OW 3667   0.297   3.759   3.895
 1219SOL    HW1 3668   0.346   3.843   3.874
 1219SOL    HW2 3669   0.359   3.694   3.940
 1220SOL     OW 3670   0.935   3.960   4.204
 1220SOL    HW1 3671   0.887   4.001   4.126
 1220SOL    HW2 3672   1.034   3.958   4.185
 1221SOL     OW 3673   1.032   4.273   3.740
 1221SOL    HW1 3674   0.991   4.355   3.701
 1221SOL    HW2 3675   1.096   4.299   3.813
 1222SOL     OW 3676   0.866   4.178   4.366
 1222SOL    HW1 3677   0.834   4.250   4.304
 1222SOL    HW2 3678   0.890   4.097   4.313
 1223SOL     OW 3679   1.390   4.299   3.802
 1223SOL    HW1 3680   1.336   4.278   3.883
 1223SOL    HW2 3681   1.481   4.258   3.811
 1224SOL     OW 3682   0.527   3.980   4.052
 1224SOL    HW1 3683   0.554   3.921   3.977
 1224SOL    HW2 3684   0.527   4.075   4.021
 1225SOL     OW 3685   1.582   4.363   4.196
 1225SOL    HW1 3686   1.551   4.424   4.269
 1225SOL    HW2 3687   1.632   4.415   4.127
 1226SOL     OW 3688   1.209   4.249   3.999
 1226SOL    HW1 3689   1.222   4.165   4.053
 1226SOL    HW2 3690   1.180   4.323   4.059
 1227SOL     OW 3691   0.307   3.787   4.342
 1227SOL    HW1 3692   0.296   3.881   4.375
 1227SOL    HW2 3693   0.302   3.724   4.419
 1228SOL     OW 3694   1.622   4.091   4.098
 1228SOL    HW1 3695   1.624   4.015   4.162
 1228SOL    HW2 3696   1.574   4.168   4.138
 1229SOL     OW 3697   1.540   3.998   3.849
 1229SOL    HW1 3698   1.479   3.923   3.872
 1229SOL    HW2 3699   1.562   4.050   3.932
 1230SOL     OW 3700   0.815   4.296   4.049
 1230SOL    HW1 3701   0.822   4.207   4.003
 1230SOL    HW2 3702   0.721   4.330   4.041
 1231SOL     OW 3703   0.473   4.224   3.915
 1231SOL    HW1 3704   0.534   4.304   3.919
 1231SOL    HW2 3705   0.378   4.255   3.922
 1232SOL     OW 3706   1.726   3.859   4.247
 1232SOL    HW1 3707   1.799   3.842   4.180
 1232SOL    HW2 3708   1.695   3.772   4.285
 1233SOL     OW 3709   1.280   4.651   4.396
 1233SOL    HW1 3710   1.340   4.570   4.398
 1233SOL    HW2 3711   1.320   4.720   4.336
 1234SOL     OW 3712   0.916   4.634   4.015
 1234SOL    HW1 3713   0.979   4.672   3.947
 1234SOL    HW2 3714   0.956   4.551   4.054
 1235SOL     OW 3715   0.075   4.069   3.757
 1235SOL    HW1 3716  -0.017   4.041   3.728
 1235SOL    HW2 3717   0.106   4.146   3.701
 1236SOL     OW 3718   0.072   3.890   4.042
 1236SOL    HW1 3719   0.055   3.973   3.988
 1236SOL    HW2 3720   0.162   3.853   4.020
 1237SOL     OW 3721   1.225   4.049   4.173
 1237SOL    HW1 3722   1.290   3.975   4.162
 1237SOL    HW2 3723   1.245   4.099   4.257
 1238SOL     OW 3724   1.083   4.708   3.811
 1238SOL    HW1 3725   1.060   4.761   3.729
 1238SOL    HW2 3726   1.164   4.652   3.792
 1239SOL     OW 3727   0.428   4.148   4.244
 1239SOL    HW1 3728   0.458   4.076   4.182
 1239SOL    HW2 3729   0.389   4.108   4.327
 1240SOL     OW 3730   1.352   3.776   3.892
 1240SOL    HW1 3731   1.387   3.735   3.808
 1240SOL    HW2 3732   1.262   3.738   3.912
 1241SOL     OW 3733   1.300   4.177   4.415
 1241SOL    HW1 3734   1.241   4.257   4.419
 1241SOL    HW2 3735   1.315   4.142   4.508
 1242SOL     OW 3736   2.092   0.628   0.113
 1242SOL    HW1 3737   1.999   0.626   0.150
 1242SOL    HW2 3738   2.093   0.589   0.021
 1243SOL     OW 3739   2.087   0.275   0.996
 1243SOL    HW1 3740   2.122   0.258   1.088
 1243SOL    HW2 3741   1.999   0.230   0.984
 1244SOL     OW 3742   1.881   0.368   0.647
 1244SOL    HW1 3743   1.799   0.411   0.686
 1244SOL    HW2 3744   1.853   0.295   0.584
 1245SOL     OW 3745   2.431   1.275   1.165
 1245SOL    HW1 3746   2.338   1.268   1.128
 1245SOL    HW2 3747   2.442   1.364   1.209
 1246SOL     OW 3748   3.417   1.511   0.703
 1246SOL    HW1 3749   3.360   1.495   0.784
 1246SOL    HW2 3750   3.358   1.521   0.623
 1247SOL     OW 3751   2.997   0.703   0.717
 1247SOL    HW1 3752   3.054   0.781   0.692
 1247SOL    HW2 3753   2.937   0.729   0.793
 1248SOL     OW 3754   3.617   0.607   0.231
 1248SOL    HW1 3755   3.605   0.594   0.132
 1248SOL    HW2 3756   3.587   0.526   0.280
 1249SOL     OW 3757   2.630   1.144   1.023
 1249SOL    HW1 3758   2.552   1.161   1.083
 1249SOL    HW2 3759   2.664   1.231   0.987
 1250SOL     OW 3760   2.712   0.798   1.823
 1250SOL    HW1 3761   2.708   0.874   1.888
 1250SOL    HW2 3762   2.734   0.834   1.732
 1251SOL     OW 3763   2.547   1.012   0.665
 1251SOL    HW1 3764   2.616   0.996   0.735
 1251SOL    HW2 3765   2.474   1.069   0.703
 1252SOL     OW 3766   2.548   1.161   1.803
 1252SOL    HW1 3767   2.608   1.240   1.817
 1252SOL    HW2 3768   2.462   1.192   1.762
 1253SOL     OW 3769   2.197   1.435   1.061
 1253SOL    HW1 3770   2.119   1.404   1.008
 1253SOL    HW2 3771   2.255   1.493   1.004
 1254SOL     OW 3772   3.322   1.505   1.339
 1254SOL    HW1 3773   3.346   1.599   1.365
 1254SOL    HW2 3774   3.306   1.451   1.421
 1255SOL     OW 3775   2.300   0.392   1.499
 1255SOL    HW1 3776   2.382   0.336   1.508
 1255SOL    HW2 3777   2.219   0.334   1.503
 1256SOL     OW 3778   3.465   0.447   0.737
 1256SOL    HW1 3779   3.391   0.493   0.687
 1256SOL    HW2 3780   3.516   0.515   0.790
 1257SOL     OW 3781   2.093   1.713   0.483
 1257SOL    HW1 3782   2.127   1.790   0.537
 1257SOL    HW2 3783   2.137   1.713   0.393
 1258SOL     OW 3784   2.989   1.341   1.690
 1258SOL    HW1 3785   3.036   1.341   1.778
 1258SOL    HW2 3786   2.941   1.254   1.679
 1259SOL     OW 3787   2.092   1.434   0.538
 1259SOL    HW1 3788   2.066   1.530   0.538
 1259SOL    HW2 3789   2.021   1.380   0.583
 1260SOL     OW 3790   2.102   1.091   0.886
 1260SOL    HW1 3791   2.116   1.007   0.938
 1260SOL    HW2 3792   2.047   1.155   0.941
 1261SOL     OW 3793   2.482   1.786   1.439
 1261SOL    HW1 3794   2.390   1.769   1.474
 1261SOL    HW2 3795   2.510   1.878   1.465
 1262SOL     OW 3796   2.468   0.964   0.123
 1262SOL    HW1 3797   2.475   1.048   0.069
 1262SOL    HW2 3798   2.514   0.977   0.211
 1263SOL     OW 3799   3.456   0.114   1.480
 1263SOL    HW1 3800   3.438   0.181   1.408
 1263SOL    HW2 3801   3.453   0.160   1.569
 1264SOL     OW 3802   1.984   0.643   0.563
 1264SOL    HW1 3803   1.939   0.555   0.580
 1264SOL    HW2 3804   1.983   0.697   0.647
 1265SOL     OW 3805   3.704   1.767   0.359
 1265SOL    HW1 3806   3.758   1.738   0.439
 1265SOL    HW2 3807   3.734   1.857   0.330
 1266SOL     OW 3808   1.889   1.596   0.117
 1266SOL    HW1 3809   1.870   1.500   0.138
 1266SOL    HW2 3810   1.856   1.654   0.192
 1267SOL     OW 3811   3.551   0.922   0.612
 1267SOL    HW1 3812   3.646   0.893   0.620
 1267SOL    HW2 3813   3.543   0.987   0.537
 1268SOL     OW 3814   3.503   1.108   0.432
 1268SOL    HW1 3815   3.589   1.110   0.380
 1268SOL    HW2 3816   3.517   1.155   0.520
 1269SOL     OW 3817   1.975   0.737   1.597
 1269SOL    HW1 3818   2.063   0.724   1.642
 1269SOL    HW2 3819   1.962   0.834   1.575
 1270SOL     OW 3820   2.475   1.365   0.726
 1270SOL    HW1 3821   2.426   1.278   0.735
 1270SOL    HW2 3822   2.452   1.408   0.639
 1271SOL     OW 3823   3.155   1.228   1.423
 1271SOL    HW1 3824   3.192   1.155   1.365
 1271SOL    HW2 3825   3.207   1.233   1.508
 1272SOL     OW 3826   2.671   0.004   0.502
 1272SOL    HW1 3827   2.711   0.095   0.493
 1272SOL    HW2 3828   2.571   0.012   0.508
 1273SOL     OW 3829   2.059   0.976   1.264
 1273SOL    HW1 3830   2.148   0.931   1.250
 1273SOL    HW2 3831   1.986   0.911   1.245
 1274SOL     OW 3832   3.387   0.999   0.190
 1274SOL    HW1 3833   3.324   0.923   0.203
 1274SOL    HW2 3834   3.435   1.017   0.276
 1275SOL     OW 3835   3.049   1.792   1.616
 1275SOL    HW1 3836   3.073   1.852   1.540
 1275SOL    HW2 3837   3.056   1.697   1.586
 1276SOL     OW 3838   2.179   0.251   1.801
 1276SOL    HW1 3839   2.250   0.322   1.807
 1276SOL    HW2 3840   2.091   0.290   1.829
 1277SOL     OW 3841   3.328   1.417   0.953
 1277SOL    HW1 3842   3.269   1.423   1.033
 1277SOL    HW2 3843   3.313   1.329   0.907
 1278SOL     OW 3844   3.529   1.714   0.572
 1278SOL    HW1 3845   3.488   1.691   0.484
 1278SOL    HW2 3846   3.511   1.640   0.637
 1279SOL     OW 3847   2.460   0.729   0.270
 1279SOL    HW1 3848   2.484   0.798   0.202
 1279SOL    HW2 3849   2.382   0.762   0.324
 1280SOL     OW 3850   3.143   0.345   0.944
 1280SOL    HW1 3851   3.057   0.295   0.931
 1280SOL    HW2 3852   3.205   0.291   1.000
 1281SOL     OW 3853   3.438   1.662   0.307
 1281SOL    HW1 3854   3.527   1.708   0.310
 1281SOL    HW2 3855   3.417   1.638   0.212
 1282SOL     OW 3856   2.669   0.605   1.465
 1282SOL    HW1 3857   2.622   0.602   1.554
 1282SOL    HW2 3858   2.618   0.550   1.399
 1283SOL     OW 3859   3.256   0.469   1.674
 1283SOL    HW1 3860   3.236   0.512   1.762
 1283SOL    HW2 3861   3.334   0.407   1.683
 1284SOL     OW 3862   2.835   0.890   1.572
 1284SOL    HW1 3863   2.881   0.806   1.543
 1284SOL    HW2 3864   2.779   0.924   1.497
 1285SOL     OW 3865   2.853   0.410   1.242
 1285SOL    HW1 3866   2.776   0.444   1.296
 1285SOL    HW2 3867   2.819   0.359   1.163
 1286SOL     OW 3868   2.903   0.701   0.429
 1286SOL    HW1 3869   2.929   0.697   0.525
 1286SOL    HW2 3870   2.818   0.650   0.415
 1287SOL     OW 3871   1.938   0.811   0.789
 1287SOL    HW1 3872   2.037   0.799   0.798
 1287SOL    HW2 3873   1.914   0.906   0.810
 1288SOL     OW 3874   1.992   1.821   1.571
 1288SOL    HW1 3875   1.982   1.806   1.670
 1288SOL    HW2 3876   1.906   1.857   1.535
 1289SOL     OW 3877   2.727   0.348   0.195
 1289SOL    HW1 3878   2.786   0.411   0.146
 1289SOL    HW2 3879   2.746   0.254   0.166
 1290SOL     OW 3880   3.581   0.585   1.831
 1290SOL    HW1 3881   3.555   0.674   1.795
 1290SOL    HW2 3882   3.579   0.517   1.758
 1291SOL     OW 3883   3.224   1.144   0.545
 1291SOL    HW1 3884   3.307   1.115   0.497
 1291SOL    HW2 3885   3.175   1.211   0.489
 1292SOL     OW 3886   2.412   0.196   0.885
 1292SOL    HW1 3887   2.407   0.191   0.985
 1292SOL    HW2 3888   2.414   0.292   0.856
 1293SOL     OW 3889   2.870   1.456   0.477
 1293SOL    HW1 3890   2.824   1.528   0.425
 1293SOL    HW2 3891   2.866   1.476   0.575
 1294SOL     OW 3892   2.213   1.801   0.853
 1294SOL    HW1 3893   2.263   1.715   0.859
 1294SOL    HW2 3894   2.278   1.878   0.850
 1295SOL     OW 3895   3.657   1.066   0.873
 1295SOL    HW1 3896   3.595   1.051   0.797
 1295SOL    HW2 3897   3.605   1.077   0.958
 1296SOL     OW 3898   3.089   1.550   1.506
 1296SOL    HW1 3899   3.095   1.473   1.570
 1296SOL    HW2 3900   3.037   1.524   1.426
 1297SOL     OW 3901   2.183   0.943   0.242
 1297SOL    HW1 3902   2.265   0.982   0.200
 1297SOL    HW2 3903   2.156   0.861   0.193
 1298SOL     OW 3904   3.320   0.735   0.728
 1298SOL    HW1 3905   3.315   0.670   0.803
 1298SOL    HW2 3906   3.400   0.794   0.741
 1299SOL     OW 3907   2.323   1.266   1.727
 1299SOL    HW1 3908   2.273   1.267   1.641
 1299SOL    HW2 3909   2.260   1.248   1.803
 1300SOL     OW 3910   2.973   1.776   0.237
 1300SOL    HW1 3911   2.913   1.714   0.287
 1300SOL    HW2 3912   3.004   1.732   0.152
 1301SOL     OW 3913   2.064   0.285   1.498
 1301SOL    HW1 3914   1.984   0.345   1.485
 1301SOL    HW2 3915   2.054   0.236   1.584
 1302SOL     OW 3916   3.494   1.377   0.081
 1302SOL    HW1 3917   3.462   1.471   0.071
 1302SOL    HW2 3918   3.418   1.314   0.069
 1303SOL     OW 3919   2.326   1.743   0.323
 1303SOL    HW1 3920   2.359   1.782   0.409
 1303SOL    HW2 3921   2.402   1.736   0.258
 1304SOL     OW 3922   3.262   0.107   0.426
 1304SOL    HW1 3923   3.238   0.070   0.336
 1304SOL    HW2 3924   3.361   0.123   0.430
 1305SOL     OW 3925   2.111   1.785   1.241
 1305SOL    HW1 3926   2.168   1.720   1.291
 1305SOL    HW2 3927   2.095   1.752   1.148
 1306SOL     OW 3928   2.802   1.698   0.904
 1306SOL    HW1 3929   2.882   1.641   0.925
 1306SOL    HW2 3930   2.753   1.658   0.827
 1307SOL     OW 3931   2.244   0.700   0.480
 1307SOL    HW1 3932   2.289   0.610   0.477
 1307SOL    HW2 3933   2.150   0.689   0.513
 1308SOL     OW 3934   3.409   0.222   1.729
 1308SOL    HW1 3935   3.404   0.259   1.821
 1308SOL    HW2 3936   3.337   0.153   1.717
 1309SOL     OW 3937   2.476   0.122   0.117
 1309SOL    HW1 3938   2.574   0.100   0.124
 1309SOL    HW2 3939   2.445   0.105   0.024
 1310SOL     OW 3940   2.643   0.264   1.749
 1310SOL    HW1 3941   2.710   0.203   1.792
 1310SOL    HW2 3942   2.570   0.283   1.814
 1311SOL     OW 3943   2.750   1.514   1.195
 1311SOL    HW1 3944   2.727   1.489   1.101
 1311SOL    HW2 3945   2.811   1.445   1.234
 1312SOL     OW 3946   3.213   0.590   1.433
 1312SOL    HW1 3947   3.241   0.547   1.518
 1312SOL    HW2 3948   3.238   0.686   1.434
 1313SOL     OW 3949   2.665   1.402   0.924
 1313SOL    HW1 3950   2.755   1.416   0.882
 1313SOL    HW2 3951   2.594   1.404   0.853
 1314SOL     OW 3952   2.784   0.503   0.899
 1314SOL    HW1 3953   2.759   0.494   0.803
 1314SOL    HW2 3954   2.832   0.421   0.930
 1315SOL     OW 3955   2.401   0.064   0.512
 1315SOL    HW1 3956   2.320   0.065   0.570
 1315SOL    HW2 3957   2.404   0.147   0.457
 1316SOL     OW 3958   3.296   1.188   0.041
 1316SOL    HW1 3959   3.328   1.112   0.098
 1316SOL    HW2 3960   3.204   1.215   0.071
 1317SOL     OW 3961   2.159   0.035   0.171
 1317SOL    HW1 3962   2.208   0.119   0.150
 1317SOL    HW2 3963   2.221  -0.030   0.216
 1318SOL     OW 3964   2.797   0.236   0.480
 1318SOL    HW1 3965   2.749   0.277   0.402
 1318SOL    HW2 3966   2.896   0.234   0.461
 1319SOL     OW 3967   2.938   0.683   1.464
 1319SOL    HW1 3968   2.858   0.622   1.467
 1319SOL    HW2 3969   3.019   0.630   1.440
 1320SOL     OW 3970   3.089   1.570   0.793
 1320SOL    HW1 3971   3.110   1.644   0.728
 1320SOL    HW2 3972   3.157   1.570   0.866
 1321SOL     OW 3973   2.321   1.152   0.741
 1321SOL    HW1 3974   2.250   1.125   0.806
 1321SOL    HW2 3975   2.295   1.124   0.648
 1322SOL     OW 3976   3.133   1.797   0.591
 1322SOL    HW1 3977   3.177   1.861   0.527
 1322SOL    HW2 3978   3.083   1.849   0.661
 1323SOL     OW 3979   2.894   0.549   0.016
 1323SOL    HW1 3980   2.853   0.631  -0.023
 1323SOL    HW2 3981   2.958   0.575   0.089
 1324SOL     OW 3982   1.940   0.556   1.386
 1324SOL    HW1 3983   2.032   0.555   1.345
 1324SOL    HW2 3984   1.934   0.630   1.453
 1325SOL     OW 3985   2.423   0.222   1.147
 1325SOL    HW1 3986   2.461   0.138   1.184
 1325SOL    HW2 3987   2.335   0.241   1.191
 1326SOL     OW 3988   2.728   0.454   0.642
 1326SOL    HW1 3989   2.696   0.526   0.580
 1326SOL    HW2 3990   2.752   0.373   0.589
 1327SOL     OW 3991   2.879   0.039   0.753
 1327SOL    HW1 3992   2.807   0.044   0.684
 1327SOL    HW2 3993   2.855  -0.030   0.822
 1328SOL     OW 3994   3.291   1.173   0.867
 1328SOL    HW1 3995   3.236   1.089   0.860
 1328SOL    HW2 3996   3.317   1.202   0.775
 1329SOL     OW 3997   3.328   0.590   0.992
 1329SOL    HW1 3998   3.298   0.495   0.999
 1329SOL    HW2 3999   3.401   0.606   1.058
 1330SOL     OW 4000   3.719   0.833   0.377
 1330SOL    HW1 4001   3.761   0.769   0.441
 1330SOL    HW2 4002   3.681   0.782   0.299
 1331SOL     OW 4003   2.350   1.385   0.174
 1331SOL    HW1 4004   2.263   1.370   0.221
 1331SOL    HW2 4005   2.333   1.411   0.079
 1332SOL     OW 4006   3.526   1.280   0.657
 1332SOL    HW1 4007   3.625   1.288   0.671
 1332SOL    HW2 4008   3.481   1.364   0.688
 1333SOL     OW 4009   3.252   0.575   0.078
 1333SOL    HW1 4010   3.198   0.554   0.159
 1333SOL    HW2 4011   3.343   0.534   0.087
 1334SOL     OW 4012   2.389   0.256   0.328
 1334SOL    HW1 4013   2.416   0.197   0.253
 1334SOL    HW2 4014   2.389   0.351   0.297
 1335SOL     OW 4015   3.616   1.223   1.588
 1335SOL    HW1 4016   3.707   1.184   1.575
 1335SOL    HW2 4017   3.624   1.319   1.612
 1336SOL     OW 4018   2.926   1.347   1.340
 1336SOL    HW1 4019   2.846   1.324   1.395
 1336SOL    HW2 4020   3.009   1.321   1.389
 1337SOL     OW 4021   3.454   1.629   1.625
 1337SOL    HW1 4022   3.481   1.663   1.535
 1337SOL    HW2 4023   3.533   1.591   1.671
 1338SOL     OW 4024   2.973   1.195   1.100
 1338SOL    HW1 4025   2.933   1.239   1.181
 1338SOL    HW2 4026   2.932   1.232   1.017
 1339SOL     OW 4027   3.500   1.099   1.079
 1339SOL    HW1 4028   3.505   1.180   1.138
 1339SOL    HW2 4029   3.414   1.101   1.028
 1340SOL     OW 4030   2.777   0.089   1.402
 1340SOL    HW1 4031   2.802   0.069   1.307
 1340SOL    HW2 4032   2.849   0.145   1.444
 1341SOL     OW 4033   2.842   1.116   1.719
 1341SOL    HW1 4034   2.743   1.122   1.729
 1341SOL    HW2 4035   2.865   1.036   1.663
 1342SOL     OW 4036   2.567   1.050   0.368
 1342SOL    HW1 4037   2.553   1.057   0.467
 1342SOL    HW2 4038   2.651   0.999   0.350
 1343SOL     OW 4039   2.272   0.813   1.251
 1343SOL    HW1 4040   2.358   0.825   1.301
 1343SOL    HW2 4041   2.230   0.726   1.278
 1344SOL     OW 4042   3.136   0.386   1.262
 1344SOL    HW1 4043   3.157   0.460   1.326
 1344SOL    HW2 4044   3.047   0.403   1.219
 1345SOL     OW 4045   1.926   1.564   1.331
 1345SOL    HW1 4046   1.880   1.646   1.297
 1345SOL    HW2 4047   2.024   1.583   1.340
 1346SOL     OW 4048   2.229   1.100   0.501
 1346SOL    HW1 4049   2.222   1.183   0.445
 1346SOL    HW2 4050   2.233   1.020   0.441
 1347SOL     OW 4051   2.428   0.537   0.865
 1347SOL    HW1 4052   2.440   0.603   0.791
 1347SOL    HW2 4053   2.474   0.571   0.948
 1348SOL     OW 4054   3.114   1.348   0.388
 1348SOL    HW1 4055   3.164   1.425   0.428
 1348SOL    HW2 4056   3.019   1.350   0.420
 1349SOL     OW 4057   3.134   1.445   1.142
 1349SOL    HW1 4058   3.181   1.458   1.229
 1349SOL    HW2 4059   3.068   1.371   1.151
 1350SOL     OW 4060   3.444   0.639   0.472
 1350SOL    HW1 4061   3.413   0.700   0.545
 1350SOL    HW2 4062   3.494   0.691   0.403
 1351SOL     OW 4063   2.216   1.510   1.329
 1351SOL    HW1 4064   2.195   1.466   1.242
 1351SOL    HW2 4065   2.313   1.536   1.332
 1352SOL     OW 4066   2.264   0.751   1.598
 1352SOL    HW1 4067   2.332   0.806   1.551
 1352SOL    HW2 4068   2.304   0.663   1.625
 1353SOL     OW 4069   3.449   0.779   1.670
 1353SOL    HW1 4070   3.357   0.817   1.665
 1353SOL    HW2 4071   3.509   0.826   1.605
 1354SOL     OW 4072   2.875   0.105   1.770
 1354SOL    HW1 4073   2.881   0.190   1.718
 1354SOL    HW2 4074   2.907   0.029   1.713
 1355SOL     OW 4075   2.366   0.050   1.740
 1355SOL    HW1 4076   2.324  -0.007   1.670
 1355SOL    HW2 4077   2.300   0.119   1.772
 1356SOL     OW 4078   2.435   0.870   1.029
 1356SOL    HW1 4079   2.479   0.959   1.020
 1356SOL    HW2 4080   2.372   0.870   1.106
 1357SOL     OW 4081   3.222   0.862   1.045
 1357SOL    HW1 4082   3.147   0.862   0.979
 1357SOL    HW2 4083   3.259   0.770   1.054
 1358SOL     OW 4084   3.071   0.525   0.275
 1358SOL    HW1 4085   3.084   0.441   0.329
 1358SOL    HW2 4086   3.042   0.599   0.335
 1359SOL     OW 4087   2.169   0.213   1.231
 1359SOL    HW1 4088   2.146   0.250   1.321
 1359SOL    HW2 4089   2.139   0.118   1.225
 1360SOL     OW 4090   1.899   1.310   1.282
 1360SOL    HW1 4091   1.952   1.261   1.350
 1360SOL    HW2 4092   1.921   1.408   1.287
 1361SOL     OW 4093   2.594   0.634   1.064
 1361SOL    HW1 4094   2.653   0.608   0.988
 1361SOL    HW2 4095   2.566   0.730   1.053
 1362SOL     OW 4096   3.590   0.935   1.854
 1362SOL    HW1 4097   3.544   0.928   1.765
 1362SOL    HW2 4098   3.528   0.979   1.920
 1363SOL     OW 4099   2.169   0.063   0.618
 1363SOL    HW1 4100   2.158   0.157   0.651
 1363SOL    HW2 4101   2.164   0.000   0.695
 1364SOL     OW 4102   3.484   0.367   0.374
 1364SOL    HW1 4103   3.486   0.291   0.438
 1364SOL    HW2 4104   3.436   0.444   0.414
 1365SOL     OW 4105   2.885   0.766   0.966
 1365SOL    HW1 4106   2.900   0.787   1.062
 1365SOL    HW2 4107   2.855   0.671   0.957
 1366SOL     OW 4108   2.842   1.573   1.700
 1366SOL    HW1 4109   2.822   1.617   1.612
 1366SOL    HW2 4110   2.881   1.482   1.684
 1367SOL     OW 4111   3.721   1.518   1.605
 1367SOL    HW1 4112   3.735   1.545   1.510
 1367SOL    HW2 4113   3.804   1.540   1.658
 1368SOL     OW 4114   2.212   0.898   1.804
 1368SOL    HW1 4115   2.288   0.942   1.852
 1368SOL    HW2 4116   2.247   0.851   1.722
 1369SOL     OW 4117   3.402   0.274   0.125
 1369SOL    HW1 4118   3.341   0.199   0.148
 1369SOL    HW2 4119   3.424   0.326   0.208
 1370SOL     OW 4120   3.165   0.838   0.042
 1370SOL    HW1 4121   3.199   0.745   0.057
 1370SOL    HW2 4122   3.183   0.865  -0.053
 1371SOL     OW 4123   2.930   1.333   0.849
 1371SOL    HW1 4124   2.937   1.249   0.794
 1371SOL    HW2 4125   2.992   1.402   0.813
 1372SOL     OW 4126   2.181   0.810   0.949
 1372SOL    HW1 4127   2.274   0.846   0.954
 1372SOL    HW2 4128   2.175   0.725   1.001
 1373SOL     OW 4129   2.201   0.509   1.006
 1373SOL    HW1 4130   2.149   0.426   0.989
 1373SOL    HW2 4131   2.278   0.514   0.942
 1374SOL     OW 4132   3.000   0.380   1.678
 1374SOL    HW1 4133   2.955   0.443   1.742
 1374SOL    HW2 4134   3.093   0.411   1.661
 1375SOL     OW 4135   3.022   0.207   1.477
 1375SOL    HW1 4136   3.022   0.271   1.554
 1375SOL    HW2 4137   3.050   0.255   1.394
 1376SOL     OW 4138   1.870   1.326   0.200
 1376SOL    HW1 4139   1.777   1.347   0.169
 1376SOL    HW2 4140   1.880   1.227   0.213
 1377SOL     OW 4141   1.950   1.801   0.927
 1377SOL    HW1 4142   1.908   1.715   0.900
 1377SOL    HW2 4143   2.044   1.804   0.893
 1378SOL     OW 4144   2.366   1.568   0.910
 1378SOL    HW1 4145   2.432   1.642   0.919
 1378SOL    HW2 4146   2.410   1.489   0.868
 1379SOL     OW 4147   2.864   0.796   1.238
 1379SOL    HW1 4148   2.905   0.764   1.324
 1379SOL    HW2 4149   2.768   0.769   1.235
 1380SOL     OW 4150   1.902   0.544   1.114
 1380SOL    HW1 4151   1.987   0.511   1.073
 1380SOL    HW2 4152   1.915   0.559   1.212
 1381SOL     OW 4153   2.051   0.520   1.722
 1381SOL    HW1 4154   2.110   0.480   1.652
 1381SOL    HW2 4155   1.993   0.591   1.681
 1382SOL     OW 4156   3.231   0.950   1.660
 1382SOL    HW1 4157   3.270   1.039   1.680
 1382SOL    HW2 4158   3.241   0.930   1.563
 1383SOL     OW 4159   2.677   0.572   0.325
 1383SOL    HW1 4160   2.684   0.483   0.279
 1383SOL    HW2 4161   2.583   0.606   0.317
 1384SOL     OW 4162   3.519   0.604   1.206
 1384SOL    HW1 4163   3.481   0.535   1.268
 1384SOL    HW2 4164   3.601   0.568   1.162
 1385SOL     OW 4165   2.114   1.564   1.744
 1385SOL    HW1 4166   2.084   1.621   1.820
 1385SOL    HW2 4167   2.107   1.467   1.770
 1386SOL     OW 4168   2.533   0.464   1.269
 1386SOL    HW1 4169   2.499   0.375   1.239
 1386SOL    HW2 4170   2.559   0.518   1.189
 1387SOL     OW 4171   2.792   1.678   1.465
 1387SOL    HW1 4172   2.768   1.660   1.370
 1387SOL    HW2 4173   2.822   1.772   1.475
 1388SOL     OW 4174   2.335   0.500   0.191
 1388SOL    HW1 4175   2.396   0.580   0.195
 1388SOL    HW2 4176   2.240   0.531   0.198
 1389SOL     OW 4177   2.021   1.137   1.466
 1389SOL    HW1 4178   2.043   1.076   1.542
 1389SOL    HW2 4179   2.031   1.088   1.380
 1390SOL     OW 4180   3.209   1.059   1.234
 1390SOL    HW1 4181   3.233   0.996   1.160
 1390SOL    HW2 4182   3.119   1.099   1.216
 1391SOL     OW 4183   3.164   0.855   0.309
 1391SOL    HW1 4184   3.078   0.824   0.351
 1391SOL    HW2 4185   3.160   0.841   0.210
 1392SOL     OW 4186   3.621   1.747   1.154
 1392SOL    HW1 4187   3.682   1.777   1.081
 1392SOL    HW2 4188   3.583   1.658   1.132
 1393SOL     OW 4189   3.114   1.731   1.128
 1393SOL    HW1 4190   3.198   1.736   1.074
 1393SOL    HW2 4191   3.091   1.635   1.146
 1394SOL     OW 4192   1.945   1.258   1.022
 1394SOL    HW1 4193   1.940   1.257   1.122
 1394SOL    HW2 4194   1.862   1.217   0.984
 1395SOL     OW 4195   2.550   1.662   1.716
 1395SOL    HW1 4196   2.494   1.743   1.725
 1395SOL    HW2 4197   2.602   1.666   1.630
 1396SOL     OW 4198   2.765   0.086   0.133
 1396SOL    HW1 4199   2.816   0.087   0.047
 1396SOL    HW2 4200   2.821   0.044   0.204
 1397SOL     OW 4201   3.588   0.135   0.523
 1397SOL    HW1 4202   3.661   0.118   0.456
 1397SOL    HW2 4203   3.557   0.048   0.561
 1398SOL     OW 4204   3.250   1.573   0.477
 1398SOL    HW1 4205   3.317   1.585   0.403
 1398SOL    HW2 4206   3.210   1.662   0.500
 1399SOL     OW 4207   1.992   1.794   1.851
 1399SOL    HW1 4208   1.951   1.720   1.904
 1399SOL    HW2 4209   2.056   1.845   1.909
 1400SOL     OW 4210   3.142   0.927   0.672
 1400SOL    HW1 4211   3.202   0.846   0.674
 1400SOL    HW2 4212   3.182   0.996   0.612
 1401SOL     OW 4213   2.692   1.273   1.422
 1401SOL    HW1 4214   2.687   1.306   1.517
 1401SOL    HW2 4215   2.606   1.292   1.376
 1402SOL     OW 4216   2.534   1.616   0.154
 1402SOL    HW1 4217   2.543   1.626   0.055
 1402SOL    HW2 4218   2.494   1.527   0.175
 1403SOL     OW 4219   3.512   1.720   1.394
 1403SOL    HW1 4220   3.565   1.730   1.310
 1403SOL    HW2 4221   3.485   1.810   1.428
 1404SOL     OW 4222   3.703   0.175   0.963
 1404SOL    HW1 4223   3.742   0.090   0.927
 1404SOL    HW2 4224   3.605   0.177   0.944
 1405SOL     OW 4225   2.125   0.326   0.720
 1405SOL    HW1 4226   2.046   0.377   0.686
 1405SOL    HW2 4227   2.116   0.311   0.818
 1406SOL     OW 4228   3.056   1.612   0.031
 1406SOL    HW1 4229   3.062   1.519   0.068
 1406SOL    HW2 4230   2.997   1.612  -0.049
 1407SOL     OW 4231   2.684   1.002   1.372
 1407SOL    HW1 4232   2.724   1.001   1.280
 1407SOL    HW2 4233   2.694   1.094   1.412
 1408SOL     OW 4234   2.778   0.910   0.291
 1408SOL    HW1 4235   2.841   0.948   0.223
 1408SOL    HW2 4236   2.818   0.827   0.330
 1409SOL     OW 4237   3.366   1.607   0.044
 1409SOL    HW1 4238   3.274   1.644   0.051
 1409SOL    HW2 4239   3.404   1.627  -0.046
 1410SOL     OW 4240   2.234   1.288   1.490
 1410SOL    HW1 4241   2.221   1.381   1.456
 1410SOL    HW2 4242   2.150   1.236   1.477
 1411SOL     OW 4243   3.476   1.292   1.289
 1411SOL    HW1 4244   3.536   1.295   1.369
 1411SOL    HW2 4245   3.401   1.356   1.302
 1412SOL     OW 4246   2.901   1.098   0.696
 1412SOL    HW1 4247   2.831   1.051   0.750
 1412SOL    HW2 4248   2.960   1.030   0.653
 1413SOL     OW 4249   2.876   0.236   0.971
 1413SOL    HW1 4250   2.868   0.200   0.878
 1413SOL    HW2 4251   2.874   0.160   1.036
 1414SOL     OW 4252   2.452   1.487   0.491
 1414SOL    HW1 4253   2.494   1.429   0.421
 1414SOL    HW2 4254   2.408   1.566   0.447
 1415SOL     OW 4255   3.571   0.385   1.381
 1415SOL    HW1 4256   3.644   0.454   1.385
 1415SOL    HW2 4257   3.599   0.310   1.322
 1416SOL     OW 4258   2.117   1.348   0.290
 1416SOL    HW1 4259   2.021   1.349   0.263
 1416SOL    HW2 4260   2.129   1.401   0.374
 1417SOL     OW 4261   1.967   1.013   1.726
 1417SOL    HW1 4262   1.890   0.980   1.780
 1417SOL    HW2 4263   2.052   0.983   1.768
 1418SOL     OW 4264   2.534   0.203   1.489
 1418SOL    HW1 4265   2.624   0.187   1.449
 1418SOL    HW2 4266   2.542   0.208   1.588
 1419SOL     OW 4267   1.937   0.345   0.033
 1419SOL    HW1 4268   1.845   0.317   0.004
 1419SOL    HW2 4269   1.968   0.422  -0.023
 1420SOL     OW 4270   3.302   0.856   1.398
 1420SOL    HW1 4271   3.245   0.908   1.335
 1420SOL    HW2 4272   3.398   0.868   1.374
 1421SOL     OW 4273   1.934   0.166   0.318
 1421SOL    HW1 4274   1.917   0.249   0.264
 1421SOL    HW2 4275   2.024   0.129   0.296
 1422SOL     OW 4276   3.045   1.335   0.119
 1422SOL    HW1 4277   2.946   1.324   0.121
 1422SOL    HW2 4278   3.079   1.350   0.212
 1423SOL     OW 4279   2.475   0.842   1.431
 1423SOL    HW1 4280   2.531   0.923   1.414
 1423SOL    HW2 4281   2.534   0.762   1.434
 1424SOL     OW 4282   3.355   1.767   0.959
 1424SOL    HW1 4283   3.388   1.831   0.890
 1424SOL    HW2 4284   3.421   1.761   1.034
 1425SOL     OW 4285   2.578   0.565   1.708
 1425SOL    HW1 4286   2.597   0.630   1.782
 1425SOL    HW2 4287   2.638   0.485   1.717
 1426SOL     OW 4288   3.312   1.220   1.633
 1426SOL    HW1 4289   3.303   1.210   1.732
 1426SOL    HW2 4290   3.408   1.213   1.607
 1427SOL     OW 4291   2.252   1.741   1.560
 1427SOL    HW1 4292   2.161   1.782   1.558
 1427SOL    HW2 4293   2.245   1.647   1.592
 1428SOL     OW 4294   3.536   0.883   1.254
 1428SOL    HW1 4295   3.509   0.794   1.217
 1428SOL    HW2 4296   3.537   0.951   1.181
 1429SOL     OW 4297   3.087   0.325   0.449
 1429SOL    HW1 4298   3.152   0.251   0.438
 1429SOL    HW2 4299   3.107   0.375   0.533
 1430SOL     OW 4300   2.456   0.745   0.652
 1430SOL    HW1 4301   2.506   0.830   0.633
 1430SOL    HW2 4302   2.368   0.747   0.604
 1431SOL     OW 4303   3.639   0.342   1.642
 1431SOL    HW1 4304   3.622   0.373   1.548
 1431SOL    HW2 4305   3.555   0.305   1.680
 1432SOL     OW 4306   3.592   0.934   1.517
 1432SOL    HW1 4307   3.630   1.025   1.532
 1432SOL    HW2 4308   3.584   0.917   1.418
 1433SOL     OW 4309   2.721   1.374   0.016
 1433SOL    HW1 4310   2.675   1.389   0.104
 1433SOL    HW2 4311   2.765   1.459  -0.014
 1434SOL     OW 4312   2.523   1.790   0.953
 1434SOL    HW1 4313   2.477   1.878   0.940
 1434SOL    HW2 4314   2.622   1.802   0.946
 1435SOL     OW 4315   2.721   0.956   0.861
 1435SOL    HW1 4316   2.775   0.887   0.909
 1435SOL    HW2 4317   2.689   1.025   0.927
 1436SOL     OW 4318   2.945   0.984   0.087
 1436SOL    HW1 4319   2.922   1.037   0.005
 1436SOL    HW2 4320   3.026   0.928   0.068
 1437SOL     OW 4321   3.723   1.569   0.851
 1437SOL    HW1 4322   3.652   1.557   0.781
 1437SOL    HW2 4323   3.724   1.490   0.911
 1438SOL     OW 4324   2.083   1.314   1.844
 1438SOL    HW1 4325   2.018   1.241   1.823
 1438SOL    HW2 4326   2.087   1.328   1.942
 1439SOL     OW 4327   1.941   1.240   0.653
 1439SOL    HW1 4328   1.940   1.193   0.741
 1439SOL    HW2 4329   2.023   1.212   0.602
 1440SOL     OW 4330   2.534   1.391   1.624
 1440SOL    HW1 4331   2.456   1.341   1.662
 1440SOL    HW2 4332   2.531   1.486   1.655
 1441SOL     OW 4333   3.686   0.192   1.227
 1441SOL    HW1 4334   3.682   0.102   1.271
 1441SOL    HW2 4335   3.689   0.181   1.128
 1442SOL     OW 4336   2.290   0.424   0.520
 1442SOL    HW1 4337   2.320   0.352   0.458
 1442SOL    HW2 4338   2.251   0.384   0.603
 1443SOL     OW 4339   3.567   1.487   1.104
 1443SOL    HW1 4340   3.474   1.462   1.077
 1443SOL    HW2 4341   3.593   1.437   1.186
 1444SOL     OW 4342   2.179   0.547   1.280
 1444SOL    HW1 4343   2.217   0.488   1.352
 1444SOL    HW2 4344   2.219   0.521   1.192
 1445SOL     OW 4345   2.674   1.586   0.687
 1445SOL    HW1 4346   2.706   1.596   0.593
 1445SOL    HW2 4347   2.595   1.524   0.689
 1446SOL     OW 4348   3.286   0.214   1.112
 1446SOL    HW1 4349   3.338   0.149   1.167
 1446SOL    HW2 4350   3.237   0.277   1.173
 1447SOL     OW 4351   2.863   0.034   1.154
 1447SOL    HW1 4352   2.800  -0.038   1.123
 1447SOL    HW2 4353   2.956  -0.002   1.154
 1448SOL     OW 4354   2.632   1.330   0.301
 1448SOL    HW1 4355   2.586   1.243   0.318
 1448SOL    HW2 4356   2.723   1.327   0.342
 1449SOL     OW 4357   2.480   1.567   1.284
 1449SOL    HW1 4358   2.475   1.649   1.341
 1449SOL    HW2 4359   2.569   1.564   1.239
 1450SOL     OW 4360   3.214   0.052   0.168
 1450SOL    HW1 4361   3.249   0.011   0.084
 1450SOL    HW2 4362   3.124   0.014   0.188
 1451SOL     OW 4363   3.162   0.453   0.691
 1451SOL    HW1 4364   3.103   0.533   0.695
 1451SOL    HW2 4365   3.177   0.418   0.784
 1452SOL     OW 4366   3.455   0.221   0.882
 1452SOL    HW1 4367   3.371   0.220   0.936
 1452SOL    HW2 4368   3.457   0.304   0.826
 1453SOL     OW 4369   1.901   1.077   0.300
 1453SOL    HW1 4370   2.000   1.066   0.291
 1453SOL    HW2 4371   1.861   0.991   0.332
 1454SOL     OW 4372   2.737   1.646   0.337
 1454SOL    HW1 4373   2.660   1.611   0.283
 1454SOL    HW2 4374   2.705   1.717   0.399
 1455SOL     OW 4375   2.092   0.628   1.975
 1455SOL    HW1 4376   1.999   0.626   2.012
 1455SOL    HW2 4377   2.093   0.589   1.883
 1456SOL     OW 4378   2.087   0.275   2.858
 1456SOL    HW1 4379   2.122   0.258   2.950
 1456SOL    HW2 4380   1.999   0.230   2.846
 1457SOL     OW 4381   1.881   0.368   2.509
 1457SOL    HW1 4382   1.799   0.411   2.548
 1457SOL    HW2 4383   1.853   0.295   2.446
 1458SOL     OW 4384   2.431   1.275   3.027
 1458SOL    HW1 4385   2.338   1.268   2.990
 1458SOL    HW2 4386   2.442   1.364   3.071
 1459SOL     OW 4387   3.417   1.511   2.565
 1459SOL    HW1 4388   3.360   1.495   2.646
 1459SOL    HW2 4389   3.358   1.521   2.485
 1460SOL     OW 4390   2.997   0.703   2.579
 1460SOL    HW1 4391   3.054   0.781   2.554
 1460SOL    HW2 4392   2.937   0.729   2.655
 1461SOL     OW 4393   3.617   0.607   2.093
 1461SOL    HW1 4394   3.605   0.594   1.994
 1461SOL    HW2 4395   3.587   0.526   2.142
 1462SOL     OW 4396   2.630   1.144   2.885
 1462SOL    HW1 4397   2.552   1.161   2.945
 1462SOL    HW2 4398   2.664   1.231   2.849
 1463SOL     OW 4399   2.712   0.798   3.685
 1463SOL    HW1 4400   2.708   0.874   3.750
 1463SOL    HW2 4401   2.734   0.834   3.594
 1464SOL     OW 4402   2.547   1.012   2.527
 1464SOL    HW1 4403   2.616   0.996   2.597
 1464SOL    HW2 4404   2.474   1.069   2.565
 1465SOL     OW 4405   2.548   1.161   3.665
 1465SOL    HW1 4406   2.608   1.240   3.679
 1465SOL    HW2 4407   2.462   1.192   3.624
 1466SOL     OW 4408   2.197   1.435   2.923
 1466SOL    HW1 4409   2.119   1.404   2.870
 1466SOL    HW2 4410   2.255   1.493   2.866
 1467SOL     OW 4411   3.322   1.505   3.201
 1467SOL    HW1 4412   3.346   1.599   3.227
 1467SOL    HW2 4413   3.306   1.451   3.283
 1468SOL     OW 4414   2.300   0.392   3.361
 1468SOL    HW1 4415   2.382   0.336   3.370
 1468SOL    HW2 4416   2.219   0.334   3.365
 1469SOL     OW 4417   3.465   0.447   2.599
 1469SOL    HW1 4418   3.391   0.493   2.549
 1469SOL    HW2 4419   3.516   0.515   2.652
 1470SOL     OW 4420   2.093   1.713   2.345
 1470SOL    HW1 4421   2.127   1.790   2.399
 1470SOL    HW2 4422   2.137   1.713   2.255
 1471SOL     OW 4423   2.989   1.341   3.552
 1471SOL    HW1 4424   3.036   1.341   3.640
 1471SOL    HW2 4425   2.941   1.254   3.541
 1472SOL     OW 4426   2.092   1.434   2.400
 1472SOL    HW1 4427   2.066   1.530   2.400
 1472SOL    HW2 4428   2.021   1.380   2.445
 1473SOL     OW 4429   2.102   1.091   2.748
 1473SOL    HW1 4430   2.116   1.007   2.800
 1473SOL    HW2 4431   2.047   1.155   2.803
 1474SOL     OW 4432   2.482   1.786   3.301
 1474SOL    HW1 4433   2.390   1.769   3.336
 1474SOL    HW2 4434   2.510   1.878   3.327
 1475SOL     OW 4435   2.468   0.964   1.985
 1475SOL    HW1 4436   2.475   1.048   1.931
 1475SOL    HW2 4437   2.514   0.977   2.073
 1476SOL     OW 4438   3.456   0.114   3.342
 1476SOL    HW1 4439   3.438   0.181   3.270
 1476SOL    HW2 4440   3.453   0.160   3.431
 1477SOL     OW 4441   1.984   0.643   2.425
 1477SOL    HW1 4442   1.939   0.555   2.442
 1477SOL    HW2 4443   1.983   0.697   2.509
 1478SOL     OW 4444   3.704   1.767   2.221
 1478SOL    HW1 4445   3.758   1.738   2.301
 1478SOL    HW2 4446   3.734   1.857   2.192
 1479SOL     OW 4447   1.889   1.596   1.979
 1479SOL    HW1 4448   1.870   1.500   2.000
 1479SOL    HW2 4449   1.856   1.654   2.054
 1480SOL     OW 4450   3.551   0.922   2.474
 1480SOL    HW1 4451   3.646   0.893   2.482
 1480SOL    HW2 4452   3.543   0.987   2.399
 1481SOL     OW 4453   3.503   1.108   2.294
 1481SOL    HW1 4454   3.589   1.110   2.242
 1481SOL    HW2 4455   3.517   1.155   2.382
 1482SOL     OW 4456   1.975   0.737   3.459
 1482SOL    HW1 4457   2.063   0.724   3.504
 1482SOL    HW2 4458   1.962   0.834   3.437
 1483SOL     OW 4459   2.475   1.365   2.588
 1483SOL    HW1 4460   2.426   1.278   2.597
 1483SOL    HW2 4461   2.452   1.408   2.501
 1484SOL     OW 4462   3.155   1.228   3.285
 1484SOL    HW1 4463   3.192   1.155   3.227
 1484SOL    HW2 4464   3.207   1.233   3.370
 1485SOL     OW 4465   2.671   0.004   2.364
 1485SOL    HW1 4466   2.711   0.095   2.355
 1485SOL    HW2 4467   2.571   0.012   2.370
 1486SOL     OW 4468   2.059   0.976   3.126
 1486SOL    HW1 4469   2.148   0.931   3.112
 1486SOL    HW2 4470   1.986   0.911   3.107
 1487SOL     OW 4471   3.387   0.999   2.052
 1487SOL    HW1 4472   3.324   0.923   2.065
 1487SOL    HW2 4473   3.435   1.017   2.138
 1488SOL     OW 4474   3.049   1.792   3.478
 1488SOL    HW1 4475   3.073   1.852   3.402
 1488SOL    HW2 4476   3.056   1.697   3.448
 1489SOL     OW 4477   2.179   0.251   3.663
 1489SOL    HW1 4478   2.250   0.322   3.669
 1489SOL    HW2 4479   2.091   0.290   3.691
 1490SOL     OW 4480   3.328   1.417   2.815
 1490SOL    HW1 4481   3.269   1.423   2.895
 1490SOL    HW2 4482   3.313   1.329   2.769
 1491SOL     OW 4483   3.529   1.714   2.434
 1491SOL    HW1 4484   3.488   1.691   2.346
 1491SOL    HW2 4485   3.511   1.640   2.499
 1492SOL     OW 4486   2.460   0.729   2.132
 1492SOL    HW1 4487   2.484   0.798   2.064
 1492SOL    HW2 4488   2.382   0.762   2.186
 1493SOL     OW 4489   3.143   0.345   2.806
 1493SOL    HW1 4490   3.057   0.295   2.793
 1493SOL    HW2 4491   3.205   0.291   2.862
 1494SOL     OW 4492   3.438   1.662   2.169
 1494SOL    HW1 4493   3.527   1.708   2.172
 1494SOL    HW2 4494   3.417   1.638   2.074
 1495SOL     OW 4495   2.669   0.605   3.327
 1495SOL    HW1 4496   2.622   0.602   3.416
 1495SOL    HW2 4497   2.618   0.550   3.261
 1496SOL     OW 4498   3.256   0.469   3.536
 1496SOL    HW1 4499   3.236   0.512   3.624
 1496SOL    HW2 4500   3.334   0.407   3.545
 1497SOL     OW 4501   2.835   0.890   3.434
 1497SOL    HW1 4502   2.881   0.806   3.405
 1497SOL    HW2 4503   2.779   0.924   3.359
 1498SOL     OW 4504   2.853   0.410   3.104
 1498SOL    HW1 4505   2.776   0.444   3.158
 1498SOL    HW2 4506   2.819   0.359   3.025
 1499SOL     OW 4507   2.903   0.701   2.291
 1499SOL    HW1 4508   2.929   0.697   2.387
 1499SOL    HW2 4509   2.818   0.650   2.277
 1500SOL     OW 4510   1.938   0.811   2.651
 1500SOL    HW1 4511   2.037   0.799   2.660
 1500SOL    HW2 4512   1.914   0.906   2.672
 1501SOL     OW 4513   1.992   1.821   3.433
 1501SOL    HW1 4514   1.982   1.806   3.532
 1501SOL    HW2 4515   1.906   1.857   3.397
 1502SOL     OW 4516   2.727   0.348   2.057
 1502SOL    HW1 4517   2.786   0.411   2.008
 1502SOL    HW2 4518   2.746   0.254   2.028
 1503SOL     OW 4519   3.581   0.585   3.693
 1503SOL    HW1 4520   3.555   0.674   3.657
 1503SOL    HW2 4521   3.579   0.517   3.620
 1504SOL     OW 4522   3.224   1.144   2.407
 1504SOL    HW1 4523   3.307   1.115   2.359
 1504SOL    HW2 4524   3.175   1.211   2.351
 1505SOL     OW 4525   2.412   0.196   2.747
 1505SOL    HW1 4526   2.407   0.191   2.847
 1505SOL    HW2 4527   2.414   0.292   2.718
 1506SOL     OW 4528   2.870   1.456   2.339
 1506SOL    HW1 4529   2.824   1.528   2.287
 1506SOL    HW2 4530   2.866   1.476   2.437
 1507SOL     OW 4531   2.213   1.801   2.715
 1507SOL    HW1 4532   2.263   1.715   2.721
 1507SOL    HW2 4533   2.278   1.878   2.712
 1508SOL     OW 4534   3.657   1.066   2.735
 1508SOL    HW1 4535   3.595   1.051   2.659
 1508SOL    HW2 4536   3.605   1.077   2.820
 1509SOL     OW 4537   3.089   1.550   3.368
 1509SOL    HW1 4538   3.095   1.473   3.432
 1509SOL    HW2 4539   3.037   1.524   3.288
 1510SOL     OW 4540   2.183   0.943   2.104
 1510SOL    HW1 4541   2.265   0.982   2.062
 1510SOL    HW2 4542   2.156   0.861   2.055
 1511SOL     OW 4543   3.320   0.735   2.590
 1511SOL    HW1 4544   3.315   0.670   2.665
 1511SOL    HW2 4545   3.400   0.794   2.603
 1512SOL     OW 4546   2.323   1.266   3.589
 1512SOL    HW1 4547   2.273   1.267   3.503
 1512SOL    HW2 4548   2.260   1.248   3.665
 1513SOL     OW 4549   2.973   1.776   2.099
 1513SOL    HW1 4550   2.913   1.714   2.149
 1513SOL    HW2 4551   3.004   1.732   2.014
 1514SOL     OW 4552   2.064   0.285   3.360
 1514SOL    HW1 4553   1.984   0.345   3.347
 1514SOL    HW2 4554   2.054   0.236   3.446
 1515SOL     OW 4555   3.494   1.377   1.943
 1515SOL    HW1 4556   3.462   1.471   1.933
 1515SOL    HW2 4557   3.418   1.314   1.931
 1516SOL     OW 4558   2.326   1.743   2.185
 1516SOL    HW1 4559   2.359   1.782   2.271
 1516SOL    HW2 4560   2.402   1.736   2.120
 1517SOL     OW 4561   3.262   0.107   2.288
 1517SOL    HW1 4562   3.238   0.070   2.198
 1517SOL    HW2 4563   3.361   0.123   2.292
 1518SOL     OW 4564   2.111   1.785   3.103
 1518SOL    HW1 4565   2.168   1.720   3.153
 1518SOL    HW2 4566   2.095   1.752   3.010
 1519SOL     OW 4567   2.802   1.698   2.766
 1519SOL    HW1 4568   2.882   1.641   2.787
 1519SOL    HW2 4569   2.753   1.658   2.689
 1520SOL     OW 4570   2.244   0.700   2.342
 1520SOL    HW1 4571   2.289   0.610   2.339
 1520SOL    HW2 4572   2.150   0.689   2.375
 1521SOL     OW 4573   3.409   0.222   3.591
 1521SOL    HW1 4574   3.404   0.259   3.683
 1521SOL    HW2 4575   3.337   0.153   3.579
 1522SOL     OW 4576   2.476   0.122   1.979
 1522SOL    HW1 4577   2.574   0.100   1.986
 1522SOL    HW2 4578   2.445   0.105   1.886
 1523SOL     OW 4579   2.643   0.264   3.611
 1523SOL    HW1 4580   2.710   0.203   3.654
 1523SOL    HW2 4581   2.570   0.283   3.676
 1524SOL     OW 4582   2.750   1.514   3.057
 1524SOL    HW1 4583   2.727   1.489   2.963
 1524SOL    HW2 4584   2.811   1.445   3.096
 1525SOL     OW 4585   3.213   0.590   3.295
 1525SOL    HW1 4586   3.241   0.547   3.380
 1525SOL    HW2 4587   3.238   0.686   3.296
 1526SOL     OW 4588   2.665   1.402   2.786
 1526SOL    HW1 4589   2.755   1.416   2.744
 1526SOL    HW2 4590   2.594   1.404   2.715
 1527SOL     OW 4591   2.784   0.503   2.761
 1527SOL    HW1 4592   2.759   0.494   2.665
 1527SOL    HW2 4593   2.832   0.421   2.792
 1528SOL     OW 4594   2.401   0.064   2.374
 1528SOL    HW1 4595   2.320   0.065   2.432
 1528SOL    HW2 4596   2.404   0.147   2.319
 1529SOL     OW 4597   3.296   1.188   1.903
 1529SOL    HW1 4598   3.328   1.112   1.960
 1529SOL    HW2 4599   3.204   1.215   1.933
 1530SOL     OW 4600   2.159   0.035   2.033
 1530SOL    HW1 4601   2.208   0.119   2.012
 1530SOL    HW2 4602   2.221  -0.030   2.078
 1531SOL     OW 4603   2.797   0.236   2.342
 1531SOL    HW1 4604   2.749   0.277   2.264
 1531SOL    HW2 4605   2.896   0.234   2.323
 1532SOL     OW 4606   2.938   0.683   3.326
 1532SOL    HW1 4607   2.858   0.622   3.329
 1532SOL    HW2 4608   3.019   0.630   3.302
 1533SOL     OW 4609   3.089   1.570   2.655
 1533SOL    HW1 4610   3.110   1.644   2.590
 1533SOL    HW2 4611   3.157   1.570   2.728
 1534SOL     OW 4612   2.321   1.152   2.603
 1534SOL    HW1 4613   2.250   1.125   2.668
 1534SOL    HW2 4614   2.295   1.124   2.510
 1535SOL     OW 4615   3.133   1.797   2.453
 1535SOL    HW1 4616   3.177   1.861   2.389
 1535SOL    HW2 4617   3.083   1.849   2.523
 1536SOL     OW 4618   2.894   0.549   1.878
 1536SOL    HW1 4619   2.853   0.631   1.839
 1536SOL    HW2 4620   2.958   0.575   1.951
 1537SOL     OW 4621   1.940   0.556   3.248
 1537SOL    HW1 4622   2.032   0.555   3.207
 1537SOL    HW2 4623   1.934   0.630   3.315
 1538SOL     OW 4624   2.423   0.222   3.009
 1538SOL    HW1 4625   2.461   0.138   3.046
 1538SOL    HW2 4626   2.335   0.241   3.053
 1539SOL     OW 4627   2.728   0.454   2.504
 1539SOL    HW1 4628   2.696   0.526   2.442
 1539SOL    HW2 4629   2.752   0.373   2.451
 1540SOL     OW 4630   2.879   0.039   2.615
 1540SOL    HW1 4631   2.807   0.044   2.546
 1540SOL    HW2 4632   2.855  -0.030   2.684
 1541SOL     OW 4633   3.291   1.173   2.729
 1541SOL    HW1 4634   3.236   1.089   2.722
 1541SOL    HW2 4635   3.317   1.202   2.637
 1542SOL     OW 4636   3.328   0.590   2.854
 1542SOL    HW1 4637   3.298   0.495   2.861
 1542SOL    HW2 4638   3.401   0.606   2.920
 1543SOL     OW 4639   3.719   0.833   2.239
 1543SOL    HW1 4640   3.761   0.769   2.303
 1543SOL    HW2 4641   3.681   0.782   2.161
 1544SOL     OW 4642   2.350   1.385   2.036
 1544SOL    HW1 4643   2.263   1.370   2.083
 1544SOL    HW2 4644   2.333   1.411   1.941
 1545SOL     OW 4645   3.526   1.280   2.519
 1545SOL    HW1 4646   3.625   1.288   2.533
 1545SOL    HW2 4647   3.481   1.364   2.550
 1546SOL     OW 4648   3.252   0.575   1.940
 1546SOL    HW1 4649   3.198   0.554   2.021
 1546SOL    HW2 4650   3.343   0.534   1.949
 1547SOL     OW 4651   2.389   0.256   2.190
 1547SOL    HW1 4652   2.416   0.197   2.115
 1547SOL    HW2 4653   2.389   0.351   2.159
 1548SOL     OW 4654   3.616   1.223   3.450
 1548SOL    HW1 4655   3.707   1.184   3.437
 1548SOL    HW2 4656   3.624   1.319   3.474
 1549SOL     OW 4657   2.926   1.347   3.202
 1549SOL    HW1 4658   2.846   1.324   3.257
 1549SOL    HW2 4659   3.009   1.321   3.251
 1550SOL     OW 4660   3.454   1.629   3.487
 1550SOL    HW1 4661   3.481   1.663   3.397
 1550SOL    HW2 4662   3.533   1.591   3.533
 1551SOL     OW 4663   2.973   1.195   2.962
 1551SOL    HW1 4664   2.933   1.239   3.043
 1551SOL    HW2 4665   2.932   1.232   2.879
 1552SOL     OW 4666   3.500   1.099   2.941
 1552SOL    HW1 4667   3.505   1.180   3.000
 1552SOL    HW2 4668   3.414   1.101   2.890
 1553SOL     OW 4669   2.777   0.089   3.264
 1553SOL    HW1 4670   2.802   0.069   3.169
 1553SOL    HW2 4671   2.849   0.145   3.306
 1554SOL     OW 4672   2.842   1.116   3.581
 1554SOL    HW1 4673   2.743   1.122   3.591
 1554SOL    HW2 4674   2.865   1.036   3.525
 1555SOL     OW 4675   2.567   1.050   2.230
 1555SOL    HW1 4676   2.553   1.057   2.329
 1555SOL    HW2 4677   2.651   0.999   2.212
 1556SOL     OW 4678   2.272   0.813   3.113
 1556SOL    HW1 4679   2.358   0.825   3.163
 1556SOL    HW2 4680   2.230   0.726   3.140
 1557SOL     OW 4681   3.136   0.386   3.124
 1557SOL    HW1 4682   3.157   0.460   3.188
 1557SOL    HW2 4683   3.047   0.403   3.081
 1558SOL     OW 4684   1.926   1.564   3.193
 1558SOL    HW1 4685   1.880   1.646   3.159
 1558SOL    HW2 4686   2.024   1.583   3.202
 1559SOL     OW 4687   2.229   1.100   2.363
 1559SOL    HW1 4688   2.222   1.183   2.307
 1559SOL    HW2 4689   2.233   1.020   2.303
 1560SOL     OW 4690   2.428   0.537   2.727
 1560SOL    HW1 4691   2.440   0.603   2.653
 1560SOL    HW2 4692   2.474   0.571   2.810
 1561SOL     OW 4693   3.114   1.348   2.250
 1561SOL    HW1 4694   3.164   1.425   2.290
 1561SOL    HW2 4695   3.019   1.350   2.282
 1562SOL     OW 4696   3.134   1.445   3.004
 1562SOL    HW1 4697   3.181   1.458   3.091
 1562SOL    HW2 4698   3.068   1.371   3.013
 1563SOL     OW 4699   3.444   0.639   2.334
 1563SOL    HW1 4700   3.413   0.700   2.407
 1563SOL    HW2 4701   3.494   0.691   2.265
 1564SOL     OW 4702   2.216   1.510   3.191
 1564SOL    HW1 4703   2.195   1.466   3.104
 1564SOL    HW2 4704   2.313   1.536   3.194
 1565SOL     OW 4705   2.264   0.751   3.460
 1565SOL    HW1 4706   2.332   0.806   3.413
 1565SOL    HW2 4707   2.304   0.663   3.487
 1566SOL     OW 4708   3.449   0.779   3.532
 1566SOL    HW1 4709   3.357   0.817   3.527
 1566SOL    HW2 4710   3.509   0.826   3.467
 1567SOL     OW 4711   2.875   0.105   3.632
 1567SOL    HW1 4712   2.881   0.190   3.580
 1567SOL    HW2 4713   2.907   0.029   3.575
 1568SOL     OW 4714   2.366   0.050   3.602
 1568SOL    HW1 4715   2.324  -0.007   3.532
 1568SOL    HW2 4716   2.300   0.119   3.634
 1569SOL     OW 4717   2.435   0.870   2.891
 1569SOL    HW1 4718   2.479   0.959   2.882
 1569SOL    HW2 4719   2.372   0.870   2.968
 1570SOL     OW 4720   3.222   0.862   2.907
 1570SOL    HW1 4721   3.147   0.862   2.841
 1570SOL    HW2 4722   3.259   0.770   2.916
 1571SOL     OW 4723   3.071   0.525   2.137
 1571SOL    HW1 4724   3.084   0.441   2.191
 1571SOL    HW2 4725   3.042   0.599   2.197
 1572SOL     OW 4726   2.169   0.213   3.093
 1572SOL    HW1 4727   2.146   0.250   3.183
 1572SOL    HW2 4728   2.139   0.118   3.087
 1573SOL     OW 4729   1.899   1.310   3.144
 1573SOL    HW1 4730   1.952   1.261   3.212
 1573SOL    HW2 4731   1.921   1.408   3.149
 1574SOL     OW 4732   2.594   0.634   2.926
 1574SOL    HW1 4733   2.653   0.608   2.850
 1574SOL    HW2 4734   2.566   0.730   2.915
 1575SOL     OW 4735   3.590   0.935   3.716
 1575SOL    HW1 4736   3.544   0.928   3.627
 1575SOL    HW2 4737   3.528   0.979   3.782
 1576SOL     OW 4738   2.169   0.063   2.480
 1576SOL    HW1 4739   2.158   0.157   2.513
 1576SOL    HW2 4740   2.164   0.000   2.557
 1577SOL     OW 4741   3.484   0.367   2.236
 1577SOL    HW1 4742   3.486   0.291   2.300
 1577SOL    HW2 4743   3.436   0.444   2.276
 1578SOL     OW 4744   2.885   0.766   2.828
 1578SOL    HW1 4745   2.900   0.787   2.924
 1578SOL    HW2 4746   2.855   0.671   2.819
 1579SOL     OW 4747   2.842   1.573   3.562
 1579SOL    HW1 4748   2.822   1.617   3.474
 1579SOL    HW2 4749   2.881   1.482   3.546
 1580SOL     OW 4750   3.721   1.518   3.467
 1580SOL    HW1 4751   3.735   1.545   3.372
 1580SOL    HW2 4752   3.804   1.540   3.520
 1581SOL     OW 4753   2.212   0.898   3.666
 1581SOL    HW1 4754   2.288   0.942   3.714
 1581SOL    HW2 4755   2.247   0.851   3.584
 1582SOL     OW 4756   3.402   0.274   1.987
 1582SOL    HW1 4757   3.341   0.199   2.010
 1582SOL    HW2 4758   3.424   0.326   2.070
 1583SOL     OW 4759   3.165   0.838   1.904
 1583SOL    HW1 4760   3.199   0.745   1.919
 1583SOL    HW2 4761   3.183   0.865   1.809
 1584SOL     OW 4762   2.930   1.333   2.711
 1584SOL    HW1 4763   2.937   1.249   2.656
 1584SOL    HW2 4764   2.992   1.402   2.675
 1585SOL     OW 4765   2.181   0.810   2.811
 1585SOL    HW1 4766   2.274   0.846   2.816
 1585SOL    HW2 4767   2.175   0.725   2.863
 1586SOL     OW 4768   2.201   0.509   2.868
 1586SOL    HW1 4769   2.149   0.426   2.851
 1586SOL    HW2 4770   2.278   0.514   2.804
 1587SOL     OW 4771   3.000   0.380   3.540
 1587SOL    HW1 4772   2.955   0.443   3.604
 1587SOL    HW2 4773   3.093   0.411   3.523
 1588SOL     OW 4774   3.022   0.207   3.339
 1588SOL    HW1 4775   3.022   0.271   3.416
 1588SOL    HW2 4776   3.050   0.255   3.256
 1589SOL     OW 4777   1.870   1.326   2.062
 1589SOL    HW1 4778   1.777   1.347   2.031
 1589SOL    HW2 4779   1.880   1.227   2.075
 1590SOL     OW 4780   1.950   1.801   2.789
 1590SOL    HW1 4781   1.908   1.715   2.762
 1590SOL    HW2 4782   2.044   1.804   2.755
 1591SOL     OW 4783   2.366   1.568   2.772
 1591SOL    HW1 4784   2.432   1.642   2.781
 1591SOL    HW2 4785   2.410   1.489   2.730
 1592SOL     OW 4786   2.864   0.796   3.100
 1592SOL    HW1 4787   2.905   0.764   3.186
 1592SOL    HW2 4788   2.768   0.769   3.097
 1593SOL     OW 4789   1.902   0.544   2.976
 1593SOL    HW1 4790   1.987   0.511   2.935
 1593SOL    HW2 4791   1.915   0.559   3.074
 1594SOL     OW 4792   2.051   0.520   3.584
 1594SOL    HW1 4793   2.110   0.480   3.514
 1594SOL    HW2 4794   1.993   0.591   3.543
 1595SOL     OW 4795   3.231   0.950   3.522
 1595SOL    HW1 4796   3.270   1.039   3.542
 1595SOL    HW2 4797   3.241   0.930   3.425
 1596SOL     OW 4798   2.677   0.572   2.187
 1596SOL    HW1 4799   2.684   0.483   2.141
 1596SOL    HW2 4800   2.583   0.606   2.179
 1597SOL     OW 4801   3.519   0.604   3.068
 1597SOL    HW1 4802   3.481   0.535   3.130
 1597SOL    HW2 4803   3.601   0.568   3.024
 1598SOL     OW 4804   2.114   1.564   3.606
 1598SOL    HW1 4805   2.084   1.621   3.682
 1598SOL    HW2 4806   2.107   1.467   3.632
 1599SOL     OW 4807   2.533   0.464   3.131
 1599SOL    HW1 4808   2.499   0.375   3.101
 1599SOL    HW2 4809   2.559   0.518   3.051
 1600SOL     OW 4810   2.792   1.678   3.327
 1600SOL    HW1 4811   2.768   1.660   3.232
 1600SOL    HW2 4812   2.822   1.772   3.337
 1601SOL     OW 4813   2.335   0.500   2.053
 1601SOL    HW1 4814   2.396   0.580   2.057
 1601SOL    HW2 4815   2.240   0.531   2.060
 1602SOL     OW 4816   2.021   1.137   3.328
 1602SOL    HW1 4817   2.043   1.076   3.404
 1602SOL    HW2 4818   2.031   1.088   3.242
 1603SOL     OW 4819   3.209   1.059   3.096
 1603SOL    HW1 4820   3.233   0.996   3.022
 1603SOL    HW2 4821   3.119   1.099   3.078
 1604SOL     OW 4822   3.164   0.855   2.171
 1604SOL    HW1 4823   3.078   0.824   2.213
 1604SOL    HW2 4824   3.160   0.841   2.072
 1605SOL     OW 4825   3.621   1.747   3.016
 1605SOL    HW1 4826   3.682   1.777   2.943
 1605SOL    HW2 4827   3.583   1.658   2.994
 1606SOL     OW 4828   3.114   1.731   2.990
 1606SOL    HW1 4829   3.198   1.736   2.936
 1606SOL    HW2 4830   3.091   1.635   3.008
 1607SOL     OW 4831   1.945   1.258   2.884
 1607SOL    HW1 4832   1.940   1.257   2.984
 1607SOL    HW2 4833   1.862   1.217   2.846
 1608SOL     OW 4834   2.550   1.662   3.578
 1608SOL    HW1 4835   2.494   1.743   3.587
 1608SOL    HW2 4836   2.602   1.666   3.492
 1609SOL     OW 4837   3.588   0.135   2.385
 1609SOL    HW1 4838   3.661   0.118   2.318
 1609SOL    HW2 4839   3.557   0.048   2.423
 1610SOL     OW 4840   3.250   1.573   2.339
 1610SOL    HW1 4841   3.317   1.585   2.265
 1610SOL    HW2 4842   3.210   1.662   2.362
 1611SOL     OW 4843   1.992   1.794   3.713
 1611SOL    HW1 4844   1.951   1.720   3.766
 1611SOL    HW2 4845   2.056   1.845   3.771
 1612SOL     OW 4846   3.142   0.927   2.534
 1612SOL    HW1 4847   3.202   0.846   2.536
 1612SOL    HW2 4848   3.182   0.996   2.474
 1613SOL     OW 4849   2.692   1.273   3.284
 1613SOL    HW1 4850   2.687   1.306   3.379
 1613SOL    HW2 4851   2.606   1.292   3.238
 1614SOL     OW 4852   2.534   1.616   2.016
 1614SOL    HW1 4853   2.543   1.626   1.917
 1614SOL    HW2 4854   2.494   1.527   2.037
 1615SOL     OW 4855   3.512   1.720   3.256
 1615SOL    HW1 4856   3.565   1.730   3.172
 1615SOL    HW2 4857   3.485   1.810   3.290
 1616SOL     OW 4858   3.703   0.175   2.825
 1616SOL    HW1 4859   3.742   0.090   2.789
 1616SOL    HW2 4860   3.605   0.177   2.806
 1617SOL     OW 4861   2.125   0.326   2.582
 1617SOL    HW1 4862   2.046   0.377   2.548
 1617SOL    HW2 4863   2.116   0.311   2.680
 1618SOL     OW 4864   3.056   1.612   1.893
 1618SOL    HW1 4865   3.062   1.519   1.930
 1618SOL    HW2 4866   2.997   1.612   1.813
 1619SOL     OW 4867   2.684   1.002   3.234
 1619SOL    HW1 4868   2.724   1.001   3.142
 1619SOL    HW2 4869   2.694   1.094   3.274
 1620SOL     OW 4870   2.778   0.910   2.153
 1620SOL    HW1 4871   2.841   0.948   2.085
 1620SOL    HW2 4872   2.818   0.827   2.192
 1621SOL     OW 4873   3.366   1.607   1.906
 1621SOL    HW1 4874   3.274   1.644   1.913
 1621SOL    HW2 4875   3.404   1.627   1.816
 1622SOL     OW 4876   2.234   1.288   3.352
 1622SOL    HW1 4877   2.221   1.381   3.318
 1622SOL    HW2 4878   2.150   1.236   3.339
 1623SOL     OW 4879   3.476   1.292   3.151
 1623SOL    HW1 4880   3.536   1.295   3.231
 1623SOL    HW2 4881   3.401   1.356   3.164
 1624SOL     OW 4882   2.901   1.098   2.558
 1624SOL    HW1 4883   2.831   1.051   2.612
 1624SOL    HW2 4884   2.960   1.030   2.515
 1625SOL     OW 4885   2.876   0.236   2.833
 1625SOL    HW1 4886   2.868   0.200   2.740
 1625SOL    HW2 4887   2.874   0.160   2.898
 1626SOL     OW 4888   2.452   1.487   2.353
 1626SOL    HW1 4889   2.494   1.429   2.283
 1626SOL    HW2 4890   2.408   1.566   2.309
 1627SOL     OW 4891   3.571   0.385   3.243
 1627SOL    HW1 4892   3.644   0.454   3.247
 1627SOL    HW2 4893   3.599   0.310   3.184
 1628SOL     OW 4894   2.117   1.348   2.152
 1628SOL    HW1 4895   2.021   1.349   2.125
 1628SOL    HW2 4896   2.129   1.401   2.236
 1629SOL     OW 4897   1.967   1.013   3.588
 1629SOL    HW1 4898   1.890   0.980   3.642
 1629SOL    HW2 4899   2.052   0.983   3.630
 1630SOL     OW 4900   2.534   0.203   3.351
 1630SOL    HW1 4901   2.624   0.187   3.311
 1630SOL    HW2 4902   2.542   0.208   3.450
 1631SOL     OW 4903   1.937   0.345   1.895
 1631SOL    HW1 4904   1.845   0.317   1.866
 1631SOL    HW2 4905   1.968   0.422   1.839
 1632SOL     OW 4906   3.302   0.856   3.260
 1632SOL    HW1 4907   3.245   0.908   3.197
 1632SOL    HW2 4908   3.398   0.868   3.236
 1633SOL     OW 4909   1.934   0.166   2.180
 1633SOL    HW1 4910   1.917   0.249   2.126
 1633SOL    HW2 4911   2.024   0.129   2.158
 1634SOL     OW 4912   3.045   1.335   1.981
 1634SOL    HW1 4913   2.946   1.324   1.983
 1634SOL    HW2 4914   3.079   1.350   2.074
 1635SOL     OW 4915   2.475   0.842   3.293
 1635SOL    HW1 4916   2.531   0.923   3.276
 1635SOL    HW2 4917   2.534   0.762   3.296
 1636SOL     OW 4918   3.355   1.767   2.821
 1636SOL    HW1 4919   3.388   1.831   2.752
 1636SOL    HW2 4920   3.421   1.761   2.896
 1637SOL     OW 4921   2.578   0.565   3.570
 1637SOL    HW1 4922   2.597   0.630   3.644
 1637SOL    HW2 4923   2.638   0.485   3.579
 1638SOL     OW 4924   3.312   1.220   3.495
 1638SOL    HW1 4925   3.303   1.210   3.594
 1638SOL    HW2 4926   3.408   1.213   3.469
 1639SOL     OW 4927   2.252   1.741   3.422
 1639SOL    HW1 4928   2.161   1.782   3.420
 1639SOL    HW2 4929   2.245   1.647   3.454
 1640SOL     OW 4930   3.536   0.883   3.116
 1640SOL    HW1 4931   3.509   0.794   3.079
 1640SOL    HW2 4932   3.537   0.951   3.043
 1641SOL     OW 4933   3.087   0.325   2.311
 1641SOL    HW1 4934   3.152   0.251   2.300
 1641SOL    HW2 4935   3.107   0.375   2.395
 1642SOL     OW 4936   2.456   0.745   2.514
 1642SOL    HW1 4937   2.506   0.830   2.495
 1642SOL    HW2 4938   2.368   0.747   2.466
 1643SOL     OW 4939   3.639   0.342   3.504
 1643SOL    HW1 4940   3.622   0.373   3.410
 1643SOL    HW2 4941   3.555   0.305   3.542
 1644SOL     OW 4942   3.592   0.934   3.379
 1644SOL    HW1 4943   3.630   1.025   3.394
 1644SOL    HW2 4944   3.584   0.917   3.280
 1645SOL     OW 4945   2.721   1.374   1.878
 1645SOL    HW1 4946   2.675   1.389   1.966
 1645SOL    HW2 4947   2.765   1.459   1.848
 1646SOL     OW 4948   2.523   1.790   2.815
 1646SOL    HW1 4949   2.477   1.878   2.802
 1646SOL    HW2 4950   2.622   1.802   2.808
 1647SOL     OW 4951   2.721   0.956   2.723
 1647SOL    HW1 4952   2.775   0.887   2.771
 1647SOL    HW2 4953   2.689   1.025   2.789
 1648SOL     OW 4954   2.945   0.984   1.949
 1648SOL    HW1 4955   2.922   1.037   1.867
 1648SOL    HW2 4956   3.026   0.928   1.930
 1649SOL     OW 4957   3.723   1.569   2.713
 1649SOL    HW1 4958   3.652   1.557   2.643
 1649SOL    HW2 4959   3.724   1.490   2.773
 1650SOL     OW 4960   2.083   1.314   3.706
 1650SOL    HW1 4961   2.018   1.241   3.685
 1650SOL    HW2 4962   2.087   1.328   3.804
 1651SOL     OW 4963   1.941   1.240   2.515
 1651SOL    HW1 4964   1.940   1.193   2.603
 1651SOL    HW2 4965   2.023   1.212   2.464
 1652SOL     OW 4966   2.534   1.391   3.486
 1652SOL    HW1 4967   2.456   1.341   3.524
 1652SOL    HW2 4968   2.531   1.486   3.517
 1653SOL     OW 4969   3.686   0.192   3.089
 1653SOL    HW1 4970   3.682   0.102   3.133
 1653SOL    HW2 4971   3.689   0.181   2.990
 1654SOL     OW 4972   2.290   0.424   2.382
 1654SOL    HW1 4973   2.320   0.352   2.320
 1654SOL    HW2 4974   2.251   0.384   2.465
 1655SOL     OW 4975   3.567   1.487   2.966
 1655SOL    HW1 4976   3.474   1.462   2.939
 1655SOL    HW2 4977   3.593   1.437   3.048
 1656SOL     OW 4978   2.179   0.547   3.142
 1656SOL    HW1 4979   2.217   0.488   3.214
 1656SOL    HW2 4980   2.219   0.521   3.054
 1657SOL     OW 4981   2.674   1.586   2.549
 1657SOL    HW1 4982   2.706   1.596   2.455
 1657SOL    HW2 4983   2.595   1.524   2.551
 1658SOL     OW 4984   3.286   0.214   2.974
 1658SOL    HW1 4985   3.338   0.149   3.029
 1658SOL    HW2 4986   3.237   0.277   3.035
 1659SOL     OW 4987   2.863   0.034   3.016
 1659SOL    HW1 4988   2.800  -0.038   2.985
 1659SOL    HW2 4989   2.956  -0.002   3.016
 1660SOL     OW 4990   2.632   1.330   2.163
 1660SOL    HW1 4991   2.586   1.243   2.180
 1660SOL    HW2 4992   2.723   1.327   2.204
 1661SOL     OW 4993   2.480   1.567   3.146
 1661SOL    HW1 4994   2.475   1.649   3.203
 1661SOL    HW2 4995   2.569   1.564   3.101
 1662SOL     OW 4996   3.214   0.052   2.030
 1662SOL    HW1 4997   3.249   0.011   1.946
 1662SOL    HW2 4998   3.124   0.014   2.050
 1663SOL     OW 4999   3.162   0.453   2.553
 1663SOL    HW1 5000   3.103   0.533   2.557
 1663SOL    HW2 5001   3.177   0.418   2.646
 1664SOL     OW 5002   3.455   0.221   2.744
 1664SOL    HW1 5003   3.371   0.220   2.798
 1664SOL    HW2 5004   3.457   0.304   2.688
 1665SOL     OW 5005   1.901   1.077   2.162
 1665SOL    HW1 5006   2.000   1.066   2.153
 1665SOL    HW2 5007   1.861   0.991   2.194
 1666SOL     OW 5008   2.737   1.646   2.199
 1666SOL    HW1 5009   2.660   1.611   2.145
 1666SOL    HW2 5010   2.705   1.717   2.261
 1667SOL     OW 5011   2.092   0.628   3.837
 1667SOL    HW1 5012   1.999   0.626   3.874
 1667SOL    HW2 5013   2.093   0.589   3.745
 1668SOL     OW 5014   1.881   0.368   4.371
 1668SOL    HW1 5015   1.799   0.411   4.410
 1668SOL    HW2 5016   1.853   0.295   4.308
 1669SOL     OW 5017   3.617   0.607   3.955
 1669SOL    HW1 5018   3.605   0.594   3.856
 1669SOL    HW2 5019   3.587   0.526   4.004
 1670SOL     OW 5020   2.547   1.012   4.389
 1670SOL    HW1 5021   2.616   0.996   4.459
 1670SOL    HW2 5022   2.474   1.069   4.427
 1671SOL     OW 5023   3.465   0.447   4.461
 1671SOL    HW1 5024   3.391   0.493   4.411
 1671SOL    HW2 5025   3.516   0.515   4.514
 1672SOL     OW 5026   2.093   1.713   4.207
 1672SOL    HW1 5027   2.127   1.790   4.261
 1672SOL    HW2 5028   2.137   1.713   4.117
 1673SOL     OW 5029   2.092   1.434   4.262
 1673SOL    HW1 5030   2.066   1.530   4.262
 1673SOL    HW2 5031   2.021   1.380   4.307
 1674SOL     OW 5032   2.468   0.964   3.847
 1674SOL    HW1 5033   2.475   1.048   3.793
 1674SOL    HW2 5034   2.514   0.977   3.935
 1675SOL     OW 5035   1.984   0.643   4.287
 1675SOL    HW1 5036   1.939   0.555   4.304
 1675SOL    HW2 5037   1.983   0.697   4.371
 1676SOL     OW 5038   3.704   1.767   4.083
 1676SOL    HW1 5039   3.758   1.738   4.163
 1676SOL    HW2 5040   3.734   1.857   4.054
 1677SOL     OW 5041   1.889   1.596   3.841
 1677SOL    HW1 5042   1.870   1.500   3.862
 1677SOL    HW2 5043   1.856   1.654   3.916
 1678SOL     OW 5044   3.551   0.922   4.336
 1678SOL    HW1 5045   3.646   0.893   4.344
 1678SOL    HW2 5046   3.543   0.987   4.261
 1679SOL     OW 5047   3.503   1.108   4.156
 1679SOL    HW1 5048   3.589   1.110   4.104
 1679SOL    HW2 5049   3.517   1.155   4.244
 1680SOL     OW 5050   2.475   1.365   4.450
 1680SOL    HW1 5051   2.426   1.278   4.459
 1680SOL    HW2 5052   2.452   1.408   4.363
 1681SOL     OW 5053   2.671   0.004   4.226
 1681SOL    HW1 5054   2.711   0.095   4.217
 1681SOL    HW2 5055   2.571   0.012   4.232
 1682SOL     OW 5056   3.387   0.999   3.914
 1682SOL    HW1 5057   3.324   0.923   3.927
 1682SOL    HW2 5058   3.435   1.017   4.000
 1683SOL     OW 5059   3.529   1.714   4.296
 1683SOL    HW1 5060   3.488   1.691   4.208
 1683SOL    HW2 5061   3.511   1.640   4.361
 1684SOL     OW 5062   2.460   0.729   3.994
 1684SOL    HW1 5063   2.484   0.798   3.926
 1684SOL    HW2 5064   2.382   0.762   4.048
 1685SOL     OW 5065   3.143   0.345   4.668
 1685SOL    HW1 5066   3.057   0.295   4.655
 1685SOL    HW2 5067   3.205   0.291   4.724
 1686SOL     OW 5068   3.438   1.662   4.031
 1686SOL    HW1 5069   3.527   1.708   4.034
 1686SOL    HW2 5070   3.417   1.638   3.936
 1687SOL     OW 5071   2.903   0.701   4.153
 1687SOL    HW1 5072   2.929   0.697   4.249
 1687SOL    HW2 5073   2.818   0.650   4.139
 1688SOL     OW 5074   1.938   0.811   4.513
 1688SOL    HW1 5075   2.037   0.799   4.522
 1688SOL    HW2 5076   1.914   0.906   4.534
 1689SOL     OW 5077   2.727   0.348   3.919
 1689SOL    HW1 5078   2.786   0.411   3.870
 1689SOL    HW2 5079   2.746   0.254   3.890
 1690SOL     OW 5080   3.224   1.144   4.269
 1690SOL    HW1 5081   3.307   1.115   4.221
 1690SOL    HW2 5082   3.175   1.211   4.213
 1691SOL     OW 5083   2.870   1.456   4.201
 1691SOL    HW1 5084   2.824   1.528   4.149
 1691SOL    HW2 5085   2.866   1.476   4.299
 1692SOL     OW 5086   2.213   1.801   4.577
 1692SOL    HW1 5087   2.263   1.715   4.583
 1692SOL    HW2 5088   2.278   1.878   4.574
 1693SOL     OW 5089   3.657   1.066   4.597
 1693SOL    HW1 5090   3.595   1.051   4.521
 1693SOL    HW2 5091   3.605   1.077   4.682
 1694SOL     OW 5092   2.183   0.943   3.966
 1694SOL    HW1 5093   2.265   0.982   3.924
 1694SOL    HW2 5094   2.156   0.861   3.917
 1695SOL     OW 5095   2.973   1.776   3.961
 1695SOL    HW1 5096   2.913   1.714   4.011
 1695SOL    HW2 5097   3.004   1.732   3.876
 1696SOL     OW 5098   3.494   1.377   3.805
 1696SOL    HW1 5099   3.462   1.471   3.795
 1696SOL    HW2 5100   3.418   1.314   3.793
 1697SOL     OW 5101   2.326   1.743   4.047
 1697SOL    HW1 5102   2.359   1.782   4.133
 1697SOL    HW2 5103   2.402   1.736   3.982
 1698SOL     OW 5104   3.262   0.107   4.150
 1698SOL    HW1 5105   3.238   0.070   4.060
 1698SOL    HW2 5106   3.361   0.123   4.154
 1699SOL     OW 5107   2.802   1.698   4.628
 1699SOL    HW1 5108   2.882   1.641   4.649
 1699SOL    HW2 5109   2.753   1.658   4.551
 1700SOL     OW 5110   2.244   0.700   4.204
 1700SOL    HW1 5111   2.289   0.610   4.201
 1700SOL    HW2 5112   2.150   0.689   4.237
 1701SOL     OW 5113   2.476   0.122   3.841
 1701SOL    HW1 5114   2.574   0.100   3.848
 1701SOL    HW2 5115   2.445   0.105   3.748
 1702SOL     OW 5116   2.401   0.064   4.236
 1702SOL    HW1 5117   2.320   0.065   4.294
 1702SOL    HW2 5118   2.404   0.147   4.181
 1703SOL     OW 5119   3.296   1.188   3.765
 1703SOL    HW1 5120   3.328   1.112   3.822
 1703SOL    HW2 5121   3.204   1.215   3.795
 1704SOL     OW 5122   2.159   0.035   3.895
 1704SOL    HW1 5123   2.208   0.119   3.874
 1704SOL    HW2 5124   2.221  -0.030   3.940
 1705SOL     OW 5125   2.797   0.236   4.204
 1705SOL    HW1 5126   2.749   0.277   4.126
 1705SOL    HW2 5127   2.896   0.234   4.185
 1706SOL     OW 5128   2.321   1.152   4.465
 1706SOL    HW1 5129   2.250   1.125   4.530
 1706SOL    HW2 5130   2.295   1.124   4.372
 1707SOL     OW 5131   3.133   1.797   4.315
 1707SOL    HW1 5132   3.177   1.861   4.251
 1707SOL    HW2 5133   3.083   1.849   4.385
 1708SOL     OW 5134   2.894   0.549   3.740
 1708SOL    HW1 5135   2.853   0.631   3.701
 1708SOL    HW2 5136   2.958   0.575   3.813
 1709SOL     OW 5137   2.728   0.454   4.366
 1709SOL    HW1 5138   2.696   0.526   4.304
 1709SOL    HW2 5139   2.752   0.373   4.313
 1710SOL     OW 5140   3.719   0.833   4.101
 1710SOL    HW1 5141   3.761   0.769   4.165
 1710SOL    HW2 5142   3.681   0.782   4.023
 1711SOL     OW 5143   2.350   1.385   3.898
 1711SOL    HW1 5144   2.263   1.370   3.945
 1711SOL    HW2 5145   2.333   1.411   3.803
 1712SOL     OW 5146   3.526   1.280   4.381
 1712SOL    HW1 5147   3.625   1.288   4.395
 1712SOL    HW2 5148   3.481   1.364   4.412
 1713SOL     OW 5149   3.252   0.575   3.802
 1713SOL    HW1 5150   3.198   0.554   3.883
 1713SOL    HW2 5151   3.343   0.534   3.811
 1714SOL     OW 5152   2.389   0.256   4.052
 1714SOL    HW1 5153   2.416   0.197   3.977
 1714SOL    HW2 5154   2.389   0.351   4.021
 1715SOL     OW 5155   2.973   1.195   4.824
 1715SOL    HW1 5156   2.933   1.239   4.905
 1715SOL    HW2 5157   2.932   1.232   4.741
 1716SOL     OW 5158   2.567   1.050   4.092
 1716SOL    HW1 5159   2.553   1.057   4.191
 1716SOL    HW2 5160   2.651   0.999   4.074
 1717SOL     OW 5161   2.229   1.100   4.225
 1717SOL    HW1 5162   2.222   1.183   4.169
 1717SOL    HW2 5163   2.233   1.020   4.165
 1718SOL     OW 5164   3.114   1.348   4.112
 1718SOL    HW1 5165   3.164   1.425   4.152
 1718SOL    HW2 5166   3.019   1.350   4.144
 1719SOL     OW 5167   3.444   0.639   4.196
 1719SOL    HW1 5168   3.413   0.700   4.269
 1719SOL    HW2 5169   3.494   0.691   4.127
 1720SOL     OW 5170   3.071   0.525   3.999
 1720SOL    HW1 5171   3.084   0.441   4.053
 1720SOL    HW2 5172   3.042   0.599   4.059
 1721SOL     OW 5173   2.169   0.063   4.342
 1721SOL    HW1 5174   2.158   0.157   4.375
 1721SOL    HW2 5175   2.164   0.000   4.419
 1722SOL     OW 5176   3.484   0.367   4.098
 1722SOL    HW1 5177   3.486   0.291   4.162
 1722SOL    HW2 5178   3.436   0.444   4.138
 1723SOL     OW 5179   3.402   0.274   3.849
 1723SOL    HW1 5180   3.341   0.199   3.872
 1723SOL    HW2 5181   3.424   0.326   3.932
 1724SOL     OW 5182   3.165   0.838   3.766
 1724SOL    HW1 5183   3.199   0.745   3.781
 1724SOL    HW2 5184   3.183   0.865   3.671
 1725SOL     OW 5185   1.870   1.326   3.924
 1725SOL    HW1 5186   1.777   1.347   3.893
 1725SOL    HW2 5187   1.880   1.227   3.937
 1726SOL     OW 5188   2.677   0.572   4.049
 1726SOL    HW1 5189   2.684   0.483   4.003
 1726SOL    HW2 5190   2.583   0.606   4.041
 1727SOL     OW 5191   2.335   0.500   3.915
 1727SOL    HW1 5192   2.396   0.580   3.919
 1727SOL    HW2 5193   2.240   0.531   3.922
 1728SOL     OW 5194   3.164   0.855   4.033
 1728SOL    HW1 5195   3.078   0.824   4.075
 1728SOL    HW2 5196   3.160   0.841   3.934
 1729SOL     OW 5197   3.588   0.135   4.247
 1729SOL    HW1 5198   3.661   0.118   4.180
 1729SOL    HW2 5199   3.557   0.048   4.285
 1730SOL     OW 5200   3.250   1.573   4.201
 1730SOL    HW1 5201   3.317   1.585   4.127
 1730SOL    HW2 5202   3.210   1.662   4.224
 1731SOL     OW 5203   2.534   1.616   3.878
 1731SOL    HW1 5204   2.543   1.626   3.779
 1731SOL    HW2 5205   2.494   1.527   3.899
 1732SOL     OW 5206   3.056   1.612   3.755
 1732SOL    HW1 5207   3.062   1.519   3.792
 1732SOL    HW2 5208   2.997   1.612   3.675
 1733SOL     OW 5209   2.778   0.910   4.015
 1733SOL    HW1 5210   2.841   0.948   3.947
 1733SOL    HW2 5211   2.818   0.827   4.054
 1734SOL     OW 5212   3.366   1.607   3.768
 1734SOL    HW1 5213   3.274   1.644   3.775
 1734SOL    HW2 5214   3.404   1.627   3.678
 1735SOL     OW 5215   2.452   1.487   4.215
 1735SOL    HW1 5216   2.494   1.429   4.145
 1735SOL    HW2 5217   2.408   1.566   4.171
 1736SOL     OW 5218   2.117   1.348   4.014
 1736SOL    HW1 5219   2.021   1.349   3.987
 1736SOL    HW2 5220   2.129   1.401   4.098
 1737SOL     OW 5221   1.937   0.345   3.757
 1737SOL    HW1 5222   1.845   0.317   3.728
 1737SOL    HW2 5223   1.968   0.422   3.701
 1738SOL     OW 5224   1.934   0.166   4.042
 1738SOL    HW1 5225   1.917   0.249   3.988
 1738SOL    HW2 5226   2.024   0.129   4.020
 1739SOL     OW 5227   3.045   1.335   3.843
 1739SOL    HW1 5228   2.946   1.324   3.845
 1739SOL    HW2 5229   3.079   1.350   3.936
 1740SOL     OW 5230   3.087   0.325   4.173
 1740SOL    HW1 5231   3.152   0.251   4.162
 1740SOL    HW2 5232   3.107   0.375   4.257
 1741SOL     OW 5233   2.456   0.745   4.376
 1741SOL    HW1 5234   2.506   0.830   4.357
 1741SOL    HW2 5235   2.368   0.747   4.328
 1742SOL     OW 5236   2.721   1.374   3.740
 1742SOL    HW1 5237   2.675   1.389   3.828
 1742SOL    HW2 5238   2.765   1.459   3.710
 1743SOL     OW 5239   2.523   1.790   4.677
 1743SOL    HW1 5240   2.477   1.878   4.664
 1743SOL    HW2 5241   2.622   1.802   4.670
 1744SOL     OW 5242   2.721   0.956   4.585
 1744SOL    HW1 5243   2.775   0.887   4.633
 1744SOL    HW2 5244   2.689   1.025   4.651
 1745SOL     OW 5245   2.945   0.984   3.811
 1745SOL    HW1 5246   2.922   1.037   3.729
 1745SOL    HW2 5247   3.026   0.928   3.792
 1746SOL     OW 5248   1.941   1.240   4.377
 1746SOL    HW1 5249   1.940   1.193   4.465
 1746SOL    HW2 5250   2.023   1.212   4.326
 1747SOL     OW 5251   2.290   0.424   4.244
 1747SOL    HW1 5252   2.320   0.352   4.182
 1747SOL    HW2 5253   2.251   0.384   4.327
 1748SOL     OW 5254   2.674   1.586   4.411
 1748SOL    HW1 5255   2.706   1.596   4.317
 1748SOL    HW2 5256   2.595   1.524   4.413
 1749SOL     OW 5257   2.632   1.330   4.025
 1749SOL    HW1 5258   2.586   1.243   4.042
 1749SOL    HW2 5259   2.723   1.327   4.066
 1750SOL     OW 5260   3.214   0.052   3.892
 1750SOL    HW1 5261   3.249   0.011   3.808
 1750SOL    HW2 5262   3.124   0.014   3.912
 1751SOL     OW 5263   3.162   0.453   4.415
 1751SOL    HW1 5264   3.103   0.533   4.419
 1751SOL    HW2 5265   3.177   0.418   4.508
 1752SOL     OW 5266   1.901   1.077   4.024
 1752SOL    HW1 5267   2.000   1.066   4.015
 1752SOL    HW2 5268   1.861   0.991   4.056
 1753SOL     OW 5269   2.737   1.646   4.061
 1753SOL    HW1 5270   2.660   1.611   4.007
 1753SOL    HW2 5271   2.705   1.717   4.123
 1754SOL     OW 5272   2.092   2.490   0.113
 1754SOL    HW1 5273   1.999   2.488   0.150
 1754SOL    HW2 5274   2.093   2.451   0.021
 1755SOL     OW 5275   2.087   2.137   0.996
 1755SOL    HW1 5276   2.122   2.120   1.088
 1755SOL    HW2 5277   1.999   2.092   0.984
 1756SOL     OW 5278   1.881   2.230   0.647
 1756SOL    HW1 5279   1.799   2.273   0.686
 1756SOL    HW2 5280   1.853   2.157   0.584
 1757SOL     OW 5281   2.431   3.137   1.165
 1757SOL    HW1 5282   2.338   3.130   1.128
 1757SOL    HW2 5283   2.442   3.226   1.209
 1758SOL     OW 5284   3.417   3.373   0.703
 1758SOL    HW1 5285   3.360   3.357   0.784
 1758SOL    HW2 5286   3.358   3.383   0.623
 1759SOL     OW 5287   2.997   2.565   0.717
 1759SOL    HW1 5288   3.054   2.643   0.692
 1759SOL    HW2 5289   2.937   2.591   0.793
 1760SOL     OW 5290   3.617   2.469   0.231
 1760SOL    HW1 5291   3.605   2.456   0.132
 1760SOL    HW2 5292   3.587   2.388   0.280
 1761SOL     OW 5293   2.630   3.006   1.023
 1761SOL    HW1 5294   2.552   3.023   1.083
 1761SOL    HW2 5295   2.664   3.093   0.987
 1762SOL     OW 5296   2.712   2.660   1.823
 1762SOL    HW1 5297   2.708   2.736   1.888
 1762SOL    HW2 5298   2.734   2.696   1.732
 1763SOL     OW 5299   2.547   2.874   0.665
 1763SOL    HW1 5300   2.616   2.858   0.735
 1763SOL    HW2 5301   2.474   2.931   0.703
 1764SOL     OW 5302   2.548   3.023   1.803
 1764SOL    HW1 5303   2.608   3.102   1.817
 1764SOL    HW2 5304   2.462   3.054   1.762
 1765SOL     OW 5305   2.197   3.297   1.061
 1765SOL    HW1 5306   2.119   3.266   1.008
 1765SOL    HW2 5307   2.255   3.355   1.004
 1766SOL     OW 5308   3.322   3.367   1.339
 1766SOL    HW1 5309   3.346   3.461   1.365
 1766SOL    HW2 5310   3.306   3.313   1.421
 1767SOL     OW 5311   2.300   2.254   1.499
 1767SOL    HW1 5312   2.382   2.198   1.508
 1767SOL    HW2 5313   2.219   2.196   1.503
 1768SOL     OW 5314   3.465   2.309   0.737
 1768SOL    HW1 5315   3.391   2.355   0.687
 1768SOL    HW2 5316   3.516   2.377   0.790
 1769SOL     OW 5317   2.093   3.575   0.483
 1769SOL    HW1 5318   2.127   3.652   0.537
 1769SOL    HW2 5319   2.137   3.575   0.393
 1770SOL     OW 5320   2.989   3.203   1.690
 1770SOL    HW1 5321   3.036   3.203   1.778
 1770SOL    HW2 5322   2.941   3.116   1.679
 1771SOL     OW 5323   2.092   3.296   0.538
 1771SOL    HW1 5324   2.066   3.392   0.538
 1771SOL    HW2 5325   2.021   3.242   0.583
 1772SOL     OW 5326   2.102   2.953   0.886
 1772SOL    HW1 5327   2.116   2.869   0.938
 1772SOL    HW2 5328   2.047   3.017   0.941
 1773SOL     OW 5329   2.482   3.648   1.439
 1773SOL    HW1 5330   2.390   3.631   1.474
 1773SOL    HW2 5331   2.510   3.740   1.465
 1774SOL     OW 5332   2.468   2.826   0.123
 1774SOL    HW1 5333   2.475   2.910   0.069
 1774SOL    HW2 5334   2.514   2.839   0.211
 1775SOL     OW 5335   3.456   1.976   1.480
 1775SOL    HW1 5336   3.438   2.043   1.408
 1775SOL    HW2 5337   3.453   2.022   1.569
 1776SOL     OW 5338   1.984   2.505   0.563
 1776SOL    HW1 5339   1.939   2.417   0.580
 1776SOL    HW2 5340   1.983   2.559   0.647
 1777SOL     OW 5341   3.704   3.629   0.359
 1777SOL    HW1 5342   3.758   3.600   0.439
 1777SOL    HW2 5343   3.734   3.719   0.330
 1778SOL     OW 5344   1.889   3.458   0.117
 1778SOL    HW1 5345   1.870   3.362   0.138
 1778SOL    HW2 5346   1.856   3.516   0.192
 1779SOL     OW 5347   3.551   2.784   0.612
 1779SOL    HW1 5348   3.646   2.755   0.620
 1779SOL    HW2 5349   3.543   2.849   0.537
 1780SOL     OW 5350   3.503   2.970   0.432
 1780SOL    HW1 5351   3.589   2.972   0.380
 1780SOL    HW2 5352   3.517   3.017   0.520
 1781SOL     OW 5353   1.975   2.599   1.597
 1781SOL    HW1 5354   2.063   2.586   1.642
 1781SOL    HW2 5355   1.962   2.696   1.575
 1782SOL     OW 5356   2.475   3.227   0.726
 1782SOL    HW1 5357   2.426   3.140   0.735
 1782SOL    HW2 5358   2.452   3.270   0.639
 1783SOL     OW 5359   3.155   3.090   1.423
 1783SOL    HW1 5360   3.192   3.017   1.365
 1783SOL    HW2 5361   3.207   3.095   1.508
 1784SOL     OW 5362   2.671   1.866   0.502
 1784SOL    HW1 5363   2.711   1.957   0.493
 1784SOL    HW2 5364   2.571   1.874   0.508
 1785SOL     OW 5365   2.059   2.838   1.264
 1785SOL    HW1 5366   2.148   2.793   1.250
 1785SOL    HW2 5367   1.986   2.773   1.245
 1786SOL     OW 5368   3.387   2.861   0.190
 1786SOL    HW1 5369   3.324   2.785   0.203
 1786SOL    HW2 5370   3.435   2.879   0.276
 1787SOL     OW 5371   3.049   3.654   1.616
 1787SOL    HW1 5372   3.073   3.714   1.540
 1787SOL    HW2 5373   3.056   3.559   1.586
 1788SOL     OW 5374   2.179   2.113   1.801
 1788SOL    HW1 5375   2.250   2.184   1.807
 1788SOL    HW2 5376   2.091   2.152   1.829
 1789SOL     OW 5377   3.328   3.279   0.953
 1789SOL    HW1 5378   3.269   3.285   1.033
 1789SOL    HW2 5379   3.313   3.191   0.907
 1790SOL     OW 5380   3.529   3.576   0.572
 1790SOL    HW1 5381   3.488   3.553   0.484
 1790SOL    HW2 5382   3.511   3.502   0.637
 1791SOL     OW 5383   2.460   2.591   0.270
 1791SOL    HW1 5384   2.484   2.660   0.202
 1791SOL    HW2 5385   2.382   2.624   0.324
 1792SOL     OW 5386   3.143   2.207   0.944
 1792SOL    HW1 5387   3.057   2.157   0.931
 1792SOL    HW2 5388   3.205   2.153   1.000
 1793SOL     OW 5389   3.438   3.524   0.307
 1793SOL    HW1 5390   3.527   3.570   0.310
 1793SOL    HW2 5391   3.417   3.500   0.212
 1794SOL     OW 5392   2.669   2.467   1.465
 1794SOL    HW1 5393   2.622   2.464   1.554
 1794SOL    HW2 5394   2.618   2.412   1.399
 1795SOL     OW 5395   3.256   2.331   1.674
 1795SOL    HW1 5396   3.236   2.374   1.762
 1795SOL    HW2 5397   3.334   2.269   1.683
 1796SOL     OW 5398   2.835   2.752   1.572
 1796SOL    HW1 5399   2.881   2.668   1.543
 1796SOL    HW2 5400   2.779   2.786   1.497
 1797SOL     OW 5401   2.853   2.272   1.242
 1797SOL    HW1 5402   2.776   2.306   1.296
 1797SOL    HW2 5403   2.819   2.221   1.163
 1798SOL     OW 5404   2.903   2.563   0.429
 1798SOL    HW1 5405   2.929   2.559   0.525
 1798SOL    HW2 5406   2.818   2.512   0.415
 1799SOL     OW 5407   1.938   2.673   0.789
 1799SOL    HW1 5408   2.037   2.661   0.798
 1799SOL    HW2 5409   1.914   2.768   0.810
 1800SOL     OW 5410   1.992   3.683   1.571
 1800SOL    HW1 5411   1.982   3.668   1.670
 1800SOL    HW2 5412   1.906   3.719   1.535
 1801SOL     OW 5413   2.727   2.210   0.195
 1801SOL    HW1 5414   2.786   2.273   0.146
 1801SOL    HW2 5415   2.746   2.116   0.166
 1802SOL     OW 5416   3.581   2.447   1.831
 1802SOL    HW1 5417   3.555   2.536   1.795
 1802SOL    HW2 5418   3.579   2.379   1.758
 1803SOL     OW 5419   3.224   3.006   0.545
 1803SOL    HW1 5420   3.307   2.977   0.497
 1803SOL    HW2 5421   3.175   3.073   0.489
 1804SOL     OW 5422   2.412   2.058   0.885
 1804SOL    HW1 5423   2.407   2.053   0.985
 1804SOL    HW2 5424   2.414   2.154   0.856
 1805SOL     OW 5425   2.870   3.318   0.477
 1805SOL    HW1 5426   2.824   3.390   0.425
 1805SOL    HW2 5427   2.866   3.338   0.575
 1806SOL     OW 5428   2.213   3.663   0.853
 1806SOL    HW1 5429   2.263   3.577   0.859
 1806SOL    HW2 5430   2.278   3.740   0.850
 1807SOL     OW 5431   3.657   2.928   0.873
 1807SOL    HW1 5432   3.595   2.913   0.797
 1807SOL    HW2 5433   3.605   2.939   0.958
 1808SOL     OW 5434   3.089   3.412   1.506
 1808SOL    HW1 5435   3.095   3.335   1.570
 1808SOL    HW2 5436   3.037   3.386   1.426
 1809SOL     OW 5437   2.183   2.805   0.242
 1809SOL    HW1 5438   2.265   2.844   0.200
 1809SOL    HW2 5439   2.156   2.723   0.193
 1810SOL     OW 5440   3.320   2.597   0.728
 1810SOL    HW1 5441   3.315   2.532   0.803
 1810SOL    HW2 5442   3.400   2.656   0.741
 1811SOL     OW 5443   2.323   3.128   1.727
 1811SOL    HW1 5444   2.273   3.129   1.641
 1811SOL    HW2 5445   2.260   3.110   1.803
 1812SOL     OW 5446   2.973   3.638   0.237
 1812SOL    HW1 5447   2.913   3.576   0.287
 1812SOL    HW2 5448   3.004   3.594   0.152
 1813SOL     OW 5449   2.064   2.147   1.498
 1813SOL    HW1 5450   1.984   2.207   1.485
 1813SOL    HW2 5451   2.054   2.098   1.584
 1814SOL     OW 5452   3.494   3.239   0.081
 1814SOL    HW1 5453   3.462   3.333   0.071
 1814SOL    HW2 5454   3.418   3.176   0.069
 1815SOL     OW 5455   2.326   3.605   0.323
 1815SOL    HW1 5456   2.359   3.644   0.409
 1815SOL    HW2 5457   2.402   3.598   0.258
 1816SOL     OW 5458   3.262   1.969   0.426
 1816SOL    HW1 5459   3.238   1.932   0.336
 1816SOL    HW2 5460   3.361   1.985   0.430
 1817SOL     OW 5461   2.111   3.647   1.241
 1817SOL    HW1 5462   2.168   3.582   1.291
 1817SOL    HW2 5463   2.095   3.614   1.148
 1818SOL     OW 5464   2.802   3.560   0.904
 1818SOL    HW1 5465   2.882   3.503   0.925
 1818SOL    HW2 5466   2.753   3.520   0.827
 1819SOL     OW 5467   2.244   2.562   0.480
 1819SOL    HW1 5468   2.289   2.472   0.477
 1819SOL    HW2 5469   2.150   2.551   0.513
 1820SOL     OW 5470   3.409   2.084   1.729
 1820SOL    HW1 5471   3.404   2.121   1.821
 1820SOL    HW2 5472   3.337   2.015   1.717
 1821SOL     OW 5473   2.643   2.126   1.749
 1821SOL    HW1 5474   2.710   2.065   1.792
 1821SOL    HW2 5475   2.570   2.145   1.814
 1822SOL     OW 5476   2.750   3.376   1.195
 1822SOL    HW1 5477   2.727   3.351   1.101
 1822SOL    HW2 5478   2.811   3.307   1.234
 1823SOL     OW 5479   3.213   2.452   1.433
 1823SOL    HW1 5480   3.241   2.409   1.518
 1823SOL    HW2 5481   3.238   2.548   1.434
 1824SOL     OW 5482   2.665   3.264   0.924
 1824SOL    HW1 5483   2.755   3.278   0.882
 1824SOL    HW2 5484   2.594   3.266   0.853
 1825SOL     OW 5485   2.784   2.365   0.899
 1825SOL    HW1 5486   2.759   2.356   0.803
 1825SOL    HW2 5487   2.832   2.283   0.930
 1826SOL     OW 5488   2.401   1.926   0.512
 1826SOL    HW1 5489   2.320   1.927   0.570
 1826SOL    HW2 5490   2.404   2.009   0.457
 1827SOL     OW 5491   3.296   3.050   0.041
 1827SOL    HW1 5492   3.328   2.974   0.098
 1827SOL    HW2 5493   3.204   3.077   0.071
 1828SOL     OW 5494   2.797   2.098   0.480
 1828SOL    HW1 5495   2.749   2.139   0.402
 1828SOL    HW2 5496   2.896   2.096   0.461
 1829SOL     OW 5497   2.938   2.545   1.464
 1829SOL    HW1 5498   2.858   2.484   1.467
 1829SOL    HW2 5499   3.019   2.492   1.440
 1830SOL     OW 5500   3.089   3.432   0.793
 1830SOL    HW1 5501   3.110   3.506   0.728
 1830SOL    HW2 5502   3.157   3.432   0.866
 1831SOL     OW 5503   2.321   3.014   0.741
 1831SOL    HW1 5504   2.250   2.987   0.806
 1831SOL    HW2 5505   2.295   2.986   0.648
 1832SOL     OW 5506   3.133   3.659   0.591
 1832SOL    HW1 5507   3.177   3.723   0.527
 1832SOL    HW2 5508   3.083   3.711   0.661
 1833SOL     OW 5509   2.894   2.411   0.016
 1833SOL    HW1 5510   2.853   2.493  -0.023
 1833SOL    HW2 5511   2.958   2.437   0.089
 1834SOL     OW 5512   1.940   2.418   1.386
 1834SOL    HW1 5513   2.032   2.417   1.345
 1834SOL    HW2 5514   1.934   2.492   1.453
 1835SOL     OW 5515   2.423   2.084   1.147
 1835SOL    HW1 5516   2.461   2.000   1.184
 1835SOL    HW2 5517   2.335   2.103   1.191
 1836SOL     OW 5518   2.728   2.316   0.642
 1836SOL    HW1 5519   2.696   2.388   0.580
 1836SOL    HW2 5520   2.752   2.235   0.589
 1837SOL     OW 5521   2.879   1.901   0.753
 1837SOL    HW1 5522   2.807   1.906   0.684
 1837SOL    HW2 5523   2.855   1.832   0.822
 1838SOL     OW 5524   3.291   3.035   0.867
 1838SOL    HW1 5525   3.236   2.951   0.860
 1838SOL    HW2 5526   3.317   3.064   0.775
 1839SOL     OW 5527   3.328   2.452   0.992
 1839SOL    HW1 5528   3.298   2.357   0.999
 1839SOL    HW2 5529   3.401   2.468   1.058
 1840SOL     OW 5530   3.719   2.695   0.377
 1840SOL    HW1 5531   3.761   2.631   0.441
 1840SOL    HW2 5532   3.681   2.644   0.299
 1841SOL     OW 5533   2.350   3.247   0.174
 1841SOL    HW1 5534   2.263   3.232   0.221
 1841SOL    HW2 5535   2.333   3.273   0.079
 1842SOL     OW 5536   3.526   3.142   0.657
 1842SOL    HW1 5537   3.625   3.150   0.671
 1842SOL    HW2 5538   3.481   3.226   0.688
 1843SOL     OW 5539   3.252   2.437   0.078
 1843SOL    HW1 5540   3.198   2.416   0.159
 1843SOL    HW2 5541   3.343   2.396   0.087
 1844SOL     OW 5542   2.389   2.118   0.328
 1844SOL    HW1 5543   2.416   2.059   0.253
 1844SOL    HW2 5544   2.389   2.213   0.297
 1845SOL     OW 5545   3.616   3.085   1.588
 1845SOL    HW1 5546   3.707   3.046   1.575
 1845SOL    HW2 5547   3.624   3.181   1.612
 1846SOL     OW 5548   2.926   3.209   1.340
 1846SOL    HW1 5549   2.846   3.186   1.395
 1846SOL    HW2 5550   3.009   3.183   1.389
 1847SOL     OW 5551   3.454   3.491   1.625
 1847SOL    HW1 5552   3.481   3.525   1.535
 1847SOL    HW2 5553   3.533   3.453   1.671
 1848SOL     OW 5554   2.973   3.057   1.100
 1848SOL    HW1 5555   2.933   3.101   1.181
 1848SOL    HW2 5556   2.932   3.094   1.017
 1849SOL     OW 5557   3.500   2.961   1.079
 1849SOL    HW1 5558   3.505   3.042   1.138
 1849SOL    HW2 5559   3.414   2.963   1.028
 1850SOL     OW 5560   2.777   1.951   1.402
 1850SOL    HW1 5561   2.802   1.931   1.307
 1850SOL    HW2 5562   2.849   2.007   1.444
 1851SOL     OW 5563   2.842   2.978   1.719
 1851SOL    HW1 5564   2.743   2.984   1.729
 1851SOL    HW2 5565   2.865   2.898   1.663
 1852SOL     OW 5566   2.567   2.912   0.368
 1852SOL    HW1 5567   2.553   2.919   0.467
 1852SOL    HW2 5568   2.651   2.861   0.350
 1853SOL     OW 5569   2.272   2.675   1.251
 1853SOL    HW1 5570   2.358   2.687   1.301
 1853SOL    HW2 5571   2.230   2.588   1.278
 1854SOL     OW 5572   3.136   2.248   1.262
 1854SOL    HW1 5573   3.157   2.322   1.326
 1854SOL    HW2 5574   3.047   2.265   1.219
 1855SOL     OW 5575   1.926   3.426   1.331
 1855SOL    HW1 5576   1.880   3.508   1.297
 1855SOL    HW2 5577   2.024   3.445   1.340
 1856SOL     OW 5578   2.229   2.962   0.501
 1856SOL    HW1 5579   2.222   3.045   0.445
 1856SOL    HW2 5580   2.233   2.882   0.441
 1857SOL     OW 5581   2.428   2.399   0.865
 1857SOL    HW1 5582   2.440   2.465   0.791
 1857SOL    HW2 5583   2.474   2.433   0.948
 1858SOL     OW 5584   3.114   3.210   0.388
 1858SOL    HW1 5585   3.164   3.287   0.428
 1858SOL    HW2 5586   3.019   3.212   0.420
 1859SOL     OW 5587   3.134   3.307   1.142
 1859SOL    HW1 5588   3.181   3.320   1.229
 1859SOL    HW2 5589   3.068   3.233   1.151
 1860SOL     OW 5590   3.444   2.501   0.472
 1860SOL    HW1 5591   3.413   2.562   0.545
 1860SOL    HW2 5592   3.494   2.553   0.403
 1861SOL     OW 5593   2.216   3.372   1.329
 1861SOL    HW1 5594   2.195   3.328   1.242
 1861SOL    HW2 5595   2.313   3.398   1.332
 1862SOL     OW 5596   2.264   2.613   1.598
 1862SOL    HW1 5597   2.332   2.668   1.551
 1862SOL    HW2 5598   2.304   2.525   1.625
 1863SOL     OW 5599   3.449   2.641   1.670
 1863SOL    HW1 5600   3.357   2.679   1.665
 1863SOL    HW2 5601   3.509   2.688   1.605
 1864SOL     OW 5602   2.875   1.967   1.770
 1864SOL    HW1 5603   2.881   2.052   1.718
 1864SOL    HW2 5604   2.907   1.891   1.713
 1865SOL     OW 5605   2.366   1.912   1.740
 1865SOL    HW1 5606   2.324   1.855   1.670
 1865SOL    HW2 5607   2.300   1.981   1.772
 1866SOL     OW 5608   2.435   2.732   1.029
 1866SOL    HW1 5609   2.479   2.821   1.020
 1866SOL    HW2 5610   2.372   2.732   1.106
 1867SOL     OW 5611   3.222   2.724   1.045
 1867SOL    HW1 5612   3.147   2.724   0.979
 1867SOL    HW2 5613   3.259   2.632   1.054
 1868SOL     OW 5614   3.071   2.387   0.275
 1868SOL    HW1 5615   3.084   2.303   0.329
 1868SOL    HW2 5616   3.042   2.461   0.335
 1869SOL     OW 5617   2.169   2.075   1.231
 1869SOL    HW1 5618   2.146   2.112   1.321
 1869SOL    HW2 5619   2.139   1.980   1.225
 1870SOL     OW 5620   1.899   3.172   1.282
 1870SOL    HW1 5621   1.952   3.123   1.350
 1870SOL    HW2 5622   1.921   3.270   1.287
 1871SOL     OW 5623   2.594   2.496   1.064
 1871SOL    HW1 5624   2.653   2.470   0.988
 1871SOL    HW2 5625   2.566   2.592   1.053
 1872SOL     OW 5626   3.590   2.797   1.854
 1872SOL    HW1 5627   3.544   2.790   1.765
 1872SOL    HW2 5628   3.528   2.841   1.920
 1873SOL     OW 5629   2.169   1.925   0.618
 1873SOL    HW1 5630   2.158   2.019   0.651
 1873SOL    HW2 5631   2.164   1.862   0.695
 1874SOL     OW 5632   3.484   2.229   0.374
 1874SOL    HW1 5633   3.486   2.153   0.438
 1874SOL    HW2 5634   3.436   2.306   0.414
 1875SOL     OW 5635   2.885   2.628   0.966
 1875SOL    HW1 5636   2.900   2.649   1.062
 1875SOL    HW2 5637   2.855   2.533   0.957
 1876SOL     OW 5638   2.842   3.435   1.700
 1876SOL    HW1 5639   2.822   3.479   1.612
 1876SOL    HW2 5640   2.881   3.344   1.684
 1877SOL     OW 5641   3.721   3.380   1.605
 1877SOL    HW1 5642   3.735   3.407   1.510
 1877SOL    HW2 5643   3.804   3.402   1.658
 1878SOL     OW 5644   2.212   2.760   1.804
 1878SOL    HW1 5645   2.288   2.804   1.852
 1878SOL    HW2 5646   2.247   2.713   1.722
 1879SOL     OW 5647   3.402   2.136   0.125
 1879SOL    HW1 5648   3.341   2.061   0.148
 1879SOL    HW2 5649   3.424   2.188   0.208
 1880SOL     OW 5650   3.165   2.700   0.042
 1880SOL    HW1 5651   3.199   2.607   0.057
 1880SOL    HW2 5652   3.183   2.727  -0.053
 1881SOL     OW 5653   2.930   3.195   0.849
 1881SOL    HW1 5654   2.937   3.111   0.794
 1881SOL    HW2 5655   2.992   3.264   0.813
 1882SOL     OW 5656   2.181   2.672   0.949
 1882SOL    HW1 5657   2.274   2.708   0.954
 1882SOL    HW2 5658   2.175   2.587   1.001
 1883SOL     OW 5659   2.201   2.371   1.006
 1883SOL    HW1 5660   2.149   2.288   0.989
 1883SOL    HW2 5661   2.278   2.376   0.942
 1884SOL     OW 5662   3.000   2.242   1.678
 1884SOL    HW1 5663   2.955   2.305   1.742
 1884SOL    HW2 5664   3.093   2.273   1.661
 1885SOL     OW 5665   3.022   2.069   1.477
 1885SOL    HW1 5666   3.022   2.133   1.554
 1885SOL    HW2 5667   3.050   2.117   1.394
 1886SOL     OW 5668   1.870   3.188   0.200
 1886SOL    HW1 5669   1.777   3.209   0.169
 1886SOL    HW2 5670   1.880   3.089   0.213
 1887SOL     OW 5671   1.950   3.663   0.927
 1887SOL    HW1 5672   1.908   3.577   0.900
 1887SOL    HW2 5673   2.044   3.666   0.893
 1888SOL     OW 5674   2.366   3.430   0.910
 1888SOL    HW1 5675   2.432   3.504   0.919
 1888SOL    HW2 5676   2.410   3.351   0.868
 1889SOL     OW 5677   2.864   2.658   1.238
 1889SOL    HW1 5678   2.905   2.626   1.324
 1889SOL    HW2 5679   2.768   2.631   1.235
 1890SOL     OW 5680   1.902   2.406   1.114
 1890SOL    HW1 5681   1.987   2.373   1.073
 1890SOL    HW2 5682   1.915   2.421   1.212
 1891SOL     OW 5683   2.051   2.382   1.722
 1891SOL    HW1 5684   2.110   2.342   1.652
 1891SOL    HW2 5685   1.993   2.453   1.681
 1892SOL     OW 5686   3.231   2.812   1.660
 1892SOL    HW1 5687   3.270   2.901   1.680
 1892SOL    HW2 5688   3.241   2.792   1.563
 1893SOL     OW 5689   2.677   2.434   0.325
 1893SOL    HW1 5690   2.684   2.345   0.279
 1893SOL    HW2 5691   2.583   2.468   0.317
 1894SOL     OW 5692   3.519   2.466   1.206
 1894SOL    HW1 5693   3.481   2.397   1.268
 1894SOL    HW2 5694   3.601   2.430   1.162
 1895SOL     OW 5695   2.114   3.426   1.744
 1895SOL    HW1 5696   2.084   3.483   1.820
 1895SOL    HW2 5697   2.107   3.329   1.770
 1896SOL     OW 5698   2.533   2.326   1.269
 1896SOL    HW1 5699   2.499   2.237   1.239
 1896SOL    HW2 5700   2.559   2.380   1.189
 1897SOL     OW 5701   2.792   3.540   1.465
 1897SOL    HW1 5702   2.768   3.522   1.370
 1897SOL    HW2 5703   2.822   3.634   1.475
 1898SOL     OW 5704   2.335   2.362   0.191
 1898SOL    HW1 5705   2.396   2.442   0.195
 1898SOL    HW2 5706   2.240   2.393   0.198
 1899SOL     OW 5707   2.021   2.999   1.466
 1899SOL    HW1 5708   2.043   2.938   1.542
 1899SOL    HW2 5709   2.031   2.950   1.380
 1900SOL     OW 5710   3.209   2.921   1.234
 1900SOL    HW1 5711   3.233   2.858   1.160
 1900SOL    HW2 5712   3.119   2.961   1.216
 1901SOL     OW 5713   3.164   2.717   0.309
 1901SOL    HW1 5714   3.078   2.686   0.351
 1901SOL    HW2 5715   3.160   2.703   0.210
 1902SOL     OW 5716   3.621   3.609   1.154
 1902SOL    HW1 5717   3.682   3.639   1.081
 1902SOL    HW2 5718   3.583   3.520   1.132
 1903SOL     OW 5719   3.114   3.593   1.128
 1903SOL    HW1 5720   3.198   3.598   1.074
 1903SOL    HW2 5721   3.091   3.497   1.146
 1904SOL     OW 5722   1.945   3.120   1.022
 1904SOL    HW1 5723   1.940   3.119   1.122
 1904SOL    HW2 5724   1.862   3.079   0.984
 1905SOL     OW 5725   2.550   3.524   1.716
 1905SOL    HW1 5726   2.494   3.605   1.725
 1905SOL    HW2 5727   2.602   3.528   1.630
 1906SOL     OW 5728   2.765   1.948   0.133
 1906SOL    HW1 5729   2.816   1.949   0.047
 1906SOL    HW2 5730   2.821   1.906   0.204
 1907SOL     OW 5731   3.588   1.997   0.523
 1907SOL    HW1 5732   3.661   1.980   0.456
 1907SOL    HW2 5733   3.557   1.910   0.561
 1908SOL     OW 5734   3.250   3.435   0.477
 1908SOL    HW1 5735   3.317   3.447   0.403
 1908SOL    HW2 5736   3.210   3.524   0.500
 1909SOL     OW 5737   1.992   3.656   1.851
 1909SOL    HW1 5738   1.951   3.582   1.904
 1909SOL    HW2 5739   2.056   3.707   1.909
 1910SOL     OW 5740   3.142   2.789   0.672
 1910SOL    HW1 5741   3.202   2.708   0.674
 1910SOL    HW2 5742   3.182   2.858   0.612
 1911SOL     OW 5743   2.692   3.135   1.422
 1911SOL    HW1 5744   2.687   3.168   1.517
 1911SOL    HW2 5745   2.606   3.154   1.376
 1912SOL     OW 5746   2.534   3.478   0.154
 1912SOL    HW1 5747   2.543   3.488   0.055
 1912SOL    HW2 5748   2.494   3.389   0.175
 1913SOL     OW 5749   3.512   3.582   1.394
 1913SOL    HW1 5750   3.565   3.592   1.310
 1913SOL    HW2 5751   3.485   3.672   1.428
 1914SOL     OW 5752   3.703   2.037   0.963
 1914SOL    HW1 5753   3.742   1.952   0.927
 1914SOL    HW2 5754   3.605   2.039   0.944
 1915SOL     OW 5755   2.125   2.188   0.720
 1915SOL    HW1 5756   2.046   2.239   0.686
 1915SOL    HW2 5757   2.116   2.173   0.818
 1916SOL     OW 5758   3.056   3.474   0.031
 1916SOL    HW1 5759   3.062   3.381   0.068
 1916SOL    HW2 5760   2.997   3.474  -0.049
 1917SOL     OW 5761   2.684   2.864   1.372
 1917SOL    HW1 5762   2.724   2.863   1.280
 1917SOL    HW2 5763   2.694   2.956   1.412
 1918SOL     OW 5764   2.778   2.772   0.291
 1918SOL    HW1 5765   2.841   2.810   0.223
 1918SOL    HW2 5766   2.818   2.689   0.330
 1919SOL     OW 5767   3.366   3.469   0.044
 1919SOL    HW1 5768   3.274   3.506   0.051
 1919SOL    HW2 5769   3.404   3.489  -0.046
 1920SOL     OW 5770   2.234   3.150   1.490
 1920SOL    HW1 5771   2.221   3.243   1.456
 1920SOL    HW2 5772   2.150   3.098   1.477
 1921SOL     OW 5773   3.476   3.154   1.289
 1921SOL    HW1 5774   3.536   3.157   1.369
 1921SOL    HW2 5775   3.401   3.218   1.302
 1922SOL     OW 5776   2.901   2.960   0.696
 1922SOL    HW1 5777   2.831   2.913   0.750
 1922SOL    HW2 5778   2.960   2.892   0.653
 1923SOL     OW 5779   2.876   2.098   0.971
 1923SOL    HW1 5780   2.868   2.062   0.878
 1923SOL    HW2 5781   2.874   2.022   1.036
 1924SOL     OW 5782   2.452   3.349   0.491
 1924SOL    HW1 5783   2.494   3.291   0.421
 1924SOL    HW2 5784   2.408   3.428   0.447
 1925SOL     OW 5785   3.571   2.247   1.381
 1925SOL    HW1 5786   3.644   2.316   1.385
 1925SOL    HW2 5787   3.599   2.172   1.322
 1926SOL     OW 5788   2.117   3.210   0.290
 1926SOL    HW1 5789   2.021   3.211   0.263
 1926SOL    HW2 5790   2.129   3.263   0.374
 1927SOL     OW 5791   1.967   2.875   1.726
 1927SOL    HW1 5792   1.890   2.842   1.780
 1927SOL    HW2 5793   2.052   2.845   1.768
 1928SOL     OW 5794   2.534   2.065   1.489
 1928SOL    HW1 5795   2.624   2.049   1.449
 1928SOL    HW2 5796   2.542   2.070   1.588
 1929SOL     OW 5797   1.937   2.207   0.033
 1929SOL    HW1 5798   1.845   2.179   0.004
 1929SOL    HW2 5799   1.968   2.284  -0.023
 1930SOL     OW 5800   3.302   2.718   1.398
 1930SOL    HW1 5801   3.245   2.770   1.335
 1930SOL    HW2 5802   3.398   2.730   1.374
 1931SOL     OW 5803   1.934   2.028   0.318
 1931SOL    HW1 5804   1.917   2.111   0.264
 1931SOL    HW2 5805   2.024   1.991   0.296
 1932SOL     OW 5806   3.045   3.197   0.119
 1932SOL    HW1 5807   2.946   3.186   0.121
 1932SOL    HW2 5808   3.079   3.212   0.212
 1933SOL     OW 5809   2.475   2.704   1.431
 1933SOL    HW1 5810   2.531   2.785   1.414
 1933SOL    HW2 5811   2.534   2.624   1.434
 1934SOL     OW 5812   3.355   3.629   0.959
 1934SOL    HW1 5813   3.388   3.693   0.890
 1934SOL    HW2 5814   3.421   3.623   1.034
 1935SOL     OW 5815   2.578   2.427   1.708
 1935SOL    HW1 5816   2.597   2.492   1.782
 1935SOL    HW2 5817   2.638   2.347   1.717
 1936SOL     OW 5818   3.312   3.082   1.633
 1936SOL    HW1 5819   3.303   3.072   1.732
 1936SOL    HW2 5820   3.408   3.075   1.607
 1937SOL     OW 5821   2.252   3.603   1.560
 1937SOL    HW1 5822   2.161   3.644   1.558
 1937SOL    HW2 5823   2.245   3.509   1.592
 1938SOL     OW 5824   3.536   2.745   1.254
 1938SOL    HW1 5825   3.509   2.656   1.217
 1938SOL    HW2 5826   3.537   2.813   1.181
 1939SOL     OW 5827   3.087   2.187   0.449
 1939SOL    HW1 5828   3.152   2.113   0.438
 1939SOL    HW2 5829   3.107   2.237   0.533
 1940SOL     OW 5830   2.456   2.607   0.652
 1940SOL    HW1 5831   2.506   2.692   0.633
 1940SOL    HW2 5832   2.368   2.609   0.604
 1941SOL     OW 5833   3.639   2.204   1.642
 1941SOL    HW1 5834   3.622   2.235   1.548
 1941SOL    HW2 5835   3.555   2.167   1.680
 1942SOL     OW 5836   3.592   2.796   1.517
 1942SOL    HW1 5837   3.630   2.887   1.532
 1942SOL    HW2 5838   3.584   2.779   1.418
 1943SOL     OW 5839   2.721   3.236   0.016
 1943SOL    HW1 5840   2.675   3.251   0.104
 1943SOL    HW2 5841   2.765   3.321  -0.014
 1944SOL     OW 5842   2.523   3.652   0.953
 1944SOL    HW1 5843   2.477   3.740   0.940
 1944SOL    HW2 5844   2.622   3.664   0.946
 1945SOL     OW 5845   2.721   2.818   0.861
 1945SOL    HW1 5846   2.775   2.749   0.909
 1945SOL    HW2 5847   2.689   2.887   0.927
 1946SOL     OW 5848   2.945   2.846   0.087
 1946SOL    HW1 5849   2.922   2.899   0.005
 1946SOL    HW2 5850   3.026   2.790   0.068
 1947SOL     OW 5851   3.723   3.431   0.851
 1947SOL    HW1 5852   3.652   3.419   0.781
 1947SOL    HW2 5853   3.724   3.352   0.911
 1948SOL     OW 5854   2.083   3.176   1.844
 1948SOL    HW1 5855   2.018   3.103   1.823
 1948SOL    HW2 5856   2.087   3.190   1.942
 1949SOL     OW 5857   1.941   3.102   0.653
 1949SOL    HW1 5858   1.940   3.055   0.741
 1949SOL    HW2 5859   2.023   3.074   0.602
 1950SOL     OW 5860   2.534   3.253   1.624
 1950SOL    HW1 5861   2.456   3.203   1.662
 1950SOL    HW2 5862   2.531   3.348   1.655
 1951SOL     OW 5863   3.686   2.054   1.227
 1951SOL    HW1 5864   3.682   1.964   1.271
 1951SOL    HW2 5865   3.689   2.043   1.128
 1952SOL     OW 5866   2.290   2.286   0.520
 1952SOL    HW1 5867   2.320   2.214   0.458
 1952SOL    HW2 5868   2.251   2.246   0.603
 1953SOL     OW 5869   3.567   3.349   1.104
 1953SOL    HW1 5870   3.474   3.324   1.077
 1953SOL    HW2 5871   3.593   3.299   1.186
 1954SOL     OW 5872   2.179   2.409   1.280
 1954SOL    HW1 5873   2.217   2.350   1.352
 1954SOL    HW2 5874   2.219   2.383   1.192
 1955SOL     OW 5875   2.674   3.448   0.687
 1955SOL    HW1 5876   2.706   3.458   0.593
 1955SOL    HW2 5877   2.595   3.386   0.689
 1956SOL     OW 5878   3.286   2.076   1.112
 1956SOL    HW1 5879   3.338   2.011   1.167
 1956SOL    HW2 5880   3.237   2.139   1.173
 1957SOL     OW 5881   2.863   1.896   1.154
 1957SOL    HW1 5882   2.800   1.824   1.123
 1957SOL    HW2 5883   2.956   1.860   1.154
 1958SOL     OW 5884   2.632   3.192   0.301
 1958SOL    HW1 5885   2.586   3.105   0.318
 1958SOL    HW2 5886   2.723   3.189   0.342
 1959SOL     OW 5887   2.480   3.429   1.284
 1959SOL    HW1 5888   2.475   3.511   1.341
 1959SOL    HW2 5889   2.569   3.426   1.239
 1960SOL     OW 5890   3.214   1.914   0.168
 1960SOL    HW1 5891   3.249   1.873   0.084
 1960SOL    HW2 5892   3.124   1.876   0.188
 1961SOL     OW 5893   3.162   2.315   0.691
 1961SOL    HW1 5894   3.103   2.395   0.695
 1961SOL    HW2 5895   3.177   2.280   0.784
 1962SOL     OW 5896   3.455   2.083   0.882
 1962SOL    HW1 5897   3.371   2.082   0.936
 1962SOL    HW2 5898   3.457   2.166   0.826
 1963SOL     OW 5899   1.901   2.939   0.300
 1963SOL    HW1 5900   2.000   2.928   0.291
 1963SOL    HW2 5901   1.861   2.853   0.332
 1964SOL     OW 5902   2.737   3.508   0.337
 1964SOL    HW1 5903   2.660   3.473   0.283
 1964SOL    HW2 5904   2.705   3.579   0.399
 1965SOL     OW 5905   2.092   2.490   1.975
 1965SOL    HW1 5906   1.999   2.488   2.012
 1965SOL    HW2 5907   2.093   2.451   1.883
 1966SOL     OW 5908   2.087   2.137   2.858
 1966SOL    HW1 5909   2.122   2.120   2.950
 1966SOL    HW2 5910   1.999   2.092   2.846
 1967SOL     OW 5911   1.881   2.230   2.509
 1967SOL    HW1 5912   1.799   2.273   2.548
 1967SOL    HW2 5913   1.853   2.157   2.446
 1968SOL     OW 5914   2.431   3.137   3.027
 1968SOL    HW1 5915   2.338   3.130   2.990
 1968SOL    HW2 5916   2.442   3.226   3.071
 1969SOL     OW 5917   3.417   3.373   2.565
 1969SOL    HW1 5918   3.360   3.357   2.646
 1969SOL    HW2 5919   3.358   3.383   2.485
 1970SOL     OW 5920   2.997   2.565   2.579
 1970SOL    HW1 5921   3.054   2.643   2.554
 1970SOL    HW2 5922   2.937   2.591   2.655
 1971SOL     OW 5923   3.617   2.469   2.093
 1971SOL    HW1 5924   3.605   2.456   1.994
 1971SOL    HW2 5925   3.587   2.388   2.142
 1972SOL     OW 5926   2.630   3.006   2.885
 1972SOL    HW1 5927   2.552   3.023   2.945
 1972SOL    HW2 5928   2.664   3.093   2.849
 1973SOL     OW 5929   2.712   2.660   3.685
 1973SOL    HW1 5930   2.708   2.736   3.750
 1973SOL    HW2 5931   2.734   2.696   3.594
 1974SOL     OW 5932   2.547   2.874   2.527
 1974SOL    HW1 5933   2.616   2.858   2.597
 1974SOL    HW2 5934   2.474   2.931   2.565
 1975SOL     OW 5935   2.548   3.023   3.665
 1975SOL    HW1 5936   2.608   3.102   3.679
 1975SOL    HW2 5937   2.462   3.054   3.624
 1976SOL     OW 5938   2.197   3.297   2.923
 1976SOL    HW1 5939   2.119   3.266   2.870
 1976SOL    HW2 5940   2.255   3.355   2.866
 1977SOL     OW 5941   3.322   3.367   3.201
 1977SOL    HW1 5942   3.346   3.461   3.227
 1977SOL    HW2 5943   3.306   3.313   3.283
 1978SOL     OW 5944   2.300   2.254   3.361
 1978SOL    HW1 5945   2.382   2.198   3.370
 1978SOL    HW2 5946   2.219   2.196   3.365
 1979SOL     OW 5947   3.465   2.309   2.599
 1979SOL    HW1 5948   3.391   2.355   2.549
 1979SOL    HW2 5949   3.516   2.377   2.652
 1980SOL     OW 5950   2.093   3.575   2.345
 1980SOL    HW1 5951   2.127   3.652   2.399
 1980SOL    HW2 5952   2.137   3.575   2.255
 1981SOL     OW 5953   2.989   3.203   3.552
 1981SOL    HW1 5954   3.036   3.203   3.640
 1981SOL    HW2 5955   2.941   3.116   3.541
 1982SOL     OW 5956   2.092   3.296   2.400
 1982SOL    HW1 5957   2.066   3.392   2.400
 1982SOL    HW2 5958   2.021   3.242   2.445
 1983SOL     OW 5959   2.102   2.953   2.748
 1983SOL    HW1 5960   2.116   2.869   2.800
 1983SOL    HW2 5961   2.047   3.017   2.803
 1984SOL     OW 5962   2.482   3.648   3.301
 1984SOL    HW1 5963   2.390   3.631   3.336
 1984SOL    HW2 5964   2.510   3.740   3.327
 1985SOL     OW 5965   2.468   2.826   1.985
 1985SOL    HW1 5966   2.475   2.910   1.931
 1985SOL    HW2 5967   2.514   2.839   2.073
 1986SOL     OW 5968   3.456   1.976   3.342
 1986SOL    HW1 5969   3.438   2.043   3.270
 1986SOL    HW2 5970   3.453   2.022   3.431
 1987SOL     OW 5971   1.984   2.505   2.425
 1987SOL    HW1 5972   1.939   2.417   2.442
 1987SOL    HW2 5973   1.983   2.559   2.509
 1988SOL     OW 5974   3.704   3.629   2.221
 1988SOL    HW1 5975   3.758   3.600   2.301
 1988SOL    HW2 5976   3.734   3.719   2.192
 1989SOL     OW 5977   1.889   3.458   1.979
 1989SOL    HW1 5978   1.870   3.362   2.000
 1989SOL    HW2 5979   1.856   3.516   2.054
 1990SOL     OW 5980   3.551   2.784   2.474
 1990SOL    HW1 5981   3.646   2.755   2.482
 1990SOL    HW2 5982   3.543   2.849   2.399
 1991SOL     OW 5983   3.503   2.970   2.294
 1991SOL    HW1 5984   3.589   2.972   2.242
 1991SOL    HW2 5985   3.517   3.017   2.382
 1992SOL     OW 5986   1.975   2.599   3.459
 1992SOL    HW1 5987   2.063   2.586   3.504
 1992SOL    HW2 5988   1.962   2.696   3.437
 1993SOL     OW 5989   2.475   3.227   2.588
 1993SOL    HW1 5990   2.426   3.140   2.597
 1993SOL    HW2 5991   2.452   3.270   2.501
 1994SOL     OW 5992   3.155   3.090   3.285
 1994SOL    HW1 5993   3.192   3.017   3.227
 1994SOL    HW2 5994   3.207   3.095   3.370
 1995SOL     OW 5995   2.671   1.866   2.364
 1995SOL    HW1 5996   2.711   1.957   2.355
 1995SOL    HW2 5997   2.571   1.874   2.370
 1996SOL     OW 5998   2.059   2.838   3.126
 1996SOL    HW1 5999   2.148   2.793   3.112
 1996SOL    HW2 6000   1.986   2.773   3.107
 1997SOL     OW 6001   3.387   2.861   2.052
 1997SOL    HW1 6002   3.324   2.785   2.065
 1997SOL    HW2 6003   3.435   2.879   2.138
 1998SOL     OW 6004   3.049   3.654   3.478
 1998SOL    HW1 6005   3.073   3.714   3.402
 1998SOL    HW2 6006   3.056   3.559   3.448
 1999SOL     OW 6007   2.179   2.113   3.663
 1999SOL    HW1 6008   2.250   2.184   3.669
 1999SOL    HW2 6009   2.091   2.152   3.691
 2000SOL     OW 6010   3.328   3.279   2.815
 2000SOL    HW1 6011   3.269   3.285   2.895
 2000SOL    HW2 6012   3.313   3.191   2.769
 2001SOL     OW 6013   3.529   3.576   2.434
 2001SOL    HW1 6014   3.488   3.553   2.346
 2001SOL    HW2 6015   3.511   3.502   2.499
 2002SOL     OW 6016   2.460   2.591   2.132
 2002SOL    HW1 6017   2.484   2.660   2.064
 2002SOL    HW2 6018   2.382   2.624   2.186
 2003SOL     OW 6019   3.143   2.207   2.806
 2003SOL    HW1 6020   3.057   2.157   2.793
 2003SOL    HW2 6021   3.205   2.153   2.862
 2004SOL     OW 6022   3.438   3.524   2.169
 2004SOL    HW1 6023   3.527   3.570   2.172
 2004SOL    HW2 6024   3.417   3.500   2.074
 2005SOL     OW 6025   2.669   2.467   3.327
 2005SOL    HW1 6026   2.622   2.464   3.416
 2005SOL    HW2 6027   2.618   2.412   3.261
 2006SOL     OW 6028   3.256   2.331   3.536
 2006SOL    HW1 6029   3.236   2.374   3.624
 2006SOL    HW2 6030   3.334   2.269   3.545
 2007SOL     OW 6031   2.835   2.752   3.434
 2007SOL    HW1 6032   2.881   2.668   3.405
 2007SOL    HW2 6033   2.779   2.786   3.359
 2008SOL     OW 6034   2.853   2.272   3.104
 2008SOL    HW1 6035   2.776   2.306   3.158
 2008SOL    HW2 6036   2.819   2.221   3.025
 2009SOL     OW 6037   2.903   2.563   2.291
 2009SOL    HW1 6038   2.929   2.559   2.387
 2009SOL    HW2 6039   2.818   2.512   2.277
 2010SOL     OW 6040   1.938   2.673   2.651
 2010SOL    HW1 6041   2.037   2.661   2.660
 2010SOL    HW2 6042   1.914   2.768   2.672
 2011SOL     OW 6043   1.992   3.683   3.433
 2011SOL    HW1 6044   1.982   3.668   3.532
 2011SOL    HW2 6045   1.906   3.719   3.397
 2012SOL     OW 6046   2.727   2.210   2.057
 2012SOL    HW1 6047   2.786   2.273   2.008
 2012SOL    HW2 6048   2.746   2.116   2.028
 2013SOL     OW 6049   3.581   2.447   3.693
 2013SOL    HW1 6050   3.555   2.536   3.657
 2013SOL    HW2 6051   3.579   2.379   3.620
 2014SOL     OW 6052   3.224   3.006   2.407
 2014SOL    HW1 6053   3.307   2.977   2.359
 2014SOL    HW2 6054   3.175   3.073   2.351
 2015SOL     OW 6055   2.412   2.058   2.747
 2015SOL    HW1 6056   2.407   2.053   2.847
 2015SOL    HW2 6057   2.414   2.154   2.718
 2016SOL     OW 6058   2.870   3.318   2.339
 2016SOL    HW1 6059   2.824   3.390   2.287
 2016SOL    HW2 6060   2.866   3.338   2.437
 2017SOL     OW 6061   2.213   3.663   2.715
 2017SOL    HW1 6062   2.263   3.577   2.721
 2017SOL    HW2 6063   2.278   3.740   2.712
 2018SOL     OW 6064   3.657   2.928   2.735
 2018SOL    HW1 6065   3.595   2.913   2.659
 2018SOL    HW2 6066   3.605   2.939   2.820
 2019SOL     OW 6067   3.089   3.412   3.368
 2019SOL    HW1 6068   3.095   3.335   3.432
 2019SOL    HW2 6069   3.037   3.386   3.288
 2020SOL     OW 6070   2.183   2.805   2.104
 2020SOL    HW1 6071   2.265   2.844   2.062
 2020SOL    HW2 6072   2.156   2.723   2.055
 2021SOL     OW 6073   3.320   2.597   2.590
 2021SOL    HW1 6074   3.315   2.532   2.665
 2021SOL    HW2 6075   3.400   2.656   2.603
 2022SOL     OW 6076   2.323   3.128   3.589
 2022SOL    HW1 6077   2.273   3.129   3.503
 2022SOL    HW2 6078   2.260   3.110   3.665
 2023SOL     OW 6079   2.973   3.638   2.099
 2023SOL    HW1 6080   2.913   3.576   2.149
 2023SOL    HW2 6081   3.004   3.594   2.014
 2024SOL     OW 6082   2.064   2.147   3.360
 2024SOL    HW1 6083   1.984   2.207   3.347
 2024SOL    HW2 6084   2.054   2.098   3.446
 2025SOL     OW 6085   3.494   3.239   1.943
 2025SOL    HW1 6086   3.462   3.333   1.933
 2025SOL    HW2 6087   3.418   3.176   1.931
 2026SOL     OW 6088   2.326   3.605   2.185
 2026SOL    HW1 6089   2.359   3.644   2.271
 2026SOL    HW2 6090   2.402   3.598   2.120
 2027SOL     OW 6091   3.262   1.969   2.288
 2027SOL    HW1 6092   3.238   1.932   2.198
 2027SOL    HW2 6093   3.361   1.985   2.292
 2028SOL     OW 6094   2.111   3.647   3.103
 2028SOL    HW1 6095   2.168   3.582   3.153
 2028SOL    HW2 6096   2.095   3.614   3.010
 2029SOL     OW 6097   2.802   3.560   2.766
 2029SOL    HW1 6098   2.882   3.503   2.787
 2029SOL    HW2 6099   2.753   3.520   2.689
 2030SOL     OW 6100   3.409   2.084   3.591
 2030SOL    HW1 6101   3.404   2.121   3.683
 2030SOL    HW2 6102   3.337   2.015   3.579
 2031SOL     OW 6103   2.476   1.984   1.979
 2031SOL    HW1 6104   2.574   1.962   1.986
 2031SOL    HW2 6105   2.445   1.967   1.886
 2032SOL     OW 6106   2.643   2.126   3.611
 2032SOL    HW1 6107   2.710   2.065   3.654
 2032SOL    HW2 6108   2.570   2.145   3.676
 2033SOL     OW 6109   2.750   3.376   3.057
 2033SOL    HW1 6110   2.727   3.351   2.963
 2033SOL    HW2 6111   2.811   3.307   3.096
 2034SOL     OW 6112   3.213   2.452   3.295
 2034SOL    HW1 6113   3.241   2.409   3.380
 2034SOL    HW2 6114   3.238   2.548   3.296
 2035SOL     OW 6115   2.665   3.264   2.786
 2035SOL    HW1 6116   2.755   3.278   2.744
 2035SOL    HW2 6117   2.594   3.266   2.715
 2036SOL     OW 6118   2.784   2.365   2.761
 2036SOL    HW1 6119   2.759   2.356   2.665
 2036SOL    HW2 6120   2.832   2.283   2.792
 2037SOL     OW 6121   2.401   1.926   2.374
 2037SOL    HW1 6122   2.320   1.927   2.432
 2037SOL    HW2 6123   2.404   2.009   2.319
 2038SOL     OW 6124   3.296   3.050   1.903
 2038SOL    HW1 6125   3.328   2.974   1.960
 2038SOL    HW2 6126   3.204   3.077   1.933
 2039SOL     OW 6127   2.159   1.897   2.033
 2039SOL    HW1 6128   2.208   1.981   2.012
 2039SOL    HW2 6129   2.221   1.832   2.078
 2040SOL     OW 6130   2.797   2.098   2.342
 2040SOL    HW1 6131   2.749   2.139   2.264
 2040SOL    HW2 6132   2.896   2.096   2.323
 2041SOL     OW 6133   2.938   2.545   3.326
 2041SOL    HW1 6134   2.858   2.484   3.329
 2041SOL    HW2 6135   3.019   2.492   3.302
 2042SOL     OW 6136   3.089   3.432   2.655
 2042SOL    HW1 6137   3.110   3.506   2.590
 2042SOL    HW2 6138   3.157   3.432   2.728
 2043SOL     OW 6139   2.321   3.014   2.603
 2043SOL    HW1 6140   2.250   2.987   2.668
 2043SOL    HW2 6141   2.295   2.986   2.510
 2044SOL     OW 6142   3.133   3.659   2.453
 2044SOL    HW1 6143   3.177   3.723   2.389
 2044SOL    HW2 6144   3.083   3.711   2.523
 2045SOL     OW 6145   2.894   2.411   1.878
 2045SOL    HW1 6146   2.853   2.493   1.839
 2045SOL    HW2 6147   2.958   2.437   1.951
 2046SOL     OW 6148   1.940   2.418   3.248
 2046SOL    HW1 6149   2.032   2.417   3.207
 2046SOL    HW2 6150   1.934   2.492   3.315
 2047SOL     OW 6151   2.423   2.084   3.009
 2047SOL    HW1 6152   2.461   2.000   3.046
 2047SOL    HW2 6153   2.335   2.103   3.053
 2048SOL     OW 6154   2.728   2.316   2.504
 2048SOL    HW1 6155   2.696   2.388   2.442
 2048SOL    HW2 6156   2.752   2.235   2.451
 2049SOL     OW 6157   2.879   1.901   2.615
 2049SOL    HW1 6158   2.807   1.906   2.546
 2049SOL    HW2 6159   2.855   1.832   2.684
 2050SOL     OW 6160   3.291   3.035   2.729
 2050SOL    HW1 6161   3.236   2.951   2.722
 2050SOL    HW2 6162   3.317   3.064   2.637
 2051SOL     OW 6163   3.328   2.452   2.854
 2051SOL    HW1 6164   3.298   2.357   2.861
 2051SOL    HW2 6165   3.401   2.468   2.920
 2052SOL     OW 6166   3.719   2.695   2.239
 2052SOL    HW1 6167   3.761   2.631   2.303
 2052SOL    HW2 6168   3.681   2.644   2.161
 2053SOL     OW 6169   2.350   3.247   2.036
 2053SOL    HW1 6170   2.263   3.232   2.083
 2053SOL    HW2 6171   2.333   3.273   1.941
 2054SOL     OW 6172   3.526   3.142   2.519
 2054SOL    HW1 6173   3.625   3.150   2.533
 2054SOL    HW2 6174   3.481   3.226   2.550
 2055SOL     OW 6175   3.252   2.437   1.940
 2055SOL    HW1 6176   3.198   2.416   2.021
 2055SOL    HW2 6177   3.343   2.396   1.949
 2056SOL     OW 6178   3.616   3.085   3.450
 2056SOL    HW1 6179   3.707   3.046   3.437
 2056SOL    HW2 6180   3.624   3.181   3.474
 2057SOL     OW 6181   2.926   3.209   3.202
 2057SOL    HW1 6182   2.846   3.186   3.257
 2057SOL    HW2 6183   3.009   3.183   3.251
 2058SOL     OW 6184   3.454   3.491   3.487
 2058SOL    HW1 6185   3.481   3.525   3.397
 2058SOL    HW2 6186   3.533   3.453   3.533
 2059SOL     OW 6187   2.973   3.057   2.962
 2059SOL    HW1 6188   2.933   3.101   3.043
 2059SOL    HW2 6189   2.932   3.094   2.879
 2060SOL     OW 6190   3.500   2.961   2.941
 2060SOL    HW1 6191   3.505   3.042   3.000
 2060SOL    HW2 6192   3.414   2.963   2.890
 2061SOL     OW 6193   2.777   1.951   3.264
 2061SOL    HW1 6194   2.802   1.931   3.169
 2061SOL    HW2 6195   2.849   2.007   3.306
 2062SOL     OW 6196   2.842   2.978   3.581
 2062SOL    HW1 6197   2.743   2.984   3.591
 2062SOL    HW2 6198   2.865   2.898   3.525
 2063SOL     OW 6199   2.567   2.912   2.230
 2063SOL    HW1 6200   2.553   2.919   2.329
 2063SOL    HW2 6201   2.651   2.861   2.212
 2064SOL     OW 6202   2.272   2.675   3.113
 2064SOL    HW1 6203   2.358   2.687   3.163
 2064SOL    HW2 6204   2.230   2.588   3.140
 2065SOL     OW 6205   3.136   2.248   3.124
 2065SOL    HW1 6206   3.157   2.322   3.188
 2065SOL    HW2 6207   3.047   2.265   3.081
 2066SOL     OW 6208   1.926   3.426   3.193
 2066SOL    HW1 6209   1.880   3.508   3.159
 2066SOL    HW2 6210   2.024   3.445   3.202
 2067SOL     OW 6211   2.229   2.962   2.363
 2067SOL    HW1 6212   2.222   3.045   2.307
 2067SOL    HW2 6213   2.233   2.882   2.303
 2068SOL     OW 6214   2.428   2.399   2.727
 2068SOL    HW1 6215   2.440   2.465   2.653
 2068SOL    HW2 6216   2.474   2.433   2.810
 2069SOL     OW 6217   3.114   3.210   2.250
 2069SOL    HW1 6218   3.164   3.287   2.290
 2069SOL    HW2 6219   3.019   3.212   2.282
 2070SOL     OW 6220   3.134   3.307   3.004
 2070SOL    HW1 6221   3.181   3.320   3.091
 2070SOL    HW2 6222   3.068   3.233   3.013
 2071SOL     OW 6223   3.444   2.501   2.334
 2071SOL    HW1 6224   3.413   2.562   2.407
 2071SOL    HW2 6225   3.494   2.553   2.265
 2072SOL     OW 6226   2.216   3.372   3.191
 2072SOL    HW1 6227   2.195   3.328   3.104
 2072SOL    HW2 6228   2.313   3.398   3.194
 2073SOL     OW 6229   2.264   2.613   3.460
 2073SOL    HW1 6230   2.332   2.668   3.413
 2073SOL    HW2 6231   2.304   2.525   3.487
 2074SOL     OW 6232   3.449   2.641   3.532
 2074SOL    HW1 6233   3.357   2.679   3.527
 2074SOL    HW2 6234   3.509   2.688   3.467
 2075SOL     OW 6235   2.875   1.967   3.632
 2075SOL    HW1 6236   2.881   2.052   3.580
 2075SOL    HW2 6237   2.907   1.891   3.575
 2076SOL     OW 6238   2.366   1.912   3.602
 2076SOL    HW1 6239   2.324   1.855   3.532
 2076SOL    HW2 6240   2.300   1.981   3.634
 2077SOL     OW 6241   2.435   2.732   2.891
 2077SOL    HW1 6242   2.479   2.821   2.882
 2077SOL    HW2 6243   2.372   2.732   2.968
 2078SOL     OW 6244   3.222   2.724   2.907
 2078SOL    HW1 6245   3.147   2.724   2.841
 2078SOL    HW2 6246   3.259   2.632   2.916
 2079SOL     OW 6247   3.071   2.387   2.137
 2079SOL    HW1 6248   3.084   2.303   2.191
 2079SOL    HW2 6249   3.042   2.461   2.197
 2080SOL     OW 6250   2.169   2.075   3.093
 2080SOL    HW1 6251   2.146   2.112   3.183
 2080SOL    HW2 6252   2.139   1.980   3.087
 2081SOL     OW 6253   1.899   3.172   3.144
 2081SOL    HW1 6254   1.952   3.123   3.212
 2081SOL    HW2 6255   1.921   3.270   3.149
 2082SOL     OW 6256   2.594   2.496   2.926
 2082SOL    HW1 6257   2.653   2.470   2.850
 2082SOL    HW2 6258   2.566   2.592   2.915
 2083SOL     OW 6259   3.590   2.797   3.716
 2083SOL    HW1 6260   3.544   2.790   3.627
 2083SOL    HW2 6261   3.528   2.841   3.782
 2084SOL     OW 6262   2.169   1.925   2.480
 2084SOL    HW1 6263   2.158   2.019   2.513
 2084SOL    HW2 6264   2.164   1.862   2.557
 2085SOL     OW 6265   3.484   2.229   2.236
 2085SOL    HW1 6266   3.486   2.153   2.300
 2085SOL    HW2 6267   3.436   2.306   2.276
 2086SOL     OW 6268   2.885   2.628   2.828
 2086SOL    HW1 6269   2.900   2.649   2.924
 2086SOL    HW2 6270   2.855   2.533   2.819
 2087SOL     OW 6271   2.842   3.435   3.562
 2087SOL    HW1 6272   2.822   3.479   3.474
 2087SOL    HW2 6273   2.881   3.344   3.546
 2088SOL     OW 6274   3.721   3.380   3.467
 2088SOL    HW1 6275   3.735   3.407   3.372
 2088SOL    HW2 6276   3.804   3.402   3.520
 2089SOL     OW 6277   2.212   2.760   3.666
 2089SOL    HW1 6278   2.288   2.804   3.714
 2089SOL    HW2 6279   2.247   2.713   3.584
 2090SOL     OW 6280   3.402   2.136   1.987
 2090SOL    HW1 6281   3.341   2.061   2.010
 2090SOL    HW2 6282   3.424   2.188   2.070
 2091SOL     OW 6283   3.165   2.700   1.904
 2091SOL    HW1 6284   3.199   2.607   1.919
 2091SOL    HW2 6285   3.183   2.727   1.809
 2092SOL     OW 6286   2.930   3.195   2.711
 2092SOL    HW1 6287   2.937   3.111   2.656
 2092SOL    HW2 6288   2.992   3.264   2.675
 2093SOL     OW 6289   2.181   2.672   2.811
 2093SOL    HW1 6290   2.274   2.708   2.816
 2093SOL    HW2 6291   2.175   2.587   2.863
 2094SOL     OW 6292   2.201   2.371   2.868
 2094SOL    HW1 6293   2.149   2.288   2.851
 2094SOL    HW2 6294   2.278   2.376   2.804
 2095SOL     OW 6295   3.000   2.242   3.540
 2095SOL    HW1 6296   2.955   2.305   3.604
 2095SOL    HW2 6297   3.093   2.273   3.523
 2096SOL     OW 6298   3.022   2.069   3.339
 2096SOL    HW1 6299   3.022   2.133   3.416
 2096SOL    HW2 6300   3.050   2.117   3.256
 2097SOL     OW 6301   1.870   3.188   2.062
 2097SOL    HW1 6302   1.777   3.209   2.031
 2097SOL    HW2 6303   1.880   3.089   2.075
 2098SOL     OW 6304   1.950   3.663   2.789
 2098SOL    HW1 6305   1.908   3.577   2.762
 2098SOL    HW2 6306   2.044   3.666   2.755
 2099SOL     OW 6307   2.366   3.430   2.772
 2099SOL    HW1 6308   2.432   3.504   2.781
 2099SOL    HW2 6309   2.410   3.351   2.730
 2100SOL     OW 6310   2.864   2.658   3.100
 2100SOL    HW1 6311   2.905   2.626   3.186
 2100SOL    HW2 6312   2.768   2.631   3.097
 2101SOL     OW 6313   1.902   2.406   2.976
 2101SOL    HW1 6314   1.987   2.373   2.935
 2101SOL    HW2 6315   1.915   2.421   3.074
 2102SOL     OW 6316   2.051   2.382   3.584
 2102SOL    HW1 6317   2.110   2.342   3.514
 2102SOL    HW2 6318   1.993   2.453   3.543
 2103SOL     OW 6319   3.231   2.812   3.522
 2103SOL    HW1 6320   3.270   2.901   3.542
 2103SOL    HW2 6321   3.241   2.792   3.425
 2104SOL     OW 6322   2.677   2.434   2.187
 2104SOL    HW1 6323   2.684   2.345   2.141
 2104SOL    HW2 6324   2.583   2.468   2.179
 2105SOL     OW 6325   3.519   2.466   3.068
 2105SOL    HW1 6326   3.481   2.397   3.130
 2105SOL    HW2 6327   3.601   2.430   3.024
 2106SOL     OW 6328   2.114   3.426   3.606
 2106SOL    HW1 6329   2.084   3.483   3.682
 2106SOL    HW2 6330   2.107   3.329   3.632
 2107SOL     OW 6331   2.533   2.326   3.131
 2107SOL    HW1 6332   2.499   2.237   3.101
 2107SOL    HW2 6333   2.559   2.380   3.051
 2108SOL     OW 6334   2.792   3.540   3.327
 2108SOL    HW1 6335   2.768   3.522   3.232
 2108SOL    HW2 6336   2.822   3.634   3.337
 2109SOL     OW 6337   2.021   2.999   3.328
 2109SOL    HW1 6338   2.043   2.938   3.404
 2109SOL    HW2 6339   2.031   2.950   3.242
 2110SOL     OW 6340   3.209   2.921   3.096
 2110SOL    HW1 6341   3.233   2.858   3.022
 2110SOL    HW2 6342   3.119   2.961   3.078
 2111SOL     OW 6343   3.164   2.717   2.171
 2111SOL    HW1 6344   3.078   2.686   2.213
 2111SOL    HW2 6345   3.160   2.703   2.072
 2112SOL     OW 6346   3.621   3.609   3.016
 2112SOL    HW1 6347   3.682   3.639   2.943
 2112SOL    HW2 6348   3.583   3.520   2.994
 2113SOL     OW 6349   3.114   3.593   2.990
 2113SOL    HW1 6350   3.198   3.598   2.936
 2113SOL    HW2 6351   3.091   3.497   3.008
 2114SOL     OW 6352   1.945   3.120   2.884
 2114SOL    HW1 6353   1.940   3.119   2.984
 2114SOL    HW2 6354   1.862   3.079   2.846
 2115SOL     OW 6355   2.550   3.524   3.578
 2115SOL    HW1 6356   2.494   3.605   3.587
 2115SOL    HW2 6357   2.602   3.528   3.492
 2116SOL     OW 6358   3.588   1.997   2.385
 2116SOL    HW1 6359   3.661   1.980   2.318
 2116SOL    HW2 6360   3.557   1.910   2.423
 2117SOL     OW 6361   3.250   3.435   2.339
 2117SOL    HW1 6362   3.317   3.447   2.265
 2117SOL    HW2 6363   3.210   3.524   2.362
 2118SOL     OW 6364   1.992   3.656   3.713
 2118SOL    HW1 6365   1.951   3.582   3.766
 2118SOL    HW2 6366   2.056   3.707   3.771
 2119SOL     OW 6367   3.142   2.789   2.534
 2119SOL    HW1 6368   3.202   2.708   2.536
 2119SOL    HW2 6369   3.182   2.858   2.474
 2120SOL     OW 6370   2.692   3.135   3.284
 2120SOL    HW1 6371   2.687   3.168   3.379
 2120SOL    HW2 6372   2.606   3.154   3.238
 2121SOL     OW 6373   2.534   3.478   2.016
 2121SOL    HW1 6374   2.543   3.488   1.917
 2121SOL    HW2 6375   2.494   3.389   2.037
 2122SOL     OW 6376   3.512   3.582   3.256
 2122SOL    HW1 6377   3.565   3.592   3.172
 2122SOL    HW2 6378   3.485   3.672   3.290
 2123SOL     OW 6379   3.703   2.037   2.825
 2123SOL    HW1 6380   3.742   1.952   2.789
 2123SOL    HW2 6381   3.605   2.039   2.806
 2124SOL     OW 6382   2.125   2.188   2.582
 2124SOL    HW1 6383   2.046   2.239   2.548
 2124SOL    HW2 6384   2.116   2.173   2.680
 2125SOL     OW 6385   3.056   3.474   1.893
 2125SOL    HW1 6386   3.062   3.381   1.930
 2125SOL    HW2 6387   2.997   3.474   1.813
 2126SOL     OW 6388   2.684   2.864   3.234
 2126SOL    HW1 6389   2.724   2.863   3.142
 2126SOL    HW2 6390   2.694   2.956   3.274
 2127SOL     OW 6391   2.778   2.772   2.153
 2127SOL    HW1 6392   2.841   2.810   2.085
 2127SOL    HW2 6393   2.818   2.689   2.192
 2128SOL     OW 6394   3.366   3.469   1.906
 2128SOL    HW1 6395   3.274   3.506   1.913
 2128SOL    HW2 6396   3.404   3.489   1.816
 2129SOL     OW 6397   2.234   3.150   3.352
 2129SOL    HW1 6398   2.221   3.243   3.318
 2129SOL    HW2 6399   2.150   3.098   3.339
 2130SOL     OW 6400   3.476   3.154   3.151
 2130SOL    HW1 6401   3.536   3.157   3.231
 2130SOL    HW2 6402   3.401   3.218   3.164
 2131SOL     OW 6403   2.901   2.960   2.558
 2131SOL    HW1 6404   2.831   2.913   2.612
 2131SOL    HW2 6405   2.960   2.892   2.515
 2132SOL     OW 6406   2.876   2.098   2.833
 2132SOL    HW1 6407   2.868   2.062   2.740
 2132SOL    HW2 6408   2.874   2.022   2.898
 2133SOL     OW 6409   2.452   3.349   2.353
 2133SOL    HW1 6410   2.494   3.291   2.283
 2133SOL    HW2 6411   2.408   3.428   2.309
 2134SOL     OW 6412   3.571   2.247   3.243
 2134SOL    HW1 6413   3.644   2.316   3.247
 2134SOL    HW2 6414   3.599   2.172   3.184
 2135SOL     OW 6415   2.117   3.210   2.152
 2135SOL    HW1 6416   2.021   3.211   2.125
 2135SOL    HW2 6417   2.129   3.263   2.236
 2136SOL     OW 6418   1.967   2.875   3.588
 2136SOL    HW1 6419   1.890   2.842   3.642
 2136SOL    HW2 6420   2.052   2.845   3.630
 2137SOL     OW 6421   2.534   2.065   3.351
 2137SOL    HW1 6422   2.624   2.049   3.311
 2137SOL    HW2 6423   2.542   2.070   3.450
 2138SOL     OW 6424   1.937   2.207   1.895
 2138SOL    HW1 6425   1.845   2.179   1.866
 2138SOL    HW2 6426   1.968   2.284   1.839
 2139SOL     OW 6427   3.302   2.718   3.260
 2139SOL    HW1 6428   3.245   2.770   3.197
 2139SOL    HW2 6429   3.398   2.730   3.236
 2140SOL     OW 6430   1.934   2.028   2.180
 2140SOL    HW1 6431   1.917   2.111   2.126
 2140SOL    HW2 6432   2.024   1.991   2.158
 2141SOL     OW 6433   3.045   3.197   1.981
 2141SOL    HW1 6434   2.946   3.186   1.983
 2141SOL    HW2 6435   3.079   3.212   2.074
 2142SOL     OW 6436   2.475   2.704   3.293
 2142SOL    HW1 6437   2.531   2.785   3.276
 2142SOL    HW2 6438   2.534   2.624   3.296
 2143SOL     OW 6439   3.355   3.629   2.821
 2143SOL    HW1 6440   3.388   3.693   2.752
 2143SOL    HW2 6441   3.421   3.623   2.896
 2144SOL     OW 6442   2.578   2.427   3.570
 2144SOL    HW1 6443   2.597   2.492   3.644
 2144SOL    HW2 6444   2.638   2.347   3.579
 2145SOL     OW 6445   3.312   3.082   3.495
 2145SOL    HW1 6446   3.303   3.072   3.594
 2145SOL    HW2 6447   3.408   3.075   3.469
 2146SOL     OW 6448   2.252   3.603   3.422
 2146SOL    HW1 6449   2.161   3.644   3.420
 2146SOL    HW2 6450   2.245   3.509   3.454
 2147SOL     OW 6451   3.536   2.745   3.116
 2147SOL    HW1 6452   3.509   2.656   3.079
 2147SOL    HW2 6453   3.537   2.813   3.043
 2148SOL     OW 6454   3.087   2.187   2.311
 2148SOL    HW1 6455   3.152   2.113   2.300
 2148SOL    HW2 6456   3.107   2.237   2.395
 2149SOL     OW 6457   2.456   2.607   2.514
 2149SOL    HW1 6458   2.506   2.692   2.495
 2149SOL    HW2 6459   2.368   2.609   2.466
 2150SOL     OW 6460   3.639   2.204   3.504
 2150SOL    HW1 6461   3.622   2.235   3.410
 2150SOL    HW2 6462   3.555   2.167   3.542
 2151SOL     OW 6463   3.592   2.796   3.379
 2151SOL    HW1 6464   3.630   2.887   3.394
 2151SOL    HW2 6465   3.584   2.779   3.280
 2152SOL     OW 6466   2.721   3.236   1.878
 2152SOL    HW1 6467   2.675   3.251   1.966
 2152SOL    HW2 6468   2.765   3.321   1.848
 2153SOL     OW 6469   2.523   3.652   2.815
 2153SOL    HW1 6470   2.477   3.740   2.802
 2153SOL    HW2 6471   2.622   3.664   2.808
 2154SOL     OW 6472   2.721   2.818   2.723
 2154SOL    HW1 6473   2.775   2.749   2.771
 2154SOL    HW2 6474   2.689   2.887   2.789
 2155SOL     OW 6475   2.945   2.846   1.949
 2155SOL    HW1 6476   2.922   2.899   1.867
 2155SOL    HW2 6477   3.026   2.790   1.930
 2156SOL     OW 6478   3.723   3.431   2.713
 2156SOL    HW1 6479   3.652   3.419   2.643
 2156SOL    HW2 6480   3.724   3.352   2.773
 2157SOL     OW 6481   2.083   3.176   3.706
 2157SOL    HW1 6482   2.018   3.103   3.685
 2157SOL    HW2 6483   2.087   3.190   3.804
 2158SOL     OW 6484   1.941   3.102   2.515
 2158SOL    HW1 6485   1.940   3.055   2.603
 2158SOL    HW2 6486   2.023   3.074   2.464
 2159SOL     OW 6487   2.534   3.253   3.486
 2159SOL    HW1 6488   2.456   3.203   3.524
 2159SOL    HW2 6489   2.531   3.348   3.517
 2160SOL     OW 6490   3.686   2.054   3.089
 2160SOL    HW1 6491   3.682   1.964   3.133
 2160SOL    HW2 6492   3.689   2.043   2.990
 2161SOL     OW 6493   3.567   3.349   2.966
 2161SOL    HW1 6494   3.474   3.324   2.939
 2161SOL    HW2 6495   3.593   3.299   3.048
 2162SOL     OW 6496   2.179   2.409   3.142
 2162SOL    HW1 6497   2.217   2.350   3.214
 2162SOL    HW2 6498   2.219   2.383   3.054
 2163SOL     OW 6499   2.674   3.448   2.549
 2163SOL    HW1 6500   2.706   3.458   2.455
 2163SOL    HW2 6501   2.595   3.386   2.551
 2164SOL     OW 6502   3.286   2.076   2.974
 2164SOL    HW1 6503   3.338   2.011   3.029
 2164SOL    HW2 6504   3.237   2.139   3.035
 2165SOL     OW 6505   2.863   1.896   3.016
 2165SOL    HW1 6506   2.800   1.824   2.985
 2165SOL    HW2 6507   2.956   1.860   3.016
 2166SOL     OW 6508   2.632   3.192   2.163
 2166SOL    HW1 6509   2.586   3.105   2.180
 2166SOL    HW2 6510   2.723   3.189   2.204
 2167SOL     OW 6511   2.480   3.429   3.146
 2167SOL    HW1 6512   2.475   3.511   3.203
 2167SOL    HW2 6513   2.569   3.426   3.101
 2168SOL     OW 6514   3.214   1.914   2.030
 2168SOL    HW1 6515   3.249   1.873   1.946
 2168SOL    HW2 6516   3.124   1.876   2.050
 2169SOL     OW 6517   3.162   2.315   2.553
 2169SOL    HW1 6518   3.103   2.395   2.557
 2169SOL    HW2 6519   3.177   2.280   2.646
 2170SOL     OW 6520   3.455   2.083   2.744
 2170SOL    HW1 6521   3.371   2.082   2.798
 2170SOL    HW2 6522   3.457   2.166   2.688
 2171SOL     OW 6523   1.901   2.939   2.162
 2171SOL    HW1 6524   2.000   2.928   2.153
 2171SOL    HW2 6525   1.861   2.853   2.194
 2172SOL     OW 6526   2.737   3.508   2.199
 2172SOL    HW1 6527   2.660   3.473   2.145
 2172SOL    HW2 6528   2.705   3.579   2.261
 2173SOL     OW 6529   2.092   2.490   3.837
 2173SOL    HW1 6530   1.999   2.488   3.874
 2173SOL    HW2 6531   2.093   2.451   3.745
 2174SOL     OW 6532   1.881   2.230   4.371
 2174SOL    HW1 6533   1.799   2.273   4.410
 2174SOL    HW2 6534   1.853   2.157   4.308
 2175SOL     OW 6535   3.617   2.469   3.955
 2175SOL    HW1 6536   3.605   2.456   3.856
 2175SOL    HW2 6537   3.587   2.388   4.004
 2176SOL     OW 6538   2.547   2.874   4.389
 2176SOL    HW1 6539   2.616   2.858   4.459
 2176SOL    HW2 6540   2.474   2.931   4.427
 2177SOL     OW 6541   3.465   2.309   4.461
 2177SOL    HW1 6542   3.391   2.355   4.411
 2177SOL    HW2 6543   3.516   2.377   4.514
 2178SOL     OW 6544   2.093   3.575   4.207
 2178SOL    HW1 6545   2.127   3.652   4.261
 2178SOL    HW2 6546   2.137   3.575   4.117
 2179SOL     OW 6547   2.092   3.296   4.262
 2179SOL    HW1 6548   2.066   3.392   4.262
 2179SOL    HW2 6549   2.021   3.242   4.307
 2180SOL     OW 6550   2.468   2.826   3.847
 2180SOL    HW1 6551   2.475   2.910   3.793
 2180SOL    HW2 6552   2.514   2.839   3.935
 2181SOL     OW 6553   1.984   2.505   4.287
 2181SOL    HW1 6554   1.939   2.417   4.304
 2181SOL    HW2 6555   1.983   2.559   4.371
 2182SOL     OW 6556   3.704   3.629   4.083
 2182SOL    HW1 6557   3.758   3.600   4.163
 2182SOL    HW2 6558   3.734   3.719   4.054
 2183SOL     OW 6559   1.889   3.458   3.841
 2183SOL    HW1 6560   1.870   3.362   3.862
 2183SOL    HW2 6561   1.856   3.516   3.916
 2184SOL     OW 6562   3.551   2.784   4.336
 2184SOL    HW1 6563   3.646   2.755   4.344
 2184SOL    HW2 6564   3.543   2.849   4.261
 2185SOL     OW 6565   3.503   2.970   4.156
 2185SOL    HW1 6566   3.589   2.972   4.104
 2185SOL    HW2 6567   3.517   3.017   4.244
 2186SOL     OW 6568   2.475   3.227   4.450
 2186SOL    HW1 6569   2.426   3.140   4.459
 2186SOL    HW2 6570   2.452   3.270   4.363
 2187SOL     OW 6571   2.671   1.866   4.226
 2187SOL    HW1 6572   2.711   1.957   4.217
 2187SOL    HW2 6573   2.571   1.874   4.232
 2188SOL     OW 6574   3.387   2.861   3.914
 2188SOL    HW1 6575   3.324   2.785   3.927
 2188SOL    HW2 6576   3.435   2.879   4.000
 2189SOL     OW 6577   3.529   3.576   4.296
 2189SOL    HW1 6578   3.488   3.553   4.208
 2189SOL    HW2 6579   3.511   3.502   4.361
 2190SOL     OW 6580   2.460   2.591   3.994
 2190SOL    HW1 6581   2.484   2.660   3.926
 2190SOL    HW2 6582   2.382   2.624   4.048
 2191SOL     OW 6583   3.143   2.207   4.668
 2191SOL    HW1 6584   3.057   2.157   4.655
 2191SOL    HW2 6585   3.205   2.153   4.724
 2192SOL     OW 6586   3.438   3.524   4.031
 2192SOL    HW1 6587   3.527   3.570   4.034
 2192SOL    HW2 6588   3.417   3.500   3.936
 2193SOL     OW 6589   2.903   2.563   4.153
 2193SOL    HW1 6590   2.929   2.559   4.249
 2193SOL    HW2 6591   2.818   2.512   4.139
 2194SOL     OW 6592   1.938   2.673   4.513
 2194SOL    HW1 6593   2.037   2.661   4.522
 2194SOL    HW2 6594   1.914   2.768   4.534
 2195SOL     OW 6595   2.727   2.210   3.919
 2195SOL    HW1 6596   2.786   2.273   3.870
 2195SOL    HW2 6597   2.746   2.116   3.890
 2196SOL     OW 6598   3.224   3.006   4.269
 2196SOL    HW1 6599   3.307   2.977   4.221
 2196SOL    HW2 6600   3.175   3.073   4.213
 2197SOL     OW 6601   2.870   3.318   4.201
 2197SOL    HW1 6602   2.824   3.390   4.149
 2197SOL    HW2 6603   2.866   3.338   4.299
 2198SOL     OW 6604   2.213   3.663   4.577
 2198SOL    HW1 6605   2.263   3.577   4.583
 2198SOL    HW2 6606   2.278   3.740   4.574
 2199SOL     OW 6607   3.657   2.928   4.597
 2199SOL    HW1 6608   3.595   2.913   4.521
 2199SOL    HW2 6609   3.605   2.939   4.682
 2200SOL     OW 6610   2.183   2.805   3.966
 2200SOL    HW1 6611   2.265   2.844   3.924
 2200SOL    HW2 6612   2.156   2.723   3.917
 2201SOL     OW 6613   2.973   3.638   3.961
 2201SOL    HW1 6614   2.913   3.576   4.011
 2201SOL    HW2 6615   3.004   3.594   3.876
 2202SOL     OW 6616   3.494   3.239   3.805
 2202SOL    HW1 6617   3.462   3.333   3.795
 2202SOL    HW2 6618   3.418   3.176   3.793
 2203SOL     OW 6619   2.326   3.605   4.047
 2203SOL    HW1 6620   2.359   3.644   4.133
 2203SOL    HW2 6621   2.402   3.598   3.982
 2204SOL     OW 6622   3.262   1.969   4.150
 2204SOL    HW1 6623   3.238   1.932   4.060
 2204SOL    HW2 6624   3.361   1.985   4.154
 2205SOL     OW 6625   2.802   3.560   4.628
 2205SOL    HW1 6626   2.882   3.503   4.649
 2205SOL    HW2 6627   2.753   3.520   4.551
 2206SOL     OW 6628   2.244   2.562   4.204
 2206SOL    HW1 6629   2.289   2.472   4.201
 2206SOL    HW2 6630   2.150   2.551   4.237
 2207SOL     OW 6631   2.476   1.984   3.841
 2207SOL    HW1 6632   2.574   1.962   3.848
 2207SOL    HW2 6633   2.445   1.967   3.748
 2208SOL     OW 6634   2.401   1.926   4.236
 2208SOL    HW1 6635   2.320   1.927   4.294
 2208SOL    HW2 6636   2.404   2.009   4.181
 2209SOL     OW 6637   3.296   3.050   3.765
 2209SOL    HW1 6638   3.328   2.974   3.822
 2209SOL    HW2 6639   3.204   3.077   3.795
 2210SOL     OW 6640   2.159   1.897   3.895
 2210SOL    HW1 6641   2.208   1.981   3.874
 2210SOL    HW2 6642   2.221   1.832   3.940
 2211SOL     OW 6643   2.797   2.098   4.204
 2211SOL    HW1 6644   2.749   2.139   4.126
 2211SOL    HW2 6645   2.896   2.096   4.185
 2212SOL     OW 6646   2.321   3.014   4.465
 2212SOL    HW1 6647   2.250   2.987   4.530
 2212SOL    HW2 6648   2.295   2.986   4.372
 2213SOL     OW 6649   3.133   3.659   4.315
 2213SOL    HW1 6650   3.177   3.723   4.251
 2213SOL    HW2 6651   3.083   3.711   4.385
 2214SOL     OW 6652   2.894   2.411   3.740
 2214SOL    HW1 6653   2.853   2.493   3.701
 2214SOL    HW2 6654   2.958   2.437   3.813
 2215SOL     OW 6655   2.728   2.316   4.366
 2215SOL    HW1 6656   2.696   2.388   4.304
 2215SOL    HW2 6657   2.752   2.235   4.313
 2216SOL     OW 6658   3.719   2.695   4.101
 2216SOL    HW1 6659   3.761   2.631   4.165
 2216SOL    HW2 6660   3.681   2.644   4.023
 2217SOL     OW 6661   2.350   3.247   3.898
 2217SOL    HW1 6662   2.263   3.232   3.945
 2217SOL    HW2 6663   2.333   3.273   3.803
 2218SOL     OW 6664   3.526   3.142   4.381
 2218SOL    HW1 6665   3.625   3.150   4.395
 2218SOL    HW2 6666   3.481   3.226   4.412
 2219SOL     OW 6667   3.252   2.437   3.802
 2219SOL    HW1 6668   3.198   2.416   3.883
 2219SOL    HW2 6669   3.343   2.396   3.811
 2220SOL     OW 6670   2.389   2.118   4.052
 2220SOL    HW1 6671   2.416   2.059   3.977
 2220SOL    HW2 6672   2.389   2.213   4.021
 2221SOL     OW 6673   2.973   3.057   4.824
 2221SOL    HW1 6674   2.933   3.101   4.905
 2221SOL    HW2 6675   2.932   3.094   4.741
 2222SOL     OW 6676   2.567   2.912   4.092
 2222SOL    HW1 6677   2.553   2.919   4.191
 2222SOL    HW2 6678   2.651   2.861   4.074
 2223SOL     OW 6679   2.229   2.962   4.225
 2223SOL    HW1 6680   2.222   3.045   4.169
 2223SOL    HW2 6681   2.233   2.882   4.165
 2224SOL     OW 6682   3.114   3.210   4.112
 2224SOL    HW1 6683   3.164   3.287   4.152
 2224SOL    HW2 6684   3.019   3.212   4.144
 2225SOL     OW 6685   3.444   2.501   4.196
 2225SOL    HW1 6686   3.413   2.562   4.269
 2225SOL    HW2 6687   3.494   2.553   4.127
 2226SOL     OW 6688   3.071   2.387   3.999
 2226SOL    HW1 6689   3.084   2.303   4.053
 2226SOL    HW2 6690   3.042   2.461   4.059
 2227SOL     OW 6691   2.169   1.925   4.342
 2227SOL    HW1 6692   2.158   2.019   4.375
 2227SOL    HW2 6693   2.164   1.862   4.419
 2228SOL     OW 6694   3.484   2.229   4.098
 2228SOL    HW1 6695   3.486   2.153   4.162
 2228SOL    HW2 6696   3.436   2.306   4.138
 2229SOL     OW 6697   3.402   2.136   3.849
 2229SOL    HW1 6698   3.341   2.061   3.872
 2229SOL    HW2 6699   3.424   2.188   3.932
 2230SOL     OW 6700   3.165   2.700   3.766
 2230SOL    HW1 6701   3.199   2.607   3.781
 2230SOL    HW2 6702   3.183   2.727   3.671
 2231SOL     OW 6703   1.870   3.188   3.924
 2231SOL    HW1 6704   1.777   3.209   3.893
 2231SOL    HW2 6705   1.880   3.089   3.937
 2232SOL     OW 6706   2.677   2.434   4.049
 2232SOL    HW1 6707   2.684   2.345   4.003
 2232SOL    HW2 6708   2.583   2.468   4.041
 2233SOL     OW 6709   2.335   2.362   3.915
 2233SOL    HW1 6710   2.396   2.442   3.919
 2233SOL    HW2 6711   2.240   2.393   3.922
 2234SOL     OW 6712   3.164   2.717   4.033
 2234SOL    HW1 6713   3.078   2.686   4.075
 2234SOL    HW2 6714   3.160   2.703   3.934
 2235SOL     OW 6715   3.588   1.997   4.247
 2235SOL    HW1 6716   3.661   1.980   4.180
 2235SOL    HW2 6717   3.557   1.910   4.285
 2236SOL     OW 6718   3.250   3.435   4.201
 2236SOL    HW1 6719   3.317   3.447   4.127
 2236SOL    HW2 6720   3.210   3.524   4.224
 2237SOL     OW 6721   2.534   3.478   3.878
 2237SOL    HW1 6722   2.543   3.488   3.779
 2237SOL    HW2 6723   2.494   3.389   3.899
 2238SOL     OW 6724   3.056   3.474   3.755
 2238SOL    HW1 6725   3.062   3.381   3.792
 2238SOL    HW2 6726   2.997   3.474   3.675
 2239SOL     OW 6727   2.778   2.772   4.015
 2239SOL    HW1 6728   2.841   2.810   3.947
 2239SOL    HW2 6729   2.818   2.689   4.054
 2240SOL     OW 6730   3.366   3.469   3.768
 2240SOL    HW1 6731   3.274   3.506   3.775
 2240SOL    HW2 6732   3.404   3.489   3.678
 2241SOL     OW 6733   2.452   3.349   4.215
 2241SOL    HW1 6734   2.494   3.291   4.145
 2241SOL    HW2 6735   2.408   3.428   4.171
 2242SOL     OW 6736   2.117   3.210   4.014
 2242SOL    HW1 6737   2.021   3.211   3.987
 2242SOL    HW2 6738   2.129   3.263   4.098
 2243SOL     OW 6739   1.937   2.207   3.757
 2243SOL    HW1 6740   1.845   2.179   3.728
 2243SOL    HW2 6741   1.968   2.284   3.701
 2244SOL     OW 6742   1.934   2.028   4.042
 2244SOL    HW1 6743   1.917   2.111   3.988
 2244SOL    HW2 6744   2.024   1.991   4.020
 2245SOL     OW 6745   3.045   3.197   3.843
 2245SOL    HW1 6746   2.946   3.186   3.845
 2245SOL    HW2 6747   3.079   3.212   3.936
 2246SOL     OW 6748   3.087   2.187   4.173
 2246SOL    HW1 6749   3.152   2.113   4.162
 2246SOL    HW2 6750   3.107   2.237   4.257
 2247SOL     OW 6751   2.456   2.607   4.376
 2247SOL    HW1 6752   2.506   2.692   4.357
 2247SOL    HW2 6753   2.368   2.609   4.328
 2248SOL     OW 6754   2.721   3.236   3.740
 2248SOL    HW1 6755   2.675   3.251   3.828
 2248SOL    HW2 6756   2.765   3.321   3.710
 2249SOL     OW 6757   2.523   3.652   4.677
 2249SOL    HW1 6758   2.477   3.740   4.664
 2249SOL    HW2 6759   2.622   3.664   4.670
 2250SOL     OW 6760   2.721   2.818   4.585
 2250SOL    HW1 6761   2.775   2.749   4.633
 2250SOL    HW2 6762   2.689   2.887   4.651
 2251SOL     OW 6763   2.945   2.846   3.811
 2251SOL    HW1 6764   2.922   2.899   3.729
 2251SOL    HW2 6765   3.026   2.790   3.792
 2252SOL     OW 6766   1.941   3.102   4.377
 2252SOL    HW1 6767   1.940   3.055   4.465
 2252SOL    HW2 6768   2.023   3.074   4.326
 2253SOL     OW 6769   2.290   2.286   4.244
 2253SOL    HW1 6770   2.320   2.214   4.182
 2253SOL    HW2 6771   2.251   2.246   4.327
 2254SOL     OW 6772   2.674   3.448   4.411
 2254SOL    HW1 6773   2.706   3.458   4.317
 2254SOL    HW2 6774   2.595   3.386   4.413
 2255SOL     OW 6775   2.632   3.192   4.025
 2255SOL    HW1 6776   2.586   3.105   4.042
 2255SOL    HW2 6777   2.723   3.189   4.066
 2256SOL     OW 6778   3.214   1.914   3.892
 2256SOL    HW1 6779   3.249   1.873   3.808
 2256SOL    HW2 6780   3.124   1.876   3.912
 2257SOL     OW 6781   3.162   2.315   4.415
 2257SOL    HW1 6782   3.103   2.395   4.419
 2257SOL    HW2 6783   3.177   2.280   4.508
 2258SOL     OW 6784   1.901   2.939   4.024
 2258SOL    HW1 6785   2.000   2.928   4.015
 2258SOL    HW2 6786   1.861   2.853   4.056
 2259SOL     OW 6787   2.737   3.508   4.061
 2259SOL    HW1 6788   2.660   3.473   4.007
 2259SOL    HW2 6789   2.705   3.579   4.123
 2260SOL     OW 6790   2.092   4.352   0.113
 2260SOL    HW1 6791   1.999   4.350   0.150
 2260SOL    HW2 6792   2.093   4.313   0.021
 2261SOL     OW 6793   2.087   3.999   0.996
 2261SOL    HW1 6794   2.122   3.982   1.088
 2261SOL    HW2 6795   1.999   3.954   0.984
 2262SOL     OW 6796   1.881   4.092   0.647
 2262SOL    HW1 6797   1.799   4.135   0.686
 2262SOL    HW2 6798   1.853   4.019   0.584
 2263SOL     OW 6799   3.617   4.331   0.231
 2263SOL    HW1 6800   3.605   4.318   0.132
 2263SOL    HW2 6801   3.587   4.250   0.280
 2264SOL     OW 6802   2.712   4.522   1.823
 2264SOL    HW1 6803   2.708   4.598   1.888
 2264SOL    HW2 6804   2.734   4.558   1.732
 2265SOL     OW 6805   2.547   4.736   0.665
 2265SOL    HW1 6806   2.616   4.720   0.735
 2265SOL    HW2 6807   2.474   4.793   0.703
 2266SOL     OW 6808   2.300   4.116   1.499
 2266SOL    HW1 6809   2.382   4.060   1.508
 2266SOL    HW2 6810   2.219   4.058   1.503
 2267SOL     OW 6811   3.465   4.171   0.737
 2267SOL    HW1 6812   3.391   4.217   0.687
 2267SOL    HW2 6813   3.516   4.239   0.790
 2268SOL     OW 6814   3.456   3.838   1.480
 2268SOL    HW1 6815   3.438   3.905   1.408
 2268SOL    HW2 6816   3.453   3.884   1.569
 2269SOL     OW 6817   1.984   4.367   0.563
 2269SOL    HW1 6818   1.939   4.279   0.580
 2269SOL    HW2 6819   1.983   4.421   0.647
 2270SOL     OW 6820   1.975   4.461   1.597
 2270SOL    HW1 6821   2.063   4.448   1.642
 2270SOL    HW2 6822   1.962   4.558   1.575
 2271SOL     OW 6823   2.671   3.728   0.502
 2271SOL    HW1 6824   2.711   3.819   0.493
 2271SOL    HW2 6825   2.571   3.736   0.508
 2272SOL     OW 6826   2.179   3.975   1.801
 2272SOL    HW1 6827   2.250   4.046   1.807
 2272SOL    HW2 6828   2.091   4.014   1.829
 2273SOL     OW 6829   3.143   4.069   0.944
 2273SOL    HW1 6830   3.057   4.019   0.931
 2273SOL    HW2 6831   3.205   4.015   1.000
 2274SOL     OW 6832   2.669   4.329   1.465
 2274SOL    HW1 6833   2.622   4.326   1.554
 2274SOL    HW2 6834   2.618   4.274   1.399
 2275SOL     OW 6835   3.256   4.193   1.674
 2275SOL    HW1 6836   3.236   4.236   1.762
 2275SOL    HW2 6837   3.334   4.131   1.683
 2276SOL     OW 6838   2.853   4.134   1.242
 2276SOL    HW1 6839   2.776   4.168   1.296
 2276SOL    HW2 6840   2.819   4.083   1.163
 2277SOL     OW 6841   2.903   4.425   0.429
 2277SOL    HW1 6842   2.929   4.421   0.525
 2277SOL    HW2 6843   2.818   4.374   0.415
 2278SOL     OW 6844   2.727   4.072   0.195
 2278SOL    HW1 6845   2.786   4.135   0.146
 2278SOL    HW2 6846   2.746   3.978   0.166
 2279SOL     OW 6847   3.581   4.309   1.831
 2279SOL    HW1 6848   3.555   4.398   1.795
 2279SOL    HW2 6849   3.579   4.241   1.758
 2280SOL     OW 6850   2.412   3.920   0.885
 2280SOL    HW1 6851   2.407   3.915   0.985
 2280SOL    HW2 6852   2.414   4.016   0.856
 2281SOL     OW 6853   3.320   4.459   0.728
 2281SOL    HW1 6854   3.315   4.394   0.803
 2281SOL    HW2 6855   3.400   4.518   0.741
 2282SOL     OW 6856   2.064   4.009   1.498
 2282SOL    HW1 6857   1.984   4.069   1.485
 2282SOL    HW2 6858   2.054   3.960   1.584
 2283SOL     OW 6859   3.262   3.831   0.426
 2283SOL    HW1 6860   3.238   3.794   0.336
 2283SOL    HW2 6861   3.361   3.847   0.430
 2284SOL     OW 6862   2.244   4.424   0.480
 2284SOL    HW1 6863   2.289   4.334   0.477
 2284SOL    HW2 6864   2.150   4.413   0.513
 2285SOL     OW 6865   3.409   3.946   1.729
 2285SOL    HW1 6866   3.404   3.983   1.821
 2285SOL    HW2 6867   3.337   3.877   1.717
 2286SOL     OW 6868   2.643   3.988   1.749
 2286SOL    HW1 6869   2.710   3.927   1.792
 2286SOL    HW2 6870   2.570   4.007   1.814
 2287SOL     OW 6871   3.213   4.314   1.433
 2287SOL    HW1 6872   3.241   4.271   1.518
 2287SOL    HW2 6873   3.238   4.410   1.434
 2288SOL     OW 6874   2.784   4.227   0.899
 2288SOL    HW1 6875   2.759   4.218   0.803
 2288SOL    HW2 6876   2.832   4.145   0.930
 2289SOL     OW 6877   2.401   3.788   0.512
 2289SOL    HW1 6878   2.320   3.789   0.570
 2289SOL    HW2 6879   2.404   3.871   0.457
 2290SOL     OW 6880   2.797   3.960   0.480
 2290SOL    HW1 6881   2.749   4.001   0.402
 2290SOL    HW2 6882   2.896   3.958   0.461
 2291SOL     OW 6883   2.938   4.407   1.464
 2291SOL    HW1 6884   2.858   4.346   1.467
 2291SOL    HW2 6885   3.019   4.354   1.440
 2292SOL     OW 6886   2.894   4.273   0.016
 2292SOL    HW1 6887   2.853   4.355  -0.023
 2292SOL    HW2 6888   2.958   4.299   0.089
 2293SOL     OW 6889   1.940   4.280   1.386
 2293SOL    HW1 6890   2.032   4.279   1.345
 2293SOL    HW2 6891   1.934   4.354   1.453
 2294SOL     OW 6892   2.423   3.946   1.147
 2294SOL    HW1 6893   2.461   3.862   1.184
 2294SOL    HW2 6894   2.335   3.965   1.191
 2295SOL     OW 6895   2.728   4.178   0.642
 2295SOL    HW1 6896   2.696   4.250   0.580
 2295SOL    HW2 6897   2.752   4.097   0.589
 2296SOL     OW 6898   2.879   3.763   0.753
 2296SOL    HW1 6899   2.807   3.768   0.684
 2296SOL    HW2 6900   2.855   3.694   0.822
 2297SOL     OW 6901   3.328   4.314   0.992
 2297SOL    HW1 6902   3.298   4.219   0.999
 2297SOL    HW2 6903   3.401   4.330   1.058
 2298SOL     OW 6904   3.252   4.299   0.078
 2298SOL    HW1 6905   3.198   4.278   0.159
 2298SOL    HW2 6906   3.343   4.258   0.087
 2299SOL     OW 6907   2.389   3.980   0.328
 2299SOL    HW1 6908   2.416   3.921   0.253
 2299SOL    HW2 6909   2.389   4.075   0.297
 2300SOL     OW 6910   2.777   3.813   1.402
 2300SOL    HW1 6911   2.802   3.793   1.307
 2300SOL    HW2 6912   2.849   3.869   1.444
 2301SOL     OW 6913   2.272   4.537   1.251
 2301SOL    HW1 6914   2.358   4.549   1.301
 2301SOL    HW2 6915   2.230   4.450   1.278
 2302SOL     OW 6916   3.136   4.110   1.262
 2302SOL    HW1 6917   3.157   4.184   1.326
 2302SOL    HW2 6918   3.047   4.127   1.219
 2303SOL     OW 6919   2.428   4.261   0.865
 2303SOL    HW1 6920   2.440   4.327   0.791
 2303SOL    HW2 6921   2.474   4.295   0.948
 2304SOL     OW 6922   3.444   4.363   0.472
 2304SOL    HW1 6923   3.413   4.424   0.545
 2304SOL    HW2 6924   3.494   4.415   0.403
 2305SOL     OW 6925   3.449   4.503   1.670
 2305SOL    HW1 6926   3.357   4.541   1.665
 2305SOL    HW2 6927   3.509   4.550   1.605
 2306SOL     OW 6928   2.875   3.829   1.770
 2306SOL    HW1 6929   2.881   3.914   1.718
 2306SOL    HW2 6930   2.907   3.753   1.713
 2307SOL     OW 6931   2.366   3.774   1.740
 2307SOL    HW1 6932   2.324   3.717   1.670
 2307SOL    HW2 6933   2.300   3.843   1.772
 2308SOL     OW 6934   3.071   4.249   0.275
 2308SOL    HW1 6935   3.084   4.165   0.329
 2308SOL    HW2 6936   3.042   4.323   0.335
 2309SOL     OW 6937   2.169   3.937   1.231
 2309SOL    HW1 6938   2.146   3.974   1.321
 2309SOL    HW2 6939   2.139   3.842   1.225
 2310SOL     OW 6940   2.594   4.358   1.064
 2310SOL    HW1 6941   2.653   4.332   0.988
 2310SOL    HW2 6942   2.566   4.454   1.053
 2311SOL     OW 6943   3.590   4.659   1.854
 2311SOL    HW1 6944   3.544   4.652   1.765
 2311SOL    HW2 6945   3.528   4.703   1.920
 2312SOL     OW 6946   2.169   3.787   0.618
 2312SOL    HW1 6947   2.158   3.881   0.651
 2312SOL    HW2 6948   2.164   3.724   0.695
 2313SOL     OW 6949   3.484   4.091   0.374
 2313SOL    HW1 6950   3.486   4.015   0.438
 2313SOL    HW2 6951   3.436   4.168   0.414
 2314SOL     OW 6952   3.402   3.998   0.125
 2314SOL    HW1 6953   3.341   3.923   0.148
 2314SOL    HW2 6954   3.424   4.050   0.208
 2315SOL     OW 6955   2.181   4.534   0.949
 2315SOL    HW1 6956   2.274   4.570   0.954
 2315SOL    HW2 6957   2.175   4.449   1.001
 2316SOL     OW 6958   2.201   4.233   1.006
 2316SOL    HW1 6959   2.149   4.150   0.989
 2316SOL    HW2 6960   2.278   4.238   0.942
 2317SOL     OW 6961   3.000   4.104   1.678
 2317SOL    HW1 6962   2.955   4.167   1.742
 2317SOL    HW2 6963   3.093   4.135   1.661
 2318SOL     OW 6964   3.022   3.931   1.477
 2318SOL    HW1 6965   3.022   3.995   1.554
 2318SOL    HW2 6966   3.050   3.979   1.394
 2319SOL     OW 6967   1.902   4.268   1.114
 2319SOL    HW1 6968   1.987   4.235   1.073
 2319SOL    HW2 6969   1.915   4.283   1.212
 2320SOL     OW 6970   2.051   4.244   1.722
 2320SOL    HW1 6971   2.110   4.204   1.652
 2320SOL    HW2 6972   1.993   4.315   1.681
 2321SOL     OW 6973   2.677   4.296   0.325
 2321SOL    HW1 6974   2.684   4.207   0.279
 2321SOL    HW2 6975   2.583   4.330   0.317
 2322SOL     OW 6976   3.519   4.328   1.206
 2322SOL    HW1 6977   3.481   4.259   1.268
 2322SOL    HW2 6978   3.601   4.292   1.162
 2323SOL     OW 6979   2.533   4.188   1.269
 2323SOL    HW1 6980   2.499   4.099   1.239
 2323SOL    HW2 6981   2.559   4.242   1.189
 2324SOL     OW 6982   2.335   4.224   0.191
 2324SOL    HW1 6983   2.396   4.304   0.195
 2324SOL    HW2 6984   2.240   4.255   0.198
 2325SOL     OW 6985   2.765   3.810   0.133
 2325SOL    HW1 6986   2.816   3.811   0.047
 2325SOL    HW2 6987   2.821   3.768   0.204
 2326SOL     OW 6988   3.588   3.859   0.523
 2326SOL    HW1 6989   3.661   3.842   0.456
 2326SOL    HW2 6990   3.557   3.772   0.561
 2327SOL     OW 6991   3.142   4.651   0.672
 2327SOL    HW1 6992   3.202   4.570   0.674
 2327SOL    HW2 6993   3.182   4.720   0.612
 2328SOL     OW 6994   3.703   3.899   0.963
 2328SOL    HW1 6995   3.742   3.814   0.927
 2328SOL    HW2 6996   3.605   3.901   0.944
 2329SOL     OW 6997   2.125   4.050   0.720
 2329SOL    HW1 6998   2.046   4.101   0.686
 2329SOL    HW2 6999   2.116   4.035   0.818
 2330SOL     OW 7000   2.901   4.822   0.696
 2330SOL    HW1 7001   2.831   4.775   0.750
 2330SOL    HW2 7002   2.960   4.754   0.653
 2331SOL     OW 7003   2.876   3.960   0.971
 2331SOL    HW1 7004   2.868   3.924   0.878
 2331SOL    HW2 7005   2.874   3.884   1.036
 2332SOL     OW 7006   3.571   4.109   1.381
 2332SOL    HW1 7007   3.644   4.178   1.385
 2332SOL    HW2 7008   3.599   4.034   1.322
 2333SOL     OW 7009   2.534   3.927   1.489
 2333SOL    HW1 7010   2.624   3.911   1.449
 2333SOL    HW2 7011   2.542   3.932   1.588
 2334SOL     OW 7012   1.937   4.069   0.033
 2334SOL    HW1 7013   1.845   4.041   0.004
 2334SOL    HW2 7014   1.968   4.146  -0.023
 2335SOL     OW 7015   1.934   3.890   0.318
 2335SOL    HW1 7016   1.917   3.973   0.264
 2335SOL    HW2 7017   2.024   3.853   0.296
 2336SOL     OW 7018   2.578   4.289   1.708
 2336SOL    HW1 7019   2.597   4.354   1.782
 2336SOL    HW2 7020   2.638   4.209   1.717
 2337SOL     OW 7021   3.087   4.049   0.449
 2337SOL    HW1 7022   3.152   3.975   0.438
 2337SOL    HW2 7023   3.107   4.099   0.533
 2338SOL     OW 7024   3.639   4.066   1.642
 2338SOL    HW1 7025   3.622   4.097   1.548
 2338SOL    HW2 7026   3.555   4.029   1.680
 2339SOL     OW 7027   2.945   4.708   0.087
 2339SOL    HW1 7028   2.922   4.761   0.005
 2339SOL    HW2 7029   3.026   4.652   0.068
 2340SOL     OW 7030   3.686   3.916   1.227
 2340SOL    HW1 7031   3.682   3.826   1.271
 2340SOL    HW2 7032   3.689   3.905   1.128
 2341SOL     OW 7033   2.290   4.148   0.520
 2341SOL    HW1 7034   2.320   4.076   0.458
 2341SOL    HW2 7035   2.251   4.108   0.603
 2342SOL     OW 7036   2.179   4.271   1.280
 2342SOL    HW1 7037   2.217   4.212   1.352
 2342SOL    HW2 7038   2.219   4.245   1.192
 2343SOL     OW 7039   3.286   3.938   1.112
 2343SOL    HW1 7040   3.338   3.873   1.167
 2343SOL    HW2 7041   3.237   4.001   1.173
 2344SOL     OW 7042   2.863   3.758   1.154
 2344SOL    HW1 7043   2.800   3.686   1.123
 2344SOL    HW2 7044   2.956   3.722   1.154
 2345SOL     OW 7045   3.214   3.776   0.168
 2345SOL    HW1 7046   3.249   3.735   0.084
 2345SOL    HW2 7047   3.124   3.738   0.188
 2346SOL     OW 7048   3.162   4.177   0.691
 2346SOL    HW1 7049   3.103   4.257   0.695
 2346SOL    HW2 7050   3.177   4.142   0.784
 2347SOL     OW 7051   3.455   3.945   0.882
 2347SOL    HW1 7052   3.371   3.944   0.936
 2347SOL    HW2 7053   3.457   4.028   0.826
 2348SOL     OW 7054   2.092   4.352   1.975
 2348SOL    HW1 7055   1.999   4.350   2.012
 2348SOL    HW2 7056   2.093   4.313   1.883
 2349SOL     OW 7057   2.087   3.999   2.858
 2349SOL    HW1 7058   2.122   3.982   2.950
 2349SOL    HW2 7059   1.999   3.954   2.846
 2350SOL     OW 7060   1.881   4.092   2.509
 2350SOL    HW1 7061   1.799   4.135   2.548
 2350SOL    HW2 7062   1.853   4.019   2.446
 2351SOL     OW 7063   3.617   4.331   2.093
 2351SOL    HW1 7064   3.605   4.318   1.994
 2351SOL    HW2 7065   3.587   4.250   2.142
 2352SOL     OW 7066   2.712   4.522   3.685
 2352SOL    HW1 7067   2.708   4.598   3.750
 2352SOL    HW2 7068   2.734   4.558   3.594
 2353SOL     OW 7069   2.547   4.736   2.527
 2353SOL    HW1 7070   2.616   4.720   2.597
 2353SOL    HW2 7071   2.474   4.793   2.565
 2354SOL     OW 7072   2.300   4.116   3.361
 2354SOL    HW1 7073   2.382   4.060   3.370
 2354SOL    HW2 7074   2.219   4.058   3.365
 2355SOL     OW 7075   3.465   4.171   2.599
 2355SOL    HW1 7076   3.391   4.217   2.549
 2355SOL    HW2 7077   3.516   4.239   2.652
 2356SOL     OW 7078   3.456   3.838   3.342
 2356SOL    HW1 7079   3.438   3.905   3.270
 2356SOL    HW2 7080   3.453   3.884   3.431
 2357SOL     OW 7081   1.984   4.367   2.425
 2357SOL    HW1 7082   1.939   4.279   2.442
 2357SOL    HW2 7083   1.983   4.421   2.509
 2358SOL     OW 7084   1.975   4.461   3.459
 2358SOL    HW1 7085   2.063   4.448   3.504
 2358SOL    HW2 7086   1.962   4.558   3.437
 2359SOL     OW 7087   2.671   3.728   2.364
 2359SOL    HW1 7088   2.711   3.819   2.355
 2359SOL    HW2 7089   2.571   3.736   2.370
 2360SOL     OW 7090   2.179   3.975   3.663
 2360SOL    HW1 7091   2.250   4.046   3.669
 2360SOL    HW2 7092   2.091   4.014   3.691
 2361SOL     OW 7093   3.143   4.069   2.806
 2361SOL    HW1 7094   3.057   4.019   2.793
 2361SOL    HW2 7095   3.205   4.015   2.862
 2362SOL     OW 7096   2.669   4.329   3.327
 2362SOL    HW1 7097   2.622   4.326   3.416
 2362SOL    HW2 7098   2.618   4.274   3.261
 2363SOL     OW 7099   3.256   4.193   3.536
 2363SOL    HW1 7100   3.236   4.236   3.624
 2363SOL    HW2 7101   3.334   4.131   3.545
 2364SOL     OW 7102   2.853   4.134   3.104
 2364SOL    HW1 7103   2.776   4.168   3.158
 2364SOL    HW2 7104   2.819   4.083   3.025
 2365SOL     OW 7105   2.903   4.425   2.291
 2365SOL    HW1 7106   2.929   4.421   2.387
 2365SOL    HW2 7107   2.818   4.374   2.277
 2366SOL     OW 7108   2.727   4.072   2.057
 2366SOL    HW1 7109   2.786   4.135   2.008
 2366SOL    HW2 7110   2.746   3.978   2.028
 2367SOL     OW 7111   3.581   4.309   3.693
 2367SOL    HW1 7112   3.555   4.398   3.657
 2367SOL    HW2 7113   3.579   4.241   3.620
 2368SOL     OW 7114   2.412   3.920   2.747
 2368SOL    HW1 7115   2.407   3.915   2.847
 2368SOL    HW2 7116   2.414   4.016   2.718
 2369SOL     OW 7117   3.320   4.459   2.590
 2369SOL    HW1 7118   3.315   4.394   2.665
 2369SOL    HW2 7119   3.400   4.518   2.603
 2370SOL     OW 7120   2.064   4.009   3.360
 2370SOL    HW1 7121   1.984   4.069   3.347
 2370SOL    HW2 7122   2.054   3.960   3.446
 2371SOL     OW 7123   3.262   3.831   2.288
 2371SOL    HW1 7124   3.238   3.794   2.198
 2371SOL    HW2 7125   3.361   3.847   2.292
 2372SOL     OW 7126   2.244   4.424   2.342
 2372SOL    HW1 7127   2.289   4.334   2.339
 2372SOL    HW2 7128   2.150   4.413   2.375
 2373SOL     OW 7129   3.409   3.946   3.591
 2373SOL    HW1 7130   3.404   3.983   3.683
 2373SOL    HW2 7131   3.337   3.877   3.579
 2374SOL     OW 7132   2.476   3.846   1.979
 2374SOL    HW1 7133   2.574   3.824   1.986
 2374SOL    HW2 7134   2.445   3.829   1.886
 2375SOL     OW 7135   2.643   3.988   3.611
 2375SOL    HW1 7136   2.710   3.927   3.654
 2375SOL    HW2 7137   2.570   4.007   3.676
 2376SOL     OW 7138   3.213   4.314   3.295
 2376SOL    HW1 7139   3.241   4.271   3.380
 2376SOL    HW2 7140   3.238   4.410   3.296
 2377SOL     OW 7141   2.784   4.227   2.761
 2377SOL    HW1 7142   2.759   4.218   2.665
 2377SOL    HW2 7143   2.832   4.145   2.792
 2378SOL     OW 7144   2.401   3.788   2.374
 2378SOL    HW1 7145   2.320   3.789   2.432
 2378SOL    HW2 7146   2.404   3.871   2.319
 2379SOL     OW 7147   2.159   3.759   2.033
 2379SOL    HW1 7148   2.208   3.843   2.012
 2379SOL    HW2 7149   2.221   3.694   2.078
 2380SOL     OW 7150   2.797   3.960   2.342
 2380SOL    HW1 7151   2.749   4.001   2.264
 2380SOL    HW2 7152   2.896   3.958   2.323
 2381SOL     OW 7153   2.938   4.407   3.326
 2381SOL    HW1 7154   2.858   4.346   3.329
 2381SOL    HW2 7155   3.019   4.354   3.302
 2382SOL     OW 7156   2.894   4.273   1.878
 2382SOL    HW1 7157   2.853   4.355   1.839
 2382SOL    HW2 7158   2.958   4.299   1.951
 2383SOL     OW 7159   1.940   4.280   3.248
 2383SOL    HW1 7160   2.032   4.279   3.207
 2383SOL    HW2 7161   1.934   4.354   3.315
 2384SOL     OW 7162   2.423   3.946   3.009
 2384SOL    HW1 7163   2.461   3.862   3.046
 2384SOL    HW2 7164   2.335   3.965   3.053
 2385SOL     OW 7165   2.728   4.178   2.504
 2385SOL    HW1 7166   2.696   4.250   2.442
 2385SOL    HW2 7167   2.752   4.097   2.451
 2386SOL     OW 7168   2.879   3.763   2.615
 2386SOL    HW1 7169   2.807   3.768   2.546
 2386SOL    HW2 7170   2.855   3.694   2.684
 2387SOL     OW 7171   3.328   4.314   2.854
 2387SOL    HW1 7172   3.298   4.219   2.861
 2387SOL    HW2 7173   3.401   4.330   2.920
 2388SOL     OW 7174   3.252   4.299   1.940
 2388SOL    HW1 7175   3.198   4.278   2.021
 2388SOL    HW2 7176   3.343   4.258   1.949
 2389SOL     OW 7177   2.389   3.980   2.190
 2389SOL    HW1 7178   2.416   3.921   2.115
 2389SOL    HW2 7179   2.389   4.075   2.159
 2390SOL     OW 7180   2.777   3.813   3.264
 2390SOL    HW1 7181   2.802   3.793   3.169
 2390SOL    HW2 7182   2.849   3.869   3.306
 2391SOL     OW 7183   2.272   4.537   3.113
 2391SOL    HW1 7184   2.358   4.549   3.163
 2391SOL    HW2 7185   2.230   4.450   3.140
 2392SOL     OW 7186   3.136   4.110   3.124
 2392SOL    HW1 7187   3.157   4.184   3.188
 2392SOL    HW2 7188   3.047   4.127   3.081
 2393SOL     OW 7189   2.428   4.261   2.727
 2393SOL    HW1 7190   2.440   4.327   2.653
 2393SOL    HW2 7191   2.474   4.295   2.810
 2394SOL     OW 7192   3.444   4.363   2.334
 2394SOL    HW1 7193   3.413   4.424   2.407
 2394SOL    HW2 7194   3.494   4.415   2.265
 2395SOL     OW 7195   3.449   4.503   3.532
 2395SOL    HW1 7196   3.357   4.541   3.527
 2395SOL    HW2 7197   3.509   4.550   3.467
 2396SOL     OW 7198   2.875   3.829   3.632
 2396SOL    HW1 7199   2.881   3.914   3.580
 2396SOL    HW2 7200   2.907   3.753   3.575
 2397SOL     OW 7201   2.366   3.774   3.602
 2397SOL    HW1 7202   2.324   3.717   3.532
 2397SOL    HW2 7203   2.300   3.843   3.634
 2398SOL     OW 7204   3.071   4.249   2.137
 2398SOL    HW1 7205   3.084   4.165   2.191
 2398SOL    HW2 7206   3.042   4.323   2.197
 2399SOL     OW 7207   2.169   3.937   3.093
 2399SOL    HW1 7208   2.146   3.974   3.183
 2399SOL    HW2 7209   2.139   3.842   3.087
 2400SOL     OW 7210   2.594   4.358   2.926
 2400SOL    HW1 7211   2.653   4.332   2.850
 2400SOL    HW2 7212   2.566   4.454   2.915
 2401SOL     OW 7213   3.590   4.659   3.716
 2401SOL    HW1 7214   3.544   4.652   3.627
 2401SOL    HW2 7215   3.528   4.703   3.782
 2402SOL     OW 7216   2.169   3.787   2.480
 2402SOL    HW1 7217   2.158   3.881   2.513
 2402SOL    HW2 7218   2.164   3.724   2.557
 2403SOL     OW 7219   3.484   4.091   2.236
 2403SOL    HW1 7220   3.486   4.015   2.300
 2403SOL    HW2 7221   3.436   4.168   2.276
 2404SOL     OW 7222   3.402   3.998   1.987
 2404SOL    HW1 7223   3.341   3.923   2.010
 2404SOL    HW2 7224   3.424   4.050   2.070
 2405SOL     OW 7225   2.181   4.534   2.811
 2405SOL    HW1 7226   2.274   4.570   2.816
 2405SOL    HW2 7227   2.175   4.449   2.863
 2406SOL     OW 7228   2.201   4.233   2.868
 2406SOL    HW1 7229   2.149   4.150   2.851
 2406SOL    HW2 7230   2.278   4.238   2.804
 2407SOL     OW 7231   3.000   4.104   3.540
 2407SOL    HW1 7232   2.955   4.167   3.604
 2407SOL    HW2 7233   3.093   4.135   3.523
 2408SOL     OW 7234   3.022   3.931   3.339
 2408SOL    HW1 7235   3.022   3.995   3.416
 2408SOL    HW2 7236   3.050   3.979   3.256
 2409SOL     OW 7237   1.902   4.268   2.976
 2409SOL    HW1 7238   1.987   4.235   2.935
 2409SOL    HW2 7239   1.915   4.283   3.074
 2410SOL     OW 7240   2.051   4.244   3.584
 2410SOL    HW1 7241   2.110   4.204   3.514
 2410SOL    HW2 7242   1.993   4.315   3.543
 2411SOL     OW 7243   2.677   4.296   2.187
 2411SOL    HW1 7244   2.684   4.207   2.141
 2411SOL    HW2 7245   2.583   4.330   2.179
 2412SOL     OW 7246   3.519   4.328   3.068
 2412SOL    HW1 7247   3.481   4.259   3.130
 2412SOL    HW2 7248   3.601   4.292   3.024
 2413SOL     OW 7249   2.533   4.188   3.131
 2413SOL    HW1 7250   2.499   4.099   3.101
 2413SOL    HW2 7251   2.559   4.242   3.051
 2414SOL     OW 7252   2.335   4.224   2.053
 2414SOL    HW1 7253   2.396   4.304   2.057
 2414SOL    HW2 7254   2.240   4.255   2.060
 2415SOL     OW 7255   3.588   3.859   2.385
 2415SOL    HW1 7256   3.661   3.842   2.318
 2415SOL    HW2 7257   3.557   3.772   2.423
 2416SOL     OW 7258   3.142   4.651   2.534
 2416SOL    HW1 7259   3.202   4.570   2.536
 2416SOL    HW2 7260   3.182   4.720   2.474
 2417SOL     OW 7261   3.703   3.899   2.825
 2417SOL    HW1 7262   3.742   3.814   2.789
 2417SOL    HW2 7263   3.605   3.901   2.806
 2418SOL     OW 7264   2.125   4.050   2.582
 2418SOL    HW1 7265   2.046   4.101   2.548
 2418SOL    HW2 7266   2.116   4.035   2.680
 2419SOL     OW 7267   2.778   4.634   2.153
 2419SOL    HW1 7268   2.841   4.672   2.085
 2419SOL    HW2 7269   2.818   4.551   2.192
 2420SOL     OW 7270   2.901   4.822   2.558
 2420SOL    HW1 7271   2.831   4.775   2.612
 2420SOL    HW2 7272   2.960   4.754   2.515
 2421SOL     OW 7273   2.876   3.960   2.833
 2421SOL    HW1 7274   2.868   3.924   2.740
 2421SOL    HW2 7275   2.874   3.884   2.898
 2422SOL     OW 7276   3.571   4.109   3.243
 2422SOL    HW1 7277   3.644   4.178   3.247
 2422SOL    HW2 7278   3.599   4.034   3.184
 2423SOL     OW 7279   2.534   3.927   3.351
 2423SOL    HW1 7280   2.624   3.911   3.311
 2423SOL    HW2 7281   2.542   3.932   3.450
 2424SOL     OW 7282   1.937   4.069   1.895
 2424SOL    HW1 7283   1.845   4.041   1.866
 2424SOL    HW2 7284   1.968   4.146   1.839
 2425SOL     OW 7285   1.934   3.890   2.180
 2425SOL    HW1 7286   1.917   3.973   2.126
 2425SOL    HW2 7287   2.024   3.853   2.158
 2426SOL     OW 7288   2.578   4.289   3.570
 2426SOL    HW1 7289   2.597   4.354   3.644
 2426SOL    HW2 7290   2.638   4.209   3.579
 2427SOL     OW 7291   3.087   4.049   2.311
 2427SOL    HW1 7292   3.152   3.975   2.300
 2427SOL    HW2 7293   3.107   4.099   2.395
 2428SOL     OW 7294   3.639   4.066   3.504
 2428SOL    HW1 7295   3.622   4.097   3.410
 2428SOL    HW2 7296   3.555   4.029   3.542
 2429SOL     OW 7297   2.945   4.708   1.949
 2429SOL    HW1 7298   2.922   4.761   1.867
 2429SOL    HW2 7299   3.026   4.652   1.930
 2430SOL     OW 7300   3.686   3.916   3.089
 2430SOL    HW1 7301   3.682   3.826   3.133
 2430SOL    HW2 7302   3.689   3.905   2.990
 2431SOL     OW 7303   2.290   4.148   2.382
 2431SOL    HW1 7304   2.320   4.076   2.320
 2431SOL    HW2 7305   2.251   4.108   2.465
 2432SOL     OW 7306   2.179   4.271   3.142
 2432SOL    HW1 7307   2.217   4.212   3.214
 2432SOL    HW2 7308   2.219   4.245   3.054
 2433SOL     OW 7309   3.286   3.938   2.974
 2433SOL    HW1 7310   3.338   3.873   3.029
 2433SOL    HW2 7311   3.237   4.001   3.035
 2434SOL     OW 7312   2.863   3.758   3.016
 2434SOL    HW1 7313   2.800   3.686   2.985
 2434SOL    HW2 7314   2.956   3.722   3.016
 2435SOL     OW 7315   3.214   3.776   2.030
 2435SOL    HW1 7316   3.249   3.735   1.946
 2435SOL    HW2 7317   3.124   3.738   2.050
 2436SOL     OW 7318   3.162   4.177   2.553
 2436SOL    HW1 7319   3.103   4.257   2.557
 2436SOL    HW2 7320   3.177   4.142   2.646
 2437SOL     OW 7321   3.455   3.945   2.744
 2437SOL    HW1 7322   3.371   3.944   2.798
 2437SOL    HW2 7323   3.457   4.028   2.688
 2438SOL     OW 7324   2.092   4.352   3.837
 2438SOL    HW1 7325   1.999   4.350   3.874
 2438SOL    HW2 7326   2.093   4.313   3.745
 2439SOL     OW 7327   1.881   4.092   4.371
 2439SOL    HW1 7328   1.799   4.135   4.410
 2439SOL    HW2 7329   1.853   4.019   4.308
 2440SOL     OW 7330   3.617   4.331   3.955
 2440SOL    HW1 7331   3.605   4.318   3.856
 2440SOL    HW2 7332   3.587   4.250   4.004
 2441SOL     OW 7333   2.547   4.736   4.389
 2441SOL    HW1 7334   2.616   4.720   4.459
 2441SOL    HW2 7335   2.474   4.793   4.427
 2442SOL     OW 7336   3.465   4.171   4.461
 2442SOL    HW1 7337   3.391   4.217   4.411
 2442SOL    HW2 7338   3.516   4.239   4.514
 2443SOL     OW 7339   1.984   4.367   4.287
 2443SOL    HW1 7340   1.939   4.279   4.304
 2443SOL    HW2 7341   1.983   4.421   4.371
 2444SOL     OW 7342   2.671   3.728   4.226
 2444SOL    HW1 7343   2.711   3.819   4.217
 2444SOL    HW2 7344   2.571   3.736   4.232
 2445SOL     OW 7345   3.143   4.069   4.668
 2445SOL    HW1 7346   3.057   4.019   4.655
 2445SOL    HW2 7347   3.205   4.015   4.724
 2446SOL     OW 7348   2.903   4.425   4.153
 2446SOL    HW1 7349   2.929   4.421   4.249
 2446SOL    HW2 7350   2.818   4.374   4.139
 2447SOL     OW 7351   1.938   4.535   4.513
 2447SOL    HW1 7352   2.037   4.523   4.522
 2447SOL    HW2 7353   1.914   4.630   4.534
 2448SOL     OW 7354   2.727   4.072   3.919
 2448SOL    HW1 7355   2.786   4.135   3.870
 2448SOL    HW2 7356   2.746   3.978   3.890
 2449SOL     OW 7357   3.262   3.831   4.150
 2449SOL    HW1 7358   3.238   3.794   4.060
 2449SOL    HW2 7359   3.361   3.847   4.154
 2450SOL     OW 7360   2.244   4.424   4.204
 2450SOL    HW1 7361   2.289   4.334   4.201
 2450SOL    HW2 7362   2.150   4.413   4.237
 2451SOL     OW 7363   2.476   3.846   3.841
 2451SOL    HW1 7364   2.574   3.824   3.848
 2451SOL    HW2 7365   2.445   3.829   3.748
 2452SOL     OW 7366   2.401   3.788   4.236
 2452SOL    HW1 7367   2.320   3.789   4.294
 2452SOL    HW2 7368   2.404   3.871   4.181
 2453SOL     OW 7369   2.159   3.759   3.895
 2453SOL    HW1 7370   2.208   3.843   3.874
 2453SOL    HW2 7371   2.221   3.694   3.940
 2454SOL     OW 7372   2.797   3.960   4.204
 2454SOL    HW1 7373   2.749   4.001   4.126
 2454SOL    HW2 7374   2.896   3.958   4.185
 2455SOL     OW 7375   2.894   4.273   3.740
 2455SOL    HW1 7376   2.853   4.355   3.701
 2455SOL    HW2 7377   2.958   4.299   3.813
 2456SOL     OW 7378   2.728   4.178   4.366
 2456SOL    HW1 7379   2.696   4.250   4.304
 2456SOL    HW2 7380   2.752   4.097   4.313
 2457SOL     OW 7381   3.252   4.299   3.802
 2457SOL    HW1 7382   3.198   4.278   3.883
 2457SOL    HW2 7383   3.343   4.258   3.811
 2458SOL     OW 7384   2.389   3.980   4.052
 2458SOL    HW1 7385   2.416   3.921   3.977
 2458SOL    HW2 7386   2.389   4.075   4.021
 2459SOL     OW 7387   3.444   4.363   4.196
 2459SOL    HW1 7388   3.413   4.424   4.269
 2459SOL    HW2 7389   3.494   4.415   4.127
 2460SOL     OW 7390   3.071   4.249   3.999
 2460SOL    HW1 7391   3.084   4.165   4.053
 2460SOL    HW2 7392   3.042   4.323   4.059
 2461SOL     OW 7393   2.169   3.787   4.342
 2461SOL    HW1 7394   2.158   3.881   4.375
 2461SOL    HW2 7395   2.164   3.724   4.419
 2462SOL     OW 7396   3.484   4.091   4.098
 2462SOL    HW1 7397   3.486   4.015   4.162
 2462SOL    HW2 7398   3.436   4.168   4.138
 2463SOL     OW 7399   3.402   3.998   3.849
 2463SOL    HW1 7400   3.341   3.923   3.872
 2463SOL    HW2 7401   3.424   4.050   3.932
 2464SOL     OW 7402   2.677   4.296   4.049
 2464SOL    HW1 7403   2.684   4.207   4.003
 2464SOL    HW2 7404   2.583   4.330   4.041
 2465SOL     OW 7405   2.335   4.224   3.915
 2465SOL    HW1 7406   2.396   4.304   3.919
 2465SOL    HW2 7407   2.240   4.255   3.922
 2466SOL     OW 7408   3.588   3.859   4.247
 2466SOL    HW1 7409   3.661   3.842   4.180
 2466SOL    HW2 7410   3.557   3.772   4.285
 2467SOL     OW 7411   3.142   4.651   4.396
 2467SOL    HW1 7412   3.202   4.570   4.398
 2467SOL    HW2 7413   3.182   4.720   4.336
 2468SOL     OW 7414   2.778   4.634   4.015
 2468SOL    HW1 7415   2.841   4.672   3.947
 2468SOL    HW2 7416   2.818   4.551   4.054
 2469SOL     OW 7417   1.937   4.069   3.757
 2469SOL    HW1 7418   1.845   4.041   3.728
 2469SOL    HW2 7419   1.968   4.146   3.701
 2470SOL     OW 7420   1.934   3.890   4.042
 2470SOL    HW1 7421   1.917   3.973   3.988
 2470SOL    HW2 7422   2.024   3.853   4.020
 2471SOL     OW 7423   3.087   4.049   4.173
 2471SOL    HW1 7424   3.152   3.975   4.162
 2471SOL    HW2 7425   3.107   4.099   4.257
 2472SOL     OW 7426   2.945   4.708   3.811
 2472SOL    HW1 7427   2.922   4.761   3.729
 2472SOL    HW2 7428   3.026   4.652   3.792
 2473SOL     OW 7429   2.290   4.148   4.244
 2473SOL    HW1 7430   2.320   4.076   4.182
 2473SOL    HW2 7431   2.251   4.108   4.327
 2474SOL     OW 7432   3.214   3.776   3.892
 2474SOL    HW1 7433   3.249   3.735   3.808
 2474SOL    HW2 7434   3.124   3.738   3.912
 2475SOL     OW 7435   3.162   4.177   4.415
 2475SOL    HW1 7436   3.103   4.257   4.419
 2475SOL    HW2 7437   3.177   4.142   4.508
 2476SOL     OW 7438   3.954   0.628   0.113
 2476SOL    HW1 7439   3.861   0.626   0.150
 2476SOL    HW2 7440   3.955   0.589   0.021
 2477SOL     OW 7441   3.949   0.275   0.996
 2477SOL    HW1 7442   3.984   0.258   1.088
 2477SOL    HW2 7443   3.861   0.230   0.984
 2478SOL     OW 7444   3.743   0.368   0.647
 2478SOL    HW1 7445   3.661   0.411   0.686
 2478SOL    HW2 7446   3.715   0.295   0.584
 2479SOL     OW 7447   4.293   1.275   1.165
 2479SOL    HW1 7448   4.200   1.268   1.128
 2479SOL    HW2 7449   4.304   1.364   1.209
 2480SOL     OW 7450   4.574   0.798   1.823
 2480SOL    HW1 7451   4.570   0.874   1.888
 2480SOL    HW2 7452   4.596   0.834   1.732
 2481SOL     OW 7453   4.409   1.012   0.665
 2481SOL    HW1 7454   4.478   0.996   0.735
 2481SOL    HW2 7455   4.336   1.069   0.703
 2482SOL     OW 7456   4.410   1.161   1.803
 2482SOL    HW1 7457   4.470   1.240   1.817
 2482SOL    HW2 7458   4.324   1.192   1.762
 2483SOL     OW 7459   4.059   1.435   1.061
 2483SOL    HW1 7460   3.981   1.404   1.008
 2483SOL    HW2 7461   4.117   1.493   1.004
 2484SOL     OW 7462   4.162   0.392   1.499
 2484SOL    HW1 7463   4.244   0.336   1.508
 2484SOL    HW2 7464   4.081   0.334   1.503
 2485SOL     OW 7465   3.955   1.713   0.483
 2485SOL    HW1 7466   3.989   1.790   0.537
 2485SOL    HW2 7467   3.999   1.713   0.393
 2486SOL     OW 7468   3.954   1.434   0.538
 2486SOL    HW1 7469   3.928   1.530   0.538
 2486SOL    HW2 7470   3.883   1.380   0.583
 2487SOL     OW 7471   3.964   1.091   0.886
 2487SOL    HW1 7472   3.978   1.007   0.938
 2487SOL    HW2 7473   3.909   1.155   0.941
 2488SOL     OW 7474   4.344   1.786   1.439
 2488SOL    HW1 7475   4.252   1.769   1.474
 2488SOL    HW2 7476   4.372   1.878   1.465
 2489SOL     OW 7477   4.330   0.964   0.123
 2489SOL    HW1 7478   4.337   1.048   0.069
 2489SOL    HW2 7479   4.376   0.977   0.211
 2490SOL     OW 7480   3.846   0.643   0.563
 2490SOL    HW1 7481   3.801   0.555   0.580
 2490SOL    HW2 7482   3.845   0.697   0.647
 2491SOL     OW 7483   3.751   1.596   0.117
 2491SOL    HW1 7484   3.732   1.500   0.138
 2491SOL    HW2 7485   3.718   1.654   0.192
 2492SOL     OW 7486   3.837   0.737   1.597
 2492SOL    HW1 7487   3.925   0.724   1.642
 2492SOL    HW2 7488   3.824   0.834   1.575
 2493SOL     OW 7489   4.337   1.365   0.726
 2493SOL    HW1 7490   4.288   1.278   0.735
 2493SOL    HW2 7491   4.314   1.408   0.639
 2494SOL     OW 7492   4.533   0.004   0.502
 2494SOL    HW1 7493   4.573   0.095   0.493
 2494SOL    HW2 7494   4.433   0.012   0.508
 2495SOL     OW 7495   3.921   0.976   1.264
 2495SOL    HW1 7496   4.010   0.931   1.250
 2495SOL    HW2 7497   3.848   0.911   1.245
 2496SOL     OW 7498   4.041   0.251   1.801
 2496SOL    HW1 7499   4.112   0.322   1.807
 2496SOL    HW2 7500   3.953   0.290   1.829
 2497SOL     OW 7501   4.322   0.729   0.270
 2497SOL    HW1 7502   4.346   0.798   0.202
 2497SOL    HW2 7503   4.244   0.762   0.324
 2498SOL     OW 7504   3.800   0.811   0.789
 2498SOL    HW1 7505   3.899   0.799   0.798
 2498SOL    HW2 7506   3.776   0.906   0.810
 2499SOL     OW 7507   3.854   1.821   1.571
 2499SOL    HW1 7508   3.844   1.806   1.670
 2499SOL    HW2 7509   3.768   1.857   1.535
 2500SOL     OW 7510   4.274   0.196   0.885
 2500SOL    HW1 7511   4.269   0.191   0.985
 2500SOL    HW2 7512   4.276   0.292   0.856
 2501SOL     OW 7513   4.075   1.801   0.853
 2501SOL    HW1 7514   4.125   1.715   0.859
 2501SOL    HW2 7515   4.140   1.878   0.850
 2502SOL     OW 7516   4.045   0.943   0.242
 2502SOL    HW1 7517   4.127   0.982   0.200
 2502SOL    HW2 7518   4.018   0.861   0.193
 2503SOL     OW 7519   4.185   1.266   1.727
 2503SOL    HW1 7520   4.135   1.267   1.641
 2503SOL    HW2 7521   4.122   1.248   1.803
 2504SOL     OW 7522   3.926   0.285   1.498
 2504SOL    HW1 7523   3.846   0.345   1.485
 2504SOL    HW2 7524   3.916   0.236   1.584
 2505SOL     OW 7525   4.188   1.743   0.323
 2505SOL    HW1 7526   4.221   1.782   0.409
 2505SOL    HW2 7527   4.264   1.736   0.258
 2506SOL     OW 7528   3.973   1.785   1.241
 2506SOL    HW1 7529   4.030   1.720   1.291
 2506SOL    HW2 7530   3.957   1.752   1.148
 2507SOL     OW 7531   4.106   0.700   0.480
 2507SOL    HW1 7532   4.151   0.610   0.477
 2507SOL    HW2 7533   4.012   0.689   0.513
 2508SOL     OW 7534   4.338   0.122   0.117
 2508SOL    HW1 7535   4.436   0.100   0.124
 2508SOL    HW2 7536   4.307   0.105   0.024
 2509SOL     OW 7537   4.527   1.402   0.924
 2509SOL    HW1 7538   4.617   1.416   0.882
 2509SOL    HW2 7539   4.456   1.404   0.853
 2510SOL     OW 7540   4.263   0.064   0.512
 2510SOL    HW1 7541   4.182   0.065   0.570
 2510SOL    HW2 7542   4.266   0.147   0.457
 2511SOL     OW 7543   4.021   0.035   0.171
 2511SOL    HW1 7544   4.070   0.119   0.150
 2511SOL    HW2 7545   4.083  -0.030   0.216
 2512SOL     OW 7546   4.183   1.152   0.741
 2512SOL    HW1 7547   4.112   1.125   0.806
 2512SOL    HW2 7548   4.157   1.124   0.648
 2513SOL     OW 7549   3.802   0.556   1.386
 2513SOL    HW1 7550   3.894   0.555   1.345
 2513SOL    HW2 7551   3.796   0.630   1.453
 2514SOL     OW 7552   4.285   0.222   1.147
 2514SOL    HW1 7553   4.323   0.138   1.184
 2514SOL    HW2 7554   4.197   0.241   1.191
 2515SOL     OW 7555   4.212   1.385   0.174
 2515SOL    HW1 7556   4.125   1.370   0.221
 2515SOL    HW2 7557   4.195   1.411   0.079
 2516SOL     OW 7558   4.251   0.256   0.328
 2516SOL    HW1 7559   4.278   0.197   0.253
 2516SOL    HW2 7560   4.251   0.351   0.297
 2517SOL     OW 7561   4.134   0.813   1.251
 2517SOL    HW1 7562   4.220   0.825   1.301
 2517SOL    HW2 7563   4.092   0.726   1.278
 2518SOL     OW 7564   3.788   1.564   1.331
 2518SOL    HW1 7565   3.742   1.646   1.297
 2518SOL    HW2 7566   3.886   1.583   1.340
 2519SOL     OW 7567   4.091   1.100   0.501
 2519SOL    HW1 7568   4.084   1.183   0.445
 2519SOL    HW2 7569   4.095   1.020   0.441
 2520SOL     OW 7570   4.290   0.537   0.865
 2520SOL    HW1 7571   4.302   0.603   0.791
 2520SOL    HW2 7572   4.336   0.571   0.948
 2521SOL     OW 7573   4.078   1.510   1.329
 2521SOL    HW1 7574   4.057   1.466   1.242
 2521SOL    HW2 7575   4.175   1.536   1.332
 2522SOL     OW 7576   4.126   0.751   1.598
 2522SOL    HW1 7577   4.194   0.806   1.551
 2522SOL    HW2 7578   4.166   0.663   1.625
 2523SOL     OW 7579   4.228   0.050   1.740
 2523SOL    HW1 7580   4.186  -0.007   1.670
 2523SOL    HW2 7581   4.162   0.119   1.772
 2524SOL     OW 7582   4.297   0.870   1.029
 2524SOL    HW1 7583   4.341   0.959   1.020
 2524SOL    HW2 7584   4.234   0.870   1.106
 2525SOL     OW 7585   4.031   0.213   1.231
 2525SOL    HW1 7586   4.008   0.250   1.321
 2525SOL    HW2 7587   4.001   0.118   1.225
 2526SOL     OW 7588   3.761   1.310   1.282
 2526SOL    HW1 7589   3.814   1.261   1.350
 2526SOL    HW2 7590   3.783   1.408   1.287
 2527SOL     OW 7591   4.031   0.063   0.618
 2527SOL    HW1 7592   4.020   0.157   0.651
 2527SOL    HW2 7593   4.026   0.000   0.695
 2528SOL     OW 7594   4.074   0.898   1.804
 2528SOL    HW1 7595   4.150   0.942   1.852
 2528SOL    HW2 7596   4.109   0.851   1.722
 2529SOL     OW 7597   4.043   0.810   0.949
 2529SOL    HW1 7598   4.136   0.846   0.954
 2529SOL    HW2 7599   4.037   0.725   1.001
 2530SOL     OW 7600   4.063   0.509   1.006
 2530SOL    HW1 7601   4.011   0.426   0.989
 2530SOL    HW2 7602   4.140   0.514   0.942
 2531SOL     OW 7603   3.732   1.326   0.200
 2531SOL    HW1 7604   3.639   1.347   0.169
 2531SOL    HW2 7605   3.742   1.227   0.213
 2532SOL     OW 7606   3.812   1.801   0.927
 2532SOL    HW1 7607   3.770   1.715   0.900
 2532SOL    HW2 7608   3.906   1.804   0.893
 2533SOL     OW 7609   4.228   1.568   0.910
 2533SOL    HW1 7610   4.294   1.642   0.919
 2533SOL    HW2 7611   4.272   1.489   0.868
 2534SOL     OW 7612   3.764   0.544   1.114
 2534SOL    HW1 7613   3.849   0.511   1.073
 2534SOL    HW2 7614   3.777   0.559   1.212
 2535SOL     OW 7615   3.913   0.520   1.722
 2535SOL    HW1 7616   3.972   0.480   1.652
 2535SOL    HW2 7617   3.855   0.591   1.681
 2536SOL     OW 7618   4.539   0.572   0.325
 2536SOL    HW1 7619   4.546   0.483   0.279
 2536SOL    HW2 7620   4.445   0.606   0.317
 2537SOL     OW 7621   3.976   1.564   1.744
 2537SOL    HW1 7622   3.946   1.621   1.820
 2537SOL    HW2 7623   3.969   1.467   1.770
 2538SOL     OW 7624   4.395   0.464   1.269
 2538SOL    HW1 7625   4.361   0.375   1.239
 2538SOL    HW2 7626   4.421   0.518   1.189
 2539SOL     OW 7627   4.197   0.500   0.191
 2539SOL    HW1 7628   4.258   0.580   0.195
 2539SOL    HW2 7629   4.102   0.531   0.198
 2540SOL     OW 7630   3.883   1.137   1.466
 2540SOL    HW1 7631   3.905   1.076   1.542
 2540SOL    HW2 7632   3.893   1.088   1.380
 2541SOL     OW 7633   3.807   1.258   1.022
 2541SOL    HW1 7634   3.802   1.257   1.122
 2541SOL    HW2 7635   3.724   1.217   0.984
 2542SOL     OW 7636   4.412   1.662   1.716
 2542SOL    HW1 7637   4.356   1.743   1.725
 2542SOL    HW2 7638   4.464   1.666   1.630
 2543SOL     OW 7639   3.854   1.794   1.851
 2543SOL    HW1 7640   3.813   1.720   1.904
 2543SOL    HW2 7641   3.918   1.845   1.909
 2544SOL     OW 7642   3.987   0.326   0.720
 2544SOL    HW1 7643   3.908   0.377   0.686
 2544SOL    HW2 7644   3.978   0.311   0.818
 2545SOL     OW 7645   4.096   1.288   1.490
 2545SOL    HW1 7646   4.083   1.381   1.456
 2545SOL    HW2 7647   4.012   1.236   1.477
 2546SOL     OW 7648   4.763   1.098   0.696
 2546SOL    HW1 7649   4.693   1.051   0.750
 2546SOL    HW2 7650   4.822   1.030   0.653
 2547SOL     OW 7651   4.314   1.487   0.491
 2547SOL    HW1 7652   4.356   1.429   0.421
 2547SOL    HW2 7653   4.270   1.566   0.447
 2548SOL     OW 7654   3.979   1.348   0.290
 2548SOL    HW1 7655   3.883   1.349   0.263
 2548SOL    HW2 7656   3.991   1.401   0.374
 2549SOL     OW 7657   3.829   1.013   1.726
 2549SOL    HW1 7658   3.752   0.980   1.780
 2549SOL    HW2 7659   3.914   0.983   1.768
 2550SOL     OW 7660   4.396   0.203   1.489
 2550SOL    HW1 7661   4.486   0.187   1.449
 2550SOL    HW2 7662   4.404   0.208   1.588
 2551SOL     OW 7663   3.799   0.345   0.033
 2551SOL    HW1 7664   3.707   0.317   0.004
 2551SOL    HW2 7665   3.830   0.422  -0.023
 2552SOL     OW 7666   3.796   0.166   0.318
 2552SOL    HW1 7667   3.779   0.249   0.264
 2552SOL    HW2 7668   3.886   0.129   0.296
 2553SOL     OW 7669   4.337   0.842   1.431
 2553SOL    HW1 7670   4.393   0.923   1.414
 2553SOL    HW2 7671   4.396   0.762   1.434
 2554SOL     OW 7672   4.440   0.565   1.708
 2554SOL    HW1 7673   4.459   0.630   1.782
 2554SOL    HW2 7674   4.500   0.485   1.717
 2555SOL     OW 7675   4.114   1.741   1.560
 2555SOL    HW1 7676   4.023   1.782   1.558
 2555SOL    HW2 7677   4.107   1.647   1.592
 2556SOL     OW 7678   4.318   0.745   0.652
 2556SOL    HW1 7679   4.368   0.830   0.633
 2556SOL    HW2 7680   4.230   0.747   0.604
 2557SOL     OW 7681   3.945   1.314   1.844
 2557SOL    HW1 7682   3.880   1.241   1.823
 2557SOL    HW2 7683   3.949   1.328   1.942
 2558SOL     OW 7684   3.803   1.240   0.653
 2558SOL    HW1 7685   3.802   1.193   0.741
 2558SOL    HW2 7686   3.885   1.212   0.602
 2559SOL     OW 7687   4.396   1.391   1.624
 2559SOL    HW1 7688   4.318   1.341   1.662
 2559SOL    HW2 7689   4.393   1.486   1.655
 2560SOL     OW 7690   4.152   0.424   0.520
 2560SOL    HW1 7691   4.182   0.352   0.458
 2560SOL    HW2 7692   4.113   0.384   0.603
 2561SOL     OW 7693   4.041   0.547   1.280
 2561SOL    HW1 7694   4.079   0.488   1.352
 2561SOL    HW2 7695   4.081   0.521   1.192
 2562SOL     OW 7696   4.536   1.586   0.687
 2562SOL    HW1 7697   4.568   1.596   0.593
 2562SOL    HW2 7698   4.457   1.524   0.689
 2563SOL     OW 7699   4.342   1.567   1.284
 2563SOL    HW1 7700   4.337   1.649   1.341
 2563SOL    HW2 7701   4.431   1.564   1.239
 2564SOL     OW 7702   3.763   1.077   0.300
 2564SOL    HW1 7703   3.862   1.066   0.291
 2564SOL    HW2 7704   3.723   0.991   0.332
 2565SOL     OW 7705   3.954   0.628   1.975
 2565SOL    HW1 7706   3.861   0.626   2.012
 2565SOL    HW2 7707   3.955   0.589   1.883
 2566SOL     OW 7708   3.949   0.275   2.858
 2566SOL    HW1 7709   3.984   0.258   2.950
 2566SOL    HW2 7710   3.861   0.230   2.846
 2567SOL     OW 7711   3.743   0.368   2.509
 2567SOL    HW1 7712   3.661   0.411   2.548
 2567SOL    HW2 7713   3.715   0.295   2.446
 2568SOL     OW 7714   4.293   1.275   3.027
 2568SOL    HW1 7715   4.200   1.268   2.990
 2568SOL    HW2 7716   4.304   1.364   3.071
 2569SOL     OW 7717   4.574   0.798   3.685
 2569SOL    HW1 7718   4.570   0.874   3.750
 2569SOL    HW2 7719   4.596   0.834   3.594
 2570SOL     OW 7720   4.409   1.012   2.527
 2570SOL    HW1 7721   4.478   0.996   2.597
 2570SOL    HW2 7722   4.336   1.069   2.565
 2571SOL     OW 7723   4.410   1.161   3.665
 2571SOL    HW1 7724   4.470   1.240   3.679
 2571SOL    HW2 7725   4.324   1.192   3.624
 2572SOL     OW 7726   4.059   1.435   2.923
 2572SOL    HW1 7727   3.981   1.404   2.870
 2572SOL    HW2 7728   4.117   1.493   2.866
 2573SOL     OW 7729   4.162   0.392   3.361
 2573SOL    HW1 7730   4.244   0.336   3.370
 2573SOL    HW2 7731   4.081   0.334   3.365
 2574SOL     OW 7732   3.955   1.713   2.345
 2574SOL    HW1 7733   3.989   1.790   2.399
 2574SOL    HW2 7734   3.999   1.713   2.255
 2575SOL     OW 7735   3.954   1.434   2.400
 2575SOL    HW1 7736   3.928   1.530   2.400
 2575SOL    HW2 7737   3.883   1.380   2.445
 2576SOL     OW 7738   3.964   1.091   2.748
 2576SOL    HW1 7739   3.978   1.007   2.800
 2576SOL    HW2 7740   3.909   1.155   2.803
 2577SOL     OW 7741   4.344   1.786   3.301
 2577SOL    HW1 7742   4.252   1.769   3.336
 2577SOL    HW2 7743   4.372   1.878   3.327
 2578SOL     OW 7744   4.330   0.964   1.985
 2578SOL    HW1 7745   4.337   1.048   1.931
 2578SOL    HW2 7746   4.376   0.977   2.073
 2579SOL     OW 7747   3.846   0.643   2.425
 2579SOL    HW1 7748   3.801   0.555   2.442
 2579SOL    HW2 7749   3.845   0.697   2.509
 2580SOL     OW 7750   3.751   1.596   1.979
 2580SOL    HW1 7751   3.732   1.500   2.000
 2580SOL    HW2 7752   3.718   1.654   2.054
 2581SOL     OW 7753   3.837   0.737   3.459
 2581SOL    HW1 7754   3.925   0.724   3.504
 2581SOL    HW2 7755   3.824   0.834   3.437
 2582SOL     OW 7756   4.337   1.365   2.588
 2582SOL    HW1 7757   4.288   1.278   2.597
 2582SOL    HW2 7758   4.314   1.408   2.501
 2583SOL     OW 7759   4.533   0.004   2.364
 2583SOL    HW1 7760   4.573   0.095   2.355
 2583SOL    HW2 7761   4.433   0.012   2.370
 2584SOL     OW 7762   3.921   0.976   3.126
 2584SOL    HW1 7763   4.010   0.931   3.112
 2584SOL    HW2 7764   3.848   0.911   3.107
 2585SOL     OW 7765   4.041   0.251   3.663
 2585SOL    HW1 7766   4.112   0.322   3.669
 2585SOL    HW2 7767   3.953   0.290   3.691
 2586SOL     OW 7768   4.322   0.729   2.132
 2586SOL    HW1 7769   4.346   0.798   2.064
 2586SOL    HW2 7770   4.244   0.762   2.186
 2587SOL     OW 7771   3.800   0.811   2.651
 2587SOL    HW1 7772   3.899   0.799   2.660
 2587SOL    HW2 7773   3.776   0.906   2.672
 2588SOL     OW 7774   3.854   1.821   3.433
 2588SOL    HW1 7775   3.844   1.806   3.532
 2588SOL    HW2 7776   3.768   1.857   3.397
 2589SOL     OW 7777   4.274   0.196   2.747
 2589SOL    HW1 7778   4.269   0.191   2.847
 2589SOL    HW2 7779   4.276   0.292   2.718
 2590SOL     OW 7780   4.075   1.801   2.715
 2590SOL    HW1 7781   4.125   1.715   2.721
 2590SOL    HW2 7782   4.140   1.878   2.712
 2591SOL     OW 7783   4.045   0.943   2.104
 2591SOL    HW1 7784   4.127   0.982   2.062
 2591SOL    HW2 7785   4.018   0.861   2.055
 2592SOL     OW 7786   4.185   1.266   3.589
 2592SOL    HW1 7787   4.135   1.267   3.503
 2592SOL    HW2 7788   4.122   1.248   3.665
 2593SOL     OW 7789   3.926   0.285   3.360
 2593SOL    HW1 7790   3.846   0.345   3.347
 2593SOL    HW2 7791   3.916   0.236   3.446
 2594SOL     OW 7792   4.188   1.743   2.185
 2594SOL    HW1 7793   4.221   1.782   2.271
 2594SOL    HW2 7794   4.264   1.736   2.120
 2595SOL     OW 7795   3.973   1.785   3.103
 2595SOL    HW1 7796   4.030   1.720   3.153
 2595SOL    HW2 7797   3.957   1.752   3.010
 2596SOL     OW 7798   4.106   0.700   2.342
 2596SOL    HW1 7799   4.151   0.610   2.339
 2596SOL    HW2 7800   4.012   0.689   2.375
 2597SOL     OW 7801   4.338   0.122   1.979
 2597SOL    HW1 7802   4.436   0.100   1.986
 2597SOL    HW2 7803   4.307   0.105   1.886
 2598SOL     OW 7804   4.527   1.402   2.786
 2598SOL    HW1 7805   4.617   1.416   2.744
 2598SOL    HW2 7806   4.456   1.404   2.715
 2599SOL     OW 7807   4.263   0.064   2.374
 2599SOL    HW1 7808   4.182   0.065   2.432
 2599SOL    HW2 7809   4.266   0.147   2.319
 2600SOL     OW 7810   4.021   0.035   2.033
 2600SOL    HW1 7811   4.070   0.119   2.012
 2600SOL    HW2 7812   4.083  -0.030   2.078
 2601SOL     OW 7813   4.183   1.152   2.603
 2601SOL    HW1 7814   4.112   1.125   2.668
 2601SOL    HW2 7815   4.157   1.124   2.510
 2602SOL     OW 7816   3.802   0.556   3.248
 2602SOL    HW1 7817   3.894   0.555   3.207
 2602SOL    HW2 7818   3.796   0.630   3.315
 2603SOL     OW 7819   4.285   0.222   3.009
 2603SOL    HW1 7820   4.323   0.138   3.046
 2603SOL    HW2 7821   4.197   0.241   3.053
 2604SOL     OW 7822   4.212   1.385   2.036
 2604SOL    HW1 7823   4.125   1.370   2.083
 2604SOL    HW2 7824   4.195   1.411   1.941
 2605SOL     OW 7825   4.251   0.256   2.190
 2605SOL    HW1 7826   4.278   0.197   2.115
 2605SOL    HW2 7827   4.251   0.351   2.159
 2606SOL     OW 7828   4.134   0.813   3.113
 2606SOL    HW1 7829   4.220   0.825   3.163
 2606SOL    HW2 7830   4.092   0.726   3.140
 2607SOL     OW 7831   3.788   1.564   3.193
 2607SOL    HW1 7832   3.742   1.646   3.159
 2607SOL    HW2 7833   3.886   1.583   3.202
 2608SOL     OW 7834   4.091   1.100   2.363
 2608SOL    HW1 7835   4.084   1.183   2.307
 2608SOL    HW2 7836   4.095   1.020   2.303
 2609SOL     OW 7837   4.290   0.537   2.727
 2609SOL    HW1 7838   4.302   0.603   2.653
 2609SOL    HW2 7839   4.336   0.571   2.810
 2610SOL     OW 7840   4.078   1.510   3.191
 2610SOL    HW1 7841   4.057   1.466   3.104
 2610SOL    HW2 7842   4.175   1.536   3.194
 2611SOL     OW 7843   4.126   0.751   3.460
 2611SOL    HW1 7844   4.194   0.806   3.413
 2611SOL    HW2 7845   4.166   0.663   3.487
 2612SOL     OW 7846   4.228   0.050   3.602
 2612SOL    HW1 7847   4.186  -0.007   3.532
 2612SOL    HW2 7848   4.162   0.119   3.634
 2613SOL     OW 7849   4.297   0.870   2.891
 2613SOL    HW1 7850   4.341   0.959   2.882
 2613SOL    HW2 7851   4.234   0.870   2.968
 2614SOL     OW 7852   4.031   0.213   3.093
 2614SOL    HW1 7853   4.008   0.250   3.183
 2614SOL    HW2 7854   4.001   0.118   3.087
 2615SOL     OW 7855   3.761   1.310   3.144
 2615SOL    HW1 7856   3.814   1.261   3.212
 2615SOL    HW2 7857   3.783   1.408   3.149
 2616SOL     OW 7858   4.031   0.063   2.480
 2616SOL    HW1 7859   4.020   0.157   2.513
 2616SOL    HW2 7860   4.026   0.000   2.557
 2617SOL     OW 7861   4.074   0.898   3.666
 2617SOL    HW1 7862   4.150   0.942   3.714
 2617SOL    HW2 7863   4.109   0.851   3.584
 2618SOL     OW 7864   4.043   0.810   2.811
 2618SOL    HW1 7865   4.136   0.846   2.816
 2618SOL    HW2 7866   4.037   0.725   2.863
 2619SOL     OW 7867   4.063   0.509   2.868
 2619SOL    HW1 7868   4.011   0.426   2.851
 2619SOL    HW2 7869   4.140   0.514   2.804
 2620SOL     OW 7870   3.732   1.326   2.062
 2620SOL    HW1 7871   3.639   1.347   2.031
 2620SOL    HW2 7872   3.742   1.227   2.075
 2621SOL     OW 7873   3.812   1.801   2.789
 2621SOL    HW1 7874   3.770   1.715   2.762
 2621SOL    HW2 7875   3.906   1.804   2.755
 2622SOL     OW 7876   4.228   1.568   2.772
 2622SOL    HW1 7877   4.294   1.642   2.781
 2622SOL    HW2 7878   4.272   1.489   2.730
 2623SOL     OW 7879   3.764   0.544   2.976
 2623SOL    HW1 7880   3.849   0.511   2.935
 2623SOL    HW2 7881   3.777   0.559   3.074
 2624SOL     OW 7882   3.913   0.520   3.584
 2624SOL    HW1 7883   3.972   0.480   3.514
 2624SOL    HW2 7884   3.855   0.591   3.543
 2625SOL     OW 7885   4.539   0.572   2.187
 2625SOL    HW1 7886   4.546   0.483   2.141
 2625SOL    HW2 7887   4.445   0.606   2.179
 2626SOL     OW 7888   3.976   1.564   3.606
 2626SOL    HW1 7889   3.946   1.621   3.682
 2626SOL    HW2 7890   3.969   1.467   3.632
 2627SOL     OW 7891   4.395   0.464   3.131
 2627SOL    HW1 7892   4.361   0.375   3.101
 2627SOL    HW2 7893   4.421   0.518   3.051
 2628SOL     OW 7894   4.197   0.500   2.053
 2628SOL    HW1 7895   4.258   0.580   2.057
 2628SOL    HW2 7896   4.102   0.531   2.060
 2629SOL     OW 7897   3.883   1.137   3.328
 2629SOL    HW1 7898   3.905   1.076   3.404
 2629SOL    HW2 7899   3.893   1.088   3.242
 2630SOL     OW 7900   3.807   1.258   2.884
 2630SOL    HW1 7901   3.802   1.257   2.984
 2630SOL    HW2 7902   3.724   1.217   2.846
 2631SOL     OW 7903   4.412   1.662   3.578
 2631SOL    HW1 7904   4.356   1.743   3.587
 2631SOL    HW2 7905   4.464   1.666   3.492
 2632SOL     OW 7906   3.854   1.794   3.713
 2632SOL    HW1 7907   3.813   1.720   3.766
 2632SOL    HW2 7908   3.918   1.845   3.771
 2633SOL     OW 7909   3.987   0.326   2.582
 2633SOL    HW1 7910   3.908   0.377   2.548
 2633SOL    HW2 7911   3.978   0.311   2.680
 2634SOL     OW 7912   4.096   1.288   3.352
 2634SOL    HW1 7913   4.083   1.381   3.318
 2634SOL    HW2 7914   4.012   1.236   3.339
 2635SOL     OW 7915   4.763   1.098   2.558
 2635SOL    HW1 7916   4.693   1.051   2.612
 2635SOL    HW2 7917   4.822   1.030   2.515
 2636SOL     OW 7918   4.314   1.487   2.353
 2636SOL    HW1 7919   4.356   1.429   2.283
 2636SOL    HW2 7920   4.270   1.566   2.309
 2637SOL     OW 7921   3.979   1.348   2.152
 2637SOL    HW1 7922   3.883   1.349   2.125
 2637SOL    HW2 7923   3.991   1.401   2.236
 2638SOL     OW 7924   3.829   1.013   3.588
 2638SOL    HW1 7925   3.752   0.980   3.642
 2638SOL    HW2 7926   3.914   0.983   3.630
 2639SOL     OW 7927   4.396   0.203   3.351
 2639SOL    HW1 7928   4.486   0.187   3.311
 2639SOL    HW2 7929   4.404   0.208   3.450
 2640SOL     OW 7930   3.799   0.345   1.895
 2640SOL    HW1 7931   3.707   0.317   1.866
 2640SOL    HW2 7932   3.830   0.422   1.839
 2641SOL     OW 7933   3.796   0.166   2.180
 2641SOL    HW1 7934   3.779   0.249   2.126
 2641SOL    HW2 7935   3.886   0.129   2.158
 2642SOL     OW 7936   4.337   0.842   3.293
 2642SOL    HW1 7937   4.393   0.923   3.276
 2642SOL    HW2 7938   4.396   0.762   3.296
 2643SOL     OW 7939   4.440   0.565   3.570
 2643SOL    HW1 7940   4.459   0.630   3.644
 2643SOL    HW2 7941   4.500   0.485   3.579
 2644SOL     OW 7942   4.114   1.741   3.422
 2644SOL    HW1 7943   4.023   1.782   3.420
 2644SOL    HW2 7944   4.107   1.647   3.454
 2645SOL     OW 7945   4.318   0.745   2.514
 2645SOL    HW1 7946   4.368   0.830   2.495
 2645SOL    HW2 7947   4.230   0.747   2.466
 2646SOL     OW 7948   3.945   1.314   3.706
 2646SOL    HW1 7949   3.880   1.241   3.685
 2646SOL    HW2 7950   3.949   1.328   3.804
 2647SOL     OW 7951   3.803   1.240   2.515
 2647SOL    HW1 7952   3.802   1.193   2.603
 2647SOL    HW2 7953   3.885   1.212   2.464
 2648SOL     OW 7954   4.396   1.391   3.486
 2648SOL    HW1 7955   4.318   1.341   3.524
 2648SOL    HW2 7956   4.393   1.486   3.517
 2649SOL     OW 7957   4.152   0.424   2.382
 2649SOL    HW1 7958   4.182   0.352   2.320
 2649SOL    HW2 7959   4.113   0.384   2.465
 2650SOL     OW 7960   4.041   0.547   3.142
 2650SOL    HW1 7961   4.079   0.488   3.214
 2650SOL    HW2 7962   4.081   0.521   3.054
 2651SOL     OW 7963   4.536   1.586   2.549
 2651SOL    HW1 7964   4.568   1.596   2.455
 2651SOL    HW2 7965   4.457   1.524   2.551
 2652SOL     OW 7966   4.342   1.567   3.146
 2652SOL    HW1 7967   4.337   1.649   3.203
 2652SOL    HW2 7968   4.431   1.564   3.101
 2653SOL     OW 7969   3.763   1.077   2.162
 2653SOL    HW1 7970   3.862   1.066   2.153
 2653SOL    HW2 7971   3.723   0.991   2.194
 2654SOL     OW 7972   3.954   0.628   3.837
 2654SOL    HW1 7973   3.861   0.626   3.874
 2654SOL    HW2 7974   3.955   0.589   3.745
 2655SOL     OW 7975   3.743   0.368   4.371
 2655SOL    HW1 7976   3.661   0.411   4.410
 2655SOL    HW2 7977   3.715   0.295   4.308
 2656SOL     OW 7978   4.409   1.012   4.389
 2656SOL    HW1 7979   4.478   0.996   4.459
 2656SOL    HW2 7980   4.336   1.069   4.427
 2657SOL     OW 7981   3.955   1.713   4.207
 2657SOL    HW1 7982   3.989   1.790   4.261
 2657SOL    HW2 7983   3.999   1.713   4.117
 2658SOL     OW 7984   3.954   1.434   4.262
 2658SOL    HW1 7985   3.928   1.530   4.262
 2658SOL    HW2 7986   3.883   1.380   4.307
 2659SOL     OW 7987   4.330   0.964   3.847
 2659SOL    HW1 7988   4.337   1.048   3.793
 2659SOL    HW2 7989   4.376   0.977   3.935
 2660SOL     OW 7990   3.846   0.643   4.287
 2660SOL    HW1 7991   3.801   0.555   4.304
 2660SOL    HW2 7992   3.845   0.697   4.371
 2661SOL     OW 7993   3.751   1.596   3.841
 2661SOL    HW1 7994   3.732   1.500   3.862
 2661SOL    HW2 7995   3.718   1.654   3.916
 2662SOL     OW 7996   4.337   1.365   4.450
 2662SOL    HW1 7997   4.288   1.278   4.459
 2662SOL    HW2 7998   4.314   1.408   4.363
 2663SOL     OW 7999   4.533   0.004   4.226
 2663SOL    HW1 8000   4.573   0.095   4.217
 2663SOL    HW2 8001   4.433   0.012   4.232
 2664SOL     OW 8002   4.322   0.729   3.994
 2664SOL    HW1 8003   4.346   0.798   3.926
 2664SOL    HW2 8004   4.244   0.762   4.048
 2665SOL     OW 8005   3.800   0.811   4.513
 2665SOL    HW1 8006   3.899   0.799   4.522
 2665SOL    HW2 8007   3.776   0.906   4.534
 2666SOL     OW 8008   4.075   1.801   4.577
 2666SOL    HW1 8009   4.125   1.715   4.583
 2666SOL    HW2 8010   4.140   1.878   4.574
 2667SOL     OW 8011   4.045   0.943   3.966
 2667SOL    HW1 8012   4.127   0.982   3.924
 2667SOL    HW2 8013   4.018   0.861   3.917
 2668SOL     OW 8014   4.188   1.743   4.047
 2668SOL    HW1 8015   4.221   1.782   4.133
 2668SOL    HW2 8016   4.264   1.736   3.982
 2669SOL     OW 8017   4.106   0.700   4.204
 2669SOL    HW1 8018   4.151   0.610   4.201
 2669SOL    HW2 8019   4.012   0.689   4.237
 2670SOL     OW 8020   4.338   0.122   3.841
 2670SOL    HW1 8021   4.436   0.100   3.848
 2670SOL    HW2 8022   4.307   0.105   3.748
 2671SOL     OW 8023   4.263   0.064   4.236
 2671SOL    HW1 8024   4.182   0.065   4.294
 2671SOL    HW2 8025   4.266   0.147   4.181
 2672SOL     OW 8026   4.021   0.035   3.895
 2672SOL    HW1 8027   4.070   0.119   3.874
 2672SOL    HW2 8028   4.083  -0.030   3.940
 2673SOL     OW 8029   4.183   1.152   4.465
 2673SOL    HW1 8030   4.112   1.125   4.530
 2673SOL    HW2 8031   4.157   1.124   4.372
 2674SOL     OW 8032   4.212   1.385   3.898
 2674SOL    HW1 8033   4.125   1.370   3.945
 2674SOL    HW2 8034   4.195   1.411   3.803
 2675SOL     OW 8035   4.251   0.256   4.052
 2675SOL    HW1 8036   4.278   0.197   3.977
 2675SOL    HW2 8037   4.251   0.351   4.021
 2676SOL     OW 8038   4.091   1.100   4.225
 2676SOL    HW1 8039   4.084   1.183   4.169
 2676SOL    HW2 8040   4.095   1.020   4.165
 2677SOL     OW 8041   4.031   0.063   4.342
 2677SOL    HW1 8042   4.020   0.157   4.375
 2677SOL    HW2 8043   4.026   0.000   4.419
 2678SOL     OW 8044   3.732   1.326   3.924
 2678SOL    HW1 8045   3.639   1.347   3.893
 2678SOL    HW2 8046   3.742   1.227   3.937
 2679SOL     OW 8047   4.539   0.572   4.049
 2679SOL    HW1 8048   4.546   0.483   4.003
 2679SOL    HW2 8049   4.445   0.606   4.041
 2680SOL     OW 8050   4.197   0.500   3.915
 2680SOL    HW1 8051   4.258   0.580   3.919
 2680SOL    HW2 8052   4.102   0.531   3.922
 2681SOL     OW 8053   4.763   1.098   4.420
 2681SOL    HW1 8054   4.693   1.051   4.474
 2681SOL    HW2 8055   4.822   1.030   4.377
 2682SOL     OW 8056   4.314   1.487   4.215
 2682SOL    HW1 8057   4.356   1.429   4.145
 2682SOL    HW2 8058   4.270   1.566   4.171
 2683SOL     OW 8059   3.979   1.348   4.014
 2683SOL    HW1 8060   3.883   1.349   3.987
 2683SOL    HW2 8061   3.991   1.401   4.098
 2684SOL     OW 8062   3.799   0.345   3.757
 2684SOL    HW1 8063   3.707   0.317   3.728
 2684SOL    HW2 8064   3.830   0.422   3.701
 2685SOL     OW 8065   3.796   0.166   4.042
 2685SOL    HW1 8066   3.779   0.249   3.988
 2685SOL    HW2 8067   3.886   0.129   4.020
 2686SOL     OW 8068   4.318   0.745   4.376
 2686SOL    HW1 8069   4.368   0.830   4.357
 2686SOL    HW2 8070   4.230   0.747   4.328
 2687SOL     OW 8071   4.385   1.790   4.677
 2687SOL    HW1 8072   4.339   1.878   4.664
 2687SOL    HW2 8073   4.484   1.802   4.670
 2688SOL     OW 8074   3.803   1.240   4.377
 2688SOL    HW1 8075   3.802   1.193   4.465
 2688SOL    HW2 8076   3.885   1.212   4.326
 2689SOL     OW 8077   4.152   0.424   4.244
 2689SOL    HW1 8078   4.182   0.352   4.182
 2689SOL    HW2 8079   4.113   0.384   4.327
 2690SOL     OW 8080   4.536   1.586   4.411
 2690SOL    HW1 8081   4.568   1.596   4.317
 2690SOL    HW2 8082   4.457   1.524   4.413
 2691SOL     OW 8083   3.763   1.077   4.024
 2691SOL    HW1 8084   3.862   1.066   4.015
 2691SOL    HW2 8085   3.723   0.991   4.056
 2692SOL     OW 8086   3.954   2.490   0.113
 2692SOL    HW1 8087   3.861   2.488   0.150
 2692SOL    HW2 8088   3.955   2.451   0.021
 2693SOL     OW 8089   3.949   2.137   0.996
 2693SOL    HW1 8090   3.984   2.120   1.088
 2693SOL    HW2 8091   3.861   2.092   0.984
 2694SOL     OW 8092   3.743   2.230   0.647
 2694SOL    HW1 8093   3.661   2.273   0.686
 2694SOL    HW2 8094   3.715   2.157   0.584
 2695SOL     OW 8095   4.293   3.137   1.165
 2695SOL    HW1 8096   4.200   3.130   1.128
 2695SOL    HW2 8097   4.304   3.226   1.209
 2696SOL     OW 8098   4.574   2.660   1.823
 2696SOL    HW1 8099   4.570   2.736   1.888
 2696SOL    HW2 8100   4.596   2.696   1.732
 2697SOL     OW 8101   4.409   2.874   0.665
 2697SOL    HW1 8102   4.478   2.858   0.735
 2697SOL    HW2 8103   4.336   2.931   0.703
 2698SOL     OW 8104   4.410   3.023   1.803
 2698SOL    HW1 8105   4.470   3.102   1.817
 2698SOL    HW2 8106   4.324   3.054   1.762
 2699SOL     OW 8107   4.059   3.297   1.061
 2699SOL    HW1 8108   3.981   3.266   1.008
 2699SOL    HW2 8109   4.117   3.355   1.004
 2700SOL     OW 8110   4.162   2.254   1.499
 2700SOL    HW1 8111   4.244   2.198   1.508
 2700SOL    HW2 8112   4.081   2.196   1.503
 2701SOL     OW 8113   3.955   3.575   0.483
 2701SOL    HW1 8114   3.989   3.652   0.537
 2701SOL    HW2 8115   3.999   3.575   0.393
 2702SOL     OW 8116   3.954   3.296   0.538
 2702SOL    HW1 8117   3.928   3.392   0.538
 2702SOL    HW2 8118   3.883   3.242   0.583
 2703SOL     OW 8119   3.964   2.953   0.886
 2703SOL    HW1 8120   3.978   2.869   0.938
 2703SOL    HW2 8121   3.909   3.017   0.941
 2704SOL     OW 8122   4.344   3.648   1.439
 2704SOL    HW1 8123   4.252   3.631   1.474
 2704SOL    HW2 8124   4.372   3.740   1.465
 2705SOL     OW 8125   4.330   2.826   0.123
 2705SOL    HW1 8126   4.337   2.910   0.069
 2705SOL    HW2 8127   4.376   2.839   0.211
 2706SOL     OW 8128   3.846   2.505   0.563
 2706SOL    HW1 8129   3.801   2.417   0.580
 2706SOL    HW2 8130   3.845   2.559   0.647
 2707SOL     OW 8131   3.751   3.458   0.117
 2707SOL    HW1 8132   3.732   3.362   0.138
 2707SOL    HW2 8133   3.718   3.516   0.192
 2708SOL     OW 8134   3.837   2.599   1.597
 2708SOL    HW1 8135   3.925   2.586   1.642
 2708SOL    HW2 8136   3.824   2.696   1.575
 2709SOL     OW 8137   4.337   3.227   0.726
 2709SOL    HW1 8138   4.288   3.140   0.735
 2709SOL    HW2 8139   4.314   3.270   0.639
 2710SOL     OW 8140   4.533   1.866   0.502
 2710SOL    HW1 8141   4.573   1.957   0.493
 2710SOL    HW2 8142   4.433   1.874   0.508
 2711SOL     OW 8143   3.921   2.838   1.264
 2711SOL    HW1 8144   4.010   2.793   1.250
 2711SOL    HW2 8145   3.848   2.773   1.245
 2712SOL     OW 8146   4.041   2.113   1.801
 2712SOL    HW1 8147   4.112   2.184   1.807
 2712SOL    HW2 8148   3.953   2.152   1.829
 2713SOL     OW 8149   4.322   2.591   0.270
 2713SOL    HW1 8150   4.346   2.660   0.202
 2713SOL    HW2 8151   4.244   2.624   0.324
 2714SOL     OW 8152   3.800   2.673   0.789
 2714SOL    HW1 8153   3.899   2.661   0.798
 2714SOL    HW2 8154   3.776   2.768   0.810
 2715SOL     OW 8155   3.854   3.683   1.571
 2715SOL    HW1 8156   3.844   3.668   1.670
 2715SOL    HW2 8157   3.768   3.719   1.535
 2716SOL     OW 8158   4.274   2.058   0.885
 2716SOL    HW1 8159   4.269   2.053   0.985
 2716SOL    HW2 8160   4.276   2.154   0.856
 2717SOL     OW 8161   4.075   3.663   0.853
 2717SOL    HW1 8162   4.125   3.577   0.859
 2717SOL    HW2 8163   4.140   3.740   0.850
 2718SOL     OW 8164   4.045   2.805   0.242
 2718SOL    HW1 8165   4.127   2.844   0.200
 2718SOL    HW2 8166   4.018   2.723   0.193
 2719SOL     OW 8167   4.185   3.128   1.727
 2719SOL    HW1 8168   4.135   3.129   1.641
 2719SOL    HW2 8169   4.122   3.110   1.803
 2720SOL     OW 8170   3.926   2.147   1.498
 2720SOL    HW1 8171   3.846   2.207   1.485
 2720SOL    HW2 8172   3.916   2.098   1.584
 2721SOL     OW 8173   4.188   3.605   0.323
 2721SOL    HW1 8174   4.221   3.644   0.409
 2721SOL    HW2 8175   4.264   3.598   0.258
 2722SOL     OW 8176   3.973   3.647   1.241
 2722SOL    HW1 8177   4.030   3.582   1.291
 2722SOL    HW2 8178   3.957   3.614   1.148
 2723SOL     OW 8179   4.106   2.562   0.480
 2723SOL    HW1 8180   4.151   2.472   0.477
 2723SOL    HW2 8181   4.012   2.551   0.513
 2724SOL     OW 8182   4.527   3.264   0.924
 2724SOL    HW1 8183   4.617   3.278   0.882
 2724SOL    HW2 8184   4.456   3.266   0.853
 2725SOL     OW 8185   4.263   1.926   0.512
 2725SOL    HW1 8186   4.182   1.927   0.570
 2725SOL    HW2 8187   4.266   2.009   0.457
 2726SOL     OW 8188   4.183   3.014   0.741
 2726SOL    HW1 8189   4.112   2.987   0.806
 2726SOL    HW2 8190   4.157   2.986   0.648
 2727SOL     OW 8191   3.802   2.418   1.386
 2727SOL    HW1 8192   3.894   2.417   1.345
 2727SOL    HW2 8193   3.796   2.492   1.453
 2728SOL     OW 8194   4.285   2.084   1.147
 2728SOL    HW1 8195   4.323   2.000   1.184
 2728SOL    HW2 8196   4.197   2.103   1.191
 2729SOL     OW 8197   4.212   3.247   0.174
 2729SOL    HW1 8198   4.125   3.232   0.221
 2729SOL    HW2 8199   4.195   3.273   0.079
 2730SOL     OW 8200   4.251   2.118   0.328
 2730SOL    HW1 8201   4.278   2.059   0.253
 2730SOL    HW2 8202   4.251   2.213   0.297
 2731SOL     OW 8203   4.134   2.675   1.251
 2731SOL    HW1 8204   4.220   2.687   1.301
 2731SOL    HW2 8205   4.092   2.588   1.278
 2732SOL     OW 8206   3.788   3.426   1.331
 2732SOL    HW1 8207   3.742   3.508   1.297
 2732SOL    HW2 8208   3.886   3.445   1.340
 2733SOL     OW 8209   4.091   2.962   0.501
 2733SOL    HW1 8210   4.084   3.045   0.445
 2733SOL    HW2 8211   4.095   2.882   0.441
 2734SOL     OW 8212   4.290   2.399   0.865
 2734SOL    HW1 8213   4.302   2.465   0.791
 2734SOL    HW2 8214   4.336   2.433   0.948
 2735SOL     OW 8215   4.078   3.372   1.329
 2735SOL    HW1 8216   4.057   3.328   1.242
 2735SOL    HW2 8217   4.175   3.398   1.332
 2736SOL     OW 8218   4.126   2.613   1.598
 2736SOL    HW1 8219   4.194   2.668   1.551
 2736SOL    HW2 8220   4.166   2.525   1.625
 2737SOL     OW 8221   4.228   1.912   1.740
 2737SOL    HW1 8222   4.186   1.855   1.670
 2737SOL    HW2 8223   4.162   1.981   1.772
 2738SOL     OW 8224   4.297   2.732   1.029
 2738SOL    HW1 8225   4.341   2.821   1.020
 2738SOL    HW2 8226   4.234   2.732   1.106
 2739SOL     OW 8227   4.031   2.075   1.231
 2739SOL    HW1 8228   4.008   2.112   1.321
 2739SOL    HW2 8229   4.001   1.980   1.225
 2740SOL     OW 8230   3.761   3.172   1.282
 2740SOL    HW1 8231   3.814   3.123   1.350
 2740SOL    HW2 8232   3.783   3.270   1.287
 2741SOL     OW 8233   4.031   1.925   0.618
 2741SOL    HW1 8234   4.020   2.019   0.651
 2741SOL    HW2 8235   4.026   1.862   0.695
 2742SOL     OW 8236   4.074   2.760   1.804
 2742SOL    HW1 8237   4.150   2.804   1.852
 2742SOL    HW2 8238   4.109   2.713   1.722
 2743SOL     OW 8239   4.043   2.672   0.949
 2743SOL    HW1 8240   4.136   2.708   0.954
 2743SOL    HW2 8241   4.037   2.587   1.001
 2744SOL     OW 8242   4.063   2.371   1.006
 2744SOL    HW1 8243   4.011   2.288   0.989
 2744SOL    HW2 8244   4.140   2.376   0.942
 2745SOL     OW 8245   3.732   3.188   0.200
 2745SOL    HW1 8246   3.639   3.209   0.169
 2745SOL    HW2 8247   3.742   3.089   0.213
 2746SOL     OW 8248   3.812   3.663   0.927
 2746SOL    HW1 8249   3.770   3.577   0.900
 2746SOL    HW2 8250   3.906   3.666   0.893
 2747SOL     OW 8251   4.228   3.430   0.910
 2747SOL    HW1 8252   4.294   3.504   0.919
 2747SOL    HW2 8253   4.272   3.351   0.868
 2748SOL     OW 8254   3.764   2.406   1.114
 2748SOL    HW1 8255   3.849   2.373   1.073
 2748SOL    HW2 8256   3.777   2.421   1.212
 2749SOL     OW 8257   3.913   2.382   1.722
 2749SOL    HW1 8258   3.972   2.342   1.652
 2749SOL    HW2 8259   3.855   2.453   1.681
 2750SOL     OW 8260   4.539   2.434   0.325
 2750SOL    HW1 8261   4.546   2.345   0.279
 2750SOL    HW2 8262   4.445   2.468   0.317
 2751SOL     OW 8263   3.976   3.426   1.744
 2751SOL    HW1 8264   3.946   3.483   1.820
 2751SOL    HW2 8265   3.969   3.329   1.770
 2752SOL     OW 8266   4.395   2.326   1.269
 2752SOL    HW1 8267   4.361   2.237   1.239
 2752SOL    HW2 8268   4.421   2.380   1.189
 2753SOL     OW 8269   4.197   2.362   0.191
 2753SOL    HW1 8270   4.258   2.442   0.195
 2753SOL    HW2 8271   4.102   2.393   0.198
 2754SOL     OW 8272   3.883   2.999   1.466
 2754SOL    HW1 8273   3.905   2.938   1.542
 2754SOL    HW2 8274   3.893   2.950   1.380
 2755SOL     OW 8275   3.807   3.120   1.022
 2755SOL    HW1 8276   3.802   3.119   1.122
 2755SOL    HW2 8277   3.724   3.079   0.984
 2756SOL     OW 8278   4.412   3.524   1.716
 2756SOL    HW1 8279   4.356   3.605   1.725
 2756SOL    HW2 8280   4.464   3.528   1.630
 2757SOL     OW 8281   3.854   3.656   1.851
 2757SOL    HW1 8282   3.813   3.582   1.904
 2757SOL    HW2 8283   3.918   3.707   1.909
 2758SOL     OW 8284   3.987   2.188   0.720
 2758SOL    HW1 8285   3.908   2.239   0.686
 2758SOL    HW2 8286   3.978   2.173   0.818
 2759SOL     OW 8287   4.096   3.150   1.490
 2759SOL    HW1 8288   4.083   3.243   1.456
 2759SOL    HW2 8289   4.012   3.098   1.477
 2760SOL     OW 8290   4.763   2.960   0.696
 2760SOL    HW1 8291   4.693   2.913   0.750
 2760SOL    HW2 8292   4.822   2.892   0.653
 2761SOL     OW 8293   4.314   3.349   0.491
 2761SOL    HW1 8294   4.356   3.291   0.421
 2761SOL    HW2 8295   4.270   3.428   0.447
 2762SOL     OW 8296   3.979   3.210   0.290
 2762SOL    HW1 8297   3.883   3.211   0.263
 2762SOL    HW2 8298   3.991   3.263   0.374
 2763SOL     OW 8299   3.829   2.875   1.726
 2763SOL    HW1 8300   3.752   2.842   1.780
 2763SOL    HW2 8301   3.914   2.845   1.768
 2764SOL     OW 8302   4.396   2.065   1.489
 2764SOL    HW1 8303   4.486   2.049   1.449
 2764SOL    HW2 8304   4.404   2.070   1.588
 2765SOL     OW 8305   3.799   2.207   0.033
 2765SOL    HW1 8306   3.707   2.179   0.004
 2765SOL    HW2 8307   3.830   2.284  -0.023
 2766SOL     OW 8308   3.796   2.028   0.318
 2766SOL    HW1 8309   3.779   2.111   0.264
 2766SOL    HW2 8310   3.886   1.991   0.296
 2767SOL     OW 8311   4.337   2.704   1.431
 2767SOL    HW1 8312   4.393   2.785   1.414
 2767SOL    HW2 8313   4.396   2.624   1.434
 2768SOL     OW 8314   4.440   2.427   1.708
 2768SOL    HW1 8315   4.459   2.492   1.782
 2768SOL    HW2 8316   4.500   2.347   1.717
 2769SOL     OW 8317   4.114   3.603   1.560
 2769SOL    HW1 8318   4.023   3.644   1.558
 2769SOL    HW2 8319   4.107   3.509   1.592
 2770SOL     OW 8320   4.318   2.607   0.652
 2770SOL    HW1 8321   4.368   2.692   0.633
 2770SOL    HW2 8322   4.230   2.609   0.604
 2771SOL     OW 8323   3.945   3.176   1.844
 2771SOL    HW1 8324   3.880   3.103   1.823
 2771SOL    HW2 8325   3.949   3.190   1.942
 2772SOL     OW 8326   3.803   3.102   0.653
 2772SOL    HW1 8327   3.802   3.055   0.741
 2772SOL    HW2 8328   3.885   3.074   0.602
 2773SOL     OW 8329   4.396   3.253   1.624
 2773SOL    HW1 8330   4.318   3.203   1.662
 2773SOL    HW2 8331   4.393   3.348   1.655
 2774SOL     OW 8332   4.152   2.286   0.520
 2774SOL    HW1 8333   4.182   2.214   0.458
 2774SOL    HW2 8334   4.113   2.246   0.603
 2775SOL     OW 8335   4.041   2.409   1.280
 2775SOL    HW1 8336   4.079   2.350   1.352
 2775SOL    HW2 8337   4.081   2.383   1.192
 2776SOL     OW 8338   4.536   3.448   0.687
 2776SOL    HW1 8339   4.568   3.458   0.593
 2776SOL    HW2 8340   4.457   3.386   0.689
 2777SOL     OW 8341   4.342   3.429   1.284
 2777SOL    HW1 8342   4.337   3.511   1.341
 2777SOL    HW2 8343   4.431   3.426   1.239
 2778SOL     OW 8344   3.763   2.939   0.300
 2778SOL    HW1 8345   3.862   2.928   0.291
 2778SOL    HW2 8346   3.723   2.853   0.332
 2779SOL     OW 8347   3.954   2.490   1.975
 2779SOL    HW1 8348   3.861   2.488   2.012
 2779SOL    HW2 8349   3.955   2.451   1.883
 2780SOL     OW 8350   3.949   2.137   2.858
 2780SOL    HW1 8351   3.984   2.120   2.950
 2780SOL    HW2 8352   3.861   2.092   2.846
 2781SOL     OW 8353   3.743   2.230   2.509
 2781SOL    HW1 8354   3.661   2.273   2.548
 2781SOL    HW2 8355   3.715   2.157   2.446
 2782SOL     OW 8356   4.293   3.137   3.027
 2782SOL    HW1 8357   4.200   3.130   2.990
 2782SOL    HW2 8358   4.304   3.226   3.071
 2783SOL     OW 8359   4.574   2.660   3.685
 2783SOL    HW1 8360   4.570   2.736   3.750
 2783SOL    HW2 8361   4.596   2.696   3.594
 2784SOL     OW 8362   4.409   2.874   2.527
 2784SOL    HW1 8363   4.478   2.858   2.597
 2784SOL    HW2 8364   4.336   2.931   2.565
 2785SOL     OW 8365   4.410   3.023   3.665
 2785SOL    HW1 8366   4.470   3.102   3.679
 2785SOL    HW2 8367   4.324   3.054   3.624
 2786SOL     OW 8368   4.059   3.297   2.923
 2786SOL    HW1 8369   3.981   3.266   2.870
 2786SOL    HW2 8370   4.117   3.355   2.866
 2787SOL     OW 8371   4.162   2.254   3.361
 2787SOL    HW1 8372   4.244   2.198   3.370
 2787SOL    HW2 8373   4.081   2.196   3.365
 2788SOL     OW 8374   3.955   3.575   2.345
 2788SOL    HW1 8375   3.989   3.652   2.399
 2788SOL    HW2 8376   3.999   3.575   2.255
 2789SOL     OW 8377   3.954   3.296   2.400
 2789SOL    HW1 8378   3.928   3.392   2.400
 2789SOL    HW2 8379   3.883   3.242   2.445
 2790SOL     OW 8380   3.964   2.953   2.748
 2790SOL    HW1 8381   3.978   2.869   2.800
 2790SOL    HW2 8382   3.909   3.017   2.803
 2791SOL     OW 8383   4.344   3.648   3.301
 2791SOL    HW1 8384   4.252   3.631   3.336
 2791SOL    HW2 8385   4.372   3.740   3.327
 2792SOL     OW 8386   4.330   2.826   1.985
 2792SOL    HW1 8387   4.337   2.910   1.931
 2792SOL    HW2 8388   4.376   2.839   2.073
 2793SOL     OW 8389   3.846   2.505   2.425
 2793SOL    HW1 8390   3.801   2.417   2.442
 2793SOL    HW2 8391   3.845   2.559   2.509
 2794SOL     OW 8392   3.751   3.458   1.979
 2794SOL    HW1 8393   3.732   3.362   2.000
 2794SOL    HW2 8394   3.718   3.516   2.054
 2795SOL     OW 8395   3.837   2.599   3.459
 2795SOL    HW1 8396   3.925   2.586   3.504
 2795SOL    HW2 8397   3.824   2.696   3.437
 2796SOL     OW 8398   4.337   3.227   2.588
 2796SOL    HW1 8399   4.288   3.140   2.597
 2796SOL    HW2 8400   4.314   3.270   2.501
 2797SOL     OW 8401   4.533   1.866   2.364
 2797SOL    HW1 8402   4.573   1.957   2.355
 2797SOL    HW2 8403   4.433   1.874   2.370
 2798SOL     OW 8404   3.921   2.838   3.126
 2798SOL    HW1 8405   4.010   2.793   3.112
 2798SOL    HW2 8406   3.848   2.773   3.107
 2799SOL     OW 8407   4.041   2.113   3.663
 2799SOL    HW1 8408   4.112   2.184   3.669
 2799SOL    HW2 8409   3.953   2.152   3.691
 2800SOL     OW 8410   4.322   2.591   2.132
 2800SOL    HW1 8411   4.346   2.660   2.064
 2800SOL    HW2 8412   4.244   2.624   2.186
 2801SOL     OW 8413   3.800   2.673   2.651
 2801SOL    HW1 8414   3.899   2.661   2.660
 2801SOL    HW2 8415   3.776   2.768   2.672
 2802SOL     OW 8416   3.854   3.683   3.433
 2802SOL    HW1 8417   3.844   3.668   3.532
 2802SOL    HW2 8418   3.768   3.719   3.397
 2803SOL     OW 8419   4.274   2.058   2.747
 2803SOL    HW1 8420   4.269   2.053   2.847
 2803SOL    HW2 8421   4.276   2.154   2.718
 2804SOL     OW 8422   4.075   3.663   2.715
 2804SOL    HW1 8423   4.125   3.577   2.721
 2804SOL    HW2 8424   4.140   3.740   2.712
 2805SOL     OW 8425   4.045   2.805   2.104
 2805SOL    HW1 8426   4.127   2.844   2.062
 2805SOL    HW2 8427   4.018   2.723   2.055
 2806SOL     OW 8428   4.185   3.128   3.589
 2806SOL    HW1 8429   4.135   3.129   3.503
 2806SOL    HW2 8430   4.122   3.110   3.665
 2807SOL     OW 8431   3.926   2.147   3.360
 2807SOL    HW1 8432   3.846   2.207   3.347
 2807SOL    HW2 8433   3.916   2.098   3.446
 2808SOL     OW 8434   4.188   3.605   2.185
 2808SOL    HW1 8435   4.221   3.644   2.271
 2808SOL    HW2 8436   4.264   3.598   2.120
 2809SOL     OW 8437   3.973   3.647   3.103
 2809SOL    HW1 8438   4.030   3.582   3.153
 2809SOL    HW2 8439   3.957   3.614   3.010
 2810SOL     OW 8440   4.106   2.562   2.342
 2810SOL    HW1 8441   4.151   2.472   2.339
 2810SOL    HW2 8442   4.012   2.551   2.375
 2811SOL     OW 8443   4.338   1.984   1.979
 2811SOL    HW1 8444   4.436   1.962   1.986
 2811SOL    HW2 8445   4.307   1.967   1.886
 2812SOL     OW 8446   4.527   3.264   2.786
 2812SOL    HW1 8447   4.617   3.278   2.744
 2812SOL    HW2 8448   4.456   3.266   2.715
 2813SOL     OW 8449   4.263   1.926   2.374
 2813SOL    HW1 8450   4.182   1.927   2.432
 2813SOL    HW2 8451   4.266   2.009   2.319
 2814SOL     OW 8452   4.021   1.897   2.033
 2814SOL    HW1 8453   4.070   1.981   2.012
 2814SOL    HW2 8454   4.083   1.832   2.078
 2815SOL     OW 8455   4.183   3.014   2.603
 2815SOL    HW1 8456   4.112   2.987   2.668
 2815SOL    HW2 8457   4.157   2.986   2.510
 2816SOL     OW 8458   3.802   2.418   3.248
 2816SOL    HW1 8459   3.894   2.417   3.207
 2816SOL    HW2 8460   3.796   2.492   3.315
 2817SOL     OW 8461   4.285   2.084   3.009
 2817SOL    HW1 8462   4.323   2.000   3.046
 2817SOL    HW2 8463   4.197   2.103   3.053
 2818SOL     OW 8464   4.212   3.247   2.036
 2818SOL    HW1 8465   4.125   3.232   2.083
 2818SOL    HW2 8466   4.195   3.273   1.941
 2819SOL     OW 8467   4.251   2.118   2.190
 2819SOL    HW1 8468   4.278   2.059   2.115
 2819SOL    HW2 8469   4.251   2.213   2.159
 2820SOL     OW 8470   4.134   2.675   3.113
 2820SOL    HW1 8471   4.220   2.687   3.163
 2820SOL    HW2 8472   4.092   2.588   3.140
 2821SOL     OW 8473   3.788   3.426   3.193
 2821SOL    HW1 8474   3.742   3.508   3.159
 2821SOL    HW2 8475   3.886   3.445   3.202
 2822SOL     OW 8476   4.091   2.962   2.363
 2822SOL    HW1 8477   4.084   3.045   2.307
 2822SOL    HW2 8478   4.095   2.882   2.303
 2823SOL     OW 8479   4.290   2.399   2.727
 2823SOL    HW1 8480   4.302   2.465   2.653
 2823SOL    HW2 8481   4.336   2.433   2.810
 2824SOL     OW 8482   4.078   3.372   3.191
 2824SOL    HW1 8483   4.057   3.328   3.104
 2824SOL    HW2 8484   4.175   3.398   3.194
 2825SOL     OW 8485   4.126   2.613   3.460
 2825SOL    HW1 8486   4.194   2.668   3.413
 2825SOL    HW2 8487   4.166   2.525   3.487
 2826SOL     OW 8488   4.228   1.912   3.602
 2826SOL    HW1 8489   4.186   1.855   3.532
 2826SOL    HW2 8490   4.162   1.981   3.634
 2827SOL     OW 8491   4.297   2.732   2.891
 2827SOL    HW1 8492   4.341   2.821   2.882
 2827SOL    HW2 8493   4.234   2.732   2.968
 2828SOL     OW 8494   4.031   2.075   3.093
 2828SOL    HW1 8495   4.008   2.112   3.183
 2828SOL    HW2 8496   4.001   1.980   3.087
 2829SOL     OW 8497   3.761   3.172   3.144
 2829SOL    HW1 8498   3.814   3.123   3.212
 2829SOL    HW2 8499   3.783   3.270   3.149
 2830SOL     OW 8500   4.031   1.925   2.480
 2830SOL    HW1 8501   4.020   2.019   2.513
 2830SOL    HW2 8502   4.026   1.862   2.557
 2831SOL     OW 8503   4.074   2.760   3.666
 2831SOL    HW1 8504   4.150   2.804   3.714
 2831SOL    HW2 8505   4.109   2.713   3.584
 2832SOL     OW 8506   4.043   2.672   2.811
 2832SOL    HW1 8507   4.136   2.708   2.816
 2832SOL    HW2 8508   4.037   2.587   2.863
 2833SOL     OW 8509   4.063   2.371   2.868
 2833SOL    HW1 8510   4.011   2.288   2.851
 2833SOL    HW2 8511   4.140   2.376   2.804
 2834SOL     OW 8512   3.732   3.188   2.062
 2834SOL    HW1 8513   3.639   3.209   2.031
 2834SOL    HW2 8514   3.742   3.089   2.075
 2835SOL     OW 8515   3.812   3.663   2.789
 2835SOL    HW1 8516   3.770   3.577   2.762
 2835SOL    HW2 8517   3.906   3.666   2.755
 2836SOL     OW 8518   4.228   3.430   2.772
 2836SOL    HW1 8519   4.294   3.504   2.781
 2836SOL    HW2 8520   4.272   3.351   2.730
 2837SOL     OW 8521   3.764   2.406   2.976
 2837SOL    HW1 8522   3.849   2.373   2.935
 2837SOL    HW2 8523   3.777   2.421   3.074
 2838SOL     OW 8524   3.913   2.382   3.584
 2838SOL    HW1 8525   3.972   2.342   3.514
 2838SOL    HW2 8526   3.855   2.453   3.543
 2839SOL     OW 8527   4.539   2.434   2.187
 2839SOL    HW1 8528   4.546   2.345   2.141
 2839SOL    HW2 8529   4.445   2.468   2.179
 2840SOL     OW 8530   3.976   3.426   3.606
 2840SOL    HW1 8531   3.946   3.483   3.682
 2840SOL    HW2 8532   3.969   3.329   3.632
 2841SOL     OW 8533   4.395   2.326   3.131
 2841SOL    HW1 8534   4.361   2.237   3.101
 2841SOL    HW2 8535   4.421   2.380   3.051
 2842SOL     OW 8536   4.197   2.362   2.053
 2842SOL    HW1 8537   4.258   2.442   2.057
 2842SOL    HW2 8538   4.102   2.393   2.060
 2843SOL     OW 8539   3.883   2.999   3.328
 2843SOL    HW1 8540   3.905   2.938   3.404
 2843SOL    HW2 8541   3.893   2.950   3.242
 2844SOL     OW 8542   3.807   3.120   2.884
 2844SOL    HW1 8543   3.802   3.119   2.984
 2844SOL    HW2 8544   3.724   3.079   2.846
 2845SOL     OW 8545   4.412   3.524   3.578
 2845SOL    HW1 8546   4.356   3.605   3.587
 2845SOL    HW2 8547   4.464   3.528   3.492
 2846SOL     OW 8548   3.854   3.656   3.713
 2846SOL    HW1 8549   3.813   3.582   3.766
 2846SOL    HW2 8550   3.918   3.707   3.771
 2847SOL     OW 8551   3.987   2.188   2.582
 2847SOL    HW1 8552   3.908   2.239   2.548
 2847SOL    HW2 8553   3.978   2.173   2.680
 2848SOL     OW 8554   4.096   3.150   3.352
 2848SOL    HW1 8555   4.083   3.243   3.318
 2848SOL    HW2 8556   4.012   3.098   3.339
 2849SOL     OW 8557   4.763   2.960   2.558
 2849SOL    HW1 8558   4.693   2.913   2.612
 2849SOL    HW2 8559   4.822   2.892   2.515
 2850SOL     OW 8560   4.314   3.349   2.353
 2850SOL    HW1 8561   4.356   3.291   2.283
 2850SOL    HW2 8562   4.270   3.428   2.309
 2851SOL     OW 8563   3.979   3.210   2.152
 2851SOL    HW1 8564   3.883   3.211   2.125
 2851SOL    HW2 8565   3.991   3.263   2.236
 2852SOL     OW 8566   3.829   2.875   3.588
 2852SOL    HW1 8567   3.752   2.842   3.642
 2852SOL    HW2 8568   3.914   2.845   3.630
 2853SOL     OW 8569   4.396   2.065   3.351
 2853SOL    HW1 8570   4.486   2.049   3.311
 2853SOL    HW2 8571   4.404   2.070   3.450
 2854SOL     OW 8572   3.799   2.207   1.895
 2854SOL    HW1 8573   3.707   2.179   1.866
 2854SOL    HW2 8574   3.830   2.284   1.839
 2855SOL     OW 8575   3.796   2.028   2.180
 2855SOL    HW1 8576   3.779   2.111   2.126
 2855SOL    HW2 8577   3.886   1.991   2.158
 2856SOL     OW 8578   4.337   2.704   3.293
 2856SOL    HW1 8579   4.393   2.785   3.276
 2856SOL    HW2 8580   4.396   2.624   3.296
 2857SOL     OW 8581   4.440   2.427   3.570
 2857SOL    HW1 8582   4.459   2.492   3.644
 2857SOL    HW2 8583   4.500   2.347   3.579
 2858SOL     OW 8584   4.114   3.603   3.422
 2858SOL    HW1 8585   4.023   3.644   3.420
 2858SOL    HW2 8586   4.107   3.509   3.454
 2859SOL     OW 8587   4.318   2.607   2.514
 2859SOL    HW1 8588   4.368   2.692   2.495
 2859SOL    HW2 8589   4.230   2.609   2.466
 2860SOL     OW 8590   3.945   3.176   3.706
 2860SOL    HW1 8591   3.880   3.103   3.685
 2860SOL    HW2 8592   3.949   3.190   3.804
 2861SOL     OW 8593   3.803   3.102   2.515
 2861SOL    HW1 8594   3.802   3.055   2.603
 2861SOL    HW2 8595   3.885   3.074   2.464
 2862SOL     OW 8596   4.396   3.253   3.486
 2862SOL    HW1 8597   4.318   3.203   3.524
 2862SOL    HW2 8598   4.393   3.348   3.517
 2863SOL     OW 8599   4.152   2.286   2.382
 2863SOL    HW1 8600   4.182   2.214   2.320
 2863SOL    HW2 8601   4.113   2.246   2.465
 2864SOL     OW 8602   4.041   2.409   3.142
 2864SOL    HW1 8603   4.079   2.350   3.214
 2864SOL    HW2 8604   4.081   2.383   3.054
 2865SOL     OW 8605   4.536   3.448   2.549
 2865SOL    HW1 8606   4.568   3.458   2.455
 2865SOL    HW2 8607   4.457   3.386   2.551
 2866SOL     OW 8608   4.342   3.429   3.146
 2866SOL    HW1 8609   4.337   3.511   3.203
 2866SOL    HW2 8610   4.431   3.426   3.101
 2867SOL     OW 8611   3.763   2.939   2.162
 2867SOL    HW1 8612   3.862   2.928   2.153
 2867SOL    HW2 8613   3.723   2.853   2.194
 2868SOL     OW 8614   3.954   2.490   3.837
 2868SOL    HW1 8615   3.861   2.488   3.874
 2868SOL    HW2 8616   3.955   2.451   3.745
 2869SOL     OW 8617   3.743   2.230   4.371
 2869SOL    HW1 8618   3.661   2.273   4.410
 2869SOL    HW2 8619   3.715   2.157   4.308
 2870SOL     OW 8620   4.409   2.874   4.389
 2870SOL    HW1 8621   4.478   2.858   4.459
 2870SOL    HW2 8622   4.336   2.931   4.427
 2871SOL     OW 8623   3.955   3.575   4.207
 2871SOL    HW1 8624   3.989   3.652   4.261
 2871SOL    HW2 8625   3.999   3.575   4.117
 2872SOL     OW 8626   3.954   3.296   4.262
 2872SOL    HW1 8627   3.928   3.392   4.262
 2872SOL    HW2 8628   3.883   3.242   4.307
 2873SOL     OW 8629   4.330   2.826   3.847
 2873SOL    HW1 8630   4.337   2.910   3.793
 2873SOL    HW2 8631   4.376   2.839   3.935
 2874SOL     OW 8632   3.846   2.505   4.287
 2874SOL    HW1 8633   3.801   2.417   4.304
 2874SOL    HW2 8634   3.845   2.559   4.371
 2875SOL     OW 8635   3.751   3.458   3.841
 2875SOL    HW1 8636   3.732   3.362   3.862
 2875SOL    HW2 8637   3.718   3.516   3.916
 2876SOL     OW 8638   4.337   3.227   4.450
 2876SOL    HW1 8639   4.288   3.140   4.459
 2876SOL    HW2 8640   4.314   3.270   4.363
 2877SOL     OW 8641   4.533   1.866   4.226
 2877SOL    HW1 8642   4.573   1.957   4.217
 2877SOL    HW2 8643   4.433   1.874   4.232
 2878SOL     OW 8644   4.322   2.591   3.994
 2878SOL    HW1 8645   4.346   2.660   3.926
 2878SOL    HW2 8646   4.244   2.624   4.048
 2879SOL     OW 8647   3.800   2.673   4.513
 2879SOL    HW1 8648   3.899   2.661   4.522
 2879SOL    HW2 8649   3.776   2.768   4.534
 2880SOL     OW 8650   4.075   3.663   4.577
 2880SOL    HW1 8651   4.125   3.577   4.583
 2880SOL    HW2 8652   4.140   3.740   4.574
 2881SOL     OW 8653   4.045   2.805   3.966
 2881SOL    HW1 8654   4.127   2.844   3.924
 2881SOL    HW2 8655   4.018   2.723   3.917
 2882SOL     OW 8656   4.188   3.605   4.047
 2882SOL    HW1 8657   4.221   3.644   4.133
 2882SOL    HW2 8658   4.264   3.598   3.982
 2883SOL     OW 8659   4.106   2.562   4.204
 2883SOL    HW1 8660   4.151   2.472   4.201
 2883SOL    HW2 8661   4.012   2.551   4.237
 2884SOL     OW 8662   4.338   1.984   3.841
 2884SOL    HW1 8663   4.436   1.962   3.848
 2884SOL    HW2 8664   4.307   1.967   3.748
 2885SOL     OW 8665   4.263   1.926   4.236
 2885SOL    HW1 8666   4.182   1.927   4.294
 2885SOL    HW2 8667   4.266   2.009   4.181
 2886SOL     OW 8668   4.021   1.897   3.895
 2886SOL    HW1 8669   4.070   1.981   3.874
 2886SOL    HW2 8670   4.083   1.832   3.940
 2887SOL     OW 8671   4.183   3.014   4.465
 2887SOL    HW1 8672   4.112   2.987   4.530
 2887SOL    HW2 8673   4.157   2.986   4.372
 2888SOL     OW 8674   4.212   3.247   3.898
 2888SOL    HW1 8675   4.125   3.232   3.945
 2888SOL    HW2 8676   4.195   3.273   3.803
 2889SOL     OW 8677   4.251   2.118   4.052
 2889SOL    HW1 8678   4.278   2.059   3.977
 2889SOL    HW2 8679   4.251   2.213   4.021
 2890SOL     OW 8680   4.091   2.962   4.225
 2890SOL    HW1 8681   4.084   3.045   4.169
 2890SOL    HW2 8682   4.095   2.882   4.165
 2891SOL     OW 8683   4.031   1.925   4.342
 2891SOL    HW1 8684   4.020   2.019   4.375
 2891SOL    HW2 8685   4.026   1.862   4.419
 2892SOL     OW 8686   3.732   3.188   3.924
 2892SOL    HW1 8687   3.639   3.209   3.893
 2892SOL    HW2 8688   3.742   3.089   3.937
 2893SOL     OW 8689   4.539   2.434   4.049
 2893SOL    HW1 8690   4.546   2.345   4.003
 2893SOL    HW2 8691   4.445   2.468   4.041
 2894SOL     OW 8692   4.197   2.362   3.915
 2894SOL    HW1 8693   4.258   2.442   3.919
 2894SOL    HW2 8694   4.102   2.393   3.922
 2895SOL     OW 8695   4.763   2.960   4.420
 2895SOL    HW1 8696   4.693   2.913   4.474
 2895SOL    HW2 8697   4.822   2.892   4.377
 2896SOL     OW 8698   4.314   3.349   4.215
 2896SOL    HW1 8699   4.356   3.291   4.145
 2896SOL    HW2 8700   4.270   3.428   4.171
 2897SOL     OW 8701   3.979   3.210   4.014
 2897SOL    HW1 8702   3.883   3.211   3.987
 2897SOL    HW2 8703   3.991   3.263   4.098
 2898SOL     OW 8704   3.799   2.207   3.757
 2898SOL    HW1 8705   3.707   2.179   3.728
 2898SOL    HW2 8706   3.830   2.284   3.701
 2899SOL     OW 8707   3.796   2.028   4.042
 2899SOL    HW1 8708   3.779   2.111   3.988
 2899SOL    HW2 8709   3.886   1.991   4.020
 2900SOL     OW 8710   4.318   2.607   4.376
 2900SOL    HW1 8711   4.368   2.692   4.357
 2900SOL    HW2 8712   4.230   2.609   4.328
 2901SOL     OW 8713   4.385   3.652   4.677
 2901SOL    HW1 8714   4.339   3.740   4.664
 2901SOL    HW2 8715   4.484   3.664   4.670
 2902SOL     OW 8716   3.803   3.102   4.377
 2902SOL    HW1 8717   3.802   3.055   4.465
 2902SOL    HW2 8718   3.885   3.074   4.326
 2903SOL     OW 8719   4.152   2.286   4.244
 2903SOL    HW1 8720   4.182   2.214   4.182
 2903SOL    HW2 8721   4.113   2.246   4.327
 2904SOL     OW 8722   4.536   3.448   4.411
 2904SOL    HW1 8723   4.568   3.458   4.317
 2904SOL    HW2 8724   4.457   3.386   4.413
 2905SOL     OW 8725   3.763   2.939   4.024
 2905SOL    HW1 8726   3.862   2.928   4.015
 2905SOL    HW2 8727   3.723   2.853   4.056
 2906SOL     OW 8728   3.954   4.352   0.113
 2906SOL    HW1 8729   3.861   4.350   0.150
 2906SOL    HW2 8730   3.955   4.313   0.021
 2907SOL     OW 8731   3.949   3.999   0.996
 2907SOL    HW1 8732   3.984   3.982   1.088
 2907SOL    HW2 8733   3.861   3.954   0.984
 2908SOL     OW 8734   3.743   4.092   0.647
 2908SOL    HW1 8735   3.661   4.135   0.686
 2908SOL    HW2 8736   3.715   4.019   0.584
 2909SOL     OW 8737   4.574   4.522   1.823
 2909SOL    HW1 8738   4.570   4.598   1.888
 2909SOL    HW2 8739   4.596   4.558   1.732
 2910SOL     OW 8740   4.162   4.116   1.499
 2910SOL    HW1 8741   4.244   4.060   1.508
 2910SOL    HW2 8742   4.081   4.058   1.503
 2911SOL     OW 8743   3.846   4.367   0.563
 2911SOL    HW1 8744   3.801   4.279   0.580
 2911SOL    HW2 8745   3.845   4.421   0.647
 2912SOL     OW 8746   3.837   4.461   1.597
 2912SOL    HW1 8747   3.925   4.448   1.642
 2912SOL    HW2 8748   3.824   4.558   1.575
 2913SOL     OW 8749   4.533   3.728   0.502
 2913SOL    HW1 8750   4.573   3.819   0.493
 2913SOL    HW2 8751   4.433   3.736   0.508
 2914SOL     OW 8752   4.041   3.975   1.801
 2914SOL    HW1 8753   4.112   4.046   1.807
 2914SOL    HW2 8754   3.953   4.014   1.829
 2915SOL     OW 8755   4.274   3.920   0.885
 2915SOL    HW1 8756   4.269   3.915   0.985
 2915SOL    HW2 8757   4.276   4.016   0.856
 2916SOL     OW 8758   3.926   4.009   1.498
 2916SOL    HW1 8759   3.846   4.069   1.485
 2916SOL    HW2 8760   3.916   3.960   1.584
 2917SOL     OW 8761   4.106   4.424   0.480
 2917SOL    HW1 8762   4.151   4.334   0.477
 2917SOL    HW2 8763   4.012   4.413   0.513
 2918SOL     OW 8764   4.263   3.788   0.512
 2918SOL    HW1 8765   4.182   3.789   0.570
 2918SOL    HW2 8766   4.266   3.871   0.457
 2919SOL     OW 8767   3.802   4.280   1.386
 2919SOL    HW1 8768   3.894   4.279   1.345
 2919SOL    HW2 8769   3.796   4.354   1.453
 2920SOL     OW 8770   4.285   3.946   1.147
 2920SOL    HW1 8771   4.323   3.862   1.184
 2920SOL    HW2 8772   4.197   3.965   1.191
 2921SOL     OW 8773   4.251   3.980   0.328
 2921SOL    HW1 8774   4.278   3.921   0.253
 2921SOL    HW2 8775   4.251   4.075   0.297
 2922SOL     OW 8776   4.134   4.537   1.251
 2922SOL    HW1 8777   4.220   4.549   1.301
 2922SOL    HW2 8778   4.092   4.450   1.278
 2923SOL     OW 8779   4.290   4.261   0.865
 2923SOL    HW1 8780   4.302   4.327   0.791
 2923SOL    HW2 8781   4.336   4.295   0.948
 2924SOL     OW 8782   4.228   3.774   1.740
 2924SOL    HW1 8783   4.186   3.717   1.670
 2924SOL    HW2 8784   4.162   3.843   1.772
 2925SOL     OW 8785   4.031   3.937   1.231
 2925SOL    HW1 8786   4.008   3.974   1.321
 2925SOL    HW2 8787   4.001   3.842   1.225
 2926SOL     OW 8788   4.031   3.787   0.618
 2926SOL    HW1 8789   4.020   3.881   0.651
 2926SOL    HW2 8790   4.026   3.724   0.695
 2927SOL     OW 8791   4.043   4.534   0.949
 2927SOL    HW1 8792   4.136   4.570   0.954
 2927SOL    HW2 8793   4.037   4.449   1.001
 2928SOL     OW 8794   4.063   4.233   1.006
 2928SOL    HW1 8795   4.011   4.150   0.989
 2928SOL    HW2 8796   4.140   4.238   0.942
 2929SOL     OW 8797   3.764   4.268   1.114
 2929SOL    HW1 8798   3.849   4.235   1.073
 2929SOL    HW2 8799   3.777   4.283   1.212
 2930SOL     OW 8800   3.913   4.244   1.722
 2930SOL    HW1 8801   3.972   4.204   1.652
 2930SOL    HW2 8802   3.855   4.315   1.681
 2931SOL     OW 8803   4.539   4.296   0.325
 2931SOL    HW1 8804   4.546   4.207   0.279
 2931SOL    HW2 8805   4.445   4.330   0.317
 2932SOL     OW 8806   4.395   4.188   1.269
 2932SOL    HW1 8807   4.361   4.099   1.239
 2932SOL    HW2 8808   4.421   4.242   1.189
 2933SOL     OW 8809   4.197   4.224   0.191
 2933SOL    HW1 8810   4.258   4.304   0.195
 2933SOL    HW2 8811   4.102   4.255   0.198
 2934SOL     OW 8812   3.987   4.050   0.720
 2934SOL    HW1 8813   3.908   4.101   0.686
 2934SOL    HW2 8814   3.978   4.035   0.818
 2935SOL     OW 8815   4.396   3.927   1.489
 2935SOL    HW1 8816   4.486   3.911   1.449
 2935SOL    HW2 8817   4.404   3.932   1.588
 2936SOL     OW 8818   3.799   4.069   0.033
 2936SOL    HW1 8819   3.707   4.041   0.004
 2936SOL    HW2 8820   3.830   4.146  -0.023
 2937SOL     OW 8821   3.796   3.890   0.318
 2937SOL    HW1 8822   3.779   3.973   0.264
 2937SOL    HW2 8823   3.886   3.853   0.296
 2938SOL     OW 8824   4.440   4.289   1.708
 2938SOL    HW1 8825   4.459   4.354   1.782
 2938SOL    HW2 8826   4.500   4.209   1.717
 2939SOL     OW 8827   4.152   4.148   0.520
 2939SOL    HW1 8828   4.182   4.076   0.458
 2939SOL    HW2 8829   4.113   4.108   0.603
 2940SOL     OW 8830   4.041   4.271   1.280
 2940SOL    HW1 8831   4.079   4.212   1.352
 2940SOL    HW2 8832   4.081   4.245   1.192
 2941SOL     OW 8833   3.954   4.352   1.975
 2941SOL    HW1 8834   3.861   4.350   2.012
 2941SOL    HW2 8835   3.955   4.313   1.883
 2942SOL     OW 8836   3.949   3.999   2.858
 2942SOL    HW1 8837   3.984   3.982   2.950
 2942SOL    HW2 8838   3.861   3.954   2.846
 2943SOL     OW 8839   3.743   4.092   2.509
 2943SOL    HW1 8840   3.661   4.135   2.548
 2943SOL    HW2 8841   3.715   4.019   2.446
 2944SOL     OW 8842   4.574   4.522   3.685
 2944SOL    HW1 8843   4.570   4.598   3.750
 2944SOL    HW2 8844   4.596   4.558   3.594
 2945SOL     OW 8845   4.162   4.116   3.361
 2945SOL    HW1 8846   4.244   4.060   3.370
 2945SOL    HW2 8847   4.081   4.058   3.365
 2946SOL     OW 8848   3.846   4.367   2.425
 2946SOL    HW1 8849   3.801   4.279   2.442
 2946SOL    HW2 8850   3.845   4.421   2.509
 2947SOL     OW 8851   3.837   4.461   3.459
 2947SOL    HW1 8852   3.925   4.448   3.504
 2947SOL    HW2 8853   3.824   4.558   3.437
 2948SOL     OW 8854   4.533   3.728   2.364
 2948SOL    HW1 8855   4.573   3.819   2.355
 2948SOL    HW2 8856   4.433   3.736   2.370
 2949SOL     OW 8857   4.041   3.975   3.663
 2949SOL    HW1 8858   4.112   4.046   3.669
 2949SOL    HW2 8859   3.953   4.014   3.691
 2950SOL     OW 8860   4.274   3.920   2.747
 2950SOL    HW1 8861   4.269   3.915   2.847
 2950SOL    HW2 8862   4.276   4.016   2.718
 2951SOL     OW 8863   3.926   4.009   3.360
 2951SOL    HW1 8864   3.846   4.069   3.347
 2951SOL    HW2 8865   3.916   3.960   3.446
 2952SOL     OW 8866   4.106   4.424   2.342
 2952SOL    HW1 8867   4.151   4.334   2.339
 2952SOL    HW2 8868   4.012   4.413   2.375
 2953SOL     OW 8869   4.338   3.846   1.979
 2953SOL    HW1 8870   4.436   3.824   1.986
 2953SOL    HW2 8871   4.307   3.829   1.886
 2954SOL     OW 8872   4.263   3.788   2.374
 2954SOL    HW1 8873   4.182   3.789   2.432
 2954SOL    HW2 8874   4.266   3.871   2.319
 2955SOL     OW 8875   4.021   3.759   2.033
 2955SOL    HW1 8876   4.070   3.843   2.012
 2955SOL    HW2 8877   4.083   3.694   2.078
 2956SOL     OW 8878   3.802   4.280   3.248
 2956SOL    HW1 8879   3.894   4.279   3.207
 2956SOL    HW2 8880   3.796   4.354   3.315
 2957SOL     OW 8881   4.285   3.946   3.009
 2957SOL    HW1 8882   4.323   3.862   3.046
 2957SOL    HW2 8883   4.197   3.965   3.053
 2958SOL     OW 8884   4.251   3.980   2.190
 2958SOL    HW1 8885   4.278   3.921   2.115
 2958SOL    HW2 8886   4.251   4.075   2.159
 2959SOL     OW 8887   4.134   4.537   3.113
 2959SOL    HW1 8888   4.220   4.549   3.163
 2959SOL    HW2 8889   4.092   4.450   3.140
 2960SOL     OW 8890   4.290   4.261   2.727
 2960SOL    HW1 8891   4.302   4.327   2.653
 2960SOL    HW2 8892   4.336   4.295   2.810
 2961SOL     OW 8893   4.228   3.774   3.602
 2961SOL    HW1 8894   4.186   3.717   3.532
 2961SOL    HW2 8895   4.162   3.843   3.634
 2962SOL     OW 8896   4.031   3.937   3.093
 2962SOL    HW1 8897   4.008   3.974   3.183
 2962SOL    HW2 8898   4.001   3.842   3.087
 2963SOL     OW 8899   4.031   3.787   2.480
 2963SOL    HW1 8900   4.020   3.881   2.513
 2963SOL    HW2 8901   4.026   3.724   2.557
 2964SOL     OW 8902   4.043   4.534   2.811
 2964SOL    HW1 8903   4.136   4.570   2.816
 2964SOL    HW2 8904   4.037   4.449   2.863
 2965SOL     OW 8905   4.063   4.233   2.868
 2965SOL    HW1 8906   4.011   4.150   2.851
 2965SOL    HW2 8907   4.140   4.238   2.804
 2966SOL     OW 8908   3.764   4.268   2.976
 2966SOL    HW1 8909   3.849   4.235   2.935
 2966SOL    HW2 8910   3.777   4.283   3.074
 2967SOL     OW 8911   3.913   4.244   3.584
 2967SOL    HW1 8912   3.972   4.204   3.514
 2967SOL    HW2 8913   3.855   4.315   3.543
 2968SOL     OW 8914   4.539   4.296   2.187
 2968SOL    HW1 8915   4.546   4.207   2.141
 2968SOL    HW2 8916   4.445   4.330   2.179
 2969SOL     OW 8917   4.395   4.188   3.131
 2969SOL    HW1 8918   4.361   4.099   3.101
 2969SOL    HW2 8919   4.421   4.242   3.051
 2970SOL     OW 8920   4.197   4.224   2.053
 2970SOL    HW1 8921   4.258   4.304   2.057
 2970SOL    HW2 8922   4.102   4.255   2.060
 2971SOL     OW 8923   3.987   4.050   2.582
 2971SOL    HW1 8924   3.908   4.101   2.548
 2971SOL    HW2 8925   3.978   4.035   2.680
 2972SOL     OW 8926   4.396   3.927   3.351
 2972SOL    HW1 8927   4.486   3.911   3.311
 2972SOL    HW2 8928   4.404   3.932   3.450
 2973SOL     OW 8929   3.799   4.069   1.895
 2973SOL    HW1 8930   3.707   4.041   1.866
 2973SOL    HW2 8931   3.830   4.146   1.839
 2974SOL     OW 8932   3.796   3.890   2.180
 2974SOL    HW1 8933   3.779   3.973   2.126
 2974SOL    HW2 8934   3.886   3.853   2.158
 2975SOL     OW 8935   4.440   4.289   3.570
 2975SOL    HW1 8936   4.459   4.354   3.644
 2975SOL    HW2 8937   4.500   4.209   3.579
 2976SOL     OW 8938   4.152   4.148   2.382
 2976SOL    HW1 8939   4.182   4.076   2.320
 2976SOL    HW2 8940   4.113   4.108   2.465
 2977SOL     OW 8941   4.041   4.271   3.142
 2977SOL    HW1 8942   4.079   4.212   3.214
 2977SOL    HW2 8943   4.081   4.245   3.054
 2978SOL     OW 8944   3.954   4.352   3.837
 2978SOL    HW1 8945   3.861   4.350   3.874
 2978SOL    HW2 8946   3.955   4.313   3.745
 2979SOL     OW 8947   3.743   4.092   4.371
 2979SOL    HW1 8948   3.661   4.135   4.410
 2979SOL    HW2 8949   3.715   4.019   4.308
 2980SOL     OW 8950   3.846   4.367   4.287
 2980SOL    HW1 8951   3.801   4.279   4.304
 2980SOL    HW2 8952   3.845   4.421   4.371
 2981SOL     OW 8953   4.533   3.728   4.226
 2981SOL    HW1 8954   4.573   3.819   4.217
 2981SOL    HW2 8955   4.433   3.736   4.232
 2982SOL     OW 8956   3.800   4.535   4.513
 2982SOL    HW1 8957   3.899   4.523   4.522
 2982SOL    HW2 8958   3.776   4.630   4.534
 2983SOL     OW 8959   4.106   4.424   4.204
 2983SOL    HW1 8960   4.151   4.334   4.201
 2983SOL    HW2 8961   4.012   4.413   4.237
 2984SOL     OW 8962   4.338   3.846   3.841
 2984SOL    HW1 8963   4.436   3.824   3.848
 2984SOL    HW2 8964   4.307   3.829   3.748
 2985SOL     OW 8965   4.263   3.788   4.236
 2985SOL    HW1 8966   4.182   3.789   4.294
 2985SOL    HW2 8967   4.266   3.871   4.181
 2986SOL     OW 8968   4.021   3.759   3.895
 2986SOL    HW1 8969   4.070   3.843   3.874
 2986SOL    HW2 8970   4.083   3.694   3.940
 2987SOL     OW 8971   4.251   3.980   4.052
 2987SOL    HW1 8972   4.278   3.921   3.977
 2987SOL    HW2 8973   4.251   4.075   4.021
 2988SOL     OW 8974   4.031   3.787   4.342
 2988SOL    HW1 8975   4.020   3.881   4.375
 2988SOL    HW2 8976   4.026   3.724   4.419
 2989SOL     OW 8977   4.539   4.296   4.049
 2989SOL    HW1 8978   4.546   4.207   4.003
 2989SOL    HW2 8979   4.445   4.330   4.041
 2990SOL     OW 8980   4.197   4.224   3.915
 2990SOL    HW1 8981   4.258   4.304   3.919
 2990SOL    HW2 8982   4.102   4.255   3.922
 2991SOL     OW 8983   3.799   4.069   3.757
 2991SOL    HW1 8984   3.707   4.041   3.728
 2991SOL    HW2 8985   3.830   4.146   3.701
 2992SOL     OW 8986   3.796   3.890   4.042
 2992SOL    HW1 8987   3.779   3.973   3.988
 2992SOL    HW2 8988   3.886   3.853   4.020
 2993SOL     OW 8989   4.152   4.148   4.244
 2993SOL    HW1 8990   4.182   4.076   4.182
 2993SOL    HW2 8991   4.113   4.108   4.327
   4.51805   4.51805   4.51805
