CUP08049_AM1BCC_v1_0
    23
   6.1000000   0.8290000  -6.6980000   4.7780000   1.2040000  -6.9080000
   6.4650000   0.2750000  -5.4790000   3.8200000   1.0250000  -5.8990000
   5.5060000   0.0990000  -4.4740000   4.1570000   0.4680000  -4.6560000
   3.0050000  -0.4940000  -1.4320000   1.5600000  -0.2120000  -1.3250000
   1.0310000   0.3010000  -2.4420000   1.8330000   0.5770000  -3.6760000
   3.7650000  -0.2760000  -2.4490000   3.2030000   0.2680000  -3.5890000
   0.9240000  -0.5000000  -0.1270000   1.2550000   1.0490000  -4.6550000
  -0.6600000   0.7010000  -2.4940000   6.8390000   0.9670000  -7.4820000
   4.4800000   1.6380000  -7.8590000   7.4950000  -0.0230000  -5.3010000
   2.8110000   1.3440000  -6.1370000   5.8400000  -0.3400000  -3.5360000
   3.4660000  -0.9380000  -0.5340000   1.4880000  -0.3060000   0.6980000
  -0.0010000  -0.0710000  -0.0640000
