; mobley_2523689_GMX_OPLS.itp created by acpype (v: 2023.10.27) on Wed May 20 23:59:23 2026

; For OPLS atomtypes manual fine tuning
; AC_at:OPLS_at:OPLScode: Possible_Alternatives (see ffoplsaa.atp and ffoplsaanb.itp)
; ca:CA:opls_145: ['166', '501', '502']
; cc:C*:opls_500: ['506', '507', '508', '514']
; cd:C*:opls_500: ['506', '507', '508', '514']
; c:C:opls_235: ['271']
; nd:NB:opls_511: []
; n:N:opls_237: ['238', '239']
; nv:x:opls_x: []
; o:O:opls_236: ['272']
; cl:x:opls_x: []
; ha:HA:opls_146: []
; h4:HA:opls_146: []
; hn:H:opls_240: ['241', '290', '301', '304', '310', '504', '513']

[ moleculetype ]
;name            nrexcl
 mobley_2523689   3

[ atoms ]
;   nr  type  resi  res  atom  cgnr     charge      mass       ; qtot   bond_type
     1 opls_145     1   MOL    C1    1    -0.126000     12.01100 ; qtot -0.126  CA  
     2 opls_145     1   MOL    C2    2    -0.126000     12.01100 ; qtot -0.252  CA  
     3 opls_145     1   MOL    C3    3    -0.126000     12.01100 ; qtot -0.378  CA  
     4 opls_145     1   MOL    C4    4    -0.111000     12.01100 ; qtot -0.489  CA  
     5 opls_145     1   MOL    C5    5    -0.111000     12.01100 ; qtot -0.600  CA  
     6 opls_145     1   MOL    C6    6     0.052600     12.01100 ; qtot -0.547  CA  
     7 opls_500     1   MOL    C7    7     0.297500     12.01100 ; qtot -0.250  C*  
     8 opls_500     1   MOL    C8    8     0.136400     12.01100 ; qtot -0.114  C*  
     9 opls_500     1   MOL    C9    9    -0.212800     12.01100 ; qtot -0.326  C*  
    10 opls_235     1   MOL   C10   10     0.706700     12.01100 ; qtot  0.380  C   
    11 opls_511     1   MOL    N1   11    -0.385300     14.00670 ; qtot -0.005  NB  
    12 opls_237     1   MOL    N2   12    -0.124000     14.00670 ; qtot -0.129  N   
    13 opls_x     1   MOL    N3   13    -0.844600      0.00000 ; qtot -0.973  x   
    14 opls_236     1   MOL    O1   14    -0.592500     15.99940 ; qtot -1.566  O   
    15 opls_x     1   MOL   CL1   15    -0.062400      0.00000 ; qtot -1.628  x   
    16 opls_146     1   MOL    H1   16     0.134000      1.00800 ; qtot -1.494  HA  
    17 opls_146     1   MOL    H2   17     0.136500      1.00800 ; qtot -1.358  HA  
    18 opls_146     1   MOL    H3   18     0.136500      1.00800 ; qtot -1.221  HA  
    19 opls_146     1   MOL    H4   19     0.150500      1.00800 ; qtot -1.071  HA  
    20 opls_146     1   MOL    H5   20     0.150500      1.00800 ; qtot -0.920  HA  
    21 opls_146     1   MOL    H6   21     0.050800      1.00800 ; qtot -0.870  HA  
    22 opls_240     1   MOL    H7   22     0.434800      1.00800 ; qtot -0.435  H   
    23 opls_240     1   MOL    H8   23     0.434800      1.00800 ; qtot -0.000  H   

[ bonds ]
;   ai     aj funct   r             k
     1      2   1 ;    1.3986e-01    2.9644e+05 ;     C1 - C2         CA - CA    
     1      3   1 ;    1.3986e-01    2.9644e+05 ;     C1 - C3         CA - CA    
     1     16   1 ;    1.0860e-01    3.0183e+05 ;     C1 - H1         CA - HA    
     2      4   1 ;    1.3986e-01    2.9644e+05 ;     C2 - C4         CA - CA    
     2     17   1 ;    1.0860e-01    3.0183e+05 ;     C2 - H2         CA - HA    
     3      5   1 ;    1.3986e-01    2.9644e+05 ;     C3 - C5         CA - CA    
     3     18   1 ;    1.0860e-01    3.0183e+05 ;     C3 - H3         CA - HA    
     4      6   1 ;    1.3986e-01    2.9644e+05 ;     C4 - C6         CA - CA    
     4     19   1 ;    1.0860e-01    3.0183e+05 ;     C4 - H4         CA - HA    
     5      6   1 ;    1.3986e-01    2.9644e+05 ;     C5 - C6         CA - CA    
     5     20   1 ;    1.0860e-01    3.0183e+05 ;     C5 - H5         CA - HA    
     6     12   1 ;    1.4228e-01    2.4360e+05 ;     C6 - N2         CA - N     
     7      8   1 ;    1.4274e-01    2.6947e+05 ;     C7 - C8         C* - C*    
     7     11   1 ;    1.3158e-01    3.5122e+05 ;     C7 - N1         C* - NB    
     7     21   1 ;    1.0809e-01    3.0854e+05 ;     C7 - H6         C* - HA    
     8      9   1 ;    1.3730e-01    3.2321e+05 ;     C8 - C9         C* - C*    
     8     13   1 ;    1.3685e-01    2.9226e+05 ;     C8 - N3         C* - x     
     9     10   1 ;    1.4728e-01    2.3273e+05 ;     C9 - C10        C* - C     
     9     15   1 ;    1.7333e-01    1.6771e+05 ;     C9 - CL1        C* - x     
    10     12   1 ;    1.3967e-01    2.6565e+05 ;    C10 - N2          C - N     
    10     14   1 ;    1.2190e-01    4.9421e+05 ;    C10 - O1          C - O     
    11     12   1 ;    1.3683e-01    2.3377e+05 ;     N1 - N2         NB - N     
    13     22   1 ;    1.0114e-01    3.9961e+05 ;     N3 - H7          x - H     
    13     23   1 ;    1.0114e-01    3.9961e+05 ;     N3 - H8          x - H     

[ pairs ]
;   ai     aj    funct
     1      6      1 ;     C1 - C6    
     1     19      1 ;     C1 - H4    
     1     20      1 ;     C1 - H5    
     2      5      1 ;     C2 - C5    
     2     12      1 ;     C2 - N2    
     2     18      1 ;     C2 - H3    
     3      4      1 ;     C3 - C4    
     3     12      1 ;     C3 - N2    
     3     17      1 ;     C3 - H2    
     4     10      1 ;     C4 - C10   
     4     11      1 ;     C4 - N1    
     4     20      1 ;     C4 - H5    
     5     10      1 ;     C5 - C10   
     5     11      1 ;     C5 - N1    
     5     19      1 ;     C5 - H4    
     6      7      1 ;     C6 - C7    
     6      9      1 ;     C6 - C9    
     6     14      1 ;     C6 - O1    
     6     17      1 ;     C6 - H2    
     6     18      1 ;     C6 - H3    
     7     10      1 ;     C7 - C10   
     7     15      1 ;     C7 - CL1   
     7     22      1 ;     C7 - H7    
     7     23      1 ;     C7 - H8    
     8     12      1 ;     C8 - N2    
     8     14      1 ;     C8 - O1    
     9     11      1 ;     C9 - N1    
     9     21      1 ;     C9 - H6    
     9     22      1 ;     C9 - H7    
     9     23      1 ;     C9 - H8    
    10     13      1 ;    C10 - N3    
    11     13      1 ;     N1 - N3    
    11     14      1 ;     N1 - O1    
    12     15      1 ;     N2 - CL1   
    12     19      1 ;     N2 - H4    
    12     20      1 ;     N2 - H5    
    12     21      1 ;     N2 - H6    
    13     15      1 ;     N3 - CL1   
    13     21      1 ;     N3 - H6    
    14     15      1 ;     O1 - CL1   
    16      4      1 ;     H1 - C4    
    16      5      1 ;     H1 - C5    
    16     17      1 ;     H1 - H2    
    16     18      1 ;     H1 - H3    
    17     19      1 ;     H2 - H4    
    18     20      1 ;     H3 - H5    

[ angles ]
;   ai     aj     ak    funct   theta         cth
     1      2      4      1 ;    1.2002e+02    5.3279e+02 ;     C1 - C2   - C4       CA -   CA - CA  
     1      2     17      1 ;    1.1988e+02    3.7572e+02 ;     C1 - C2   - H2       CA -   CA - HA  
     1      3      5      1 ;    1.2002e+02    5.3279e+02 ;     C1 - C3   - C5       CA -   CA - CA  
     1      3     18      1 ;    1.1988e+02    3.7572e+02 ;     C1 - C3   - H3       CA -   CA - HA  
     2      1      3      1 ;    1.2002e+02    5.3279e+02 ;     C2 - C1   - C3       CA -   CA - CA  
     2      1     16      1 ;    1.1988e+02    3.7572e+02 ;     C2 - C1   - H1       CA -   CA - HA  
     2      4      6      1 ;    1.2002e+02    5.3279e+02 ;     C2 - C4   - C6       CA -   CA - CA  
     2      4     19      1 ;    1.1988e+02    3.7572e+02 ;     C2 - C4   - H4       CA -   CA - HA  
     3      1     16      1 ;    1.1988e+02    3.7572e+02 ;     C3 - C1   - H1       CA -   CA - HA  
     3      5      6      1 ;    1.2002e+02    5.3279e+02 ;     C3 - C5   - C6       CA -   CA - CA  
     3      5     20      1 ;    1.1988e+02    3.7572e+02 ;     C3 - C5   - H5       CA -   CA - HA  
     4      2     17      1 ;    1.1988e+02    3.7572e+02 ;     C4 - C2   - H2       CA -   CA - HA  
     4      6      5      1 ;    1.2002e+02    5.3279e+02 ;     C4 - C6   - C5       CA -   CA - CA  
     4      6     12      1 ;    1.2019e+02    5.6032e+02 ;     C4 - C6   - N2       CA -   CA - N   
     5      3     18      1 ;    1.1988e+02    3.7572e+02 ;     C5 - C3   - H3       CA -   CA - HA  
     5      6     12      1 ;    1.2019e+02    5.6032e+02 ;     C5 - C6   - N2       CA -   CA - N   
     6      4     19      1 ;    1.1988e+02    3.7572e+02 ;     C6 - C4   - H4       CA -   CA - HA  
     6      5     20      1 ;    1.1988e+02    3.7572e+02 ;     C6 - C5   - H5       CA -   CA - HA  
     6     12     10      1 ;    1.2266e+02    6.4609e+02 ;     C6 - N2   - C10      CA -    N - C   
     6     12     11      1 ;    1.1395e+02    7.1839e+02 ;     C6 - N2   - N1       CA -    N - NB  
     7      8      9      1 ;    1.1919e+02    5.3363e+02 ;     C7 - C8   - C9       C* -   C* - C*  
     7      8     13      1 ;    1.2028e+02    5.6476e+02 ;     C7 - C8   - N3       C* -   C* - x   
     7     11     12      1 ;    1.0740e+02    7.6952e+02 ;     C7 - N1   - N2       C* -   NB - N   
     8      7     11      1 ;    1.2605e+02    5.6091e+02 ;     C8 - C7   - N1       C* -   C* - NB  
     8      7     21      1 ;    1.2688e+02    3.5941e+02 ;     C8 - C7   - H6       C* -   C* - HA  
     8      9     10      1 ;    1.2132e+02    5.1965e+02 ;     C8 - C9   - C10      C* -   C* - C   
     8      9     15      1 ;    1.2336e+02    5.3513e+02 ;     C8 - C9   - CL1      C* -   C* - x   
     8     13     22      1 ;    1.1650e+02    4.8526e+02 ;     C8 - N3   - H7       C* -    x - H   
     8     13     23      1 ;    1.1650e+02    4.8526e+02 ;     C8 - N3   - H8       C* -    x - H   
     9      8     13      1 ;    1.2647e+02    5.6216e+02 ;     C9 - C8   - N3       C* -   C* - x   
     9     10     12      1 ;    1.1259e+02    5.6844e+02 ;     C9 - C10  - N2       C* -    C - N   
     9     10     14      1 ;    1.2371e+02    6.5530e+02 ;     C9 - C10  - O1       C* -    C - O   
    10      9     15      1 ;    1.1644e+02    5.4099e+02 ;    C10 - C9   - CL1       C -   C* - x   
    10     12     11      1 ;    1.2514e+02    6.9237e+02 ;    C10 - N2   - N1        C -    N - NB  
    11      7     21      1 ;    1.1836e+02    4.2133e+02 ;     N1 - C7   - H6       NB -   C* - HA  
    12     10     14      1 ;    1.2257e+02    7.2534e+02 ;     N2 - C10  - O1        N -    C - O   
    22     13     23      1 ;    1.1528e+02    3.8794e+02 ;     H7 - N3   - H8        H -    x - H   

[ dihedrals ] ; propers
; for gromacs 4.5 or higher, using funct 9
;    i      j      k      l   func   phase     kd      pn
     1      2      4      6      9 ;   180.00  15.16700   2 ;     C1-    C2-    C4-    C6
     1      2      4     19      9 ;   180.00  15.16700   2 ;     C1-    C2-    C4-    H4
     1      3      5      6      9 ;   180.00  15.16700   2 ;     C1-    C3-    C5-    C6
     1      3      5     20      9 ;   180.00  15.16700   2 ;     C1-    C3-    C5-    H5
     2      1      3      5      9 ;   180.00  15.16700   2 ;     C2-    C1-    C3-    C5
     2      1      3     18      9 ;   180.00  15.16700   2 ;     C2-    C1-    C3-    H3
     2      4      6      5      9 ;   180.00  15.16700   2 ;     C2-    C4-    C6-    C5
     2      4      6     12      9 ;   180.00  15.16700   2 ;     C2-    C4-    C6-    N2
     3      1      2      4      9 ;   180.00  15.16700   2 ;     C3-    C1-    C2-    C4
     3      1      2     17      9 ;   180.00  15.16700   2 ;     C3-    C1-    C2-    H2
     3      5      6      4      9 ;   180.00  15.16700   2 ;     C3-    C5-    C6-    C4
     3      5      6     12      9 ;   180.00  15.16700   2 ;     C3-    C5-    C6-    N2
     4      6      5     20      9 ;   180.00  15.16700   2 ;     C4-    C6-    C5-    H5
     4      6     12     10      9 ;   180.00   3.97480   2 ;     C4-    C6-    N2-   C10
     4      6     12     11      9 ;   180.00   1.88280   2 ;     C4-    C6-    N2-    N1
     5      6      4     19      9 ;   180.00  15.16700   2 ;     C5-    C6-    C4-    H4
     5      6     12     10      9 ;   180.00   3.97480   2 ;     C5-    C6-    N2-   C10
     5      6     12     11      9 ;   180.00   1.88280   2 ;     C5-    C6-    N2-    N1
     6      4      2     17      9 ;   180.00  15.16700   2 ;     C6-    C4-    C2-    H2
     6      5      3     18      9 ;   180.00  15.16700   2 ;     C6-    C5-    C3-    H3
     6     12     10      9      9 ;   180.00  10.46000   2 ;     C6-    N2-   C10-    C9
     6     12     10     14      9 ;   180.00  10.46000   2 ;     C6-    N2-   C10-    O1
     6     12     11      7      9 ;   180.00  20.08320   2 ;     C6-    N2-    N1-    C7
     7      8      9     10      9 ;   180.00  16.73600   2 ;     C7-    C8-    C9-   C10
     7      8      9     15      9 ;   180.00  16.73600   2 ;     C7-    C8-    C9-   CL1
     7      8     13     22      9 ;   180.00   4.39320   2 ;     C7-    C8-    N3-    H7
     7      8     13     23      9 ;   180.00   4.39320   2 ;     C7-    C8-    N3-    H8
     7     11     12     10      9 ;   180.00  20.08320   2 ;     C7-    N1-    N2-   C10
     8      7     11     12      9 ;   180.00  19.87400   2 ;     C8-    C7-    N1-    N2
     8      9     10     12      9 ;   180.00  12.02900   2 ;     C8-    C9-   C10-    N2
     8      9     10     14      9 ;   180.00  12.02900   2 ;     C8-    C9-   C10-    O1
     9      8      7     11      9 ;   180.00  16.73600   2 ;     C9-    C8-    C7-    N1
     9      8      7     21      9 ;   180.00  16.73600   2 ;     C9-    C8-    C7-    H6
     9      8     13     22      9 ;   180.00   4.39320   2 ;     C9-    C8-    N3-    H7
     9      8     13     23      9 ;   180.00   4.39320   2 ;     C9-    C8-    N3-    H8
     9     10     12     11      9 ;   180.00  10.46000   2 ;     C9-   C10-    N2-    N1
    10      9      8     13      9 ;   180.00  16.73600   2 ;    C10-    C9-    C8-    N3
    11      7      8     13      9 ;   180.00  16.73600   2 ;     N1-    C7-    C8-    N3
    11     12     10     14      9 ;   180.00  10.46000   2 ;     N1-    N2-   C10-    O1
    12      6      4     19      9 ;   180.00  15.16700   2 ;     N2-    C6-    C4-    H4
    12      6      5     20      9 ;   180.00  15.16700   2 ;     N2-    C6-    C5-    H5
    12     10      9     15      9 ;   180.00  12.02900   2 ;     N2-   C10-    C9-   CL1
    12     11      7     21      9 ;   180.00  19.87400   2 ;     N2-    N1-    C7-    H6
    13      8      7     21      9 ;   180.00  16.73600   2 ;     N3-    C8-    C7-    H6
    13      8      9     15      9 ;   180.00  16.73600   2 ;     N3-    C8-    C9-   CL1
    14     10      9     15      9 ;   180.00  12.02900   2 ;     O1-   C10-    C9-   CL1
    16      1      2      4      9 ;   180.00  15.16700   2 ;     H1-    C1-    C2-    C4
    16      1      2     17      9 ;   180.00  15.16700   2 ;     H1-    C1-    C2-    H2
    16      1      3      5      9 ;   180.00  15.16700   2 ;     H1-    C1-    C3-    C5
    16      1      3     18      9 ;   180.00  15.16700   2 ;     H1-    C1-    C3-    H3
    17      2      4     19      9 ;   180.00  15.16700   2 ;     H2-    C2-    C4-    H4
    18      3      5     20      9 ;   180.00  15.16700   2 ;     H3-    C3-    C5-    H5

[ dihedrals ] ; impropers
; treated as propers in GROMACS to use correct AMBER analytical function
;    i      j      k      l   func   phase     kd      pn
     1      4      2     17      4 ;   180.00   4.60240   2 ;     C1-    C4-    C2-    H2
     1      5      3     18      4 ;   180.00   4.60240   2 ;     C1-    C5-    C3-    H3
     2      6      4     19      4 ;   180.00   4.60240   2 ;     C2-    C6-    C4-    H4
     3      6      5     20      4 ;   180.00   4.60240   2 ;     C3-    C6-    C5-    H5
     4      5      6     12      4 ;   180.00   4.60240   2 ;     C4-    C5-    C6-    N2
     7      9      8     13      4 ;   180.00   4.60240   2 ;     C7-    C9-    C8-    N3
     8     21      7     11      4 ;   180.00   4.60240   2 ;     C8-    H6-    C7-    N1
     8     22     13     23      4 ;   180.00   4.60240   2 ;     C8-    H7-    N3-    H8
     9     12     10     14      4 ;   180.00  43.93200   2 ;     C9-    N2-   C10-    O1
    10      6     12     11      4 ;   180.00   4.60240   2 ;    C10-    C6-    N2-    N1
    10      8      9     15      4 ;   180.00   4.60240   2 ;    C10-    C8-    C9-   CL1
    16      1      3      2      4 ;   180.00   4.60240   2 ;     H1-    C1-    C3-    C2
