%VERSION  VERSION_STAMP = V0001.000  DATE = 05/20/26  23:59:27                  
%FLAG TITLE                                                                     
%FORMAT(20a4)                                                                   
CUP08049_AM1BCC_v1_0                                                            
%FLAG POINTERS                                                                  
%FORMAT(10I8)                                                                   
      23       9       8      16      15      22      30      34       0       0
     112       1      16      22      34      14      21      11      12       0
       0       0       0       0       0       0       0       0      23       0
       0
%FLAG ATOM_NAME                                                                 
%FORMAT(20a4)                                                                   
C1  C2  C3  C4  C5  C6  C7  C8  C9  C10 N1  N2  N3  O1  Cl1 H1  H2  H3  H4  H5  
H6  H7  H8  
%FLAG CHARGE                                                                    
%FORMAT(5E16.8)                                                                 
 -2.29600980E+00 -2.29600980E+00 -2.29600980E+00 -2.02267530E+00 -2.02267530E+00
  9.58492980E-01  5.42113425E+00  2.48552172E+00 -3.87770544E+00  1.28776994E+01
 -7.02105219E+00 -2.25956520E+00 -1.53723323E+01 -1.07967128E+01 -1.13707152E+00
  2.44178820E+00  2.48734395E+00  2.48734395E+00  2.74245615E+00  2.74245615E+00
  9.25692840E-01  7.92305604E+00  7.92305604E+00
%FLAG ATOMIC_NUMBER                                                             
%FORMAT(10I8)                                                                   
       6       6       6       6       6       6       6       6       6       6
       7       7       7       8      17       1       1       1       1       1
       1       1       1
%FLAG MASS                                                                      
%FORMAT(5E16.8)                                                                 
  1.20100000E+01  1.20100000E+01  1.20100000E+01  1.20100000E+01  1.20100000E+01
  1.20100000E+01  1.20100000E+01  1.20100000E+01  1.20100000E+01  1.20100000E+01
  1.40100000E+01  1.40100000E+01  1.40100000E+01  1.60000000E+01  3.54500000E+01
  1.00800000E+00  1.00800000E+00  1.00800000E+00  1.00800000E+00  1.00800000E+00
  1.00800000E+00  1.00800000E+00  1.00800000E+00
%FLAG ATOM_TYPE_INDEX                                                           
%FORMAT(10I8)                                                                   
       1       1       1       1       1       1       1       1       1       1
       2       3       4       5       6       7       7       7       7       7
       8       9       9
%FLAG NUMBER_EXCLUDED_ATOMS                                                     
%FORMAT(10I8)                                                                   
      10       9       8       9       8      10      10      10       9       5
       4       5       4       1       1       2       1       1       1       1
       1       1       1
%FLAG NONBONDED_PARM_INDEX                                                      
%FORMAT(10I8)                                                                   
       1       2       4       7      11      16      22      29      37       2
       3       5       8      12      17      23      30      38       4       5
       6       9      13      18      24      31      39       7       8       9
      10      14      19      25      32      40      11      12      13      14
      15      20      26      33      41      16      17      18      19      20
      21      27      34      42      22      23      24      25      26      27
      28      35      43      29      30      31      32      33      34      35
      36      44      37      38      39      40      41      42      43      44
      45
%FLAG RESIDUE_LABEL                                                             
%FORMAT(20a4)                                                                   
MOL 
%FLAG RESIDUE_POINTER                                                           
%FORMAT(10I8)                                                                   
       1
%FLAG BOND_FORCE_CONSTANT                                                       
%FORMAT(5E16.8)                                                                 
  3.54250000E+02  3.60690000E+02  2.91110000E+02  3.22020000E+02  4.19720000E+02
  3.68720000E+02  3.86240000E+02  3.49260000E+02  2.78120000E+02  2.00420000E+02
  3.17460000E+02  5.90600000E+02  2.79360000E+02  4.77540000E+02
%FLAG BOND_EQUIL_VALUE                                                          
%FORMAT(5E16.8)                                                                 
  1.39860000E+00  1.08600000E+00  1.42280000E+00  1.42740000E+00  1.31580000E+00
  1.08090000E+00  1.37300000E+00  1.36850000E+00  1.47280000E+00  1.73330000E+00
  1.39670000E+00  1.21900000E+00  1.36830000E+00  1.01140000E+00
%FLAG ANGLE_FORCE_CONSTANT                                                      
%FORMAT(5E16.8)                                                                 
  6.36700000E+01  4.49000000E+01  6.69600000E+01  7.72100000E+01  8.58500000E+01
  6.37700000E+01  6.74900000E+01  9.19600000E+01  6.70300000E+01  4.29500000E+01
  6.21000000E+01  6.39500000E+01  5.79900000E+01  6.71800000E+01  6.79300000E+01
  7.83100000E+01  6.46500000E+01  8.27400000E+01  5.03500000E+01  8.66800000E+01
  4.63600000E+01
%FLAG ANGLE_EQUIL_VALUE                                                         
%FORMAT(5E16.8)                                                                 
  2.09474507E+00  2.09230160E+00  2.09771213E+00  2.14082178E+00  1.98880354E+00
  2.08025883E+00  2.09928292E+00  1.87448442E+00  2.19998847E+00  2.21447470E+00
  2.11743436E+00  2.15303909E+00  2.03330945E+00  2.20731885E+00  1.96506705E+00
  2.15914774E+00  2.03226225E+00  2.18410596E+00  2.06577259E+00  2.13925098E+00
  2.01201642E+00
%FLAG DIHEDRAL_FORCE_CONSTANT                                                   
%FORMAT(5E16.8)                                                                 
  3.62500000E+00  9.50000000E-01  4.50000000E-01  2.50000000E+00  4.80000000E+00
  4.00000000E+00  1.05000000E+00  4.75000000E+00  2.87500000E+00  1.10000000E+00
  1.05000000E+01
%FLAG DIHEDRAL_PERIODICITY                                                      
%FORMAT(5E16.8)                                                                 
  2.00000000E+00  2.00000000E+00  2.00000000E+00  2.00000000E+00  2.00000000E+00
  2.00000000E+00  2.00000000E+00  2.00000000E+00  2.00000000E+00  2.00000000E+00
  2.00000000E+00
%FLAG DIHEDRAL_PHASE                                                            
%FORMAT(5E16.8)                                                                 
  3.14159400E+00  3.14159400E+00  3.14159400E+00  3.14159400E+00  3.14159400E+00
  3.14159400E+00  3.14159400E+00  3.14159400E+00  3.14159400E+00  3.14159400E+00
  3.14159400E+00
%FLAG SCEE_SCALE_FACTOR                                                         
%FORMAT(5E16.8)                                                                 
  1.20000000E+00  1.20000000E+00  1.20000000E+00  1.20000000E+00  1.20000000E+00
  1.20000000E+00  1.20000000E+00  1.20000000E+00  1.20000000E+00  0.00000000E+00
  0.00000000E+00
%FLAG SCNB_SCALE_FACTOR                                                         
%FORMAT(5E16.8)                                                                 
  2.00000000E+00  2.00000000E+00  2.00000000E+00  2.00000000E+00  2.00000000E+00
  2.00000000E+00  2.00000000E+00  2.00000000E+00  2.00000000E+00  0.00000000E+00
  0.00000000E+00
%FLAG SOLTY                                                                     
%FORMAT(5E16.8)                                                                 
  0.00000000E+00  0.00000000E+00  0.00000000E+00  0.00000000E+00  0.00000000E+00
  0.00000000E+00  0.00000000E+00  0.00000000E+00  0.00000000E+00  0.00000000E+00
  0.00000000E+00  0.00000000E+00
%FLAG LENNARD_JONES_ACOEF                                                       
%FORMAT(5E16.8)                                                                 
  6.96551276E+05  7.69642101E+05  8.49322032E+05  7.01106848E+05  7.76656876E+05
  7.02078680E+05  8.15855629E+05  9.00584118E+05  8.22806637E+05  9.54875571E+05
  5.17507491E+05  5.74782316E+05  5.15491878E+05  6.08567325E+05  3.76435470E+05
  1.49062160E+06  1.64251971E+06  1.50866868E+06  1.74224911E+06  1.11993097E+06
  3.17107030E+06  7.52549148E+04  8.43518904E+04  7.35931098E+04  8.91217989E+04
  5.27277400E+04  1.66104821E+05  6.90855956E+03  6.27751680E+04  7.05112106E+04
  6.11299385E+04  7.44624759E+04  4.36069364E+04  1.39186903E+05  5.62610481E+03
  4.56536476E+03  1.71458823E+03  2.01475241E+03  1.52360475E+03  2.10567903E+03
  9.87857350E+02  4.18912581E+03  9.04434904E+01  6.76796831E+01  1.34728399E-01
%FLAG LENNARD_JONES_BCOEF                                                       
%FORMAT(5E16.8)                                                                 
  5.24668528E+02  5.44830041E+02  5.65406768E+02  5.97113873E+02  6.20851625E+02
  6.77820248E+02  5.85909304E+02  6.08126668E+02  6.67466109E+02  6.54052181E+02
  4.98871431E+02  5.19385932E+02  5.64804067E+02  5.58212938E+02  4.69350655E+02
  9.81118883E+02  1.01742263E+03  1.11967364E+03  1.09448125E+03  9.38113535E+02
  1.82923847E+03  1.09570372E+02  1.14599119E+02  1.22913863E+02  1.23036209E+02
  1.01173582E+02  2.08087638E+02  2.10929191E+01  1.00073628E+02  1.04776275E+02
  1.12023534E+02  1.12463011E+02  9.20079458E+01  1.90482178E+02  1.90347353E+01
  1.71467049E+01  1.46824710E+01  1.57231024E+01  1.57004457E+01  1.67892226E+01
  1.22938581E+01  2.93366416E+01  2.14252117E+00  1.85338491E+00  7.34107347E-02
%FLAG BONDS_INC_HYDROGEN                                                        
%FORMAT(10I8)                                                                   
       0      45       2       3      48       2       6      51       2       9
      54       2      12      57       2      18      60       6      36      63
      14      36      66      14
%FLAG BONDS_WITHOUT_HYDROGEN                                                    
%FORMAT(10I8)                                                                   
       0       3       1       0       6       1       3       9       1       6
      12       1       9      15       1      12      15       1      15      33
       3      18      21       4      18      30       5      21      24       7
      21      36       8      24      27       9      24      42      10      27
      33      11      27      39      12      30      33      13
%FLAG ANGLES_INC_HYDROGEN                                                       
%FORMAT(10I8)                                                                   
       0       3      48       2       0       6      51       2       3       0
      45       2       3       9      54       2       6       0      45       2
       6      12      57       2       9       3      48       2      12       6
      51       2      15       9      54       2      15      12      57       2
      21      18      60      10      21      36      63      13      21      36
      66      13      30      18      60      19      63      36      66      21
%FLAG ANGLES_WITHOUT_HYDROGEN                                                   
%FORMAT(10I8)                                                                   
       0       3       9       1       0       6      12       1       3       0
       6       1       3       9      15       1       6      12      15       1
       9      15      12       1       9      15      33       3      12      15
      33       3      15      33      27       4      15      33      30       5
      18      21      24       6      18      21      36       7      18      30
      33       8      21      18      30       9      21      24      27      11
      21      24      42      12      24      21      36      14      24      27
      33      15      24      27      39      16      27      24      42      17
      27      33      30      18      33      27      39      20
%FLAG DIHEDRALS_INC_HYDROGEN                                                    
%FORMAT(10I8)                                                                   
       0       3       9      54       1       0       6      12      57       1
       3       0       6      51       1       6       0       3      48       1
      45       0       3       9       1       9      15      12      57       1
      45       0       6      12       1      12      15       9      54       1
      15       9       3      48       1      15      12       6      51       1
      18      21      36      63       7      18      21      36      66       7
      24      21      18      60       6      24      21      36      63       7
      24      21      36      66       7      33      15       9      54       1
      33      15      12      57       1      33      30      18      60       8
      36      21      18      60       6      45       0       3      48       1
      45       0       6      51       1      48       3       9      54       1
      51       6      12      57       1      45       0      -6      -3      10
       0       9      -3     -48      10       0      12      -6     -51      10
       3      15      -9     -54      10       6      15     -12     -57      10
      21      60     -18     -30      10      21      63     -36     -66      10
%FLAG DIHEDRALS_WITHOUT_HYDROGEN                                                
%FORMAT(10I8)                                                                   
       0       3       9      15       1       0       6     -12      15       1
       3       0       6      12       1       3       9     -15      12       1
       3       9      15      33       1       6       0       3       9       1
       6      12     -15       9       1       6      12      15      33       1
       9      15      33      27       2       9      15      33      30       3
      12      15      33      27       2      12      15      33      30       3
      15      33      27      24       4      15      33      27      39       4
      15      33      30      18       5      18      21      24      27       6
      18      21      24      42       6      18      30     -33      27       5
      21      18      30      33       8      21      24     -27      33       9
      21      24      27      39       9      24      21      18      30       6
      24      27     -33      30       4      27      24      21      36       6
      30      18      21      36       6      30      33      27      39       4
      33      27      24      42       9      36      21      24      42       6
      39      27      24      42       9       9      12     -15     -33      10
      18      24     -21     -36      10      27      21     -24     -42      10
      24      33     -27     -39      11      27      15     -33     -30      10
%FLAG EXCLUDED_ATOMS_LIST                                                       
%FORMAT(10I8)                                                                   
       2       3       4       5       6      16      17      18      19      20
       3       4       5       6      12      16      17      18      19       4
       5       6      12      16      17      18      20       5       6      10
      11      12      16      17      19      20       6      10      11      12
      16      18      19      20       7       9      10      11      12      14
      17      18      19      20       8       9      10      11      12      13
      15      21      22      23       9      10      11      12      13      14
      15      21      22      23      10      11      12      13      14      15
      21      22      23      11      12      13      14      15      12      13
      14      21      14      15      19      20      21      15      21      22
      23      15       0      17      18      19      20       0       0       0
      23       0
%FLAG HBOND_ACOEF                                                               
%FORMAT(5E16.8)                                                                 

%FLAG HBOND_BCOEF                                                               
%FORMAT(5E16.8)                                                                 

%FLAG HBCUT                                                                     
%FORMAT(5E16.8)                                                                 

%FLAG AMBER_ATOM_TYPE                                                           
%FORMAT(20a4)                                                                   
ca  ca  ca  ca  ca  ca  cc  cc  cd  c   nd  n   nv  o   cl  ha  ha  ha  ha  ha  
h4  hn  hn  
%FLAG TREE_CHAIN_CLASSIFICATION                                                 
%FORMAT(20a4)                                                                   
BLA BLA BLA BLA BLA BLA BLA BLA BLA BLA BLA BLA BLA BLA BLA BLA BLA BLA BLA BLA 
BLA BLA BLA 
%FLAG JOIN_ARRAY                                                                
%FORMAT(10I8)                                                                   
       0       0       0       0       0       0       0       0       0       0
       0       0       0       0       0       0       0       0       0       0
       0       0       0
%FLAG IROTAT                                                                    
%FORMAT(10I8)                                                                   
       0       0       0       0       0       0       0       0       0       0
       0       0       0       0       0       0       0       0       0       0
       0       0       0
%FLAG RADIUS_SET                                                                
%FORMAT(1a80)                                                                   
modified Bondi radii (mbondi)                                                   
%FLAG RADII                                                                     
%FORMAT(5E16.8)                                                                 
  1.70000000E+00  1.70000000E+00  1.70000000E+00  1.70000000E+00  1.70000000E+00
  1.70000000E+00  1.70000000E+00  1.70000000E+00  1.70000000E+00  1.70000000E+00
  1.55000000E+00  1.55000000E+00  1.55000000E+00  1.50000000E+00  1.70000000E+00
  1.30000000E+00  1.30000000E+00  1.30000000E+00  1.30000000E+00  1.30000000E+00
  1.30000000E+00  1.30000000E+00  1.30000000E+00
%FLAG SCREEN                                                                    
%FORMAT(5E16.8)                                                                 
  7.20000000E-01  7.20000000E-01  7.20000000E-01  7.20000000E-01  7.20000000E-01
  7.20000000E-01  7.20000000E-01  7.20000000E-01  7.20000000E-01  7.20000000E-01
  7.90000000E-01  7.90000000E-01  7.90000000E-01  8.50000000E-01  8.00000000E-01
  8.50000000E-01  8.50000000E-01  8.50000000E-01  8.50000000E-01  8.50000000E-01
  8.50000000E-01  8.50000000E-01  8.50000000E-01
%FLAG IPOL                                                                      
%FORMAT(1I8)                                                                    
       0
