mobley_2523689_GMX.gro created by acpype (v: 2023.10.27) on Wed May 20 23:59:23 2026
 23
    1  MOL   C1    1   0.610   0.083  -0.670
    1  MOL   C2    2   0.478   0.120  -0.691
    1  MOL   C3    3   0.647   0.028  -0.548
    1  MOL   C4    4   0.382   0.102  -0.590
    1  MOL   C5    5   0.551   0.010  -0.447
    1  MOL   C6    6   0.416   0.047  -0.466
    1  MOL   C7    7   0.300  -0.049  -0.143
    1  MOL   C8    8   0.156  -0.021  -0.133
    1  MOL   C9    9   0.103   0.030  -0.244
    1  MOL  C10   10   0.183   0.058  -0.368
    1  MOL   N1   11   0.377  -0.028  -0.245
    1  MOL   N2   12   0.320   0.027  -0.359
    1  MOL   N3   13   0.092  -0.050  -0.013
    1  MOL   O1   14   0.126   0.105  -0.466
    1  MOL  CL1   15  -0.066   0.070  -0.249
    1  MOL   H1   16   0.684   0.097  -0.748
    1  MOL   H2   17   0.448   0.164  -0.786
    1  MOL   H3   18   0.750  -0.002  -0.530
    1  MOL   H4   19   0.281   0.134  -0.614
    1  MOL   H5   20   0.584  -0.034  -0.354
    1  MOL   H6   21   0.347  -0.094  -0.053
    1  MOL   H7   22   0.149  -0.031   0.070
    1  MOL   H8   23  -0.000  -0.007  -0.006
   16.31000     5.15200    17.11400
