mobley_951560_GMX.gro created by acpype (v: 2023.10.27) on Wed May 20 23:59:20 2026
   16
    1MOL     C1    1   2.159   2.275   2.132
    1MOL     C2    2   2.159   2.137   2.198
    1MOL     C3    3   2.328   2.349   2.287
    1MOL     C4    4   2.327   2.211   2.353
    1MOL     N1    5   2.198   2.379   2.227
    1MOL     N2    6   2.289   2.106   2.258
    1MOL     H1    7   2.227   2.275   2.046
    1MOL     H2    8   2.059   2.297   2.094
    1MOL     H3    9   2.080   2.132   2.275
    1MOL     H4   10   2.136   2.061   2.123
    1MOL     H5   11   2.351   2.425   2.363
    1MOL     H6   12   2.407   2.354   2.211
    1MOL     H7   13   2.428   2.189   2.392
    1MOL     H8   14   2.259   2.210   2.439
    1MOL     H9   15   2.203   2.469   2.179
    1MOL    H10   16   2.283   2.016   2.307
   4.48645   4.48645   4.48645
