; mobley_4603202_GMX.itp created by acpype (v: 2023.10.27) on Thu May 21 00:02:05 2026

[ atomtypes ]
;name   bond_type     mass     charge   ptype   sigma         epsilon       Amb
 c3       c3          0.00000  0.00000   A     3.39771e-01   4.51035e-01 ; 1.91  0.1078
 os       os          0.00000  0.00000   A     3.15610e-01   3.03758e-01 ; 1.77  0.0726
 cl       cl          0.00000  0.00000   A     3.46595e-01   1.10374e+00 ; 1.95  0.2638
 h1       h1          0.00000  0.00000   A     2.42200e-01   8.70272e-02 ; 1.36  0.0208

[ moleculetype ]
;name            nrexcl
 mobley_4603202   3

[ atoms ]
;   nr  type  resi  res  atom  cgnr     charge      mass       ; qtot   bond_type
     1   c3     1   MOL    C1    1     0.122400     12.01000 ; qtot 0.122
     2   c3     1   MOL    C2    2     0.122400     12.01000 ; qtot 0.245
     3   c3     1   MOL    C3    3     0.029000     12.01000 ; qtot 0.274
     4   c3     1   MOL    C4    4     0.029000     12.01000 ; qtot 0.303
     5   os     1   MOL    O1    5    -0.427600     16.00000 ; qtot -0.125
     6   cl     1   MOL   CL1    6    -0.182400     35.45000 ; qtot -0.307
     7   cl     1   MOL   CL2    7    -0.182400     35.45000 ; qtot -0.490
     8   h1     1   MOL    H1    8     0.043700      1.00800 ; qtot -0.446
     9   h1     1   MOL    H2    9     0.043700      1.00800 ; qtot -0.402
    10   h1     1   MOL    H3   10     0.043700      1.00800 ; qtot -0.358
    11   h1     1   MOL    H4   11     0.043700      1.00800 ; qtot -0.315
    12   h1     1   MOL    H5   12     0.078700      1.00800 ; qtot -0.236
    13   h1     1   MOL    H6   13     0.078700      1.00800 ; qtot -0.157
    14   h1     1   MOL    H7   14     0.078700      1.00800 ; qtot -0.079
    15   h1     1   MOL    H8   15     0.078700      1.00800 ; qtot 0.000

[ bonds ]
;   ai     aj funct   r             k
     1      3   1    1.5354e-01    1.9154e+05 ;     C1 - C3    
     1      5   1    1.4273e-01    2.3620e+05 ;     C1 - O1    
     1      8   1    1.0969e-01    2.8804e+05 ;     C1 - H1    
     1      9   1    1.0969e-01    2.8804e+05 ;     C1 - H2    
     2      4   1    1.5354e-01    1.9154e+05 ;     C2 - C4    
     2      5   1    1.4273e-01    2.3620e+05 ;     C2 - O1    
     2     10   1    1.0969e-01    2.8804e+05 ;     C2 - H3    
     2     11   1    1.0969e-01    2.8804e+05 ;     C2 - H4    
     3      6   1    1.8092e-01    1.3724e+05 ;     C3 - CL1   
     3     12   1    1.0969e-01    2.8804e+05 ;     C3 - H5    
     3     13   1    1.0969e-01    2.8804e+05 ;     C3 - H6    
     4      7   1    1.8092e-01    1.3724e+05 ;     C4 - CL2   
     4     14   1    1.0969e-01    2.8804e+05 ;     C4 - H7    
     4     15   1    1.0969e-01    2.8804e+05 ;     C4 - H8    

[ pairs ]
;   ai     aj    funct
     1      4      1 ;     C1 - C4    
     1     10      1 ;     C1 - H3    
     1     11      1 ;     C1 - H4    
     3      2      1 ;     C3 - C2    
     5      6      1 ;     O1 - CL1   
     5      7      1 ;     O1 - CL2   
     5     12      1 ;     O1 - H5    
     5     13      1 ;     O1 - H6    
     5     14      1 ;     O1 - H7    
     5     15      1 ;     O1 - H8    
     7     10      1 ;    CL2 - H3    
     7     11      1 ;    CL2 - H4    
     8      2      1 ;     H1 - C2    
     8      6      1 ;     H1 - CL1   
     8     12      1 ;     H1 - H5    
     8     13      1 ;     H1 - H6    
     9      2      1 ;     H2 - C2    
     9      6      1 ;     H2 - CL1   
     9     12      1 ;     H2 - H5    
     9     13      1 ;     H2 - H6    
    10     14      1 ;     H3 - H7    
    10     15      1 ;     H3 - H8    
    11     14      1 ;     H4 - H7    
    11     15      1 ;     H4 - H8    

[ angles ]
;   ai     aj     ak    funct   theta         cth
     1      3      6      1    1.1039e+02    5.3254e+02 ;     C1 - C3     - CL1   
     1      3     12      1    1.0959e+02    3.6217e+02 ;     C1 - C3     - H5    
     1      3     13      1    1.0959e+02    3.6217e+02 ;     C1 - C3     - H6    
     1      5      2      1    1.1360e+02    7.3915e+02 ;     C1 - O1     - C2    
     2      4      7      1    1.1039e+02    5.3254e+02 ;     C2 - C4     - CL2   
     2      4     14      1    1.0959e+02    3.6217e+02 ;     C2 - C4     - H7    
     2      4     15      1    1.0959e+02    3.6217e+02 ;     C2 - C4     - H8    
     3      1      5      1    1.0762e+02    6.4802e+02 ;     C3 - C1     - O1    
     3      1      8      1    1.0959e+02    3.6217e+02 ;     C3 - C1     - H1    
     3      1      9      1    1.0959e+02    3.6217e+02 ;     C3 - C1     - H2    
     4      2      5      1    1.0762e+02    6.4802e+02 ;     C4 - C2     - O1    
     4      2     10      1    1.0959e+02    3.6217e+02 ;     C4 - C2     - H3    
     4      2     11      1    1.0959e+02    3.6217e+02 ;     C4 - C2     - H4    
     5      1      8      1    1.1034e+02    4.7028e+02 ;     O1 - C1     - H1    
     5      1      9      1    1.1034e+02    4.7028e+02 ;     O1 - C1     - H2    
     5      2     10      1    1.1034e+02    4.7028e+02 ;     O1 - C2     - H3    
     5      2     11      1    1.1034e+02    4.7028e+02 ;     O1 - C2     - H4    
     6      3     12      1    1.0682e+02    3.6183e+02 ;    CL1 - C3     - H5    
     6      3     13      1    1.0682e+02    3.6183e+02 ;    CL1 - C3     - H6    
     7      4     14      1    1.0682e+02    3.6183e+02 ;    CL2 - C4     - H7    
     7      4     15      1    1.0682e+02    3.6183e+02 ;    CL2 - C4     - H8    
     8      1      9      1    1.0855e+02    2.9824e+02 ;     H1 - C1     - H2    
    10      2     11      1    1.0855e+02    2.9824e+02 ;     H3 - C2     - H4    
    12      3     13      1    1.0855e+02    2.9824e+02 ;     H5 - C3     - H6    
    14      4     15      1    1.0855e+02    2.9824e+02 ;     H7 - C4     - H8    

[ dihedrals ] ; propers
; for gromacs 4.5 or higher, using funct 9
;    i      j      k      l   func   phase     kd      pn
     1      5      2      4      9     0.00   0.33472   2 ;     C1-    O1-    C2-    C4
     1      5      2      4      9     0.00   3.13800   3 ;     C1-    O1-    C2-    C4
     1      5      2      4      9   180.00   3.68192   1 ;     C1-    O1-    C2-    C4
     1      5      2     10      9     0.00   1.41001   3 ;     C1-    O1-    C2-    H3
     1      5      2     11      9     0.00   1.41001   3 ;     C1-    O1-    C2-    H4
     3      1      5      2      9     0.00   0.33472   2 ;     C3-    C1-    O1-    C2
     3      1      5      2      9     0.00   3.13800   3 ;     C3-    C1-    O1-    C2
     3      1      5      2      9   180.00   3.68192   1 ;     C3-    C1-    O1-    C2
     5      1      3      6      9     0.00   0.65084   3 ;     O1-    C1-    C3-   CL1
     5      1      3     12      9     0.00   0.00000   0 ;     O1-    C1-    C3-    H5
     5      1      3     12      9     0.00   1.04600   1 ;     O1-    C1-    C3-    H5
     5      1      3     13      9     0.00   0.00000   0 ;     O1-    C1-    C3-    H6
     5      1      3     13      9     0.00   1.04600   1 ;     O1-    C1-    C3-    H6
     5      2      4      7      9     0.00   0.65084   3 ;     O1-    C2-    C4-   CL2
     5      2      4     14      9     0.00   0.00000   0 ;     O1-    C2-    C4-    H7
     5      2      4     14      9     0.00   1.04600   1 ;     O1-    C2-    C4-    H7
     5      2      4     15      9     0.00   0.00000   0 ;     O1-    C2-    C4-    H8
     5      2      4     15      9     0.00   1.04600   1 ;     O1-    C2-    C4-    H8
     7      4      2     10      9     0.00   0.00000   0 ;    CL2-    C4-    C2-    H3
     7      4      2     10      9     0.00   1.04600   1 ;    CL2-    C4-    C2-    H3
     7      4      2     11      9     0.00   0.00000   0 ;    CL2-    C4-    C2-    H4
     7      4      2     11      9     0.00   1.04600   1 ;    CL2-    C4-    C2-    H4
     8      1      3      6      9     0.00   0.00000   0 ;     H1-    C1-    C3-   CL1
     8      1      3      6      9     0.00   1.04600   1 ;     H1-    C1-    C3-   CL1
     8      1      3     12      9     0.00   0.65084   3 ;     H1-    C1-    C3-    H5
     8      1      3     13      9     0.00   0.65084   3 ;     H1-    C1-    C3-    H6
     8      1      5      2      9     0.00   1.41001   3 ;     H1-    C1-    O1-    C2
     9      1      3      6      9     0.00   0.00000   0 ;     H2-    C1-    C3-   CL1
     9      1      3      6      9     0.00   1.04600   1 ;     H2-    C1-    C3-   CL1
     9      1      3     12      9     0.00   0.65084   3 ;     H2-    C1-    C3-    H5
     9      1      3     13      9     0.00   0.65084   3 ;     H2-    C1-    C3-    H6
     9      1      5      2      9     0.00   1.41001   3 ;     H2-    C1-    O1-    C2
    10      2      4     14      9     0.00   0.65084   3 ;     H3-    C2-    C4-    H7
    10      2      4     15      9     0.00   0.65084   3 ;     H3-    C2-    C4-    H8
    11      2      4     14      9     0.00   0.65084   3 ;     H4-    C2-    C4-    H7
    11      2      4     15      9     0.00   0.65084   3 ;     H4-    C2-    C4-    H8
