clet2o.xyz
    15
   2.3160000   1.4220000   0.0000000   4.3800000   2.5580000   0.0000000
   1.7920000   0.0000000   0.0000000   5.8620000   2.2410000  -0.0000000
   3.7110000   1.3320000  -0.0000000   0.0000000   0.0000000   0.0000000
   6.8200000   3.7550000   0.0000000   1.9650000   1.9530000  -0.8810000
   1.9650000   1.9530000   0.8810000   4.1200000   3.1390000  -0.8810000
   4.1200000   3.1390000   0.8820000   2.1150000  -0.5310000  -0.8810000
   2.1150000  -0.5310000   0.8810000   6.1380000   1.6840000  -0.8820000
   6.1380000   1.6840000   0.8810000
