%VERSION  VERSION_STAMP = V0001.000  DATE = 05/21/26  00:02:05                  
%FLAG TITLE                                                                     
%FORMAT(20a4)                                                                   
clet2o.xyz                                                                      
%FLAG POINTERS                                                                  
%FORMAT(10I8)                                                                   
      15       4       8       6      20       5      28       8       0       0
      65       1       6       5       8       4       7       7       4       0
       0       0       0       0       0       0       0       0      15       0
       0
%FLAG ATOM_NAME                                                                 
%FORMAT(20a4)                                                                   
C1  C2  C3  C4  O1  Cl1 Cl2 H1  H2  H3  H4  H5  H6  H7  H8  
%FLAG CHARGE                                                                    
%FORMAT(5E16.8)                                                                 
  2.23040952E+00  2.23040952E+00  5.28446700E-01  5.28446700E-01 -7.84652238E+00
 -3.32374752E+00 -3.32374752E+00  7.96314510E-01  7.96314510E-01  7.96314510E-01
  7.96314510E-01  1.43409501E+00  1.43409501E+00  1.43409501E+00  1.43409501E+00
%FLAG ATOMIC_NUMBER                                                             
%FORMAT(10I8)                                                                   
       6       6       6       6       8      17      17       1       1       1
       1       1       1       1       1
%FLAG MASS                                                                      
%FORMAT(5E16.8)                                                                 
  1.20100000E+01  1.20100000E+01  1.20100000E+01  1.20100000E+01  1.60000000E+01
  3.54500000E+01  3.54500000E+01  1.00800000E+00  1.00800000E+00  1.00800000E+00
  1.00800000E+00  1.00800000E+00  1.00800000E+00  1.00800000E+00  1.00800000E+00
%FLAG ATOM_TYPE_INDEX                                                           
%FORMAT(10I8)                                                                   
       1       1       1       1       2       3       3       4       4       4
       4       4       4       4       4
%FLAG NUMBER_EXCLUDED_ATOMS                                                     
%FORMAT(10I8)                                                                   
      11      10       6       6      10       4       4       3       2       3
       2       1       1       1       1
%FLAG NONBONDED_PARM_INDEX                                                      
%FORMAT(10I8)                                                                   
       1       2       4       7       2       3       5       8       4       5
       6       9       7       8       9      10
%FLAG RESIDUE_LABEL                                                             
%FORMAT(20a4)                                                                   
MOL 
%FLAG RESIDUE_POINTER                                                           
%FORMAT(10I8)                                                                   
       1
%FLAG BOND_FORCE_CONSTANT                                                       
%FORMAT(5E16.8)                                                                 
  2.28890000E+02  2.82270000E+02  3.44220000E+02  1.64000000E+02
%FLAG BOND_EQUIL_VALUE                                                          
%FORMAT(5E16.8)                                                                 
  1.53540000E+00  1.42730000E+00  1.09690000E+00  1.80920000E+00
%FLAG ANGLE_FORCE_CONSTANT                                                      
%FORMAT(5E16.8)                                                                 
  6.36400000E+01  4.32800000E+01  8.83300000E+01  7.74400000E+01  5.62000000E+01
  4.32400000E+01  3.56400000E+01
%FLAG ANGLE_EQUIL_VALUE                                                         
%FORMAT(5E16.8)                                                                 
  1.92666979E+00  1.91270715E+00  1.98269488E+00  1.87832415E+00  1.92579712E+00
  1.86436151E+00  1.89455572E+00
%FLAG DIHEDRAL_FORCE_CONSTANT                                                   
%FORMAT(5E16.8)                                                                 
  8.80000000E-01  8.00000000E-02  7.50000000E-01  3.37000000E-01  1.55555556E-01
  2.50000000E-01  0.00000000E+00
%FLAG DIHEDRAL_PERIODICITY                                                      
%FORMAT(5E16.8)                                                                 
  1.00000000E+00  2.00000000E+00  3.00000000E+00  3.00000000E+00  3.00000000E+00
  1.00000000E+00  3.00000000E+00
%FLAG DIHEDRAL_PHASE                                                            
%FORMAT(5E16.8)                                                                 
  3.14159400E+00  0.00000000E+00  0.00000000E+00  0.00000000E+00  0.00000000E+00
  0.00000000E+00  0.00000000E+00
%FLAG SCEE_SCALE_FACTOR                                                         
%FORMAT(5E16.8)                                                                 
  1.20000000E+00  1.20000000E+00  1.20000000E+00  1.20000000E+00  1.20000000E+00
  1.20000000E+00  1.20000000E+00
%FLAG SCNB_SCALE_FACTOR                                                         
%FORMAT(5E16.8)                                                                 
  2.00000000E+00  2.00000000E+00  2.00000000E+00  2.00000000E+00  2.00000000E+00
  2.00000000E+00  2.00000000E+00
%FLAG SOLTY                                                                     
%FORMAT(5E16.8)                                                                 
  0.00000000E+00  0.00000000E+00  0.00000000E+00  0.00000000E+00
%FLAG LENNARD_JONES_ACOEF                                                       
%FORMAT(5E16.8)                                                                 
  1.02073671E+06  5.42502534E+05  2.83662575E+05  1.80018612E+06  9.60982218E+05
  3.17107030E+06  6.97998263E+04  3.44374471E+04  1.25585106E+05  3.39005767E+03
%FLAG LENNARD_JONES_BCOEF                                                       
%FORMAT(5E16.8)                                                                 
  6.63431737E+02  4.38146883E+02  2.87011518E+02  1.10195051E+03  7.29357620E+02
  1.82923847E+03  1.14981426E+02  7.31636661E+01  1.92900608E+02  1.67944276E+01
%FLAG BONDS_INC_HYDROGEN                                                        
%FORMAT(10I8)                                                                   
       0      21       3       0      24       3       3      27       3       3
      30       3       6      33       3       6      36       3       9      39
       3       9      42       3
%FLAG BONDS_WITHOUT_HYDROGEN                                                    
%FORMAT(10I8)                                                                   
       0       6       1       0      12       2       3       9       1       3
      12       2       6      15       4       9      18       4
%FLAG ANGLES_INC_HYDROGEN                                                       
%FORMAT(10I8)                                                                   
       0       6      33       2       0       6      36       2       3       9
      39       2       3       9      42       2       6       0      21       2
       6       0      24       2       9       3      27       2       9       3
      30       2      12       0      21       5      12       0      24       5
      12       3      27       5      12       3      30       5      15       6
      33       6      15       6      36       6      18       9      39       6
      18       9      42       6      21       0      24       7      27       3
      30       7      33       6      36       7      39       9      42       7
%FLAG ANGLES_WITHOUT_HYDROGEN                                                   
%FORMAT(10I8)                                                                   
       0       6      15       1       0      12       3       3       3       9
      18       1       6       0      12       4       9       3      12       4
%FLAG DIHEDRALS_INC_HYDROGEN                                                    
%FORMAT(10I8)                                                                   
       0      12       3      27       4       0      12       3      30       4
      21       0      12       3       4      24       0      12       3       4
      12       0       6      33       6      12       0      -6      33       7
      12       0       6      36       6      12       0      -6      36       7
      12       3       9      39       6      12       3      -9      39       7
      12       3       9      42       6      12       3      -9      42       7
      21       0       6      15       6      21       0      -6      15       7
      24       0       6      15       6      24       0      -6      15       7
      18       9       3      27       6      18       9      -3      27       7
      18       9       3      30       6      18       9      -3      30       7
      21       0       6      33       5      21       0       6      36       5
      24       0       6      33       5      24       0       6      36       5
      27       3       9      39       5      27       3       9      42       5
      30       3       9      39       5      30       3       9      42       5
%FLAG DIHEDRALS_WITHOUT_HYDROGEN                                                
%FORMAT(10I8)                                                                   
       0      12       3       9       1       0      12      -3       9       2
       0      12      -3       9       3       6       0      12       3       1
       6       0     -12       3       2       6       0     -12       3       3
      12       0       6      15       5      12       3       9      18       5
%FLAG EXCLUDED_ATOMS_LIST                                                       
%FORMAT(10I8)                                                                   
       2       3       4       5       6       8       9      10      11      12
      13       3       4       5       7       8       9      10      11      14
      15       5       6       8       9      12      13       5       7      10
      11      14      15       6       7       8       9      10      11      12
      13      14      15       8       9      12      13      10      11      14
      15       9      12      13      12      13      11      14      15      14
      15      13       0      15       0
%FLAG HBOND_ACOEF                                                               
%FORMAT(5E16.8)                                                                 

%FLAG HBOND_BCOEF                                                               
%FORMAT(5E16.8)                                                                 

%FLAG HBCUT                                                                     
%FORMAT(5E16.8)                                                                 

%FLAG AMBER_ATOM_TYPE                                                           
%FORMAT(20a4)                                                                   
c3  c3  c3  c3  os  cl  cl  h1  h1  h1  h1  h1  h1  h1  h1  
%FLAG TREE_CHAIN_CLASSIFICATION                                                 
%FORMAT(20a4)                                                                   
BLA BLA BLA BLA BLA BLA BLA BLA BLA BLA BLA BLA BLA BLA BLA 
%FLAG JOIN_ARRAY                                                                
%FORMAT(10I8)                                                                   
       0       0       0       0       0       0       0       0       0       0
       0       0       0       0       0
%FLAG IROTAT                                                                    
%FORMAT(10I8)                                                                   
       0       0       0       0       0       0       0       0       0       0
       0       0       0       0       0
%FLAG RADIUS_SET                                                                
%FORMAT(1a80)                                                                   
modified Bondi radii (mbondi)                                                   
%FLAG RADII                                                                     
%FORMAT(5E16.8)                                                                 
  1.70000000E+00  1.70000000E+00  1.70000000E+00  1.70000000E+00  1.50000000E+00
  1.70000000E+00  1.70000000E+00  1.30000000E+00  1.30000000E+00  1.30000000E+00
  1.30000000E+00  1.30000000E+00  1.30000000E+00  1.30000000E+00  1.30000000E+00
%FLAG SCREEN                                                                    
%FORMAT(5E16.8)                                                                 
  7.20000000E-01  7.20000000E-01  7.20000000E-01  7.20000000E-01  8.50000000E-01
  8.00000000E-01  8.00000000E-01  8.50000000E-01  8.50000000E-01  8.50000000E-01
  8.50000000E-01  8.50000000E-01  8.50000000E-01  8.50000000E-01  8.50000000E-01
%FLAG IPOL                                                                      
%FORMAT(1I8)                                                                    
       0
