mobley_2881590_GMX.gro created by acpype (v: 2023.10.27) on Wed May 20 23:56:00 2026
   17
    1MOL     C1    1   2.265   2.180   2.340
    1MOL     C2    2   2.284   2.333   2.142
    1MOL     C3    3   2.366   2.411   2.367
    1MOL     C4    4   2.348   2.290   2.274
    1MOL     N1    5   2.457   2.475   2.575
    1MOL     O1    6   2.518   2.439   2.676
    1MOL     O2    7   2.413   2.586   2.545
    1MOL     O3    8   2.437   2.370   2.483
    1MOL     H1    9   2.165   2.217   2.366
    1MOL     H2   10   2.313   2.144   2.432
    1MOL     H3   11   2.253   2.095   2.273
    1MOL     H4   12   2.185   2.375   2.158
    1MOL     H5   13   2.274   2.248   2.074
    1MOL     H6   14   2.346   2.408   2.092
    1MOL     H7   15   2.424   2.488   2.314
    1MOL     H8   16   2.268   2.451   2.394
    1MOL     H9   17   2.447   2.248   2.253
   4.67707   4.67707   4.67707
