mobley_8764620_GMX.gro created by acpype (v: 2023.10.27) on Wed May 20 23:56:43 2026
   12
    1MOL     C1    1   2.506   2.369   2.458
    1MOL     C2    2   2.255   2.356   2.185
    1MOL     C3    3   2.368   2.392   2.258
    1MOL     C4    4   2.169   2.261   2.240
    1MOL     C5    5   2.300   2.240   2.428
    1MOL     C6    6   2.391   2.334   2.381
    1MOL     N1    7   2.600   2.397   2.521
    1MOL     N2    8   2.189   2.203   2.360
    1MOL     H1    9   2.234   2.400   2.088
    1MOL     H2   10   2.436   2.466   2.216
    1MOL     H3   11   2.080   2.230   2.187
    1MOL     H4   12   2.313   2.191   2.524
   4.64019   4.64019   4.64019
