mobley_2078467_GMX.gro created by acpype (v: 2023.10.27) on Wed May 20 23:41:42 2026
   33
    1MOL     C1    1   2.681   2.535   2.518
    1MOL     C2    2   2.490   2.634   2.629
    1MOL     C3    3   2.626   2.568   2.394
    1MOL     C4    4   2.435   2.667   2.505
    1MOL     C5    5   2.613   2.568   2.635
    1MOL     C6    6   2.503   2.634   2.388
    1MOL     C7    7   2.311   2.599   2.230
    1MOL     C8    8   2.425   2.821   2.234
    1MOL     C9    9   2.673   2.281   2.726
    1MOL    C10   10   2.692   2.369   2.959
    1MOL    C11   11   2.673   2.532   2.769
    1MOL    C12   12   2.444   2.669   2.255
    1MOL    C13   13   2.631   2.393   2.821
    1MOL     O1   14   2.256   2.523   2.309
    1MOL     O2   15   2.258   2.627   2.108
    1MOL     H1   16   2.777   2.484   2.522
    1MOL     H2   17   2.437   2.660   2.720
    1MOL     H3   18   2.679   2.542   2.303
    1MOL     H4   19   2.340   2.718   2.501
    1MOL     H5   20   2.358   2.864   2.310
    1MOL     H6   21   2.522   2.873   2.241
    1MOL     H7   22   2.381   2.843   2.136
    1MOL     H8   23   2.782   2.280   2.711
    1MOL     H9   24   2.626   2.293   2.628
    1MOL    H10   25   2.643   2.184   2.765
    1MOL    H11   26   2.802   2.372   2.954
    1MOL    H12   27   2.660   2.445   3.031
    1MOL    H13   28   2.663   2.271   2.998
    1MOL    H14   29   2.783   2.539   2.764
    1MOL    H15   30   2.642   2.610   2.841
    1MOL    H16   31   2.513   2.635   2.176
    1MOL    H17   32   2.522   2.390   2.832
    1MOL    H18   33   2.173   2.583   2.087
   5.09172   5.09172   5.09172
