mobley_2078467_GMX.gro created by acpype (v: 2023.10.27) on Wed May 20 23:41:42 2026
 2400
    1MOL     C1    1   2.681   2.535   2.518
    1MOL     C2    2   2.490   2.634   2.629
    1MOL     C3    3   2.626   2.568   2.394
    1MOL     C4    4   2.435   2.667   2.505
    1MOL     C5    5   2.613   2.568   2.635
    1MOL     C6    6   2.503   2.634   2.388
    1MOL     C7    7   2.311   2.599   2.230
    1MOL     C8    8   2.425   2.821   2.234
    1MOL     C9    9   2.673   2.281   2.726
    1MOL    C10   10   2.692   2.369   2.959
    1MOL    C11   11   2.673   2.532   2.769
    1MOL    C12   12   2.444   2.669   2.255
    1MOL    C13   13   2.631   2.393   2.821
    1MOL     O1   14   2.256   2.523   2.309
    1MOL     O2   15   2.258   2.627   2.108
    1MOL     H1   16   2.777   2.484   2.522
    1MOL     H2   17   2.437   2.660   2.720
    1MOL     H3   18   2.679   2.542   2.303
    1MOL     H4   19   2.340   2.718   2.501
    1MOL     H5   20   2.358   2.864   2.310
    1MOL     H6   21   2.522   2.873   2.241
    1MOL     H7   22   2.381   2.843   2.136
    1MOL     H8   23   2.782   2.280   2.711
    1MOL     H9   24   2.626   2.293   2.628
    1MOL    H10   25   2.643   2.184   2.765
    1MOL    H11   26   2.802   2.372   2.954
    1MOL    H12   27   2.660   2.445   3.031
    1MOL    H13   28   2.663   2.271   2.998
    1MOL    H14   29   2.783   2.539   2.764
    1MOL    H15   30   2.642   2.610   2.841
    1MOL    H16   31   2.513   2.635   2.176
    1MOL    H17   32   2.522   2.390   2.832
    1MOL    H18   33   2.173   2.583   2.087
   97SOL     OW   34   1.592   1.629   1.625
   97SOL    HW1   35   1.619   1.663   1.535
   97SOL    HW2   36   1.671   1.591   1.671
  127SOL     OW   37   1.859   1.518   1.605
  127SOL    HW1   38   1.873   1.545   1.510
  127SOL    HW2   39   1.942   1.540   1.658
  152SOL     OW   40   1.759   1.747   1.154
  152SOL    HW1   41   1.820   1.777   1.081
  152SOL    HW2   42   1.721   1.658   1.132
  163SOL     OW   43   1.650   1.720   1.394
  163SOL    HW1   44   1.703   1.730   1.310
  163SOL    HW2   45   1.623   1.810   1.428
  219SOL     OW   46   1.555   1.511   2.565
  219SOL    HW1   47   1.498   1.495   2.646
  219SOL    HW2   48   1.496   1.521   2.485
  227SOL     OW   49   1.460   1.505   3.201
  227SOL    HW1   50   1.484   1.599   3.227
  227SOL    HW2   51   1.444   1.451   3.283
  238SOL     OW   52   1.842   1.767   2.221
  238SOL    HW1   53   1.896   1.738   2.301
  238SOL    HW2   54   1.872   1.857   2.192
  241SOL     OW   55   1.641   1.108   2.294
  241SOL    HW1   56   1.727   1.110   2.242
  241SOL    HW2   57   1.655   1.155   2.382
  250SOL     OW   58   1.466   1.417   2.815
  250SOL    HW1   59   1.407   1.423   2.895
  250SOL    HW2   60   1.451   1.329   2.769
  251SOL     OW   61   1.667   1.714   2.434
  251SOL    HW1   62   1.626   1.691   2.346
  251SOL    HW2   63   1.649   1.640   2.499
  254SOL     OW   64   1.576   1.662   2.169
  254SOL    HW1   65   1.665   1.708   2.172
  254SOL    HW2   66   1.555   1.638   2.074
  268SOL     OW   67   1.795   1.066   2.735
  268SOL    HW1   68   1.733   1.051   2.659
  268SOL    HW2   69   1.743   1.077   2.820
  273SOL     OW   70   1.111   1.776   2.099
  273SOL    HW1   71   1.051   1.714   2.149
  273SOL    HW2   72   1.142   1.732   2.014
  275SOL     OW   73   1.632   1.377   1.943
  275SOL    HW1   74   1.600   1.471   1.933
  275SOL    HW2   75   1.556   1.314   1.931
  293SOL     OW   76   1.227   1.570   2.655
  293SOL    HW1   77   1.248   1.644   2.590
  293SOL    HW2   78   1.295   1.570   2.728
  295SOL     OW   79   1.271   1.797   2.453
  295SOL    HW1   80   1.315   1.861   2.389
  295SOL    HW2   81   1.221   1.849   2.523
  301SOL     OW   82   1.429   1.173   2.729
  301SOL    HW1   83   1.374   1.089   2.722
  301SOL    HW2   84   1.455   1.202   2.637
  305SOL     OW   85   1.664   1.280   2.519
  305SOL    HW1   86   1.763   1.288   2.533
  305SOL    HW2   87   1.619   1.364   2.550
  308SOL     OW   88   1.754   1.223   3.450
  308SOL    HW1   89   1.845   1.184   3.437
  308SOL    HW2   90   1.762   1.319   3.474
  310SOL     OW   91   1.592   1.629   3.487
  310SOL    HW1   92   1.619   1.663   3.397
  310SOL    HW2   93   1.671   1.591   3.533
  312SOL     OW   94   1.638   1.099   2.941
  312SOL    HW1   95   1.643   1.180   3.000
  312SOL    HW2   96   1.552   1.101   2.890
  321SOL     OW   97   1.252   1.348   2.250
  321SOL    HW1   98   1.302   1.425   2.290
  321SOL    HW2   99   1.157   1.350   2.282
  322SOL     OW  100   1.272   1.445   3.004
  322SOL    HW1  101   1.319   1.458   3.091
  322SOL    HW2  102   1.206   1.371   3.013
  340SOL     OW  103   1.859   1.518   3.467
  340SOL    HW1  104   1.873   1.545   3.372
  340SOL    HW2  105   1.942   1.540   3.520
  365SOL     OW  106   1.759   1.747   3.016
  365SOL    HW1  107   1.820   1.777   2.943
  365SOL    HW2  108   1.721   1.658   2.994
  366SOL     OW  109   1.252   1.731   2.990
  366SOL    HW1  110   1.336   1.736   2.936
  366SOL    HW2  111   1.229   1.635   3.008
  370SOL     OW  112   1.388   1.573   2.339
  370SOL    HW1  113   1.455   1.585   2.265
  370SOL    HW2  114   1.348   1.662   2.362
  375SOL     OW  115   1.650   1.720   3.256
  375SOL    HW1  116   1.703   1.730   3.172
  375SOL    HW2  117   1.623   1.810   3.290
  378SOL     OW  118   1.194   1.612   1.893
  378SOL    HW1  119   1.200   1.519   1.930
  378SOL    HW2  120   1.135   1.612   1.813
  381SOL     OW  121   1.504   1.607   1.906
  381SOL    HW1  122   1.412   1.644   1.913
  381SOL    HW2  123   1.542   1.627   1.816
  383SOL     OW  124   1.614   1.292   3.151
  383SOL    HW1  125   1.674   1.295   3.231
  383SOL    HW2  126   1.539   1.356   3.164
  396SOL     OW  127   1.493   1.767   2.821
  396SOL    HW1  128   1.526   1.831   2.752
  396SOL    HW2  129   1.559   1.761   2.896
  409SOL     OW  130   1.861   1.569   2.713
  409SOL    HW1  131   1.790   1.557   2.643
  409SOL    HW2  132   1.862   1.490   2.773
  415SOL     OW  133   1.705   1.487   2.966
  415SOL    HW1  134   1.612   1.462   2.939
  415SOL    HW2  135   1.731   1.437   3.048
  597SOL     OW  136   1.127   3.203   1.690
  597SOL    HW1  137   1.174   3.203   1.778
  597SOL    HW2  138   1.079   3.116   1.679
  602SOL     OW  139   1.594   1.976   1.480
  602SOL    HW1  140   1.576   2.043   1.408
  602SOL    HW2  141   1.591   2.022   1.569
  610SOL     OW  142   1.293   3.090   1.423
  610SOL    HW1  143   1.330   3.017   1.365
  610SOL    HW2  144   1.345   3.095   1.508
  622SOL     OW  145   1.394   2.331   1.674
  622SOL    HW1  146   1.374   2.374   1.762
  622SOL    HW2  147   1.472   2.269   1.683
  629SOL     OW  148   1.719   2.447   1.831
  629SOL    HW1  149   1.693   2.536   1.795
  629SOL    HW2  150   1.717   2.379   1.758
  647SOL     OW  151   1.547   2.084   1.729
  647SOL    HW1  152   1.542   2.121   1.821
  647SOL    HW2  153   1.475   2.015   1.717
  650SOL     OW  154   1.351   2.452   1.433
  650SOL    HW1  155   1.379   2.409   1.518
  650SOL    HW2  156   1.376   2.548   1.434
  673SOL     OW  157   1.754   3.085   1.588
  673SOL    HW1  158   1.845   3.046   1.575
  673SOL    HW2  159   1.762   3.181   1.612
  675SOL     OW  160   1.592   3.491   1.625
  675SOL    HW1  161   1.619   3.525   1.535
  675SOL    HW2  162   1.671   3.453   1.671
  677SOL     OW  163   1.638   2.961   1.079
  677SOL    HW1  164   1.643   3.042   1.138
  677SOL    HW2  165   1.552   2.963   1.028
  691SOL     OW  166   1.587   2.641   1.670
  691SOL    HW1  167   1.495   2.679   1.665
  691SOL    HW2  168   1.647   2.688   1.605
  700SOL     OW  169   1.728   2.797   1.854
  700SOL    HW1  170   1.682   2.790   1.765
  700SOL    HW2  171   1.666   2.841   1.920
  705SOL     OW  172   1.859   3.380   1.605
  705SOL    HW1  173   1.873   3.407   1.510
  705SOL    HW2  174   1.942   3.402   1.658
  712SOL     OW  175   1.138   2.242   1.678
  712SOL    HW1  176   1.093   2.305   1.742
  712SOL    HW2  177   1.231   2.273   1.661
  720SOL     OW  178   1.369   2.812   1.660
  720SOL    HW1  179   1.408   2.901   1.680
  720SOL    HW2  180   1.379   2.792   1.563
  722SOL     OW  181   1.657   2.466   1.206
  722SOL    HW1  182   1.619   2.397   1.268
  722SOL    HW2  183   1.739   2.430   1.162
  741SOL     OW  184   1.650   3.582   1.394
  741SOL    HW1  185   1.703   3.592   1.310
  741SOL    HW2  186   1.623   3.672   1.428
  749SOL     OW  187   1.614   3.154   1.289
  749SOL    HW1  188   1.674   3.157   1.369
  749SOL    HW2  189   1.539   3.218   1.302
  753SOL     OW  190   1.709   2.247   1.381
  753SOL    HW1  191   1.782   2.316   1.385
  753SOL    HW2  192   1.737   2.172   1.322
  758SOL     OW  193   1.440   2.718   1.398
  758SOL    HW1  194   1.383   2.770   1.335
  758SOL    HW2  195   1.536   2.730   1.374
  764SOL     OW  196   1.450   3.082   1.633
  764SOL    HW1  197   1.441   3.072   1.732
  764SOL    HW2  198   1.546   3.075   1.607
  766SOL     OW  199   1.674   2.745   1.254
  766SOL    HW1  200   1.647   2.656   1.217
  766SOL    HW2  201   1.675   2.813   1.181
  769SOL     OW  202   1.777   2.204   1.642
  769SOL    HW1  203   1.760   2.235   1.548
  769SOL    HW2  204   1.693   2.167   1.680
  770SOL     OW  205   1.730   2.796   1.517
  770SOL    HW1  206   1.768   2.887   1.532
  770SOL    HW2  207   1.722   2.779   1.418
  779SOL     OW  208   1.824   2.054   1.227
  779SOL    HW1  209   1.820   1.964   1.271
  779SOL    HW2  210   1.827   2.043   1.128
  797SOL     OW  211   1.555   3.373   2.565
  797SOL    HW1  212   1.498   3.357   2.646
  797SOL    HW2  213   1.496   3.383   2.485
  798SOL     OW  214   1.135   2.565   2.579
  798SOL    HW1  215   1.192   2.643   2.554
  798SOL    HW2  216   1.075   2.591   2.655
  799SOL     OW  217   1.755   2.469   2.093
  799SOL    HW1  218   1.743   2.456   1.994
  799SOL    HW2  219   1.725   2.388   2.142
  805SOL     OW  220   1.460   3.367   3.201
  805SOL    HW1  221   1.484   3.461   3.227
  805SOL    HW2  222   1.444   3.313   3.283
  807SOL     OW  223   1.603   2.309   2.599
  807SOL    HW1  224   1.529   2.355   2.549
  807SOL    HW2  225   1.654   2.377   2.652
  814SOL     OW  226   1.594   1.976   3.342
  814SOL    HW1  227   1.576   2.043   3.270
  814SOL    HW2  228   1.591   2.022   3.431
  816SOL     OW  229   1.842   3.629   2.221
  816SOL    HW1  230   1.896   3.600   2.301
  816SOL    HW2  231   1.872   3.719   2.192
  818SOL     OW  232   1.689   2.784   2.474
  818SOL    HW1  233   1.784   2.755   2.482
  818SOL    HW2  234   1.681   2.849   2.399
  819SOL     OW  235   1.641   2.970   2.294
  819SOL    HW1  236   1.727   2.972   2.242
  819SOL    HW2  237   1.655   3.017   2.382
  822SOL     OW  238   1.293   3.090   3.285
  822SOL    HW1  239   1.330   3.017   3.227
  822SOL    HW2  240   1.345   3.095   3.370
  825SOL     OW  241   1.525   2.861   2.052
  825SOL    HW1  242   1.462   2.785   2.065
  825SOL    HW2  243   1.573   2.879   2.138
  828SOL     OW  244   1.466   3.279   2.815
  828SOL    HW1  245   1.407   3.285   2.895
  828SOL    HW2  246   1.451   3.191   2.769
  829SOL     OW  247   1.667   3.576   2.434
  829SOL    HW1  248   1.626   3.553   2.346
  829SOL    HW2  249   1.649   3.502   2.499
  831SOL     OW  250   1.281   2.207   2.806
  831SOL    HW1  251   1.195   2.157   2.793
  831SOL    HW2  252   1.343   2.153   2.862
  832SOL     OW  253   1.576   3.524   2.169
  832SOL    HW1  254   1.665   3.570   2.172
  832SOL    HW2  255   1.555   3.500   2.074
  834SOL     OW  256   1.394   2.331   3.536
  834SOL    HW1  257   1.374   2.374   3.624
  834SOL    HW2  258   1.472   2.269   3.545
  836SOL     OW  259   0.991   2.272   3.104
  836SOL    HW1  260   0.914   2.306   3.158
  836SOL    HW2  261   0.957   2.221   3.025
  837SOL     OW  262   1.041   2.563   2.291
  837SOL    HW1  263   1.067   2.559   2.387
  837SOL    HW2  264   0.956   2.512   2.277
  840SOL     OW  265   0.865   2.210   2.057
  840SOL    HW1  266   0.924   2.273   2.008
  840SOL    HW2  267   0.884   2.116   2.028
  841SOL     OW  268   1.719   2.447   3.693
  841SOL    HW1  269   1.693   2.536   3.657
  841SOL    HW2  270   1.717   2.379   3.620
  842SOL     OW  271   1.362   3.006   2.407
  842SOL    HW1  272   1.445   2.977   2.359
  842SOL    HW2  273   1.313   3.073   2.351
  844SOL     OW  274   1.008   3.318   2.339
  844SOL    HW1  275   0.962   3.390   2.287
  844SOL    HW2  276   1.004   3.338   2.437
  846SOL     OW  277   1.795   2.928   2.735
  846SOL    HW1  278   1.733   2.913   2.659
  846SOL    HW2  279   1.743   2.939   2.820
  847SOL     OW  280   1.227   3.412   3.368
  847SOL    HW1  281   1.233   3.335   3.432
  847SOL    HW2  282   1.175   3.386   3.288
  849SOL     OW  283   1.458   2.597   2.590
  849SOL    HW1  284   1.453   2.532   2.665
  849SOL    HW2  285   1.538   2.656   2.603
  853SOL     OW  286   1.632   3.239   1.943
  853SOL    HW1  287   1.600   3.333   1.933
  853SOL    HW2  288   1.556   3.176   1.931
  855SOL     OW  289   1.400   1.969   2.288
  855SOL    HW1  290   1.376   1.932   2.198
  855SOL    HW2  291   1.499   1.985   2.292
  859SOL     OW  292   1.547   2.084   3.591
  859SOL    HW1  293   1.542   2.121   3.683
  859SOL    HW2  294   1.475   2.015   3.579
  863SOL     OW  295   1.351   2.452   3.295
  863SOL    HW1  296   1.379   2.409   3.380
  863SOL    HW2  297   1.376   2.548   3.296
  865SOL     OW  298   0.922   2.365   2.761
  865SOL    HW1  299   0.897   2.356   2.665
  865SOL    HW2  300   0.970   2.283   2.792
  867SOL     OW  301   1.434   3.050   1.903
  867SOL    HW1  302   1.466   2.974   1.960
  867SOL    HW2  303   1.342   3.077   1.933
  869SOL     OW  304   0.935   2.098   2.342
  869SOL    HW1  305   0.887   2.139   2.264
  869SOL    HW2  306   1.034   2.096   2.323
  870SOL     OW  307   1.076   2.545   3.326
  870SOL    HW1  308   0.996   2.484   3.329
  870SOL    HW2  309   1.157   2.492   3.302
  871SOL     OW  310   1.227   3.432   2.655
  871SOL    HW1  311   1.248   3.506   2.590
  871SOL    HW2  312   1.295   3.432   2.728
  873SOL     OW  313   1.271   3.659   2.453
  873SOL    HW1  314   1.315   3.723   2.389
  873SOL    HW2  315   1.221   3.711   2.523
  874SOL     OW  316   1.032   2.411   1.878
  874SOL    HW1  317   0.991   2.493   1.839
  874SOL    HW2  318   1.096   2.437   1.951
  877SOL     OW  319   0.866   2.316   2.504
  877SOL    HW1  320   0.834   2.388   2.442
  877SOL    HW2  321   0.890   2.235   2.451
  878SOL     OW  322   1.017   1.901   2.615
  878SOL    HW1  323   0.945   1.906   2.546
  878SOL    HW2  324   0.993   1.832   2.684
  879SOL     OW  325   1.429   3.035   2.729
  879SOL    HW1  326   1.374   2.951   2.722
  879SOL    HW2  327   1.455   3.064   2.637
  880SOL     OW  328   1.466   2.452   2.854
  880SOL    HW1  329   1.436   2.357   2.861
  880SOL    HW2  330   1.539   2.468   2.920
  881SOL     OW  331   1.857   2.695   2.239
  881SOL    HW1  332   1.899   2.631   2.303
  881SOL    HW2  333   1.819   2.644   2.161
  883SOL     OW  334   1.664   3.142   2.519
  883SOL    HW1  335   1.763   3.150   2.533
  883SOL    HW2  336   1.619   3.226   2.550
  884SOL     OW  337   1.390   2.437   1.940
  884SOL    HW1  338   1.336   2.416   2.021
  884SOL    HW2  339   1.481   2.396   1.949
  886SOL     OW  340   1.754   3.085   3.450
  886SOL    HW1  341   1.845   3.046   3.437
  886SOL    HW2  342   1.762   3.181   3.474
  887SOL     OW  343   1.064   3.209   3.202
  887SOL    HW1  344   0.984   3.186   3.257
  887SOL    HW2  345   1.147   3.183   3.251
  888SOL     OW  346   1.592   3.491   3.487
  888SOL    HW1  347   1.619   3.525   3.397
  888SOL    HW2  348   1.671   3.453   3.533
  889SOL     OW  349   1.111   3.057   2.962
  889SOL    HW1  350   1.071   3.101   3.043
  889SOL    HW2  351   1.070   3.094   2.879
  890SOL     OW  352   1.638   2.961   2.941
  890SOL    HW1  353   1.643   3.042   3.000
  890SOL    HW2  354   1.552   2.963   2.890
  895SOL     OW  355   1.274   2.248   3.124
  895SOL    HW1  356   1.295   2.322   3.188
  895SOL    HW2  357   1.185   2.265   3.081
  899SOL     OW  358   1.252   3.210   2.250
  899SOL    HW1  359   1.302   3.287   2.290
  899SOL    HW2  360   1.157   3.212   2.282
  900SOL     OW  361   1.272   3.307   3.004
  900SOL    HW1  362   1.319   3.320   3.091
  900SOL    HW2  363   1.206   3.233   3.013
  901SOL     OW  364   1.582   2.501   2.334
  901SOL    HW1  365   1.551   2.562   2.407
  901SOL    HW2  366   1.632   2.553   2.265
  904SOL     OW  367   1.587   2.641   3.532
  904SOL    HW1  368   1.495   2.679   3.527
  904SOL    HW2  369   1.647   2.688   3.467
  908SOL     OW  370   1.360   2.724   2.907
  908SOL    HW1  371   1.285   2.724   2.841
  908SOL    HW2  372   1.397   2.632   2.916
  909SOL     OW  373   1.209   2.387   2.137
  909SOL    HW1  374   1.222   2.303   2.191
  909SOL    HW2  375   1.180   2.461   2.197
  913SOL     OW  376   1.728   2.797   3.716
  913SOL    HW1  377   1.682   2.790   3.627
  913SOL    HW2  378   1.666   2.841   3.782
  915SOL     OW  379   1.622   2.229   2.236
  915SOL    HW1  380   1.624   2.153   2.300
  915SOL    HW2  381   1.574   2.306   2.276
  916SOL     OW  382   1.023   2.628   2.828
  916SOL    HW1  383   1.038   2.649   2.924
  916SOL    HW2  384   0.993   2.533   2.819
  918SOL     OW  385   1.859   3.380   3.467
  918SOL    HW1  386   1.873   3.407   3.372
  918SOL    HW2  387   1.942   3.402   3.520
  920SOL     OW  388   1.540   2.136   1.987
  920SOL    HW1  389   1.479   2.061   2.010
  920SOL    HW2  390   1.562   2.188   2.070
  921SOL     OW  391   1.303   2.700   1.904
  921SOL    HW1  392   1.337   2.607   1.919
  921SOL    HW2  393   1.321   2.727   1.809
  922SOL     OW  394   1.068   3.195   2.711
  922SOL    HW1  395   1.075   3.111   2.656
  922SOL    HW2  396   1.130   3.264   2.675
  925SOL     OW  397   1.138   2.242   3.540
  925SOL    HW1  398   1.093   2.305   3.604
  925SOL    HW2  399   1.231   2.273   3.523
  926SOL     OW  400   1.160   2.069   3.339
  926SOL    HW1  401   1.160   2.133   3.416
  926SOL    HW2  402   1.188   2.117   3.256
  930SOL     OW  403   1.002   2.658   3.100
  930SOL    HW1  404   1.043   2.626   3.186
  930SOL    HW2  405   0.906   2.631   3.097
  933SOL     OW  406   1.369   2.812   3.522
  933SOL    HW1  407   1.408   2.901   3.542
  933SOL    HW2  408   1.379   2.792   3.425
  934SOL     OW  409   0.815   2.434   2.187
  934SOL    HW1  410   0.822   2.345   2.141
  934SOL    HW2  411   0.721   2.468   2.179
  935SOL     OW  412   1.657   2.466   3.068
  935SOL    HW1  413   1.619   2.397   3.130
  935SOL    HW2  414   1.739   2.430   3.024
  941SOL     OW  415   1.347   2.921   3.096
  941SOL    HW1  416   1.371   2.858   3.022
  941SOL    HW2  417   1.257   2.961   3.078
  942SOL     OW  418   1.302   2.717   2.171
  942SOL    HW1  419   1.216   2.686   2.213
  942SOL    HW2  420   1.298   2.703   2.072
  943SOL     OW  421   1.759   3.609   3.016
  943SOL    HW1  422   1.820   3.639   2.943
  943SOL    HW2  423   1.721   3.520   2.994
  944SOL     OW  424   1.252   3.593   2.990
  944SOL    HW1  425   1.336   3.598   2.936
  944SOL    HW2  426   1.229   3.497   3.008
  947SOL     OW  427   1.726   1.997   2.385
  947SOL    HW1  428   1.799   1.980   2.318
  947SOL    HW2  429   1.695   1.910   2.423
  948SOL     OW  430   1.388   3.435   2.339
  948SOL    HW1  431   1.455   3.447   2.265
  948SOL    HW2  432   1.348   3.524   2.362
  950SOL     OW  433   1.280   2.789   2.534
  950SOL    HW1  434   1.340   2.708   2.536
  950SOL    HW2  435   1.320   2.858   2.474
  953SOL     OW  436   1.650   3.582   3.256
  953SOL    HW1  437   1.703   3.592   3.172
  953SOL    HW2  438   1.623   3.672   3.290
  954SOL     OW  439   1.841   2.037   2.825
  954SOL    HW1  440   1.880   1.952   2.789
  954SOL    HW2  441   1.743   2.039   2.806
  956SOL     OW  442   1.194   3.474   1.893
  956SOL    HW1  443   1.200   3.381   1.930
  956SOL    HW2  444   1.135   3.474   1.813
  958SOL     OW  445   0.916   2.772   2.153
  958SOL    HW1  446   0.979   2.810   2.085
  958SOL    HW2  447   0.956   2.689   2.192
  959SOL     OW  448   1.504   3.469   1.906
  959SOL    HW1  449   1.412   3.506   1.913
  959SOL    HW2  450   1.542   3.489   1.816
  961SOL     OW  451   1.614   3.154   3.151
  961SOL    HW1  452   1.674   3.157   3.231
  961SOL    HW2  453   1.539   3.218   3.164
  962SOL     OW  454   1.039   2.960   2.558
  962SOL    HW1  455   0.969   2.913   2.612
  962SOL    HW2  456   1.098   2.892   2.515
  963SOL     OW  457   1.014   2.098   2.833
  963SOL    HW1  458   1.006   2.062   2.740
  963SOL    HW2  459   1.012   2.022   2.898
  965SOL     OW  460   1.709   2.247   3.243
  965SOL    HW1  461   1.782   2.316   3.247
  965SOL    HW2  462   1.737   2.172   3.184
  970SOL     OW  463   1.440   2.718   3.260
  970SOL    HW1  464   1.383   2.770   3.197
  970SOL    HW2  465   1.536   2.730   3.236
  972SOL     OW  466   1.183   3.197   1.981
  972SOL    HW1  467   1.084   3.186   1.983
  972SOL    HW2  468   1.217   3.212   2.074
  974SOL     OW  469   1.493   3.629   2.821
  974SOL    HW1  470   1.526   3.693   2.752
  974SOL    HW2  471   1.559   3.623   2.896
  976SOL     OW  472   1.450   3.082   3.495
  976SOL    HW1  473   1.441   3.072   3.594
  976SOL    HW2  474   1.546   3.075   3.469
  978SOL     OW  475   1.674   2.745   3.116
  978SOL    HW1  476   1.647   2.656   3.079
  978SOL    HW2  477   1.675   2.813   3.043
  979SOL     OW  478   1.225   2.187   2.311
  979SOL    HW1  479   1.290   2.113   2.300
  979SOL    HW2  480   1.245   2.237   2.395
  981SOL     OW  481   1.777   2.204   3.504
  981SOL    HW1  482   1.760   2.235   3.410
  981SOL    HW2  483   1.693   2.167   3.542
  982SOL     OW  484   1.730   2.796   3.379
  982SOL    HW1  485   1.768   2.887   3.394
  982SOL    HW2  486   1.722   2.779   3.280
  985SOL     OW  487   0.859   2.818   2.723
  985SOL    HW1  488   0.913   2.749   2.771
  985SOL    HW2  489   0.827   2.887   2.789
  986SOL     OW  490   1.083   2.846   1.949
  986SOL    HW1  491   1.060   2.899   1.867
  986SOL    HW2  492   1.164   2.790   1.930
  987SOL     OW  493   1.861   3.431   2.713
  987SOL    HW1  494   1.790   3.419   2.643
  987SOL    HW2  495   1.862   3.352   2.773
  991SOL     OW  496   1.824   2.054   3.089
  991SOL    HW1  497   1.820   1.964   3.133
  991SOL    HW2  498   1.827   2.043   2.990
  993SOL     OW  499   1.705   3.349   2.966
  993SOL    HW1  500   1.612   3.324   2.939
  993SOL    HW2  501   1.731   3.299   3.048
  996SOL     OW  502   1.424   2.076   2.974
  996SOL    HW1  503   1.476   2.011   3.029
  996SOL    HW2  504   1.375   2.139   3.035
  997SOL     OW  505   1.001   1.896   3.016
  997SOL    HW1  506   0.938   1.824   2.985
  997SOL    HW2  507   1.094   1.860   3.016
 1000SOL     OW  508   1.352   1.914   2.030
 1000SOL    HW1  509   1.387   1.873   1.946
 1000SOL    HW2  510   1.262   1.876   2.050
 1001SOL     OW  511   1.300   2.315   2.553
 1001SOL    HW1  512   1.241   2.395   2.557
 1001SOL    HW2  513   1.315   2.280   2.646
 1002SOL     OW  514   1.593   2.083   2.744
 1002SOL    HW1  515   1.509   2.082   2.798
 1002SOL    HW2  516   1.595   2.166   2.688
 1011SOL     OW  517   1.755   2.469   3.955
 1011SOL    HW1  518   1.743   2.456   3.856
 1011SOL    HW2  519   1.725   2.388   4.004
 1029SOL     OW  520   1.525   2.861   3.914
 1029SOL    HW1  521   1.462   2.785   3.927
 1029SOL    HW2  522   1.573   2.879   4.000
 1048SOL     OW  523   1.632   3.239   3.805
 1048SOL    HW1  524   1.600   3.333   3.795
 1048SOL    HW2  525   1.556   3.176   3.793
 1058SOL     OW  526   1.434   3.050   3.765
 1058SOL    HW1  527   1.466   2.974   3.822
 1058SOL    HW2  528   1.342   3.077   3.795
 1070SOL     OW  529   1.857   2.695   4.101
 1070SOL    HW1  530   1.899   2.631   4.165
 1070SOL    HW2  531   1.819   2.644   4.023
 1073SOL     OW  532   1.390   2.437   3.802
 1073SOL    HW1  533   1.336   2.416   3.883
 1073SOL    HW2  534   1.481   2.396   3.811
 1095SOL     OW  535   1.540   2.136   3.849
 1095SOL    HW1  536   1.479   2.061   3.872
 1095SOL    HW2  537   1.562   2.188   3.932
 1096SOL     OW  538   1.303   2.700   3.766
 1096SOL    HW1  539   1.337   2.607   3.781
 1096SOL    HW2  540   1.321   2.727   3.671
 1328SOL     OW  541   1.594   3.838   3.342
 1328SOL    HW1  542   1.576   3.905   3.270
 1328SOL    HW2  543   1.591   3.884   3.431
 1356SOL     OW  544   1.400   3.831   2.288
 1356SOL    HW1  545   1.376   3.794   2.198
 1356SOL    HW2  546   1.499   3.847   2.292
 1427SOL     OW  547   1.726   3.859   2.385
 1427SOL    HW1  548   1.799   3.842   2.318
 1427SOL    HW2  549   1.695   3.772   2.423
 1430SOL     OW  550   1.841   3.899   2.825
 1430SOL    HW1  551   1.880   3.814   2.789
 1430SOL    HW2  552   1.743   3.901   2.806
 1456SOL     OW  553   1.824   3.916   3.089
 1456SOL    HW1  554   1.820   3.826   3.133
 1456SOL    HW2  555   1.827   3.905   2.990
 1462SOL     OW  556   1.352   3.776   2.030
 1462SOL    HW1  557   1.387   3.735   1.946
 1462SOL    HW2  558   1.262   3.738   2.050
 1464SOL     OW  559   1.593   3.945   2.744
 1464SOL    HW1  560   1.509   3.944   2.798
 1464SOL    HW2  561   1.595   4.028   2.688
 1590SOL     OW  562   2.548   1.161   1.803
 1590SOL    HW1  563   2.608   1.240   1.817
 1590SOL    HW2  564   2.462   1.192   1.762
 1592SOL     OW  565   3.322   1.505   1.339
 1592SOL    HW1  566   3.346   1.599   1.365
 1592SOL    HW2  567   3.306   1.451   1.421
 1596SOL     OW  568   2.989   1.341   1.690
 1596SOL    HW1  569   3.036   1.341   1.778
 1596SOL    HW2  570   2.941   1.254   1.679
 1599SOL     OW  571   2.482   1.786   1.439
 1599SOL    HW1  572   2.390   1.769   1.474
 1599SOL    HW2  573   2.510   1.878   1.465
 1613SOL     OW  574   3.049   1.792   1.616
 1613SOL    HW1  575   3.073   1.852   1.540
 1613SOL    HW2  576   3.056   1.697   1.586
 1626SOL     OW  577   1.992   1.821   1.571
 1626SOL    HW1  578   1.982   1.806   1.670
 1626SOL    HW2  579   1.906   1.857   1.535
 1634SOL     OW  580   3.089   1.550   1.506
 1634SOL    HW1  581   3.095   1.473   1.570
 1634SOL    HW2  582   3.037   1.524   1.426
 1637SOL     OW  583   2.323   1.266   1.727
 1637SOL    HW1  584   2.273   1.267   1.641
 1637SOL    HW2  585   2.260   1.248   1.803
 1643SOL     OW  586   2.111   1.785   1.241
 1643SOL    HW1  587   2.168   1.720   1.291
 1643SOL    HW2  588   2.095   1.752   1.148
 1649SOL     OW  589   2.750   1.514   1.195
 1649SOL    HW1  590   2.727   1.489   1.101
 1649SOL    HW2  591   2.811   1.445   1.234
 1674SOL     OW  592   2.926   1.347   1.340
 1674SOL    HW1  593   2.846   1.324   1.395
 1674SOL    HW2  594   3.009   1.321   1.389
 1675SOL     OW  595   3.454   1.629   1.625
 1675SOL    HW1  596   3.481   1.663   1.535
 1675SOL    HW2  597   3.533   1.591   1.671
 1679SOL     OW  598   2.842   1.116   1.719
 1679SOL    HW1  599   2.743   1.122   1.729
 1679SOL    HW2  600   2.865   1.036   1.663
 1683SOL     OW  601   1.926   1.564   1.331
 1683SOL    HW1  602   1.880   1.646   1.297
 1683SOL    HW2  603   2.024   1.583   1.340
 1689SOL     OW  604   2.216   1.510   1.329
 1689SOL    HW1  605   2.195   1.466   1.242
 1689SOL    HW2  606   2.313   1.536   1.332
 1704SOL     OW  607   2.842   1.573   1.700
 1704SOL    HW1  608   2.822   1.617   1.612
 1704SOL    HW2  609   2.881   1.482   1.684
 1722SOL     OW  610   2.114   1.564   1.744
 1722SOL    HW1  611   2.084   1.621   1.820
 1722SOL    HW2  612   2.107   1.467   1.770
 1724SOL     OW  613   2.792   1.678   1.465
 1724SOL    HW1  614   2.768   1.660   1.370
 1724SOL    HW2  615   2.822   1.772   1.475
 1730SOL     OW  616   3.114   1.731   1.128
 1730SOL    HW1  617   3.198   1.736   1.074
 1730SOL    HW2  618   3.091   1.635   1.146
 1732SOL     OW  619   2.550   1.662   1.716
 1732SOL    HW1  620   2.494   1.743   1.725
 1732SOL    HW2  621   2.602   1.666   1.630
 1736SOL     OW  622   1.992   1.794   1.851
 1736SOL    HW1  623   1.951   1.720   1.904
 1736SOL    HW2  624   2.056   1.845   1.909
 1738SOL     OW  625   2.692   1.273   1.422
 1738SOL    HW1  626   2.687   1.306   1.517
 1738SOL    HW2  627   2.606   1.292   1.376
 1740SOL     OW  628   3.512   1.720   1.394
 1740SOL    HW1  629   3.565   1.730   1.310
 1740SOL    HW2  630   3.485   1.810   1.428
 1747SOL     OW  631   2.234   1.288   1.490
 1747SOL    HW1  632   2.221   1.381   1.456
 1747SOL    HW2  633   2.150   1.236   1.477
 1762SOL     OW  634   3.312   1.220   1.633
 1762SOL    HW1  635   3.303   1.210   1.732
 1762SOL    HW2  636   3.408   1.213   1.607
 1763SOL     OW  637   2.252   1.741   1.560
 1763SOL    HW1  638   2.161   1.782   1.558
 1763SOL    HW2  639   2.245   1.647   1.592
 1770SOL     OW  640   2.523   1.790   0.953
 1770SOL    HW1  641   2.477   1.878   0.940
 1770SOL    HW2  642   2.622   1.802   0.946
 1774SOL     OW  643   2.083   1.314   1.844
 1774SOL    HW1  644   2.018   1.241   1.823
 1774SOL    HW2  645   2.087   1.328   1.942
 1776SOL     OW  646   2.534   1.391   1.624
 1776SOL    HW1  647   2.456   1.341   1.662
 1776SOL    HW2  648   2.531   1.486   1.655
 1785SOL     OW  649   2.480   1.567   1.284
 1785SOL    HW1  650   2.475   1.649   1.341
 1785SOL    HW2  651   2.569   1.564   1.239
 1794SOL     OW  652   2.431   1.275   3.027
 1794SOL    HW1  653   2.338   1.268   2.990
 1794SOL    HW2  654   2.442   1.364   3.071
 1795SOL     OW  655   3.417   1.511   2.565
 1795SOL    HW1  656   3.360   1.495   2.646
 1795SOL    HW2  657   3.358   1.521   2.485
 1798SOL     OW  658   2.630   1.144   2.885
 1798SOL    HW1  659   2.552   1.161   2.945
 1798SOL    HW2  660   2.664   1.231   2.849
 1800SOL     OW  661   2.547   1.012   2.527
 1800SOL    HW1  662   2.616   0.996   2.597
 1800SOL    HW2  663   2.474   1.069   2.565
 1801SOL     OW  664   2.548   1.161   3.665
 1801SOL    HW1  665   2.608   1.240   3.679
 1801SOL    HW2  666   2.462   1.192   3.624
 1802SOL     OW  667   2.197   1.435   2.923
 1802SOL    HW1  668   2.119   1.404   2.870
 1802SOL    HW2  669   2.255   1.493   2.866
 1803SOL     OW  670   3.322   1.505   3.201
 1803SOL    HW1  671   3.346   1.599   3.227
 1803SOL    HW2  672   3.306   1.451   3.283
 1806SOL     OW  673   2.093   1.713   2.345
 1806SOL    HW1  674   2.127   1.790   2.399
 1806SOL    HW2  675   2.137   1.713   2.255
 1807SOL     OW  676   2.989   1.341   3.552
 1807SOL    HW1  677   3.036   1.341   3.640
 1807SOL    HW2  678   2.941   1.254   3.541
 1808SOL     OW  679   2.092   1.434   2.400
 1808SOL    HW1  680   2.066   1.530   2.400
 1808SOL    HW2  681   2.021   1.380   2.445
 1809SOL     OW  682   2.102   1.091   2.748
 1809SOL    HW1  683   2.116   1.007   2.800
 1809SOL    HW2  684   2.047   1.155   2.803
 1810SOL     OW  685   2.482   1.786   3.301
 1810SOL    HW1  686   2.390   1.769   3.336
 1810SOL    HW2  687   2.510   1.878   3.327
 1811SOL     OW  688   2.468   0.964   1.985
 1811SOL    HW1  689   2.475   1.048   1.931
 1811SOL    HW2  690   2.514   0.977   2.073
 1814SOL     OW  691   3.704   1.767   2.221
 1814SOL    HW1  692   3.758   1.738   2.301
 1814SOL    HW2  693   3.734   1.857   2.192
 1815SOL     OW  694   1.889   1.596   1.979
 1815SOL    HW1  695   1.870   1.500   2.000
 1815SOL    HW2  696   1.856   1.654   2.054
 1817SOL     OW  697   3.503   1.108   2.294
 1817SOL    HW1  698   3.589   1.110   2.242
 1817SOL    HW2  699   3.517   1.155   2.382
 1819SOL     OW  700   2.475   1.365   2.588
 1819SOL    HW1  701   2.426   1.278   2.597
 1819SOL    HW2  702   2.452   1.408   2.501
 1820SOL     OW  703   3.155   1.228   3.285
 1820SOL    HW1  704   3.192   1.155   3.227
 1820SOL    HW2  705   3.207   1.233   3.370
 1822SOL     OW  706   2.059   0.976   3.126
 1822SOL    HW1  707   2.148   0.931   3.112
 1822SOL    HW2  708   1.986   0.911   3.107
 1824SOL     OW  709   3.049   1.792   3.478
 1824SOL    HW1  710   3.073   1.852   3.402
 1824SOL    HW2  711   3.056   1.697   3.448
 1826SOL     OW  712   3.328   1.417   2.815
 1826SOL    HW1  713   3.269   1.423   2.895
 1826SOL    HW2  714   3.313   1.329   2.769
 1827SOL     OW  715   3.529   1.714   2.434
 1827SOL    HW1  716   3.488   1.691   2.346
 1827SOL    HW2  717   3.511   1.640   2.499
 1830SOL     OW  718   3.438   1.662   2.169
 1830SOL    HW1  719   3.527   1.708   2.172
 1830SOL    HW2  720   3.417   1.638   2.074
 1837SOL     OW  721   1.992   1.821   3.433
 1837SOL    HW1  722   1.982   1.806   3.532
 1837SOL    HW2  723   1.906   1.857   3.397
 1840SOL     OW  724   3.224   1.144   2.407
 1840SOL    HW1  725   3.307   1.115   2.359
 1840SOL    HW2  726   3.175   1.211   2.351
 1842SOL     OW  727   2.870   1.456   2.339
 1842SOL    HW1  728   2.824   1.528   2.287
 1842SOL    HW2  729   2.866   1.476   2.437
 1843SOL     OW  730   2.213   1.801   2.715
 1843SOL    HW1  731   2.263   1.715   2.721
 1843SOL    HW2  732   2.278   1.878   2.712
 1845SOL     OW  733   3.089   1.550   3.368
 1845SOL    HW1  734   3.095   1.473   3.432
 1845SOL    HW2  735   3.037   1.524   3.288
 1846SOL     OW  736   2.183   0.943   2.104
 1846SOL    HW1  737   2.265   0.982   2.062
 1846SOL    HW2  738   2.156   0.861   2.055
 1848SOL     OW  739   2.323   1.266   3.589
 1848SOL    HW1  740   2.273   1.267   3.503
 1848SOL    HW2  741   2.260   1.248   3.665
 1849SOL     OW  742   2.973   1.776   2.099
 1849SOL    HW1  743   2.913   1.714   2.149
 1849SOL    HW2  744   3.004   1.732   2.014
 1851SOL     OW  745   3.494   1.377   1.943
 1851SOL    HW1  746   3.462   1.471   1.933
 1851SOL    HW2  747   3.418   1.314   1.931
 1852SOL     OW  748   2.326   1.743   2.185
 1852SOL    HW1  749   2.359   1.782   2.271
 1852SOL    HW2  750   2.402   1.736   2.120
 1854SOL     OW  751   2.111   1.785   3.103
 1854SOL    HW1  752   2.168   1.720   3.153
 1854SOL    HW2  753   2.095   1.752   3.010
 1855SOL     OW  754   2.802   1.698   2.766
 1855SOL    HW1  755   2.882   1.641   2.787
 1855SOL    HW2  756   2.753   1.658   2.689
 1860SOL     OW  757   2.750   1.514   3.057
 1860SOL    HW1  758   2.727   1.489   2.963
 1860SOL    HW2  759   2.811   1.445   3.096
 1862SOL     OW  760   2.665   1.402   2.786
 1862SOL    HW1  761   2.755   1.416   2.744
 1862SOL    HW2  762   2.594   1.404   2.715
 1865SOL     OW  763   3.296   1.188   1.903
 1865SOL    HW1  764   3.328   1.112   1.960
 1865SOL    HW2  765   3.204   1.215   1.933
 1869SOL     OW  766   3.089   1.570   2.655
 1869SOL    HW1  767   3.110   1.644   2.590
 1869SOL    HW2  768   3.157   1.570   2.728
 1870SOL     OW  769   2.321   1.152   2.603
 1870SOL    HW1  770   2.250   1.125   2.668
 1870SOL    HW2  771   2.295   1.124   2.510
 1871SOL     OW  772   3.133   1.797   2.453
 1871SOL    HW1  773   3.177   1.861   2.389
 1871SOL    HW2  774   3.083   1.849   2.523
 1877SOL     OW  775   3.291   1.173   2.729
 1877SOL    HW1  776   3.236   1.089   2.722
 1877SOL    HW2  777   3.317   1.202   2.637
 1880SOL     OW  778   2.350   1.385   2.036
 1880SOL    HW1  779   2.263   1.370   2.083
 1880SOL    HW2  780   2.333   1.411   1.941
 1881SOL     OW  781   3.526   1.280   2.519
 1881SOL    HW1  782   3.625   1.288   2.533
 1881SOL    HW2  783   3.481   1.364   2.550
 1885SOL     OW  784   2.926   1.347   3.202
 1885SOL    HW1  785   2.846   1.324   3.257
 1885SOL    HW2  786   3.009   1.321   3.251
 1886SOL     OW  787   3.454   1.629   3.487
 1886SOL    HW1  788   3.481   1.663   3.397
 1886SOL    HW2  789   3.533   1.591   3.533
 1887SOL     OW  790   2.973   1.195   2.962
 1887SOL    HW1  791   2.933   1.239   3.043
 1887SOL    HW2  792   2.932   1.232   2.879
 1888SOL     OW  793   3.500   1.099   2.941
 1888SOL    HW1  794   3.505   1.180   3.000
 1888SOL    HW2  795   3.414   1.101   2.890
 1890SOL     OW  796   2.842   1.116   3.581
 1890SOL    HW1  797   2.743   1.122   3.591
 1890SOL    HW2  798   2.865   1.036   3.525
 1891SOL     OW  799   2.567   1.050   2.230
 1891SOL    HW1  800   2.553   1.057   2.329
 1891SOL    HW2  801   2.651   0.999   2.212
 1894SOL     OW  802   1.926   1.564   3.193
 1894SOL    HW1  803   1.880   1.646   3.159
 1894SOL    HW2  804   2.024   1.583   3.202
 1895SOL     OW  805   2.229   1.100   2.363
 1895SOL    HW1  806   2.222   1.183   2.307
 1895SOL    HW2  807   2.233   1.020   2.303
 1897SOL     OW  808   3.114   1.348   2.250
 1897SOL    HW1  809   3.164   1.425   2.290
 1897SOL    HW2  810   3.019   1.350   2.282
 1898SOL     OW  811   3.134   1.445   3.004
 1898SOL    HW1  812   3.181   1.458   3.091
 1898SOL    HW2  813   3.068   1.371   3.013
 1900SOL     OW  814   2.216   1.510   3.191
 1900SOL    HW1  815   2.195   1.466   3.104
 1900SOL    HW2  816   2.313   1.536   3.194
 1905SOL     OW  817   2.435   0.870   2.891
 1905SOL    HW1  818   2.479   0.959   2.882
 1905SOL    HW2  819   2.372   0.870   2.968
 1909SOL     OW  820   1.899   1.310   3.144
 1909SOL    HW1  821   1.952   1.261   3.212
 1909SOL    HW2  822   1.921   1.408   3.149
 1915SOL     OW  823   2.842   1.573   3.562
 1915SOL    HW1  824   2.822   1.617   3.474
 1915SOL    HW2  825   2.881   1.482   3.546
 1920SOL     OW  826   2.930   1.333   2.711
 1920SOL    HW1  827   2.937   1.249   2.656
 1920SOL    HW2  828   2.992   1.402   2.675
 1921SOL     OW  829   2.181   0.810   2.811
 1921SOL    HW1  830   2.274   0.846   2.816
 1921SOL    HW2  831   2.175   0.725   2.863
 1925SOL     OW  832   1.870   1.326   2.062
 1925SOL    HW1  833   1.777   1.347   2.031
 1925SOL    HW2  834   1.880   1.227   2.075
 1926SOL     OW  835   1.950   1.801   2.789
 1926SOL    HW1  836   1.908   1.715   2.762
 1926SOL    HW2  837   2.044   1.804   2.755
 1927SOL     OW  838   2.366   1.568   2.772
 1927SOL    HW1  839   2.432   1.642   2.781
 1927SOL    HW2  840   2.410   1.489   2.730
 1934SOL     OW  841   2.114   1.564   3.606
 1934SOL    HW1  842   2.084   1.621   3.682
 1934SOL    HW2  843   2.107   1.467   3.632
 1936SOL     OW  844   2.792   1.678   3.327
 1936SOL    HW1  845   2.768   1.660   3.232
 1936SOL    HW2  846   2.822   1.772   3.337
 1938SOL     OW  847   2.021   1.137   3.328
 1938SOL    HW1  848   2.043   1.076   3.404
 1938SOL    HW2  849   2.031   1.088   3.242
 1939SOL     OW  850   3.209   1.059   3.096
 1939SOL    HW1  851   3.233   0.996   3.022
 1939SOL    HW2  852   3.119   1.099   3.078
 1941SOL     OW  853   3.621   1.747   3.016
 1941SOL    HW1  854   3.682   1.777   2.943
 1941SOL    HW2  855   3.583   1.658   2.994
 1942SOL     OW  856   3.114   1.731   2.990
 1942SOL    HW1  857   3.198   1.736   2.936
 1942SOL    HW2  858   3.091   1.635   3.008
 1943SOL     OW  859   1.945   1.258   2.884
 1943SOL    HW1  860   1.940   1.257   2.984
 1943SOL    HW2  861   1.862   1.217   2.846
 1944SOL     OW  862   2.550   1.662   3.578
 1944SOL    HW1  863   2.494   1.743   3.587
 1944SOL    HW2  864   2.602   1.666   3.492
 1946SOL     OW  865   3.250   1.573   2.339
 1946SOL    HW1  866   3.317   1.585   2.265
 1946SOL    HW2  867   3.210   1.662   2.362
 1947SOL     OW  868   1.992   1.794   3.713
 1947SOL    HW1  869   1.951   1.720   3.766
 1947SOL    HW2  870   2.056   1.845   3.771
 1948SOL     OW  871   3.142   0.927   2.534
 1948SOL    HW1  872   3.202   0.846   2.536
 1948SOL    HW2  873   3.182   0.996   2.474
 1949SOL     OW  874   2.692   1.273   3.284
 1949SOL    HW1  875   2.687   1.306   3.379
 1949SOL    HW2  876   2.606   1.292   3.238
 1950SOL     OW  877   2.534   1.616   2.016
 1950SOL    HW1  878   2.543   1.626   1.917
 1950SOL    HW2  879   2.494   1.527   2.037
 1951SOL     OW  880   3.512   1.720   3.256
 1951SOL    HW1  881   3.565   1.730   3.172
 1951SOL    HW2  882   3.485   1.810   3.290
 1954SOL     OW  883   3.056   1.612   1.893
 1954SOL    HW1  884   3.062   1.519   1.930
 1954SOL    HW2  885   2.997   1.612   1.813
 1955SOL     OW  886   2.684   1.002   3.234
 1955SOL    HW1  887   2.724   1.001   3.142
 1955SOL    HW2  888   2.694   1.094   3.274
 1956SOL     OW  889   2.778   0.910   2.153
 1956SOL    HW1  890   2.841   0.948   2.085
 1956SOL    HW2  891   2.818   0.827   2.192
 1957SOL     OW  892   3.366   1.607   1.906
 1957SOL    HW1  893   3.274   1.644   1.913
 1957SOL    HW2  894   3.404   1.627   1.816
 1958SOL     OW  895   2.234   1.288   3.352
 1958SOL    HW1  896   2.221   1.381   3.318
 1958SOL    HW2  897   2.150   1.236   3.339
 1959SOL     OW  898   3.476   1.292   3.151
 1959SOL    HW1  899   3.536   1.295   3.231
 1959SOL    HW2  900   3.401   1.356   3.164
 1960SOL     OW  901   2.901   1.098   2.558
 1960SOL    HW1  902   2.831   1.051   2.612
 1960SOL    HW2  903   2.960   1.030   2.515
 1962SOL     OW  904   2.452   1.487   2.353
 1962SOL    HW1  905   2.494   1.429   2.283
 1962SOL    HW2  906   2.408   1.566   2.309
 1964SOL     OW  907   2.117   1.348   2.152
 1964SOL    HW1  908   2.021   1.349   2.125
 1964SOL    HW2  909   2.129   1.401   2.236
 1970SOL     OW  910   3.045   1.335   1.981
 1970SOL    HW1  911   2.946   1.324   1.983
 1970SOL    HW2  912   3.079   1.350   2.074
 1972SOL     OW  913   3.355   1.767   2.821
 1972SOL    HW1  914   3.388   1.831   2.752
 1972SOL    HW2  915   3.421   1.761   2.896
 1975SOL     OW  916   2.252   1.741   3.422
 1975SOL    HW1  917   2.161   1.782   3.420
 1975SOL    HW2  918   2.245   1.647   3.454
 1981SOL     OW  919   2.721   1.374   1.878
 1981SOL    HW1  920   2.675   1.389   1.966
 1981SOL    HW2  921   2.765   1.459   1.848
 1982SOL     OW  922   2.523   1.790   2.815
 1982SOL    HW1  923   2.477   1.878   2.802
 1982SOL    HW2  924   2.622   1.802   2.808
 1983SOL     OW  925   2.721   0.956   2.723
 1983SOL    HW1  926   2.775   0.887   2.771
 1983SOL    HW2  927   2.689   1.025   2.789
 1984SOL     OW  928   2.945   0.984   1.949
 1984SOL    HW1  929   2.922   1.037   1.867
 1984SOL    HW2  930   3.026   0.928   1.930
 1985SOL     OW  931   3.723   1.569   2.713
 1985SOL    HW1  932   3.652   1.557   2.643
 1985SOL    HW2  933   3.724   1.490   2.773
 1986SOL     OW  934   2.083   1.314   3.706
 1986SOL    HW1  935   2.018   1.241   3.685
 1986SOL    HW2  936   2.087   1.328   3.804
 1987SOL     OW  937   1.941   1.240   2.515
 1987SOL    HW1  938   1.940   1.193   2.603
 1987SOL    HW2  939   2.023   1.212   2.464
 1988SOL     OW  940   2.534   1.391   3.486
 1988SOL    HW1  941   2.456   1.341   3.524
 1988SOL    HW2  942   2.531   1.486   3.517
 1991SOL     OW  943   3.567   1.487   2.966
 1991SOL    HW1  944   3.474   1.462   2.939
 1991SOL    HW2  945   3.593   1.437   3.048
 1993SOL     OW  946   2.674   1.586   2.549
 1993SOL    HW1  947   2.706   1.596   2.455
 1993SOL    HW2  948   2.595   1.524   2.551
 1996SOL     OW  949   2.632   1.330   2.163
 1996SOL    HW1  950   2.586   1.243   2.180
 1996SOL    HW2  951   2.723   1.327   2.204
 1997SOL     OW  952   2.480   1.567   3.146
 1997SOL    HW1  953   2.475   1.649   3.203
 1997SOL    HW2  954   2.569   1.564   3.101
 2001SOL     OW  955   1.901   1.077   2.162
 2001SOL    HW1  956   2.000   1.066   2.153
 2001SOL    HW2  957   1.861   0.991   2.194
 2002SOL     OW  958   2.737   1.646   2.199
 2002SOL    HW1  959   2.660   1.611   2.145
 2002SOL    HW2  960   2.705   1.717   2.261
 2021SOL     OW  961   1.889   1.596   3.841
 2021SOL    HW1  962   1.870   1.500   3.862
 2021SOL    HW2  963   1.856   1.654   3.916
 2044SOL     OW  964   2.973   1.776   3.961
 2044SOL    HW1  965   2.913   1.714   4.011
 2044SOL    HW2  966   3.004   1.732   3.876
 2046SOL     OW  967   2.326   1.743   4.047
 2046SOL    HW1  968   2.359   1.782   4.133
 2046SOL    HW2  969   2.402   1.736   3.982
 2068SOL     OW  970   2.350   1.385   3.898
 2068SOL    HW1  971   2.263   1.370   3.945
 2068SOL    HW2  972   2.333   1.411   3.803
 2116SOL     OW  973   2.534   1.616   3.878
 2116SOL    HW1  974   2.543   1.626   3.779
 2116SOL    HW2  975   2.494   1.527   3.899
 2120SOL     OW  976   3.056   1.612   3.755
 2120SOL    HW1  977   3.062   1.519   3.792
 2120SOL    HW2  978   2.997   1.612   3.675
 2123SOL     OW  979   3.366   1.607   3.768
 2123SOL    HW1  980   3.274   1.644   3.775
 2123SOL    HW2  981   3.404   1.627   3.678
 2138SOL     OW  982   2.721   1.374   3.740
 2138SOL    HW1  983   2.675   1.389   3.828
 2138SOL    HW2  984   2.765   1.459   3.710
 2155SOL     OW  985   2.737   1.646   4.061
 2155SOL    HW1  986   2.660   1.611   4.007
 2155SOL    HW2  987   2.705   1.717   4.123
 2157SOL     OW  988   2.087   2.137   0.996
 2157SOL    HW1  989   2.122   2.120   1.088
 2157SOL    HW2  990   1.999   2.092   0.984
 2159SOL     OW  991   2.431   3.137   1.165
 2159SOL    HW1  992   2.338   3.130   1.128
 2159SOL    HW2  993   2.442   3.226   1.209
 2163SOL     OW  994   2.630   3.006   1.023
 2163SOL    HW1  995   2.552   3.023   1.083
 2163SOL    HW2  996   2.664   3.093   0.987
 2164SOL     OW  997   2.712   2.660   1.823
 2164SOL    HW1  998   2.708   2.736   1.888
 2164SOL    HW2  999   2.734   2.696   1.732
 2166SOL     OW 1000   2.548   3.023   1.803
 2166SOL    HW1 1001   2.608   3.102   1.817
 2166SOL    HW2 1002   2.462   3.054   1.762
 2167SOL     OW 1003   2.197   3.297   1.061
 2167SOL    HW1 1004   2.119   3.266   1.008
 2167SOL    HW2 1005   2.255   3.355   1.004
 2168SOL     OW 1006   3.322   3.367   1.339
 2168SOL    HW1 1007   3.346   3.461   1.365
 2168SOL    HW2 1008   3.306   3.313   1.421
 2169SOL     OW 1009   2.300   2.254   1.499
 2169SOL    HW1 1010   2.382   2.198   1.508
 2169SOL    HW2 1011   2.219   2.196   1.503
 2172SOL     OW 1012   2.989   3.203   1.690
 2172SOL    HW1 1013   3.036   3.203   1.778
 2172SOL    HW2 1014   2.941   3.116   1.679
 2174SOL     OW 1015   2.102   2.953   0.886
 2174SOL    HW1 1016   2.116   2.869   0.938
 2174SOL    HW2 1017   2.047   3.017   0.941
 2175SOL     OW 1018   2.482   3.648   1.439
 2175SOL    HW1 1019   2.390   3.631   1.474
 2175SOL    HW2 1020   2.510   3.740   1.465
 2177SOL     OW 1021   3.456   1.976   1.480
 2177SOL    HW1 1022   3.438   2.043   1.408
 2177SOL    HW2 1023   3.453   2.022   1.569
 2183SOL     OW 1024   1.975   2.599   1.597
 2183SOL    HW1 1025   2.063   2.586   1.642
 2183SOL    HW2 1026   1.962   2.696   1.575
 2185SOL     OW 1027   3.155   3.090   1.423
 2185SOL    HW1 1028   3.192   3.017   1.365
 2185SOL    HW2 1029   3.207   3.095   1.508
 2187SOL     OW 1030   2.059   2.838   1.264
 2187SOL    HW1 1031   2.148   2.793   1.250
 2187SOL    HW2 1032   1.986   2.773   1.245
 2189SOL     OW 1033   3.049   3.654   1.616
 2189SOL    HW1 1034   3.073   3.714   1.540
 2189SOL    HW2 1035   3.056   3.559   1.586
 2190SOL     OW 1036   2.179   2.113   1.801
 2190SOL    HW1 1037   2.250   2.184   1.807
 2190SOL    HW2 1038   2.091   2.152   1.829
 2194SOL     OW 1039   3.143   2.207   0.944
 2194SOL    HW1 1040   3.057   2.157   0.931
 2194SOL    HW2 1041   3.205   2.153   1.000
 2196SOL     OW 1042   2.669   2.467   1.465
 2196SOL    HW1 1043   2.622   2.464   1.554
 2196SOL    HW2 1044   2.618   2.412   1.399
 2197SOL     OW 1045   3.256   2.331   1.674
 2197SOL    HW1 1046   3.236   2.374   1.762
 2197SOL    HW2 1047   3.334   2.269   1.683
 2198SOL     OW 1048   2.835   2.752   1.572
 2198SOL    HW1 1049   2.881   2.668   1.543
 2198SOL    HW2 1050   2.779   2.786   1.497
 2199SOL     OW 1051   2.853   2.272   1.242
 2199SOL    HW1 1052   2.776   2.306   1.296
 2199SOL    HW2 1053   2.819   2.221   1.163
 2202SOL     OW 1054   1.992   3.683   1.571
 2202SOL    HW1 1055   1.982   3.668   1.670
 2202SOL    HW2 1056   1.906   3.719   1.535
 2204SOL     OW 1057   3.581   2.447   1.831
 2204SOL    HW1 1058   3.555   2.536   1.795
 2204SOL    HW2 1059   3.579   2.379   1.758
 2206SOL     OW 1060   2.412   2.058   0.885
 2206SOL    HW1 1061   2.407   2.053   0.985
 2206SOL    HW2 1062   2.414   2.154   0.856
 2210SOL     OW 1063   3.089   3.412   1.506
 2210SOL    HW1 1064   3.095   3.335   1.570
 2210SOL    HW2 1065   3.037   3.386   1.426
 2213SOL     OW 1066   2.323   3.128   1.727
 2213SOL    HW1 1067   2.273   3.129   1.641
 2213SOL    HW2 1068   2.260   3.110   1.803
 2215SOL     OW 1069   2.064   2.147   1.498
 2215SOL    HW1 1070   1.984   2.207   1.485
 2215SOL    HW2 1071   2.054   2.098   1.584
 2219SOL     OW 1072   2.111   3.647   1.241
 2219SOL    HW1 1073   2.168   3.582   1.291
 2219SOL    HW2 1074   2.095   3.614   1.148
 2222SOL     OW 1075   3.409   2.084   1.729
 2222SOL    HW1 1076   3.404   2.121   1.821
 2222SOL    HW2 1077   3.337   2.015   1.717
 2223SOL     OW 1078   2.643   2.126   1.749
 2223SOL    HW1 1079   2.710   2.065   1.792
 2223SOL    HW2 1080   2.570   2.145   1.814
 2224SOL     OW 1081   2.750   3.376   1.195
 2224SOL    HW1 1082   2.727   3.351   1.101
 2224SOL    HW2 1083   2.811   3.307   1.234
 2225SOL     OW 1084   3.213   2.452   1.433
 2225SOL    HW1 1085   3.241   2.409   1.518
 2225SOL    HW2 1086   3.238   2.548   1.434
 2226SOL     OW 1087   2.665   3.264   0.924
 2226SOL    HW1 1088   2.755   3.278   0.882
 2226SOL    HW2 1089   2.594   3.266   0.853
 2227SOL     OW 1090   2.784   2.365   0.899
 2227SOL    HW1 1091   2.759   2.356   0.803
 2227SOL    HW2 1092   2.832   2.283   0.930
 2232SOL     OW 1093   2.938   2.545   1.464
 2232SOL    HW1 1094   2.858   2.484   1.467
 2232SOL    HW2 1095   3.019   2.492   1.440
 2237SOL     OW 1096   1.940   2.418   1.386
 2237SOL    HW1 1097   2.032   2.417   1.345
 2237SOL    HW2 1098   1.934   2.492   1.453
 2238SOL     OW 1099   2.423   2.084   1.147
 2238SOL    HW1 1100   2.461   2.000   1.184
 2238SOL    HW2 1101   2.335   2.103   1.191
 2242SOL     OW 1102   3.328   2.452   0.992
 2242SOL    HW1 1103   3.298   2.357   0.999
 2242SOL    HW2 1104   3.401   2.468   1.058
 2248SOL     OW 1105   3.616   3.085   1.588
 2248SOL    HW1 1106   3.707   3.046   1.575
 2248SOL    HW2 1107   3.624   3.181   1.612
 2249SOL     OW 1108   2.926   3.209   1.340
 2249SOL    HW1 1109   2.846   3.186   1.395
 2249SOL    HW2 1110   3.009   3.183   1.389
 2250SOL     OW 1111   3.454   3.491   1.625
 2250SOL    HW1 1112   3.481   3.525   1.535
 2250SOL    HW2 1113   3.533   3.453   1.671
 2251SOL     OW 1114   2.973   3.057   1.100
 2251SOL    HW1 1115   2.933   3.101   1.181
 2251SOL    HW2 1116   2.932   3.094   1.017
 2252SOL     OW 1117   3.500   2.961   1.079
 2252SOL    HW1 1118   3.505   3.042   1.138
 2252SOL    HW2 1119   3.414   2.963   1.028
 2253SOL     OW 1120   2.777   1.951   1.402
 2253SOL    HW1 1121   2.802   1.931   1.307
 2253SOL    HW2 1122   2.849   2.007   1.444
 2254SOL     OW 1123   2.842   2.978   1.719
 2254SOL    HW1 1124   2.743   2.984   1.729
 2254SOL    HW2 1125   2.865   2.898   1.663
 2256SOL     OW 1126   2.272   2.675   1.251
 2256SOL    HW1 1127   2.358   2.687   1.301
 2256SOL    HW2 1128   2.230   2.588   1.278
 2257SOL     OW 1129   3.136   2.248   1.262
 2257SOL    HW1 1130   3.157   2.322   1.326
 2257SOL    HW2 1131   3.047   2.265   1.219
 2258SOL     OW 1132   1.926   3.426   1.331
 2258SOL    HW1 1133   1.880   3.508   1.297
 2258SOL    HW2 1134   2.024   3.445   1.340
 2260SOL     OW 1135   2.428   2.399   0.865
 2260SOL    HW1 1136   2.440   2.465   0.791
 2260SOL    HW2 1137   2.474   2.433   0.948
 2262SOL     OW 1138   3.134   3.307   1.142
 2262SOL    HW1 1139   3.181   3.320   1.229
 2262SOL    HW2 1140   3.068   3.233   1.151
 2264SOL     OW 1141   2.216   3.372   1.329
 2264SOL    HW1 1142   2.195   3.328   1.242
 2264SOL    HW2 1143   2.313   3.398   1.332
 2265SOL     OW 1144   2.264   2.613   1.598
 2265SOL    HW1 1145   2.332   2.668   1.551
 2265SOL    HW2 1146   2.304   2.525   1.625
 2266SOL     OW 1147   3.449   2.641   1.670
 2266SOL    HW1 1148   3.357   2.679   1.665
 2266SOL    HW2 1149   3.509   2.688   1.605
 2267SOL     OW 1150   2.875   1.967   1.770
 2267SOL    HW1 1151   2.881   2.052   1.718
 2267SOL    HW2 1152   2.907   1.891   1.713
 2268SOL     OW 1153   2.366   1.912   1.740
 2268SOL    HW1 1154   2.324   1.855   1.670
 2268SOL    HW2 1155   2.300   1.981   1.772
 2269SOL     OW 1156   2.435   2.732   1.029
 2269SOL    HW1 1157   2.479   2.821   1.020
 2269SOL    HW2 1158   2.372   2.732   1.106
 2270SOL     OW 1159   3.222   2.724   1.045
 2270SOL    HW1 1160   3.147   2.724   0.979
 2270SOL    HW2 1161   3.259   2.632   1.054
 2272SOL     OW 1162   2.169   2.075   1.231
 2272SOL    HW1 1163   2.146   2.112   1.321
 2272SOL    HW2 1164   2.139   1.980   1.225
 2273SOL     OW 1165   1.899   3.172   1.282
 2273SOL    HW1 1166   1.952   3.123   1.350
 2273SOL    HW2 1167   1.921   3.270   1.287
 2274SOL     OW 1168   2.594   2.496   1.064
 2274SOL    HW1 1169   2.653   2.470   0.988
 2274SOL    HW2 1170   2.566   2.592   1.053
 2275SOL     OW 1171   3.590   2.797   1.854
 2275SOL    HW1 1172   3.544   2.790   1.765
 2275SOL    HW2 1173   3.528   2.841   1.920
 2278SOL     OW 1174   2.885   2.628   0.966
 2278SOL    HW1 1175   2.900   2.649   1.062
 2278SOL    HW2 1176   2.855   2.533   0.957
 2279SOL     OW 1177   2.842   3.435   1.700
 2279SOL    HW1 1178   2.822   3.479   1.612
 2279SOL    HW2 1179   2.881   3.344   1.684
 2280SOL     OW 1180   3.721   3.380   1.605
 2280SOL    HW1 1181   3.735   3.407   1.510
 2280SOL    HW2 1182   3.804   3.402   1.658
 2281SOL     OW 1183   2.212   2.760   1.804
 2281SOL    HW1 1184   2.288   2.804   1.852
 2281SOL    HW2 1185   2.247   2.713   1.722
 2285SOL     OW 1186   2.181   2.672   0.949
 2285SOL    HW1 1187   2.274   2.708   0.954
 2285SOL    HW2 1188   2.175   2.587   1.001
 2286SOL     OW 1189   2.201   2.371   1.006
 2286SOL    HW1 1190   2.149   2.288   0.989
 2286SOL    HW2 1191   2.278   2.376   0.942
 2287SOL     OW 1192   3.000   2.242   1.678
 2287SOL    HW1 1193   2.955   2.305   1.742
 2287SOL    HW2 1194   3.093   2.273   1.661
 2288SOL     OW 1195   3.022   2.069   1.477
 2288SOL    HW1 1196   3.022   2.133   1.554
 2288SOL    HW2 1197   3.050   2.117   1.394
 2291SOL     OW 1198   2.864   2.658   1.238
 2291SOL    HW1 1199   2.905   2.626   1.324
 2291SOL    HW2 1200   2.768   2.631   1.235
 2292SOL     OW 1201   1.902   2.406   1.114
 2292SOL    HW1 1202   1.987   2.373   1.073
 2292SOL    HW2 1203   1.915   2.421   1.212
 2293SOL     OW 1204   2.051   2.382   1.722
 2293SOL    HW1 1205   2.110   2.342   1.652
 2293SOL    HW2 1206   1.993   2.453   1.681
 2294SOL     OW 1207   3.231   2.812   1.660
 2294SOL    HW1 1208   3.270   2.901   1.680
 2294SOL    HW2 1209   3.241   2.792   1.563
 2296SOL     OW 1210   3.519   2.466   1.206
 2296SOL    HW1 1211   3.481   2.397   1.268
 2296SOL    HW2 1212   3.601   2.430   1.162
 2297SOL     OW 1213   2.114   3.426   1.744
 2297SOL    HW1 1214   2.084   3.483   1.820
 2297SOL    HW2 1215   2.107   3.329   1.770
 2298SOL     OW 1216   2.533   2.326   1.269
 2298SOL    HW1 1217   2.499   2.237   1.239
 2298SOL    HW2 1218   2.559   2.380   1.189
 2299SOL     OW 1219   2.792   3.540   1.465
 2299SOL    HW1 1220   2.768   3.522   1.370
 2299SOL    HW2 1221   2.822   3.634   1.475
 2301SOL     OW 1222   2.021   2.999   1.466
 2301SOL    HW1 1223   2.043   2.938   1.542
 2301SOL    HW2 1224   2.031   2.950   1.380
 2302SOL     OW 1225   3.209   2.921   1.234
 2302SOL    HW1 1226   3.233   2.858   1.160
 2302SOL    HW2 1227   3.119   2.961   1.216
 2306SOL     OW 1228   1.945   3.120   1.022
 2306SOL    HW1 1229   1.940   3.119   1.122
 2306SOL    HW2 1230   1.862   3.079   0.984
 2307SOL     OW 1231   2.550   3.524   1.716
 2307SOL    HW1 1232   2.494   3.605   1.725
 2307SOL    HW2 1233   2.602   3.528   1.630
 2311SOL     OW 1234   1.992   3.656   1.851
 2311SOL    HW1 1235   1.951   3.582   1.904
 2311SOL    HW2 1236   2.056   3.707   1.909
 2313SOL     OW 1237   2.692   3.135   1.422
 2313SOL    HW1 1238   2.687   3.168   1.517
 2313SOL    HW2 1239   2.606   3.154   1.376
 2319SOL     OW 1240   2.684   2.864   1.372
 2319SOL    HW1 1241   2.724   2.863   1.280
 2319SOL    HW2 1242   2.694   2.956   1.412
 2322SOL     OW 1243   2.234   3.150   1.490
 2322SOL    HW1 1244   2.221   3.243   1.456
 2322SOL    HW2 1245   2.150   3.098   1.477
 2323SOL     OW 1246   3.476   3.154   1.289
 2323SOL    HW1 1247   3.536   3.157   1.369
 2323SOL    HW2 1248   3.401   3.218   1.302
 2325SOL     OW 1249   2.876   2.098   0.971
 2325SOL    HW1 1250   2.868   2.062   0.878
 2325SOL    HW2 1251   2.874   2.022   1.036
 2327SOL     OW 1252   3.571   2.247   1.381
 2327SOL    HW1 1253   3.644   2.316   1.385
 2327SOL    HW2 1254   3.599   2.172   1.322
 2329SOL     OW 1255   1.967   2.875   1.726
 2329SOL    HW1 1256   1.890   2.842   1.780
 2329SOL    HW2 1257   2.052   2.845   1.768
 2330SOL     OW 1258   2.534   2.065   1.489
 2330SOL    HW1 1259   2.624   2.049   1.449
 2330SOL    HW2 1260   2.542   2.070   1.588
 2331SOL     OW 1261   3.302   2.718   1.398
 2331SOL    HW1 1262   3.245   2.770   1.335
 2331SOL    HW2 1263   3.398   2.730   1.374
 2334SOL     OW 1264   2.475   2.704   1.431
 2334SOL    HW1 1265   2.531   2.785   1.414
 2334SOL    HW2 1266   2.534   2.624   1.434
 2336SOL     OW 1267   2.578   2.427   1.708
 2336SOL    HW1 1268   2.597   2.492   1.782
 2336SOL    HW2 1269   2.638   2.347   1.717
 2337SOL     OW 1270   3.312   3.082   1.633
 2337SOL    HW1 1271   3.303   3.072   1.732
 2337SOL    HW2 1272   3.408   3.075   1.607
 2338SOL     OW 1273   2.252   3.603   1.560
 2338SOL    HW1 1274   2.161   3.644   1.558
 2338SOL    HW2 1275   2.245   3.509   1.592
 2339SOL     OW 1276   3.536   2.745   1.254
 2339SOL    HW1 1277   3.509   2.656   1.217
 2339SOL    HW2 1278   3.537   2.813   1.181
 2342SOL     OW 1279   3.639   2.204   1.642
 2342SOL    HW1 1280   3.622   2.235   1.548
 2342SOL    HW2 1281   3.555   2.167   1.680
 2343SOL     OW 1282   3.592   2.796   1.517
 2343SOL    HW1 1283   3.630   2.887   1.532
 2343SOL    HW2 1284   3.584   2.779   1.418
 2346SOL     OW 1285   2.721   2.818   0.861
 2346SOL    HW1 1286   2.775   2.749   0.909
 2346SOL    HW2 1287   2.689   2.887   0.927
 2349SOL     OW 1288   2.083   3.176   1.844
 2349SOL    HW1 1289   2.018   3.103   1.823
 2349SOL    HW2 1290   2.087   3.190   1.942
 2351SOL     OW 1291   2.534   3.253   1.624
 2351SOL    HW1 1292   2.456   3.203   1.662
 2351SOL    HW2 1293   2.531   3.348   1.655
 2355SOL     OW 1294   2.179   2.409   1.280
 2355SOL    HW1 1295   2.217   2.350   1.352
 2355SOL    HW2 1296   2.219   2.383   1.192
 2357SOL     OW 1297   3.286   2.076   1.112
 2357SOL    HW1 1298   3.338   2.011   1.167
 2357SOL    HW2 1299   3.237   2.139   1.173
 2358SOL     OW 1300   2.863   1.896   1.154
 2358SOL    HW1 1301   2.800   1.824   1.123
 2358SOL    HW2 1302   2.956   1.860   1.154
 2360SOL     OW 1303   2.480   3.429   1.284
 2360SOL    HW1 1304   2.475   3.511   1.341
 2360SOL    HW2 1305   2.569   3.426   1.239
 2366SOL     OW 1306   2.092   2.490   1.975
 2366SOL    HW1 1307   1.999   2.488   2.012
 2366SOL    HW2 1308   2.093   2.451   1.883
 2367SOL     OW 1309   2.087   2.137   2.858
 2367SOL    HW1 1310   2.122   2.120   2.950
 2367SOL    HW2 1311   1.999   2.092   2.846
 2368SOL     OW 1312   1.881   2.230   2.509
 2368SOL    HW1 1313   1.799   2.273   2.548
 2368SOL    HW2 1314   1.853   2.157   2.446
 2369SOL     OW 1315   2.431   3.137   3.027
 2369SOL    HW1 1316   2.338   3.130   2.990
 2369SOL    HW2 1317   2.442   3.226   3.071
 2370SOL     OW 1318   3.417   3.373   2.565
 2370SOL    HW1 1319   3.360   3.357   2.646
 2370SOL    HW2 1320   3.358   3.383   2.485
 2371SOL     OW 1321   2.997   2.565   2.579
 2371SOL    HW1 1322   3.054   2.643   2.554
 2371SOL    HW2 1323   2.937   2.591   2.655
 2372SOL     OW 1324   3.617   2.469   2.093
 2372SOL    HW1 1325   3.605   2.456   1.994
 2372SOL    HW2 1326   3.587   2.388   2.142
 2373SOL     OW 1327   2.630   3.006   2.885
 2373SOL    HW1 1328   2.552   3.023   2.945
 2373SOL    HW2 1329   2.664   3.093   2.849
 2374SOL     OW 1330   2.712   2.660   3.685
 2374SOL    HW1 1331   2.708   2.736   3.750
 2374SOL    HW2 1332   2.734   2.696   3.594
 2375SOL     OW 1333   2.547   2.874   2.527
 2375SOL    HW1 1334   2.616   2.858   2.597
 2375SOL    HW2 1335   2.474   2.931   2.565
 2376SOL     OW 1336   2.548   3.023   3.665
 2376SOL    HW1 1337   2.608   3.102   3.679
 2376SOL    HW2 1338   2.462   3.054   3.624
 2377SOL     OW 1339   2.197   3.297   2.923
 2377SOL    HW1 1340   2.119   3.266   2.870
 2377SOL    HW2 1341   2.255   3.355   2.866
 2378SOL     OW 1342   3.322   3.367   3.201
 2378SOL    HW1 1343   3.346   3.461   3.227
 2378SOL    HW2 1344   3.306   3.313   3.283
 2379SOL     OW 1345   2.300   2.254   3.361
 2379SOL    HW1 1346   2.382   2.198   3.370
 2379SOL    HW2 1347   2.219   2.196   3.365
 2380SOL     OW 1348   3.465   2.309   2.599
 2380SOL    HW1 1349   3.391   2.355   2.549
 2380SOL    HW2 1350   3.516   2.377   2.652
 2381SOL     OW 1351   2.093   3.575   2.345
 2381SOL    HW1 1352   2.127   3.652   2.399
 2381SOL    HW2 1353   2.137   3.575   2.255
 2382SOL     OW 1354   2.989   3.203   3.552
 2382SOL    HW1 1355   3.036   3.203   3.640
 2382SOL    HW2 1356   2.941   3.116   3.541
 2383SOL     OW 1357   2.092   3.296   2.400
 2383SOL    HW1 1358   2.066   3.392   2.400
 2383SOL    HW2 1359   2.021   3.242   2.445
 2384SOL     OW 1360   2.102   2.953   2.748
 2384SOL    HW1 1361   2.116   2.869   2.800
 2384SOL    HW2 1362   2.047   3.017   2.803
 2385SOL     OW 1363   2.482   3.648   3.301
 2385SOL    HW1 1364   2.390   3.631   3.336
 2385SOL    HW2 1365   2.510   3.740   3.327
 2386SOL     OW 1366   2.468   2.826   1.985
 2386SOL    HW1 1367   2.475   2.910   1.931
 2386SOL    HW2 1368   2.514   2.839   2.073
 2387SOL     OW 1369   3.456   1.976   3.342
 2387SOL    HW1 1370   3.438   2.043   3.270
 2387SOL    HW2 1371   3.453   2.022   3.431
 2388SOL     OW 1372   1.984   2.505   2.425
 2388SOL    HW1 1373   1.939   2.417   2.442
 2388SOL    HW2 1374   1.983   2.559   2.509
 2389SOL     OW 1375   3.704   3.629   2.221
 2389SOL    HW1 1376   3.758   3.600   2.301
 2389SOL    HW2 1377   3.734   3.719   2.192
 2390SOL     OW 1378   1.889   3.458   1.979
 2390SOL    HW1 1379   1.870   3.362   2.000
 2390SOL    HW2 1380   1.856   3.516   2.054
 2391SOL     OW 1381   3.551   2.784   2.474
 2391SOL    HW1 1382   3.646   2.755   2.482
 2391SOL    HW2 1383   3.543   2.849   2.399
 2392SOL     OW 1384   3.503   2.970   2.294
 2392SOL    HW1 1385   3.589   2.972   2.242
 2392SOL    HW2 1386   3.517   3.017   2.382
 2393SOL     OW 1387   1.975   2.599   3.459
 2393SOL    HW1 1388   2.063   2.586   3.504
 2393SOL    HW2 1389   1.962   2.696   3.437
 2394SOL     OW 1390   2.475   3.227   2.588
 2394SOL    HW1 1391   2.426   3.140   2.597
 2394SOL    HW2 1392   2.452   3.270   2.501
 2395SOL     OW 1393   3.155   3.090   3.285
 2395SOL    HW1 1394   3.192   3.017   3.227
 2395SOL    HW2 1395   3.207   3.095   3.370
 2396SOL     OW 1396   2.671   1.866   2.364
 2396SOL    HW1 1397   2.711   1.957   2.355
 2396SOL    HW2 1398   2.571   1.874   2.370
 2397SOL     OW 1399   2.059   2.838   3.126
 2397SOL    HW1 1400   2.148   2.793   3.112
 2397SOL    HW2 1401   1.986   2.773   3.107
 2398SOL     OW 1402   3.387   2.861   2.052
 2398SOL    HW1 1403   3.324   2.785   2.065
 2398SOL    HW2 1404   3.435   2.879   2.138
 2399SOL     OW 1405   3.049   3.654   3.478
 2399SOL    HW1 1406   3.073   3.714   3.402
 2399SOL    HW2 1407   3.056   3.559   3.448
 2400SOL     OW 1408   2.179   2.113   3.663
 2400SOL    HW1 1409   2.250   2.184   3.669
 2400SOL    HW2 1410   2.091   2.152   3.691
 2401SOL     OW 1411   3.328   3.279   2.815
 2401SOL    HW1 1412   3.269   3.285   2.895
 2401SOL    HW2 1413   3.313   3.191   2.769
 2402SOL     OW 1414   3.529   3.576   2.434
 2402SOL    HW1 1415   3.488   3.553   2.346
 2402SOL    HW2 1416   3.511   3.502   2.499
 2403SOL     OW 1417   3.143   2.207   2.806
 2403SOL    HW1 1418   3.057   2.157   2.793
 2403SOL    HW2 1419   3.205   2.153   2.862
 2404SOL     OW 1420   3.438   3.524   2.169
 2404SOL    HW1 1421   3.527   3.570   2.172
 2404SOL    HW2 1422   3.417   3.500   2.074
 2405SOL     OW 1423   2.669   2.467   3.327
 2405SOL    HW1 1424   2.622   2.464   3.416
 2405SOL    HW2 1425   2.618   2.412   3.261
 2406SOL     OW 1426   3.256   2.331   3.536
 2406SOL    HW1 1427   3.236   2.374   3.624
 2406SOL    HW2 1428   3.334   2.269   3.545
 2407SOL     OW 1429   2.835   2.752   3.434
 2407SOL    HW1 1430   2.881   2.668   3.405
 2407SOL    HW2 1431   2.779   2.786   3.359
 2408SOL     OW 1432   2.853   2.272   3.104
 2408SOL    HW1 1433   2.776   2.306   3.158
 2408SOL    HW2 1434   2.819   2.221   3.025
 2409SOL     OW 1435   2.903   2.563   2.291
 2409SOL    HW1 1436   2.929   2.559   2.387
 2409SOL    HW2 1437   2.818   2.512   2.277
 2410SOL     OW 1438   1.938   2.673   2.651
 2410SOL    HW1 1439   2.037   2.661   2.660
 2410SOL    HW2 1440   1.914   2.768   2.672
 2411SOL     OW 1441   1.992   3.683   3.433
 2411SOL    HW1 1442   1.982   3.668   3.532
 2411SOL    HW2 1443   1.906   3.719   3.397
 2412SOL     OW 1444   2.727   2.210   2.057
 2412SOL    HW1 1445   2.786   2.273   2.008
 2412SOL    HW2 1446   2.746   2.116   2.028
 2413SOL     OW 1447   3.581   2.447   3.693
 2413SOL    HW1 1448   3.555   2.536   3.657
 2413SOL    HW2 1449   3.579   2.379   3.620
 2414SOL     OW 1450   3.224   3.006   2.407
 2414SOL    HW1 1451   3.307   2.977   2.359
 2414SOL    HW2 1452   3.175   3.073   2.351
 2415SOL     OW 1453   2.412   2.058   2.747
 2415SOL    HW1 1454   2.407   2.053   2.847
 2415SOL    HW2 1455   2.414   2.154   2.718
 2416SOL     OW 1456   2.870   3.318   2.339
 2416SOL    HW1 1457   2.824   3.390   2.287
 2416SOL    HW2 1458   2.866   3.338   2.437
 2417SOL     OW 1459   2.213   3.663   2.715
 2417SOL    HW1 1460   2.263   3.577   2.721
 2417SOL    HW2 1461   2.278   3.740   2.712
 2418SOL     OW 1462   3.657   2.928   2.735
 2418SOL    HW1 1463   3.595   2.913   2.659
 2418SOL    HW2 1464   3.605   2.939   2.820
 2419SOL     OW 1465   3.089   3.412   3.368
 2419SOL    HW1 1466   3.095   3.335   3.432
 2419SOL    HW2 1467   3.037   3.386   3.288
 2420SOL     OW 1468   3.320   2.597   2.590
 2420SOL    HW1 1469   3.315   2.532   2.665
 2420SOL    HW2 1470   3.400   2.656   2.603
 2421SOL     OW 1471   2.323   3.128   3.589
 2421SOL    HW1 1472   2.273   3.129   3.503
 2421SOL    HW2 1473   2.260   3.110   3.665
 2422SOL     OW 1474   2.973   3.638   2.099
 2422SOL    HW1 1475   2.913   3.576   2.149
 2422SOL    HW2 1476   3.004   3.594   2.014
 2423SOL     OW 1477   2.064   2.147   3.360
 2423SOL    HW1 1478   1.984   2.207   3.347
 2423SOL    HW2 1479   2.054   2.098   3.446
 2424SOL     OW 1480   3.494   3.239   1.943
 2424SOL    HW1 1481   3.462   3.333   1.933
 2424SOL    HW2 1482   3.418   3.176   1.931
 2425SOL     OW 1483   2.326   3.605   2.185
 2425SOL    HW1 1484   2.359   3.644   2.271
 2425SOL    HW2 1485   2.402   3.598   2.120
 2426SOL     OW 1486   3.262   1.969   2.288
 2426SOL    HW1 1487   3.238   1.932   2.198
 2426SOL    HW2 1488   3.361   1.985   2.292
 2427SOL     OW 1489   2.111   3.647   3.103
 2427SOL    HW1 1490   2.168   3.582   3.153
 2427SOL    HW2 1491   2.095   3.614   3.010
 2428SOL     OW 1492   2.802   3.560   2.766
 2428SOL    HW1 1493   2.882   3.503   2.787
 2428SOL    HW2 1494   2.753   3.520   2.689
 2429SOL     OW 1495   3.409   2.084   3.591
 2429SOL    HW1 1496   3.404   2.121   3.683
 2429SOL    HW2 1497   3.337   2.015   3.579
 2430SOL     OW 1498   2.476   1.984   1.979
 2430SOL    HW1 1499   2.574   1.962   1.986
 2430SOL    HW2 1500   2.445   1.967   1.886
 2431SOL     OW 1501   2.643   2.126   3.611
 2431SOL    HW1 1502   2.710   2.065   3.654
 2431SOL    HW2 1503   2.570   2.145   3.676
 2432SOL     OW 1504   2.750   3.376   3.057
 2432SOL    HW1 1505   2.727   3.351   2.963
 2432SOL    HW2 1506   2.811   3.307   3.096
 2433SOL     OW 1507   3.213   2.452   3.295
 2433SOL    HW1 1508   3.241   2.409   3.380
 2433SOL    HW2 1509   3.238   2.548   3.296
 2434SOL     OW 1510   2.665   3.264   2.786
 2434SOL    HW1 1511   2.755   3.278   2.744
 2434SOL    HW2 1512   2.594   3.266   2.715
 2435SOL     OW 1513   2.401   1.926   2.374
 2435SOL    HW1 1514   2.320   1.927   2.432
 2435SOL    HW2 1515   2.404   2.009   2.319
 2436SOL     OW 1516   3.296   3.050   1.903
 2436SOL    HW1 1517   3.328   2.974   1.960
 2436SOL    HW2 1518   3.204   3.077   1.933
 2437SOL     OW 1519   2.159   1.897   2.033
 2437SOL    HW1 1520   2.208   1.981   2.012
 2437SOL    HW2 1521   2.221   1.832   2.078
 2438SOL     OW 1522   2.797   2.098   2.342
 2438SOL    HW1 1523   2.749   2.139   2.264
 2438SOL    HW2 1524   2.896   2.096   2.323
 2439SOL     OW 1525   2.938   2.545   3.326
 2439SOL    HW1 1526   2.858   2.484   3.329
 2439SOL    HW2 1527   3.019   2.492   3.302
 2440SOL     OW 1528   3.089   3.432   2.655
 2440SOL    HW1 1529   3.110   3.506   2.590
 2440SOL    HW2 1530   3.157   3.432   2.728
 2441SOL     OW 1531   2.321   3.014   2.603
 2441SOL    HW1 1532   2.250   2.987   2.668
 2441SOL    HW2 1533   2.295   2.986   2.510
 2442SOL     OW 1534   3.133   3.659   2.453
 2442SOL    HW1 1535   3.177   3.723   2.389
 2442SOL    HW2 1536   3.083   3.711   2.523
 2443SOL     OW 1537   2.894   2.411   1.878
 2443SOL    HW1 1538   2.853   2.493   1.839
 2443SOL    HW2 1539   2.958   2.437   1.951
 2444SOL     OW 1540   1.940   2.418   3.248
 2444SOL    HW1 1541   2.032   2.417   3.207
 2444SOL    HW2 1542   1.934   2.492   3.315
 2445SOL     OW 1543   2.423   2.084   3.009
 2445SOL    HW1 1544   2.461   2.000   3.046
 2445SOL    HW2 1545   2.335   2.103   3.053
 2446SOL     OW 1546   2.728   2.316   2.504
 2446SOL    HW1 1547   2.696   2.388   2.442
 2446SOL    HW2 1548   2.752   2.235   2.451
 2447SOL     OW 1549   2.879   1.901   2.615
 2447SOL    HW1 1550   2.807   1.906   2.546
 2447SOL    HW2 1551   2.855   1.832   2.684
 2448SOL     OW 1552   3.291   3.035   2.729
 2448SOL    HW1 1553   3.236   2.951   2.722
 2448SOL    HW2 1554   3.317   3.064   2.637
 2449SOL     OW 1555   3.328   2.452   2.854
 2449SOL    HW1 1556   3.298   2.357   2.861
 2449SOL    HW2 1557   3.401   2.468   2.920
 2450SOL     OW 1558   3.719   2.695   2.239
 2450SOL    HW1 1559   3.761   2.631   2.303
 2450SOL    HW2 1560   3.681   2.644   2.161
 2451SOL     OW 1561   2.350   3.247   2.036
 2451SOL    HW1 1562   2.263   3.232   2.083
 2451SOL    HW2 1563   2.333   3.273   1.941
 2452SOL     OW 1564   3.526   3.142   2.519
 2452SOL    HW1 1565   3.625   3.150   2.533
 2452SOL    HW2 1566   3.481   3.226   2.550
 2453SOL     OW 1567   3.252   2.437   1.940
 2453SOL    HW1 1568   3.198   2.416   2.021
 2453SOL    HW2 1569   3.343   2.396   1.949
 2454SOL     OW 1570   2.389   2.118   2.190
 2454SOL    HW1 1571   2.416   2.059   2.115
 2454SOL    HW2 1572   2.389   2.213   2.159
 2455SOL     OW 1573   3.616   3.085   3.450
 2455SOL    HW1 1574   3.707   3.046   3.437
 2455SOL    HW2 1575   3.624   3.181   3.474
 2456SOL     OW 1576   2.926   3.209   3.202
 2456SOL    HW1 1577   2.846   3.186   3.257
 2456SOL    HW2 1578   3.009   3.183   3.251
 2457SOL     OW 1579   3.454   3.491   3.487
 2457SOL    HW1 1580   3.481   3.525   3.397
 2457SOL    HW2 1581   3.533   3.453   3.533
 2458SOL     OW 1582   2.973   3.057   2.962
 2458SOL    HW1 1583   2.933   3.101   3.043
 2458SOL    HW2 1584   2.932   3.094   2.879
 2459SOL     OW 1585   3.500   2.961   2.941
 2459SOL    HW1 1586   3.505   3.042   3.000
 2459SOL    HW2 1587   3.414   2.963   2.890
 2460SOL     OW 1588   2.777   1.951   3.264
 2460SOL    HW1 1589   2.802   1.931   3.169
 2460SOL    HW2 1590   2.849   2.007   3.306
 2461SOL     OW 1591   2.842   2.978   3.581
 2461SOL    HW1 1592   2.743   2.984   3.591
 2461SOL    HW2 1593   2.865   2.898   3.525
 2462SOL     OW 1594   2.272   2.675   3.113
 2462SOL    HW1 1595   2.358   2.687   3.163
 2462SOL    HW2 1596   2.230   2.588   3.140
 2463SOL     OW 1597   3.136   2.248   3.124
 2463SOL    HW1 1598   3.157   2.322   3.188
 2463SOL    HW2 1599   3.047   2.265   3.081
 2464SOL     OW 1600   1.926   3.426   3.193
 2464SOL    HW1 1601   1.880   3.508   3.159
 2464SOL    HW2 1602   2.024   3.445   3.202
 2465SOL     OW 1603   3.114   3.210   2.250
 2465SOL    HW1 1604   3.164   3.287   2.290
 2465SOL    HW2 1605   3.019   3.212   2.282
 2466SOL     OW 1606   3.134   3.307   3.004
 2466SOL    HW1 1607   3.181   3.320   3.091
 2466SOL    HW2 1608   3.068   3.233   3.013
 2467SOL     OW 1609   3.444   2.501   2.334
 2467SOL    HW1 1610   3.413   2.562   2.407
 2467SOL    HW2 1611   3.494   2.553   2.265
 2468SOL     OW 1612   2.216   3.372   3.191
 2468SOL    HW1 1613   2.195   3.328   3.104
 2468SOL    HW2 1614   2.313   3.398   3.194
 2469SOL     OW 1615   2.264   2.613   3.460
 2469SOL    HW1 1616   2.332   2.668   3.413
 2469SOL    HW2 1617   2.304   2.525   3.487
 2470SOL     OW 1618   3.449   2.641   3.532
 2470SOL    HW1 1619   3.357   2.679   3.527
 2470SOL    HW2 1620   3.509   2.688   3.467
 2471SOL     OW 1621   2.875   1.967   3.632
 2471SOL    HW1 1622   2.881   2.052   3.580
 2471SOL    HW2 1623   2.907   1.891   3.575
 2472SOL     OW 1624   2.366   1.912   3.602
 2472SOL    HW1 1625   2.324   1.855   3.532
 2472SOL    HW2 1626   2.300   1.981   3.634
 2473SOL     OW 1627   2.435   2.732   2.891
 2473SOL    HW1 1628   2.479   2.821   2.882
 2473SOL    HW2 1629   2.372   2.732   2.968
 2474SOL     OW 1630   3.222   2.724   2.907
 2474SOL    HW1 1631   3.147   2.724   2.841
 2474SOL    HW2 1632   3.259   2.632   2.916
 2475SOL     OW 1633   3.071   2.387   2.137
 2475SOL    HW1 1634   3.084   2.303   2.191
 2475SOL    HW2 1635   3.042   2.461   2.197
 2476SOL     OW 1636   2.169   2.075   3.093
 2476SOL    HW1 1637   2.146   2.112   3.183
 2476SOL    HW2 1638   2.139   1.980   3.087
 2477SOL     OW 1639   1.899   3.172   3.144
 2477SOL    HW1 1640   1.952   3.123   3.212
 2477SOL    HW2 1641   1.921   3.270   3.149
 2478SOL     OW 1642   3.590   2.797   3.716
 2478SOL    HW1 1643   3.544   2.790   3.627
 2478SOL    HW2 1644   3.528   2.841   3.782
 2479SOL     OW 1645   2.169   1.925   2.480
 2479SOL    HW1 1646   2.158   2.019   2.513
 2479SOL    HW2 1647   2.164   1.862   2.557
 2480SOL     OW 1648   3.484   2.229   2.236
 2480SOL    HW1 1649   3.486   2.153   2.300
 2480SOL    HW2 1650   3.436   2.306   2.276
 2481SOL     OW 1651   2.842   3.435   3.562
 2481SOL    HW1 1652   2.822   3.479   3.474
 2481SOL    HW2 1653   2.881   3.344   3.546
 2482SOL     OW 1654   3.721   3.380   3.467
 2482SOL    HW1 1655   3.735   3.407   3.372
 2482SOL    HW2 1656   3.804   3.402   3.520
 2483SOL     OW 1657   2.212   2.760   3.666
 2483SOL    HW1 1658   2.288   2.804   3.714
 2483SOL    HW2 1659   2.247   2.713   3.584
 2484SOL     OW 1660   3.402   2.136   1.987
 2484SOL    HW1 1661   3.341   2.061   2.010
 2484SOL    HW2 1662   3.424   2.188   2.070
 2485SOL     OW 1663   3.165   2.700   1.904
 2485SOL    HW1 1664   3.199   2.607   1.919
 2485SOL    HW2 1665   3.183   2.727   1.809
 2486SOL     OW 1666   2.930   3.195   2.711
 2486SOL    HW1 1667   2.937   3.111   2.656
 2486SOL    HW2 1668   2.992   3.264   2.675
 2487SOL     OW 1669   2.181   2.672   2.811
 2487SOL    HW1 1670   2.274   2.708   2.816
 2487SOL    HW2 1671   2.175   2.587   2.863
 2488SOL     OW 1672   2.201   2.371   2.868
 2488SOL    HW1 1673   2.149   2.288   2.851
 2488SOL    HW2 1674   2.278   2.376   2.804
 2489SOL     OW 1675   3.000   2.242   3.540
 2489SOL    HW1 1676   2.955   2.305   3.604
 2489SOL    HW2 1677   3.093   2.273   3.523
 2490SOL     OW 1678   3.022   2.069   3.339
 2490SOL    HW1 1679   3.022   2.133   3.416
 2490SOL    HW2 1680   3.050   2.117   3.256
 2491SOL     OW 1681   1.870   3.188   2.062
 2491SOL    HW1 1682   1.777   3.209   2.031
 2491SOL    HW2 1683   1.880   3.089   2.075
 2492SOL     OW 1684   1.950   3.663   2.789
 2492SOL    HW1 1685   1.908   3.577   2.762
 2492SOL    HW2 1686   2.044   3.666   2.755
 2493SOL     OW 1687   2.366   3.430   2.772
 2493SOL    HW1 1688   2.432   3.504   2.781
 2493SOL    HW2 1689   2.410   3.351   2.730
 2494SOL     OW 1690   2.864   2.658   3.100
 2494SOL    HW1 1691   2.905   2.626   3.186
 2494SOL    HW2 1692   2.768   2.631   3.097
 2495SOL     OW 1693   1.902   2.406   2.976
 2495SOL    HW1 1694   1.987   2.373   2.935
 2495SOL    HW2 1695   1.915   2.421   3.074
 2496SOL     OW 1696   2.051   2.382   3.584
 2496SOL    HW1 1697   2.110   2.342   3.514
 2496SOL    HW2 1698   1.993   2.453   3.543
 2497SOL     OW 1699   3.231   2.812   3.522
 2497SOL    HW1 1700   3.270   2.901   3.542
 2497SOL    HW2 1701   3.241   2.792   3.425
 2498SOL     OW 1702   2.677   2.434   2.187
 2498SOL    HW1 1703   2.684   2.345   2.141
 2498SOL    HW2 1704   2.583   2.468   2.179
 2499SOL     OW 1705   3.519   2.466   3.068
 2499SOL    HW1 1706   3.481   2.397   3.130
 2499SOL    HW2 1707   3.601   2.430   3.024
 2500SOL     OW 1708   2.114   3.426   3.606
 2500SOL    HW1 1709   2.084   3.483   3.682
 2500SOL    HW2 1710   2.107   3.329   3.632
 2501SOL     OW 1711   2.792   3.540   3.327
 2501SOL    HW1 1712   2.768   3.522   3.232
 2501SOL    HW2 1713   2.822   3.634   3.337
 2502SOL     OW 1714   2.335   2.362   2.053
 2502SOL    HW1 1715   2.396   2.442   2.057
 2502SOL    HW2 1716   2.240   2.393   2.060
 2503SOL     OW 1717   2.021   2.999   3.328
 2503SOL    HW1 1718   2.043   2.938   3.404
 2503SOL    HW2 1719   2.031   2.950   3.242
 2504SOL     OW 1720   3.209   2.921   3.096
 2504SOL    HW1 1721   3.233   2.858   3.022
 2504SOL    HW2 1722   3.119   2.961   3.078
 2505SOL     OW 1723   3.164   2.717   2.171
 2505SOL    HW1 1724   3.078   2.686   2.213
 2505SOL    HW2 1725   3.160   2.703   2.072
 2506SOL     OW 1726   3.621   3.609   3.016
 2506SOL    HW1 1727   3.682   3.639   2.943
 2506SOL    HW2 1728   3.583   3.520   2.994
 2507SOL     OW 1729   3.114   3.593   2.990
 2507SOL    HW1 1730   3.198   3.598   2.936
 2507SOL    HW2 1731   3.091   3.497   3.008
 2508SOL     OW 1732   1.945   3.120   2.884
 2508SOL    HW1 1733   1.940   3.119   2.984
 2508SOL    HW2 1734   1.862   3.079   2.846
 2509SOL     OW 1735   2.550   3.524   3.578
 2509SOL    HW1 1736   2.494   3.605   3.587
 2509SOL    HW2 1737   2.602   3.528   3.492
 2510SOL     OW 1738   3.588   1.997   2.385
 2510SOL    HW1 1739   3.661   1.980   2.318
 2510SOL    HW2 1740   3.557   1.910   2.423
 2511SOL     OW 1741   3.250   3.435   2.339
 2511SOL    HW1 1742   3.317   3.447   2.265
 2511SOL    HW2 1743   3.210   3.524   2.362
 2512SOL     OW 1744   1.992   3.656   3.713
 2512SOL    HW1 1745   1.951   3.582   3.766
 2512SOL    HW2 1746   2.056   3.707   3.771
 2513SOL     OW 1747   3.142   2.789   2.534
 2513SOL    HW1 1748   3.202   2.708   2.536
 2513SOL    HW2 1749   3.182   2.858   2.474
 2514SOL     OW 1750   2.692   3.135   3.284
 2514SOL    HW1 1751   2.687   3.168   3.379
 2514SOL    HW2 1752   2.606   3.154   3.238
 2515SOL     OW 1753   2.534   3.478   2.016
 2515SOL    HW1 1754   2.543   3.488   1.917
 2515SOL    HW2 1755   2.494   3.389   2.037
 2516SOL     OW 1756   3.512   3.582   3.256
 2516SOL    HW1 1757   3.565   3.592   3.172
 2516SOL    HW2 1758   3.485   3.672   3.290
 2517SOL     OW 1759   3.703   2.037   2.825
 2517SOL    HW1 1760   3.742   1.952   2.789
 2517SOL    HW2 1761   3.605   2.039   2.806
 2518SOL     OW 1762   2.125   2.188   2.582
 2518SOL    HW1 1763   2.046   2.239   2.548
 2518SOL    HW2 1764   2.116   2.173   2.680
 2519SOL     OW 1765   3.056   3.474   1.893
 2519SOL    HW1 1766   3.062   3.381   1.930
 2519SOL    HW2 1767   2.997   3.474   1.813
 2520SOL     OW 1768   2.684   2.864   3.234
 2520SOL    HW1 1769   2.724   2.863   3.142
 2520SOL    HW2 1770   2.694   2.956   3.274
 2521SOL     OW 1771   2.778   2.772   2.153
 2521SOL    HW1 1772   2.841   2.810   2.085
 2521SOL    HW2 1773   2.818   2.689   2.192
 2522SOL     OW 1774   3.366   3.469   1.906
 2522SOL    HW1 1775   3.274   3.506   1.913
 2522SOL    HW2 1776   3.404   3.489   1.816
 2523SOL     OW 1777   2.234   3.150   3.352
 2523SOL    HW1 1778   2.221   3.243   3.318
 2523SOL    HW2 1779   2.150   3.098   3.339
 2524SOL     OW 1780   3.476   3.154   3.151
 2524SOL    HW1 1781   3.536   3.157   3.231
 2524SOL    HW2 1782   3.401   3.218   3.164
 2525SOL     OW 1783   2.901   2.960   2.558
 2525SOL    HW1 1784   2.831   2.913   2.612
 2525SOL    HW2 1785   2.960   2.892   2.515
 2526SOL     OW 1786   2.876   2.098   2.833
 2526SOL    HW1 1787   2.868   2.062   2.740
 2526SOL    HW2 1788   2.874   2.022   2.898
 2527SOL     OW 1789   2.452   3.349   2.353
 2527SOL    HW1 1790   2.494   3.291   2.283
 2527SOL    HW2 1791   2.408   3.428   2.309
 2528SOL     OW 1792   3.571   2.247   3.243
 2528SOL    HW1 1793   3.644   2.316   3.247
 2528SOL    HW2 1794   3.599   2.172   3.184
 2529SOL     OW 1795   2.117   3.210   2.152
 2529SOL    HW1 1796   2.021   3.211   2.125
 2529SOL    HW2 1797   2.129   3.263   2.236
 2530SOL     OW 1798   1.967   2.875   3.588
 2530SOL    HW1 1799   1.890   2.842   3.642
 2530SOL    HW2 1800   2.052   2.845   3.630
 2531SOL     OW 1801   2.534   2.065   3.351
 2531SOL    HW1 1802   2.624   2.049   3.311
 2531SOL    HW2 1803   2.542   2.070   3.450
 2532SOL     OW 1804   1.937   2.207   1.895
 2532SOL    HW1 1805   1.845   2.179   1.866
 2532SOL    HW2 1806   1.968   2.284   1.839
 2533SOL     OW 1807   3.302   2.718   3.260
 2533SOL    HW1 1808   3.245   2.770   3.197
 2533SOL    HW2 1809   3.398   2.730   3.236
 2534SOL     OW 1810   1.934   2.028   2.180
 2534SOL    HW1 1811   1.917   2.111   2.126
 2534SOL    HW2 1812   2.024   1.991   2.158
 2535SOL     OW 1813   3.045   3.197   1.981
 2535SOL    HW1 1814   2.946   3.186   1.983
 2535SOL    HW2 1815   3.079   3.212   2.074
 2536SOL     OW 1816   2.475   2.704   3.293
 2536SOL    HW1 1817   2.531   2.785   3.276
 2536SOL    HW2 1818   2.534   2.624   3.296
 2537SOL     OW 1819   3.355   3.629   2.821
 2537SOL    HW1 1820   3.388   3.693   2.752
 2537SOL    HW2 1821   3.421   3.623   2.896
 2538SOL     OW 1822   2.578   2.427   3.570
 2538SOL    HW1 1823   2.597   2.492   3.644
 2538SOL    HW2 1824   2.638   2.347   3.579
 2539SOL     OW 1825   3.312   3.082   3.495
 2539SOL    HW1 1826   3.303   3.072   3.594
 2539SOL    HW2 1827   3.408   3.075   3.469
 2540SOL     OW 1828   2.252   3.603   3.422
 2540SOL    HW1 1829   2.161   3.644   3.420
 2540SOL    HW2 1830   2.245   3.509   3.454
 2541SOL     OW 1831   3.536   2.745   3.116
 2541SOL    HW1 1832   3.509   2.656   3.079
 2541SOL    HW2 1833   3.537   2.813   3.043
 2542SOL     OW 1834   3.087   2.187   2.311
 2542SOL    HW1 1835   3.152   2.113   2.300
 2542SOL    HW2 1836   3.107   2.237   2.395
 2543SOL     OW 1837   3.639   2.204   3.504
 2543SOL    HW1 1838   3.622   2.235   3.410
 2543SOL    HW2 1839   3.555   2.167   3.542
 2544SOL     OW 1840   3.592   2.796   3.379
 2544SOL    HW1 1841   3.630   2.887   3.394
 2544SOL    HW2 1842   3.584   2.779   3.280
 2545SOL     OW 1843   2.721   3.236   1.878
 2545SOL    HW1 1844   2.675   3.251   1.966
 2545SOL    HW2 1845   2.765   3.321   1.848
 2546SOL     OW 1846   2.523   3.652   2.815
 2546SOL    HW1 1847   2.477   3.740   2.802
 2546SOL    HW2 1848   2.622   3.664   2.808
 2547SOL     OW 1849   2.721   2.818   2.723
 2547SOL    HW1 1850   2.775   2.749   2.771
 2547SOL    HW2 1851   2.689   2.887   2.789
 2548SOL     OW 1852   2.945   2.846   1.949
 2548SOL    HW1 1853   2.922   2.899   1.867
 2548SOL    HW2 1854   3.026   2.790   1.930
 2549SOL     OW 1855   3.723   3.431   2.713
 2549SOL    HW1 1856   3.652   3.419   2.643
 2549SOL    HW2 1857   3.724   3.352   2.773
 2550SOL     OW 1858   2.083   3.176   3.706
 2550SOL    HW1 1859   2.018   3.103   3.685
 2550SOL    HW2 1860   2.087   3.190   3.804
 2551SOL     OW 1861   1.941   3.102   2.515
 2551SOL    HW1 1862   1.940   3.055   2.603
 2551SOL    HW2 1863   2.023   3.074   2.464
 2552SOL     OW 1864   2.534   3.253   3.486
 2552SOL    HW1 1865   2.456   3.203   3.524
 2552SOL    HW2 1866   2.531   3.348   3.517
 2553SOL     OW 1867   3.686   2.054   3.089
 2553SOL    HW1 1868   3.682   1.964   3.133
 2553SOL    HW2 1869   3.689   2.043   2.990
 2554SOL     OW 1870   2.290   2.286   2.382
 2554SOL    HW1 1871   2.320   2.214   2.320
 2554SOL    HW2 1872   2.251   2.246   2.465
 2555SOL     OW 1873   3.567   3.349   2.966
 2555SOL    HW1 1874   3.474   3.324   2.939
 2555SOL    HW2 1875   3.593   3.299   3.048
 2556SOL     OW 1876   2.179   2.409   3.142
 2556SOL    HW1 1877   2.217   2.350   3.214
 2556SOL    HW2 1878   2.219   2.383   3.054
 2557SOL     OW 1879   2.674   3.448   2.549
 2557SOL    HW1 1880   2.706   3.458   2.455
 2557SOL    HW2 1881   2.595   3.386   2.551
 2558SOL     OW 1882   3.286   2.076   2.974
 2558SOL    HW1 1883   3.338   2.011   3.029
 2558SOL    HW2 1884   3.237   2.139   3.035
 2559SOL     OW 1885   2.863   1.896   3.016
 2559SOL    HW1 1886   2.800   1.824   2.985
 2559SOL    HW2 1887   2.956   1.860   3.016
 2560SOL     OW 1888   2.632   3.192   2.163
 2560SOL    HW1 1889   2.586   3.105   2.180
 2560SOL    HW2 1890   2.723   3.189   2.204
 2561SOL     OW 1891   2.480   3.429   3.146
 2561SOL    HW1 1892   2.475   3.511   3.203
 2561SOL    HW2 1893   2.569   3.426   3.101
 2562SOL     OW 1894   3.214   1.914   2.030
 2562SOL    HW1 1895   3.249   1.873   1.946
 2562SOL    HW2 1896   3.124   1.876   2.050
 2563SOL     OW 1897   3.162   2.315   2.553
 2563SOL    HW1 1898   3.103   2.395   2.557
 2563SOL    HW2 1899   3.177   2.280   2.646
 2564SOL     OW 1900   3.455   2.083   2.744
 2564SOL    HW1 1901   3.371   2.082   2.798
 2564SOL    HW2 1902   3.457   2.166   2.688
 2565SOL     OW 1903   1.901   2.939   2.162
 2565SOL    HW1 1904   2.000   2.928   2.153
 2565SOL    HW2 1905   1.861   2.853   2.194
 2566SOL     OW 1906   2.737   3.508   2.199
 2566SOL    HW1 1907   2.660   3.473   2.145
 2566SOL    HW2 1908   2.705   3.579   2.261
 2567SOL     OW 1909   2.092   2.490   3.837
 2567SOL    HW1 1910   1.999   2.488   3.874
 2567SOL    HW2 1911   2.093   2.451   3.745
 2573SOL     OW 1912   3.617   2.469   3.955
 2573SOL    HW1 1913   3.605   2.456   3.856
 2573SOL    HW2 1914   3.587   2.388   4.004
 2582SOL     OW 1915   2.468   2.826   3.847
 2582SOL    HW1 1916   2.475   2.910   3.793
 2582SOL    HW2 1917   2.514   2.839   3.935
 2585SOL     OW 1918   1.889   3.458   3.841
 2585SOL    HW1 1919   1.870   3.362   3.862
 2585SOL    HW2 1920   1.856   3.516   3.916
 2591SOL     OW 1921   3.387   2.861   3.914
 2591SOL    HW1 1922   3.324   2.785   3.927
 2591SOL    HW2 1923   3.435   2.879   4.000
 2594SOL     OW 1924   2.460   2.591   3.994
 2594SOL    HW1 1925   2.484   2.660   3.926
 2594SOL    HW2 1926   2.382   2.624   4.048
 2598SOL     OW 1927   2.903   2.563   4.153
 2598SOL    HW1 1928   2.929   2.559   4.249
 2598SOL    HW2 1929   2.818   2.512   4.139
 2600SOL     OW 1930   2.727   2.210   3.919
 2600SOL    HW1 1931   2.786   2.273   3.870
 2600SOL    HW2 1932   2.746   2.116   3.890
 2606SOL     OW 1933   2.183   2.805   3.966
 2606SOL    HW1 1934   2.265   2.844   3.924
 2606SOL    HW2 1935   2.156   2.723   3.917
 2609SOL     OW 1936   3.494   3.239   3.805
 2609SOL    HW1 1937   3.462   3.333   3.795
 2609SOL    HW2 1938   3.418   3.176   3.793
 2614SOL     OW 1939   2.244   2.562   4.204
 2614SOL    HW1 1940   2.289   2.472   4.201
 2614SOL    HW2 1941   2.150   2.551   4.237
 2615SOL     OW 1942   2.476   1.984   3.841
 2615SOL    HW1 1943   2.574   1.962   3.848
 2615SOL    HW2 1944   2.445   1.967   3.748
 2619SOL     OW 1945   3.296   3.050   3.765
 2619SOL    HW1 1946   3.328   2.974   3.822
 2619SOL    HW2 1947   3.204   3.077   3.795
 2620SOL     OW 1948   2.159   1.897   3.895
 2620SOL    HW1 1949   2.208   1.981   3.874
 2620SOL    HW2 1950   2.221   1.832   3.940
 2621SOL     OW 1951   2.797   2.098   4.204
 2621SOL    HW1 1952   2.749   2.139   4.126
 2621SOL    HW2 1953   2.896   2.096   4.185
 2625SOL     OW 1954   2.894   2.411   3.740
 2625SOL    HW1 1955   2.853   2.493   3.701
 2625SOL    HW2 1956   2.958   2.437   3.813
 2632SOL     OW 1957   2.350   3.247   3.898
 2632SOL    HW1 1958   2.263   3.232   3.945
 2632SOL    HW2 1959   2.333   3.273   3.803
 2634SOL     OW 1960   3.252   2.437   3.802
 2634SOL    HW1 1961   3.198   2.416   3.883
 2634SOL    HW2 1962   3.343   2.396   3.811
 2635SOL     OW 1963   2.389   2.118   4.052
 2635SOL    HW1 1964   2.416   2.059   3.977
 2635SOL    HW2 1965   2.389   2.213   4.021
 2638SOL     OW 1966   2.567   2.912   4.092
 2638SOL    HW1 1967   2.553   2.919   4.191
 2638SOL    HW2 1968   2.651   2.861   4.074
 2641SOL     OW 1969   2.229   2.962   4.225
 2641SOL    HW1 1970   2.222   3.045   4.169
 2641SOL    HW2 1971   2.233   2.882   4.165
 2643SOL     OW 1972   3.114   3.210   4.112
 2643SOL    HW1 1973   3.164   3.287   4.152
 2643SOL    HW2 1974   3.019   3.212   4.144
 2649SOL     OW 1975   3.071   2.387   3.999
 2649SOL    HW1 1976   3.084   2.303   4.053
 2649SOL    HW2 1977   3.042   2.461   4.059
 2656SOL     OW 1978   3.402   2.136   3.849
 2656SOL    HW1 1979   3.341   2.061   3.872
 2656SOL    HW2 1980   3.424   2.188   3.932
 2657SOL     OW 1981   3.165   2.700   3.766
 2657SOL    HW1 1982   3.199   2.607   3.781
 2657SOL    HW2 1983   3.183   2.727   3.671
 2662SOL     OW 1984   1.870   3.188   3.924
 2662SOL    HW1 1985   1.777   3.209   3.893
 2662SOL    HW2 1986   1.880   3.089   3.937
 2667SOL     OW 1987   2.677   2.434   4.049
 2667SOL    HW1 1988   2.684   2.345   4.003
 2667SOL    HW2 1989   2.583   2.468   4.041
 2671SOL     OW 1990   2.335   2.362   3.915
 2671SOL    HW1 1991   2.396   2.442   3.919
 2671SOL    HW2 1992   2.240   2.393   3.922
 2673SOL     OW 1993   3.164   2.717   4.033
 2673SOL    HW1 1994   3.078   2.686   4.075
 2673SOL    HW2 1995   3.160   2.703   3.934
 2680SOL     OW 1996   2.534   3.478   3.878
 2680SOL    HW1 1997   2.543   3.488   3.779
 2680SOL    HW2 1998   2.494   3.389   3.899
 2684SOL     OW 1999   3.056   3.474   3.755
 2684SOL    HW1 2000   3.062   3.381   3.792
 2684SOL    HW2 2001   2.997   3.474   3.675
 2686SOL     OW 2002   2.778   2.772   4.015
 2686SOL    HW1 2003   2.841   2.810   3.947
 2686SOL    HW2 2004   2.818   2.689   4.054
 2687SOL     OW 2005   3.366   3.469   3.768
 2687SOL    HW1 2006   3.274   3.506   3.775
 2687SOL    HW2 2007   3.404   3.489   3.678
 2692SOL     OW 2008   2.117   3.210   4.014
 2692SOL    HW1 2009   2.021   3.211   3.987
 2692SOL    HW2 2010   2.129   3.263   4.098
 2693SOL     OW 2011   1.937   2.207   3.757
 2693SOL    HW1 2012   1.845   2.179   3.728
 2693SOL    HW2 2013   1.968   2.284   3.701
 2694SOL     OW 2014   1.934   2.028   4.042
 2694SOL    HW1 2015   1.917   2.111   3.988
 2694SOL    HW2 2016   2.024   1.991   4.020
 2695SOL     OW 2017   3.045   3.197   3.843
 2695SOL    HW1 2018   2.946   3.186   3.845
 2695SOL    HW2 2019   3.079   3.212   3.936
 2699SOL     OW 2020   3.087   2.187   4.173
 2699SOL    HW1 2021   3.152   2.113   4.162
 2699SOL    HW2 2022   3.107   2.237   4.257
 2702SOL     OW 2023   2.721   3.236   3.740
 2702SOL    HW1 2024   2.675   3.251   3.828
 2702SOL    HW2 2025   2.765   3.321   3.710
 2705SOL     OW 2026   2.945   2.846   3.811
 2705SOL    HW1 2027   2.922   2.899   3.729
 2705SOL    HW2 2028   3.026   2.790   3.792
 2709SOL     OW 2029   2.290   2.286   4.244
 2709SOL    HW1 2030   2.320   2.214   4.182
 2709SOL    HW2 2031   2.251   2.246   4.327
 2714SOL     OW 2032   2.632   3.192   4.025
 2714SOL    HW1 2033   2.586   3.105   4.042
 2714SOL    HW2 2034   2.723   3.189   4.066
 2715SOL     OW 2035   3.214   1.914   3.892
 2715SOL    HW1 2036   3.249   1.873   3.808
 2715SOL    HW2 2037   3.124   1.876   3.912
 2718SOL     OW 2038   1.901   2.939   4.024
 2718SOL    HW1 2039   2.000   2.928   4.015
 2718SOL    HW2 2040   1.861   2.853   4.056
 2745SOL     OW 2041   2.179   3.975   1.801
 2745SOL    HW1 2042   2.250   4.046   1.807
 2745SOL    HW2 2043   2.091   4.014   1.829
 2767SOL     OW 2044   2.643   3.988   1.749
 2767SOL    HW1 2045   2.710   3.927   1.792
 2767SOL    HW2 2046   2.570   4.007   1.814
 2791SOL     OW 2047   2.777   3.813   1.402
 2791SOL    HW1 2048   2.802   3.793   1.307
 2791SOL    HW2 2049   2.849   3.869   1.444
 2801SOL     OW 2050   2.875   3.829   1.770
 2801SOL    HW1 2051   2.881   3.914   1.718
 2801SOL    HW2 2052   2.907   3.753   1.713
 2802SOL     OW 2053   2.366   3.774   1.740
 2802SOL    HW1 2054   2.324   3.717   1.670
 2802SOL    HW2 2055   2.300   3.843   1.772
 2846SOL     OW 2056   2.534   3.927   1.489
 2846SOL    HW1 2057   2.624   3.911   1.449
 2846SOL    HW2 2058   2.542   3.932   1.588
 2871SOL     OW 2059   2.087   3.999   2.858
 2871SOL    HW1 2060   2.122   3.982   2.950
 2871SOL    HW2 2061   1.999   3.954   2.846
 2872SOL     OW 2062   1.881   4.092   2.509
 2872SOL    HW1 2063   1.799   4.135   2.548
 2872SOL    HW2 2064   1.853   4.019   2.446
 2882SOL     OW 2065   2.300   4.116   3.361
 2882SOL    HW1 2066   2.382   4.060   3.370
 2882SOL    HW2 2067   2.219   4.058   3.365
 2886SOL     OW 2068   3.456   3.838   3.342
 2886SOL    HW1 2069   3.438   3.905   3.270
 2886SOL    HW2 2070   3.453   3.884   3.431
 2892SOL     OW 2071   2.671   3.728   2.364
 2892SOL    HW1 2072   2.711   3.819   2.355
 2892SOL    HW2 2073   2.571   3.736   2.370
 2898SOL     OW 2074   3.143   4.069   2.806
 2898SOL    HW1 2075   3.057   4.019   2.793
 2898SOL    HW2 2076   3.205   4.015   2.862
 2902SOL     OW 2077   2.853   4.134   3.104
 2902SOL    HW1 2078   2.776   4.168   3.158
 2902SOL    HW2 2079   2.819   4.083   3.025
 2905SOL     OW 2080   2.727   4.072   2.057
 2905SOL    HW1 2081   2.786   4.135   2.008
 2905SOL    HW2 2082   2.746   3.978   2.028
 2908SOL     OW 2083   2.412   3.920   2.747
 2908SOL    HW1 2084   2.407   3.915   2.847
 2908SOL    HW2 2085   2.414   4.016   2.718
 2912SOL     OW 2086   2.064   4.009   3.360
 2912SOL    HW1 2087   1.984   4.069   3.347
 2912SOL    HW2 2088   2.054   3.960   3.446
 2914SOL     OW 2089   3.262   3.831   2.288
 2914SOL    HW1 2090   3.238   3.794   2.198
 2914SOL    HW2 2091   3.361   3.847   2.292
 2917SOL     OW 2092   2.476   3.846   1.979
 2917SOL    HW1 2093   2.574   3.824   1.986
 2917SOL    HW2 2094   2.445   3.829   1.886
 2918SOL     OW 2095   2.643   3.988   3.611
 2918SOL    HW1 2096   2.710   3.927   3.654
 2918SOL    HW2 2097   2.570   4.007   3.676
 2921SOL     OW 2098   2.784   4.227   2.761
 2921SOL    HW1 2099   2.759   4.218   2.665
 2921SOL    HW2 2100   2.832   4.145   2.792
 2922SOL     OW 2101   2.401   3.788   2.374
 2922SOL    HW1 2102   2.320   3.789   2.432
 2922SOL    HW2 2103   2.404   3.871   2.319
 2924SOL     OW 2104   2.159   3.759   2.033
 2924SOL    HW1 2105   2.208   3.843   2.012
 2924SOL    HW2 2106   2.221   3.694   2.078
 2925SOL     OW 2107   2.797   3.960   2.342
 2925SOL    HW1 2108   2.749   4.001   2.264
 2925SOL    HW2 2109   2.896   3.958   2.323
 2931SOL     OW 2110   2.423   3.946   3.009
 2931SOL    HW1 2111   2.461   3.862   3.046
 2931SOL    HW2 2112   2.335   3.965   3.053
 2932SOL     OW 2113   2.728   4.178   2.504
 2932SOL    HW1 2114   2.696   4.250   2.442
 2932SOL    HW2 2115   2.752   4.097   2.451
 2933SOL     OW 2116   2.879   3.763   2.615
 2933SOL    HW1 2117   2.807   3.768   2.546
 2933SOL    HW2 2118   2.855   3.694   2.684
 2939SOL     OW 2119   2.389   3.980   2.190
 2939SOL    HW1 2120   2.416   3.921   2.115
 2939SOL    HW2 2121   2.389   4.075   2.159
 2942SOL     OW 2122   2.777   3.813   3.264
 2942SOL    HW1 2123   2.802   3.793   3.169
 2942SOL    HW2 2124   2.849   3.869   3.306
 2946SOL     OW 2125   3.136   4.110   3.124
 2946SOL    HW1 2126   3.157   4.184   3.188
 2946SOL    HW2 2127   3.047   4.127   3.081
 2948SOL     OW 2128   2.428   4.261   2.727
 2948SOL    HW1 2129   2.440   4.327   2.653
 2948SOL    HW2 2130   2.474   4.295   2.810
 2952SOL     OW 2131   2.875   3.829   3.632
 2952SOL    HW1 2132   2.881   3.914   3.580
 2952SOL    HW2 2133   2.907   3.753   3.575
 2953SOL     OW 2134   2.366   3.774   3.602
 2953SOL    HW1 2135   2.324   3.717   3.532
 2953SOL    HW2 2136   2.300   3.843   3.634
 2957SOL     OW 2137   2.169   3.937   3.093
 2957SOL    HW1 2138   2.146   3.974   3.183
 2957SOL    HW2 2139   2.139   3.842   3.087
 2960SOL     OW 2140   2.169   3.787   2.480
 2960SOL    HW1 2141   2.158   3.881   2.513
 2960SOL    HW2 2142   2.164   3.724   2.557
 2965SOL     OW 2143   3.402   3.998   1.987
 2965SOL    HW1 2144   3.341   3.923   2.010
 2965SOL    HW2 2145   3.424   4.050   2.070
 2968SOL     OW 2146   2.201   4.233   2.868
 2968SOL    HW1 2147   2.149   4.150   2.851
 2968SOL    HW2 2148   2.278   4.238   2.804
 2970SOL     OW 2149   3.022   3.931   3.339
 2970SOL    HW1 2150   3.022   3.995   3.416
 2970SOL    HW2 2151   3.050   3.979   3.256
 2976SOL     OW 2152   2.677   4.296   2.187
 2976SOL    HW1 2153   2.684   4.207   2.141
 2976SOL    HW2 2154   2.583   4.330   2.179
 2978SOL     OW 2155   2.533   4.188   3.131
 2978SOL    HW1 2156   2.499   4.099   3.101
 2978SOL    HW2 2157   2.559   4.242   3.051
 2979SOL     OW 2158   2.335   4.224   2.053
 2979SOL    HW1 2159   2.396   4.304   2.057
 2979SOL    HW2 2160   2.240   4.255   2.060
 2984SOL     OW 2161   3.588   3.859   2.385
 2984SOL    HW1 2162   3.661   3.842   2.318
 2984SOL    HW2 2163   3.557   3.772   2.423
 2988SOL     OW 2164   2.125   4.050   2.582
 2988SOL    HW1 2165   2.046   4.101   2.548
 2988SOL    HW2 2166   2.116   4.035   2.680
 2995SOL     OW 2167   2.876   3.960   2.833
 2995SOL    HW1 2168   2.868   3.924   2.740
 2995SOL    HW2 2169   2.874   3.884   2.898
 2998SOL     OW 2170   2.534   3.927   3.351
 2998SOL    HW1 2171   2.624   3.911   3.311
 2998SOL    HW2 2172   2.542   3.932   3.450
 2999SOL     OW 2173   1.937   4.069   1.895
 2999SOL    HW1 2174   1.845   4.041   1.866
 2999SOL    HW2 2175   1.968   4.146   1.839
 3001SOL     OW 2176   1.934   3.890   2.180
 3001SOL    HW1 2177   1.917   3.973   2.126
 3001SOL    HW2 2178   2.024   3.853   2.158
 3006SOL     OW 2179   3.087   4.049   2.311
 3006SOL    HW1 2180   3.152   3.975   2.300
 3006SOL    HW2 2181   3.107   4.099   2.395
 3014SOL     OW 2182   2.290   4.148   2.382
 3014SOL    HW1 2183   2.320   4.076   2.320
 3014SOL    HW2 2184   2.251   4.108   2.465
 3016SOL     OW 2185   3.286   3.938   2.974
 3016SOL    HW1 2186   3.338   3.873   3.029
 3016SOL    HW2 2187   3.237   4.001   3.035
 3017SOL     OW 2188   2.863   3.758   3.016
 3017SOL    HW1 2189   2.800   3.686   2.985
 3017SOL    HW2 2190   2.956   3.722   3.016
 3019SOL     OW 2191   3.214   3.776   2.030
 3019SOL    HW1 2192   3.249   3.735   1.946
 3019SOL    HW2 2193   3.124   3.738   2.050
 3020SOL     OW 2194   3.162   4.177   2.553
 3020SOL    HW1 2195   3.103   4.257   2.557
 3020SOL    HW2 2196   3.177   4.142   2.646
 3021SOL     OW 2197   3.455   3.945   2.744
 3021SOL    HW1 2198   3.371   3.944   2.798
 3021SOL    HW2 2199   3.457   4.028   2.688
 3169SOL     OW 2200   3.854   1.821   1.571
 3169SOL    HW1 2201   3.844   1.806   1.670
 3169SOL    HW2 2202   3.768   1.857   1.535
 3253SOL     OW 2203   3.854   1.794   1.851
 3253SOL    HW1 2204   3.813   1.720   1.904
 3253SOL    HW2 2205   3.918   1.845   1.909
 3301SOL     OW 2206   3.955   1.713   2.345
 3301SOL    HW1 2207   3.989   1.790   2.399
 3301SOL    HW2 2208   3.999   1.713   2.255
 3303SOL     OW 2209   3.954   1.434   2.400
 3303SOL    HW1 2210   3.928   1.530   2.400
 3303SOL    HW2 2211   3.883   1.380   2.445
 3308SOL     OW 2212   3.751   1.596   1.979
 3308SOL    HW1 2213   3.732   1.500   2.000
 3308SOL    HW2 2214   3.718   1.654   2.054
 3323SOL     OW 2215   3.854   1.821   3.433
 3323SOL    HW1 2216   3.844   1.806   3.532
 3323SOL    HW2 2217   3.768   1.857   3.397
 3327SOL     OW 2218   4.075   1.801   2.715
 3327SOL    HW1 2219   4.125   1.715   2.721
 3327SOL    HW2 2220   4.140   1.878   2.712
 3334SOL     OW 2221   3.973   1.785   3.103
 3334SOL    HW1 2222   4.030   1.720   3.153
 3334SOL    HW2 2223   3.957   1.752   3.010
 3364SOL     OW 2224   3.788   1.564   3.193
 3364SOL    HW1 2225   3.742   1.646   3.159
 3364SOL    HW2 2226   3.886   1.583   3.202
 3389SOL     OW 2227   3.732   1.326   2.062
 3389SOL    HW1 2228   3.639   1.347   2.031
 3389SOL    HW2 2229   3.742   1.227   2.075
 3390SOL     OW 2230   3.812   1.801   2.789
 3390SOL    HW1 2231   3.770   1.715   2.762
 3390SOL    HW2 2232   3.906   1.804   2.755
 3572SOL     OW 2233   3.837   2.599   1.597
 3572SOL    HW1 2234   3.925   2.586   1.642
 3572SOL    HW2 2235   3.824   2.696   1.575
 3578SOL     OW 2236   4.041   2.113   1.801
 3578SOL    HW1 2237   4.112   2.184   1.807
 3578SOL    HW2 2238   3.953   2.152   1.829
 3595SOL     OW 2239   3.926   2.147   1.498
 3595SOL    HW1 2240   3.846   2.207   1.485
 3595SOL    HW2 2241   3.916   2.098   1.584
 3613SOL     OW 2242   3.802   2.418   1.386
 3613SOL    HW1 2243   3.894   2.417   1.345
 3613SOL    HW2 2244   3.796   2.492   1.453
 3645SOL     OW 2245   4.074   2.760   1.804
 3645SOL    HW1 2246   4.150   2.804   1.852
 3645SOL    HW2 2247   4.109   2.713   1.722
 3656SOL     OW 2248   3.913   2.382   1.722
 3656SOL    HW1 2249   3.972   2.342   1.652
 3656SOL    HW2 2250   3.855   2.453   1.681
 3662SOL     OW 2251   3.883   2.999   1.466
 3662SOL    HW1 2252   3.905   2.938   1.542
 3662SOL    HW2 2253   3.893   2.950   1.380
 3682SOL     OW 2254   3.829   2.875   1.726
 3682SOL    HW1 2255   3.752   2.842   1.780
 3682SOL    HW2 2256   3.914   2.845   1.768
 3695SOL     OW 2257   3.945   3.176   1.844
 3695SOL    HW1 2258   3.880   3.103   1.823
 3695SOL    HW2 2259   3.949   3.190   1.942
 3706SOL     OW 2260   3.954   2.490   1.975
 3706SOL    HW1 2261   3.861   2.488   2.012
 3706SOL    HW2 2262   3.955   2.451   1.883
 3707SOL     OW 2263   3.949   2.137   2.858
 3707SOL    HW1 2264   3.984   2.120   2.950
 3707SOL    HW2 2265   3.861   2.092   2.846
 3708SOL     OW 2266   3.743   2.230   2.509
 3708SOL    HW1 2267   3.661   2.273   2.548
 3708SOL    HW2 2268   3.715   2.157   2.446
 3715SOL     OW 2269   4.059   3.297   2.923
 3715SOL    HW1 2270   3.981   3.266   2.870
 3715SOL    HW2 2271   4.117   3.355   2.866
 3717SOL     OW 2272   3.955   3.575   2.345
 3717SOL    HW1 2273   3.989   3.652   2.399
 3717SOL    HW2 2274   3.999   3.575   2.255
 3719SOL     OW 2275   3.954   3.296   2.400
 3719SOL    HW1 2276   3.928   3.392   2.400
 3719SOL    HW2 2277   3.883   3.242   2.445
 3720SOL     OW 2278   3.964   2.953   2.748
 3720SOL    HW1 2279   3.978   2.869   2.800
 3720SOL    HW2 2280   3.909   3.017   2.803
 3723SOL     OW 2281   3.846   2.505   2.425
 3723SOL    HW1 2282   3.801   2.417   2.442
 3723SOL    HW2 2283   3.845   2.559   2.509
 3724SOL     OW 2284   3.751   3.458   1.979
 3724SOL    HW1 2285   3.732   3.362   2.000
 3724SOL    HW2 2286   3.718   3.516   2.054
 3725SOL     OW 2287   3.837   2.599   3.459
 3725SOL    HW1 2288   3.925   2.586   3.504
 3725SOL    HW2 2289   3.824   2.696   3.437
 3729SOL     OW 2290   3.921   2.838   3.126
 3729SOL    HW1 2291   4.010   2.793   3.112
 3729SOL    HW2 2292   3.848   2.773   3.107
 3738SOL     OW 2293   3.800   2.673   2.651
 3738SOL    HW1 2294   3.899   2.661   2.660
 3738SOL    HW2 2295   3.776   2.768   2.672
 3745SOL     OW 2296   4.045   2.805   2.104
 3745SOL    HW1 2297   4.127   2.844   2.062
 3745SOL    HW2 2298   4.018   2.723   2.055
 3748SOL     OW 2299   3.926   2.147   3.360
 3748SOL    HW1 2300   3.846   2.207   3.347
 3748SOL    HW2 2301   3.916   2.098   3.446
 3752SOL     OW 2302   4.106   2.562   2.342
 3752SOL    HW1 2303   4.151   2.472   2.339
 3752SOL    HW2 2304   4.012   2.551   2.375
 3759SOL     OW 2305   4.021   1.897   2.033
 3759SOL    HW1 2306   4.070   1.981   2.012
 3759SOL    HW2 2307   4.083   1.832   2.078
 3763SOL     OW 2308   4.183   3.014   2.603
 3763SOL    HW1 2309   4.112   2.987   2.668
 3763SOL    HW2 2310   4.157   2.986   2.510
 3766SOL     OW 2311   3.802   2.418   3.248
 3766SOL    HW1 2312   3.894   2.417   3.207
 3766SOL    HW2 2313   3.796   2.492   3.315
 3772SOL     OW 2314   4.251   2.118   2.190
 3772SOL    HW1 2315   4.278   2.059   2.115
 3772SOL    HW2 2316   4.251   2.213   2.159
 3778SOL     OW 2317   4.134   2.675   3.113
 3778SOL    HW1 2318   4.220   2.687   3.163
 3778SOL    HW2 2319   4.092   2.588   3.140
 3780SOL     OW 2320   3.788   3.426   3.193
 3780SOL    HW1 2321   3.742   3.508   3.159
 3780SOL    HW2 2322   3.886   3.445   3.202
 3781SOL     OW 2323   4.091   2.962   2.363
 3781SOL    HW1 2324   4.084   3.045   2.307
 3781SOL    HW2 2325   4.095   2.882   2.303
 3782SOL     OW 2326   4.290   2.399   2.727
 3782SOL    HW1 2327   4.302   2.465   2.653
 3782SOL    HW2 2328   4.336   2.433   2.810
 3788SOL     OW 2329   4.297   2.732   2.891
 3788SOL    HW1 2330   4.341   2.821   2.882
 3788SOL    HW2 2331   4.234   2.732   2.968
 3791SOL     OW 2332   4.031   2.075   3.093
 3791SOL    HW1 2333   4.008   2.112   3.183
 3791SOL    HW2 2334   4.001   1.980   3.087
 3792SOL     OW 2335   3.761   3.172   3.144
 3792SOL    HW1 2336   3.814   3.123   3.212
 3792SOL    HW2 2337   3.783   3.270   3.149
 3794SOL     OW 2338   4.031   1.925   2.480
 3794SOL    HW1 2339   4.020   2.019   2.513
 3794SOL    HW2 2340   4.026   1.862   2.557
 3801SOL     OW 2341   4.043   2.672   2.811
 3801SOL    HW1 2342   4.136   2.708   2.816
 3801SOL    HW2 2343   4.037   2.587   2.863
 3802SOL     OW 2344   4.063   2.371   2.868
 3802SOL    HW1 2345   4.011   2.288   2.851
 3802SOL    HW2 2346   4.140   2.376   2.804
 3805SOL     OW 2347   3.732   3.188   2.062
 3805SOL    HW1 2348   3.639   3.209   2.031
 3805SOL    HW2 2349   3.742   3.089   2.075
 3806SOL     OW 2350   3.812   3.663   2.789
 3806SOL    HW1 2351   3.770   3.577   2.762
 3806SOL    HW2 2352   3.906   3.666   2.755
 3809SOL     OW 2353   3.764   2.406   2.976
 3809SOL    HW1 2354   3.849   2.373   2.935
 3809SOL    HW2 2355   3.777   2.421   3.074
 3810SOL     OW 2356   3.913   2.382   3.584
 3810SOL    HW1 2357   3.972   2.342   3.514
 3810SOL    HW2 2358   3.855   2.453   3.543
 3815SOL     OW 2359   4.197   2.362   2.053
 3815SOL    HW1 2360   4.258   2.442   2.057
 3815SOL    HW2 2361   4.102   2.393   2.060
 3816SOL     OW 2362   3.883   2.999   3.328
 3816SOL    HW1 2363   3.905   2.938   3.404
 3816SOL    HW2 2364   3.893   2.950   3.242
 3819SOL     OW 2365   3.807   3.120   2.884
 3819SOL    HW1 2366   3.802   3.119   2.984
 3819SOL    HW2 2367   3.724   3.079   2.846
 3826SOL     OW 2368   3.987   2.188   2.582
 3826SOL    HW1 2369   3.908   2.239   2.548
 3826SOL    HW2 2370   3.978   2.173   2.680
 3834SOL     OW 2371   3.979   3.210   2.152
 3834SOL    HW1 2372   3.883   3.211   2.125
 3834SOL    HW2 2373   3.991   3.263   2.236
 3835SOL     OW 2374   3.829   2.875   3.588
 3835SOL    HW1 2375   3.752   2.842   3.642
 3835SOL    HW2 2376   3.914   2.845   3.630
 3837SOL     OW 2377   3.799   2.207   1.895
 3837SOL    HW1 2378   3.707   2.179   1.866
 3837SOL    HW2 2379   3.830   2.284   1.839
 3839SOL     OW 2380   3.796   2.028   2.180
 3839SOL    HW1 2381   3.779   2.111   2.126
 3839SOL    HW2 2382   3.886   1.991   2.158
 3844SOL     OW 2383   4.318   2.607   2.514
 3844SOL    HW1 2384   4.368   2.692   2.495
 3844SOL    HW2 2385   4.230   2.609   2.466
 3850SOL     OW 2386   3.803   3.102   2.515
 3850SOL    HW1 2387   3.802   3.055   2.603
 3850SOL    HW2 2388   3.885   3.074   2.464
 3852SOL     OW 2389   4.152   2.286   2.382
 3852SOL    HW1 2390   4.182   2.214   2.320
 3852SOL    HW2 2391   4.113   2.246   2.465
 3853SOL     OW 2392   4.041   2.409   3.142
 3853SOL    HW1 2393   4.079   2.350   3.214
 3853SOL    HW2 2394   4.081   2.383   3.054
 3859SOL     OW 2395   3.763   2.939   2.162
 3859SOL    HW1 2396   3.862   2.928   2.153
 3859SOL    HW2 2397   3.723   2.853   2.194
 3955SOL     OW 2398   3.799   2.207   3.757
 3955SOL    HW1 2399   3.707   2.179   3.728
 3955SOL    HW2 2400   3.830   2.284   3.701
   5.09172   5.09172   5.09172
