N_methylpiperidine
    20
   0.5010000  -0.5710000  -0.7890000   0.8640000  -1.9620000  -0.2800000
  -0.3940000  -0.6590000  -2.0210000   1.4280000  -2.8360000  -1.4030000
   0.2140000  -1.5780000  -3.0840000  -0.6070000  -3.7540000  -2.3700000
   0.5690000  -2.9150000  -2.5920000  -0.0000000  -0.0000000  -0.0000000
   1.4190000  -0.0270000  -1.0450000   1.5980000  -1.8790000   0.5290000
  -0.0280000  -2.4380000   0.1470000  -1.3820000  -1.0360000  -1.7270000
  -0.5460000   0.3420000  -2.4390000   2.4020000  -2.4330000  -1.7090000
   1.6330000  -3.8440000  -1.0220000  -0.4720000  -1.6640000  -3.9360000
   1.1210000  -1.1060000  -3.4840000  -1.0970000  -3.9890000  -3.3190000
  -1.3230000  -3.2370000  -1.7240000  -0.3170000  -4.6890000  -1.8830000
