%VERSION  VERSION_STAMP = V0001.000  DATE = 05/20/26  23:43:56                  
%FLAG TITLE                                                                     
%FORMAT(20a4)                                                                   
N_methylpiperidine                                                              
%FLAG POINTERS                                                                  
%FORMAT(10I8)                                                                   
      20       4      13       7      31       8      46       8       0       0
     113       1       7       8       8       6      11       8       5       0
       0       0       0       0       0       0       0       0      20       0
       0
%FLAG ATOM_NAME                                                                 
%FORMAT(20a4)                                                                   
C1  C2  C3  C4  C5  C6  N1  H1  H2  H3  H4  H5  H6  H7  H8  H9  H10 H11 H12 H13 
%FLAG CHARGE                                                                    
%FORMAT(5E16.8)                                                                 
 -1.37396142E+00 -2.02996422E+00 -2.02996422E+00  2.96659044E+00  2.96659044E+00
  2.75338953E+00 -1.31309894E+01  7.32536460E-01  7.32536460E-01  7.87203360E-01
  7.87203360E-01  7.87203360E-01  7.87203360E-01  9.05648310E-01  9.05648310E-01
  9.05648310E-01  9.05648310E-01  5.53356584E-01  5.53356584E-01  5.53356584E-01
%FLAG ATOMIC_NUMBER                                                             
%FORMAT(10I8)                                                                   
       6       6       6       6       6       6       7       1       1       1
       1       1       1       1       1       1       1       1       1       1
%FLAG MASS                                                                      
%FORMAT(5E16.8)                                                                 
  1.20100000E+01  1.20100000E+01  1.20100000E+01  1.20100000E+01  1.20100000E+01
  1.20100000E+01  1.40100000E+01  1.00800000E+00  1.00800000E+00  1.00800000E+00
  1.00800000E+00  1.00800000E+00  1.00800000E+00  1.00800000E+00  1.00800000E+00
  1.00800000E+00  1.00800000E+00  1.00800000E+00  1.00800000E+00  1.00800000E+00
%FLAG ATOM_TYPE_INDEX                                                           
%FORMAT(10I8)                                                                   
       1       1       1       1       1       1       2       3       3       3
       3       3       3       4       4       4       4       4       4       4
%FLAG NUMBER_EXCLUDED_ATOMS                                                     
%FORMAT(10I8)                                                                   
      15      13      12      14      13       8      11       5       4       3
       2       3       2       1       1       1       1       2       1       1
%FLAG NONBONDED_PARM_INDEX                                                      
%FORMAT(10I8)                                                                   
       1       2       4       7       2       3       5       8       4       5
       6       9       7       8       9      10
%FLAG RESIDUE_LABEL                                                             
%FORMAT(20a4)                                                                   
MOL 
%FLAG RESIDUE_POINTER                                                           
%FORMAT(10I8)                                                                   
       1
%FLAG BOND_FORCE_CONSTANT                                                       
%FORMAT(5E16.8)                                                                 
  2.26810000E+02  3.42750000E+02  2.53330000E+02  3.42020000E+02  2.55850000E+02
  3.44220000E+02
%FLAG BOND_EQUIL_VALUE                                                          
%FORMAT(5E16.8)                                                                 
  1.53840000E+00  1.09790000E+00  1.46570000E+00  1.09840000E+00  1.46260000E+00
  1.09690000E+00
%FLAG ANGLE_FORCE_CONSTANT                                                      
%FORMAT(5E16.8)                                                                 
  6.01800000E+01  4.32300000E+01  6.54200000E+01  4.32800000E+01  7.81900000E+01
  7.76800000E+01  4.78500000E+01  4.78400000E+01  3.59300000E+01  3.57700000E+01
  3.56400000E+01
%FLAG ANGLE_EQUIL_VALUE                                                         
%FORMAT(5E16.8)                                                                 
  1.93836350E+00  1.91026369E+00  1.93452377E+00  1.90555129E+00  1.93208031E+00
  1.96140185E+00  1.91340528E+00  1.92143380E+00  1.86087085E+00  1.87622975E+00
  1.89455572E+00
%FLAG DIHEDRAL_FORCE_CONSTANT                                                   
%FORMAT(5E16.8)                                                                 
  2.10000000E-01  1.55555556E-01  5.20000000E-01  1.30000000E-01  7.30000000E-01
  2.25000000E-01  1.00000000E-01  1.20000000E-01
%FLAG DIHEDRAL_PERIODICITY                                                      
%FORMAT(5E16.8)                                                                 
  3.00000000E+00  3.00000000E+00  3.00000000E+00  3.00000000E+00  3.00000000E+00
  3.00000000E+00  3.00000000E+00  3.00000000E+00
%FLAG DIHEDRAL_PHASE                                                            
%FORMAT(5E16.8)                                                                 
  0.00000000E+00  0.00000000E+00  0.00000000E+00  0.00000000E+00  0.00000000E+00
  0.00000000E+00  0.00000000E+00  0.00000000E+00
%FLAG SCEE_SCALE_FACTOR                                                         
%FORMAT(5E16.8)                                                                 
  1.20000000E+00  1.20000000E+00  1.20000000E+00  1.20000000E+00  1.20000000E+00
  1.20000000E+00  1.20000000E+00  1.20000000E+00
%FLAG SCNB_SCALE_FACTOR                                                         
%FORMAT(5E16.8)                                                                 
  2.00000000E+00  2.00000000E+00  2.00000000E+00  2.00000000E+00  2.00000000E+00
  2.00000000E+00  2.00000000E+00  2.00000000E+00
%FLAG SOLTY                                                                     
%FORMAT(5E16.8)                                                                 
  0.00000000E+00  0.00000000E+00  0.00000000E+00  0.00000000E+00  0.00000000E+00
%FLAG LENNARD_JONES_ACOEF                                                       
%FORMAT(5E16.8)                                                                 
  1.02073671E+06  8.59569453E+05  7.23647490E+05  1.00235148E+05  8.37616145E+04
  7.94617769E+03  6.97998263E+04  5.82112737E+04  5.22955465E+03  3.39005767E+03
%FLAG LENNARD_JONES_BCOEF                                                       
%FORMAT(5E16.8)                                                                 
  6.63431737E+02  5.75038595E+02  4.98353106E+02  1.37787728E+02  1.18970742E+02
  2.57122925E+01  1.14981426E+02  9.91793374E+01  2.08590256E+01  1.67944276E+01
%FLAG BONDS_INC_HYDROGEN                                                        
%FORMAT(10I8)                                                                   
       0      21       2       0      24       2       3      27       2       3
      30       2       6      33       2       6      36       2       9      39
       4       9      42       4      12      45       4      12      48       4
      15      51       6      15      54       6      15      57       6
%FLAG BONDS_WITHOUT_HYDROGEN                                                    
%FORMAT(10I8)                                                                   
       0       3       1       0       6       1       3       9       1       6
      12       1       9      18       3      12      18       3      15      18
       5
%FLAG ANGLES_INC_HYDROGEN                                                       
%FORMAT(10I8)                                                                   
       0       3      27       2       0       3      30       2       0       6
      33       2       0       6      36       2       3       0      21       2
       3       0      24       2       3       9      39       4       3       9
      42       4       6       0      21       2       6       0      24       2
       6      12      45       4       6      12      48       4       9       3
      27       2       9       3      30       2      12       6      33       2
      12       6      36       2      18       9      39       7      18       9
      42       7      18      12      45       7      18      12      48       7
      18      15      51       8      18      15      54       8      18      15
      57       8      21       0      24       9      27       3      30       9
      33       6      36       9      39       9      42      10      45      12
      48      10      51      15      54      11      51      15      57      11
      54      15      57      11
%FLAG ANGLES_WITHOUT_HYDROGEN                                                   
%FORMAT(10I8)                                                                   
       0       3       9       1       0       6      12       1       3       0
       6       1       3       9      18       3       6      12      18       3
       9      18      12       5       9      18      15       6      12      18
      15       6
%FLAG DIHEDRALS_INC_HYDROGEN                                                    
%FORMAT(10I8)                                                                   
       0       3       9      39       2       0       3       9      42       2
       0       6      12      45       2       0       6      12      48       2
       3       0       6      33       4       3       0       6      36       4
       6       0       3      27       4       6       0       3      30       4
      21       0       3       9       4      24       0       3       9       4
       9      18      12      45       6       9      18      12      48       6
       9      18      15      51       6       9      18      15      54       6
       9      18      15      57       6      21       0       6      12       4
      24       0       6      12       4      12      18       9      39       6
      12      18       9      42       6      12      18      15      51       6
      12      18      15      54       6      12      18      15      57       6
      15      18       9      39       6      15      18       9      42       6
      15      18      12      45       6      15      18      12      48       6
      18       9       3      27       7      18       9       3      30       7
      18      12       6      33       7      18      12       6      36       7
      21       0       3      27       8      21       0       3      30       8
      21       0       6      33       8      21       0       6      36       8
      24       0       3      27       8      24       0       3      30       8
      24       0       6      33       8      24       0       6      36       8
      27       3       9      39       2      27       3       9      42       2
      30       3       9      39       2      30       3       9      42       2
      33       6      12      45       2      33       6      12      48       2
      36       6      12      45       2      36       6      12      48       2
%FLAG DIHEDRALS_WITHOUT_HYDROGEN                                                
%FORMAT(10I8)                                                                   
       0       3       9      18       1       0       6     -12      18       1
       3       0       6      12       3       3       9     -18      12       5
       3       9      18      15       5       6       0       3       9       3
       6      12     -18       9       5       6      12      18      15       5
%FLAG EXCLUDED_ATOMS_LIST                                                       
%FORMAT(10I8)                                                                   
       2       3       4       5       7       8       9      10      11      12
      13      14      15      16      17       3       4       5       6       7
       8       9      10      11      12      13      14      15       4       5
       6       7       8       9      10      11      12      13      16      17
       5       6       7       8       9      10      11      14      15      16
      17      18      19      20       6       7       8       9      12      13
      14      15      16      17      18      19      20       7      14      15
      16      17      18      19      20      10      11      12      13      14
      15      16      17      18      19      20       9      10      11      12
      13      10      11      12      13      11      14      15      14      15
      13      16      17      16      17      15       0      17       0      19
      20      20       0
%FLAG HBOND_ACOEF                                                               
%FORMAT(5E16.8)                                                                 

%FLAG HBOND_BCOEF                                                               
%FORMAT(5E16.8)                                                                 

%FLAG HBCUT                                                                     
%FORMAT(5E16.8)                                                                 

%FLAG AMBER_ATOM_TYPE                                                           
%FORMAT(20a4)                                                                   
c6  c6  c6  c6  c6  c3  n3  hc  hc  hc  hc  hc  hc  h1  h1  h1  h1  h1  h1  h1  
%FLAG TREE_CHAIN_CLASSIFICATION                                                 
%FORMAT(20a4)                                                                   
BLA BLA BLA BLA BLA BLA BLA BLA BLA BLA BLA BLA BLA BLA BLA BLA BLA BLA BLA BLA 
%FLAG JOIN_ARRAY                                                                
%FORMAT(10I8)                                                                   
       0       0       0       0       0       0       0       0       0       0
       0       0       0       0       0       0       0       0       0       0
%FLAG IROTAT                                                                    
%FORMAT(10I8)                                                                   
       0       0       0       0       0       0       0       0       0       0
       0       0       0       0       0       0       0       0       0       0
%FLAG RADIUS_SET                                                                
%FORMAT(1a80)                                                                   
modified Bondi radii (mbondi)                                                   
%FLAG RADII                                                                     
%FORMAT(5E16.8)                                                                 
  1.70000000E+00  1.70000000E+00  1.70000000E+00  1.70000000E+00  1.70000000E+00
  1.70000000E+00  1.55000000E+00  1.30000000E+00  1.30000000E+00  1.30000000E+00
  1.30000000E+00  1.30000000E+00  1.30000000E+00  1.30000000E+00  1.30000000E+00
  1.30000000E+00  1.30000000E+00  1.30000000E+00  1.30000000E+00  1.30000000E+00
%FLAG SCREEN                                                                    
%FORMAT(5E16.8)                                                                 
  7.20000000E-01  7.20000000E-01  7.20000000E-01  7.20000000E-01  7.20000000E-01
  7.20000000E-01  7.90000000E-01  8.50000000E-01  8.50000000E-01  8.50000000E-01
  8.50000000E-01  8.50000000E-01  8.50000000E-01  8.50000000E-01  8.50000000E-01
  8.50000000E-01  8.50000000E-01  8.50000000E-01  8.50000000E-01  8.50000000E-01
%FLAG IPOL                                                                      
%FORMAT(1I8)                                                                    
       0
