; mobley_63712_GMX_OPLS.itp created by acpype (v: 2023.10.27) on Wed May 20 23:43:55 2026

; For OPLS atomtypes manual fine tuning
; AC_at:OPLS_at:OPLScode: Possible_Alternatives (see ffoplsaa.atp and ffoplsaanb.itp)
; c6:x:opls_x: []
; c3:CT:opls_135: ['136', '137', '149', '157', '158', '206', '209', '210', '223B', '224B', '245', '246', '274', '283', '284', '285', '292', '292B', '293B', '296', '307', '308', '505']
; n3:x:opls_x: []
; hc:HC:opls_140: []
; h1:HC:opls_140: []

[ moleculetype ]
;name            nrexcl
 mobley_63712     3

[ atoms ]
;   nr  type  resi  res  atom  cgnr     charge      mass       ; qtot   bond_type
     1 opls_x     1   MOL    C1    1    -0.075400      0.00000 ; qtot -0.075  x   
     2 opls_x     1   MOL    C2    2    -0.111400      0.00000 ; qtot -0.187  x   
     3 opls_x     1   MOL    C3    3    -0.111400      0.00000 ; qtot -0.298  x   
     4 opls_x     1   MOL    C4    4     0.162800      0.00000 ; qtot -0.135  x   
     5 opls_x     1   MOL    C5    5     0.162800      0.00000 ; qtot  0.027  x   
     6 opls_135     1   MOL    C6    6     0.151100     12.01100 ; qtot  0.178  CT  
     7 opls_x     1   MOL    N1    7    -0.721601      0.00000 ; qtot -0.543  x   
     8 opls_140     1   MOL    H1    8     0.040200      1.00800 ; qtot -0.503  HC  
     9 opls_140     1   MOL    H2    9     0.040200      1.00800 ; qtot -0.463  HC  
    10 opls_140     1   MOL    H3   10     0.043200      1.00800 ; qtot -0.420  HC  
    11 opls_140     1   MOL    H4   11     0.043200      1.00800 ; qtot -0.376  HC  
    12 opls_140     1   MOL    H5   12     0.043200      1.00800 ; qtot -0.333  HC  
    13 opls_140     1   MOL    H6   13     0.043200      1.00800 ; qtot -0.290  HC  
    14 opls_140     1   MOL    H7   14     0.049700      1.00800 ; qtot -0.240  HC  
    15 opls_140     1   MOL    H8   15     0.049700      1.00800 ; qtot -0.191  HC  
    16 opls_140     1   MOL    H9   16     0.049700      1.00800 ; qtot -0.141  HC  
    17 opls_140     1   MOL   H10   17     0.049700      1.00800 ; qtot -0.091  HC  
    18 opls_140     1   MOL   H11   18     0.030367      1.00800 ; qtot -0.061  HC  
    19 opls_140     1   MOL   H12   19     0.030367      1.00800 ; qtot -0.030  HC  
    20 opls_140     1   MOL   H13   20     0.030367      1.00800 ; qtot -0.000  HC  

[ bonds ]
;   ai     aj funct   r             k
     1      2   1 ;    1.5384e-01    1.8979e+05 ;     C1 - C2          x - x     
     1      3   1 ;    1.5384e-01    1.8979e+05 ;     C1 - C3          x - x     
     1      8   1 ;    1.0979e-01    2.8681e+05 ;     C1 - H1          x - HC    
     1      9   1 ;    1.0979e-01    2.8681e+05 ;     C1 - H2          x - HC    
     2      4   1 ;    1.5384e-01    1.8979e+05 ;     C2 - C4          x - x     
     2     10   1 ;    1.0979e-01    2.8681e+05 ;     C2 - H3          x - HC    
     2     11   1 ;    1.0979e-01    2.8681e+05 ;     C2 - H4          x - HC    
     3      5   1 ;    1.5384e-01    1.8979e+05 ;     C3 - C5          x - x     
     3     12   1 ;    1.0979e-01    2.8681e+05 ;     C3 - H5          x - HC    
     3     13   1 ;    1.0979e-01    2.8681e+05 ;     C3 - H6          x - HC    
     4      7   1 ;    1.4657e-01    2.1199e+05 ;     C4 - N1          x - x     
     4     14   1 ;    1.0984e-01    2.8620e+05 ;     C4 - H7          x - HC    
     4     15   1 ;    1.0984e-01    2.8620e+05 ;     C4 - H8          x - HC    
     5      7   1 ;    1.4657e-01    2.1199e+05 ;     C5 - N1          x - x     
     5     16   1 ;    1.0984e-01    2.8620e+05 ;     C5 - H9          x - HC    
     5     17   1 ;    1.0984e-01    2.8620e+05 ;     C5 - H10         x - HC    
     6      7   1 ;    1.4626e-01    2.1410e+05 ;     C6 - N1         CT - x     
     6     18   1 ;    1.0969e-01    2.8804e+05 ;     C6 - H11        CT - HC    
     6     19   1 ;    1.0969e-01    2.8804e+05 ;     C6 - H12        CT - HC    
     6     20   1 ;    1.0969e-01    2.8804e+05 ;     C6 - H13        CT - HC    

[ pairs ]
;   ai     aj    funct
     1      7      1 ;     C1 - N1    
     1     14      1 ;     C1 - H7    
     1     15      1 ;     C1 - H8    
     1     16      1 ;     C1 - H9    
     1     17      1 ;     C1 - H10   
     2      5      1 ;     C2 - C5    
     2      6      1 ;     C2 - C6    
     2     12      1 ;     C2 - H5    
     2     13      1 ;     C2 - H6    
     3      4      1 ;     C3 - C4    
     3      6      1 ;     C3 - C6    
     3     10      1 ;     C3 - H3    
     3     11      1 ;     C3 - H4    
     4     16      1 ;     C4 - H9    
     4     17      1 ;     C4 - H10   
     4     18      1 ;     C4 - H11   
     4     19      1 ;     C4 - H12   
     4     20      1 ;     C4 - H13   
     5     14      1 ;     C5 - H7    
     5     15      1 ;     C5 - H8    
     5     18      1 ;     C5 - H11   
     5     19      1 ;     C5 - H12   
     5     20      1 ;     C5 - H13   
     6     14      1 ;     C6 - H7    
     6     15      1 ;     C6 - H8    
     6     16      1 ;     C6 - H9    
     6     17      1 ;     C6 - H10   
     7     10      1 ;     N1 - H3    
     7     11      1 ;     N1 - H4    
     7     12      1 ;     N1 - H5    
     7     13      1 ;     N1 - H6    
     8      4      1 ;     H1 - C4    
     8      5      1 ;     H1 - C5    
     8     10      1 ;     H1 - H3    
     8     11      1 ;     H1 - H4    
     8     12      1 ;     H1 - H5    
     8     13      1 ;     H1 - H6    
     9      4      1 ;     H2 - C4    
     9      5      1 ;     H2 - C5    
     9     10      1 ;     H2 - H3    
     9     11      1 ;     H2 - H4    
     9     12      1 ;     H2 - H5    
     9     13      1 ;     H2 - H6    
    10     14      1 ;     H3 - H7    
    10     15      1 ;     H3 - H8    
    11     14      1 ;     H4 - H7    
    11     15      1 ;     H4 - H8    
    12     16      1 ;     H5 - H9    
    12     17      1 ;     H5 - H10   
    13     16      1 ;     H6 - H9    
    13     17      1 ;     H6 - H10   

[ angles ]
;   ai     aj     ak    funct   theta         cth
     1      2      4      1 ;    1.1106e+02    5.0359e+02 ;     C1 - C2   - C4        x -    x - x   
     1      2     10      1 ;    1.0945e+02    3.6175e+02 ;     C1 - C2   - H3        x -    x - HC  
     1      2     11      1 ;    1.0945e+02    3.6175e+02 ;     C1 - C2   - H4        x -    x - HC  
     1      3      5      1 ;    1.1106e+02    5.0359e+02 ;     C1 - C3   - C5        x -    x - x   
     1      3     12      1 ;    1.0945e+02    3.6175e+02 ;     C1 - C3   - H5        x -    x - HC  
     1      3     13      1 ;    1.0945e+02    3.6175e+02 ;     C1 - C3   - H6        x -    x - HC  
     2      1      3      1 ;    1.1106e+02    5.0359e+02 ;     C2 - C1   - C3        x -    x - x   
     2      1      8      1 ;    1.0945e+02    3.6175e+02 ;     C2 - C1   - H1        x -    x - HC  
     2      1      9      1 ;    1.0945e+02    3.6175e+02 ;     C2 - C1   - H2        x -    x - HC  
     2      4      7      1 ;    1.1084e+02    5.4743e+02 ;     C2 - C4   - N1        x -    x - x   
     2      4     14      1 ;    1.0918e+02    3.6217e+02 ;     C2 - C4   - H7        x -    x - HC  
     2      4     15      1 ;    1.0918e+02    3.6217e+02 ;     C2 - C4   - H8        x -    x - HC  
     3      1      8      1 ;    1.0945e+02    3.6175e+02 ;     C3 - C1   - H1        x -    x - HC  
     3      1      9      1 ;    1.0945e+02    3.6175e+02 ;     C3 - C1   - H2        x -    x - HC  
     3      5      7      1 ;    1.1084e+02    5.4743e+02 ;     C3 - C5   - N1        x -    x - x   
     3      5     16      1 ;    1.0918e+02    3.6217e+02 ;     C3 - C5   - H9        x -    x - HC  
     3      5     17      1 ;    1.0918e+02    3.6217e+02 ;     C3 - C5   - H10       x -    x - HC  
     4      2     10      1 ;    1.0945e+02    3.6175e+02 ;     C4 - C2   - H3        x -    x - HC  
     4      2     11      1 ;    1.0945e+02    3.6175e+02 ;     C4 - C2   - H4        x -    x - HC  
     4      7      5      1 ;    1.1070e+02    6.5429e+02 ;     C4 - N1   - C5        x -    x - x   
     4      7      6      1 ;    1.1238e+02    6.5003e+02 ;     C4 - N1   - C6        x -    x - CT  
     5      3     12      1 ;    1.0945e+02    3.6175e+02 ;     C5 - C3   - H5        x -    x - HC  
     5      3     13      1 ;    1.0945e+02    3.6175e+02 ;     C5 - C3   - H6        x -    x - HC  
     5      7      6      1 ;    1.1238e+02    6.5003e+02 ;     C5 - N1   - C6        x -    x - CT  
     7      4     14      1 ;    1.0963e+02    4.0041e+02 ;     N1 - C4   - H7        x -    x - HC  
     7      4     15      1 ;    1.0963e+02    4.0041e+02 ;     N1 - C4   - H8        x -    x - HC  
     7      5     16      1 ;    1.0963e+02    4.0041e+02 ;     N1 - C5   - H9        x -    x - HC  
     7      5     17      1 ;    1.0963e+02    4.0041e+02 ;     N1 - C5   - H10       x -    x - HC  
     7      6     18      1 ;    1.1009e+02    4.0033e+02 ;     N1 - C6   - H11       x -   CT - HC  
     7      6     19      1 ;    1.1009e+02    4.0033e+02 ;     N1 - C6   - H12       x -   CT - HC  
     7      6     20      1 ;    1.1009e+02    4.0033e+02 ;     N1 - C6   - H13       x -   CT - HC  
     8      1      9      1 ;    1.0662e+02    3.0066e+02 ;     H1 - C1   - H2       HC -    x - HC  
    10      2     11      1 ;    1.0662e+02    3.0066e+02 ;     H3 - C2   - H4       HC -    x - HC  
    12      3     13      1 ;    1.0662e+02    3.0066e+02 ;     H5 - C3   - H6       HC -    x - HC  
    14      4     15      1 ;    1.0750e+02    2.9932e+02 ;     H7 - C4   - H8       HC -    x - HC  
    16      5     17      1 ;    1.0750e+02    2.9932e+02 ;     H9 - C5   - H10      HC -    x - HC  
    18      6     19      1 ;    1.0855e+02    2.9824e+02 ;    H11 - C6   - H12      HC -   CT - HC  
    18      6     20      1 ;    1.0855e+02    2.9824e+02 ;    H11 - C6   - H13      HC -   CT - HC  
    19      6     20      1 ;    1.0855e+02    2.9824e+02 ;    H12 - C6   - H13      HC -   CT - HC  

[ dihedrals ] ; propers
; for gromacs 4.5 or higher, using funct 9
;    i      j      k      l   func   phase     kd      pn
     1      2      4      7      9 ;     0.00   0.87864   3 ;     C1-    C2-    C4-    N1
     1      2      4     14      9 ;     0.00   0.65084   3 ;     C1-    C2-    C4-    H7
     1      2      4     15      9 ;     0.00   0.65084   3 ;     C1-    C2-    C4-    H8
     1      3      5      7      9 ;     0.00   0.87864   3 ;     C1-    C3-    C5-    N1
     1      3      5     16      9 ;     0.00   0.65084   3 ;     C1-    C3-    C5-    H9
     1      3      5     17      9 ;     0.00   0.65084   3 ;     C1-    C3-    C5-   H10
     2      1      3      5      9 ;     0.00   2.17568   3 ;     C2-    C1-    C3-    C5
     2      1      3     12      9 ;     0.00   0.54392   3 ;     C2-    C1-    C3-    H5
     2      1      3     13      9 ;     0.00   0.54392   3 ;     C2-    C1-    C3-    H6
     2      4      7      5      9 ;     0.00   3.05432   3 ;     C2-    C4-    N1-    C5
     2      4      7      6      9 ;     0.00   3.05432   3 ;     C2-    C4-    N1-    C6
     3      1      2      4      9 ;     0.00   2.17568   3 ;     C3-    C1-    C2-    C4
     3      1      2     10      9 ;     0.00   0.54392   3 ;     C3-    C1-    C2-    H3
     3      1      2     11      9 ;     0.00   0.54392   3 ;     C3-    C1-    C2-    H4
     3      5      7      4      9 ;     0.00   3.05432   3 ;     C3-    C5-    N1-    C4
     3      5      7      6      9 ;     0.00   3.05432   3 ;     C3-    C5-    N1-    C6
     4      7      5     16      9 ;     0.00   0.94140   3 ;     C4-    N1-    C5-    H9
     4      7      5     17      9 ;     0.00   0.94140   3 ;     C4-    N1-    C5-   H10
     4      7      6     18      9 ;     0.00   0.94140   3 ;     C4-    N1-    C6-   H11
     4      7      6     19      9 ;     0.00   0.94140   3 ;     C4-    N1-    C6-   H12
     4      7      6     20      9 ;     0.00   0.94140   3 ;     C4-    N1-    C6-   H13
     5      7      4     14      9 ;     0.00   0.94140   3 ;     C5-    N1-    C4-    H7
     5      7      4     15      9 ;     0.00   0.94140   3 ;     C5-    N1-    C4-    H8
     5      7      6     18      9 ;     0.00   0.94140   3 ;     C5-    N1-    C6-   H11
     5      7      6     19      9 ;     0.00   0.94140   3 ;     C5-    N1-    C6-   H12
     5      7      6     20      9 ;     0.00   0.94140   3 ;     C5-    N1-    C6-   H13
     6      7      4     14      9 ;     0.00   0.94140   3 ;     C6-    N1-    C4-    H7
     6      7      4     15      9 ;     0.00   0.94140   3 ;     C6-    N1-    C4-    H8
     6      7      5     16      9 ;     0.00   0.94140   3 ;     C6-    N1-    C5-    H9
     6      7      5     17      9 ;     0.00   0.94140   3 ;     C6-    N1-    C5-   H10
     7      4      2     10      9 ;     0.00   0.41840   3 ;     N1-    C4-    C2-    H3
     7      4      2     11      9 ;     0.00   0.41840   3 ;     N1-    C4-    C2-    H4
     7      5      3     12      9 ;     0.00   0.41840   3 ;     N1-    C5-    C3-    H5
     7      5      3     13      9 ;     0.00   0.41840   3 ;     N1-    C5-    C3-    H6
     8      1      2      4      9 ;     0.00   0.54392   3 ;     H1-    C1-    C2-    C4
     8      1      2     10      9 ;     0.00   0.50208   3 ;     H1-    C1-    C2-    H3
     8      1      2     11      9 ;     0.00   0.50208   3 ;     H1-    C1-    C2-    H4
     8      1      3      5      9 ;     0.00   0.54392   3 ;     H1-    C1-    C3-    C5
     8      1      3     12      9 ;     0.00   0.50208   3 ;     H1-    C1-    C3-    H5
     8      1      3     13      9 ;     0.00   0.50208   3 ;     H1-    C1-    C3-    H6
     9      1      2      4      9 ;     0.00   0.54392   3 ;     H2-    C1-    C2-    C4
     9      1      2     10      9 ;     0.00   0.50208   3 ;     H2-    C1-    C2-    H3
     9      1      2     11      9 ;     0.00   0.50208   3 ;     H2-    C1-    C2-    H4
     9      1      3      5      9 ;     0.00   0.54392   3 ;     H2-    C1-    C3-    C5
     9      1      3     12      9 ;     0.00   0.50208   3 ;     H2-    C1-    C3-    H5
     9      1      3     13      9 ;     0.00   0.50208   3 ;     H2-    C1-    C3-    H6
    10      2      4     14      9 ;     0.00   0.65084   3 ;     H3-    C2-    C4-    H7
    10      2      4     15      9 ;     0.00   0.65084   3 ;     H3-    C2-    C4-    H8
    11      2      4     14      9 ;     0.00   0.65084   3 ;     H4-    C2-    C4-    H7
    11      2      4     15      9 ;     0.00   0.65084   3 ;     H4-    C2-    C4-    H8
    12      3      5     16      9 ;     0.00   0.65084   3 ;     H5-    C3-    C5-    H9
    12      3      5     17      9 ;     0.00   0.65084   3 ;     H5-    C3-    C5-   H10
    13      3      5     16      9 ;     0.00   0.65084   3 ;     H6-    C3-    C5-    H9
    13      3      5     17      9 ;     0.00   0.65084   3 ;     H6-    C3-    C5-   H10
