; mobley_63712_GMX_OPLS.top created by acpype (v: 2023.10.27) on Wed May 20 23:43:55 2026

; Include forcefield parameters
#include "ffoplsaa.itp"

; Include mobley_63712_GMX.itp topology
#include "mobley_63712_GMX.itp"

; Ligand position restraints
#ifdef POSRES_LIG
#include "posre_mobley_63712.itp"
#endif

[ system ]
 mobley_63712

[ molecules ]
; Compound        nmols
 mobley_63712     1     
