; mobley_5371840_GMX_OPLS.itp created by acpype (v: 2023.10.27) on Wed May 20 23:44:43 2026

; For OPLS atomtypes manual fine tuning
; AC_at:OPLS_at:OPLScode: Possible_Alternatives (see ffoplsaa.atp and ffoplsaanb.itp)
; ca:CA:opls_145: ['166', '501', '502']
; os:x:opls_x: []
; cl:x:opls_x: []
; ha:HA:opls_146: []

[ moleculetype ]
;name            nrexcl
 mobley_5371840   3

[ atoms ]
;   nr  type  resi  res  atom  cgnr     charge      mass       ; qtot   bond_type
     1 opls_145     1   MOL    C1    1    -0.126000     12.01100 ; qtot -0.126  CA  
     2 opls_145     1   MOL    C2    2    -0.126000     12.01100 ; qtot -0.252  CA  
     3 opls_145     1   MOL    C3    3    -0.180300     12.01100 ; qtot -0.432  CA  
     4 opls_145     1   MOL    C4    4    -0.180300     12.01100 ; qtot -0.613  CA  
     5 opls_145     1   MOL    C5    5    -0.175300     12.01100 ; qtot -0.788  CA  
     6 opls_145     1   MOL    C6    6    -0.122000     12.01100 ; qtot -0.910  CA  
     7 opls_145     1   MOL    C7    7    -0.179300     12.01100 ; qtot -1.089  CA  
     8 opls_145     1   MOL    C8    8     0.210700     12.01100 ; qtot -0.878  CA  
     9 opls_145     1   MOL    C9    9     0.210700     12.01100 ; qtot -0.668  CA  
    10 opls_145     1   MOL   C10   10     0.213700     12.01100 ; qtot -0.454  CA  
    11 opls_145     1   MOL   C11   11     0.221700     12.01100 ; qtot -0.232  CA  
    12 opls_145     1   MOL   C12   12     0.017400     12.01100 ; qtot -0.215  CA  
    13 opls_x     1   MOL    O1   13    -0.389800      0.00000 ; qtot -0.605  x   
    14 opls_x     1   MOL    O2   14    -0.389800      0.00000 ; qtot -0.995  x   
    15 opls_x     1   MOL   CL1   15    -0.083400      0.00000 ; qtot -1.078  x   
    16 opls_146     1   MOL    H1   16     0.141000      1.00800 ; qtot -0.937  HA  
    17 opls_146     1   MOL    H2   17     0.141000      1.00800 ; qtot -0.796  HA  
    18 opls_146     1   MOL    H3   18     0.156000      1.00800 ; qtot -0.640  HA  
    19 opls_146     1   MOL    H4   19     0.156000      1.00800 ; qtot -0.484  HA  
    20 opls_146     1   MOL    H5   20     0.160000      1.00800 ; qtot -0.324  HA  
    21 opls_146     1   MOL    H6   21     0.155000      1.00800 ; qtot -0.169  HA  
    22 opls_146     1   MOL    H7   22     0.169000      1.00800 ; qtot  0.000  HA  

[ bonds ]
;   ai     aj funct   r             k
     1      2   1 ;    1.3986e-01    2.9644e+05 ;     C1 - C2         CA - CA    
     1      3   1 ;    1.3986e-01    2.9644e+05 ;     C1 - C3         CA - CA    
     1     16   1 ;    1.0860e-01    3.0183e+05 ;     C1 - H1         CA - HA    
     2      4   1 ;    1.3986e-01    2.9644e+05 ;     C2 - C4         CA - CA    
     2     17   1 ;    1.0860e-01    3.0183e+05 ;     C2 - H2         CA - HA    
     3      8   1 ;    1.3986e-01    2.9644e+05 ;     C3 - C8         CA - CA    
     3     18   1 ;    1.0860e-01    3.0183e+05 ;     C3 - H3         CA - HA    
     4      9   1 ;    1.3986e-01    2.9644e+05 ;     C4 - C9         CA - CA    
     4     19   1 ;    1.0860e-01    3.0183e+05 ;     C4 - H4         CA - HA    
     5      6   1 ;    1.3986e-01    2.9644e+05 ;     C5 - C6         CA - CA    
     5     10   1 ;    1.3986e-01    2.9644e+05 ;     C5 - C10        CA - CA    
     5     20   1 ;    1.0860e-01    3.0183e+05 ;     C5 - H5         CA - HA    
     6     12   1 ;    1.3986e-01    2.9644e+05 ;     C6 - C12        CA - CA    
     6     21   1 ;    1.0860e-01    3.0183e+05 ;     C6 - H6         CA - HA    
     7     11   1 ;    1.3986e-01    2.9644e+05 ;     C7 - C11        CA - CA    
     7     12   1 ;    1.3986e-01    2.9644e+05 ;     C7 - C12        CA - CA    
     7     22   1 ;    1.0860e-01    3.0183e+05 ;     C7 - H7         CA - HA    
     8      9   1 ;    1.3986e-01    2.9644e+05 ;     C8 - C9         CA - CA    
     8     13   1 ;    1.3688e-01    2.8731e+05 ;     C8 - O1         CA - x     
     9     14   1 ;    1.3688e-01    2.8731e+05 ;     C9 - O2         CA - x     
    10     11   1 ;    1.3986e-01    2.9644e+05 ;    C10 - C11        CA - CA    
    10     13   1 ;    1.3688e-01    2.8731e+05 ;    C10 - O1         CA - x     
    11     14   1 ;    1.3688e-01    2.8731e+05 ;    C11 - O2         CA - x     
    12     15   1 ;    1.7572e-01    1.5730e+05 ;    C12 - CL1        CA - x     

[ pairs ]
;   ai     aj    funct
     1      9      1 ;     C1 - C9    
     1     13      1 ;     C1 - O1    
     1     19      1 ;     C1 - H4    
     2      8      1 ;     C2 - C8    
     2     14      1 ;     C2 - O2    
     2     18      1 ;     C2 - H3    
     3      4      1 ;     C3 - C4    
     3     10      1 ;     C3 - C10   
     3     14      1 ;     C3 - O2    
     3     17      1 ;     C3 - H2    
     4     11      1 ;     C4 - C11   
     4     13      1 ;     C4 - O1    
     5      7      1 ;     C5 - C7    
     5      8      1 ;     C5 - C8    
     5     14      1 ;     C5 - O2    
     5     15      1 ;     C5 - CL1   
     6     11      1 ;     C6 - C11   
     6     13      1 ;     C6 - O1    
     6     22      1 ;     C6 - H7    
     7      9      1 ;     C7 - C9    
     7     13      1 ;     C7 - O1    
     7     21      1 ;     C7 - H6    
     8     11      1 ;     C8 - C11   
     8     19      1 ;     C8 - H4    
     9     10      1 ;     C9 - C10   
     9     17      1 ;     C9 - H2    
     9     18      1 ;     C9 - H3    
    10     12      1 ;    C10 - C12   
    10     21      1 ;    C10 - H6    
    10     22      1 ;    C10 - H7    
    11     15      1 ;    C11 - CL1   
    11     20      1 ;    C11 - H5    
    12     14      1 ;    C12 - O2    
    12     20      1 ;    C12 - H5    
    13     14      1 ;     O1 - O2    
    13     18      1 ;     O1 - H3    
    13     20      1 ;     O1 - H5    
    14     19      1 ;     O2 - H4    
    14     22      1 ;     O2 - H7    
    15     21      1 ;    CL1 - H6    
    15     22      1 ;    CL1 - H7    
    16      4      1 ;     H1 - C4    
    16      8      1 ;     H1 - C8    
    16     17      1 ;     H1 - H2    
    16     18      1 ;     H1 - H3    
    17     19      1 ;     H2 - H4    
    20     21      1 ;     H5 - H6    

[ angles ]
;   ai     aj     ak    funct   theta         cth
     1      2      4      1 ;    1.2002e+02    5.3279e+02 ;     C1 - C2   - C4       CA -   CA - CA  
     1      2     17      1 ;    1.1988e+02    3.7572e+02 ;     C1 - C2   - H2       CA -   CA - HA  
     1      3      8      1 ;    1.2002e+02    5.3279e+02 ;     C1 - C3   - C8       CA -   CA - CA  
     1      3     18      1 ;    1.1988e+02    3.7572e+02 ;     C1 - C3   - H3       CA -   CA - HA  
     2      1      3      1 ;    1.2002e+02    5.3279e+02 ;     C2 - C1   - C3       CA -   CA - CA  
     2      1     16      1 ;    1.1988e+02    3.7572e+02 ;     C2 - C1   - H1       CA -   CA - HA  
     2      4      9      1 ;    1.2002e+02    5.3279e+02 ;     C2 - C4   - C9       CA -   CA - CA  
     2      4     19      1 ;    1.1988e+02    3.7572e+02 ;     C2 - C4   - H4       CA -   CA - HA  
     3      1     16      1 ;    1.1988e+02    3.7572e+02 ;     C3 - C1   - H1       CA -   CA - HA  
     3      8      9      1 ;    1.2002e+02    5.3279e+02 ;     C3 - C8   - C9       CA -   CA - CA  
     3      8     13      1 ;    1.1911e+02    6.6107e+02 ;     C3 - C8   - O1       CA -   CA - x   
     4      2     17      1 ;    1.1988e+02    3.7572e+02 ;     C4 - C2   - H2       CA -   CA - HA  
     4      9      8      1 ;    1.2002e+02    5.3279e+02 ;     C4 - C9   - C8       CA -   CA - CA  
     4      9     14      1 ;    1.1911e+02    6.6107e+02 ;     C4 - C9   - O2       CA -   CA - x   
     5      6     12      1 ;    1.2002e+02    5.3279e+02 ;     C5 - C6   - C12      CA -   CA - CA  
     5      6     21      1 ;    1.1988e+02    3.7572e+02 ;     C5 - C6   - H6       CA -   CA - HA  
     5     10     11      1 ;    1.2002e+02    5.3279e+02 ;     C5 - C10  - C11      CA -   CA - CA  
     5     10     13      1 ;    1.1911e+02    6.6107e+02 ;     C5 - C10  - O1       CA -   CA - x   
     6      5     10      1 ;    1.2002e+02    5.3279e+02 ;     C6 - C5   - C10      CA -   CA - CA  
     6      5     20      1 ;    1.1988e+02    3.7572e+02 ;     C6 - C5   - H5       CA -   CA - HA  
     6     12      7      1 ;    1.2002e+02    5.3279e+02 ;     C6 - C12  - C7       CA -   CA - CA  
     6     12     15      1 ;    1.1938e+02    5.3605e+02 ;     C6 - C12  - CL1      CA -   CA - x   
     7     11     10      1 ;    1.2002e+02    5.3279e+02 ;     C7 - C11  - C10      CA -   CA - CA  
     7     11     14      1 ;    1.1911e+02    6.6107e+02 ;     C7 - C11  - O2       CA -   CA - x   
     7     12     15      1 ;    1.1938e+02    5.3605e+02 ;     C7 - C12  - CL1      CA -   CA - x   
     8      3     18      1 ;    1.1988e+02    3.7572e+02 ;     C8 - C3   - H3       CA -   CA - HA  
     8      9     14      1 ;    1.1911e+02    6.6107e+02 ;     C8 - C9   - O2       CA -   CA - x   
     8     13     10      1 ;    1.1987e+02    7.5036e+02 ;     C8 - O1   - C10      CA -    x - CA  
     9      4     19      1 ;    1.1988e+02    3.7572e+02 ;     C9 - C4   - H4       CA -   CA - HA  
     9      8     13      1 ;    1.1911e+02    6.6107e+02 ;     C9 - C8   - O1       CA -   CA - x   
     9     14     11      1 ;    1.1987e+02    7.5036e+02 ;     C9 - O2   - C11      CA -    x - CA  
    10      5     20      1 ;    1.1988e+02    3.7572e+02 ;    C10 - C5   - H5       CA -   CA - HA  
    10     11     14      1 ;    1.1911e+02    6.6107e+02 ;    C10 - C11  - O2       CA -   CA - x   
    11      7     12      1 ;    1.2002e+02    5.3279e+02 ;    C11 - C7   - C12      CA -   CA - CA  
    11      7     22      1 ;    1.1988e+02    3.7572e+02 ;    C11 - C7   - H7       CA -   CA - HA  
    11     10     13      1 ;    1.1911e+02    6.6107e+02 ;    C11 - C10  - O1       CA -   CA - x   
    12      6     21      1 ;    1.1988e+02    3.7572e+02 ;    C12 - C6   - H6       CA -   CA - HA  
    12      7     22      1 ;    1.1988e+02    3.7572e+02 ;    C12 - C7   - H7       CA -   CA - HA  

[ dihedrals ] ; propers
; for gromacs 4.5 or higher, using funct 9
;    i      j      k      l   func   phase     kd      pn
     1      2      4      9      9 ;   180.00  15.16700   2 ;     C1-    C2-    C4-    C9
     1      2      4     19      9 ;   180.00  15.16700   2 ;     C1-    C2-    C4-    H4
     1      3      8      9      9 ;   180.00  15.16700   2 ;     C1-    C3-    C8-    C9
     1      3      8     13      9 ;   180.00  15.16700   2 ;     C1-    C3-    C8-    O1
     2      1      3      8      9 ;   180.00  15.16700   2 ;     C2-    C1-    C3-    C8
     2      1      3     18      9 ;   180.00  15.16700   2 ;     C2-    C1-    C3-    H3
     2      4      9      8      9 ;   180.00  15.16700   2 ;     C2-    C4-    C9-    C8
     2      4      9     14      9 ;   180.00  15.16700   2 ;     C2-    C4-    C9-    O2
     3      1      2      4      9 ;   180.00  15.16700   2 ;     C3-    C1-    C2-    C4
     3      1      2     17      9 ;   180.00  15.16700   2 ;     C3-    C1-    C2-    H2
     3      8      9      4      9 ;   180.00  15.16700   2 ;     C3-    C8-    C9-    C4
     3      8      9     14      9 ;   180.00  15.16700   2 ;     C3-    C8-    C9-    O2
     3      8     13     10      9 ;   180.00   3.76560   2 ;     C3-    C8-    O1-   C10
     4      9      8     13      9 ;   180.00  15.16700   2 ;     C4-    C9-    C8-    O1
     4      9     14     11      9 ;   180.00   3.76560   2 ;     C4-    C9-    O2-   C11
     5      6     12      7      9 ;   180.00  15.16700   2 ;     C5-    C6-   C12-    C7
     5      6     12     15      9 ;   180.00  15.16700   2 ;     C5-    C6-   C12-   CL1
     5     10     11      7      9 ;   180.00  15.16700   2 ;     C5-   C10-   C11-    C7
     5     10     11     14      9 ;   180.00  15.16700   2 ;     C5-   C10-   C11-    O2
     5     10     13      8      9 ;   180.00   3.76560   2 ;     C5-   C10-    O1-    C8
     6      5     10     11      9 ;   180.00  15.16700   2 ;     C6-    C5-   C10-   C11
     6      5     10     13      9 ;   180.00  15.16700   2 ;     C6-    C5-   C10-    O1
     6     12      7     11      9 ;   180.00  15.16700   2 ;     C6-   C12-    C7-   C11
     6     12      7     22      9 ;   180.00  15.16700   2 ;     C6-   C12-    C7-    H7
     7     11     10     13      9 ;   180.00  15.16700   2 ;     C7-   C11-   C10-    O1
     7     11     14      9      9 ;   180.00   3.76560   2 ;     C7-   C11-    O2-    C9
     7     12      6     21      9 ;   180.00  15.16700   2 ;     C7-   C12-    C6-    H6
     8      9      4     19      9 ;   180.00  15.16700   2 ;     C8-    C9-    C4-    H4
     8      9     14     11      9 ;   180.00   3.76560   2 ;     C8-    C9-    O2-   C11
     8     13     10     11      9 ;   180.00   3.76560   2 ;     C8-    O1-   C10-   C11
     9      4      2     17      9 ;   180.00  15.16700   2 ;     C9-    C4-    C2-    H2
     9      8      3     18      9 ;   180.00  15.16700   2 ;     C9-    C8-    C3-    H3
     9      8     13     10      9 ;   180.00   3.76560   2 ;     C9-    C8-    O1-   C10
     9     14     11     10      9 ;   180.00   3.76560   2 ;     C9-    O2-   C11-   C10
    10      5      6     12      9 ;   180.00  15.16700   2 ;    C10-    C5-    C6-   C12
    10      5      6     21      9 ;   180.00  15.16700   2 ;    C10-    C5-    C6-    H6
    10     11      7     12      9 ;   180.00  15.16700   2 ;    C10-   C11-    C7-   C12
    10     11      7     22      9 ;   180.00  15.16700   2 ;    C10-   C11-    C7-    H7
    11      7     12     15      9 ;   180.00  15.16700   2 ;    C11-    C7-   C12-   CL1
    11     10      5     20      9 ;   180.00  15.16700   2 ;    C11-   C10-    C5-    H5
    12      6      5     20      9 ;   180.00  15.16700   2 ;    C12-    C6-    C5-    H5
    12      7     11     14      9 ;   180.00  15.16700   2 ;    C12-    C7-   C11-    O2
    13      8      3     18      9 ;   180.00  15.16700   2 ;     O1-    C8-    C3-    H3
    13      8      9     14      9 ;   180.00  15.16700   2 ;     O1-    C8-    C9-    O2
    13     10      5     20      9 ;   180.00  15.16700   2 ;     O1-   C10-    C5-    H5
    13     10     11     14      9 ;   180.00  15.16700   2 ;     O1-   C10-   C11-    O2
    14      9      4     19      9 ;   180.00  15.16700   2 ;     O2-    C9-    C4-    H4
    14     11      7     22      9 ;   180.00  15.16700   2 ;     O2-   C11-    C7-    H7
    15     12      6     21      9 ;   180.00  15.16700   2 ;    CL1-   C12-    C6-    H6
    15     12      7     22      9 ;   180.00  15.16700   2 ;    CL1-   C12-    C7-    H7
    16      1      2      4      9 ;   180.00  15.16700   2 ;     H1-    C1-    C2-    C4
    16      1      2     17      9 ;   180.00  15.16700   2 ;     H1-    C1-    C2-    H2
    16      1      3      8      9 ;   180.00  15.16700   2 ;     H1-    C1-    C3-    C8
    16      1      3     18      9 ;   180.00  15.16700   2 ;     H1-    C1-    C3-    H3
    17      2      4     19      9 ;   180.00  15.16700   2 ;     H2-    C2-    C4-    H4
    20      5      6     21      9 ;   180.00  15.16700   2 ;     H5-    C5-    C6-    H6

[ dihedrals ] ; impropers
; treated as propers in GROMACS to use correct AMBER analytical function
;    i      j      k      l   func   phase     kd      pn
     1      4      2     17      4 ;   180.00   4.60240   2 ;     C1-    C4-    C2-    H2
     1      8      3     18      4 ;   180.00   4.60240   2 ;     C1-    C8-    C3-    H3
     2      9      4     19      4 ;   180.00   4.60240   2 ;     C2-    C9-    C4-    H4
     3      9      8     13      4 ;   180.00   4.60240   2 ;     C3-    C9-    C8-    O1
     4      8      9     14      4 ;   180.00   4.60240   2 ;     C4-    C8-    C9-    O2
     5     11     10     13      4 ;   180.00   4.60240   2 ;     C5-   C11-   C10-    O1
     5     12      6     21      4 ;   180.00   4.60240   2 ;     C5-   C12-    C6-    H6
     6      7     12     15      4 ;   180.00   4.60240   2 ;     C6-    C7-   C12-   CL1
     6     10      5     20      4 ;   180.00   4.60240   2 ;     C6-   C10-    C5-    H5
     7     10     11     14      4 ;   180.00   4.60240   2 ;     C7-   C10-   C11-    O2
    11     12      7     22      4 ;   180.00   4.60240   2 ;    C11-   C12-    C7-    H7
    16      1      3      2      4 ;   180.00   4.60240   2 ;     H1-    C1-    C3-    C2
