; mobley_5371840_GMX_OPLS.top created by acpype (v: 2023.10.27) on Wed May 20 23:44:43 2026

; Include forcefield parameters
#include "ffoplsaa.itp"

; Include mobley_5371840_GMX.itp topology
#include "mobley_5371840_GMX.itp"

; Ligand position restraints
#ifdef POSRES_LIG
#include "posre_mobley_5371840.itp"
#endif

[ system ]
 mobley_5371840

[ molecules ]
; Compound        nmols
 mobley_5371840   1     
