%VERSION  VERSION_STAMP = V0001.000  DATE = 05/20/26  23:44:43                  
%FLAG TITLE                                                                     
%FORMAT(20a4)                                                                   
2-chlorodibenzo-p-dioxin                                                        
%FLAG POINTERS                                                                  
%FORMAT(10I8)                                                                   
      22       4       7      17      14      24      31      37       0       0
     113       1      17      24      37       4       5       3       4       0
       0       0       0       0       0       0       0       0      22       0
       0
%FLAG ATOM_NAME                                                                 
%FORMAT(20a4)                                                                   
C1  C2  C3  C4  C5  C6  C7  C8  C9  C10 C11 C12 O1  O2  Cl1 H1  H2  H3  H4  H5  
H6  H7  
%FLAG CHARGE                                                                    
%FORMAT(5E16.8)                                                                 
 -2.29600980E+00 -2.29600980E+00 -3.28548069E+00 -3.28548069E+00 -3.19436919E+00
 -2.22312060E+00 -3.26725839E+00  3.83943861E+00  3.83943861E+00  3.89410551E+00
  4.03988391E+00  3.17068020E-01 -7.12127484E+00 -7.10305254E+00 -1.51973982E+00
  2.56934430E+00  2.56934430E+00  2.84267880E+00  2.84267880E+00  2.91556800E+00
  2.82445650E+00  3.07956870E+00
%FLAG ATOMIC_NUMBER                                                             
%FORMAT(10I8)                                                                   
       6       6       6       6       6       6       6       6       6       6
       6       6       8       8      17       1       1       1       1       1
       1       1
%FLAG MASS                                                                      
%FORMAT(5E16.8)                                                                 
  1.20100000E+01  1.20100000E+01  1.20100000E+01  1.20100000E+01  1.20100000E+01
  1.20100000E+01  1.20100000E+01  1.20100000E+01  1.20100000E+01  1.20100000E+01
  1.20100000E+01  1.20100000E+01  1.60000000E+01  1.60000000E+01  3.54500000E+01
  1.00800000E+00  1.00800000E+00  1.00800000E+00  1.00800000E+00  1.00800000E+00
  1.00800000E+00  1.00800000E+00
%FLAG ATOM_TYPE_INDEX                                                           
%FORMAT(10I8)                                                                   
       1       1       1       1       1       1       1       1       1       1
       1       1       2       2       3       4       4       4       4       4
       4       4
%FLAG NUMBER_EXCLUDED_ATOMS                                                     
%FORMAT(10I8)                                                                   
      10       9       9       8      11       9       9       8       7       7
       6       5       3       2       2       2       1       1       1       1
       1       1
%FLAG NONBONDED_PARM_INDEX                                                      
%FORMAT(10I8)                                                                   
       1       2       4       7       2       3       5       8       4       5
       6       9       7       8       9      10
%FLAG RESIDUE_LABEL                                                             
%FORMAT(20a4)                                                                   
MOL 
%FLAG RESIDUE_POINTER                                                           
%FORMAT(10I8)                                                                   
       1
%FLAG BOND_FORCE_CONSTANT                                                       
%FORMAT(5E16.8)                                                                 
  3.54250000E+02  3.60690000E+02  3.43340000E+02  1.87980000E+02
%FLAG BOND_EQUIL_VALUE                                                          
%FORMAT(5E16.8)                                                                 
  1.39860000E+00  1.08600000E+00  1.36880000E+00  1.75720000E+00
%FLAG ANGLE_FORCE_CONSTANT                                                      
%FORMAT(5E16.8)                                                                 
  6.36700000E+01  4.49000000E+01  7.90000000E+01  6.40600000E+01  8.96700000E+01
%FLAG ANGLE_EQUIL_VALUE                                                         
%FORMAT(5E16.8)                                                                 
  2.09474507E+00  2.09230160E+00  2.07886256E+00  2.08357495E+00  2.09212707E+00
%FLAG DIHEDRAL_FORCE_CONSTANT                                                   
%FORMAT(5E16.8)                                                                 
  3.62500000E+00  9.00000000E-01  1.10000000E+00
%FLAG DIHEDRAL_PERIODICITY                                                      
%FORMAT(5E16.8)                                                                 
  2.00000000E+00  2.00000000E+00  2.00000000E+00
%FLAG DIHEDRAL_PHASE                                                            
%FORMAT(5E16.8)                                                                 
  3.14159400E+00  3.14159400E+00  3.14159400E+00
%FLAG SCEE_SCALE_FACTOR                                                         
%FORMAT(5E16.8)                                                                 
  1.20000000E+00  1.20000000E+00  0.00000000E+00
%FLAG SCNB_SCALE_FACTOR                                                         
%FORMAT(5E16.8)                                                                 
  2.00000000E+00  2.00000000E+00  0.00000000E+00
%FLAG SOLTY                                                                     
%FORMAT(5E16.8)                                                                 
  0.00000000E+00  0.00000000E+00  0.00000000E+00  0.00000000E+00
%FLAG LENNARD_JONES_ACOEF                                                       
%FORMAT(5E16.8)                                                                 
  6.96551276E+05  4.46121722E+05  2.83662575E+05  1.49062160E+06  9.60982218E+05
  3.17107030E+06  7.52549148E+04  4.65732396E+04  1.66104821E+05  6.90855956E+03
%FLAG LENNARD_JONES_BCOEF                                                       
%FORMAT(5E16.8)                                                                 
  5.24668528E+02  3.88758656E+02  2.87011518E+02  9.81118883E+02  7.29357620E+02
  1.82923847E+03  1.09570372E+02  7.98066064E+01  2.08087638E+02  2.10929191E+01
%FLAG BONDS_INC_HYDROGEN                                                        
%FORMAT(10I8)                                                                   
       0      45       2       3      48       2       6      51       2       9
      54       2      12      57       2      15      60       2      18      63
       2
%FLAG BONDS_WITHOUT_HYDROGEN                                                    
%FORMAT(10I8)                                                                   
       0       3       1       0       6       1       3       9       1       6
      21       1       9      24       1      12      15       1      12      27
       1      15      33       1      18      30       1      18      33       1
      21      24       1      21      36       3      24      39       3      27
      30       1      27      36       3      30      39       3      33      42
       4
%FLAG ANGLES_INC_HYDROGEN                                                       
%FORMAT(10I8)                                                                   
       0       3      48       2       0       6      51       2       3       0
      45       2       3       9      54       2       6       0      45       2
       9       3      48       2      12      15      60       2      15      12
      57       2      21       6      51       2      24       9      54       2
      27      12      57       2      30      18      63       2      33      15
      60       2      33      18      63       2
%FLAG ANGLES_WITHOUT_HYDROGEN                                                   
%FORMAT(10I8)                                                                   
       0       3       9       1       0       6      21       1       3       0
       6       1       3       9      24       1       6      21      24       1
       6      21      36       3       9      24      21       1       9      24
      39       3      12      15      33       1      12      27      30       1
      12      27      36       3      15      12      27       1      15      33
      18       1      15      33      42       4      18      30      27       1
      18      30      39       3      18      33      42       4      21      24
      39       3      21      36      27       5      24      21      36       3
      24      39      30       5      27      30      39       3      30      18
      33       1      30      27      36       3
%FLAG DIHEDRALS_INC_HYDROGEN                                                    
%FORMAT(10I8)                                                                   
       0       3       9      54       1       3       0       6      51       1
       6       0       3      48       1      45       0       3       9       1
      15      33      18      63       1      18      33      15      60       1
      45       0       6      21       1      21      24       9      54       1
      24       9       3      48       1      24      21       6      51       1
      27      12      15      60       1      27      30      18      63       1
      30      27      12      57       1      33      15      12      57       1
      36      21       6      51       1      36      27      12      57       1
      39      24       9      54       1      39      30      18      63       1
      42      33      15      60       1      42      33      18      63       1
      45       0       3      48       1      45       0       6      51       1
      48       3       9      54       1      57      12      15      60       1
      45       0      -6      -3       3       0       9      -3     -48       3
       0      21      -6     -51       3       3      24      -9     -54       3
      15      27     -12     -57       3      12      33     -15     -60       3
      30      33     -18     -63       3
%FLAG DIHEDRALS_WITHOUT_HYDROGEN                                                
%FORMAT(10I8)                                                                   
       0       3       9      24       1       0       6     -21      24       1
       0       6      21      36       1       3       0       6      21       1
       3       9     -24      21       1       3       9      24      39       1
       6       0       3       9       1       6      21     -24       9       1
       6      21      24      39       1       6      21      36      27       2
       9      24      21      36       1       9      24      39      30       2
      12      15      33      18       1      12      15      33      42       1
      12      27     -30      18       1      12      27      30      39       1
      12      27      36      21       2      15      12      27      30       1
      15      12      27      36       1      15      33     -18      30       1
      18      30      27      36       1      18      30      39      24       2
      21      24      39      30       2      21      36     -27      30       2
      24      21      36      27       2      24      39     -30      27       2
      27      12      15      33       1      27      30     -18      33       1
      30      18      33      42       1      33      18      30      39       1
      36      21      24      39       1      36      27     -30      39       1
       6      24     -21     -36       3       9      21     -24     -39       3
      12      30     -27     -36       3      18      27     -30     -39       3
      15      18     -33     -42       3
%FLAG EXCLUDED_ATOMS_LIST                                                       
%FORMAT(10I8)                                                                   
       2       3       4       8       9      13      16      17      18      19
       3       4       8       9      14      16      17      18      19       4
       8       9      10      13      14      16      17      18       8       9
      11      13      14      16      17      19       6       7       8      10
      11      12      13      14      15      20      21       7      10      11
      12      13      15      20      21      22       9      10      11      12
      13      14      15      21      22       9      10      11      13      14
      16      18      19      10      11      13      14      17      18      19
      11      12      13      14      20      21      22      12      13      14
      15      20      22      14      15      20      21      22      14      18
      20      19      22      21      22      17      18      19       0       0
      21       0       0
%FLAG HBOND_ACOEF                                                               
%FORMAT(5E16.8)                                                                 

%FLAG HBOND_BCOEF                                                               
%FORMAT(5E16.8)                                                                 

%FLAG HBCUT                                                                     
%FORMAT(5E16.8)                                                                 

%FLAG AMBER_ATOM_TYPE                                                           
%FORMAT(20a4)                                                                   
ca  ca  ca  ca  ca  ca  ca  ca  ca  ca  ca  ca  os  os  cl  ha  ha  ha  ha  ha  
ha  ha  
%FLAG TREE_CHAIN_CLASSIFICATION                                                 
%FORMAT(20a4)                                                                   
BLA BLA BLA BLA BLA BLA BLA BLA BLA BLA BLA BLA BLA BLA BLA BLA BLA BLA BLA BLA 
BLA BLA 
%FLAG JOIN_ARRAY                                                                
%FORMAT(10I8)                                                                   
       0       0       0       0       0       0       0       0       0       0
       0       0       0       0       0       0       0       0       0       0
       0       0
%FLAG IROTAT                                                                    
%FORMAT(10I8)                                                                   
       0       0       0       0       0       0       0       0       0       0
       0       0       0       0       0       0       0       0       0       0
       0       0
%FLAG RADIUS_SET                                                                
%FORMAT(1a80)                                                                   
modified Bondi radii (mbondi)                                                   
%FLAG RADII                                                                     
%FORMAT(5E16.8)                                                                 
  1.70000000E+00  1.70000000E+00  1.70000000E+00  1.70000000E+00  1.70000000E+00
  1.70000000E+00  1.70000000E+00  1.70000000E+00  1.70000000E+00  1.70000000E+00
  1.70000000E+00  1.70000000E+00  1.50000000E+00  1.50000000E+00  1.70000000E+00
  1.30000000E+00  1.30000000E+00  1.30000000E+00  1.30000000E+00  1.30000000E+00
  1.30000000E+00  1.30000000E+00
%FLAG SCREEN                                                                    
%FORMAT(5E16.8)                                                                 
  7.20000000E-01  7.20000000E-01  7.20000000E-01  7.20000000E-01  7.20000000E-01
  7.20000000E-01  7.20000000E-01  7.20000000E-01  7.20000000E-01  7.20000000E-01
  7.20000000E-01  7.20000000E-01  8.50000000E-01  8.50000000E-01  8.00000000E-01
  8.50000000E-01  8.50000000E-01  8.50000000E-01  8.50000000E-01  8.50000000E-01
  8.50000000E-01  8.50000000E-01
%FLAG IPOL                                                                      
%FORMAT(1I8)                                                                    
       0
