mobley_5371840_GMX.gro created by acpype (v: 2023.10.27) on Wed May 20 23:44:43 2026
 22
    1  MOL   C1    1  -0.186   0.074   0.080
    1  MOL   C2    2  -0.100  -0.026   0.033
    1  MOL   C3    3  -0.315   0.042   0.122
    1  MOL   C4    4  -0.144  -0.158   0.027
    1  MOL   C5    5  -0.653  -0.282   0.193
    1  MOL   C6    6  -0.696  -0.415   0.188
    1  MOL   C7    7  -0.482  -0.482   0.098
    1  MOL   C8    8  -0.358  -0.091   0.116
    1  MOL   C9    9  -0.273  -0.191   0.069
    1  MOL  C10   10  -0.524  -0.250   0.151
    1  MOL  C11   11  -0.439  -0.349   0.104
    1  MOL  C12   12  -0.611  -0.514   0.140
    1  MOL   O1   13  -0.486  -0.118   0.159
    1  MOL   O2   14  -0.311  -0.322   0.062
    1  MOL  CL1   15  -0.665  -0.678   0.133
    1  MOL   H1   16  -0.152   0.177   0.084
    1  MOL   H2   17   0.000  -0.000   0.000
    1  MOL   H3   18  -0.381   0.120   0.159
    1  MOL   H4   19  -0.077  -0.235  -0.010
    1  MOL   H5   20  -0.720  -0.205   0.230
    1  MOL   H6   21  -0.797  -0.439   0.221
    1  MOL   H7   22  -0.415  -0.559   0.061
   15.93800    17.09200     4.80600
