mobley_1178614_GMX.gro created by acpype (v: 2023.10.27) on Wed May 20 23:50:53 2026
 13
    1  MOL   C1    1   0.189  -0.104  -0.011
    1  MOL   C2    2   0.082  -0.044   0.056
    1  MOL   C3    3   0.294  -0.160   0.061
    1  MOL   C4    4   0.080  -0.041   0.196
    1  MOL   C5    5   0.292  -0.157   0.201
    1  MOL   C6    6   0.185  -0.098   0.268
    1  MOL   O1    7   0.396  -0.213   0.269
    1  MOL  CL1    8   0.180  -0.092   0.440
    1  MOL   H1    9   0.190  -0.106  -0.120
    1  MOL   H2   10   0.000   0.000   0.000
    1  MOL   H3   11   0.376  -0.207   0.008
    1  MOL   H4   12  -0.004   0.006   0.247
    1  MOL   H5   13   0.387  -0.191   0.363
    7.98800     4.38800    11.19800
