2_chlorophenol
    13
   1.8850000  -1.0380000  -0.1090000   0.8180000  -0.4410000   0.5630000
   2.9350000  -1.6040000   0.6140000   0.8010000  -0.4100000   1.9570000
   2.9180000  -1.5730000   2.0080000   1.8510000  -0.9770000   2.6800000
   3.9570000  -2.1350000   2.6890000   1.8050000  -0.9220000   4.4040000
   1.8990000  -1.0590000  -1.1950000   0.0010000   0.0020000   0.0000000
   3.7630000  -2.0670000   0.0830000  -0.0370000   0.0590000   2.4660000
   3.8730000  -1.9060000   3.6320000
