mobley_3318135_GMX.gro created by acpype (v: 2023.10.27) on Thu May 21 00:01:40 2026
   28
    1MOL     C1    1   2.621   2.581   2.611
    1MOL     C2    2   2.481   2.769   3.059
    1MOL     C3    3   2.749   2.365   2.170
    1MOL     C4    4   2.537   2.684   2.685
    1MOL     C5    5   2.605   2.580   2.460
    1MOL     C6    6   2.466   2.778   2.908
    1MOL     C7    7   2.668   2.474   2.238
    1MOL     C8    8   2.554   2.676   2.837
    1MOL     C9    9   2.686   2.471   2.390
    1MOL     O1   10   2.694   2.501   2.670
    1MOL     H1   11   2.417   2.843   3.108
    1MOL     H2   12   2.584   2.787   3.090
    1MOL     H3   13   2.452   2.669   3.095
    1MOL     H4   14   2.735   2.368   2.062
    1MOL     H5   15   2.856   2.377   2.191
    1MOL     H6   16   2.719   2.266   2.205
    1MOL     H7   17   2.565   2.783   2.649
    1MOL     H8   18   2.432   2.666   2.659
    1MOL     H9   19   2.634   2.679   2.421
    1MOL    H10   20   2.499   2.565   2.439
    1MOL    H11   21   2.492   2.880   2.876
    1MOL    H12   22   2.361   2.761   2.881
    1MOL    H13   23   2.562   2.461   2.212
    1MOL    H14   24   2.699   2.571   2.197
    1MOL    H15   25   2.660   2.694   2.862
    1MOL    H16   26   2.530   2.575   2.872
    1MOL    H17   27   2.652   2.374   2.427
    1MOL    H18   28   2.792   2.480   2.415
   5.19200   5.19200   5.19200
