mobley_7142697_GMX.gro created by acpype (v: 2023.10.27) on Wed May 20 23:55:12 2026
   19
    1MOL     C1    1   2.097   2.364   2.347
    1MOL     C2    2   2.220   2.393   2.431
    1MOL     C3    3   2.349   2.372   2.351
    1MOL     C4    4   2.473   2.398   2.436
    1MOL     C5    5   2.601   2.381   2.354
    1MOL     N1    6   2.718   2.404   2.438
    1MOL     H1    7   2.006   2.380   2.407
    1MOL     H2    8   2.092   2.431   2.261
    1MOL     H3    9   2.097   2.261   2.312
    1MOL     H4   10   2.221   2.327   2.519
    1MOL     H5   11   2.216   2.496   2.468
    1MOL     H6   12   2.349   2.440   2.264
    1MOL     H7   13   2.351   2.270   2.311
    1MOL     H8   14   2.474   2.329   2.521
    1MOL     H9   15   2.469   2.500   2.477
    1MOL    H10   16   2.602   2.451   2.270
    1MOL    H11   17   2.606   2.280   2.313
    1MOL    H12   18   2.689   2.449   2.524
    1MOL    H13   19   2.780   2.469   2.391
   4.77926   4.77926   4.77926
