mobley_1449384_GMX.gro created by acpype (v: 2023.10.27) on Wed May 20 23:43:45 2026
11154
    1MOL     C1    1   2.346   2.533   2.246
    1MOL     C2    2   2.446   2.313   2.251
    1MOL     C3    3   2.351   2.538   2.385
    1MOL     C4    4   2.451   2.319   2.391
    1MOL     C5    5   2.392   2.420   2.177
    1MOL     C6    6   2.404   2.432   2.460
    1MOL     C7    7   2.389   2.415   2.028
    1MOL     C8    8   2.552   2.437   2.663
    1MOL     C9    9   2.324   2.330   2.676
    1MOL    C10   10   2.408   2.440   2.611
    1MOL     H1   11   2.305   2.617   2.191
    1MOL     H2   12   2.484   2.225   2.200
    1MOL     H3   13   2.314   2.627   2.435
    1MOL     H4   14   2.493   2.235   2.445
    1MOL     H5   15   2.378   2.312   1.992
    1MOL     H6   16   2.305   2.472   1.988
    1MOL     H7   17   2.482   2.456   1.987
    1MOL     H8   18   2.601   2.341   2.642
    1MOL     H9   19   2.554   2.451   2.772
    1MOL    H10   20   2.612   2.516   2.617
    1MOL    H11   21   2.221   2.334   2.640
    1MOL    H12   22   2.322   2.343   2.785
    1MOL    H13   23   2.364   2.231   2.656
    1MOL    H14   24   2.365   2.537   2.642
    2SOL     OW   25   0.230   0.628   0.113
    2SOL    HW1   26   0.137   0.626   0.150
    2SOL    HW2   27   0.231   0.589   0.021
    3SOL     OW   28   0.225   0.275   0.996
    3SOL    HW1   29   0.260   0.258   1.088
    3SOL    HW2   30   0.137   0.230   0.984
    4SOL     OW   31   0.019   0.368   0.647
    4SOL    HW1   32  -0.063   0.411   0.686
    4SOL    HW2   33  -0.009   0.295   0.584
    5SOL     OW   34   0.569   1.275   1.165
    5SOL    HW1   35   0.476   1.268   1.128
    5SOL    HW2   36   0.580   1.364   1.209
    6SOL     OW   37   1.555   1.511   0.703
    6SOL    HW1   38   1.498   1.495   0.784
    6SOL    HW2   39   1.496   1.521   0.623
    7SOL     OW   40   1.135   0.703   0.717
    7SOL    HW1   41   1.192   0.781   0.692
    7SOL    HW2   42   1.075   0.729   0.793
    8SOL     OW   43   1.755   0.607   0.231
    8SOL    HW1   44   1.743   0.594   0.132
    8SOL    HW2   45   1.725   0.526   0.280
    9SOL     OW   46   0.768   1.144   1.023
    9SOL    HW1   47   0.690   1.161   1.083
    9SOL    HW2   48   0.802   1.231   0.987
   10SOL     OW   49   0.850   0.798   1.823
   10SOL    HW1   50   0.846   0.874   1.888
   10SOL    HW2   51   0.872   0.834   1.732
   11SOL     OW   52   0.685   1.012   0.665
   11SOL    HW1   53   0.754   0.996   0.735
   11SOL    HW2   54   0.612   1.069   0.703
   12SOL     OW   55   0.686   1.161   1.803
   12SOL    HW1   56   0.746   1.240   1.817
   12SOL    HW2   57   0.600   1.192   1.762
   13SOL     OW   58   0.335   1.435   1.061
   13SOL    HW1   59   0.257   1.404   1.008
   13SOL    HW2   60   0.393   1.493   1.004
   14SOL     OW   61   1.460   1.505   1.339
   14SOL    HW1   62   1.484   1.599   1.365
   14SOL    HW2   63   1.444   1.451   1.421
   15SOL     OW   64   0.438   0.392   1.499
   15SOL    HW1   65   0.520   0.336   1.508
   15SOL    HW2   66   0.357   0.334   1.503
   16SOL     OW   67   1.603   0.447   0.737
   16SOL    HW1   68   1.529   0.493   0.687
   16SOL    HW2   69   1.654   0.515   0.790
   17SOL     OW   70   0.231   1.713   0.483
   17SOL    HW1   71   0.265   1.790   0.537
   17SOL    HW2   72   0.275   1.713   0.393
   18SOL     OW   73   1.127   1.341   1.690
   18SOL    HW1   74   1.174   1.341   1.778
   18SOL    HW2   75   1.079   1.254   1.679
   19SOL     OW   76   0.230   1.434   0.538
   19SOL    HW1   77   0.204   1.530   0.538
   19SOL    HW2   78   0.159   1.380   0.583
   20SOL     OW   79   0.240   1.091   0.886
   20SOL    HW1   80   0.254   1.007   0.938
   20SOL    HW2   81   0.185   1.155   0.941
   21SOL     OW   82   0.620   1.786   1.439
   21SOL    HW1   83   0.528   1.769   1.474
   21SOL    HW2   84   0.648   1.878   1.465
   22SOL     OW   85   0.606   0.964   0.123
   22SOL    HW1   86   0.613   1.048   0.069
   22SOL    HW2   87   0.652   0.977   0.211
   23SOL     OW   88   1.594   0.114   1.480
   23SOL    HW1   89   1.576   0.181   1.408
   23SOL    HW2   90   1.591   0.160   1.569
   24SOL     OW   91   0.122   0.643   0.563
   24SOL    HW1   92   0.077   0.555   0.580
   24SOL    HW2   93   0.121   0.697   0.647
   25SOL     OW   94   1.842   1.767   0.359
   25SOL    HW1   95   1.896   1.738   0.439
   25SOL    HW2   96   1.872   1.857   0.330
   26SOL     OW   97   0.027   1.596   0.117
   26SOL    HW1   98   0.008   1.500   0.138
   26SOL    HW2   99  -0.006   1.654   0.192
   27SOL     OW  100   1.689   0.922   0.612
   27SOL    HW1  101   1.784   0.893   0.620
   27SOL    HW2  102   1.681   0.987   0.537
   28SOL     OW  103   1.641   1.108   0.432
   28SOL    HW1  104   1.727   1.110   0.380
   28SOL    HW2  105   1.655   1.155   0.520
   29SOL     OW  106   0.113   0.737   1.597
   29SOL    HW1  107   0.201   0.724   1.642
   29SOL    HW2  108   0.100   0.834   1.575
   30SOL     OW  109   0.613   1.365   0.726
   30SOL    HW1  110   0.564   1.278   0.735
   30SOL    HW2  111   0.590   1.408   0.639
   31SOL     OW  112   1.293   1.228   1.423
   31SOL    HW1  113   1.330   1.155   1.365
   31SOL    HW2  114   1.345   1.233   1.508
   32SOL     OW  115   0.809   0.004   0.502
   32SOL    HW1  116   0.849   0.095   0.493
   32SOL    HW2  117   0.709   0.012   0.508
   33SOL     OW  118   0.197   0.976   1.264
   33SOL    HW1  119   0.286   0.931   1.250
   33SOL    HW2  120   0.124   0.911   1.245
   34SOL     OW  121   1.525   0.999   0.190
   34SOL    HW1  122   1.462   0.923   0.203
   34SOL    HW2  123   1.573   1.017   0.276
   35SOL     OW  124   1.187   1.792   1.616
   35SOL    HW1  125   1.211   1.852   1.540
   35SOL    HW2  126   1.194   1.697   1.586
   36SOL     OW  127   0.317   0.251   1.801
   36SOL    HW1  128   0.388   0.322   1.807
   36SOL    HW2  129   0.229   0.290   1.829
   37SOL     OW  130   1.466   1.417   0.953
   37SOL    HW1  131   1.407   1.423   1.033
   37SOL    HW2  132   1.451   1.329   0.907
   38SOL     OW  133   1.667   1.714   0.572
   38SOL    HW1  134   1.626   1.691   0.484
   38SOL    HW2  135   1.649   1.640   0.637
   39SOL     OW  136   0.598   0.729   0.270
   39SOL    HW1  137   0.622   0.798   0.202
   39SOL    HW2  138   0.520   0.762   0.324
   40SOL     OW  139   1.281   0.345   0.944
   40SOL    HW1  140   1.195   0.295   0.931
   40SOL    HW2  141   1.343   0.291   1.000
   41SOL     OW  142   1.576   1.662   0.307
   41SOL    HW1  143   1.665   1.708   0.310
   41SOL    HW2  144   1.555   1.638   0.212
   42SOL     OW  145   0.807   0.605   1.465
   42SOL    HW1  146   0.760   0.602   1.554
   42SOL    HW2  147   0.756   0.550   1.399
   43SOL     OW  148   1.394   0.469   1.674
   43SOL    HW1  149   1.374   0.512   1.762
   43SOL    HW2  150   1.472   0.407   1.683
   44SOL     OW  151   0.973   0.890   1.572
   44SOL    HW1  152   1.019   0.806   1.543
   44SOL    HW2  153   0.917   0.924   1.497
   45SOL     OW  154   0.991   0.410   1.242
   45SOL    HW1  155   0.914   0.444   1.296
   45SOL    HW2  156   0.957   0.359   1.163
   46SOL     OW  157   1.041   0.701   0.429
   46SOL    HW1  158   1.067   0.697   0.525
   46SOL    HW2  159   0.956   0.650   0.415
   47SOL     OW  160   0.076   0.811   0.789
   47SOL    HW1  161   0.175   0.799   0.798
   47SOL    HW2  162   0.052   0.906   0.810
   48SOL     OW  163   0.130   1.821   1.571
   48SOL    HW1  164   0.120   1.806   1.670
   48SOL    HW2  165   0.044   1.857   1.535
   49SOL     OW  166   0.865   0.348   0.195
   49SOL    HW1  167   0.924   0.411   0.146
   49SOL    HW2  168   0.884   0.254   0.166
   50SOL     OW  169   1.719   0.585   1.831
   50SOL    HW1  170   1.693   0.674   1.795
   50SOL    HW2  171   1.717   0.517   1.758
   51SOL     OW  172   1.362   1.144   0.545
   51SOL    HW1  173   1.445   1.115   0.497
   51SOL    HW2  174   1.313   1.211   0.489
   52SOL     OW  175   0.550   0.196   0.885
   52SOL    HW1  176   0.545   0.191   0.985
   52SOL    HW2  177   0.552   0.292   0.856
   53SOL     OW  178   1.008   1.456   0.477
   53SOL    HW1  179   0.962   1.528   0.425
   53SOL    HW2  180   1.004   1.476   0.575
   54SOL     OW  181   0.351   1.801   0.853
   54SOL    HW1  182   0.401   1.715   0.859
   54SOL    HW2  183   0.416   1.878   0.850
   55SOL     OW  184   1.795   1.066   0.873
   55SOL    HW1  185   1.733   1.051   0.797
   55SOL    HW2  186   1.743   1.077   0.958
   56SOL     OW  187   1.227   1.550   1.506
   56SOL    HW1  188   1.233   1.473   1.570
   56SOL    HW2  189   1.175   1.524   1.426
   57SOL     OW  190   0.321   0.943   0.242
   57SOL    HW1  191   0.403   0.982   0.200
   57SOL    HW2  192   0.294   0.861   0.193
   58SOL     OW  193   1.458   0.735   0.728
   58SOL    HW1  194   1.453   0.670   0.803
   58SOL    HW2  195   1.538   0.794   0.741
   59SOL     OW  196   0.461   1.266   1.727
   59SOL    HW1  197   0.411   1.267   1.641
   59SOL    HW2  198   0.398   1.248   1.803
   60SOL     OW  199   1.111   1.776   0.237
   60SOL    HW1  200   1.051   1.714   0.287
   60SOL    HW2  201   1.142   1.732   0.152
   61SOL     OW  202   0.202   0.285   1.498
   61SOL    HW1  203   0.122   0.345   1.485
   61SOL    HW2  204   0.192   0.236   1.584
   62SOL     OW  205   1.632   1.377   0.081
   62SOL    HW1  206   1.600   1.471   0.071
   62SOL    HW2  207   1.556   1.314   0.069
   63SOL     OW  208   0.464   1.743   0.323
   63SOL    HW1  209   0.497   1.782   0.409
   63SOL    HW2  210   0.540   1.736   0.258
   64SOL     OW  211   1.400   0.107   0.426
   64SOL    HW1  212   1.376   0.070   0.336
   64SOL    HW2  213   1.499   0.123   0.430
   65SOL     OW  214   0.249   1.785   1.241
   65SOL    HW1  215   0.306   1.720   1.291
   65SOL    HW2  216   0.233   1.752   1.148
   66SOL     OW  217   0.940   1.698   0.904
   66SOL    HW1  218   1.020   1.641   0.925
   66SOL    HW2  219   0.891   1.658   0.827
   67SOL     OW  220   0.382   0.700   0.480
   67SOL    HW1  221   0.427   0.610   0.477
   67SOL    HW2  222   0.288   0.689   0.513
   68SOL     OW  223   1.547   0.222   1.729
   68SOL    HW1  224   1.542   0.259   1.821
   68SOL    HW2  225   1.475   0.153   1.717
   69SOL     OW  226   0.614   0.122   0.117
   69SOL    HW1  227   0.712   0.100   0.124
   69SOL    HW2  228   0.583   0.105   0.024
   70SOL     OW  229   0.781   0.264   1.749
   70SOL    HW1  230   0.848   0.203   1.792
   70SOL    HW2  231   0.708   0.283   1.814
   71SOL     OW  232   0.888   1.514   1.195
   71SOL    HW1  233   0.865   1.489   1.101
   71SOL    HW2  234   0.949   1.445   1.234
   72SOL     OW  235   1.351   0.590   1.433
   72SOL    HW1  236   1.379   0.547   1.518
   72SOL    HW2  237   1.376   0.686   1.434
   73SOL     OW  238   0.803   1.402   0.924
   73SOL    HW1  239   0.893   1.416   0.882
   73SOL    HW2  240   0.732   1.404   0.853
   74SOL     OW  241   0.922   0.503   0.899
   74SOL    HW1  242   0.897   0.494   0.803
   74SOL    HW2  243   0.970   0.421   0.930
   75SOL     OW  244   0.539   0.064   0.512
   75SOL    HW1  245   0.458   0.065   0.570
   75SOL    HW2  246   0.542   0.147   0.457
   76SOL     OW  247   1.434   1.188   0.041
   76SOL    HW1  248   1.466   1.112   0.098
   76SOL    HW2  249   1.342   1.215   0.071
   77SOL     OW  250   0.297   0.035   0.171
   77SOL    HW1  251   0.346   0.119   0.150
   77SOL    HW2  252   0.359  -0.030   0.216
   78SOL     OW  253   0.935   0.236   0.480
   78SOL    HW1  254   0.887   0.277   0.402
   78SOL    HW2  255   1.034   0.234   0.461
   79SOL     OW  256   1.076   0.683   1.464
   79SOL    HW1  257   0.996   0.622   1.467
   79SOL    HW2  258   1.157   0.630   1.440
   80SOL     OW  259   1.227   1.570   0.793
   80SOL    HW1  260   1.248   1.644   0.728
   80SOL    HW2  261   1.295   1.570   0.866
   81SOL     OW  262   0.459   1.152   0.741
   81SOL    HW1  263   0.388   1.125   0.806
   81SOL    HW2  264   0.433   1.124   0.648
   82SOL     OW  265   1.271   1.797   0.591
   82SOL    HW1  266   1.315   1.861   0.527
   82SOL    HW2  267   1.221   1.849   0.661
   83SOL     OW  268   1.032   0.549   0.016
   83SOL    HW1  269   0.991   0.631  -0.023
   83SOL    HW2  270   1.096   0.575   0.089
   84SOL     OW  271   0.078   0.556   1.386
   84SOL    HW1  272   0.170   0.555   1.345
   84SOL    HW2  273   0.072   0.630   1.453
   85SOL     OW  274   0.561   0.222   1.147
   85SOL    HW1  275   0.599   0.138   1.184
   85SOL    HW2  276   0.473   0.241   1.191
   86SOL     OW  277   0.866   0.454   0.642
   86SOL    HW1  278   0.834   0.526   0.580
   86SOL    HW2  279   0.890   0.373   0.589
   87SOL     OW  280   1.017   0.039   0.753
   87SOL    HW1  281   0.945   0.044   0.684
   87SOL    HW2  282   0.993  -0.030   0.822
   88SOL     OW  283   1.429   1.173   0.867
   88SOL    HW1  284   1.374   1.089   0.860
   88SOL    HW2  285   1.455   1.202   0.775
   89SOL     OW  286   1.466   0.590   0.992
   89SOL    HW1  287   1.436   0.495   0.999
   89SOL    HW2  288   1.539   0.606   1.058
   90SOL     OW  289   1.857   0.833   0.377
   90SOL    HW1  290   1.899   0.769   0.441
   90SOL    HW2  291   1.819   0.782   0.299
   91SOL     OW  292   0.488   1.385   0.174
   91SOL    HW1  293   0.401   1.370   0.221
   91SOL    HW2  294   0.471   1.411   0.079
   92SOL     OW  295   1.664   1.280   0.657
   92SOL    HW1  296   1.763   1.288   0.671
   92SOL    HW2  297   1.619   1.364   0.688
   93SOL     OW  298   1.390   0.575   0.078
   93SOL    HW1  299   1.336   0.554   0.159
   93SOL    HW2  300   1.481   0.534   0.087
   94SOL     OW  301   0.527   0.256   0.328
   94SOL    HW1  302   0.554   0.197   0.253
   94SOL    HW2  303   0.527   0.351   0.297
   95SOL     OW  304   1.754   1.223   1.588
   95SOL    HW1  305   1.845   1.184   1.575
   95SOL    HW2  306   1.762   1.319   1.612
   96SOL     OW  307   1.064   1.347   1.340
   96SOL    HW1  308   0.984   1.324   1.395
   96SOL    HW2  309   1.147   1.321   1.389
   97SOL     OW  310   1.592   1.629   1.625
   97SOL    HW1  311   1.619   1.663   1.535
   97SOL    HW2  312   1.671   1.591   1.671
   98SOL     OW  313   1.111   1.195   1.100
   98SOL    HW1  314   1.071   1.239   1.181
   98SOL    HW2  315   1.070   1.232   1.017
   99SOL     OW  316   1.638   1.099   1.079
   99SOL    HW1  317   1.643   1.180   1.138
   99SOL    HW2  318   1.552   1.101   1.028
  100SOL     OW  319   0.915   0.089   1.402
  100SOL    HW1  320   0.940   0.069   1.307
  100SOL    HW2  321   0.987   0.145   1.444
  101SOL     OW  322   0.980   1.116   1.719
  101SOL    HW1  323   0.881   1.122   1.729
  101SOL    HW2  324   1.003   1.036   1.663
  102SOL     OW  325   0.705   1.050   0.368
  102SOL    HW1  326   0.691   1.057   0.467
  102SOL    HW2  327   0.789   0.999   0.350
  103SOL     OW  328   0.410   0.813   1.251
  103SOL    HW1  329   0.496   0.825   1.301
  103SOL    HW2  330   0.368   0.726   1.278
  104SOL     OW  331   1.274   0.386   1.262
  104SOL    HW1  332   1.295   0.460   1.326
  104SOL    HW2  333   1.185   0.403   1.219
  105SOL     OW  334   0.064   1.564   1.331
  105SOL    HW1  335   0.018   1.646   1.297
  105SOL    HW2  336   0.162   1.583   1.340
  106SOL     OW  337   0.367   1.100   0.501
  106SOL    HW1  338   0.360   1.183   0.445
  106SOL    HW2  339   0.371   1.020   0.441
  107SOL     OW  340   0.566   0.537   0.865
  107SOL    HW1  341   0.578   0.603   0.791
  107SOL    HW2  342   0.612   0.571   0.948
  108SOL     OW  343   1.252   1.348   0.388
  108SOL    HW1  344   1.302   1.425   0.428
  108SOL    HW2  345   1.157   1.350   0.420
  109SOL     OW  346   1.272   1.445   1.142
  109SOL    HW1  347   1.319   1.458   1.229
  109SOL    HW2  348   1.206   1.371   1.151
  110SOL     OW  349   1.582   0.639   0.472
  110SOL    HW1  350   1.551   0.700   0.545
  110SOL    HW2  351   1.632   0.691   0.403
  111SOL     OW  352   0.354   1.510   1.329
  111SOL    HW1  353   0.333   1.466   1.242
  111SOL    HW2  354   0.451   1.536   1.332
  112SOL     OW  355   0.402   0.751   1.598
  112SOL    HW1  356   0.470   0.806   1.551
  112SOL    HW2  357   0.442   0.663   1.625
  113SOL     OW  358   1.587   0.779   1.670
  113SOL    HW1  359   1.495   0.817   1.665
  113SOL    HW2  360   1.647   0.826   1.605
  114SOL     OW  361   1.013   0.105   1.770
  114SOL    HW1  362   1.019   0.190   1.718
  114SOL    HW2  363   1.045   0.029   1.713
  115SOL     OW  364   0.504   0.050   1.740
  115SOL    HW1  365   0.462  -0.007   1.670
  115SOL    HW2  366   0.438   0.119   1.772
  116SOL     OW  367   0.573   0.870   1.029
  116SOL    HW1  368   0.617   0.959   1.020
  116SOL    HW2  369   0.510   0.870   1.106
  117SOL     OW  370   1.360   0.862   1.045
  117SOL    HW1  371   1.285   0.862   0.979
  117SOL    HW2  372   1.397   0.770   1.054
  118SOL     OW  373   1.209   0.525   0.275
  118SOL    HW1  374   1.222   0.441   0.329
  118SOL    HW2  375   1.180   0.599   0.335
  119SOL     OW  376   0.307   0.213   1.231
  119SOL    HW1  377   0.284   0.250   1.321
  119SOL    HW2  378   0.277   0.118   1.225
  120SOL     OW  379   0.037   1.310   1.282
  120SOL    HW1  380   0.090   1.261   1.350
  120SOL    HW2  381   0.059   1.408   1.287
  121SOL     OW  382   0.732   0.634   1.064
  121SOL    HW1  383   0.791   0.608   0.988
  121SOL    HW2  384   0.704   0.730   1.053
  122SOL     OW  385   1.728   0.935   1.854
  122SOL    HW1  386   1.682   0.928   1.765
  122SOL    HW2  387   1.666   0.979   1.920
  123SOL     OW  388   0.307   0.063   0.618
  123SOL    HW1  389   0.296   0.157   0.651
  123SOL    HW2  390   0.302   0.000   0.695
  124SOL     OW  391   1.622   0.367   0.374
  124SOL    HW1  392   1.624   0.291   0.438
  124SOL    HW2  393   1.574   0.444   0.414
  125SOL     OW  394   1.023   0.766   0.966
  125SOL    HW1  395   1.038   0.787   1.062
  125SOL    HW2  396   0.993   0.671   0.957
  126SOL     OW  397   0.980   1.573   1.700
  126SOL    HW1  398   0.960   1.617   1.612
  126SOL    HW2  399   1.019   1.482   1.684
  127SOL     OW  400   1.859   1.518   1.605
  127SOL    HW1  401   1.873   1.545   1.510
  127SOL    HW2  402   1.942   1.540   1.658
  128SOL     OW  403   0.350   0.898   1.804
  128SOL    HW1  404   0.426   0.942   1.852
  128SOL    HW2  405   0.385   0.851   1.722
  129SOL     OW  406   1.540   0.274   0.125
  129SOL    HW1  407   1.479   0.199   0.148
  129SOL    HW2  408   1.562   0.326   0.208
  130SOL     OW  409   1.303   0.838   0.042
  130SOL    HW1  410   1.337   0.745   0.057
  130SOL    HW2  411   1.321   0.865  -0.053
  131SOL     OW  412   1.068   1.333   0.849
  131SOL    HW1  413   1.075   1.249   0.794
  131SOL    HW2  414   1.130   1.402   0.813
  132SOL     OW  415   0.319   0.810   0.949
  132SOL    HW1  416   0.412   0.846   0.954
  132SOL    HW2  417   0.313   0.725   1.001
  133SOL     OW  418   0.339   0.509   1.006
  133SOL    HW1  419   0.287   0.426   0.989
  133SOL    HW2  420   0.416   0.514   0.942
  134SOL     OW  421   1.138   0.380   1.678
  134SOL    HW1  422   1.093   0.443   1.742
  134SOL    HW2  423   1.231   0.411   1.661
  135SOL     OW  424   1.160   0.207   1.477
  135SOL    HW1  425   1.160   0.271   1.554
  135SOL    HW2  426   1.188   0.255   1.394
  136SOL     OW  427   0.008   1.326   0.200
  136SOL    HW1  428  -0.085   1.347   0.169
  136SOL    HW2  429   0.018   1.227   0.213
  137SOL     OW  430   0.088   1.801   0.927
  137SOL    HW1  431   0.046   1.715   0.900
  137SOL    HW2  432   0.182   1.804   0.893
  138SOL     OW  433   0.504   1.568   0.910
  138SOL    HW1  434   0.570   1.642   0.919
  138SOL    HW2  435   0.548   1.489   0.868
  139SOL     OW  436   1.002   0.796   1.238
  139SOL    HW1  437   1.043   0.764   1.324
  139SOL    HW2  438   0.906   0.769   1.235
  140SOL     OW  439   0.040   0.544   1.114
  140SOL    HW1  440   0.125   0.511   1.073
  140SOL    HW2  441   0.053   0.559   1.212
  141SOL     OW  442   0.189   0.520   1.722
  141SOL    HW1  443   0.248   0.480   1.652
  141SOL    HW2  444   0.131   0.591   1.681
  142SOL     OW  445   1.369   0.950   1.660
  142SOL    HW1  446   1.408   1.039   1.680
  142SOL    HW2  447   1.379   0.930   1.563
  143SOL     OW  448   0.815   0.572   0.325
  143SOL    HW1  449   0.822   0.483   0.279
  143SOL    HW2  450   0.721   0.606   0.317
  144SOL     OW  451   1.657   0.604   1.206
  144SOL    HW1  452   1.619   0.535   1.268
  144SOL    HW2  453   1.739   0.568   1.162
  145SOL     OW  454   0.252   1.564   1.744
  145SOL    HW1  455   0.222   1.621   1.820
  145SOL    HW2  456   0.245   1.467   1.770
  146SOL     OW  457   0.671   0.464   1.269
  146SOL    HW1  458   0.637   0.375   1.239
  146SOL    HW2  459   0.697   0.518   1.189
  147SOL     OW  460   0.930   1.678   1.465
  147SOL    HW1  461   0.906   1.660   1.370
  147SOL    HW2  462   0.960   1.772   1.475
  148SOL     OW  463   0.473   0.500   0.191
  148SOL    HW1  464   0.534   0.580   0.195
  148SOL    HW2  465   0.378   0.531   0.198
  149SOL     OW  466   0.159   1.137   1.466
  149SOL    HW1  467   0.181   1.076   1.542
  149SOL    HW2  468   0.169   1.088   1.380
  150SOL     OW  469   1.347   1.059   1.234
  150SOL    HW1  470   1.371   0.996   1.160
  150SOL    HW2  471   1.257   1.099   1.216
  151SOL     OW  472   1.302   0.855   0.309
  151SOL    HW1  473   1.216   0.824   0.351
  151SOL    HW2  474   1.298   0.841   0.210
  152SOL     OW  475   1.759   1.747   1.154
  152SOL    HW1  476   1.820   1.777   1.081
  152SOL    HW2  477   1.721   1.658   1.132
  153SOL     OW  478   1.252   1.731   1.128
  153SOL    HW1  479   1.336   1.736   1.074
  153SOL    HW2  480   1.229   1.635   1.146
  154SOL     OW  481   0.083   1.258   1.022
  154SOL    HW1  482   0.078   1.257   1.122
  154SOL    HW2  483   0.000   1.217   0.984
  155SOL     OW  484   0.688   1.662   1.716
  155SOL    HW1  485   0.632   1.743   1.725
  155SOL    HW2  486   0.740   1.666   1.630
  156SOL     OW  487   0.903   0.086   0.133
  156SOL    HW1  488   0.954   0.087   0.047
  156SOL    HW2  489   0.959   0.044   0.204
  157SOL     OW  490   1.726   0.135   0.523
  157SOL    HW1  491   1.799   0.118   0.456
  157SOL    HW2  492   1.695   0.048   0.561
  158SOL     OW  493   1.388   1.573   0.477
  158SOL    HW1  494   1.455   1.585   0.403
  158SOL    HW2  495   1.348   1.662   0.500
  159SOL     OW  496   0.130   1.794   1.851
  159SOL    HW1  497   0.089   1.720   1.904
  159SOL    HW2  498   0.194   1.845   1.909
  160SOL     OW  499   1.280   0.927   0.672
  160SOL    HW1  500   1.340   0.846   0.674
  160SOL    HW2  501   1.320   0.996   0.612
  161SOL     OW  502   0.830   1.273   1.422
  161SOL    HW1  503   0.825   1.306   1.517
  161SOL    HW2  504   0.744   1.292   1.376
  162SOL     OW  505   0.672   1.616   0.154
  162SOL    HW1  506   0.681   1.626   0.055
  162SOL    HW2  507   0.632   1.527   0.175
  163SOL     OW  508   1.650   1.720   1.394
  163SOL    HW1  509   1.703   1.730   1.310
  163SOL    HW2  510   1.623   1.810   1.428
  164SOL     OW  511   1.841   0.175   0.963
  164SOL    HW1  512   1.880   0.090   0.927
  164SOL    HW2  513   1.743   0.177   0.944
  165SOL     OW  514   0.263   0.326   0.720
  165SOL    HW1  515   0.184   0.377   0.686
  165SOL    HW2  516   0.254   0.311   0.818
  166SOL     OW  517   1.194   1.612   0.031
  166SOL    HW1  518   1.200   1.519   0.068
  166SOL    HW2  519   1.135   1.612  -0.049
  167SOL     OW  520   0.822   1.002   1.372
  167SOL    HW1  521   0.862   1.001   1.280
  167SOL    HW2  522   0.832   1.094   1.412
  168SOL     OW  523   0.916   0.910   0.291
  168SOL    HW1  524   0.979   0.948   0.223
  168SOL    HW2  525   0.956   0.827   0.330
  169SOL     OW  526   1.504   1.607   0.044
  169SOL    HW1  527   1.412   1.644   0.051
  169SOL    HW2  528   1.542   1.627  -0.046
  170SOL     OW  529   0.372   1.288   1.490
  170SOL    HW1  530   0.359   1.381   1.456
  170SOL    HW2  531   0.288   1.236   1.477
  171SOL     OW  532   1.614   1.292   1.289
  171SOL    HW1  533   1.674   1.295   1.369
  171SOL    HW2  534   1.539   1.356   1.302
  172SOL     OW  535   1.039   1.098   0.696
  172SOL    HW1  536   0.969   1.051   0.750
  172SOL    HW2  537   1.098   1.030   0.653
  173SOL     OW  538   1.014   0.236   0.971
  173SOL    HW1  539   1.006   0.200   0.878
  173SOL    HW2  540   1.012   0.160   1.036
  174SOL     OW  541   0.590   1.487   0.491
  174SOL    HW1  542   0.632   1.429   0.421
  174SOL    HW2  543   0.546   1.566   0.447
  175SOL     OW  544   1.709   0.385   1.381
  175SOL    HW1  545   1.782   0.454   1.385
  175SOL    HW2  546   1.737   0.310   1.322
  176SOL     OW  547   0.255   1.348   0.290
  176SOL    HW1  548   0.159   1.349   0.263
  176SOL    HW2  549   0.267   1.401   0.374
  177SOL     OW  550   0.105   1.013   1.726
  177SOL    HW1  551   0.028   0.980   1.780
  177SOL    HW2  552   0.190   0.983   1.768
  178SOL     OW  553   0.672   0.203   1.489
  178SOL    HW1  554   0.762   0.187   1.449
  178SOL    HW2  555   0.680   0.208   1.588
  179SOL     OW  556   0.075   0.345   0.033
  179SOL    HW1  557  -0.017   0.317   0.004
  179SOL    HW2  558   0.106   0.422  -0.023
  180SOL     OW  559   1.440   0.856   1.398
  180SOL    HW1  560   1.383   0.908   1.335
  180SOL    HW2  561   1.536   0.868   1.374
  181SOL     OW  562   0.072   0.166   0.318
  181SOL    HW1  563   0.055   0.249   0.264
  181SOL    HW2  564   0.162   0.129   0.296
  182SOL     OW  565   1.183   1.335   0.119
  182SOL    HW1  566   1.084   1.324   0.121
  182SOL    HW2  567   1.217   1.350   0.212
  183SOL     OW  568   0.613   0.842   1.431
  183SOL    HW1  569   0.669   0.923   1.414
  183SOL    HW2  570   0.672   0.762   1.434
  184SOL     OW  571   1.493   1.767   0.959
  184SOL    HW1  572   1.526   1.831   0.890
  184SOL    HW2  573   1.559   1.761   1.034
  185SOL     OW  574   0.716   0.565   1.708
  185SOL    HW1  575   0.735   0.630   1.782
  185SOL    HW2  576   0.776   0.485   1.717
  186SOL     OW  577   1.450   1.220   1.633
  186SOL    HW1  578   1.441   1.210   1.732
  186SOL    HW2  579   1.546   1.213   1.607
  187SOL     OW  580   0.390   1.741   1.560
  187SOL    HW1  581   0.299   1.782   1.558
  187SOL    HW2  582   0.383   1.647   1.592
  188SOL     OW  583   1.674   0.883   1.254
  188SOL    HW1  584   1.647   0.794   1.217
  188SOL    HW2  585   1.675   0.951   1.181
  189SOL     OW  586   1.225   0.325   0.449
  189SOL    HW1  587   1.290   0.251   0.438
  189SOL    HW2  588   1.245   0.375   0.533
  190SOL     OW  589   0.594   0.745   0.652
  190SOL    HW1  590   0.644   0.830   0.633
  190SOL    HW2  591   0.506   0.747   0.604
  191SOL     OW  592   1.777   0.342   1.642
  191SOL    HW1  593   1.760   0.373   1.548
  191SOL    HW2  594   1.693   0.305   1.680
  192SOL     OW  595   1.730   0.934   1.517
  192SOL    HW1  596   1.768   1.025   1.532
  192SOL    HW2  597   1.722   0.917   1.418
  193SOL     OW  598   0.859   1.374   0.016
  193SOL    HW1  599   0.813   1.389   0.104
  193SOL    HW2  600   0.903   1.459  -0.014
  194SOL     OW  601   0.661   1.790   0.953
  194SOL    HW1  602   0.615   1.878   0.940
  194SOL    HW2  603   0.760   1.802   0.946
  195SOL     OW  604   0.859   0.956   0.861
  195SOL    HW1  605   0.913   0.887   0.909
  195SOL    HW2  606   0.827   1.025   0.927
  196SOL     OW  607   1.083   0.984   0.087
  196SOL    HW1  608   1.060   1.037   0.005
  196SOL    HW2  609   1.164   0.928   0.068
  197SOL     OW  610   1.861   1.569   0.851
  197SOL    HW1  611   1.790   1.557   0.781
  197SOL    HW2  612   1.862   1.490   0.911
  198SOL     OW  613   0.221   1.314   1.844
  198SOL    HW1  614   0.156   1.241   1.823
  198SOL    HW2  615   0.225   1.328   1.942
  199SOL     OW  616   0.079   1.240   0.653
  199SOL    HW1  617   0.078   1.193   0.741
  199SOL    HW2  618   0.161   1.212   0.602
  200SOL     OW  619   0.672   1.391   1.624
  200SOL    HW1  620   0.594   1.341   1.662
  200SOL    HW2  621   0.669   1.486   1.655
  201SOL     OW  622   1.824   0.192   1.227
  201SOL    HW1  623   1.820   0.102   1.271
  201SOL    HW2  624   1.827   0.181   1.128
  202SOL     OW  625   0.428   0.424   0.520
  202SOL    HW1  626   0.458   0.352   0.458
  202SOL    HW2  627   0.389   0.384   0.603
  203SOL     OW  628   1.705   1.487   1.104
  203SOL    HW1  629   1.612   1.462   1.077
  203SOL    HW2  630   1.731   1.437   1.186
  204SOL     OW  631   0.317   0.547   1.280
  204SOL    HW1  632   0.355   0.488   1.352
  204SOL    HW2  633   0.357   0.521   1.192
  205SOL     OW  634   0.812   1.586   0.687
  205SOL    HW1  635   0.844   1.596   0.593
  205SOL    HW2  636   0.733   1.524   0.689
  206SOL     OW  637   1.424   0.214   1.112
  206SOL    HW1  638   1.476   0.149   1.167
  206SOL    HW2  639   1.375   0.277   1.173
  207SOL     OW  640   1.001   0.034   1.154
  207SOL    HW1  641   0.938  -0.038   1.123
  207SOL    HW2  642   1.094  -0.002   1.154
  208SOL     OW  643   0.770   1.330   0.301
  208SOL    HW1  644   0.724   1.243   0.318
  208SOL    HW2  645   0.861   1.327   0.342
  209SOL     OW  646   0.618   1.567   1.284
  209SOL    HW1  647   0.613   1.649   1.341
  209SOL    HW2  648   0.707   1.564   1.239
  210SOL     OW  649   1.352   0.052   0.168
  210SOL    HW1  650   1.387   0.011   0.084
  210SOL    HW2  651   1.262   0.014   0.188
  211SOL     OW  652   1.300   0.453   0.691
  211SOL    HW1  653   1.241   0.533   0.695
  211SOL    HW2  654   1.315   0.418   0.784
  212SOL     OW  655   1.593   0.221   0.882
  212SOL    HW1  656   1.509   0.220   0.936
  212SOL    HW2  657   1.595   0.304   0.826
  213SOL     OW  658   0.039   1.077   0.300
  213SOL    HW1  659   0.138   1.066   0.291
  213SOL    HW2  660  -0.001   0.991   0.332
  214SOL     OW  661   0.875   1.646   0.337
  214SOL    HW1  662   0.798   1.611   0.283
  214SOL    HW2  663   0.843   1.717   0.399
  215SOL     OW  664   0.230   0.628   1.975
  215SOL    HW1  665   0.137   0.626   2.012
  215SOL    HW2  666   0.231   0.589   1.883
  216SOL     OW  667   0.225   0.275   2.858
  216SOL    HW1  668   0.260   0.258   2.950
  216SOL    HW2  669   0.137   0.230   2.846
  217SOL     OW  670   0.019   0.368   2.509
  217SOL    HW1  671  -0.063   0.411   2.548
  217SOL    HW2  672  -0.009   0.295   2.446
  218SOL     OW  673   0.569   1.275   3.027
  218SOL    HW1  674   0.476   1.268   2.990
  218SOL    HW2  675   0.580   1.364   3.071
  219SOL     OW  676   1.555   1.511   2.565
  219SOL    HW1  677   1.498   1.495   2.646
  219SOL    HW2  678   1.496   1.521   2.485
  220SOL     OW  679   1.135   0.703   2.579
  220SOL    HW1  680   1.192   0.781   2.554
  220SOL    HW2  681   1.075   0.729   2.655
  221SOL     OW  682   1.755   0.607   2.093
  221SOL    HW1  683   1.743   0.594   1.994
  221SOL    HW2  684   1.725   0.526   2.142
  222SOL     OW  685   0.768   1.144   2.885
  222SOL    HW1  686   0.690   1.161   2.945
  222SOL    HW2  687   0.802   1.231   2.849
  223SOL     OW  688   0.850   0.798   3.685
  223SOL    HW1  689   0.846   0.874   3.750
  223SOL    HW2  690   0.872   0.834   3.594
  224SOL     OW  691   0.685   1.012   2.527
  224SOL    HW1  692   0.754   0.996   2.597
  224SOL    HW2  693   0.612   1.069   2.565
  225SOL     OW  694   0.686   1.161   3.665
  225SOL    HW1  695   0.746   1.240   3.679
  225SOL    HW2  696   0.600   1.192   3.624
  226SOL     OW  697   0.335   1.435   2.923
  226SOL    HW1  698   0.257   1.404   2.870
  226SOL    HW2  699   0.393   1.493   2.866
  227SOL     OW  700   1.460   1.505   3.201
  227SOL    HW1  701   1.484   1.599   3.227
  227SOL    HW2  702   1.444   1.451   3.283
  228SOL     OW  703   0.438   0.392   3.361
  228SOL    HW1  704   0.520   0.336   3.370
  228SOL    HW2  705   0.357   0.334   3.365
  229SOL     OW  706   1.603   0.447   2.599
  229SOL    HW1  707   1.529   0.493   2.549
  229SOL    HW2  708   1.654   0.515   2.652
  230SOL     OW  709   0.231   1.713   2.345
  230SOL    HW1  710   0.265   1.790   2.399
  230SOL    HW2  711   0.275   1.713   2.255
  231SOL     OW  712   1.127   1.341   3.552
  231SOL    HW1  713   1.174   1.341   3.640
  231SOL    HW2  714   1.079   1.254   3.541
  232SOL     OW  715   0.230   1.434   2.400
  232SOL    HW1  716   0.204   1.530   2.400
  232SOL    HW2  717   0.159   1.380   2.445
  233SOL     OW  718   0.240   1.091   2.748
  233SOL    HW1  719   0.254   1.007   2.800
  233SOL    HW2  720   0.185   1.155   2.803
  234SOL     OW  721   0.620   1.786   3.301
  234SOL    HW1  722   0.528   1.769   3.336
  234SOL    HW2  723   0.648   1.878   3.327
  235SOL     OW  724   0.606   0.964   1.985
  235SOL    HW1  725   0.613   1.048   1.931
  235SOL    HW2  726   0.652   0.977   2.073
  236SOL     OW  727   1.594   0.114   3.342
  236SOL    HW1  728   1.576   0.181   3.270
  236SOL    HW2  729   1.591   0.160   3.431
  237SOL     OW  730   0.122   0.643   2.425
  237SOL    HW1  731   0.077   0.555   2.442
  237SOL    HW2  732   0.121   0.697   2.509
  238SOL     OW  733   1.842   1.767   2.221
  238SOL    HW1  734   1.896   1.738   2.301
  238SOL    HW2  735   1.872   1.857   2.192
  239SOL     OW  736   0.027   1.596   1.979
  239SOL    HW1  737   0.008   1.500   2.000
  239SOL    HW2  738  -0.006   1.654   2.054
  240SOL     OW  739   1.689   0.922   2.474
  240SOL    HW1  740   1.784   0.893   2.482
  240SOL    HW2  741   1.681   0.987   2.399
  241SOL     OW  742   1.641   1.108   2.294
  241SOL    HW1  743   1.727   1.110   2.242
  241SOL    HW2  744   1.655   1.155   2.382
  242SOL     OW  745   0.113   0.737   3.459
  242SOL    HW1  746   0.201   0.724   3.504
  242SOL    HW2  747   0.100   0.834   3.437
  243SOL     OW  748   0.613   1.365   2.588
  243SOL    HW1  749   0.564   1.278   2.597
  243SOL    HW2  750   0.590   1.408   2.501
  244SOL     OW  751   1.293   1.228   3.285
  244SOL    HW1  752   1.330   1.155   3.227
  244SOL    HW2  753   1.345   1.233   3.370
  245SOL     OW  754   0.809   0.004   2.364
  245SOL    HW1  755   0.849   0.095   2.355
  245SOL    HW2  756   0.709   0.012   2.370
  246SOL     OW  757   0.197   0.976   3.126
  246SOL    HW1  758   0.286   0.931   3.112
  246SOL    HW2  759   0.124   0.911   3.107
  247SOL     OW  760   1.525   0.999   2.052
  247SOL    HW1  761   1.462   0.923   2.065
  247SOL    HW2  762   1.573   1.017   2.138
  248SOL     OW  763   1.187   1.792   3.478
  248SOL    HW1  764   1.211   1.852   3.402
  248SOL    HW2  765   1.194   1.697   3.448
  249SOL     OW  766   0.317   0.251   3.663
  249SOL    HW1  767   0.388   0.322   3.669
  249SOL    HW2  768   0.229   0.290   3.691
  250SOL     OW  769   1.466   1.417   2.815
  250SOL    HW1  770   1.407   1.423   2.895
  250SOL    HW2  771   1.451   1.329   2.769
  251SOL     OW  772   1.667   1.714   2.434
  251SOL    HW1  773   1.626   1.691   2.346
  251SOL    HW2  774   1.649   1.640   2.499
  252SOL     OW  775   0.598   0.729   2.132
  252SOL    HW1  776   0.622   0.798   2.064
  252SOL    HW2  777   0.520   0.762   2.186
  253SOL     OW  778   1.281   0.345   2.806
  253SOL    HW1  779   1.195   0.295   2.793
  253SOL    HW2  780   1.343   0.291   2.862
  254SOL     OW  781   1.576   1.662   2.169
  254SOL    HW1  782   1.665   1.708   2.172
  254SOL    HW2  783   1.555   1.638   2.074
  255SOL     OW  784   0.807   0.605   3.327
  255SOL    HW1  785   0.760   0.602   3.416
  255SOL    HW2  786   0.756   0.550   3.261
  256SOL     OW  787   1.394   0.469   3.536
  256SOL    HW1  788   1.374   0.512   3.624
  256SOL    HW2  789   1.472   0.407   3.545
  257SOL     OW  790   0.973   0.890   3.434
  257SOL    HW1  791   1.019   0.806   3.405
  257SOL    HW2  792   0.917   0.924   3.359
  258SOL     OW  793   0.991   0.410   3.104
  258SOL    HW1  794   0.914   0.444   3.158
  258SOL    HW2  795   0.957   0.359   3.025
  259SOL     OW  796   1.041   0.701   2.291
  259SOL    HW1  797   1.067   0.697   2.387
  259SOL    HW2  798   0.956   0.650   2.277
  260SOL     OW  799   0.076   0.811   2.651
  260SOL    HW1  800   0.175   0.799   2.660
  260SOL    HW2  801   0.052   0.906   2.672
  261SOL     OW  802   0.130   1.821   3.433
  261SOL    HW1  803   0.120   1.806   3.532
  261SOL    HW2  804   0.044   1.857   3.397
  262SOL     OW  805   0.865   0.348   2.057
  262SOL    HW1  806   0.924   0.411   2.008
  262SOL    HW2  807   0.884   0.254   2.028
  263SOL     OW  808   1.719   0.585   3.693
  263SOL    HW1  809   1.693   0.674   3.657
  263SOL    HW2  810   1.717   0.517   3.620
  264SOL     OW  811   1.362   1.144   2.407
  264SOL    HW1  812   1.445   1.115   2.359
  264SOL    HW2  813   1.313   1.211   2.351
  265SOL     OW  814   0.550   0.196   2.747
  265SOL    HW1  815   0.545   0.191   2.847
  265SOL    HW2  816   0.552   0.292   2.718
  266SOL     OW  817   1.008   1.456   2.339
  266SOL    HW1  818   0.962   1.528   2.287
  266SOL    HW2  819   1.004   1.476   2.437
  267SOL     OW  820   0.351   1.801   2.715
  267SOL    HW1  821   0.401   1.715   2.721
  267SOL    HW2  822   0.416   1.878   2.712
  268SOL     OW  823   1.795   1.066   2.735
  268SOL    HW1  824   1.733   1.051   2.659
  268SOL    HW2  825   1.743   1.077   2.820
  269SOL     OW  826   1.227   1.550   3.368
  269SOL    HW1  827   1.233   1.473   3.432
  269SOL    HW2  828   1.175   1.524   3.288
  270SOL     OW  829   0.321   0.943   2.104
  270SOL    HW1  830   0.403   0.982   2.062
  270SOL    HW2  831   0.294   0.861   2.055
  271SOL     OW  832   1.458   0.735   2.590
  271SOL    HW1  833   1.453   0.670   2.665
  271SOL    HW2  834   1.538   0.794   2.603
  272SOL     OW  835   0.461   1.266   3.589
  272SOL    HW1  836   0.411   1.267   3.503
  272SOL    HW2  837   0.398   1.248   3.665
  273SOL     OW  838   1.111   1.776   2.099
  273SOL    HW1  839   1.051   1.714   2.149
  273SOL    HW2  840   1.142   1.732   2.014
  274SOL     OW  841   0.202   0.285   3.360
  274SOL    HW1  842   0.122   0.345   3.347
  274SOL    HW2  843   0.192   0.236   3.446
  275SOL     OW  844   1.632   1.377   1.943
  275SOL    HW1  845   1.600   1.471   1.933
  275SOL    HW2  846   1.556   1.314   1.931
  276SOL     OW  847   0.464   1.743   2.185
  276SOL    HW1  848   0.497   1.782   2.271
  276SOL    HW2  849   0.540   1.736   2.120
  277SOL     OW  850   1.400   0.107   2.288
  277SOL    HW1  851   1.376   0.070   2.198
  277SOL    HW2  852   1.499   0.123   2.292
  278SOL     OW  853   0.249   1.785   3.103
  278SOL    HW1  854   0.306   1.720   3.153
  278SOL    HW2  855   0.233   1.752   3.010
  279SOL     OW  856   0.940   1.698   2.766
  279SOL    HW1  857   1.020   1.641   2.787
  279SOL    HW2  858   0.891   1.658   2.689
  280SOL     OW  859   0.382   0.700   2.342
  280SOL    HW1  860   0.427   0.610   2.339
  280SOL    HW2  861   0.288   0.689   2.375
  281SOL     OW  862   1.547   0.222   3.591
  281SOL    HW1  863   1.542   0.259   3.683
  281SOL    HW2  864   1.475   0.153   3.579
  282SOL     OW  865   0.614   0.122   1.979
  282SOL    HW1  866   0.712   0.100   1.986
  282SOL    HW2  867   0.583   0.105   1.886
  283SOL     OW  868   0.781   0.264   3.611
  283SOL    HW1  869   0.848   0.203   3.654
  283SOL    HW2  870   0.708   0.283   3.676
  284SOL     OW  871   0.888   1.514   3.057
  284SOL    HW1  872   0.865   1.489   2.963
  284SOL    HW2  873   0.949   1.445   3.096
  285SOL     OW  874   1.351   0.590   3.295
  285SOL    HW1  875   1.379   0.547   3.380
  285SOL    HW2  876   1.376   0.686   3.296
  286SOL     OW  877   0.803   1.402   2.786
  286SOL    HW1  878   0.893   1.416   2.744
  286SOL    HW2  879   0.732   1.404   2.715
  287SOL     OW  880   0.922   0.503   2.761
  287SOL    HW1  881   0.897   0.494   2.665
  287SOL    HW2  882   0.970   0.421   2.792
  288SOL     OW  883   0.539   0.064   2.374
  288SOL    HW1  884   0.458   0.065   2.432
  288SOL    HW2  885   0.542   0.147   2.319
  289SOL     OW  886   1.434   1.188   1.903
  289SOL    HW1  887   1.466   1.112   1.960
  289SOL    HW2  888   1.342   1.215   1.933
  290SOL     OW  889   0.297   0.035   2.033
  290SOL    HW1  890   0.346   0.119   2.012
  290SOL    HW2  891   0.359  -0.030   2.078
  291SOL     OW  892   0.935   0.236   2.342
  291SOL    HW1  893   0.887   0.277   2.264
  291SOL    HW2  894   1.034   0.234   2.323
  292SOL     OW  895   1.076   0.683   3.326
  292SOL    HW1  896   0.996   0.622   3.329
  292SOL    HW2  897   1.157   0.630   3.302
  293SOL     OW  898   1.227   1.570   2.655
  293SOL    HW1  899   1.248   1.644   2.590
  293SOL    HW2  900   1.295   1.570   2.728
  294SOL     OW  901   0.459   1.152   2.603
  294SOL    HW1  902   0.388   1.125   2.668
  294SOL    HW2  903   0.433   1.124   2.510
  295SOL     OW  904   1.271   1.797   2.453
  295SOL    HW1  905   1.315   1.861   2.389
  295SOL    HW2  906   1.221   1.849   2.523
  296SOL     OW  907   1.032   0.549   1.878
  296SOL    HW1  908   0.991   0.631   1.839
  296SOL    HW2  909   1.096   0.575   1.951
  297SOL     OW  910   0.078   0.556   3.248
  297SOL    HW1  911   0.170   0.555   3.207
  297SOL    HW2  912   0.072   0.630   3.315
  298SOL     OW  913   0.561   0.222   3.009
  298SOL    HW1  914   0.599   0.138   3.046
  298SOL    HW2  915   0.473   0.241   3.053
  299SOL     OW  916   0.866   0.454   2.504
  299SOL    HW1  917   0.834   0.526   2.442
  299SOL    HW2  918   0.890   0.373   2.451
  300SOL     OW  919   1.017   0.039   2.615
  300SOL    HW1  920   0.945   0.044   2.546
  300SOL    HW2  921   0.993  -0.030   2.684
  301SOL     OW  922   1.429   1.173   2.729
  301SOL    HW1  923   1.374   1.089   2.722
  301SOL    HW2  924   1.455   1.202   2.637
  302SOL     OW  925   1.466   0.590   2.854
  302SOL    HW1  926   1.436   0.495   2.861
  302SOL    HW2  927   1.539   0.606   2.920
  303SOL     OW  928   1.857   0.833   2.239
  303SOL    HW1  929   1.899   0.769   2.303
  303SOL    HW2  930   1.819   0.782   2.161
  304SOL     OW  931   0.488   1.385   2.036
  304SOL    HW1  932   0.401   1.370   2.083
  304SOL    HW2  933   0.471   1.411   1.941
  305SOL     OW  934   1.664   1.280   2.519
  305SOL    HW1  935   1.763   1.288   2.533
  305SOL    HW2  936   1.619   1.364   2.550
  306SOL     OW  937   1.390   0.575   1.940
  306SOL    HW1  938   1.336   0.554   2.021
  306SOL    HW2  939   1.481   0.534   1.949
  307SOL     OW  940   0.527   0.256   2.190
  307SOL    HW1  941   0.554   0.197   2.115
  307SOL    HW2  942   0.527   0.351   2.159
  308SOL     OW  943   1.754   1.223   3.450
  308SOL    HW1  944   1.845   1.184   3.437
  308SOL    HW2  945   1.762   1.319   3.474
  309SOL     OW  946   1.064   1.347   3.202
  309SOL    HW1  947   0.984   1.324   3.257
  309SOL    HW2  948   1.147   1.321   3.251
  310SOL     OW  949   1.592   1.629   3.487
  310SOL    HW1  950   1.619   1.663   3.397
  310SOL    HW2  951   1.671   1.591   3.533
  311SOL     OW  952   1.111   1.195   2.962
  311SOL    HW1  953   1.071   1.239   3.043
  311SOL    HW2  954   1.070   1.232   2.879
  312SOL     OW  955   1.638   1.099   2.941
  312SOL    HW1  956   1.643   1.180   3.000
  312SOL    HW2  957   1.552   1.101   2.890
  313SOL     OW  958   0.915   0.089   3.264
  313SOL    HW1  959   0.940   0.069   3.169
  313SOL    HW2  960   0.987   0.145   3.306
  314SOL     OW  961   0.980   1.116   3.581
  314SOL    HW1  962   0.881   1.122   3.591
  314SOL    HW2  963   1.003   1.036   3.525
  315SOL     OW  964   0.705   1.050   2.230
  315SOL    HW1  965   0.691   1.057   2.329
  315SOL    HW2  966   0.789   0.999   2.212
  316SOL     OW  967   0.410   0.813   3.113
  316SOL    HW1  968   0.496   0.825   3.163
  316SOL    HW2  969   0.368   0.726   3.140
  317SOL     OW  970   1.274   0.386   3.124
  317SOL    HW1  971   1.295   0.460   3.188
  317SOL    HW2  972   1.185   0.403   3.081
  318SOL     OW  973   0.064   1.564   3.193
  318SOL    HW1  974   0.018   1.646   3.159
  318SOL    HW2  975   0.162   1.583   3.202
  319SOL     OW  976   0.367   1.100   2.363
  319SOL    HW1  977   0.360   1.183   2.307
  319SOL    HW2  978   0.371   1.020   2.303
  320SOL     OW  979   0.566   0.537   2.727
  320SOL    HW1  980   0.578   0.603   2.653
  320SOL    HW2  981   0.612   0.571   2.810
  321SOL     OW  982   1.252   1.348   2.250
  321SOL    HW1  983   1.302   1.425   2.290
  321SOL    HW2  984   1.157   1.350   2.282
  322SOL     OW  985   1.272   1.445   3.004
  322SOL    HW1  986   1.319   1.458   3.091
  322SOL    HW2  987   1.206   1.371   3.013
  323SOL     OW  988   1.582   0.639   2.334
  323SOL    HW1  989   1.551   0.700   2.407
  323SOL    HW2  990   1.632   0.691   2.265
  324SOL     OW  991   0.354   1.510   3.191
  324SOL    HW1  992   0.333   1.466   3.104
  324SOL    HW2  993   0.451   1.536   3.194
  325SOL     OW  994   0.402   0.751   3.460
  325SOL    HW1  995   0.470   0.806   3.413
  325SOL    HW2  996   0.442   0.663   3.487
  326SOL     OW  997   1.587   0.779   3.532
  326SOL    HW1  998   1.495   0.817   3.527
  326SOL    HW2  999   1.647   0.826   3.467
  327SOL     OW 1000   1.013   0.105   3.632
  327SOL    HW1 1001   1.019   0.190   3.580
  327SOL    HW2 1002   1.045   0.029   3.575
  328SOL     OW 1003   0.504   0.050   3.602
  328SOL    HW1 1004   0.462  -0.007   3.532
  328SOL    HW2 1005   0.438   0.119   3.634
  329SOL     OW 1006   0.573   0.870   2.891
  329SOL    HW1 1007   0.617   0.959   2.882
  329SOL    HW2 1008   0.510   0.870   2.968
  330SOL     OW 1009   1.360   0.862   2.907
  330SOL    HW1 1010   1.285   0.862   2.841
  330SOL    HW2 1011   1.397   0.770   2.916
  331SOL     OW 1012   1.209   0.525   2.137
  331SOL    HW1 1013   1.222   0.441   2.191
  331SOL    HW2 1014   1.180   0.599   2.197
  332SOL     OW 1015   0.307   0.213   3.093
  332SOL    HW1 1016   0.284   0.250   3.183
  332SOL    HW2 1017   0.277   0.118   3.087
  333SOL     OW 1018   0.037   1.310   3.144
  333SOL    HW1 1019   0.090   1.261   3.212
  333SOL    HW2 1020   0.059   1.408   3.149
  334SOL     OW 1021   0.732   0.634   2.926
  334SOL    HW1 1022   0.791   0.608   2.850
  334SOL    HW2 1023   0.704   0.730   2.915
  335SOL     OW 1024   1.728   0.935   3.716
  335SOL    HW1 1025   1.682   0.928   3.627
  335SOL    HW2 1026   1.666   0.979   3.782
  336SOL     OW 1027   0.307   0.063   2.480
  336SOL    HW1 1028   0.296   0.157   2.513
  336SOL    HW2 1029   0.302   0.000   2.557
  337SOL     OW 1030   1.622   0.367   2.236
  337SOL    HW1 1031   1.624   0.291   2.300
  337SOL    HW2 1032   1.574   0.444   2.276
  338SOL     OW 1033   1.023   0.766   2.828
  338SOL    HW1 1034   1.038   0.787   2.924
  338SOL    HW2 1035   0.993   0.671   2.819
  339SOL     OW 1036   0.980   1.573   3.562
  339SOL    HW1 1037   0.960   1.617   3.474
  339SOL    HW2 1038   1.019   1.482   3.546
  340SOL     OW 1039   1.859   1.518   3.467
  340SOL    HW1 1040   1.873   1.545   3.372
  340SOL    HW2 1041   1.942   1.540   3.520
  341SOL     OW 1042   0.350   0.898   3.666
  341SOL    HW1 1043   0.426   0.942   3.714
  341SOL    HW2 1044   0.385   0.851   3.584
  342SOL     OW 1045   1.540   0.274   1.987
  342SOL    HW1 1046   1.479   0.199   2.010
  342SOL    HW2 1047   1.562   0.326   2.070
  343SOL     OW 1048   1.303   0.838   1.904
  343SOL    HW1 1049   1.337   0.745   1.919
  343SOL    HW2 1050   1.321   0.865   1.809
  344SOL     OW 1051   1.068   1.333   2.711
  344SOL    HW1 1052   1.075   1.249   2.656
  344SOL    HW2 1053   1.130   1.402   2.675
  345SOL     OW 1054   0.319   0.810   2.811
  345SOL    HW1 1055   0.412   0.846   2.816
  345SOL    HW2 1056   0.313   0.725   2.863
  346SOL     OW 1057   0.339   0.509   2.868
  346SOL    HW1 1058   0.287   0.426   2.851
  346SOL    HW2 1059   0.416   0.514   2.804
  347SOL     OW 1060   1.138   0.380   3.540
  347SOL    HW1 1061   1.093   0.443   3.604
  347SOL    HW2 1062   1.231   0.411   3.523
  348SOL     OW 1063   1.160   0.207   3.339
  348SOL    HW1 1064   1.160   0.271   3.416
  348SOL    HW2 1065   1.188   0.255   3.256
  349SOL     OW 1066   0.008   1.326   2.062
  349SOL    HW1 1067  -0.085   1.347   2.031
  349SOL    HW2 1068   0.018   1.227   2.075
  350SOL     OW 1069   0.088   1.801   2.789
  350SOL    HW1 1070   0.046   1.715   2.762
  350SOL    HW2 1071   0.182   1.804   2.755
  351SOL     OW 1072   0.504   1.568   2.772
  351SOL    HW1 1073   0.570   1.642   2.781
  351SOL    HW2 1074   0.548   1.489   2.730
  352SOL     OW 1075   1.002   0.796   3.100
  352SOL    HW1 1076   1.043   0.764   3.186
  352SOL    HW2 1077   0.906   0.769   3.097
  353SOL     OW 1078   0.040   0.544   2.976
  353SOL    HW1 1079   0.125   0.511   2.935
  353SOL    HW2 1080   0.053   0.559   3.074
  354SOL     OW 1081   0.189   0.520   3.584
  354SOL    HW1 1082   0.248   0.480   3.514
  354SOL    HW2 1083   0.131   0.591   3.543
  355SOL     OW 1084   1.369   0.950   3.522
  355SOL    HW1 1085   1.408   1.039   3.542
  355SOL    HW2 1086   1.379   0.930   3.425
  356SOL     OW 1087   0.815   0.572   2.187
  356SOL    HW1 1088   0.822   0.483   2.141
  356SOL    HW2 1089   0.721   0.606   2.179
  357SOL     OW 1090   1.657   0.604   3.068
  357SOL    HW1 1091   1.619   0.535   3.130
  357SOL    HW2 1092   1.739   0.568   3.024
  358SOL     OW 1093   0.252   1.564   3.606
  358SOL    HW1 1094   0.222   1.621   3.682
  358SOL    HW2 1095   0.245   1.467   3.632
  359SOL     OW 1096   0.671   0.464   3.131
  359SOL    HW1 1097   0.637   0.375   3.101
  359SOL    HW2 1098   0.697   0.518   3.051
  360SOL     OW 1099   0.930   1.678   3.327
  360SOL    HW1 1100   0.906   1.660   3.232
  360SOL    HW2 1101   0.960   1.772   3.337
  361SOL     OW 1102   0.473   0.500   2.053
  361SOL    HW1 1103   0.534   0.580   2.057
  361SOL    HW2 1104   0.378   0.531   2.060
  362SOL     OW 1105   0.159   1.137   3.328
  362SOL    HW1 1106   0.181   1.076   3.404
  362SOL    HW2 1107   0.169   1.088   3.242
  363SOL     OW 1108   1.347   1.059   3.096
  363SOL    HW1 1109   1.371   0.996   3.022
  363SOL    HW2 1110   1.257   1.099   3.078
  364SOL     OW 1111   1.302   0.855   2.171
  364SOL    HW1 1112   1.216   0.824   2.213
  364SOL    HW2 1113   1.298   0.841   2.072
  365SOL     OW 1114   1.759   1.747   3.016
  365SOL    HW1 1115   1.820   1.777   2.943
  365SOL    HW2 1116   1.721   1.658   2.994
  366SOL     OW 1117   1.252   1.731   2.990
  366SOL    HW1 1118   1.336   1.736   2.936
  366SOL    HW2 1119   1.229   1.635   3.008
  367SOL     OW 1120   0.083   1.258   2.884
  367SOL    HW1 1121   0.078   1.257   2.984
  367SOL    HW2 1122   0.000   1.217   2.846
  368SOL     OW 1123   0.688   1.662   3.578
  368SOL    HW1 1124   0.632   1.743   3.587
  368SOL    HW2 1125   0.740   1.666   3.492
  369SOL     OW 1126   1.726   0.135   2.385
  369SOL    HW1 1127   1.799   0.118   2.318
  369SOL    HW2 1128   1.695   0.048   2.423
  370SOL     OW 1129   1.388   1.573   2.339
  370SOL    HW1 1130   1.455   1.585   2.265
  370SOL    HW2 1131   1.348   1.662   2.362
  371SOL     OW 1132   0.130   1.794   3.713
  371SOL    HW1 1133   0.089   1.720   3.766
  371SOL    HW2 1134   0.194   1.845   3.771
  372SOL     OW 1135   1.280   0.927   2.534
  372SOL    HW1 1136   1.340   0.846   2.536
  372SOL    HW2 1137   1.320   0.996   2.474
  373SOL     OW 1138   0.830   1.273   3.284
  373SOL    HW1 1139   0.825   1.306   3.379
  373SOL    HW2 1140   0.744   1.292   3.238
  374SOL     OW 1141   0.672   1.616   2.016
  374SOL    HW1 1142   0.681   1.626   1.917
  374SOL    HW2 1143   0.632   1.527   2.037
  375SOL     OW 1144   1.650   1.720   3.256
  375SOL    HW1 1145   1.703   1.730   3.172
  375SOL    HW2 1146   1.623   1.810   3.290
  376SOL     OW 1147   1.841   0.175   2.825
  376SOL    HW1 1148   1.880   0.090   2.789
  376SOL    HW2 1149   1.743   0.177   2.806
  377SOL     OW 1150   0.263   0.326   2.582
  377SOL    HW1 1151   0.184   0.377   2.548
  377SOL    HW2 1152   0.254   0.311   2.680
  378SOL     OW 1153   1.194   1.612   1.893
  378SOL    HW1 1154   1.200   1.519   1.930
  378SOL    HW2 1155   1.135   1.612   1.813
  379SOL     OW 1156   0.822   1.002   3.234
  379SOL    HW1 1157   0.862   1.001   3.142
  379SOL    HW2 1158   0.832   1.094   3.274
  380SOL     OW 1159   0.916   0.910   2.153
  380SOL    HW1 1160   0.979   0.948   2.085
  380SOL    HW2 1161   0.956   0.827   2.192
  381SOL     OW 1162   1.504   1.607   1.906
  381SOL    HW1 1163   1.412   1.644   1.913
  381SOL    HW2 1164   1.542   1.627   1.816
  382SOL     OW 1165   0.372   1.288   3.352
  382SOL    HW1 1166   0.359   1.381   3.318
  382SOL    HW2 1167   0.288   1.236   3.339
  383SOL     OW 1168   1.614   1.292   3.151
  383SOL    HW1 1169   1.674   1.295   3.231
  383SOL    HW2 1170   1.539   1.356   3.164
  384SOL     OW 1171   1.039   1.098   2.558
  384SOL    HW1 1172   0.969   1.051   2.612
  384SOL    HW2 1173   1.098   1.030   2.515
  385SOL     OW 1174   1.014   0.236   2.833
  385SOL    HW1 1175   1.006   0.200   2.740
  385SOL    HW2 1176   1.012   0.160   2.898
  386SOL     OW 1177   0.590   1.487   2.353
  386SOL    HW1 1178   0.632   1.429   2.283
  386SOL    HW2 1179   0.546   1.566   2.309
  387SOL     OW 1180   1.709   0.385   3.243
  387SOL    HW1 1181   1.782   0.454   3.247
  387SOL    HW2 1182   1.737   0.310   3.184
  388SOL     OW 1183   0.255   1.348   2.152
  388SOL    HW1 1184   0.159   1.349   2.125
  388SOL    HW2 1185   0.267   1.401   2.236
  389SOL     OW 1186   0.105   1.013   3.588
  389SOL    HW1 1187   0.028   0.980   3.642
  389SOL    HW2 1188   0.190   0.983   3.630
  390SOL     OW 1189   0.672   0.203   3.351
  390SOL    HW1 1190   0.762   0.187   3.311
  390SOL    HW2 1191   0.680   0.208   3.450
  391SOL     OW 1192   0.075   0.345   1.895
  391SOL    HW1 1193  -0.017   0.317   1.866
  391SOL    HW2 1194   0.106   0.422   1.839
  392SOL     OW 1195   1.440   0.856   3.260
  392SOL    HW1 1196   1.383   0.908   3.197
  392SOL    HW2 1197   1.536   0.868   3.236
  393SOL     OW 1198   0.072   0.166   2.180
  393SOL    HW1 1199   0.055   0.249   2.126
  393SOL    HW2 1200   0.162   0.129   2.158
  394SOL     OW 1201   1.183   1.335   1.981
  394SOL    HW1 1202   1.084   1.324   1.983
  394SOL    HW2 1203   1.217   1.350   2.074
  395SOL     OW 1204   0.613   0.842   3.293
  395SOL    HW1 1205   0.669   0.923   3.276
  395SOL    HW2 1206   0.672   0.762   3.296
  396SOL     OW 1207   1.493   1.767   2.821
  396SOL    HW1 1208   1.526   1.831   2.752
  396SOL    HW2 1209   1.559   1.761   2.896
  397SOL     OW 1210   0.716   0.565   3.570
  397SOL    HW1 1211   0.735   0.630   3.644
  397SOL    HW2 1212   0.776   0.485   3.579
  398SOL     OW 1213   1.450   1.220   3.495
  398SOL    HW1 1214   1.441   1.210   3.594
  398SOL    HW2 1215   1.546   1.213   3.469
  399SOL     OW 1216   0.390   1.741   3.422
  399SOL    HW1 1217   0.299   1.782   3.420
  399SOL    HW2 1218   0.383   1.647   3.454
  400SOL     OW 1219   1.674   0.883   3.116
  400SOL    HW1 1220   1.647   0.794   3.079
  400SOL    HW2 1221   1.675   0.951   3.043
  401SOL     OW 1222   1.225   0.325   2.311
  401SOL    HW1 1223   1.290   0.251   2.300
  401SOL    HW2 1224   1.245   0.375   2.395
  402SOL     OW 1225   0.594   0.745   2.514
  402SOL    HW1 1226   0.644   0.830   2.495
  402SOL    HW2 1227   0.506   0.747   2.466
  403SOL     OW 1228   1.777   0.342   3.504
  403SOL    HW1 1229   1.760   0.373   3.410
  403SOL    HW2 1230   1.693   0.305   3.542
  404SOL     OW 1231   1.730   0.934   3.379
  404SOL    HW1 1232   1.768   1.025   3.394
  404SOL    HW2 1233   1.722   0.917   3.280
  405SOL     OW 1234   0.859   1.374   1.878
  405SOL    HW1 1235   0.813   1.389   1.966
  405SOL    HW2 1236   0.903   1.459   1.848
  406SOL     OW 1237   0.661   1.790   2.815
  406SOL    HW1 1238   0.615   1.878   2.802
  406SOL    HW2 1239   0.760   1.802   2.808
  407SOL     OW 1240   0.859   0.956   2.723
  407SOL    HW1 1241   0.913   0.887   2.771
  407SOL    HW2 1242   0.827   1.025   2.789
  408SOL     OW 1243   1.083   0.984   1.949
  408SOL    HW1 1244   1.060   1.037   1.867
  408SOL    HW2 1245   1.164   0.928   1.930
  409SOL     OW 1246   1.861   1.569   2.713
  409SOL    HW1 1247   1.790   1.557   2.643
  409SOL    HW2 1248   1.862   1.490   2.773
  410SOL     OW 1249   0.221   1.314   3.706
  410SOL    HW1 1250   0.156   1.241   3.685
  410SOL    HW2 1251   0.225   1.328   3.804
  411SOL     OW 1252   0.079   1.240   2.515
  411SOL    HW1 1253   0.078   1.193   2.603
  411SOL    HW2 1254   0.161   1.212   2.464
  412SOL     OW 1255   0.672   1.391   3.486
  412SOL    HW1 1256   0.594   1.341   3.524
  412SOL    HW2 1257   0.669   1.486   3.517
  413SOL     OW 1258   1.824   0.192   3.089
  413SOL    HW1 1259   1.820   0.102   3.133
  413SOL    HW2 1260   1.827   0.181   2.990
  414SOL     OW 1261   0.428   0.424   2.382
  414SOL    HW1 1262   0.458   0.352   2.320
  414SOL    HW2 1263   0.389   0.384   2.465
  415SOL     OW 1264   1.705   1.487   2.966
  415SOL    HW1 1265   1.612   1.462   2.939
  415SOL    HW2 1266   1.731   1.437   3.048
  416SOL     OW 1267   0.317   0.547   3.142
  416SOL    HW1 1268   0.355   0.488   3.214
  416SOL    HW2 1269   0.357   0.521   3.054
  417SOL     OW 1270   0.812   1.586   2.549
  417SOL    HW1 1271   0.844   1.596   2.455
  417SOL    HW2 1272   0.733   1.524   2.551
  418SOL     OW 1273   1.424   0.214   2.974
  418SOL    HW1 1274   1.476   0.149   3.029
  418SOL    HW2 1275   1.375   0.277   3.035
  419SOL     OW 1276   1.001   0.034   3.016
  419SOL    HW1 1277   0.938  -0.038   2.985
  419SOL    HW2 1278   1.094  -0.002   3.016
  420SOL     OW 1279   0.770   1.330   2.163
  420SOL    HW1 1280   0.724   1.243   2.180
  420SOL    HW2 1281   0.861   1.327   2.204
  421SOL     OW 1282   0.618   1.567   3.146
  421SOL    HW1 1283   0.613   1.649   3.203
  421SOL    HW2 1284   0.707   1.564   3.101
  422SOL     OW 1285   1.352   0.052   2.030
  422SOL    HW1 1286   1.387   0.011   1.946
  422SOL    HW2 1287   1.262   0.014   2.050
  423SOL     OW 1288   1.300   0.453   2.553
  423SOL    HW1 1289   1.241   0.533   2.557
  423SOL    HW2 1290   1.315   0.418   2.646
  424SOL     OW 1291   1.593   0.221   2.744
  424SOL    HW1 1292   1.509   0.220   2.798
  424SOL    HW2 1293   1.595   0.304   2.688
  425SOL     OW 1294   0.039   1.077   2.162
  425SOL    HW1 1295   0.138   1.066   2.153
  425SOL    HW2 1296  -0.001   0.991   2.194
  426SOL     OW 1297   0.875   1.646   2.199
  426SOL    HW1 1298   0.798   1.611   2.145
  426SOL    HW2 1299   0.843   1.717   2.261
  427SOL     OW 1300   0.230   0.628   3.837
  427SOL    HW1 1301   0.137   0.626   3.874
  427SOL    HW2 1302   0.231   0.589   3.745
  428SOL     OW 1303   0.225   0.275   4.720
  428SOL    HW1 1304   0.260   0.258   4.812
  428SOL    HW2 1305   0.137   0.230   4.708
  429SOL     OW 1306   0.019   0.368   4.371
  429SOL    HW1 1307  -0.063   0.411   4.410
  429SOL    HW2 1308  -0.009   0.295   4.308
  430SOL     OW 1309   1.555   1.511   4.427
  430SOL    HW1 1310   1.498   1.495   4.508
  430SOL    HW2 1311   1.496   1.521   4.347
  431SOL     OW 1312   1.135   0.703   4.441
  431SOL    HW1 1313   1.192   0.781   4.416
  431SOL    HW2 1314   1.075   0.729   4.517
  432SOL     OW 1315   1.755   0.607   3.955
  432SOL    HW1 1316   1.743   0.594   3.856
  432SOL    HW2 1317   1.725   0.526   4.004
  433SOL     OW 1318   0.768   1.144   4.747
  433SOL    HW1 1319   0.690   1.161   4.807
  433SOL    HW2 1320   0.802   1.231   4.711
  434SOL     OW 1321   0.685   1.012   4.389
  434SOL    HW1 1322   0.754   0.996   4.459
  434SOL    HW2 1323   0.612   1.069   4.427
  435SOL     OW 1324   0.335   1.435   4.785
  435SOL    HW1 1325   0.257   1.404   4.732
  435SOL    HW2 1326   0.393   1.493   4.728
  436SOL     OW 1327   1.603   0.447   4.461
  436SOL    HW1 1328   1.529   0.493   4.411
  436SOL    HW2 1329   1.654   0.515   4.514
  437SOL     OW 1330   0.231   1.713   4.207
  437SOL    HW1 1331   0.265   1.790   4.261
  437SOL    HW2 1332   0.275   1.713   4.117
  438SOL     OW 1333   0.230   1.434   4.262
  438SOL    HW1 1334   0.204   1.530   4.262
  438SOL    HW2 1335   0.159   1.380   4.307
  439SOL     OW 1336   0.240   1.091   4.610
  439SOL    HW1 1337   0.254   1.007   4.662
  439SOL    HW2 1338   0.185   1.155   4.665
  440SOL     OW 1339   0.606   0.964   3.847
  440SOL    HW1 1340   0.613   1.048   3.793
  440SOL    HW2 1341   0.652   0.977   3.935
  441SOL     OW 1342   0.122   0.643   4.287
  441SOL    HW1 1343   0.077   0.555   4.304
  441SOL    HW2 1344   0.121   0.697   4.371
  442SOL     OW 1345   1.842   1.767   4.083
  442SOL    HW1 1346   1.896   1.738   4.163
  442SOL    HW2 1347   1.872   1.857   4.054
  443SOL     OW 1348   0.027   1.596   3.841
  443SOL    HW1 1349   0.008   1.500   3.862
  443SOL    HW2 1350  -0.006   1.654   3.916
  444SOL     OW 1351   1.689   0.922   4.336
  444SOL    HW1 1352   1.784   0.893   4.344
  444SOL    HW2 1353   1.681   0.987   4.261
  445SOL     OW 1354   1.641   1.108   4.156
  445SOL    HW1 1355   1.727   1.110   4.104
  445SOL    HW2 1356   1.655   1.155   4.244
  446SOL     OW 1357   0.613   1.365   4.450
  446SOL    HW1 1358   0.564   1.278   4.459
  446SOL    HW2 1359   0.590   1.408   4.363
  447SOL     OW 1360   0.809   0.004   4.226
  447SOL    HW1 1361   0.849   0.095   4.217
  447SOL    HW2 1362   0.709   0.012   4.232
  448SOL     OW 1363   1.525   0.999   3.914
  448SOL    HW1 1364   1.462   0.923   3.927
  448SOL    HW2 1365   1.573   1.017   4.000
  449SOL     OW 1366   1.466   1.417   4.677
  449SOL    HW1 1367   1.407   1.423   4.757
  449SOL    HW2 1368   1.451   1.329   4.631
  450SOL     OW 1369   1.667   1.714   4.296
  450SOL    HW1 1370   1.626   1.691   4.208
  450SOL    HW2 1371   1.649   1.640   4.361
  451SOL     OW 1372   0.598   0.729   3.994
  451SOL    HW1 1373   0.622   0.798   3.926
  451SOL    HW2 1374   0.520   0.762   4.048
  452SOL     OW 1375   1.281   0.345   4.668
  452SOL    HW1 1376   1.195   0.295   4.655
  452SOL    HW2 1377   1.343   0.291   4.724
  453SOL     OW 1378   1.576   1.662   4.031
  453SOL    HW1 1379   1.665   1.708   4.034
  453SOL    HW2 1380   1.555   1.638   3.936
  454SOL     OW 1381   1.041   0.701   4.153
  454SOL    HW1 1382   1.067   0.697   4.249
  454SOL    HW2 1383   0.956   0.650   4.139
  455SOL     OW 1384   0.076   0.811   4.513
  455SOL    HW1 1385   0.175   0.799   4.522
  455SOL    HW2 1386   0.052   0.906   4.534
  456SOL     OW 1387   0.865   0.348   3.919
  456SOL    HW1 1388   0.924   0.411   3.870
  456SOL    HW2 1389   0.884   0.254   3.890
  457SOL     OW 1390   1.362   1.144   4.269
  457SOL    HW1 1391   1.445   1.115   4.221
  457SOL    HW2 1392   1.313   1.211   4.213
  458SOL     OW 1393   0.550   0.196   4.609
  458SOL    HW1 1394   0.545   0.191   4.709
  458SOL    HW2 1395   0.552   0.292   4.580
  459SOL     OW 1396   1.008   1.456   4.201
  459SOL    HW1 1397   0.962   1.528   4.149
  459SOL    HW2 1398   1.004   1.476   4.299
  460SOL     OW 1399   0.351   1.801   4.577
  460SOL    HW1 1400   0.401   1.715   4.583
  460SOL    HW2 1401   0.416   1.878   4.574
  461SOL     OW 1402   1.795   1.066   4.597
  461SOL    HW1 1403   1.733   1.051   4.521
  461SOL    HW2 1404   1.743   1.077   4.682
  462SOL     OW 1405   0.321   0.943   3.966
  462SOL    HW1 1406   0.403   0.982   3.924
  462SOL    HW2 1407   0.294   0.861   3.917
  463SOL     OW 1408   1.458   0.735   4.452
  463SOL    HW1 1409   1.453   0.670   4.527
  463SOL    HW2 1410   1.538   0.794   4.465
  464SOL     OW 1411   1.111   1.776   3.961
  464SOL    HW1 1412   1.051   1.714   4.011
  464SOL    HW2 1413   1.142   1.732   3.876
  465SOL     OW 1414   1.632   1.377   3.805
  465SOL    HW1 1415   1.600   1.471   3.795
  465SOL    HW2 1416   1.556   1.314   3.793
  466SOL     OW 1417   0.464   1.743   4.047
  466SOL    HW1 1418   0.497   1.782   4.133
  466SOL    HW2 1419   0.540   1.736   3.982
  467SOL     OW 1420   1.400   0.107   4.150
  467SOL    HW1 1421   1.376   0.070   4.060
  467SOL    HW2 1422   1.499   0.123   4.154
  468SOL     OW 1423   0.249   1.785   4.965
  468SOL    HW1 1424   0.306   1.720   5.015
  468SOL    HW2 1425   0.233   1.752   4.872
  469SOL     OW 1426   0.940   1.698   4.628
  469SOL    HW1 1427   1.020   1.641   4.649
  469SOL    HW2 1428   0.891   1.658   4.551
  470SOL     OW 1429   0.382   0.700   4.204
  470SOL    HW1 1430   0.427   0.610   4.201
  470SOL    HW2 1431   0.288   0.689   4.237
  471SOL     OW 1432   0.614   0.122   3.841
  471SOL    HW1 1433   0.712   0.100   3.848
  471SOL    HW2 1434   0.583   0.105   3.748
  472SOL     OW 1435   0.803   1.402   4.648
  472SOL    HW1 1436   0.893   1.416   4.606
  472SOL    HW2 1437   0.732   1.404   4.577
  473SOL     OW 1438   0.922   0.503   4.623
  473SOL    HW1 1439   0.897   0.494   4.527
  473SOL    HW2 1440   0.970   0.421   4.654
  474SOL     OW 1441   0.539   0.064   4.236
  474SOL    HW1 1442   0.458   0.065   4.294
  474SOL    HW2 1443   0.542   0.147   4.181
  475SOL     OW 1444   1.434   1.188   3.765
  475SOL    HW1 1445   1.466   1.112   3.822
  475SOL    HW2 1446   1.342   1.215   3.795
  476SOL     OW 1447   0.297   0.035   3.895
  476SOL    HW1 1448   0.346   0.119   3.874
  476SOL    HW2 1449   0.359  -0.030   3.940
  477SOL     OW 1450   0.935   0.236   4.204
  477SOL    HW1 1451   0.887   0.277   4.126
  477SOL    HW2 1452   1.034   0.234   4.185
  478SOL     OW 1453   1.227   1.570   4.517
  478SOL    HW1 1454   1.248   1.644   4.452
  478SOL    HW2 1455   1.295   1.570   4.590
  479SOL     OW 1456   0.459   1.152   4.465
  479SOL    HW1 1457   0.388   1.125   4.530
  479SOL    HW2 1458   0.433   1.124   4.372
  480SOL     OW 1459   1.271   1.797   4.315
  480SOL    HW1 1460   1.315   1.861   4.251
  480SOL    HW2 1461   1.221   1.849   4.385
  481SOL     OW 1462   1.032   0.549   3.740
  481SOL    HW1 1463   0.991   0.631   3.701
  481SOL    HW2 1464   1.096   0.575   3.813
  482SOL     OW 1465   0.866   0.454   4.366
  482SOL    HW1 1466   0.834   0.526   4.304
  482SOL    HW2 1467   0.890   0.373   4.313
  483SOL     OW 1468   1.017   0.039   4.477
  483SOL    HW1 1469   0.945   0.044   4.408
  483SOL    HW2 1470   0.993  -0.030   4.546
  484SOL     OW 1471   1.429   1.173   4.591
  484SOL    HW1 1472   1.374   1.089   4.584
  484SOL    HW2 1473   1.455   1.202   4.499
  485SOL     OW 1474   1.466   0.590   4.716
  485SOL    HW1 1475   1.436   0.495   4.723
  485SOL    HW2 1476   1.539   0.606   4.782
  486SOL     OW 1477   1.857   0.833   4.101
  486SOL    HW1 1478   1.899   0.769   4.165
  486SOL    HW2 1479   1.819   0.782   4.023
  487SOL     OW 1480   0.488   1.385   3.898
  487SOL    HW1 1481   0.401   1.370   3.945
  487SOL    HW2 1482   0.471   1.411   3.803
  488SOL     OW 1483   1.664   1.280   4.381
  488SOL    HW1 1484   1.763   1.288   4.395
  488SOL    HW2 1485   1.619   1.364   4.412
  489SOL     OW 1486   1.390   0.575   3.802
  489SOL    HW1 1487   1.336   0.554   3.883
  489SOL    HW2 1488   1.481   0.534   3.811
  490SOL     OW 1489   0.527   0.256   4.052
  490SOL    HW1 1490   0.554   0.197   3.977
  490SOL    HW2 1491   0.527   0.351   4.021
  491SOL     OW 1492   1.638   1.099   4.803
  491SOL    HW1 1493   1.643   1.180   4.862
  491SOL    HW2 1494   1.552   1.101   4.752
  492SOL     OW 1495   0.705   1.050   4.092
  492SOL    HW1 1496   0.691   1.057   4.191
  492SOL    HW2 1497   0.789   0.999   4.074
  493SOL     OW 1498   0.367   1.100   4.225
  493SOL    HW1 1499   0.360   1.183   4.169
  493SOL    HW2 1500   0.371   1.020   4.165
  494SOL     OW 1501   0.566   0.537   4.589
  494SOL    HW1 1502   0.578   0.603   4.515
  494SOL    HW2 1503   0.612   0.571   4.672
  495SOL     OW 1504   1.252   1.348   4.112
  495SOL    HW1 1505   1.302   1.425   4.152
  495SOL    HW2 1506   1.157   1.350   4.144
  496SOL     OW 1507   1.582   0.639   4.196
  496SOL    HW1 1508   1.551   0.700   4.269
  496SOL    HW2 1509   1.632   0.691   4.127
  497SOL     OW 1510   0.573   0.870   4.753
  497SOL    HW1 1511   0.617   0.959   4.744
  497SOL    HW2 1512   0.510   0.870   4.830
  498SOL     OW 1513   1.209   0.525   3.999
  498SOL    HW1 1514   1.222   0.441   4.053
  498SOL    HW2 1515   1.180   0.599   4.059
  499SOL     OW 1516   0.732   0.634   4.788
  499SOL    HW1 1517   0.791   0.608   4.712
  499SOL    HW2 1518   0.704   0.730   4.777
  500SOL     OW 1519   0.307   0.063   4.342
  500SOL    HW1 1520   0.296   0.157   4.375
  500SOL    HW2 1521   0.302   0.000   4.419
  501SOL     OW 1522   1.622   0.367   4.098
  501SOL    HW1 1523   1.624   0.291   4.162
  501SOL    HW2 1524   1.574   0.444   4.138
  502SOL     OW 1525   1.540   0.274   3.849
  502SOL    HW1 1526   1.479   0.199   3.872
  502SOL    HW2 1527   1.562   0.326   3.932
  503SOL     OW 1528   1.303   0.838   3.766
  503SOL    HW1 1529   1.337   0.745   3.781
  503SOL    HW2 1530   1.321   0.865   3.671
  504SOL     OW 1531   1.068   1.333   4.573
  504SOL    HW1 1532   1.075   1.249   4.518
  504SOL    HW2 1533   1.130   1.402   4.537
  505SOL     OW 1534   0.319   0.810   4.673
  505SOL    HW1 1535   0.412   0.846   4.678
  505SOL    HW2 1536   0.313   0.725   4.725
  506SOL     OW 1537   0.339   0.509   4.730
  506SOL    HW1 1538   0.287   0.426   4.713
  506SOL    HW2 1539   0.416   0.514   4.666
  507SOL     OW 1540   0.008   1.326   3.924
  507SOL    HW1 1541  -0.085   1.347   3.893
  507SOL    HW2 1542   0.018   1.227   3.937
  508SOL     OW 1543   0.088   1.801   4.651
  508SOL    HW1 1544   0.046   1.715   4.624
  508SOL    HW2 1545   0.182   1.804   4.617
  509SOL     OW 1546   0.504   1.568   4.634
  509SOL    HW1 1547   0.570   1.642   4.643
  509SOL    HW2 1548   0.548   1.489   4.592
  510SOL     OW 1549   1.002   0.796   4.962
  510SOL    HW1 1550   1.043   0.764   5.048
  510SOL    HW2 1551   0.906   0.769   4.959
  511SOL     OW 1552   0.815   0.572   4.049
  511SOL    HW1 1553   0.822   0.483   4.003
  511SOL    HW2 1554   0.721   0.606   4.041
  512SOL     OW 1555   0.671   0.464   4.993
  512SOL    HW1 1556   0.637   0.375   4.963
  512SOL    HW2 1557   0.697   0.518   4.913
  513SOL     OW 1558   0.473   0.500   3.915
  513SOL    HW1 1559   0.534   0.580   3.919
  513SOL    HW2 1560   0.378   0.531   3.922
  514SOL     OW 1561   1.302   0.855   4.033
  514SOL    HW1 1562   1.216   0.824   4.075
  514SOL    HW2 1563   1.298   0.841   3.934
  515SOL     OW 1564   1.759   1.747   4.878
  515SOL    HW1 1565   1.820   1.777   4.805
  515SOL    HW2 1566   1.721   1.658   4.856
  516SOL     OW 1567   0.083   1.258   4.746
  516SOL    HW1 1568   0.078   1.257   4.846
  516SOL    HW2 1569   0.000   1.217   4.708
  517SOL     OW 1570   1.726   0.135   4.247
  517SOL    HW1 1571   1.799   0.118   4.180
  517SOL    HW2 1572   1.695   0.048   4.285
  518SOL     OW 1573   1.388   1.573   4.201
  518SOL    HW1 1574   1.455   1.585   4.127
  518SOL    HW2 1575   1.348   1.662   4.224
  519SOL     OW 1576   1.280   0.927   4.396
  519SOL    HW1 1577   1.340   0.846   4.398
  519SOL    HW2 1578   1.320   0.996   4.336
  520SOL     OW 1579   0.672   1.616   3.878
  520SOL    HW1 1580   0.681   1.626   3.779
  520SOL    HW2 1581   0.632   1.527   3.899
  521SOL     OW 1582   1.841   0.175   4.687
  521SOL    HW1 1583   1.880   0.090   4.651
  521SOL    HW2 1584   1.743   0.177   4.668
  522SOL     OW 1585   0.263   0.326   4.444
  522SOL    HW1 1586   0.184   0.377   4.410
  522SOL    HW2 1587   0.254   0.311   4.542
  523SOL     OW 1588   1.194   1.612   3.755
  523SOL    HW1 1589   1.200   1.519   3.792
  523SOL    HW2 1590   1.135   1.612   3.675
  524SOL     OW 1591   0.916   0.910   4.015
  524SOL    HW1 1592   0.979   0.948   3.947
  524SOL    HW2 1593   0.956   0.827   4.054
  525SOL     OW 1594   1.504   1.607   3.768
  525SOL    HW1 1595   1.412   1.644   3.775
  525SOL    HW2 1596   1.542   1.627   3.678
  526SOL     OW 1597   1.039   1.098   4.420
  526SOL    HW1 1598   0.969   1.051   4.474
  526SOL    HW2 1599   1.098   1.030   4.377
  527SOL     OW 1600   1.014   0.236   4.695
  527SOL    HW1 1601   1.006   0.200   4.602
  527SOL    HW2 1602   1.012   0.160   4.760
  528SOL     OW 1603   0.590   1.487   4.215
  528SOL    HW1 1604   0.632   1.429   4.145
  528SOL    HW2 1605   0.546   1.566   4.171
  529SOL     OW 1606   0.255   1.348   4.014
  529SOL    HW1 1607   0.159   1.349   3.987
  529SOL    HW2 1608   0.267   1.401   4.098
  530SOL     OW 1609   0.075   0.345   3.757
  530SOL    HW1 1610  -0.017   0.317   3.728
  530SOL    HW2 1611   0.106   0.422   3.701
  531SOL     OW 1612   0.072   0.166   4.042
  531SOL    HW1 1613   0.055   0.249   3.988
  531SOL    HW2 1614   0.162   0.129   4.020
  532SOL     OW 1615   1.183   1.335   3.843
  532SOL    HW1 1616   1.084   1.324   3.845
  532SOL    HW2 1617   1.217   1.350   3.936
  533SOL     OW 1618   1.674   0.883   4.978
  533SOL    HW1 1619   1.647   0.794   4.941
  533SOL    HW2 1620   1.675   0.951   4.905
  534SOL     OW 1621   1.225   0.325   4.173
  534SOL    HW1 1622   1.290   0.251   4.162
  534SOL    HW2 1623   1.245   0.375   4.257
  535SOL     OW 1624   0.594   0.745   4.376
  535SOL    HW1 1625   0.644   0.830   4.357
  535SOL    HW2 1626   0.506   0.747   4.328
  536SOL     OW 1627   0.859   1.374   3.740
  536SOL    HW1 1628   0.813   1.389   3.828
  536SOL    HW2 1629   0.903   1.459   3.710
  537SOL     OW 1630   0.661   1.790   4.677
  537SOL    HW1 1631   0.615   1.878   4.664
  537SOL    HW2 1632   0.760   1.802   4.670
  538SOL     OW 1633   0.859   0.956   4.585
  538SOL    HW1 1634   0.913   0.887   4.633
  538SOL    HW2 1635   0.827   1.025   4.651
  539SOL     OW 1636   1.083   0.984   3.811
  539SOL    HW1 1637   1.060   1.037   3.729
  539SOL    HW2 1638   1.164   0.928   3.792
  540SOL     OW 1639   1.861   1.569   4.575
  540SOL    HW1 1640   1.790   1.557   4.505
  540SOL    HW2 1641   1.862   1.490   4.635
  541SOL     OW 1642   0.079   1.240   4.377
  541SOL    HW1 1643   0.078   1.193   4.465
  541SOL    HW2 1644   0.161   1.212   4.326
  542SOL     OW 1645   1.824   0.192   4.951
  542SOL    HW1 1646   1.820   0.102   4.995
  542SOL    HW2 1647   1.827   0.181   4.852
  543SOL     OW 1648   0.428   0.424   4.244
  543SOL    HW1 1649   0.458   0.352   4.182
  543SOL    HW2 1650   0.389   0.384   4.327
  544SOL     OW 1651   0.812   1.586   4.411
  544SOL    HW1 1652   0.844   1.596   4.317
  544SOL    HW2 1653   0.733   1.524   4.413
  545SOL     OW 1654   0.770   1.330   4.025
  545SOL    HW1 1655   0.724   1.243   4.042
  545SOL    HW2 1656   0.861   1.327   4.066
  546SOL     OW 1657   1.352   0.052   3.892
  546SOL    HW1 1658   1.387   0.011   3.808
  546SOL    HW2 1659   1.262   0.014   3.912
  547SOL     OW 1660   1.300   0.453   4.415
  547SOL    HW1 1661   1.241   0.533   4.419
  547SOL    HW2 1662   1.315   0.418   4.508
  548SOL     OW 1663   1.593   0.221   4.606
  548SOL    HW1 1664   1.509   0.220   4.660
  548SOL    HW2 1665   1.595   0.304   4.550
  549SOL     OW 1666   0.039   1.077   4.024
  549SOL    HW1 1667   0.138   1.066   4.015
  549SOL    HW2 1668  -0.001   0.991   4.056
  550SOL     OW 1669   0.875   1.646   4.061
  550SOL    HW1 1670   0.798   1.611   4.007
  550SOL    HW2 1671   0.843   1.717   4.123
  551SOL     OW 1672   0.230   2.490   0.113
  551SOL    HW1 1673   0.137   2.488   0.150
  551SOL    HW2 1674   0.231   2.451   0.021
  552SOL     OW 1675   0.225   2.137   0.996
  552SOL    HW1 1676   0.260   2.120   1.088
  552SOL    HW2 1677   0.137   2.092   0.984
  553SOL     OW 1678   0.019   2.230   0.647
  553SOL    HW1 1679  -0.063   2.273   0.686
  553SOL    HW2 1680  -0.009   2.157   0.584
  554SOL     OW 1681   0.569   3.137   1.165
  554SOL    HW1 1682   0.476   3.130   1.128
  554SOL    HW2 1683   0.580   3.226   1.209
  555SOL     OW 1684   1.555   3.373   0.703
  555SOL    HW1 1685   1.498   3.357   0.784
  555SOL    HW2 1686   1.496   3.383   0.623
  556SOL     OW 1687   1.135   2.565   0.717
  556SOL    HW1 1688   1.192   2.643   0.692
  556SOL    HW2 1689   1.075   2.591   0.793
  557SOL     OW 1690   1.755   2.469   0.231
  557SOL    HW1 1691   1.743   2.456   0.132
  557SOL    HW2 1692   1.725   2.388   0.280
  558SOL     OW 1693   0.768   3.006   1.023
  558SOL    HW1 1694   0.690   3.023   1.083
  558SOL    HW2 1695   0.802   3.093   0.987
  559SOL     OW 1696   0.850   2.660   1.823
  559SOL    HW1 1697   0.846   2.736   1.888
  559SOL    HW2 1698   0.872   2.696   1.732
  560SOL     OW 1699   0.685   2.874   0.665
  560SOL    HW1 1700   0.754   2.858   0.735
  560SOL    HW2 1701   0.612   2.931   0.703
  561SOL     OW 1702   0.686   3.023   1.803
  561SOL    HW1 1703   0.746   3.102   1.817
  561SOL    HW2 1704   0.600   3.054   1.762
  562SOL     OW 1705   0.335   3.297   1.061
  562SOL    HW1 1706   0.257   3.266   1.008
  562SOL    HW2 1707   0.393   3.355   1.004
  563SOL     OW 1708   1.460   3.367   1.339
  563SOL    HW1 1709   1.484   3.461   1.365
  563SOL    HW2 1710   1.444   3.313   1.421
  564SOL     OW 1711   0.438   2.254   1.499
  564SOL    HW1 1712   0.520   2.198   1.508
  564SOL    HW2 1713   0.357   2.196   1.503
  565SOL     OW 1714   1.603   2.309   0.737
  565SOL    HW1 1715   1.529   2.355   0.687
  565SOL    HW2 1716   1.654   2.377   0.790
  566SOL     OW 1717   0.231   3.575   0.483
  566SOL    HW1 1718   0.265   3.652   0.537
  566SOL    HW2 1719   0.275   3.575   0.393
  567SOL     OW 1720   1.127   3.203   1.690
  567SOL    HW1 1721   1.174   3.203   1.778
  567SOL    HW2 1722   1.079   3.116   1.679
  568SOL     OW 1723   0.230   3.296   0.538
  568SOL    HW1 1724   0.204   3.392   0.538
  568SOL    HW2 1725   0.159   3.242   0.583
  569SOL     OW 1726   0.240   2.953   0.886
  569SOL    HW1 1727   0.254   2.869   0.938
  569SOL    HW2 1728   0.185   3.017   0.941
  570SOL     OW 1729   0.620   3.648   1.439
  570SOL    HW1 1730   0.528   3.631   1.474
  570SOL    HW2 1731   0.648   3.740   1.465
  571SOL     OW 1732   0.606   2.826   0.123
  571SOL    HW1 1733   0.613   2.910   0.069
  571SOL    HW2 1734   0.652   2.839   0.211
  572SOL     OW 1735   1.594   1.976   1.480
  572SOL    HW1 1736   1.576   2.043   1.408
  572SOL    HW2 1737   1.591   2.022   1.569
  573SOL     OW 1738   0.122   2.505   0.563
  573SOL    HW1 1739   0.077   2.417   0.580
  573SOL    HW2 1740   0.121   2.559   0.647
  574SOL     OW 1741   1.842   3.629   0.359
  574SOL    HW1 1742   1.896   3.600   0.439
  574SOL    HW2 1743   1.872   3.719   0.330
  575SOL     OW 1744   0.027   3.458   0.117
  575SOL    HW1 1745   0.008   3.362   0.138
  575SOL    HW2 1746  -0.006   3.516   0.192
  576SOL     OW 1747   1.689   2.784   0.612
  576SOL    HW1 1748   1.784   2.755   0.620
  576SOL    HW2 1749   1.681   2.849   0.537
  577SOL     OW 1750   1.641   2.970   0.432
  577SOL    HW1 1751   1.727   2.972   0.380
  577SOL    HW2 1752   1.655   3.017   0.520
  578SOL     OW 1753   0.113   2.599   1.597
  578SOL    HW1 1754   0.201   2.586   1.642
  578SOL    HW2 1755   0.100   2.696   1.575
  579SOL     OW 1756   0.613   3.227   0.726
  579SOL    HW1 1757   0.564   3.140   0.735
  579SOL    HW2 1758   0.590   3.270   0.639
  580SOL     OW 1759   1.293   3.090   1.423
  580SOL    HW1 1760   1.330   3.017   1.365
  580SOL    HW2 1761   1.345   3.095   1.508
  581SOL     OW 1762   0.809   1.866   0.502
  581SOL    HW1 1763   0.849   1.957   0.493
  581SOL    HW2 1764   0.709   1.874   0.508
  582SOL     OW 1765   0.197   2.838   1.264
  582SOL    HW1 1766   0.286   2.793   1.250
  582SOL    HW2 1767   0.124   2.773   1.245
  583SOL     OW 1768   1.525   2.861   0.190
  583SOL    HW1 1769   1.462   2.785   0.203
  583SOL    HW2 1770   1.573   2.879   0.276
  584SOL     OW 1771   1.187   3.654   1.616
  584SOL    HW1 1772   1.211   3.714   1.540
  584SOL    HW2 1773   1.194   3.559   1.586
  585SOL     OW 1774   0.317   2.113   1.801
  585SOL    HW1 1775   0.388   2.184   1.807
  585SOL    HW2 1776   0.229   2.152   1.829
  586SOL     OW 1777   1.466   3.279   0.953
  586SOL    HW1 1778   1.407   3.285   1.033
  586SOL    HW2 1779   1.451   3.191   0.907
  587SOL     OW 1780   1.667   3.576   0.572
  587SOL    HW1 1781   1.626   3.553   0.484
  587SOL    HW2 1782   1.649   3.502   0.637
  588SOL     OW 1783   0.598   2.591   0.270
  588SOL    HW1 1784   0.622   2.660   0.202
  588SOL    HW2 1785   0.520   2.624   0.324
  589SOL     OW 1786   1.281   2.207   0.944
  589SOL    HW1 1787   1.195   2.157   0.931
  589SOL    HW2 1788   1.343   2.153   1.000
  590SOL     OW 1789   1.576   3.524   0.307
  590SOL    HW1 1790   1.665   3.570   0.310
  590SOL    HW2 1791   1.555   3.500   0.212
  591SOL     OW 1792   0.807   2.467   1.465
  591SOL    HW1 1793   0.760   2.464   1.554
  591SOL    HW2 1794   0.756   2.412   1.399
  592SOL     OW 1795   1.394   2.331   1.674
  592SOL    HW1 1796   1.374   2.374   1.762
  592SOL    HW2 1797   1.472   2.269   1.683
  593SOL     OW 1798   0.973   2.752   1.572
  593SOL    HW1 1799   1.019   2.668   1.543
  593SOL    HW2 1800   0.917   2.786   1.497
  594SOL     OW 1801   0.991   2.272   1.242
  594SOL    HW1 1802   0.914   2.306   1.296
  594SOL    HW2 1803   0.957   2.221   1.163
  595SOL     OW 1804   1.041   2.563   0.429
  595SOL    HW1 1805   1.067   2.559   0.525
  595SOL    HW2 1806   0.956   2.512   0.415
  596SOL     OW 1807   0.076   2.673   0.789
  596SOL    HW1 1808   0.175   2.661   0.798
  596SOL    HW2 1809   0.052   2.768   0.810
  597SOL     OW 1810   0.130   3.683   1.571
  597SOL    HW1 1811   0.120   3.668   1.670
  597SOL    HW2 1812   0.044   3.719   1.535
  598SOL     OW 1813   0.865   2.210   0.195
  598SOL    HW1 1814   0.924   2.273   0.146
  598SOL    HW2 1815   0.884   2.116   0.166
  599SOL     OW 1816   1.719   2.447   1.831
  599SOL    HW1 1817   1.693   2.536   1.795
  599SOL    HW2 1818   1.717   2.379   1.758
  600SOL     OW 1819   1.362   3.006   0.545
  600SOL    HW1 1820   1.445   2.977   0.497
  600SOL    HW2 1821   1.313   3.073   0.489
  601SOL     OW 1822   0.550   2.058   0.885
  601SOL    HW1 1823   0.545   2.053   0.985
  601SOL    HW2 1824   0.552   2.154   0.856
  602SOL     OW 1825   1.008   3.318   0.477
  602SOL    HW1 1826   0.962   3.390   0.425
  602SOL    HW2 1827   1.004   3.338   0.575
  603SOL     OW 1828   0.351   3.663   0.853
  603SOL    HW1 1829   0.401   3.577   0.859
  603SOL    HW2 1830   0.416   3.740   0.850
  604SOL     OW 1831   1.795   2.928   0.873
  604SOL    HW1 1832   1.733   2.913   0.797
  604SOL    HW2 1833   1.743   2.939   0.958
  605SOL     OW 1834   1.227   3.412   1.506
  605SOL    HW1 1835   1.233   3.335   1.570
  605SOL    HW2 1836   1.175   3.386   1.426
  606SOL     OW 1837   0.321   2.805   0.242
  606SOL    HW1 1838   0.403   2.844   0.200
  606SOL    HW2 1839   0.294   2.723   0.193
  607SOL     OW 1840   1.458   2.597   0.728
  607SOL    HW1 1841   1.453   2.532   0.803
  607SOL    HW2 1842   1.538   2.656   0.741
  608SOL     OW 1843   0.461   3.128   1.727
  608SOL    HW1 1844   0.411   3.129   1.641
  608SOL    HW2 1845   0.398   3.110   1.803
  609SOL     OW 1846   1.111   3.638   0.237
  609SOL    HW1 1847   1.051   3.576   0.287
  609SOL    HW2 1848   1.142   3.594   0.152
  610SOL     OW 1849   0.202   2.147   1.498
  610SOL    HW1 1850   0.122   2.207   1.485
  610SOL    HW2 1851   0.192   2.098   1.584
  611SOL     OW 1852   1.632   3.239   0.081
  611SOL    HW1 1853   1.600   3.333   0.071
  611SOL    HW2 1854   1.556   3.176   0.069
  612SOL     OW 1855   0.464   3.605   0.323
  612SOL    HW1 1856   0.497   3.644   0.409
  612SOL    HW2 1857   0.540   3.598   0.258
  613SOL     OW 1858   1.400   1.969   0.426
  613SOL    HW1 1859   1.376   1.932   0.336
  613SOL    HW2 1860   1.499   1.985   0.430
  614SOL     OW 1861   0.249   3.647   1.241
  614SOL    HW1 1862   0.306   3.582   1.291
  614SOL    HW2 1863   0.233   3.614   1.148
  615SOL     OW 1864   0.940   3.560   0.904
  615SOL    HW1 1865   1.020   3.503   0.925
  615SOL    HW2 1866   0.891   3.520   0.827
  616SOL     OW 1867   0.382   2.562   0.480
  616SOL    HW1 1868   0.427   2.472   0.477
  616SOL    HW2 1869   0.288   2.551   0.513
  617SOL     OW 1870   1.547   2.084   1.729
  617SOL    HW1 1871   1.542   2.121   1.821
  617SOL    HW2 1872   1.475   2.015   1.717
  618SOL     OW 1873   0.614   1.984   0.117
  618SOL    HW1 1874   0.712   1.962   0.124
  618SOL    HW2 1875   0.583   1.967   0.024
  619SOL     OW 1876   0.781   2.126   1.749
  619SOL    HW1 1877   0.848   2.065   1.792
  619SOL    HW2 1878   0.708   2.145   1.814
  620SOL     OW 1879   0.888   3.376   1.195
  620SOL    HW1 1880   0.865   3.351   1.101
  620SOL    HW2 1881   0.949   3.307   1.234
  621SOL     OW 1882   1.351   2.452   1.433
  621SOL    HW1 1883   1.379   2.409   1.518
  621SOL    HW2 1884   1.376   2.548   1.434
  622SOL     OW 1885   0.803   3.264   0.924
  622SOL    HW1 1886   0.893   3.278   0.882
  622SOL    HW2 1887   0.732   3.266   0.853
  623SOL     OW 1888   0.922   2.365   0.899
  623SOL    HW1 1889   0.897   2.356   0.803
  623SOL    HW2 1890   0.970   2.283   0.930
  624SOL     OW 1891   0.539   1.926   0.512
  624SOL    HW1 1892   0.458   1.927   0.570
  624SOL    HW2 1893   0.542   2.009   0.457
  625SOL     OW 1894   1.434   3.050   0.041
  625SOL    HW1 1895   1.466   2.974   0.098
  625SOL    HW2 1896   1.342   3.077   0.071
  626SOL     OW 1897   0.935   2.098   0.480
  626SOL    HW1 1898   0.887   2.139   0.402
  626SOL    HW2 1899   1.034   2.096   0.461
  627SOL     OW 1900   1.076   2.545   1.464
  627SOL    HW1 1901   0.996   2.484   1.467
  627SOL    HW2 1902   1.157   2.492   1.440
  628SOL     OW 1903   1.227   3.432   0.793
  628SOL    HW1 1904   1.248   3.506   0.728
  628SOL    HW2 1905   1.295   3.432   0.866
  629SOL     OW 1906   0.459   3.014   0.741
  629SOL    HW1 1907   0.388   2.987   0.806
  629SOL    HW2 1908   0.433   2.986   0.648
  630SOL     OW 1909   1.271   3.659   0.591
  630SOL    HW1 1910   1.315   3.723   0.527
  630SOL    HW2 1911   1.221   3.711   0.661
  631SOL     OW 1912   1.032   2.411   0.016
  631SOL    HW1 1913   0.991   2.493  -0.023
  631SOL    HW2 1914   1.096   2.437   0.089
  632SOL     OW 1915   0.078   2.418   1.386
  632SOL    HW1 1916   0.170   2.417   1.345
  632SOL    HW2 1917   0.072   2.492   1.453
  633SOL     OW 1918   0.561   2.084   1.147
  633SOL    HW1 1919   0.599   2.000   1.184
  633SOL    HW2 1920   0.473   2.103   1.191
  634SOL     OW 1921   0.866   2.316   0.642
  634SOL    HW1 1922   0.834   2.388   0.580
  634SOL    HW2 1923   0.890   2.235   0.589
  635SOL     OW 1924   1.017   1.901   0.753
  635SOL    HW1 1925   0.945   1.906   0.684
  635SOL    HW2 1926   0.993   1.832   0.822
  636SOL     OW 1927   1.429   3.035   0.867
  636SOL    HW1 1928   1.374   2.951   0.860
  636SOL    HW2 1929   1.455   3.064   0.775
  637SOL     OW 1930   1.466   2.452   0.992
  637SOL    HW1 1931   1.436   2.357   0.999
  637SOL    HW2 1932   1.539   2.468   1.058
  638SOL     OW 1933   1.857   2.695   0.377
  638SOL    HW1 1934   1.899   2.631   0.441
  638SOL    HW2 1935   1.819   2.644   0.299
  639SOL     OW 1936   0.488   3.247   0.174
  639SOL    HW1 1937   0.401   3.232   0.221
  639SOL    HW2 1938   0.471   3.273   0.079
  640SOL     OW 1939   1.664   3.142   0.657
  640SOL    HW1 1940   1.763   3.150   0.671
  640SOL    HW2 1941   1.619   3.226   0.688
  641SOL     OW 1942   1.390   2.437   0.078
  641SOL    HW1 1943   1.336   2.416   0.159
  641SOL    HW2 1944   1.481   2.396   0.087
  642SOL     OW 1945   0.527   2.118   0.328
  642SOL    HW1 1946   0.554   2.059   0.253
  642SOL    HW2 1947   0.527   2.213   0.297
  643SOL     OW 1948   1.754   3.085   1.588
  643SOL    HW1 1949   1.845   3.046   1.575
  643SOL    HW2 1950   1.762   3.181   1.612
  644SOL     OW 1951   1.064   3.209   1.340
  644SOL    HW1 1952   0.984   3.186   1.395
  644SOL    HW2 1953   1.147   3.183   1.389
  645SOL     OW 1954   1.592   3.491   1.625
  645SOL    HW1 1955   1.619   3.525   1.535
  645SOL    HW2 1956   1.671   3.453   1.671
  646SOL     OW 1957   1.111   3.057   1.100
  646SOL    HW1 1958   1.071   3.101   1.181
  646SOL    HW2 1959   1.070   3.094   1.017
  647SOL     OW 1960   1.638   2.961   1.079
  647SOL    HW1 1961   1.643   3.042   1.138
  647SOL    HW2 1962   1.552   2.963   1.028
  648SOL     OW 1963   0.915   1.951   1.402
  648SOL    HW1 1964   0.940   1.931   1.307
  648SOL    HW2 1965   0.987   2.007   1.444
  649SOL     OW 1966   0.980   2.978   1.719
  649SOL    HW1 1967   0.881   2.984   1.729
  649SOL    HW2 1968   1.003   2.898   1.663
  650SOL     OW 1969   0.705   2.912   0.368
  650SOL    HW1 1970   0.691   2.919   0.467
  650SOL    HW2 1971   0.789   2.861   0.350
  651SOL     OW 1972   0.410   2.675   1.251
  651SOL    HW1 1973   0.496   2.687   1.301
  651SOL    HW2 1974   0.368   2.588   1.278
  652SOL     OW 1975   1.274   2.248   1.262
  652SOL    HW1 1976   1.295   2.322   1.326
  652SOL    HW2 1977   1.185   2.265   1.219
  653SOL     OW 1978   0.064   3.426   1.331
  653SOL    HW1 1979   0.018   3.508   1.297
  653SOL    HW2 1980   0.162   3.445   1.340
  654SOL     OW 1981   0.367   2.962   0.501
  654SOL    HW1 1982   0.360   3.045   0.445
  654SOL    HW2 1983   0.371   2.882   0.441
  655SOL     OW 1984   0.566   2.399   0.865
  655SOL    HW1 1985   0.578   2.465   0.791
  655SOL    HW2 1986   0.612   2.433   0.948
  656SOL     OW 1987   1.252   3.210   0.388
  656SOL    HW1 1988   1.302   3.287   0.428
  656SOL    HW2 1989   1.157   3.212   0.420
  657SOL     OW 1990   1.272   3.307   1.142
  657SOL    HW1 1991   1.319   3.320   1.229
  657SOL    HW2 1992   1.206   3.233   1.151
  658SOL     OW 1993   1.582   2.501   0.472
  658SOL    HW1 1994   1.551   2.562   0.545
  658SOL    HW2 1995   1.632   2.553   0.403
  659SOL     OW 1996   0.354   3.372   1.329
  659SOL    HW1 1997   0.333   3.328   1.242
  659SOL    HW2 1998   0.451   3.398   1.332
  660SOL     OW 1999   0.402   2.613   1.598
  660SOL    HW1 2000   0.470   2.668   1.551
  660SOL    HW2 2001   0.442   2.525   1.625
  661SOL     OW 2002   1.587   2.641   1.670
  661SOL    HW1 2003   1.495   2.679   1.665
  661SOL    HW2 2004   1.647   2.688   1.605
  662SOL     OW 2005   1.013   1.967   1.770
  662SOL    HW1 2006   1.019   2.052   1.718
  662SOL    HW2 2007   1.045   1.891   1.713
  663SOL     OW 2008   0.504   1.912   1.740
  663SOL    HW1 2009   0.462   1.855   1.670
  663SOL    HW2 2010   0.438   1.981   1.772
  664SOL     OW 2011   0.573   2.732   1.029
  664SOL    HW1 2012   0.617   2.821   1.020
  664SOL    HW2 2013   0.510   2.732   1.106
  665SOL     OW 2014   1.360   2.724   1.045
  665SOL    HW1 2015   1.285   2.724   0.979
  665SOL    HW2 2016   1.397   2.632   1.054
  666SOL     OW 2017   1.209   2.387   0.275
  666SOL    HW1 2018   1.222   2.303   0.329
  666SOL    HW2 2019   1.180   2.461   0.335
  667SOL     OW 2020   0.307   2.075   1.231
  667SOL    HW1 2021   0.284   2.112   1.321
  667SOL    HW2 2022   0.277   1.980   1.225
  668SOL     OW 2023   0.037   3.172   1.282
  668SOL    HW1 2024   0.090   3.123   1.350
  668SOL    HW2 2025   0.059   3.270   1.287
  669SOL     OW 2026   0.732   2.496   1.064
  669SOL    HW1 2027   0.791   2.470   0.988
  669SOL    HW2 2028   0.704   2.592   1.053
  670SOL     OW 2029   1.728   2.797   1.854
  670SOL    HW1 2030   1.682   2.790   1.765
  670SOL    HW2 2031   1.666   2.841   1.920
  671SOL     OW 2032   0.307   1.925   0.618
  671SOL    HW1 2033   0.296   2.019   0.651
  671SOL    HW2 2034   0.302   1.862   0.695
  672SOL     OW 2035   1.622   2.229   0.374
  672SOL    HW1 2036   1.624   2.153   0.438
  672SOL    HW2 2037   1.574   2.306   0.414
  673SOL     OW 2038   1.023   2.628   0.966
  673SOL    HW1 2039   1.038   2.649   1.062
  673SOL    HW2 2040   0.993   2.533   0.957
  674SOL     OW 2041   0.980   3.435   1.700
  674SOL    HW1 2042   0.960   3.479   1.612
  674SOL    HW2 2043   1.019   3.344   1.684
  675SOL     OW 2044   1.859   3.380   1.605
  675SOL    HW1 2045   1.873   3.407   1.510
  675SOL    HW2 2046   1.942   3.402   1.658
  676SOL     OW 2047   0.350   2.760   1.804
  676SOL    HW1 2048   0.426   2.804   1.852
  676SOL    HW2 2049   0.385   2.713   1.722
  677SOL     OW 2050   1.540   2.136   0.125
  677SOL    HW1 2051   1.479   2.061   0.148
  677SOL    HW2 2052   1.562   2.188   0.208
  678SOL     OW 2053   1.303   2.700   0.042
  678SOL    HW1 2054   1.337   2.607   0.057
  678SOL    HW2 2055   1.321   2.727  -0.053
  679SOL     OW 2056   1.068   3.195   0.849
  679SOL    HW1 2057   1.075   3.111   0.794
  679SOL    HW2 2058   1.130   3.264   0.813
  680SOL     OW 2059   0.319   2.672   0.949
  680SOL    HW1 2060   0.412   2.708   0.954
  680SOL    HW2 2061   0.313   2.587   1.001
  681SOL     OW 2062   0.339   2.371   1.006
  681SOL    HW1 2063   0.287   2.288   0.989
  681SOL    HW2 2064   0.416   2.376   0.942
  682SOL     OW 2065   1.138   2.242   1.678
  682SOL    HW1 2066   1.093   2.305   1.742
  682SOL    HW2 2067   1.231   2.273   1.661
  683SOL     OW 2068   1.160   2.069   1.477
  683SOL    HW1 2069   1.160   2.133   1.554
  683SOL    HW2 2070   1.188   2.117   1.394
  684SOL     OW 2071   0.008   3.188   0.200
  684SOL    HW1 2072  -0.085   3.209   0.169
  684SOL    HW2 2073   0.018   3.089   0.213
  685SOL     OW 2074   0.088   3.663   0.927
  685SOL    HW1 2075   0.046   3.577   0.900
  685SOL    HW2 2076   0.182   3.666   0.893
  686SOL     OW 2077   0.504   3.430   0.910
  686SOL    HW1 2078   0.570   3.504   0.919
  686SOL    HW2 2079   0.548   3.351   0.868
  687SOL     OW 2080   1.002   2.658   1.238
  687SOL    HW1 2081   1.043   2.626   1.324
  687SOL    HW2 2082   0.906   2.631   1.235
  688SOL     OW 2083   0.040   2.406   1.114
  688SOL    HW1 2084   0.125   2.373   1.073
  688SOL    HW2 2085   0.053   2.421   1.212
  689SOL     OW 2086   0.189   2.382   1.722
  689SOL    HW1 2087   0.248   2.342   1.652
  689SOL    HW2 2088   0.131   2.453   1.681
  690SOL     OW 2089   1.369   2.812   1.660
  690SOL    HW1 2090   1.408   2.901   1.680
  690SOL    HW2 2091   1.379   2.792   1.563
  691SOL     OW 2092   0.815   2.434   0.325
  691SOL    HW1 2093   0.822   2.345   0.279
  691SOL    HW2 2094   0.721   2.468   0.317
  692SOL     OW 2095   1.657   2.466   1.206
  692SOL    HW1 2096   1.619   2.397   1.268
  692SOL    HW2 2097   1.739   2.430   1.162
  693SOL     OW 2098   0.252   3.426   1.744
  693SOL    HW1 2099   0.222   3.483   1.820
  693SOL    HW2 2100   0.245   3.329   1.770
  694SOL     OW 2101   0.671   2.326   1.269
  694SOL    HW1 2102   0.637   2.237   1.239
  694SOL    HW2 2103   0.697   2.380   1.189
  695SOL     OW 2104   0.930   3.540   1.465
  695SOL    HW1 2105   0.906   3.522   1.370
  695SOL    HW2 2106   0.960   3.634   1.475
  696SOL     OW 2107   0.473   2.362   0.191
  696SOL    HW1 2108   0.534   2.442   0.195
  696SOL    HW2 2109   0.378   2.393   0.198
  697SOL     OW 2110   0.159   2.999   1.466
  697SOL    HW1 2111   0.181   2.938   1.542
  697SOL    HW2 2112   0.169   2.950   1.380
  698SOL     OW 2113   1.347   2.921   1.234
  698SOL    HW1 2114   1.371   2.858   1.160
  698SOL    HW2 2115   1.257   2.961   1.216
  699SOL     OW 2116   1.302   2.717   0.309
  699SOL    HW1 2117   1.216   2.686   0.351
  699SOL    HW2 2118   1.298   2.703   0.210
  700SOL     OW 2119   1.759   3.609   1.154
  700SOL    HW1 2120   1.820   3.639   1.081
  700SOL    HW2 2121   1.721   3.520   1.132
  701SOL     OW 2122   1.252   3.593   1.128
  701SOL    HW1 2123   1.336   3.598   1.074
  701SOL    HW2 2124   1.229   3.497   1.146
  702SOL     OW 2125   0.083   3.120   1.022
  702SOL    HW1 2126   0.078   3.119   1.122
  702SOL    HW2 2127   0.000   3.079   0.984
  703SOL     OW 2128   0.688   3.524   1.716
  703SOL    HW1 2129   0.632   3.605   1.725
  703SOL    HW2 2130   0.740   3.528   1.630
  704SOL     OW 2131   0.903   1.948   0.133
  704SOL    HW1 2132   0.954   1.949   0.047
  704SOL    HW2 2133   0.959   1.906   0.204
  705SOL     OW 2134   1.726   1.997   0.523
  705SOL    HW1 2135   1.799   1.980   0.456
  705SOL    HW2 2136   1.695   1.910   0.561
  706SOL     OW 2137   1.388   3.435   0.477
  706SOL    HW1 2138   1.455   3.447   0.403
  706SOL    HW2 2139   1.348   3.524   0.500
  707SOL     OW 2140   0.130   3.656   1.851
  707SOL    HW1 2141   0.089   3.582   1.904
  707SOL    HW2 2142   0.194   3.707   1.909
  708SOL     OW 2143   1.280   2.789   0.672
  708SOL    HW1 2144   1.340   2.708   0.674
  708SOL    HW2 2145   1.320   2.858   0.612
  709SOL     OW 2146   0.830   3.135   1.422
  709SOL    HW1 2147   0.825   3.168   1.517
  709SOL    HW2 2148   0.744   3.154   1.376
  710SOL     OW 2149   0.672   3.478   0.154
  710SOL    HW1 2150   0.681   3.488   0.055
  710SOL    HW2 2151   0.632   3.389   0.175
  711SOL     OW 2152   1.650   3.582   1.394
  711SOL    HW1 2153   1.703   3.592   1.310
  711SOL    HW2 2154   1.623   3.672   1.428
  712SOL     OW 2155   1.841   2.037   0.963
  712SOL    HW1 2156   1.880   1.952   0.927
  712SOL    HW2 2157   1.743   2.039   0.944
  713SOL     OW 2158   0.263   2.188   0.720
  713SOL    HW1 2159   0.184   2.239   0.686
  713SOL    HW2 2160   0.254   2.173   0.818
  714SOL     OW 2161   1.194   3.474   0.031
  714SOL    HW1 2162   1.200   3.381   0.068
  714SOL    HW2 2163   1.135   3.474  -0.049
  715SOL     OW 2164   0.822   2.864   1.372
  715SOL    HW1 2165   0.862   2.863   1.280
  715SOL    HW2 2166   0.832   2.956   1.412
  716SOL     OW 2167   0.916   2.772   0.291
  716SOL    HW1 2168   0.979   2.810   0.223
  716SOL    HW2 2169   0.956   2.689   0.330
  717SOL     OW 2170   1.504   3.469   0.044
  717SOL    HW1 2171   1.412   3.506   0.051
  717SOL    HW2 2172   1.542   3.489  -0.046
  718SOL     OW 2173   0.372   3.150   1.490
  718SOL    HW1 2174   0.359   3.243   1.456
  718SOL    HW2 2175   0.288   3.098   1.477
  719SOL     OW 2176   1.614   3.154   1.289
  719SOL    HW1 2177   1.674   3.157   1.369
  719SOL    HW2 2178   1.539   3.218   1.302
  720SOL     OW 2179   1.039   2.960   0.696
  720SOL    HW1 2180   0.969   2.913   0.750
  720SOL    HW2 2181   1.098   2.892   0.653
  721SOL     OW 2182   1.014   2.098   0.971
  721SOL    HW1 2183   1.006   2.062   0.878
  721SOL    HW2 2184   1.012   2.022   1.036
  722SOL     OW 2185   0.590   3.349   0.491
  722SOL    HW1 2186   0.632   3.291   0.421
  722SOL    HW2 2187   0.546   3.428   0.447
  723SOL     OW 2188   1.709   2.247   1.381
  723SOL    HW1 2189   1.782   2.316   1.385
  723SOL    HW2 2190   1.737   2.172   1.322
  724SOL     OW 2191   0.255   3.210   0.290
  724SOL    HW1 2192   0.159   3.211   0.263
  724SOL    HW2 2193   0.267   3.263   0.374
  725SOL     OW 2194   0.105   2.875   1.726
  725SOL    HW1 2195   0.028   2.842   1.780
  725SOL    HW2 2196   0.190   2.845   1.768
  726SOL     OW 2197   0.672   2.065   1.489
  726SOL    HW1 2198   0.762   2.049   1.449
  726SOL    HW2 2199   0.680   2.070   1.588
  727SOL     OW 2200   0.075   2.207   0.033
  727SOL    HW1 2201  -0.017   2.179   0.004
  727SOL    HW2 2202   0.106   2.284  -0.023
  728SOL     OW 2203   1.440   2.718   1.398
  728SOL    HW1 2204   1.383   2.770   1.335
  728SOL    HW2 2205   1.536   2.730   1.374
  729SOL     OW 2206   0.072   2.028   0.318
  729SOL    HW1 2207   0.055   2.111   0.264
  729SOL    HW2 2208   0.162   1.991   0.296
  730SOL     OW 2209   1.183   3.197   0.119
  730SOL    HW1 2210   1.084   3.186   0.121
  730SOL    HW2 2211   1.217   3.212   0.212
  731SOL     OW 2212   0.613   2.704   1.431
  731SOL    HW1 2213   0.669   2.785   1.414
  731SOL    HW2 2214   0.672   2.624   1.434
  732SOL     OW 2215   1.493   3.629   0.959
  732SOL    HW1 2216   1.526   3.693   0.890
  732SOL    HW2 2217   1.559   3.623   1.034
  733SOL     OW 2218   0.716   2.427   1.708
  733SOL    HW1 2219   0.735   2.492   1.782
  733SOL    HW2 2220   0.776   2.347   1.717
  734SOL     OW 2221   1.450   3.082   1.633
  734SOL    HW1 2222   1.441   3.072   1.732
  734SOL    HW2 2223   1.546   3.075   1.607
  735SOL     OW 2224   0.390   3.603   1.560
  735SOL    HW1 2225   0.299   3.644   1.558
  735SOL    HW2 2226   0.383   3.509   1.592
  736SOL     OW 2227   1.674   2.745   1.254
  736SOL    HW1 2228   1.647   2.656   1.217
  736SOL    HW2 2229   1.675   2.813   1.181
  737SOL     OW 2230   1.225   2.187   0.449
  737SOL    HW1 2231   1.290   2.113   0.438
  737SOL    HW2 2232   1.245   2.237   0.533
  738SOL     OW 2233   0.594   2.607   0.652
  738SOL    HW1 2234   0.644   2.692   0.633
  738SOL    HW2 2235   0.506   2.609   0.604
  739SOL     OW 2236   1.777   2.204   1.642
  739SOL    HW1 2237   1.760   2.235   1.548
  739SOL    HW2 2238   1.693   2.167   1.680
  740SOL     OW 2239   1.730   2.796   1.517
  740SOL    HW1 2240   1.768   2.887   1.532
  740SOL    HW2 2241   1.722   2.779   1.418
  741SOL     OW 2242   0.859   3.236   0.016
  741SOL    HW1 2243   0.813   3.251   0.104
  741SOL    HW2 2244   0.903   3.321  -0.014
  742SOL     OW 2245   0.661   3.652   0.953
  742SOL    HW1 2246   0.615   3.740   0.940
  742SOL    HW2 2247   0.760   3.664   0.946
  743SOL     OW 2248   0.859   2.818   0.861
  743SOL    HW1 2249   0.913   2.749   0.909
  743SOL    HW2 2250   0.827   2.887   0.927
  744SOL     OW 2251   1.083   2.846   0.087
  744SOL    HW1 2252   1.060   2.899   0.005
  744SOL    HW2 2253   1.164   2.790   0.068
  745SOL     OW 2254   1.861   3.431   0.851
  745SOL    HW1 2255   1.790   3.419   0.781
  745SOL    HW2 2256   1.862   3.352   0.911
  746SOL     OW 2257   0.221   3.176   1.844
  746SOL    HW1 2258   0.156   3.103   1.823
  746SOL    HW2 2259   0.225   3.190   1.942
  747SOL     OW 2260   0.079   3.102   0.653
  747SOL    HW1 2261   0.078   3.055   0.741
  747SOL    HW2 2262   0.161   3.074   0.602
  748SOL     OW 2263   0.672   3.253   1.624
  748SOL    HW1 2264   0.594   3.203   1.662
  748SOL    HW2 2265   0.669   3.348   1.655
  749SOL     OW 2266   1.824   2.054   1.227
  749SOL    HW1 2267   1.820   1.964   1.271
  749SOL    HW2 2268   1.827   2.043   1.128
  750SOL     OW 2269   0.428   2.286   0.520
  750SOL    HW1 2270   0.458   2.214   0.458
  750SOL    HW2 2271   0.389   2.246   0.603
  751SOL     OW 2272   1.705   3.349   1.104
  751SOL    HW1 2273   1.612   3.324   1.077
  751SOL    HW2 2274   1.731   3.299   1.186
  752SOL     OW 2275   0.317   2.409   1.280
  752SOL    HW1 2276   0.355   2.350   1.352
  752SOL    HW2 2277   0.357   2.383   1.192
  753SOL     OW 2278   0.812   3.448   0.687
  753SOL    HW1 2279   0.844   3.458   0.593
  753SOL    HW2 2280   0.733   3.386   0.689
  754SOL     OW 2281   1.424   2.076   1.112
  754SOL    HW1 2282   1.476   2.011   1.167
  754SOL    HW2 2283   1.375   2.139   1.173
  755SOL     OW 2284   1.001   1.896   1.154
  755SOL    HW1 2285   0.938   1.824   1.123
  755SOL    HW2 2286   1.094   1.860   1.154
  756SOL     OW 2287   0.770   3.192   0.301
  756SOL    HW1 2288   0.724   3.105   0.318
  756SOL    HW2 2289   0.861   3.189   0.342
  757SOL     OW 2290   0.618   3.429   1.284
  757SOL    HW1 2291   0.613   3.511   1.341
  757SOL    HW2 2292   0.707   3.426   1.239
  758SOL     OW 2293   1.352   1.914   0.168
  758SOL    HW1 2294   1.387   1.873   0.084
  758SOL    HW2 2295   1.262   1.876   0.188
  759SOL     OW 2296   1.300   2.315   0.691
  759SOL    HW1 2297   1.241   2.395   0.695
  759SOL    HW2 2298   1.315   2.280   0.784
  760SOL     OW 2299   1.593   2.083   0.882
  760SOL    HW1 2300   1.509   2.082   0.936
  760SOL    HW2 2301   1.595   2.166   0.826
  761SOL     OW 2302   0.039   2.939   0.300
  761SOL    HW1 2303   0.138   2.928   0.291
  761SOL    HW2 2304  -0.001   2.853   0.332
  762SOL     OW 2305   0.875   3.508   0.337
  762SOL    HW1 2306   0.798   3.473   0.283
  762SOL    HW2 2307   0.843   3.579   0.399
  763SOL     OW 2308   0.230   2.490   1.975
  763SOL    HW1 2309   0.137   2.488   2.012
  763SOL    HW2 2310   0.231   2.451   1.883
  764SOL     OW 2311   0.225   2.137   2.858
  764SOL    HW1 2312   0.260   2.120   2.950
  764SOL    HW2 2313   0.137   2.092   2.846
  765SOL     OW 2314   0.019   2.230   2.509
  765SOL    HW1 2315  -0.063   2.273   2.548
  765SOL    HW2 2316  -0.009   2.157   2.446
  766SOL     OW 2317   0.569   3.137   3.027
  766SOL    HW1 2318   0.476   3.130   2.990
  766SOL    HW2 2319   0.580   3.226   3.071
  767SOL     OW 2320   1.555   3.373   2.565
  767SOL    HW1 2321   1.498   3.357   2.646
  767SOL    HW2 2322   1.496   3.383   2.485
  768SOL     OW 2323   1.135   2.565   2.579
  768SOL    HW1 2324   1.192   2.643   2.554
  768SOL    HW2 2325   1.075   2.591   2.655
  769SOL     OW 2326   1.755   2.469   2.093
  769SOL    HW1 2327   1.743   2.456   1.994
  769SOL    HW2 2328   1.725   2.388   2.142
  770SOL     OW 2329   0.768   3.006   2.885
  770SOL    HW1 2330   0.690   3.023   2.945
  770SOL    HW2 2331   0.802   3.093   2.849
  771SOL     OW 2332   0.850   2.660   3.685
  771SOL    HW1 2333   0.846   2.736   3.750
  771SOL    HW2 2334   0.872   2.696   3.594
  772SOL     OW 2335   0.685   2.874   2.527
  772SOL    HW1 2336   0.754   2.858   2.597
  772SOL    HW2 2337   0.612   2.931   2.565
  773SOL     OW 2338   0.686   3.023   3.665
  773SOL    HW1 2339   0.746   3.102   3.679
  773SOL    HW2 2340   0.600   3.054   3.624
  774SOL     OW 2341   0.335   3.297   2.923
  774SOL    HW1 2342   0.257   3.266   2.870
  774SOL    HW2 2343   0.393   3.355   2.866
  775SOL     OW 2344   1.460   3.367   3.201
  775SOL    HW1 2345   1.484   3.461   3.227
  775SOL    HW2 2346   1.444   3.313   3.283
  776SOL     OW 2347   0.438   2.254   3.361
  776SOL    HW1 2348   0.520   2.198   3.370
  776SOL    HW2 2349   0.357   2.196   3.365
  777SOL     OW 2350   1.603   2.309   2.599
  777SOL    HW1 2351   1.529   2.355   2.549
  777SOL    HW2 2352   1.654   2.377   2.652
  778SOL     OW 2353   0.231   3.575   2.345
  778SOL    HW1 2354   0.265   3.652   2.399
  778SOL    HW2 2355   0.275   3.575   2.255
  779SOL     OW 2356   1.127   3.203   3.552
  779SOL    HW1 2357   1.174   3.203   3.640
  779SOL    HW2 2358   1.079   3.116   3.541
  780SOL     OW 2359   0.230   3.296   2.400
  780SOL    HW1 2360   0.204   3.392   2.400
  780SOL    HW2 2361   0.159   3.242   2.445
  781SOL     OW 2362   0.240   2.953   2.748
  781SOL    HW1 2363   0.254   2.869   2.800
  781SOL    HW2 2364   0.185   3.017   2.803
  782SOL     OW 2365   0.620   3.648   3.301
  782SOL    HW1 2366   0.528   3.631   3.336
  782SOL    HW2 2367   0.648   3.740   3.327
  783SOL     OW 2368   0.606   2.826   1.985
  783SOL    HW1 2369   0.613   2.910   1.931
  783SOL    HW2 2370   0.652   2.839   2.073
  784SOL     OW 2371   1.594   1.976   3.342
  784SOL    HW1 2372   1.576   2.043   3.270
  784SOL    HW2 2373   1.591   2.022   3.431
  785SOL     OW 2374   0.122   2.505   2.425
  785SOL    HW1 2375   0.077   2.417   2.442
  785SOL    HW2 2376   0.121   2.559   2.509
  786SOL     OW 2377   1.842   3.629   2.221
  786SOL    HW1 2378   1.896   3.600   2.301
  786SOL    HW2 2379   1.872   3.719   2.192
  787SOL     OW 2380   0.027   3.458   1.979
  787SOL    HW1 2381   0.008   3.362   2.000
  787SOL    HW2 2382  -0.006   3.516   2.054
  788SOL     OW 2383   1.689   2.784   2.474
  788SOL    HW1 2384   1.784   2.755   2.482
  788SOL    HW2 2385   1.681   2.849   2.399
  789SOL     OW 2386   1.641   2.970   2.294
  789SOL    HW1 2387   1.727   2.972   2.242
  789SOL    HW2 2388   1.655   3.017   2.382
  790SOL     OW 2389   0.113   2.599   3.459
  790SOL    HW1 2390   0.201   2.586   3.504
  790SOL    HW2 2391   0.100   2.696   3.437
  791SOL     OW 2392   0.613   3.227   2.588
  791SOL    HW1 2393   0.564   3.140   2.597
  791SOL    HW2 2394   0.590   3.270   2.501
  792SOL     OW 2395   1.293   3.090   3.285
  792SOL    HW1 2396   1.330   3.017   3.227
  792SOL    HW2 2397   1.345   3.095   3.370
  793SOL     OW 2398   0.809   1.866   2.364
  793SOL    HW1 2399   0.849   1.957   2.355
  793SOL    HW2 2400   0.709   1.874   2.370
  794SOL     OW 2401   0.197   2.838   3.126
  794SOL    HW1 2402   0.286   2.793   3.112
  794SOL    HW2 2403   0.124   2.773   3.107
  795SOL     OW 2404   1.525   2.861   2.052
  795SOL    HW1 2405   1.462   2.785   2.065
  795SOL    HW2 2406   1.573   2.879   2.138
  796SOL     OW 2407   1.187   3.654   3.478
  796SOL    HW1 2408   1.211   3.714   3.402
  796SOL    HW2 2409   1.194   3.559   3.448
  797SOL     OW 2410   0.317   2.113   3.663
  797SOL    HW1 2411   0.388   2.184   3.669
  797SOL    HW2 2412   0.229   2.152   3.691
  798SOL     OW 2413   1.466   3.279   2.815
  798SOL    HW1 2414   1.407   3.285   2.895
  798SOL    HW2 2415   1.451   3.191   2.769
  799SOL     OW 2416   1.667   3.576   2.434
  799SOL    HW1 2417   1.626   3.553   2.346
  799SOL    HW2 2418   1.649   3.502   2.499
  800SOL     OW 2419   0.598   2.591   2.132
  800SOL    HW1 2420   0.622   2.660   2.064
  800SOL    HW2 2421   0.520   2.624   2.186
  801SOL     OW 2422   1.281   2.207   2.806
  801SOL    HW1 2423   1.195   2.157   2.793
  801SOL    HW2 2424   1.343   2.153   2.862
  802SOL     OW 2425   1.576   3.524   2.169
  802SOL    HW1 2426   1.665   3.570   2.172
  802SOL    HW2 2427   1.555   3.500   2.074
  803SOL     OW 2428   0.807   2.467   3.327
  803SOL    HW1 2429   0.760   2.464   3.416
  803SOL    HW2 2430   0.756   2.412   3.261
  804SOL     OW 2431   1.394   2.331   3.536
  804SOL    HW1 2432   1.374   2.374   3.624
  804SOL    HW2 2433   1.472   2.269   3.545
  805SOL     OW 2434   0.973   2.752   3.434
  805SOL    HW1 2435   1.019   2.668   3.405
  805SOL    HW2 2436   0.917   2.786   3.359
  806SOL     OW 2437   0.991   2.272   3.104
  806SOL    HW1 2438   0.914   2.306   3.158
  806SOL    HW2 2439   0.957   2.221   3.025
  807SOL     OW 2440   1.041   2.563   2.291
  807SOL    HW1 2441   1.067   2.559   2.387
  807SOL    HW2 2442   0.956   2.512   2.277
  808SOL     OW 2443   0.076   2.673   2.651
  808SOL    HW1 2444   0.175   2.661   2.660
  808SOL    HW2 2445   0.052   2.768   2.672
  809SOL     OW 2446   0.130   3.683   3.433
  809SOL    HW1 2447   0.120   3.668   3.532
  809SOL    HW2 2448   0.044   3.719   3.397
  810SOL     OW 2449   0.865   2.210   2.057
  810SOL    HW1 2450   0.924   2.273   2.008
  810SOL    HW2 2451   0.884   2.116   2.028
  811SOL     OW 2452   1.719   2.447   3.693
  811SOL    HW1 2453   1.693   2.536   3.657
  811SOL    HW2 2454   1.717   2.379   3.620
  812SOL     OW 2455   1.362   3.006   2.407
  812SOL    HW1 2456   1.445   2.977   2.359
  812SOL    HW2 2457   1.313   3.073   2.351
  813SOL     OW 2458   0.550   2.058   2.747
  813SOL    HW1 2459   0.545   2.053   2.847
  813SOL    HW2 2460   0.552   2.154   2.718
  814SOL     OW 2461   1.008   3.318   2.339
  814SOL    HW1 2462   0.962   3.390   2.287
  814SOL    HW2 2463   1.004   3.338   2.437
  815SOL     OW 2464   0.351   3.663   2.715
  815SOL    HW1 2465   0.401   3.577   2.721
  815SOL    HW2 2466   0.416   3.740   2.712
  816SOL     OW 2467   1.795   2.928   2.735
  816SOL    HW1 2468   1.733   2.913   2.659
  816SOL    HW2 2469   1.743   2.939   2.820
  817SOL     OW 2470   1.227   3.412   3.368
  817SOL    HW1 2471   1.233   3.335   3.432
  817SOL    HW2 2472   1.175   3.386   3.288
  818SOL     OW 2473   0.321   2.805   2.104
  818SOL    HW1 2474   0.403   2.844   2.062
  818SOL    HW2 2475   0.294   2.723   2.055
  819SOL     OW 2476   1.458   2.597   2.590
  819SOL    HW1 2477   1.453   2.532   2.665
  819SOL    HW2 2478   1.538   2.656   2.603
  820SOL     OW 2479   0.461   3.128   3.589
  820SOL    HW1 2480   0.411   3.129   3.503
  820SOL    HW2 2481   0.398   3.110   3.665
  821SOL     OW 2482   1.111   3.638   2.099
  821SOL    HW1 2483   1.051   3.576   2.149
  821SOL    HW2 2484   1.142   3.594   2.014
  822SOL     OW 2485   0.202   2.147   3.360
  822SOL    HW1 2486   0.122   2.207   3.347
  822SOL    HW2 2487   0.192   2.098   3.446
  823SOL     OW 2488   1.632   3.239   1.943
  823SOL    HW1 2489   1.600   3.333   1.933
  823SOL    HW2 2490   1.556   3.176   1.931
  824SOL     OW 2491   0.464   3.605   2.185
  824SOL    HW1 2492   0.497   3.644   2.271
  824SOL    HW2 2493   0.540   3.598   2.120
  825SOL     OW 2494   1.400   1.969   2.288
  825SOL    HW1 2495   1.376   1.932   2.198
  825SOL    HW2 2496   1.499   1.985   2.292
  826SOL     OW 2497   0.249   3.647   3.103
  826SOL    HW1 2498   0.306   3.582   3.153
  826SOL    HW2 2499   0.233   3.614   3.010
  827SOL     OW 2500   0.940   3.560   2.766
  827SOL    HW1 2501   1.020   3.503   2.787
  827SOL    HW2 2502   0.891   3.520   2.689
  828SOL     OW 2503   0.382   2.562   2.342
  828SOL    HW1 2504   0.427   2.472   2.339
  828SOL    HW2 2505   0.288   2.551   2.375
  829SOL     OW 2506   1.547   2.084   3.591
  829SOL    HW1 2507   1.542   2.121   3.683
  829SOL    HW2 2508   1.475   2.015   3.579
  830SOL     OW 2509   0.614   1.984   1.979
  830SOL    HW1 2510   0.712   1.962   1.986
  830SOL    HW2 2511   0.583   1.967   1.886
  831SOL     OW 2512   0.781   2.126   3.611
  831SOL    HW1 2513   0.848   2.065   3.654
  831SOL    HW2 2514   0.708   2.145   3.676
  832SOL     OW 2515   0.888   3.376   3.057
  832SOL    HW1 2516   0.865   3.351   2.963
  832SOL    HW2 2517   0.949   3.307   3.096
  833SOL     OW 2518   1.351   2.452   3.295
  833SOL    HW1 2519   1.379   2.409   3.380
  833SOL    HW2 2520   1.376   2.548   3.296
  834SOL     OW 2521   0.803   3.264   2.786
  834SOL    HW1 2522   0.893   3.278   2.744
  834SOL    HW2 2523   0.732   3.266   2.715
  835SOL     OW 2524   0.922   2.365   2.761
  835SOL    HW1 2525   0.897   2.356   2.665
  835SOL    HW2 2526   0.970   2.283   2.792
  836SOL     OW 2527   0.539   1.926   2.374
  836SOL    HW1 2528   0.458   1.927   2.432
  836SOL    HW2 2529   0.542   2.009   2.319
  837SOL     OW 2530   1.434   3.050   1.903
  837SOL    HW1 2531   1.466   2.974   1.960
  837SOL    HW2 2532   1.342   3.077   1.933
  838SOL     OW 2533   0.297   1.897   2.033
  838SOL    HW1 2534   0.346   1.981   2.012
  838SOL    HW2 2535   0.359   1.832   2.078
  839SOL     OW 2536   0.935   2.098   2.342
  839SOL    HW1 2537   0.887   2.139   2.264
  839SOL    HW2 2538   1.034   2.096   2.323
  840SOL     OW 2539   1.076   2.545   3.326
  840SOL    HW1 2540   0.996   2.484   3.329
  840SOL    HW2 2541   1.157   2.492   3.302
  841SOL     OW 2542   1.227   3.432   2.655
  841SOL    HW1 2543   1.248   3.506   2.590
  841SOL    HW2 2544   1.295   3.432   2.728
  842SOL     OW 2545   0.459   3.014   2.603
  842SOL    HW1 2546   0.388   2.987   2.668
  842SOL    HW2 2547   0.433   2.986   2.510
  843SOL     OW 2548   1.271   3.659   2.453
  843SOL    HW1 2549   1.315   3.723   2.389
  843SOL    HW2 2550   1.221   3.711   2.523
  844SOL     OW 2551   1.032   2.411   1.878
  844SOL    HW1 2552   0.991   2.493   1.839
  844SOL    HW2 2553   1.096   2.437   1.951
  845SOL     OW 2554   0.078   2.418   3.248
  845SOL    HW1 2555   0.170   2.417   3.207
  845SOL    HW2 2556   0.072   2.492   3.315
  846SOL     OW 2557   0.561   2.084   3.009
  846SOL    HW1 2558   0.599   2.000   3.046
  846SOL    HW2 2559   0.473   2.103   3.053
  847SOL     OW 2560   0.866   2.316   2.504
  847SOL    HW1 2561   0.834   2.388   2.442
  847SOL    HW2 2562   0.890   2.235   2.451
  848SOL     OW 2563   1.017   1.901   2.615
  848SOL    HW1 2564   0.945   1.906   2.546
  848SOL    HW2 2565   0.993   1.832   2.684
  849SOL     OW 2566   1.429   3.035   2.729
  849SOL    HW1 2567   1.374   2.951   2.722
  849SOL    HW2 2568   1.455   3.064   2.637
  850SOL     OW 2569   1.466   2.452   2.854
  850SOL    HW1 2570   1.436   2.357   2.861
  850SOL    HW2 2571   1.539   2.468   2.920
  851SOL     OW 2572   1.857   2.695   2.239
  851SOL    HW1 2573   1.899   2.631   2.303
  851SOL    HW2 2574   1.819   2.644   2.161
  852SOL     OW 2575   0.488   3.247   2.036
  852SOL    HW1 2576   0.401   3.232   2.083
  852SOL    HW2 2577   0.471   3.273   1.941
  853SOL     OW 2578   1.664   3.142   2.519
  853SOL    HW1 2579   1.763   3.150   2.533
  853SOL    HW2 2580   1.619   3.226   2.550
  854SOL     OW 2581   1.390   2.437   1.940
  854SOL    HW1 2582   1.336   2.416   2.021
  854SOL    HW2 2583   1.481   2.396   1.949
  855SOL     OW 2584   0.527   2.118   2.190
  855SOL    HW1 2585   0.554   2.059   2.115
  855SOL    HW2 2586   0.527   2.213   2.159
  856SOL     OW 2587   1.754   3.085   3.450
  856SOL    HW1 2588   1.845   3.046   3.437
  856SOL    HW2 2589   1.762   3.181   3.474
  857SOL     OW 2590   1.064   3.209   3.202
  857SOL    HW1 2591   0.984   3.186   3.257
  857SOL    HW2 2592   1.147   3.183   3.251
  858SOL     OW 2593   1.592   3.491   3.487
  858SOL    HW1 2594   1.619   3.525   3.397
  858SOL    HW2 2595   1.671   3.453   3.533
  859SOL     OW 2596   1.111   3.057   2.962
  859SOL    HW1 2597   1.071   3.101   3.043
  859SOL    HW2 2598   1.070   3.094   2.879
  860SOL     OW 2599   1.638   2.961   2.941
  860SOL    HW1 2600   1.643   3.042   3.000
  860SOL    HW2 2601   1.552   2.963   2.890
  861SOL     OW 2602   0.915   1.951   3.264
  861SOL    HW1 2603   0.940   1.931   3.169
  861SOL    HW2 2604   0.987   2.007   3.306
  862SOL     OW 2605   0.980   2.978   3.581
  862SOL    HW1 2606   0.881   2.984   3.591
  862SOL    HW2 2607   1.003   2.898   3.525
  863SOL     OW 2608   0.705   2.912   2.230
  863SOL    HW1 2609   0.691   2.919   2.329
  863SOL    HW2 2610   0.789   2.861   2.212
  864SOL     OW 2611   0.410   2.675   3.113
  864SOL    HW1 2612   0.496   2.687   3.163
  864SOL    HW2 2613   0.368   2.588   3.140
  865SOL     OW 2614   1.274   2.248   3.124
  865SOL    HW1 2615   1.295   2.322   3.188
  865SOL    HW2 2616   1.185   2.265   3.081
  866SOL     OW 2617   0.064   3.426   3.193
  866SOL    HW1 2618   0.018   3.508   3.159
  866SOL    HW2 2619   0.162   3.445   3.202
  867SOL     OW 2620   0.367   2.962   2.363
  867SOL    HW1 2621   0.360   3.045   2.307
  867SOL    HW2 2622   0.371   2.882   2.303
  868SOL     OW 2623   0.566   2.399   2.727
  868SOL    HW1 2624   0.578   2.465   2.653
  868SOL    HW2 2625   0.612   2.433   2.810
  869SOL     OW 2626   1.252   3.210   2.250
  869SOL    HW1 2627   1.302   3.287   2.290
  869SOL    HW2 2628   1.157   3.212   2.282
  870SOL     OW 2629   1.272   3.307   3.004
  870SOL    HW1 2630   1.319   3.320   3.091
  870SOL    HW2 2631   1.206   3.233   3.013
  871SOL     OW 2632   1.582   2.501   2.334
  871SOL    HW1 2633   1.551   2.562   2.407
  871SOL    HW2 2634   1.632   2.553   2.265
  872SOL     OW 2635   0.354   3.372   3.191
  872SOL    HW1 2636   0.333   3.328   3.104
  872SOL    HW2 2637   0.451   3.398   3.194
  873SOL     OW 2638   0.402   2.613   3.460
  873SOL    HW1 2639   0.470   2.668   3.413
  873SOL    HW2 2640   0.442   2.525   3.487
  874SOL     OW 2641   1.587   2.641   3.532
  874SOL    HW1 2642   1.495   2.679   3.527
  874SOL    HW2 2643   1.647   2.688   3.467
  875SOL     OW 2644   1.013   1.967   3.632
  875SOL    HW1 2645   1.019   2.052   3.580
  875SOL    HW2 2646   1.045   1.891   3.575
  876SOL     OW 2647   0.504   1.912   3.602
  876SOL    HW1 2648   0.462   1.855   3.532
  876SOL    HW2 2649   0.438   1.981   3.634
  877SOL     OW 2650   0.573   2.732   2.891
  877SOL    HW1 2651   0.617   2.821   2.882
  877SOL    HW2 2652   0.510   2.732   2.968
  878SOL     OW 2653   1.360   2.724   2.907
  878SOL    HW1 2654   1.285   2.724   2.841
  878SOL    HW2 2655   1.397   2.632   2.916
  879SOL     OW 2656   1.209   2.387   2.137
  879SOL    HW1 2657   1.222   2.303   2.191
  879SOL    HW2 2658   1.180   2.461   2.197
  880SOL     OW 2659   0.307   2.075   3.093
  880SOL    HW1 2660   0.284   2.112   3.183
  880SOL    HW2 2661   0.277   1.980   3.087
  881SOL     OW 2662   0.037   3.172   3.144
  881SOL    HW1 2663   0.090   3.123   3.212
  881SOL    HW2 2664   0.059   3.270   3.149
  882SOL     OW 2665   0.732   2.496   2.926
  882SOL    HW1 2666   0.791   2.470   2.850
  882SOL    HW2 2667   0.704   2.592   2.915
  883SOL     OW 2668   1.728   2.797   3.716
  883SOL    HW1 2669   1.682   2.790   3.627
  883SOL    HW2 2670   1.666   2.841   3.782
  884SOL     OW 2671   0.307   1.925   2.480
  884SOL    HW1 2672   0.296   2.019   2.513
  884SOL    HW2 2673   0.302   1.862   2.557
  885SOL     OW 2674   1.622   2.229   2.236
  885SOL    HW1 2675   1.624   2.153   2.300
  885SOL    HW2 2676   1.574   2.306   2.276
  886SOL     OW 2677   1.023   2.628   2.828
  886SOL    HW1 2678   1.038   2.649   2.924
  886SOL    HW2 2679   0.993   2.533   2.819
  887SOL     OW 2680   0.980   3.435   3.562
  887SOL    HW1 2681   0.960   3.479   3.474
  887SOL    HW2 2682   1.019   3.344   3.546
  888SOL     OW 2683   1.859   3.380   3.467
  888SOL    HW1 2684   1.873   3.407   3.372
  888SOL    HW2 2685   1.942   3.402   3.520
  889SOL     OW 2686   0.350   2.760   3.666
  889SOL    HW1 2687   0.426   2.804   3.714
  889SOL    HW2 2688   0.385   2.713   3.584
  890SOL     OW 2689   1.540   2.136   1.987
  890SOL    HW1 2690   1.479   2.061   2.010
  890SOL    HW2 2691   1.562   2.188   2.070
  891SOL     OW 2692   1.303   2.700   1.904
  891SOL    HW1 2693   1.337   2.607   1.919
  891SOL    HW2 2694   1.321   2.727   1.809
  892SOL     OW 2695   1.068   3.195   2.711
  892SOL    HW1 2696   1.075   3.111   2.656
  892SOL    HW2 2697   1.130   3.264   2.675
  893SOL     OW 2698   0.319   2.672   2.811
  893SOL    HW1 2699   0.412   2.708   2.816
  893SOL    HW2 2700   0.313   2.587   2.863
  894SOL     OW 2701   0.339   2.371   2.868
  894SOL    HW1 2702   0.287   2.288   2.851
  894SOL    HW2 2703   0.416   2.376   2.804
  895SOL     OW 2704   1.138   2.242   3.540
  895SOL    HW1 2705   1.093   2.305   3.604
  895SOL    HW2 2706   1.231   2.273   3.523
  896SOL     OW 2707   1.160   2.069   3.339
  896SOL    HW1 2708   1.160   2.133   3.416
  896SOL    HW2 2709   1.188   2.117   3.256
  897SOL     OW 2710   0.008   3.188   2.062
  897SOL    HW1 2711  -0.085   3.209   2.031
  897SOL    HW2 2712   0.018   3.089   2.075
  898SOL     OW 2713   0.088   3.663   2.789
  898SOL    HW1 2714   0.046   3.577   2.762
  898SOL    HW2 2715   0.182   3.666   2.755
  899SOL     OW 2716   0.504   3.430   2.772
  899SOL    HW1 2717   0.570   3.504   2.781
  899SOL    HW2 2718   0.548   3.351   2.730
  900SOL     OW 2719   1.002   2.658   3.100
  900SOL    HW1 2720   1.043   2.626   3.186
  900SOL    HW2 2721   0.906   2.631   3.097
  901SOL     OW 2722   0.040   2.406   2.976
  901SOL    HW1 2723   0.125   2.373   2.935
  901SOL    HW2 2724   0.053   2.421   3.074
  902SOL     OW 2725   0.189   2.382   3.584
  902SOL    HW1 2726   0.248   2.342   3.514
  902SOL    HW2 2727   0.131   2.453   3.543
  903SOL     OW 2728   1.369   2.812   3.522
  903SOL    HW1 2729   1.408   2.901   3.542
  903SOL    HW2 2730   1.379   2.792   3.425
  904SOL     OW 2731   0.815   2.434   2.187
  904SOL    HW1 2732   0.822   2.345   2.141
  904SOL    HW2 2733   0.721   2.468   2.179
  905SOL     OW 2734   1.657   2.466   3.068
  905SOL    HW1 2735   1.619   2.397   3.130
  905SOL    HW2 2736   1.739   2.430   3.024
  906SOL     OW 2737   0.252   3.426   3.606
  906SOL    HW1 2738   0.222   3.483   3.682
  906SOL    HW2 2739   0.245   3.329   3.632
  907SOL     OW 2740   0.671   2.326   3.131
  907SOL    HW1 2741   0.637   2.237   3.101
  907SOL    HW2 2742   0.697   2.380   3.051
  908SOL     OW 2743   0.930   3.540   3.327
  908SOL    HW1 2744   0.906   3.522   3.232
  908SOL    HW2 2745   0.960   3.634   3.337
  909SOL     OW 2746   0.473   2.362   2.053
  909SOL    HW1 2747   0.534   2.442   2.057
  909SOL    HW2 2748   0.378   2.393   2.060
  910SOL     OW 2749   0.159   2.999   3.328
  910SOL    HW1 2750   0.181   2.938   3.404
  910SOL    HW2 2751   0.169   2.950   3.242
  911SOL     OW 2752   1.347   2.921   3.096
  911SOL    HW1 2753   1.371   2.858   3.022
  911SOL    HW2 2754   1.257   2.961   3.078
  912SOL     OW 2755   1.302   2.717   2.171
  912SOL    HW1 2756   1.216   2.686   2.213
  912SOL    HW2 2757   1.298   2.703   2.072
  913SOL     OW 2758   1.759   3.609   3.016
  913SOL    HW1 2759   1.820   3.639   2.943
  913SOL    HW2 2760   1.721   3.520   2.994
  914SOL     OW 2761   1.252   3.593   2.990
  914SOL    HW1 2762   1.336   3.598   2.936
  914SOL    HW2 2763   1.229   3.497   3.008
  915SOL     OW 2764   0.083   3.120   2.884
  915SOL    HW1 2765   0.078   3.119   2.984
  915SOL    HW2 2766   0.000   3.079   2.846
  916SOL     OW 2767   0.688   3.524   3.578
  916SOL    HW1 2768   0.632   3.605   3.587
  916SOL    HW2 2769   0.740   3.528   3.492
  917SOL     OW 2770   1.726   1.997   2.385
  917SOL    HW1 2771   1.799   1.980   2.318
  917SOL    HW2 2772   1.695   1.910   2.423
  918SOL     OW 2773   1.388   3.435   2.339
  918SOL    HW1 2774   1.455   3.447   2.265
  918SOL    HW2 2775   1.348   3.524   2.362
  919SOL     OW 2776   0.130   3.656   3.713
  919SOL    HW1 2777   0.089   3.582   3.766
  919SOL    HW2 2778   0.194   3.707   3.771
  920SOL     OW 2779   1.280   2.789   2.534
  920SOL    HW1 2780   1.340   2.708   2.536
  920SOL    HW2 2781   1.320   2.858   2.474
  921SOL     OW 2782   0.830   3.135   3.284
  921SOL    HW1 2783   0.825   3.168   3.379
  921SOL    HW2 2784   0.744   3.154   3.238
  922SOL     OW 2785   0.672   3.478   2.016
  922SOL    HW1 2786   0.681   3.488   1.917
  922SOL    HW2 2787   0.632   3.389   2.037
  923SOL     OW 2788   1.650   3.582   3.256
  923SOL    HW1 2789   1.703   3.592   3.172
  923SOL    HW2 2790   1.623   3.672   3.290
  924SOL     OW 2791   1.841   2.037   2.825
  924SOL    HW1 2792   1.880   1.952   2.789
  924SOL    HW2 2793   1.743   2.039   2.806
  925SOL     OW 2794   0.263   2.188   2.582
  925SOL    HW1 2795   0.184   2.239   2.548
  925SOL    HW2 2796   0.254   2.173   2.680
  926SOL     OW 2797   1.194   3.474   1.893
  926SOL    HW1 2798   1.200   3.381   1.930
  926SOL    HW2 2799   1.135   3.474   1.813
  927SOL     OW 2800   0.822   2.864   3.234
  927SOL    HW1 2801   0.862   2.863   3.142
  927SOL    HW2 2802   0.832   2.956   3.274
  928SOL     OW 2803   0.916   2.772   2.153
  928SOL    HW1 2804   0.979   2.810   2.085
  928SOL    HW2 2805   0.956   2.689   2.192
  929SOL     OW 2806   1.504   3.469   1.906
  929SOL    HW1 2807   1.412   3.506   1.913
  929SOL    HW2 2808   1.542   3.489   1.816
  930SOL     OW 2809   0.372   3.150   3.352
  930SOL    HW1 2810   0.359   3.243   3.318
  930SOL    HW2 2811   0.288   3.098   3.339
  931SOL     OW 2812   1.614   3.154   3.151
  931SOL    HW1 2813   1.674   3.157   3.231
  931SOL    HW2 2814   1.539   3.218   3.164
  932SOL     OW 2815   1.039   2.960   2.558
  932SOL    HW1 2816   0.969   2.913   2.612
  932SOL    HW2 2817   1.098   2.892   2.515
  933SOL     OW 2818   1.014   2.098   2.833
  933SOL    HW1 2819   1.006   2.062   2.740
  933SOL    HW2 2820   1.012   2.022   2.898
  934SOL     OW 2821   0.590   3.349   2.353
  934SOL    HW1 2822   0.632   3.291   2.283
  934SOL    HW2 2823   0.546   3.428   2.309
  935SOL     OW 2824   1.709   2.247   3.243
  935SOL    HW1 2825   1.782   2.316   3.247
  935SOL    HW2 2826   1.737   2.172   3.184
  936SOL     OW 2827   0.255   3.210   2.152
  936SOL    HW1 2828   0.159   3.211   2.125
  936SOL    HW2 2829   0.267   3.263   2.236
  937SOL     OW 2830   0.105   2.875   3.588
  937SOL    HW1 2831   0.028   2.842   3.642
  937SOL    HW2 2832   0.190   2.845   3.630
  938SOL     OW 2833   0.672   2.065   3.351
  938SOL    HW1 2834   0.762   2.049   3.311
  938SOL    HW2 2835   0.680   2.070   3.450
  939SOL     OW 2836   0.075   2.207   1.895
  939SOL    HW1 2837  -0.017   2.179   1.866
  939SOL    HW2 2838   0.106   2.284   1.839
  940SOL     OW 2839   1.440   2.718   3.260
  940SOL    HW1 2840   1.383   2.770   3.197
  940SOL    HW2 2841   1.536   2.730   3.236
  941SOL     OW 2842   0.072   2.028   2.180
  941SOL    HW1 2843   0.055   2.111   2.126
  941SOL    HW2 2844   0.162   1.991   2.158
  942SOL     OW 2845   1.183   3.197   1.981
  942SOL    HW1 2846   1.084   3.186   1.983
  942SOL    HW2 2847   1.217   3.212   2.074
  943SOL     OW 2848   0.613   2.704   3.293
  943SOL    HW1 2849   0.669   2.785   3.276
  943SOL    HW2 2850   0.672   2.624   3.296
  944SOL     OW 2851   1.493   3.629   2.821
  944SOL    HW1 2852   1.526   3.693   2.752
  944SOL    HW2 2853   1.559   3.623   2.896
  945SOL     OW 2854   0.716   2.427   3.570
  945SOL    HW1 2855   0.735   2.492   3.644
  945SOL    HW2 2856   0.776   2.347   3.579
  946SOL     OW 2857   1.450   3.082   3.495
  946SOL    HW1 2858   1.441   3.072   3.594
  946SOL    HW2 2859   1.546   3.075   3.469
  947SOL     OW 2860   0.390   3.603   3.422
  947SOL    HW1 2861   0.299   3.644   3.420
  947SOL    HW2 2862   0.383   3.509   3.454
  948SOL     OW 2863   1.674   2.745   3.116
  948SOL    HW1 2864   1.647   2.656   3.079
  948SOL    HW2 2865   1.675   2.813   3.043
  949SOL     OW 2866   1.225   2.187   2.311
  949SOL    HW1 2867   1.290   2.113   2.300
  949SOL    HW2 2868   1.245   2.237   2.395
  950SOL     OW 2869   0.594   2.607   2.514
  950SOL    HW1 2870   0.644   2.692   2.495
  950SOL    HW2 2871   0.506   2.609   2.466
  951SOL     OW 2872   1.777   2.204   3.504
  951SOL    HW1 2873   1.760   2.235   3.410
  951SOL    HW2 2874   1.693   2.167   3.542
  952SOL     OW 2875   1.730   2.796   3.379
  952SOL    HW1 2876   1.768   2.887   3.394
  952SOL    HW2 2877   1.722   2.779   3.280
  953SOL     OW 2878   0.859   3.236   1.878
  953SOL    HW1 2879   0.813   3.251   1.966
  953SOL    HW2 2880   0.903   3.321   1.848
  954SOL     OW 2881   0.661   3.652   2.815
  954SOL    HW1 2882   0.615   3.740   2.802
  954SOL    HW2 2883   0.760   3.664   2.808
  955SOL     OW 2884   0.859   2.818   2.723
  955SOL    HW1 2885   0.913   2.749   2.771
  955SOL    HW2 2886   0.827   2.887   2.789
  956SOL     OW 2887   1.083   2.846   1.949
  956SOL    HW1 2888   1.060   2.899   1.867
  956SOL    HW2 2889   1.164   2.790   1.930
  957SOL     OW 2890   1.861   3.431   2.713
  957SOL    HW1 2891   1.790   3.419   2.643
  957SOL    HW2 2892   1.862   3.352   2.773
  958SOL     OW 2893   0.221   3.176   3.706
  958SOL    HW1 2894   0.156   3.103   3.685
  958SOL    HW2 2895   0.225   3.190   3.804
  959SOL     OW 2896   0.079   3.102   2.515
  959SOL    HW1 2897   0.078   3.055   2.603
  959SOL    HW2 2898   0.161   3.074   2.464
  960SOL     OW 2899   0.672   3.253   3.486
  960SOL    HW1 2900   0.594   3.203   3.524
  960SOL    HW2 2901   0.669   3.348   3.517
  961SOL     OW 2902   1.824   2.054   3.089
  961SOL    HW1 2903   1.820   1.964   3.133
  961SOL    HW2 2904   1.827   2.043   2.990
  962SOL     OW 2905   0.428   2.286   2.382
  962SOL    HW1 2906   0.458   2.214   2.320
  962SOL    HW2 2907   0.389   2.246   2.465
  963SOL     OW 2908   1.705   3.349   2.966
  963SOL    HW1 2909   1.612   3.324   2.939
  963SOL    HW2 2910   1.731   3.299   3.048
  964SOL     OW 2911   0.317   2.409   3.142
  964SOL    HW1 2912   0.355   2.350   3.214
  964SOL    HW2 2913   0.357   2.383   3.054
  965SOL     OW 2914   0.812   3.448   2.549
  965SOL    HW1 2915   0.844   3.458   2.455
  965SOL    HW2 2916   0.733   3.386   2.551
  966SOL     OW 2917   1.424   2.076   2.974
  966SOL    HW1 2918   1.476   2.011   3.029
  966SOL    HW2 2919   1.375   2.139   3.035
  967SOL     OW 2920   1.001   1.896   3.016
  967SOL    HW1 2921   0.938   1.824   2.985
  967SOL    HW2 2922   1.094   1.860   3.016
  968SOL     OW 2923   0.770   3.192   2.163
  968SOL    HW1 2924   0.724   3.105   2.180
  968SOL    HW2 2925   0.861   3.189   2.204
  969SOL     OW 2926   0.618   3.429   3.146
  969SOL    HW1 2927   0.613   3.511   3.203
  969SOL    HW2 2928   0.707   3.426   3.101
  970SOL     OW 2929   1.352   1.914   2.030
  970SOL    HW1 2930   1.387   1.873   1.946
  970SOL    HW2 2931   1.262   1.876   2.050
  971SOL     OW 2932   1.300   2.315   2.553
  971SOL    HW1 2933   1.241   2.395   2.557
  971SOL    HW2 2934   1.315   2.280   2.646
  972SOL     OW 2935   1.593   2.083   2.744
  972SOL    HW1 2936   1.509   2.082   2.798
  972SOL    HW2 2937   1.595   2.166   2.688
  973SOL     OW 2938   0.039   2.939   2.162
  973SOL    HW1 2939   0.138   2.928   2.153
  973SOL    HW2 2940  -0.001   2.853   2.194
  974SOL     OW 2941   0.875   3.508   2.199
  974SOL    HW1 2942   0.798   3.473   2.145
  974SOL    HW2 2943   0.843   3.579   2.261
  975SOL     OW 2944   0.230   2.490   3.837
  975SOL    HW1 2945   0.137   2.488   3.874
  975SOL    HW2 2946   0.231   2.451   3.745
  976SOL     OW 2947   0.225   2.137   4.720
  976SOL    HW1 2948   0.260   2.120   4.812
  976SOL    HW2 2949   0.137   2.092   4.708
  977SOL     OW 2950   0.019   2.230   4.371
  977SOL    HW1 2951  -0.063   2.273   4.410
  977SOL    HW2 2952  -0.009   2.157   4.308
  978SOL     OW 2953   1.555   3.373   4.427
  978SOL    HW1 2954   1.498   3.357   4.508
  978SOL    HW2 2955   1.496   3.383   4.347
  979SOL     OW 2956   1.135   2.565   4.441
  979SOL    HW1 2957   1.192   2.643   4.416
  979SOL    HW2 2958   1.075   2.591   4.517
  980SOL     OW 2959   1.755   2.469   3.955
  980SOL    HW1 2960   1.743   2.456   3.856
  980SOL    HW2 2961   1.725   2.388   4.004
  981SOL     OW 2962   0.768   3.006   4.747
  981SOL    HW1 2963   0.690   3.023   4.807
  981SOL    HW2 2964   0.802   3.093   4.711
  982SOL     OW 2965   0.685   2.874   4.389
  982SOL    HW1 2966   0.754   2.858   4.459
  982SOL    HW2 2967   0.612   2.931   4.427
  983SOL     OW 2968   0.335   3.297   4.785
  983SOL    HW1 2969   0.257   3.266   4.732
  983SOL    HW2 2970   0.393   3.355   4.728
  984SOL     OW 2971   1.603   2.309   4.461
  984SOL    HW1 2972   1.529   2.355   4.411
  984SOL    HW2 2973   1.654   2.377   4.514
  985SOL     OW 2974   0.231   3.575   4.207
  985SOL    HW1 2975   0.265   3.652   4.261
  985SOL    HW2 2976   0.275   3.575   4.117
  986SOL     OW 2977   0.230   3.296   4.262
  986SOL    HW1 2978   0.204   3.392   4.262
  986SOL    HW2 2979   0.159   3.242   4.307
  987SOL     OW 2980   0.240   2.953   4.610
  987SOL    HW1 2981   0.254   2.869   4.662
  987SOL    HW2 2982   0.185   3.017   4.665
  988SOL     OW 2983   0.606   2.826   3.847
  988SOL    HW1 2984   0.613   2.910   3.793
  988SOL    HW2 2985   0.652   2.839   3.935
  989SOL     OW 2986   0.122   2.505   4.287
  989SOL    HW1 2987   0.077   2.417   4.304
  989SOL    HW2 2988   0.121   2.559   4.371
  990SOL     OW 2989   1.842   3.629   4.083
  990SOL    HW1 2990   1.896   3.600   4.163
  990SOL    HW2 2991   1.872   3.719   4.054
  991SOL     OW 2992   0.027   3.458   3.841
  991SOL    HW1 2993   0.008   3.362   3.862
  991SOL    HW2 2994  -0.006   3.516   3.916
  992SOL     OW 2995   1.689   2.784   4.336
  992SOL    HW1 2996   1.784   2.755   4.344
  992SOL    HW2 2997   1.681   2.849   4.261
  993SOL     OW 2998   1.641   2.970   4.156
  993SOL    HW1 2999   1.727   2.972   4.104
  993SOL    HW2 3000   1.655   3.017   4.244
  994SOL     OW 3001   0.613   3.227   4.450
  994SOL    HW1 3002   0.564   3.140   4.459
  994SOL    HW2 3003   0.590   3.270   4.363
  995SOL     OW 3004   0.809   1.866   4.226
  995SOL    HW1 3005   0.849   1.957   4.217
  995SOL    HW2 3006   0.709   1.874   4.232
  996SOL     OW 3007   1.525   2.861   3.914
  996SOL    HW1 3008   1.462   2.785   3.927
  996SOL    HW2 3009   1.573   2.879   4.000
  997SOL     OW 3010   1.466   3.279   4.677
  997SOL    HW1 3011   1.407   3.285   4.757
  997SOL    HW2 3012   1.451   3.191   4.631
  998SOL     OW 3013   1.667   3.576   4.296
  998SOL    HW1 3014   1.626   3.553   4.208
  998SOL    HW2 3015   1.649   3.502   4.361
  999SOL     OW 3016   0.598   2.591   3.994
  999SOL    HW1 3017   0.622   2.660   3.926
  999SOL    HW2 3018   0.520   2.624   4.048
 1000SOL     OW 3019   1.281   2.207   4.668
 1000SOL    HW1 3020   1.195   2.157   4.655
 1000SOL    HW2 3021   1.343   2.153   4.724
 1001SOL     OW 3022   1.576   3.524   4.031
 1001SOL    HW1 3023   1.665   3.570   4.034
 1001SOL    HW2 3024   1.555   3.500   3.936
 1002SOL     OW 3025   1.041   2.563   4.153
 1002SOL    HW1 3026   1.067   2.559   4.249
 1002SOL    HW2 3027   0.956   2.512   4.139
 1003SOL     OW 3028   0.076   2.673   4.513
 1003SOL    HW1 3029   0.175   2.661   4.522
 1003SOL    HW2 3030   0.052   2.768   4.534
 1004SOL     OW 3031   0.865   2.210   3.919
 1004SOL    HW1 3032   0.924   2.273   3.870
 1004SOL    HW2 3033   0.884   2.116   3.890
 1005SOL     OW 3034   1.362   3.006   4.269
 1005SOL    HW1 3035   1.445   2.977   4.221
 1005SOL    HW2 3036   1.313   3.073   4.213
 1006SOL     OW 3037   0.550   2.058   4.609
 1006SOL    HW1 3038   0.545   2.053   4.709
 1006SOL    HW2 3039   0.552   2.154   4.580
 1007SOL     OW 3040   1.008   3.318   4.201
 1007SOL    HW1 3041   0.962   3.390   4.149
 1007SOL    HW2 3042   1.004   3.338   4.299
 1008SOL     OW 3043   0.351   3.663   4.577
 1008SOL    HW1 3044   0.401   3.577   4.583
 1008SOL    HW2 3045   0.416   3.740   4.574
 1009SOL     OW 3046   1.795   2.928   4.597
 1009SOL    HW1 3047   1.733   2.913   4.521
 1009SOL    HW2 3048   1.743   2.939   4.682
 1010SOL     OW 3049   0.321   2.805   3.966
 1010SOL    HW1 3050   0.403   2.844   3.924
 1010SOL    HW2 3051   0.294   2.723   3.917
 1011SOL     OW 3052   1.458   2.597   4.452
 1011SOL    HW1 3053   1.453   2.532   4.527
 1011SOL    HW2 3054   1.538   2.656   4.465
 1012SOL     OW 3055   1.111   3.638   3.961
 1012SOL    HW1 3056   1.051   3.576   4.011
 1012SOL    HW2 3057   1.142   3.594   3.876
 1013SOL     OW 3058   1.632   3.239   3.805
 1013SOL    HW1 3059   1.600   3.333   3.795
 1013SOL    HW2 3060   1.556   3.176   3.793
 1014SOL     OW 3061   0.464   3.605   4.047
 1014SOL    HW1 3062   0.497   3.644   4.133
 1014SOL    HW2 3063   0.540   3.598   3.982
 1015SOL     OW 3064   1.400   1.969   4.150
 1015SOL    HW1 3065   1.376   1.932   4.060
 1015SOL    HW2 3066   1.499   1.985   4.154
 1016SOL     OW 3067   0.249   3.647   4.965
 1016SOL    HW1 3068   0.306   3.582   5.015
 1016SOL    HW2 3069   0.233   3.614   4.872
 1017SOL     OW 3070   0.940   3.560   4.628
 1017SOL    HW1 3071   1.020   3.503   4.649
 1017SOL    HW2 3072   0.891   3.520   4.551
 1018SOL     OW 3073   0.382   2.562   4.204
 1018SOL    HW1 3074   0.427   2.472   4.201
 1018SOL    HW2 3075   0.288   2.551   4.237
 1019SOL     OW 3076   0.614   1.984   3.841
 1019SOL    HW1 3077   0.712   1.962   3.848
 1019SOL    HW2 3078   0.583   1.967   3.748
 1020SOL     OW 3079   0.803   3.264   4.648
 1020SOL    HW1 3080   0.893   3.278   4.606
 1020SOL    HW2 3081   0.732   3.266   4.577
 1021SOL     OW 3082   0.922   2.365   4.623
 1021SOL    HW1 3083   0.897   2.356   4.527
 1021SOL    HW2 3084   0.970   2.283   4.654
 1022SOL     OW 3085   0.539   1.926   4.236
 1022SOL    HW1 3086   0.458   1.927   4.294
 1022SOL    HW2 3087   0.542   2.009   4.181
 1023SOL     OW 3088   1.434   3.050   3.765
 1023SOL    HW1 3089   1.466   2.974   3.822
 1023SOL    HW2 3090   1.342   3.077   3.795
 1024SOL     OW 3091   0.297   1.897   3.895
 1024SOL    HW1 3092   0.346   1.981   3.874
 1024SOL    HW2 3093   0.359   1.832   3.940
 1025SOL     OW 3094   0.935   2.098   4.204
 1025SOL    HW1 3095   0.887   2.139   4.126
 1025SOL    HW2 3096   1.034   2.096   4.185
 1026SOL     OW 3097   1.227   3.432   4.517
 1026SOL    HW1 3098   1.248   3.506   4.452
 1026SOL    HW2 3099   1.295   3.432   4.590
 1027SOL     OW 3100   0.459   3.014   4.465
 1027SOL    HW1 3101   0.388   2.987   4.530
 1027SOL    HW2 3102   0.433   2.986   4.372
 1028SOL     OW 3103   1.271   3.659   4.315
 1028SOL    HW1 3104   1.315   3.723   4.251
 1028SOL    HW2 3105   1.221   3.711   4.385
 1029SOL     OW 3106   1.032   2.411   3.740
 1029SOL    HW1 3107   0.991   2.493   3.701
 1029SOL    HW2 3108   1.096   2.437   3.813
 1030SOL     OW 3109   0.866   2.316   4.366
 1030SOL    HW1 3110   0.834   2.388   4.304
 1030SOL    HW2 3111   0.890   2.235   4.313
 1031SOL     OW 3112   1.017   1.901   4.477
 1031SOL    HW1 3113   0.945   1.906   4.408
 1031SOL    HW2 3114   0.993   1.832   4.546
 1032SOL     OW 3115   1.429   3.035   4.591
 1032SOL    HW1 3116   1.374   2.951   4.584
 1032SOL    HW2 3117   1.455   3.064   4.499
 1033SOL     OW 3118   1.466   2.452   4.716
 1033SOL    HW1 3119   1.436   2.357   4.723
 1033SOL    HW2 3120   1.539   2.468   4.782
 1034SOL     OW 3121   1.857   2.695   4.101
 1034SOL    HW1 3122   1.899   2.631   4.165
 1034SOL    HW2 3123   1.819   2.644   4.023
 1035SOL     OW 3124   0.488   3.247   3.898
 1035SOL    HW1 3125   0.401   3.232   3.945
 1035SOL    HW2 3126   0.471   3.273   3.803
 1036SOL     OW 3127   1.664   3.142   4.381
 1036SOL    HW1 3128   1.763   3.150   4.395
 1036SOL    HW2 3129   1.619   3.226   4.412
 1037SOL     OW 3130   1.390   2.437   3.802
 1037SOL    HW1 3131   1.336   2.416   3.883
 1037SOL    HW2 3132   1.481   2.396   3.811
 1038SOL     OW 3133   0.527   2.118   4.052
 1038SOL    HW1 3134   0.554   2.059   3.977
 1038SOL    HW2 3135   0.527   2.213   4.021
 1039SOL     OW 3136   1.638   2.961   4.803
 1039SOL    HW1 3137   1.643   3.042   4.862
 1039SOL    HW2 3138   1.552   2.963   4.752
 1040SOL     OW 3139   0.705   2.912   4.092
 1040SOL    HW1 3140   0.691   2.919   4.191
 1040SOL    HW2 3141   0.789   2.861   4.074
 1041SOL     OW 3142   0.367   2.962   4.225
 1041SOL    HW1 3143   0.360   3.045   4.169
 1041SOL    HW2 3144   0.371   2.882   4.165
 1042SOL     OW 3145   0.566   2.399   4.589
 1042SOL    HW1 3146   0.578   2.465   4.515
 1042SOL    HW2 3147   0.612   2.433   4.672
 1043SOL     OW 3148   1.252   3.210   4.112
 1043SOL    HW1 3149   1.302   3.287   4.152
 1043SOL    HW2 3150   1.157   3.212   4.144
 1044SOL     OW 3151   1.582   2.501   4.196
 1044SOL    HW1 3152   1.551   2.562   4.269
 1044SOL    HW2 3153   1.632   2.553   4.127
 1045SOL     OW 3154   0.573   2.732   4.753
 1045SOL    HW1 3155   0.617   2.821   4.744
 1045SOL    HW2 3156   0.510   2.732   4.830
 1046SOL     OW 3157   1.209   2.387   3.999
 1046SOL    HW1 3158   1.222   2.303   4.053
 1046SOL    HW2 3159   1.180   2.461   4.059
 1047SOL     OW 3160   0.307   2.075   4.955
 1047SOL    HW1 3161   0.284   2.112   5.045
 1047SOL    HW2 3162   0.277   1.980   4.949
 1048SOL     OW 3163   0.732   2.496   4.788
 1048SOL    HW1 3164   0.791   2.470   4.712
 1048SOL    HW2 3165   0.704   2.592   4.777
 1049SOL     OW 3166   0.307   1.925   4.342
 1049SOL    HW1 3167   0.296   2.019   4.375
 1049SOL    HW2 3168   0.302   1.862   4.419
 1050SOL     OW 3169   1.622   2.229   4.098
 1050SOL    HW1 3170   1.624   2.153   4.162
 1050SOL    HW2 3171   1.574   2.306   4.138
 1051SOL     OW 3172   1.540   2.136   3.849
 1051SOL    HW1 3173   1.479   2.061   3.872
 1051SOL    HW2 3174   1.562   2.188   3.932
 1052SOL     OW 3175   1.303   2.700   3.766
 1052SOL    HW1 3176   1.337   2.607   3.781
 1052SOL    HW2 3177   1.321   2.727   3.671
 1053SOL     OW 3178   1.068   3.195   4.573
 1053SOL    HW1 3179   1.075   3.111   4.518
 1053SOL    HW2 3180   1.130   3.264   4.537
 1054SOL     OW 3181   0.319   2.672   4.673
 1054SOL    HW1 3182   0.412   2.708   4.678
 1054SOL    HW2 3183   0.313   2.587   4.725
 1055SOL     OW 3184   0.339   2.371   4.730
 1055SOL    HW1 3185   0.287   2.288   4.713
 1055SOL    HW2 3186   0.416   2.376   4.666
 1056SOL     OW 3187   0.008   3.188   3.924
 1056SOL    HW1 3188  -0.085   3.209   3.893
 1056SOL    HW2 3189   0.018   3.089   3.937
 1057SOL     OW 3190   0.088   3.663   4.651
 1057SOL    HW1 3191   0.046   3.577   4.624
 1057SOL    HW2 3192   0.182   3.666   4.617
 1058SOL     OW 3193   0.504   3.430   4.634
 1058SOL    HW1 3194   0.570   3.504   4.643
 1058SOL    HW2 3195   0.548   3.351   4.592
 1059SOL     OW 3196   1.002   2.658   4.962
 1059SOL    HW1 3197   1.043   2.626   5.048
 1059SOL    HW2 3198   0.906   2.631   4.959
 1060SOL     OW 3199   0.815   2.434   4.049
 1060SOL    HW1 3200   0.822   2.345   4.003
 1060SOL    HW2 3201   0.721   2.468   4.041
 1061SOL     OW 3202   0.671   2.326   4.993
 1061SOL    HW1 3203   0.637   2.237   4.963
 1061SOL    HW2 3204   0.697   2.380   4.913
 1062SOL     OW 3205   0.473   2.362   3.915
 1062SOL    HW1 3206   0.534   2.442   3.919
 1062SOL    HW2 3207   0.378   2.393   3.922
 1063SOL     OW 3208   1.302   2.717   4.033
 1063SOL    HW1 3209   1.216   2.686   4.075
 1063SOL    HW2 3210   1.298   2.703   3.934
 1064SOL     OW 3211   1.759   3.609   4.878
 1064SOL    HW1 3212   1.820   3.639   4.805
 1064SOL    HW2 3213   1.721   3.520   4.856
 1065SOL     OW 3214   0.083   3.120   4.746
 1065SOL    HW1 3215   0.078   3.119   4.846
 1065SOL    HW2 3216   0.000   3.079   4.708
 1066SOL     OW 3217   1.726   1.997   4.247
 1066SOL    HW1 3218   1.799   1.980   4.180
 1066SOL    HW2 3219   1.695   1.910   4.285
 1067SOL     OW 3220   1.388   3.435   4.201
 1067SOL    HW1 3221   1.455   3.447   4.127
 1067SOL    HW2 3222   1.348   3.524   4.224
 1068SOL     OW 3223   1.280   2.789   4.396
 1068SOL    HW1 3224   1.340   2.708   4.398
 1068SOL    HW2 3225   1.320   2.858   4.336
 1069SOL     OW 3226   0.672   3.478   3.878
 1069SOL    HW1 3227   0.681   3.488   3.779
 1069SOL    HW2 3228   0.632   3.389   3.899
 1070SOL     OW 3229   1.841   2.037   4.687
 1070SOL    HW1 3230   1.880   1.952   4.651
 1070SOL    HW2 3231   1.743   2.039   4.668
 1071SOL     OW 3232   0.263   2.188   4.444
 1071SOL    HW1 3233   0.184   2.239   4.410
 1071SOL    HW2 3234   0.254   2.173   4.542
 1072SOL     OW 3235   1.194   3.474   3.755
 1072SOL    HW1 3236   1.200   3.381   3.792
 1072SOL    HW2 3237   1.135   3.474   3.675
 1073SOL     OW 3238   0.916   2.772   4.015
 1073SOL    HW1 3239   0.979   2.810   3.947
 1073SOL    HW2 3240   0.956   2.689   4.054
 1074SOL     OW 3241   1.504   3.469   3.768
 1074SOL    HW1 3242   1.412   3.506   3.775
 1074SOL    HW2 3243   1.542   3.489   3.678
 1075SOL     OW 3244   1.039   2.960   4.420
 1075SOL    HW1 3245   0.969   2.913   4.474
 1075SOL    HW2 3246   1.098   2.892   4.377
 1076SOL     OW 3247   1.014   2.098   4.695
 1076SOL    HW1 3248   1.006   2.062   4.602
 1076SOL    HW2 3249   1.012   2.022   4.760
 1077SOL     OW 3250   0.590   3.349   4.215
 1077SOL    HW1 3251   0.632   3.291   4.145
 1077SOL    HW2 3252   0.546   3.428   4.171
 1078SOL     OW 3253   0.255   3.210   4.014
 1078SOL    HW1 3254   0.159   3.211   3.987
 1078SOL    HW2 3255   0.267   3.263   4.098
 1079SOL     OW 3256   0.075   2.207   3.757
 1079SOL    HW1 3257  -0.017   2.179   3.728
 1079SOL    HW2 3258   0.106   2.284   3.701
 1080SOL     OW 3259   0.072   2.028   4.042
 1080SOL    HW1 3260   0.055   2.111   3.988
 1080SOL    HW2 3261   0.162   1.991   4.020
 1081SOL     OW 3262   1.183   3.197   3.843
 1081SOL    HW1 3263   1.084   3.186   3.845
 1081SOL    HW2 3264   1.217   3.212   3.936
 1082SOL     OW 3265   1.674   2.745   4.978
 1082SOL    HW1 3266   1.647   2.656   4.941
 1082SOL    HW2 3267   1.675   2.813   4.905
 1083SOL     OW 3268   1.225   2.187   4.173
 1083SOL    HW1 3269   1.290   2.113   4.162
 1083SOL    HW2 3270   1.245   2.237   4.257
 1084SOL     OW 3271   0.594   2.607   4.376
 1084SOL    HW1 3272   0.644   2.692   4.357
 1084SOL    HW2 3273   0.506   2.609   4.328
 1085SOL     OW 3274   0.859   3.236   3.740
 1085SOL    HW1 3275   0.813   3.251   3.828
 1085SOL    HW2 3276   0.903   3.321   3.710
 1086SOL     OW 3277   0.661   3.652   4.677
 1086SOL    HW1 3278   0.615   3.740   4.664
 1086SOL    HW2 3279   0.760   3.664   4.670
 1087SOL     OW 3280   0.859   2.818   4.585
 1087SOL    HW1 3281   0.913   2.749   4.633
 1087SOL    HW2 3282   0.827   2.887   4.651
 1088SOL     OW 3283   1.083   2.846   3.811
 1088SOL    HW1 3284   1.060   2.899   3.729
 1088SOL    HW2 3285   1.164   2.790   3.792
 1089SOL     OW 3286   1.861   3.431   4.575
 1089SOL    HW1 3287   1.790   3.419   4.505
 1089SOL    HW2 3288   1.862   3.352   4.635
 1090SOL     OW 3289   0.079   3.102   4.377
 1090SOL    HW1 3290   0.078   3.055   4.465
 1090SOL    HW2 3291   0.161   3.074   4.326
 1091SOL     OW 3292   1.824   2.054   4.951
 1091SOL    HW1 3293   1.820   1.964   4.995
 1091SOL    HW2 3294   1.827   2.043   4.852
 1092SOL     OW 3295   0.428   2.286   4.244
 1092SOL    HW1 3296   0.458   2.214   4.182
 1092SOL    HW2 3297   0.389   2.246   4.327
 1093SOL     OW 3298   0.812   3.448   4.411
 1093SOL    HW1 3299   0.844   3.458   4.317
 1093SOL    HW2 3300   0.733   3.386   4.413
 1094SOL     OW 3301   0.770   3.192   4.025
 1094SOL    HW1 3302   0.724   3.105   4.042
 1094SOL    HW2 3303   0.861   3.189   4.066
 1095SOL     OW 3304   1.352   1.914   3.892
 1095SOL    HW1 3305   1.387   1.873   3.808
 1095SOL    HW2 3306   1.262   1.876   3.912
 1096SOL     OW 3307   1.300   2.315   4.415
 1096SOL    HW1 3308   1.241   2.395   4.419
 1096SOL    HW2 3309   1.315   2.280   4.508
 1097SOL     OW 3310   1.593   2.083   4.606
 1097SOL    HW1 3311   1.509   2.082   4.660
 1097SOL    HW2 3312   1.595   2.166   4.550
 1098SOL     OW 3313   0.039   2.939   4.024
 1098SOL    HW1 3314   0.138   2.928   4.015
 1098SOL    HW2 3315  -0.001   2.853   4.056
 1099SOL     OW 3316   0.875   3.508   4.061
 1099SOL    HW1 3317   0.798   3.473   4.007
 1099SOL    HW2 3318   0.843   3.579   4.123
 1100SOL     OW 3319   0.230   4.352   0.113
 1100SOL    HW1 3320   0.137   4.350   0.150
 1100SOL    HW2 3321   0.231   4.313   0.021
 1101SOL     OW 3322   0.225   3.999   0.996
 1101SOL    HW1 3323   0.260   3.982   1.088
 1101SOL    HW2 3324   0.137   3.954   0.984
 1102SOL     OW 3325   0.019   4.092   0.647
 1102SOL    HW1 3326  -0.063   4.135   0.686
 1102SOL    HW2 3327  -0.009   4.019   0.584
 1103SOL     OW 3328   1.135   4.427   0.717
 1103SOL    HW1 3329   1.192   4.505   0.692
 1103SOL    HW2 3330   1.075   4.453   0.793
 1104SOL     OW 3331   1.755   4.331   0.231
 1104SOL    HW1 3332   1.743   4.318   0.132
 1104SOL    HW2 3333   1.725   4.250   0.280
 1105SOL     OW 3334   0.768   4.868   1.023
 1105SOL    HW1 3335   0.690   4.885   1.083
 1105SOL    HW2 3336   0.802   4.955   0.987
 1106SOL     OW 3337   0.850   4.522   1.823
 1106SOL    HW1 3338   0.846   4.598   1.888
 1106SOL    HW2 3339   0.872   4.558   1.732
 1107SOL     OW 3340   0.685   4.736   0.665
 1107SOL    HW1 3341   0.754   4.720   0.735
 1107SOL    HW2 3342   0.612   4.793   0.703
 1108SOL     OW 3343   0.438   4.116   1.499
 1108SOL    HW1 3344   0.520   4.060   1.508
 1108SOL    HW2 3345   0.357   4.058   1.503
 1109SOL     OW 3346   1.603   4.171   0.737
 1109SOL    HW1 3347   1.529   4.217   0.687
 1109SOL    HW2 3348   1.654   4.239   0.790
 1110SOL     OW 3349   0.240   4.815   0.886
 1110SOL    HW1 3350   0.254   4.731   0.938
 1110SOL    HW2 3351   0.185   4.879   0.941
 1111SOL     OW 3352   0.606   4.688   0.123
 1111SOL    HW1 3353   0.613   4.772   0.069
 1111SOL    HW2 3354   0.652   4.701   0.211
 1112SOL     OW 3355   1.594   3.838   1.480
 1112SOL    HW1 3356   1.576   3.905   1.408
 1112SOL    HW2 3357   1.591   3.884   1.569
 1113SOL     OW 3358   0.122   4.367   0.563
 1113SOL    HW1 3359   0.077   4.279   0.580
 1113SOL    HW2 3360   0.121   4.421   0.647
 1114SOL     OW 3361   1.689   4.646   0.612
 1114SOL    HW1 3362   1.784   4.617   0.620
 1114SOL    HW2 3363   1.681   4.711   0.537
 1115SOL     OW 3364   0.113   4.461   1.597
 1115SOL    HW1 3365   0.201   4.448   1.642
 1115SOL    HW2 3366   0.100   4.558   1.575
 1116SOL     OW 3367   0.809   3.728   0.502
 1116SOL    HW1 3368   0.849   3.819   0.493
 1116SOL    HW2 3369   0.709   3.736   0.508
 1117SOL     OW 3370   0.197   4.700   1.264
 1117SOL    HW1 3371   0.286   4.655   1.250
 1117SOL    HW2 3372   0.124   4.635   1.245
 1118SOL     OW 3373   1.525   4.723   0.190
 1118SOL    HW1 3374   1.462   4.647   0.203
 1118SOL    HW2 3375   1.573   4.741   0.276
 1119SOL     OW 3376   0.317   3.975   1.801
 1119SOL    HW1 3377   0.388   4.046   1.807
 1119SOL    HW2 3378   0.229   4.014   1.829
 1120SOL     OW 3379   0.598   4.453   0.270
 1120SOL    HW1 3380   0.622   4.522   0.202
 1120SOL    HW2 3381   0.520   4.486   0.324
 1121SOL     OW 3382   1.281   4.069   0.944
 1121SOL    HW1 3383   1.195   4.019   0.931
 1121SOL    HW2 3384   1.343   4.015   1.000
 1122SOL     OW 3385   0.807   4.329   1.465
 1122SOL    HW1 3386   0.760   4.326   1.554
 1122SOL    HW2 3387   0.756   4.274   1.399
 1123SOL     OW 3388   1.394   4.193   1.674
 1123SOL    HW1 3389   1.374   4.236   1.762
 1123SOL    HW2 3390   1.472   4.131   1.683
 1124SOL     OW 3391   0.973   4.614   1.572
 1124SOL    HW1 3392   1.019   4.530   1.543
 1124SOL    HW2 3393   0.917   4.648   1.497
 1125SOL     OW 3394   0.991   4.134   1.242
 1125SOL    HW1 3395   0.914   4.168   1.296
 1125SOL    HW2 3396   0.957   4.083   1.163
 1126SOL     OW 3397   1.041   4.425   0.429
 1126SOL    HW1 3398   1.067   4.421   0.525
 1126SOL    HW2 3399   0.956   4.374   0.415
 1127SOL     OW 3400   0.076   4.535   0.789
 1127SOL    HW1 3401   0.175   4.523   0.798
 1127SOL    HW2 3402   0.052   4.630   0.810
 1128SOL     OW 3403   0.865   4.072   0.195
 1128SOL    HW1 3404   0.924   4.135   0.146
 1128SOL    HW2 3405   0.884   3.978   0.166
 1129SOL     OW 3406   1.719   4.309   1.831
 1129SOL    HW1 3407   1.693   4.398   1.795
 1129SOL    HW2 3408   1.717   4.241   1.758
 1130SOL     OW 3409   0.550   3.920   0.885
 1130SOL    HW1 3410   0.545   3.915   0.985
 1130SOL    HW2 3411   0.552   4.016   0.856
 1131SOL     OW 3412   1.795   4.790   0.873
 1131SOL    HW1 3413   1.733   4.775   0.797
 1131SOL    HW2 3414   1.743   4.801   0.958
 1132SOL     OW 3415   1.458   4.459   0.728
 1132SOL    HW1 3416   1.453   4.394   0.803
 1132SOL    HW2 3417   1.538   4.518   0.741
 1133SOL     OW 3418   0.202   4.009   1.498
 1133SOL    HW1 3419   0.122   4.069   1.485
 1133SOL    HW2 3420   0.192   3.960   1.584
 1134SOL     OW 3421   1.400   3.831   0.426
 1134SOL    HW1 3422   1.376   3.794   0.336
 1134SOL    HW2 3423   1.499   3.847   0.430
 1135SOL     OW 3424   0.382   4.424   0.480
 1135SOL    HW1 3425   0.427   4.334   0.477
 1135SOL    HW2 3426   0.288   4.413   0.513
 1136SOL     OW 3427   1.547   3.946   1.729
 1136SOL    HW1 3428   1.542   3.983   1.821
 1136SOL    HW2 3429   1.475   3.877   1.717
 1137SOL     OW 3430   0.614   3.846   0.117
 1137SOL    HW1 3431   0.712   3.824   0.124
 1137SOL    HW2 3432   0.583   3.829   0.024
 1138SOL     OW 3433   0.781   3.988   1.749
 1138SOL    HW1 3434   0.848   3.927   1.792
 1138SOL    HW2 3435   0.708   4.007   1.814
 1139SOL     OW 3436   1.351   4.314   1.433
 1139SOL    HW1 3437   1.379   4.271   1.518
 1139SOL    HW2 3438   1.376   4.410   1.434
 1140SOL     OW 3439   0.922   4.227   0.899
 1140SOL    HW1 3440   0.897   4.218   0.803
 1140SOL    HW2 3441   0.970   4.145   0.930
 1141SOL     OW 3442   0.539   3.788   0.512
 1141SOL    HW1 3443   0.458   3.789   0.570
 1141SOL    HW2 3444   0.542   3.871   0.457
 1142SOL     OW 3445   0.935   3.960   0.480
 1142SOL    HW1 3446   0.887   4.001   0.402
 1142SOL    HW2 3447   1.034   3.958   0.461
 1143SOL     OW 3448   1.076   4.407   1.464
 1143SOL    HW1 3449   0.996   4.346   1.467
 1143SOL    HW2 3450   1.157   4.354   1.440
 1144SOL     OW 3451   1.032   4.273   0.016
 1144SOL    HW1 3452   0.991   4.355  -0.023
 1144SOL    HW2 3453   1.096   4.299   0.089
 1145SOL     OW 3454   0.078   4.280   1.386
 1145SOL    HW1 3455   0.170   4.279   1.345
 1145SOL    HW2 3456   0.072   4.354   1.453
 1146SOL     OW 3457   0.561   3.946   1.147
 1146SOL    HW1 3458   0.599   3.862   1.184
 1146SOL    HW2 3459   0.473   3.965   1.191
 1147SOL     OW 3460   0.866   4.178   0.642
 1147SOL    HW1 3461   0.834   4.250   0.580
 1147SOL    HW2 3462   0.890   4.097   0.589
 1148SOL     OW 3463   1.017   3.763   0.753
 1148SOL    HW1 3464   0.945   3.768   0.684
 1148SOL    HW2 3465   0.993   3.694   0.822
 1149SOL     OW 3466   1.429   4.897   0.867
 1149SOL    HW1 3467   1.374   4.813   0.860
 1149SOL    HW2 3468   1.455   4.926   0.775
 1150SOL     OW 3469   1.466   4.314   0.992
 1150SOL    HW1 3470   1.436   4.219   0.999
 1150SOL    HW2 3471   1.539   4.330   1.058
 1151SOL     OW 3472   1.857   4.557   0.377
 1151SOL    HW1 3473   1.899   4.493   0.441
 1151SOL    HW2 3474   1.819   4.506   0.299
 1152SOL     OW 3475   1.390   4.299   0.078
 1152SOL    HW1 3476   1.336   4.278   0.159
 1152SOL    HW2 3477   1.481   4.258   0.087
 1153SOL     OW 3478   0.527   3.980   0.328
 1153SOL    HW1 3479   0.554   3.921   0.253
 1153SOL    HW2 3480   0.527   4.075   0.297
 1154SOL     OW 3481   1.638   4.823   1.079
 1154SOL    HW1 3482   1.643   4.904   1.138
 1154SOL    HW2 3483   1.552   4.825   1.028
 1155SOL     OW 3484   0.915   3.813   1.402
 1155SOL    HW1 3485   0.940   3.793   1.307
 1155SOL    HW2 3486   0.987   3.869   1.444
 1156SOL     OW 3487   0.410   4.537   1.251
 1156SOL    HW1 3488   0.496   4.549   1.301
 1156SOL    HW2 3489   0.368   4.450   1.278
 1157SOL     OW 3490   1.274   4.110   1.262
 1157SOL    HW1 3491   1.295   4.184   1.326
 1157SOL    HW2 3492   1.185   4.127   1.219
 1158SOL     OW 3493   0.566   4.261   0.865
 1158SOL    HW1 3494   0.578   4.327   0.791
 1158SOL    HW2 3495   0.612   4.295   0.948
 1159SOL     OW 3496   1.582   4.363   0.472
 1159SOL    HW1 3497   1.551   4.424   0.545
 1159SOL    HW2 3498   1.632   4.415   0.403
 1160SOL     OW 3499   0.402   4.475   1.598
 1160SOL    HW1 3500   0.470   4.530   1.551
 1160SOL    HW2 3501   0.442   4.387   1.625
 1161SOL     OW 3502   1.587   4.503   1.670
 1161SOL    HW1 3503   1.495   4.541   1.665
 1161SOL    HW2 3504   1.647   4.550   1.605
 1162SOL     OW 3505   1.013   3.829   1.770
 1162SOL    HW1 3506   1.019   3.914   1.718
 1162SOL    HW2 3507   1.045   3.753   1.713
 1163SOL     OW 3508   0.504   3.774   1.740
 1163SOL    HW1 3509   0.462   3.717   1.670
 1163SOL    HW2 3510   0.438   3.843   1.772
 1164SOL     OW 3511   0.573   4.594   1.029
 1164SOL    HW1 3512   0.617   4.683   1.020
 1164SOL    HW2 3513   0.510   4.594   1.106
 1165SOL     OW 3514   1.360   4.586   1.045
 1165SOL    HW1 3515   1.285   4.586   0.979
 1165SOL    HW2 3516   1.397   4.494   1.054
 1166SOL     OW 3517   1.209   4.249   0.275
 1166SOL    HW1 3518   1.222   4.165   0.329
 1166SOL    HW2 3519   1.180   4.323   0.335
 1167SOL     OW 3520   0.307   3.937   1.231
 1167SOL    HW1 3521   0.284   3.974   1.321
 1167SOL    HW2 3522   0.277   3.842   1.225
 1168SOL     OW 3523   0.037   5.034   1.282
 1168SOL    HW1 3524   0.090   4.985   1.350
 1168SOL    HW2 3525   0.059   5.132   1.287
 1169SOL     OW 3526   0.732   4.358   1.064
 1169SOL    HW1 3527   0.791   4.332   0.988
 1169SOL    HW2 3528   0.704   4.454   1.053
 1170SOL     OW 3529   1.728   4.659   1.854
 1170SOL    HW1 3530   1.682   4.652   1.765
 1170SOL    HW2 3531   1.666   4.703   1.920
 1171SOL     OW 3532   0.307   3.787   0.618
 1171SOL    HW1 3533   0.296   3.881   0.651
 1171SOL    HW2 3534   0.302   3.724   0.695
 1172SOL     OW 3535   1.622   4.091   0.374
 1172SOL    HW1 3536   1.624   4.015   0.438
 1172SOL    HW2 3537   1.574   4.168   0.414
 1173SOL     OW 3538   1.023   4.490   0.966
 1173SOL    HW1 3539   1.038   4.511   1.062
 1173SOL    HW2 3540   0.993   4.395   0.957
 1174SOL     OW 3541   0.350   4.622   1.804
 1174SOL    HW1 3542   0.426   4.666   1.852
 1174SOL    HW2 3543   0.385   4.575   1.722
 1175SOL     OW 3544   1.540   3.998   0.125
 1175SOL    HW1 3545   1.479   3.923   0.148
 1175SOL    HW2 3546   1.562   4.050   0.208
 1176SOL     OW 3547   1.303   4.562   0.042
 1176SOL    HW1 3548   1.337   4.469   0.057
 1176SOL    HW2 3549   1.321   4.589  -0.053
 1177SOL     OW 3550   0.319   4.534   0.949
 1177SOL    HW1 3551   0.412   4.570   0.954
 1177SOL    HW2 3552   0.313   4.449   1.001
 1178SOL     OW 3553   0.339   4.233   1.006
 1178SOL    HW1 3554   0.287   4.150   0.989
 1178SOL    HW2 3555   0.416   4.238   0.942
 1179SOL     OW 3556   1.138   4.104   1.678
 1179SOL    HW1 3557   1.093   4.167   1.742
 1179SOL    HW2 3558   1.231   4.135   1.661
 1180SOL     OW 3559   1.160   3.931   1.477
 1180SOL    HW1 3560   1.160   3.995   1.554
 1180SOL    HW2 3561   1.188   3.979   1.394
 1181SOL     OW 3562   1.002   4.520   1.238
 1181SOL    HW1 3563   1.043   4.488   1.324
 1181SOL    HW2 3564   0.906   4.493   1.235
 1182SOL     OW 3565   0.040   4.268   1.114
 1182SOL    HW1 3566   0.125   4.235   1.073
 1182SOL    HW2 3567   0.053   4.283   1.212
 1183SOL     OW 3568   0.189   4.244   1.722
 1183SOL    HW1 3569   0.248   4.204   1.652
 1183SOL    HW2 3570   0.131   4.315   1.681
 1184SOL     OW 3571   1.369   4.674   1.660
 1184SOL    HW1 3572   1.408   4.763   1.680
 1184SOL    HW2 3573   1.379   4.654   1.563
 1185SOL     OW 3574   0.815   4.296   0.325
 1185SOL    HW1 3575   0.822   4.207   0.279
 1185SOL    HW2 3576   0.721   4.330   0.317
 1186SOL     OW 3577   1.657   4.328   1.206
 1186SOL    HW1 3578   1.619   4.259   1.268
 1186SOL    HW2 3579   1.739   4.292   1.162
 1187SOL     OW 3580   0.671   4.188   1.269
 1187SOL    HW1 3581   0.637   4.099   1.239
 1187SOL    HW2 3582   0.697   4.242   1.189
 1188SOL     OW 3583   0.473   4.224   0.191
 1188SOL    HW1 3584   0.534   4.304   0.195
 1188SOL    HW2 3585   0.378   4.255   0.198
 1189SOL     OW 3586   0.159   4.861   1.466
 1189SOL    HW1 3587   0.181   4.800   1.542
 1189SOL    HW2 3588   0.169   4.812   1.380
 1190SOL     OW 3589   1.347   4.783   1.234
 1190SOL    HW1 3590   1.371   4.720   1.160
 1190SOL    HW2 3591   1.257   4.823   1.216
 1191SOL     OW 3592   1.302   4.579   0.309
 1191SOL    HW1 3593   1.216   4.548   0.351
 1191SOL    HW2 3594   1.298   4.565   0.210
 1192SOL     OW 3595   0.903   3.810   0.133
 1192SOL    HW1 3596   0.954   3.811   0.047
 1192SOL    HW2 3597   0.959   3.768   0.204
 1193SOL     OW 3598   1.726   3.859   0.523
 1193SOL    HW1 3599   1.799   3.842   0.456
 1193SOL    HW2 3600   1.695   3.772   0.561
 1194SOL     OW 3601   1.280   4.651   0.672
 1194SOL    HW1 3602   1.340   4.570   0.674
 1194SOL    HW2 3603   1.320   4.720   0.612
 1195SOL     OW 3604   1.841   3.899   0.963
 1195SOL    HW1 3605   1.880   3.814   0.927
 1195SOL    HW2 3606   1.743   3.901   0.944
 1196SOL     OW 3607   0.263   4.050   0.720
 1196SOL    HW1 3608   0.184   4.101   0.686
 1196SOL    HW2 3609   0.254   4.035   0.818
 1197SOL     OW 3610   0.916   4.634   0.291
 1197SOL    HW1 3611   0.979   4.672   0.223
 1197SOL    HW2 3612   0.956   4.551   0.330
 1198SOL     OW 3613   1.014   3.960   0.971
 1198SOL    HW1 3614   1.006   3.924   0.878
 1198SOL    HW2 3615   1.012   3.884   1.036
 1199SOL     OW 3616   1.709   4.109   1.381
 1199SOL    HW1 3617   1.782   4.178   1.385
 1199SOL    HW2 3618   1.737   4.034   1.322
 1200SOL     OW 3619   0.105   4.737   1.726
 1200SOL    HW1 3620   0.028   4.704   1.780
 1200SOL    HW2 3621   0.190   4.707   1.768
 1201SOL     OW 3622   0.672   3.927   1.489
 1201SOL    HW1 3623   0.762   3.911   1.449
 1201SOL    HW2 3624   0.680   3.932   1.588
 1202SOL     OW 3625   0.075   4.069   0.033
 1202SOL    HW1 3626  -0.017   4.041   0.004
 1202SOL    HW2 3627   0.106   4.146  -0.023
 1203SOL     OW 3628   1.440   4.580   1.398
 1203SOL    HW1 3629   1.383   4.632   1.335
 1203SOL    HW2 3630   1.536   4.592   1.374
 1204SOL     OW 3631   0.072   3.890   0.318
 1204SOL    HW1 3632   0.055   3.973   0.264
 1204SOL    HW2 3633   0.162   3.853   0.296
 1205SOL     OW 3634   1.183   5.059   0.119
 1205SOL    HW1 3635   1.084   5.048   0.121
 1205SOL    HW2 3636   1.217   5.074   0.212
 1206SOL     OW 3637   0.613   4.566   1.431
 1206SOL    HW1 3638   0.669   4.647   1.414
 1206SOL    HW2 3639   0.672   4.486   1.434
 1207SOL     OW 3640   0.716   4.289   1.708
 1207SOL    HW1 3641   0.735   4.354   1.782
 1207SOL    HW2 3642   0.776   4.209   1.717
 1208SOL     OW 3643   1.674   4.607   1.254
 1208SOL    HW1 3644   1.647   4.518   1.217
 1208SOL    HW2 3645   1.675   4.675   1.181
 1209SOL     OW 3646   1.225   4.049   0.449
 1209SOL    HW1 3647   1.290   3.975   0.438
 1209SOL    HW2 3648   1.245   4.099   0.533
 1210SOL     OW 3649   0.594   4.469   0.652
 1210SOL    HW1 3650   0.644   4.554   0.633
 1210SOL    HW2 3651   0.506   4.471   0.604
 1211SOL     OW 3652   1.777   4.066   1.642
 1211SOL    HW1 3653   1.760   4.097   1.548
 1211SOL    HW2 3654   1.693   4.029   1.680
 1212SOL     OW 3655   1.730   4.658   1.517
 1212SOL    HW1 3656   1.768   4.749   1.532
 1212SOL    HW2 3657   1.722   4.641   1.418
 1213SOL     OW 3658   0.859   4.680   0.861
 1213SOL    HW1 3659   0.913   4.611   0.909
 1213SOL    HW2 3660   0.827   4.749   0.927
 1214SOL     OW 3661   1.083   4.708   0.087
 1214SOL    HW1 3662   1.060   4.761   0.005
 1214SOL    HW2 3663   1.164   4.652   0.068
 1215SOL     OW 3664   0.079   4.964   0.653
 1215SOL    HW1 3665   0.078   4.917   0.741
 1215SOL    HW2 3666   0.161   4.936   0.602
 1216SOL     OW 3667   1.824   3.916   1.227
 1216SOL    HW1 3668   1.820   3.826   1.271
 1216SOL    HW2 3669   1.827   3.905   1.128
 1217SOL     OW 3670   0.428   4.148   0.520
 1217SOL    HW1 3671   0.458   4.076   0.458
 1217SOL    HW2 3672   0.389   4.108   0.603
 1218SOL     OW 3673   0.317   4.271   1.280
 1218SOL    HW1 3674   0.355   4.212   1.352
 1218SOL    HW2 3675   0.357   4.245   1.192
 1219SOL     OW 3676   1.424   3.938   1.112
 1219SOL    HW1 3677   1.476   3.873   1.167
 1219SOL    HW2 3678   1.375   4.001   1.173
 1220SOL     OW 3679   1.001   3.758   1.154
 1220SOL    HW1 3680   0.938   3.686   1.123
 1220SOL    HW2 3681   1.094   3.722   1.154
 1221SOL     OW 3682   1.352   3.776   0.168
 1221SOL    HW1 3683   1.387   3.735   0.084
 1221SOL    HW2 3684   1.262   3.738   0.188
 1222SOL     OW 3685   1.300   4.177   0.691
 1222SOL    HW1 3686   1.241   4.257   0.695
 1222SOL    HW2 3687   1.315   4.142   0.784
 1223SOL     OW 3688   1.593   3.945   0.882
 1223SOL    HW1 3689   1.509   3.944   0.936
 1223SOL    HW2 3690   1.595   4.028   0.826
 1224SOL     OW 3691   0.039   4.801   0.300
 1224SOL    HW1 3692   0.138   4.790   0.291
 1224SOL    HW2 3693  -0.001   4.715   0.332
 1225SOL     OW 3694   0.230   4.352   1.975
 1225SOL    HW1 3695   0.137   4.350   2.012
 1225SOL    HW2 3696   0.231   4.313   1.883
 1226SOL     OW 3697   0.225   3.999   2.858
 1226SOL    HW1 3698   0.260   3.982   2.950
 1226SOL    HW2 3699   0.137   3.954   2.846
 1227SOL     OW 3700   0.019   4.092   2.509
 1227SOL    HW1 3701  -0.063   4.135   2.548
 1227SOL    HW2 3702  -0.009   4.019   2.446
 1228SOL     OW 3703   1.135   4.427   2.579
 1228SOL    HW1 3704   1.192   4.505   2.554
 1228SOL    HW2 3705   1.075   4.453   2.655
 1229SOL     OW 3706   1.755   4.331   2.093
 1229SOL    HW1 3707   1.743   4.318   1.994
 1229SOL    HW2 3708   1.725   4.250   2.142
 1230SOL     OW 3709   0.768   4.868   2.885
 1230SOL    HW1 3710   0.690   4.885   2.945
 1230SOL    HW2 3711   0.802   4.955   2.849
 1231SOL     OW 3712   0.850   4.522   3.685
 1231SOL    HW1 3713   0.846   4.598   3.750
 1231SOL    HW2 3714   0.872   4.558   3.594
 1232SOL     OW 3715   0.685   4.736   2.527
 1232SOL    HW1 3716   0.754   4.720   2.597
 1232SOL    HW2 3717   0.612   4.793   2.565
 1233SOL     OW 3718   0.438   4.116   3.361
 1233SOL    HW1 3719   0.520   4.060   3.370
 1233SOL    HW2 3720   0.357   4.058   3.365
 1234SOL     OW 3721   1.603   4.171   2.599
 1234SOL    HW1 3722   1.529   4.217   2.549
 1234SOL    HW2 3723   1.654   4.239   2.652
 1235SOL     OW 3724   0.240   4.815   2.748
 1235SOL    HW1 3725   0.254   4.731   2.800
 1235SOL    HW2 3726   0.185   4.879   2.803
 1236SOL     OW 3727   0.606   4.688   1.985
 1236SOL    HW1 3728   0.613   4.772   1.931
 1236SOL    HW2 3729   0.652   4.701   2.073
 1237SOL     OW 3730   1.594   3.838   3.342
 1237SOL    HW1 3731   1.576   3.905   3.270
 1237SOL    HW2 3732   1.591   3.884   3.431
 1238SOL     OW 3733   0.122   4.367   2.425
 1238SOL    HW1 3734   0.077   4.279   2.442
 1238SOL    HW2 3735   0.121   4.421   2.509
 1239SOL     OW 3736   1.689   4.646   2.474
 1239SOL    HW1 3737   1.784   4.617   2.482
 1239SOL    HW2 3738   1.681   4.711   2.399
 1240SOL     OW 3739   0.113   4.461   3.459
 1240SOL    HW1 3740   0.201   4.448   3.504
 1240SOL    HW2 3741   0.100   4.558   3.437
 1241SOL     OW 3742   0.809   3.728   2.364
 1241SOL    HW1 3743   0.849   3.819   2.355
 1241SOL    HW2 3744   0.709   3.736   2.370
 1242SOL     OW 3745   0.197   4.700   3.126
 1242SOL    HW1 3746   0.286   4.655   3.112
 1242SOL    HW2 3747   0.124   4.635   3.107
 1243SOL     OW 3748   1.525   4.723   2.052
 1243SOL    HW1 3749   1.462   4.647   2.065
 1243SOL    HW2 3750   1.573   4.741   2.138
 1244SOL     OW 3751   0.317   3.975   3.663
 1244SOL    HW1 3752   0.388   4.046   3.669
 1244SOL    HW2 3753   0.229   4.014   3.691
 1245SOL     OW 3754   0.598   4.453   2.132
 1245SOL    HW1 3755   0.622   4.522   2.064
 1245SOL    HW2 3756   0.520   4.486   2.186
 1246SOL     OW 3757   1.281   4.069   2.806
 1246SOL    HW1 3758   1.195   4.019   2.793
 1246SOL    HW2 3759   1.343   4.015   2.862
 1247SOL     OW 3760   0.807   4.329   3.327
 1247SOL    HW1 3761   0.760   4.326   3.416
 1247SOL    HW2 3762   0.756   4.274   3.261
 1248SOL     OW 3763   1.394   4.193   3.536
 1248SOL    HW1 3764   1.374   4.236   3.624
 1248SOL    HW2 3765   1.472   4.131   3.545
 1249SOL     OW 3766   0.973   4.614   3.434
 1249SOL    HW1 3767   1.019   4.530   3.405
 1249SOL    HW2 3768   0.917   4.648   3.359
 1250SOL     OW 3769   0.991   4.134   3.104
 1250SOL    HW1 3770   0.914   4.168   3.158
 1250SOL    HW2 3771   0.957   4.083   3.025
 1251SOL     OW 3772   1.041   4.425   2.291
 1251SOL    HW1 3773   1.067   4.421   2.387
 1251SOL    HW2 3774   0.956   4.374   2.277
 1252SOL     OW 3775   0.076   4.535   2.651
 1252SOL    HW1 3776   0.175   4.523   2.660
 1252SOL    HW2 3777   0.052   4.630   2.672
 1253SOL     OW 3778   0.865   4.072   2.057
 1253SOL    HW1 3779   0.924   4.135   2.008
 1253SOL    HW2 3780   0.884   3.978   2.028
 1254SOL     OW 3781   1.719   4.309   3.693
 1254SOL    HW1 3782   1.693   4.398   3.657
 1254SOL    HW2 3783   1.717   4.241   3.620
 1255SOL     OW 3784   0.550   3.920   2.747
 1255SOL    HW1 3785   0.545   3.915   2.847
 1255SOL    HW2 3786   0.552   4.016   2.718
 1256SOL     OW 3787   1.795   4.790   2.735
 1256SOL    HW1 3788   1.733   4.775   2.659
 1256SOL    HW2 3789   1.743   4.801   2.820
 1257SOL     OW 3790   1.458   4.459   2.590
 1257SOL    HW1 3791   1.453   4.394   2.665
 1257SOL    HW2 3792   1.538   4.518   2.603
 1258SOL     OW 3793   0.202   4.009   3.360
 1258SOL    HW1 3794   0.122   4.069   3.347
 1258SOL    HW2 3795   0.192   3.960   3.446
 1259SOL     OW 3796   1.400   3.831   2.288
 1259SOL    HW1 3797   1.376   3.794   2.198
 1259SOL    HW2 3798   1.499   3.847   2.292
 1260SOL     OW 3799   0.382   4.424   2.342
 1260SOL    HW1 3800   0.427   4.334   2.339
 1260SOL    HW2 3801   0.288   4.413   2.375
 1261SOL     OW 3802   1.547   3.946   3.591
 1261SOL    HW1 3803   1.542   3.983   3.683
 1261SOL    HW2 3804   1.475   3.877   3.579
 1262SOL     OW 3805   0.614   3.846   1.979
 1262SOL    HW1 3806   0.712   3.824   1.986
 1262SOL    HW2 3807   0.583   3.829   1.886
 1263SOL     OW 3808   0.781   3.988   3.611
 1263SOL    HW1 3809   0.848   3.927   3.654
 1263SOL    HW2 3810   0.708   4.007   3.676
 1264SOL     OW 3811   1.351   4.314   3.295
 1264SOL    HW1 3812   1.379   4.271   3.380
 1264SOL    HW2 3813   1.376   4.410   3.296
 1265SOL     OW 3814   0.922   4.227   2.761
 1265SOL    HW1 3815   0.897   4.218   2.665
 1265SOL    HW2 3816   0.970   4.145   2.792
 1266SOL     OW 3817   0.539   3.788   2.374
 1266SOL    HW1 3818   0.458   3.789   2.432
 1266SOL    HW2 3819   0.542   3.871   2.319
 1267SOL     OW 3820   0.297   3.759   2.033
 1267SOL    HW1 3821   0.346   3.843   2.012
 1267SOL    HW2 3822   0.359   3.694   2.078
 1268SOL     OW 3823   0.935   3.960   2.342
 1268SOL    HW1 3824   0.887   4.001   2.264
 1268SOL    HW2 3825   1.034   3.958   2.323
 1269SOL     OW 3826   1.076   4.407   3.326
 1269SOL    HW1 3827   0.996   4.346   3.329
 1269SOL    HW2 3828   1.157   4.354   3.302
 1270SOL     OW 3829   1.032   4.273   1.878
 1270SOL    HW1 3830   0.991   4.355   1.839
 1270SOL    HW2 3831   1.096   4.299   1.951
 1271SOL     OW 3832   0.078   4.280   3.248
 1271SOL    HW1 3833   0.170   4.279   3.207
 1271SOL    HW2 3834   0.072   4.354   3.315
 1272SOL     OW 3835   0.561   3.946   3.009
 1272SOL    HW1 3836   0.599   3.862   3.046
 1272SOL    HW2 3837   0.473   3.965   3.053
 1273SOL     OW 3838   0.866   4.178   2.504
 1273SOL    HW1 3839   0.834   4.250   2.442
 1273SOL    HW2 3840   0.890   4.097   2.451
 1274SOL     OW 3841   1.017   3.763   2.615
 1274SOL    HW1 3842   0.945   3.768   2.546
 1274SOL    HW2 3843   0.993   3.694   2.684
 1275SOL     OW 3844   1.429   4.897   2.729
 1275SOL    HW1 3845   1.374   4.813   2.722
 1275SOL    HW2 3846   1.455   4.926   2.637
 1276SOL     OW 3847   1.466   4.314   2.854
 1276SOL    HW1 3848   1.436   4.219   2.861
 1276SOL    HW2 3849   1.539   4.330   2.920
 1277SOL     OW 3850   1.857   4.557   2.239
 1277SOL    HW1 3851   1.899   4.493   2.303
 1277SOL    HW2 3852   1.819   4.506   2.161
 1278SOL     OW 3853   1.390   4.299   1.940
 1278SOL    HW1 3854   1.336   4.278   2.021
 1278SOL    HW2 3855   1.481   4.258   1.949
 1279SOL     OW 3856   0.527   3.980   2.190
 1279SOL    HW1 3857   0.554   3.921   2.115
 1279SOL    HW2 3858   0.527   4.075   2.159
 1280SOL     OW 3859   1.638   4.823   2.941
 1280SOL    HW1 3860   1.643   4.904   3.000
 1280SOL    HW2 3861   1.552   4.825   2.890
 1281SOL     OW 3862   0.915   3.813   3.264
 1281SOL    HW1 3863   0.940   3.793   3.169
 1281SOL    HW2 3864   0.987   3.869   3.306
 1282SOL     OW 3865   0.410   4.537   3.113
 1282SOL    HW1 3866   0.496   4.549   3.163
 1282SOL    HW2 3867   0.368   4.450   3.140
 1283SOL     OW 3868   1.274   4.110   3.124
 1283SOL    HW1 3869   1.295   4.184   3.188
 1283SOL    HW2 3870   1.185   4.127   3.081
 1284SOL     OW 3871   0.566   4.261   2.727
 1284SOL    HW1 3872   0.578   4.327   2.653
 1284SOL    HW2 3873   0.612   4.295   2.810
 1285SOL     OW 3874   1.582   4.363   2.334
 1285SOL    HW1 3875   1.551   4.424   2.407
 1285SOL    HW2 3876   1.632   4.415   2.265
 1286SOL     OW 3877   0.402   4.475   3.460
 1286SOL    HW1 3878   0.470   4.530   3.413
 1286SOL    HW2 3879   0.442   4.387   3.487
 1287SOL     OW 3880   1.587   4.503   3.532
 1287SOL    HW1 3881   1.495   4.541   3.527
 1287SOL    HW2 3882   1.647   4.550   3.467
 1288SOL     OW 3883   1.013   3.829   3.632
 1288SOL    HW1 3884   1.019   3.914   3.580
 1288SOL    HW2 3885   1.045   3.753   3.575
 1289SOL     OW 3886   0.504   3.774   3.602
 1289SOL    HW1 3887   0.462   3.717   3.532
 1289SOL    HW2 3888   0.438   3.843   3.634
 1290SOL     OW 3889   0.573   4.594   2.891
 1290SOL    HW1 3890   0.617   4.683   2.882
 1290SOL    HW2 3891   0.510   4.594   2.968
 1291SOL     OW 3892   1.360   4.586   2.907
 1291SOL    HW1 3893   1.285   4.586   2.841
 1291SOL    HW2 3894   1.397   4.494   2.916
 1292SOL     OW 3895   1.209   4.249   2.137
 1292SOL    HW1 3896   1.222   4.165   2.191
 1292SOL    HW2 3897   1.180   4.323   2.197
 1293SOL     OW 3898   0.307   3.937   3.093
 1293SOL    HW1 3899   0.284   3.974   3.183
 1293SOL    HW2 3900   0.277   3.842   3.087
 1294SOL     OW 3901   0.037   5.034   3.144
 1294SOL    HW1 3902   0.090   4.985   3.212
 1294SOL    HW2 3903   0.059   5.132   3.149
 1295SOL     OW 3904   0.732   4.358   2.926
 1295SOL    HW1 3905   0.791   4.332   2.850
 1295SOL    HW2 3906   0.704   4.454   2.915
 1296SOL     OW 3907   1.728   4.659   3.716
 1296SOL    HW1 3908   1.682   4.652   3.627
 1296SOL    HW2 3909   1.666   4.703   3.782
 1297SOL     OW 3910   0.307   3.787   2.480
 1297SOL    HW1 3911   0.296   3.881   2.513
 1297SOL    HW2 3912   0.302   3.724   2.557
 1298SOL     OW 3913   1.622   4.091   2.236
 1298SOL    HW1 3914   1.624   4.015   2.300
 1298SOL    HW2 3915   1.574   4.168   2.276
 1299SOL     OW 3916   1.023   4.490   2.828
 1299SOL    HW1 3917   1.038   4.511   2.924
 1299SOL    HW2 3918   0.993   4.395   2.819
 1300SOL     OW 3919   0.350   4.622   3.666
 1300SOL    HW1 3920   0.426   4.666   3.714
 1300SOL    HW2 3921   0.385   4.575   3.584
 1301SOL     OW 3922   1.540   3.998   1.987
 1301SOL    HW1 3923   1.479   3.923   2.010
 1301SOL    HW2 3924   1.562   4.050   2.070
 1302SOL     OW 3925   1.303   4.562   1.904
 1302SOL    HW1 3926   1.337   4.469   1.919
 1302SOL    HW2 3927   1.321   4.589   1.809
 1303SOL     OW 3928   0.319   4.534   2.811
 1303SOL    HW1 3929   0.412   4.570   2.816
 1303SOL    HW2 3930   0.313   4.449   2.863
 1304SOL     OW 3931   0.339   4.233   2.868
 1304SOL    HW1 3932   0.287   4.150   2.851
 1304SOL    HW2 3933   0.416   4.238   2.804
 1305SOL     OW 3934   1.138   4.104   3.540
 1305SOL    HW1 3935   1.093   4.167   3.604
 1305SOL    HW2 3936   1.231   4.135   3.523
 1306SOL     OW 3937   1.160   3.931   3.339
 1306SOL    HW1 3938   1.160   3.995   3.416
 1306SOL    HW2 3939   1.188   3.979   3.256
 1307SOL     OW 3940   1.002   4.520   3.100
 1307SOL    HW1 3941   1.043   4.488   3.186
 1307SOL    HW2 3942   0.906   4.493   3.097
 1308SOL     OW 3943   0.040   4.268   2.976
 1308SOL    HW1 3944   0.125   4.235   2.935
 1308SOL    HW2 3945   0.053   4.283   3.074
 1309SOL     OW 3946   0.189   4.244   3.584
 1309SOL    HW1 3947   0.248   4.204   3.514
 1309SOL    HW2 3948   0.131   4.315   3.543
 1310SOL     OW 3949   1.369   4.674   3.522
 1310SOL    HW1 3950   1.408   4.763   3.542
 1310SOL    HW2 3951   1.379   4.654   3.425
 1311SOL     OW 3952   0.815   4.296   2.187
 1311SOL    HW1 3953   0.822   4.207   2.141
 1311SOL    HW2 3954   0.721   4.330   2.179
 1312SOL     OW 3955   1.657   4.328   3.068
 1312SOL    HW1 3956   1.619   4.259   3.130
 1312SOL    HW2 3957   1.739   4.292   3.024
 1313SOL     OW 3958   0.671   4.188   3.131
 1313SOL    HW1 3959   0.637   4.099   3.101
 1313SOL    HW2 3960   0.697   4.242   3.051
 1314SOL     OW 3961   0.473   4.224   2.053
 1314SOL    HW1 3962   0.534   4.304   2.057
 1314SOL    HW2 3963   0.378   4.255   2.060
 1315SOL     OW 3964   0.159   4.861   3.328
 1315SOL    HW1 3965   0.181   4.800   3.404
 1315SOL    HW2 3966   0.169   4.812   3.242
 1316SOL     OW 3967   1.347   4.783   3.096
 1316SOL    HW1 3968   1.371   4.720   3.022
 1316SOL    HW2 3969   1.257   4.823   3.078
 1317SOL     OW 3970   1.302   4.579   2.171
 1317SOL    HW1 3971   1.216   4.548   2.213
 1317SOL    HW2 3972   1.298   4.565   2.072
 1318SOL     OW 3973   1.726   3.859   2.385
 1318SOL    HW1 3974   1.799   3.842   2.318
 1318SOL    HW2 3975   1.695   3.772   2.423
 1319SOL     OW 3976   1.280   4.651   2.534
 1319SOL    HW1 3977   1.340   4.570   2.536
 1319SOL    HW2 3978   1.320   4.720   2.474
 1320SOL     OW 3979   1.841   3.899   2.825
 1320SOL    HW1 3980   1.880   3.814   2.789
 1320SOL    HW2 3981   1.743   3.901   2.806
 1321SOL     OW 3982   0.263   4.050   2.582
 1321SOL    HW1 3983   0.184   4.101   2.548
 1321SOL    HW2 3984   0.254   4.035   2.680
 1322SOL     OW 3985   0.916   4.634   2.153
 1322SOL    HW1 3986   0.979   4.672   2.085
 1322SOL    HW2 3987   0.956   4.551   2.192
 1323SOL     OW 3988   1.014   3.960   2.833
 1323SOL    HW1 3989   1.006   3.924   2.740
 1323SOL    HW2 3990   1.012   3.884   2.898
 1324SOL     OW 3991   1.709   4.109   3.243
 1324SOL    HW1 3992   1.782   4.178   3.247
 1324SOL    HW2 3993   1.737   4.034   3.184
 1325SOL     OW 3994   0.105   4.737   3.588
 1325SOL    HW1 3995   0.028   4.704   3.642
 1325SOL    HW2 3996   0.190   4.707   3.630
 1326SOL     OW 3997   0.672   3.927   3.351
 1326SOL    HW1 3998   0.762   3.911   3.311
 1326SOL    HW2 3999   0.680   3.932   3.450
 1327SOL     OW 4000   0.075   4.069   1.895
 1327SOL    HW1 4001  -0.017   4.041   1.866
 1327SOL    HW2 4002   0.106   4.146   1.839
 1328SOL     OW 4003   1.440   4.580   3.260
 1328SOL    HW1 4004   1.383   4.632   3.197
 1328SOL    HW2 4005   1.536   4.592   3.236
 1329SOL     OW 4006   0.072   3.890   2.180
 1329SOL    HW1 4007   0.055   3.973   2.126
 1329SOL    HW2 4008   0.162   3.853   2.158
 1330SOL     OW 4009   1.183   5.059   1.981
 1330SOL    HW1 4010   1.084   5.048   1.983
 1330SOL    HW2 4011   1.217   5.074   2.074
 1331SOL     OW 4012   0.613   4.566   3.293
 1331SOL    HW1 4013   0.669   4.647   3.276
 1331SOL    HW2 4014   0.672   4.486   3.296
 1332SOL     OW 4015   0.716   4.289   3.570
 1332SOL    HW1 4016   0.735   4.354   3.644
 1332SOL    HW2 4017   0.776   4.209   3.579
 1333SOL     OW 4018   1.674   4.607   3.116
 1333SOL    HW1 4019   1.647   4.518   3.079
 1333SOL    HW2 4020   1.675   4.675   3.043
 1334SOL     OW 4021   1.225   4.049   2.311
 1334SOL    HW1 4022   1.290   3.975   2.300
 1334SOL    HW2 4023   1.245   4.099   2.395
 1335SOL     OW 4024   0.594   4.469   2.514
 1335SOL    HW1 4025   0.644   4.554   2.495
 1335SOL    HW2 4026   0.506   4.471   2.466
 1336SOL     OW 4027   1.777   4.066   3.504
 1336SOL    HW1 4028   1.760   4.097   3.410
 1336SOL    HW2 4029   1.693   4.029   3.542
 1337SOL     OW 4030   1.730   4.658   3.379
 1337SOL    HW1 4031   1.768   4.749   3.394
 1337SOL    HW2 4032   1.722   4.641   3.280
 1338SOL     OW 4033   0.859   4.680   2.723
 1338SOL    HW1 4034   0.913   4.611   2.771
 1338SOL    HW2 4035   0.827   4.749   2.789
 1339SOL     OW 4036   1.083   4.708   1.949
 1339SOL    HW1 4037   1.060   4.761   1.867
 1339SOL    HW2 4038   1.164   4.652   1.930
 1340SOL     OW 4039   0.079   4.964   2.515
 1340SOL    HW1 4040   0.078   4.917   2.603
 1340SOL    HW2 4041   0.161   4.936   2.464
 1341SOL     OW 4042   1.824   3.916   3.089
 1341SOL    HW1 4043   1.820   3.826   3.133
 1341SOL    HW2 4044   1.827   3.905   2.990
 1342SOL     OW 4045   0.428   4.148   2.382
 1342SOL    HW1 4046   0.458   4.076   2.320
 1342SOL    HW2 4047   0.389   4.108   2.465
 1343SOL     OW 4048   0.317   4.271   3.142
 1343SOL    HW1 4049   0.355   4.212   3.214
 1343SOL    HW2 4050   0.357   4.245   3.054
 1344SOL     OW 4051   1.424   3.938   2.974
 1344SOL    HW1 4052   1.476   3.873   3.029
 1344SOL    HW2 4053   1.375   4.001   3.035
 1345SOL     OW 4054   1.001   3.758   3.016
 1345SOL    HW1 4055   0.938   3.686   2.985
 1345SOL    HW2 4056   1.094   3.722   3.016
 1346SOL     OW 4057   1.352   3.776   2.030
 1346SOL    HW1 4058   1.387   3.735   1.946
 1346SOL    HW2 4059   1.262   3.738   2.050
 1347SOL     OW 4060   1.300   4.177   2.553
 1347SOL    HW1 4061   1.241   4.257   2.557
 1347SOL    HW2 4062   1.315   4.142   2.646
 1348SOL     OW 4063   1.593   3.945   2.744
 1348SOL    HW1 4064   1.509   3.944   2.798
 1348SOL    HW2 4065   1.595   4.028   2.688
 1349SOL     OW 4066   0.039   4.801   2.162
 1349SOL    HW1 4067   0.138   4.790   2.153
 1349SOL    HW2 4068  -0.001   4.715   2.194
 1350SOL     OW 4069   0.230   4.352   3.837
 1350SOL    HW1 4070   0.137   4.350   3.874
 1350SOL    HW2 4071   0.231   4.313   3.745
 1351SOL     OW 4072   0.225   3.999   4.720
 1351SOL    HW1 4073   0.260   3.982   4.812
 1351SOL    HW2 4074   0.137   3.954   4.708
 1352SOL     OW 4075   0.019   4.092   4.371
 1352SOL    HW1 4076  -0.063   4.135   4.410
 1352SOL    HW2 4077  -0.009   4.019   4.308
 1353SOL     OW 4078   1.135   4.427   4.441
 1353SOL    HW1 4079   1.192   4.505   4.416
 1353SOL    HW2 4080   1.075   4.453   4.517
 1354SOL     OW 4081   1.755   4.331   3.955
 1354SOL    HW1 4082   1.743   4.318   3.856
 1354SOL    HW2 4083   1.725   4.250   4.004
 1355SOL     OW 4084   0.685   4.736   4.389
 1355SOL    HW1 4085   0.754   4.720   4.459
 1355SOL    HW2 4086   0.612   4.793   4.427
 1356SOL     OW 4087   1.603   4.171   4.461
 1356SOL    HW1 4088   1.529   4.217   4.411
 1356SOL    HW2 4089   1.654   4.239   4.514
 1357SOL     OW 4090   0.240   4.815   4.610
 1357SOL    HW1 4091   0.254   4.731   4.662
 1357SOL    HW2 4092   0.185   4.879   4.665
 1358SOL     OW 4093   0.606   4.688   3.847
 1358SOL    HW1 4094   0.613   4.772   3.793
 1358SOL    HW2 4095   0.652   4.701   3.935
 1359SOL     OW 4096   0.122   4.367   4.287
 1359SOL    HW1 4097   0.077   4.279   4.304
 1359SOL    HW2 4098   0.121   4.421   4.371
 1360SOL     OW 4099   1.689   4.646   4.336
 1360SOL    HW1 4100   1.784   4.617   4.344
 1360SOL    HW2 4101   1.681   4.711   4.261
 1361SOL     OW 4102   0.809   3.728   4.226
 1361SOL    HW1 4103   0.849   3.819   4.217
 1361SOL    HW2 4104   0.709   3.736   4.232
 1362SOL     OW 4105   0.197   4.700   4.988
 1362SOL    HW1 4106   0.286   4.655   4.974
 1362SOL    HW2 4107   0.124   4.635   4.969
 1363SOL     OW 4108   1.525   4.723   3.914
 1363SOL    HW1 4109   1.462   4.647   3.927
 1363SOL    HW2 4110   1.573   4.741   4.000
 1364SOL     OW 4111   0.598   4.453   3.994
 1364SOL    HW1 4112   0.622   4.522   3.926
 1364SOL    HW2 4113   0.520   4.486   4.048
 1365SOL     OW 4114   1.281   4.069   4.668
 1365SOL    HW1 4115   1.195   4.019   4.655
 1365SOL    HW2 4116   1.343   4.015   4.724
 1366SOL     OW 4117   1.041   4.425   4.153
 1366SOL    HW1 4118   1.067   4.421   4.249
 1366SOL    HW2 4119   0.956   4.374   4.139
 1367SOL     OW 4120   0.076   4.535   4.513
 1367SOL    HW1 4121   0.175   4.523   4.522
 1367SOL    HW2 4122   0.052   4.630   4.534
 1368SOL     OW 4123   0.865   4.072   3.919
 1368SOL    HW1 4124   0.924   4.135   3.870
 1368SOL    HW2 4125   0.884   3.978   3.890
 1369SOL     OW 4126   0.550   3.920   4.609
 1369SOL    HW1 4127   0.545   3.915   4.709
 1369SOL    HW2 4128   0.552   4.016   4.580
 1370SOL     OW 4129   1.795   4.790   4.597
 1370SOL    HW1 4130   1.733   4.775   4.521
 1370SOL    HW2 4131   1.743   4.801   4.682
 1371SOL     OW 4132   1.458   4.459   4.452
 1371SOL    HW1 4133   1.453   4.394   4.527
 1371SOL    HW2 4134   1.538   4.518   4.465
 1372SOL     OW 4135   1.400   3.831   4.150
 1372SOL    HW1 4136   1.376   3.794   4.060
 1372SOL    HW2 4137   1.499   3.847   4.154
 1373SOL     OW 4138   0.382   4.424   4.204
 1373SOL    HW1 4139   0.427   4.334   4.201
 1373SOL    HW2 4140   0.288   4.413   4.237
 1374SOL     OW 4141   0.614   3.846   3.841
 1374SOL    HW1 4142   0.712   3.824   3.848
 1374SOL    HW2 4143   0.583   3.829   3.748
 1375SOL     OW 4144   0.922   4.227   4.623
 1375SOL    HW1 4145   0.897   4.218   4.527
 1375SOL    HW2 4146   0.970   4.145   4.654
 1376SOL     OW 4147   0.539   3.788   4.236
 1376SOL    HW1 4148   0.458   3.789   4.294
 1376SOL    HW2 4149   0.542   3.871   4.181
 1377SOL     OW 4150   0.297   3.759   3.895
 1377SOL    HW1 4151   0.346   3.843   3.874
 1377SOL    HW2 4152   0.359   3.694   3.940
 1378SOL     OW 4153   0.935   3.960   4.204
 1378SOL    HW1 4154   0.887   4.001   4.126
 1378SOL    HW2 4155   1.034   3.958   4.185
 1379SOL     OW 4156   1.032   4.273   3.740
 1379SOL    HW1 4157   0.991   4.355   3.701
 1379SOL    HW2 4158   1.096   4.299   3.813
 1380SOL     OW 4159   0.866   4.178   4.366
 1380SOL    HW1 4160   0.834   4.250   4.304
 1380SOL    HW2 4161   0.890   4.097   4.313
 1381SOL     OW 4162   1.017   3.763   4.477
 1381SOL    HW1 4163   0.945   3.768   4.408
 1381SOL    HW2 4164   0.993   3.694   4.546
 1382SOL     OW 4165   1.429   4.897   4.591
 1382SOL    HW1 4166   1.374   4.813   4.584
 1382SOL    HW2 4167   1.455   4.926   4.499
 1383SOL     OW 4168   1.466   4.314   4.716
 1383SOL    HW1 4169   1.436   4.219   4.723
 1383SOL    HW2 4170   1.539   4.330   4.782
 1384SOL     OW 4171   1.857   4.557   4.101
 1384SOL    HW1 4172   1.899   4.493   4.165
 1384SOL    HW2 4173   1.819   4.506   4.023
 1385SOL     OW 4174   1.390   4.299   3.802
 1385SOL    HW1 4175   1.336   4.278   3.883
 1385SOL    HW2 4176   1.481   4.258   3.811
 1386SOL     OW 4177   0.527   3.980   4.052
 1386SOL    HW1 4178   0.554   3.921   3.977
 1386SOL    HW2 4179   0.527   4.075   4.021
 1387SOL     OW 4180   1.638   4.823   4.803
 1387SOL    HW1 4181   1.643   4.904   4.862
 1387SOL    HW2 4182   1.552   4.825   4.752
 1388SOL     OW 4183   0.566   4.261   4.589
 1388SOL    HW1 4184   0.578   4.327   4.515
 1388SOL    HW2 4185   0.612   4.295   4.672
 1389SOL     OW 4186   1.582   4.363   4.196
 1389SOL    HW1 4187   1.551   4.424   4.269
 1389SOL    HW2 4188   1.632   4.415   4.127
 1390SOL     OW 4189   0.573   4.594   4.753
 1390SOL    HW1 4190   0.617   4.683   4.744
 1390SOL    HW2 4191   0.510   4.594   4.830
 1391SOL     OW 4192   1.209   4.249   3.999
 1391SOL    HW1 4193   1.222   4.165   4.053
 1391SOL    HW2 4194   1.180   4.323   4.059
 1392SOL     OW 4195   0.307   3.937   4.955
 1392SOL    HW1 4196   0.284   3.974   5.045
 1392SOL    HW2 4197   0.277   3.842   4.949
 1393SOL     OW 4198   0.732   4.358   4.788
 1393SOL    HW1 4199   0.791   4.332   4.712
 1393SOL    HW2 4200   0.704   4.454   4.777
 1394SOL     OW 4201   0.307   3.787   4.342
 1394SOL    HW1 4202   0.296   3.881   4.375
 1394SOL    HW2 4203   0.302   3.724   4.419
 1395SOL     OW 4204   1.622   4.091   4.098
 1395SOL    HW1 4205   1.624   4.015   4.162
 1395SOL    HW2 4206   1.574   4.168   4.138
 1396SOL     OW 4207   1.540   3.998   3.849
 1396SOL    HW1 4208   1.479   3.923   3.872
 1396SOL    HW2 4209   1.562   4.050   3.932
 1397SOL     OW 4210   1.303   4.562   3.766
 1397SOL    HW1 4211   1.337   4.469   3.781
 1397SOL    HW2 4212   1.321   4.589   3.671
 1398SOL     OW 4213   0.319   4.534   4.673
 1398SOL    HW1 4214   0.412   4.570   4.678
 1398SOL    HW2 4215   0.313   4.449   4.725
 1399SOL     OW 4216   0.339   4.233   4.730
 1399SOL    HW1 4217   0.287   4.150   4.713
 1399SOL    HW2 4218   0.416   4.238   4.666
 1400SOL     OW 4219   1.002   4.520   4.962
 1400SOL    HW1 4220   1.043   4.488   5.048
 1400SOL    HW2 4221   0.906   4.493   4.959
 1401SOL     OW 4222   0.815   4.296   4.049
 1401SOL    HW1 4223   0.822   4.207   4.003
 1401SOL    HW2 4224   0.721   4.330   4.041
 1402SOL     OW 4225   0.671   4.188   4.993
 1402SOL    HW1 4226   0.637   4.099   4.963
 1402SOL    HW2 4227   0.697   4.242   4.913
 1403SOL     OW 4228   0.473   4.224   3.915
 1403SOL    HW1 4229   0.534   4.304   3.919
 1403SOL    HW2 4230   0.378   4.255   3.922
 1404SOL     OW 4231   1.302   4.579   4.033
 1404SOL    HW1 4232   1.216   4.548   4.075
 1404SOL    HW2 4233   1.298   4.565   3.934
 1405SOL     OW 4234   1.726   3.859   4.247
 1405SOL    HW1 4235   1.799   3.842   4.180
 1405SOL    HW2 4236   1.695   3.772   4.285
 1406SOL     OW 4237   1.280   4.651   4.396
 1406SOL    HW1 4238   1.340   4.570   4.398
 1406SOL    HW2 4239   1.320   4.720   4.336
 1407SOL     OW 4240   1.841   3.899   4.687
 1407SOL    HW1 4241   1.880   3.814   4.651
 1407SOL    HW2 4242   1.743   3.901   4.668
 1408SOL     OW 4243   0.263   4.050   4.444
 1408SOL    HW1 4244   0.184   4.101   4.410
 1408SOL    HW2 4245   0.254   4.035   4.542
 1409SOL     OW 4246   0.916   4.634   4.015
 1409SOL    HW1 4247   0.979   4.672   3.947
 1409SOL    HW2 4248   0.956   4.551   4.054
 1410SOL     OW 4249   1.014   3.960   4.695
 1410SOL    HW1 4250   1.006   3.924   4.602
 1410SOL    HW2 4251   1.012   3.884   4.760
 1411SOL     OW 4252   0.075   4.069   3.757
 1411SOL    HW1 4253  -0.017   4.041   3.728
 1411SOL    HW2 4254   0.106   4.146   3.701
 1412SOL     OW 4255   0.072   3.890   4.042
 1412SOL    HW1 4256   0.055   3.973   3.988
 1412SOL    HW2 4257   0.162   3.853   4.020
 1413SOL     OW 4258   1.183   5.059   3.843
 1413SOL    HW1 4259   1.084   5.048   3.845
 1413SOL    HW2 4260   1.217   5.074   3.936
 1414SOL     OW 4261   1.674   4.607   4.978
 1414SOL    HW1 4262   1.647   4.518   4.941
 1414SOL    HW2 4263   1.675   4.675   4.905
 1415SOL     OW 4264   1.225   4.049   4.173
 1415SOL    HW1 4265   1.290   3.975   4.162
 1415SOL    HW2 4266   1.245   4.099   4.257
 1416SOL     OW 4267   0.594   4.469   4.376
 1416SOL    HW1 4268   0.644   4.554   4.357
 1416SOL    HW2 4269   0.506   4.471   4.328
 1417SOL     OW 4270   0.859   4.680   4.585
 1417SOL    HW1 4271   0.913   4.611   4.633
 1417SOL    HW2 4272   0.827   4.749   4.651
 1418SOL     OW 4273   1.083   4.708   3.811
 1418SOL    HW1 4274   1.060   4.761   3.729
 1418SOL    HW2 4275   1.164   4.652   3.792
 1419SOL     OW 4276   0.079   4.964   4.377
 1419SOL    HW1 4277   0.078   4.917   4.465
 1419SOL    HW2 4278   0.161   4.936   4.326
 1420SOL     OW 4279   1.824   3.916   4.951
 1420SOL    HW1 4280   1.820   3.826   4.995
 1420SOL    HW2 4281   1.827   3.905   4.852
 1421SOL     OW 4282   0.428   4.148   4.244
 1421SOL    HW1 4283   0.458   4.076   4.182
 1421SOL    HW2 4284   0.389   4.108   4.327
 1422SOL     OW 4285   1.352   3.776   3.892
 1422SOL    HW1 4286   1.387   3.735   3.808
 1422SOL    HW2 4287   1.262   3.738   3.912
 1423SOL     OW 4288   1.300   4.177   4.415
 1423SOL    HW1 4289   1.241   4.257   4.419
 1423SOL    HW2 4290   1.315   4.142   4.508
 1424SOL     OW 4291   1.593   3.945   4.606
 1424SOL    HW1 4292   1.509   3.944   4.660
 1424SOL    HW2 4293   1.595   4.028   4.550
 1425SOL     OW 4294   0.039   4.801   4.024
 1425SOL    HW1 4295   0.138   4.790   4.015
 1425SOL    HW2 4296  -0.001   4.715   4.056
 1426SOL     OW 4297   2.092   0.628   0.113
 1426SOL    HW1 4298   1.999   0.626   0.150
 1426SOL    HW2 4299   2.093   0.589   0.021
 1427SOL     OW 4300   2.087   0.275   0.996
 1427SOL    HW1 4301   2.122   0.258   1.088
 1427SOL    HW2 4302   1.999   0.230   0.984
 1428SOL     OW 4303   1.881   0.368   0.647
 1428SOL    HW1 4304   1.799   0.411   0.686
 1428SOL    HW2 4305   1.853   0.295   0.584
 1429SOL     OW 4306   2.431   1.275   1.165
 1429SOL    HW1 4307   2.338   1.268   1.128
 1429SOL    HW2 4308   2.442   1.364   1.209
 1430SOL     OW 4309   3.417   1.511   0.703
 1430SOL    HW1 4310   3.360   1.495   0.784
 1430SOL    HW2 4311   3.358   1.521   0.623
 1431SOL     OW 4312   2.997   0.703   0.717
 1431SOL    HW1 4313   3.054   0.781   0.692
 1431SOL    HW2 4314   2.937   0.729   0.793
 1432SOL     OW 4315   3.617   0.607   0.231
 1432SOL    HW1 4316   3.605   0.594   0.132
 1432SOL    HW2 4317   3.587   0.526   0.280
 1433SOL     OW 4318   2.630   1.144   1.023
 1433SOL    HW1 4319   2.552   1.161   1.083
 1433SOL    HW2 4320   2.664   1.231   0.987
 1434SOL     OW 4321   2.712   0.798   1.823
 1434SOL    HW1 4322   2.708   0.874   1.888
 1434SOL    HW2 4323   2.734   0.834   1.732
 1435SOL     OW 4324   2.547   1.012   0.665
 1435SOL    HW1 4325   2.616   0.996   0.735
 1435SOL    HW2 4326   2.474   1.069   0.703
 1436SOL     OW 4327   2.548   1.161   1.803
 1436SOL    HW1 4328   2.608   1.240   1.817
 1436SOL    HW2 4329   2.462   1.192   1.762
 1437SOL     OW 4330   2.197   1.435   1.061
 1437SOL    HW1 4331   2.119   1.404   1.008
 1437SOL    HW2 4332   2.255   1.493   1.004
 1438SOL     OW 4333   3.322   1.505   1.339
 1438SOL    HW1 4334   3.346   1.599   1.365
 1438SOL    HW2 4335   3.306   1.451   1.421
 1439SOL     OW 4336   2.300   0.392   1.499
 1439SOL    HW1 4337   2.382   0.336   1.508
 1439SOL    HW2 4338   2.219   0.334   1.503
 1440SOL     OW 4339   3.465   0.447   0.737
 1440SOL    HW1 4340   3.391   0.493   0.687
 1440SOL    HW2 4341   3.516   0.515   0.790
 1441SOL     OW 4342   2.093   1.713   0.483
 1441SOL    HW1 4343   2.127   1.790   0.537
 1441SOL    HW2 4344   2.137   1.713   0.393
 1442SOL     OW 4345   2.989   1.341   1.690
 1442SOL    HW1 4346   3.036   1.341   1.778
 1442SOL    HW2 4347   2.941   1.254   1.679
 1443SOL     OW 4348   2.092   1.434   0.538
 1443SOL    HW1 4349   2.066   1.530   0.538
 1443SOL    HW2 4350   2.021   1.380   0.583
 1444SOL     OW 4351   2.102   1.091   0.886
 1444SOL    HW1 4352   2.116   1.007   0.938
 1444SOL    HW2 4353   2.047   1.155   0.941
 1445SOL     OW 4354   2.482   1.786   1.439
 1445SOL    HW1 4355   2.390   1.769   1.474
 1445SOL    HW2 4356   2.510   1.878   1.465
 1446SOL     OW 4357   2.468   0.964   0.123
 1446SOL    HW1 4358   2.475   1.048   0.069
 1446SOL    HW2 4359   2.514   0.977   0.211
 1447SOL     OW 4360   3.456   0.114   1.480
 1447SOL    HW1 4361   3.438   0.181   1.408
 1447SOL    HW2 4362   3.453   0.160   1.569
 1448SOL     OW 4363   1.984   0.643   0.563
 1448SOL    HW1 4364   1.939   0.555   0.580
 1448SOL    HW2 4365   1.983   0.697   0.647
 1449SOL     OW 4366   3.704   1.767   0.359
 1449SOL    HW1 4367   3.758   1.738   0.439
 1449SOL    HW2 4368   3.734   1.857   0.330
 1450SOL     OW 4369   1.889   1.596   0.117
 1450SOL    HW1 4370   1.870   1.500   0.138
 1450SOL    HW2 4371   1.856   1.654   0.192
 1451SOL     OW 4372   3.551   0.922   0.612
 1451SOL    HW1 4373   3.646   0.893   0.620
 1451SOL    HW2 4374   3.543   0.987   0.537
 1452SOL     OW 4375   3.503   1.108   0.432
 1452SOL    HW1 4376   3.589   1.110   0.380
 1452SOL    HW2 4377   3.517   1.155   0.520
 1453SOL     OW 4378   1.975   0.737   1.597
 1453SOL    HW1 4379   2.063   0.724   1.642
 1453SOL    HW2 4380   1.962   0.834   1.575
 1454SOL     OW 4381   2.475   1.365   0.726
 1454SOL    HW1 4382   2.426   1.278   0.735
 1454SOL    HW2 4383   2.452   1.408   0.639
 1455SOL     OW 4384   3.155   1.228   1.423
 1455SOL    HW1 4385   3.192   1.155   1.365
 1455SOL    HW2 4386   3.207   1.233   1.508
 1456SOL     OW 4387   2.671   0.004   0.502
 1456SOL    HW1 4388   2.711   0.095   0.493
 1456SOL    HW2 4389   2.571   0.012   0.508
 1457SOL     OW 4390   2.059   0.976   1.264
 1457SOL    HW1 4391   2.148   0.931   1.250
 1457SOL    HW2 4392   1.986   0.911   1.245
 1458SOL     OW 4393   3.387   0.999   0.190
 1458SOL    HW1 4394   3.324   0.923   0.203
 1458SOL    HW2 4395   3.435   1.017   0.276
 1459SOL     OW 4396   3.049   1.792   1.616
 1459SOL    HW1 4397   3.073   1.852   1.540
 1459SOL    HW2 4398   3.056   1.697   1.586
 1460SOL     OW 4399   2.179   0.251   1.801
 1460SOL    HW1 4400   2.250   0.322   1.807
 1460SOL    HW2 4401   2.091   0.290   1.829
 1461SOL     OW 4402   3.328   1.417   0.953
 1461SOL    HW1 4403   3.269   1.423   1.033
 1461SOL    HW2 4404   3.313   1.329   0.907
 1462SOL     OW 4405   3.529   1.714   0.572
 1462SOL    HW1 4406   3.488   1.691   0.484
 1462SOL    HW2 4407   3.511   1.640   0.637
 1463SOL     OW 4408   2.460   0.729   0.270
 1463SOL    HW1 4409   2.484   0.798   0.202
 1463SOL    HW2 4410   2.382   0.762   0.324
 1464SOL     OW 4411   3.143   0.345   0.944
 1464SOL    HW1 4412   3.057   0.295   0.931
 1464SOL    HW2 4413   3.205   0.291   1.000
 1465SOL     OW 4414   3.438   1.662   0.307
 1465SOL    HW1 4415   3.527   1.708   0.310
 1465SOL    HW2 4416   3.417   1.638   0.212
 1466SOL     OW 4417   2.669   0.605   1.465
 1466SOL    HW1 4418   2.622   0.602   1.554
 1466SOL    HW2 4419   2.618   0.550   1.399
 1467SOL     OW 4420   3.256   0.469   1.674
 1467SOL    HW1 4421   3.236   0.512   1.762
 1467SOL    HW2 4422   3.334   0.407   1.683
 1468SOL     OW 4423   2.835   0.890   1.572
 1468SOL    HW1 4424   2.881   0.806   1.543
 1468SOL    HW2 4425   2.779   0.924   1.497
 1469SOL     OW 4426   2.853   0.410   1.242
 1469SOL    HW1 4427   2.776   0.444   1.296
 1469SOL    HW2 4428   2.819   0.359   1.163
 1470SOL     OW 4429   2.903   0.701   0.429
 1470SOL    HW1 4430   2.929   0.697   0.525
 1470SOL    HW2 4431   2.818   0.650   0.415
 1471SOL     OW 4432   1.938   0.811   0.789
 1471SOL    HW1 4433   2.037   0.799   0.798
 1471SOL    HW2 4434   1.914   0.906   0.810
 1472SOL     OW 4435   1.992   1.821   1.571
 1472SOL    HW1 4436   1.982   1.806   1.670
 1472SOL    HW2 4437   1.906   1.857   1.535
 1473SOL     OW 4438   2.727   0.348   0.195
 1473SOL    HW1 4439   2.786   0.411   0.146
 1473SOL    HW2 4440   2.746   0.254   0.166
 1474SOL     OW 4441   3.581   0.585   1.831
 1474SOL    HW1 4442   3.555   0.674   1.795
 1474SOL    HW2 4443   3.579   0.517   1.758
 1475SOL     OW 4444   3.224   1.144   0.545
 1475SOL    HW1 4445   3.307   1.115   0.497
 1475SOL    HW2 4446   3.175   1.211   0.489
 1476SOL     OW 4447   2.412   0.196   0.885
 1476SOL    HW1 4448   2.407   0.191   0.985
 1476SOL    HW2 4449   2.414   0.292   0.856
 1477SOL     OW 4450   2.870   1.456   0.477
 1477SOL    HW1 4451   2.824   1.528   0.425
 1477SOL    HW2 4452   2.866   1.476   0.575
 1478SOL     OW 4453   2.213   1.801   0.853
 1478SOL    HW1 4454   2.263   1.715   0.859
 1478SOL    HW2 4455   2.278   1.878   0.850
 1479SOL     OW 4456   3.657   1.066   0.873
 1479SOL    HW1 4457   3.595   1.051   0.797
 1479SOL    HW2 4458   3.605   1.077   0.958
 1480SOL     OW 4459   3.089   1.550   1.506
 1480SOL    HW1 4460   3.095   1.473   1.570
 1480SOL    HW2 4461   3.037   1.524   1.426
 1481SOL     OW 4462   2.183   0.943   0.242
 1481SOL    HW1 4463   2.265   0.982   0.200
 1481SOL    HW2 4464   2.156   0.861   0.193
 1482SOL     OW 4465   3.320   0.735   0.728
 1482SOL    HW1 4466   3.315   0.670   0.803
 1482SOL    HW2 4467   3.400   0.794   0.741
 1483SOL     OW 4468   2.323   1.266   1.727
 1483SOL    HW1 4469   2.273   1.267   1.641
 1483SOL    HW2 4470   2.260   1.248   1.803
 1484SOL     OW 4471   2.973   1.776   0.237
 1484SOL    HW1 4472   2.913   1.714   0.287
 1484SOL    HW2 4473   3.004   1.732   0.152
 1485SOL     OW 4474   2.064   0.285   1.498
 1485SOL    HW1 4475   1.984   0.345   1.485
 1485SOL    HW2 4476   2.054   0.236   1.584
 1486SOL     OW 4477   3.494   1.377   0.081
 1486SOL    HW1 4478   3.462   1.471   0.071
 1486SOL    HW2 4479   3.418   1.314   0.069
 1487SOL     OW 4480   2.326   1.743   0.323
 1487SOL    HW1 4481   2.359   1.782   0.409
 1487SOL    HW2 4482   2.402   1.736   0.258
 1488SOL     OW 4483   3.262   0.107   0.426
 1488SOL    HW1 4484   3.238   0.070   0.336
 1488SOL    HW2 4485   3.361   0.123   0.430
 1489SOL     OW 4486   2.111   1.785   1.241
 1489SOL    HW1 4487   2.168   1.720   1.291
 1489SOL    HW2 4488   2.095   1.752   1.148
 1490SOL     OW 4489   2.802   1.698   0.904
 1490SOL    HW1 4490   2.882   1.641   0.925
 1490SOL    HW2 4491   2.753   1.658   0.827
 1491SOL     OW 4492   2.244   0.700   0.480
 1491SOL    HW1 4493   2.289   0.610   0.477
 1491SOL    HW2 4494   2.150   0.689   0.513
 1492SOL     OW 4495   3.409   0.222   1.729
 1492SOL    HW1 4496   3.404   0.259   1.821
 1492SOL    HW2 4497   3.337   0.153   1.717
 1493SOL     OW 4498   2.476   0.122   0.117
 1493SOL    HW1 4499   2.574   0.100   0.124
 1493SOL    HW2 4500   2.445   0.105   0.024
 1494SOL     OW 4501   2.643   0.264   1.749
 1494SOL    HW1 4502   2.710   0.203   1.792
 1494SOL    HW2 4503   2.570   0.283   1.814
 1495SOL     OW 4504   2.750   1.514   1.195
 1495SOL    HW1 4505   2.727   1.489   1.101
 1495SOL    HW2 4506   2.811   1.445   1.234
 1496SOL     OW 4507   3.213   0.590   1.433
 1496SOL    HW1 4508   3.241   0.547   1.518
 1496SOL    HW2 4509   3.238   0.686   1.434
 1497SOL     OW 4510   2.665   1.402   0.924
 1497SOL    HW1 4511   2.755   1.416   0.882
 1497SOL    HW2 4512   2.594   1.404   0.853
 1498SOL     OW 4513   2.784   0.503   0.899
 1498SOL    HW1 4514   2.759   0.494   0.803
 1498SOL    HW2 4515   2.832   0.421   0.930
 1499SOL     OW 4516   2.401   0.064   0.512
 1499SOL    HW1 4517   2.320   0.065   0.570
 1499SOL    HW2 4518   2.404   0.147   0.457
 1500SOL     OW 4519   3.296   1.188   0.041
 1500SOL    HW1 4520   3.328   1.112   0.098
 1500SOL    HW2 4521   3.204   1.215   0.071
 1501SOL     OW 4522   2.159   0.035   0.171
 1501SOL    HW1 4523   2.208   0.119   0.150
 1501SOL    HW2 4524   2.221  -0.030   0.216
 1502SOL     OW 4525   2.797   0.236   0.480
 1502SOL    HW1 4526   2.749   0.277   0.402
 1502SOL    HW2 4527   2.896   0.234   0.461
 1503SOL     OW 4528   2.938   0.683   1.464
 1503SOL    HW1 4529   2.858   0.622   1.467
 1503SOL    HW2 4530   3.019   0.630   1.440
 1504SOL     OW 4531   3.089   1.570   0.793
 1504SOL    HW1 4532   3.110   1.644   0.728
 1504SOL    HW2 4533   3.157   1.570   0.866
 1505SOL     OW 4534   2.321   1.152   0.741
 1505SOL    HW1 4535   2.250   1.125   0.806
 1505SOL    HW2 4536   2.295   1.124   0.648
 1506SOL     OW 4537   3.133   1.797   0.591
 1506SOL    HW1 4538   3.177   1.861   0.527
 1506SOL    HW2 4539   3.083   1.849   0.661
 1507SOL     OW 4540   2.894   0.549   0.016
 1507SOL    HW1 4541   2.853   0.631  -0.023
 1507SOL    HW2 4542   2.958   0.575   0.089
 1508SOL     OW 4543   1.940   0.556   1.386
 1508SOL    HW1 4544   2.032   0.555   1.345
 1508SOL    HW2 4545   1.934   0.630   1.453
 1509SOL     OW 4546   2.423   0.222   1.147
 1509SOL    HW1 4547   2.461   0.138   1.184
 1509SOL    HW2 4548   2.335   0.241   1.191
 1510SOL     OW 4549   2.728   0.454   0.642
 1510SOL    HW1 4550   2.696   0.526   0.580
 1510SOL    HW2 4551   2.752   0.373   0.589
 1511SOL     OW 4552   2.879   0.039   0.753
 1511SOL    HW1 4553   2.807   0.044   0.684
 1511SOL    HW2 4554   2.855  -0.030   0.822
 1512SOL     OW 4555   3.291   1.173   0.867
 1512SOL    HW1 4556   3.236   1.089   0.860
 1512SOL    HW2 4557   3.317   1.202   0.775
 1513SOL     OW 4558   3.328   0.590   0.992
 1513SOL    HW1 4559   3.298   0.495   0.999
 1513SOL    HW2 4560   3.401   0.606   1.058
 1514SOL     OW 4561   3.719   0.833   0.377
 1514SOL    HW1 4562   3.761   0.769   0.441
 1514SOL    HW2 4563   3.681   0.782   0.299
 1515SOL     OW 4564   2.350   1.385   0.174
 1515SOL    HW1 4565   2.263   1.370   0.221
 1515SOL    HW2 4566   2.333   1.411   0.079
 1516SOL     OW 4567   3.526   1.280   0.657
 1516SOL    HW1 4568   3.625   1.288   0.671
 1516SOL    HW2 4569   3.481   1.364   0.688
 1517SOL     OW 4570   3.252   0.575   0.078
 1517SOL    HW1 4571   3.198   0.554   0.159
 1517SOL    HW2 4572   3.343   0.534   0.087
 1518SOL     OW 4573   2.389   0.256   0.328
 1518SOL    HW1 4574   2.416   0.197   0.253
 1518SOL    HW2 4575   2.389   0.351   0.297
 1519SOL     OW 4576   3.616   1.223   1.588
 1519SOL    HW1 4577   3.707   1.184   1.575
 1519SOL    HW2 4578   3.624   1.319   1.612
 1520SOL     OW 4579   2.926   1.347   1.340
 1520SOL    HW1 4580   2.846   1.324   1.395
 1520SOL    HW2 4581   3.009   1.321   1.389
 1521SOL     OW 4582   3.454   1.629   1.625
 1521SOL    HW1 4583   3.481   1.663   1.535
 1521SOL    HW2 4584   3.533   1.591   1.671
 1522SOL     OW 4585   2.973   1.195   1.100
 1522SOL    HW1 4586   2.933   1.239   1.181
 1522SOL    HW2 4587   2.932   1.232   1.017
 1523SOL     OW 4588   3.500   1.099   1.079
 1523SOL    HW1 4589   3.505   1.180   1.138
 1523SOL    HW2 4590   3.414   1.101   1.028
 1524SOL     OW 4591   2.777   0.089   1.402
 1524SOL    HW1 4592   2.802   0.069   1.307
 1524SOL    HW2 4593   2.849   0.145   1.444
 1525SOL     OW 4594   2.842   1.116   1.719
 1525SOL    HW1 4595   2.743   1.122   1.729
 1525SOL    HW2 4596   2.865   1.036   1.663
 1526SOL     OW 4597   2.567   1.050   0.368
 1526SOL    HW1 4598   2.553   1.057   0.467
 1526SOL    HW2 4599   2.651   0.999   0.350
 1527SOL     OW 4600   2.272   0.813   1.251
 1527SOL    HW1 4601   2.358   0.825   1.301
 1527SOL    HW2 4602   2.230   0.726   1.278
 1528SOL     OW 4603   3.136   0.386   1.262
 1528SOL    HW1 4604   3.157   0.460   1.326
 1528SOL    HW2 4605   3.047   0.403   1.219
 1529SOL     OW 4606   1.926   1.564   1.331
 1529SOL    HW1 4607   1.880   1.646   1.297
 1529SOL    HW2 4608   2.024   1.583   1.340
 1530SOL     OW 4609   2.229   1.100   0.501
 1530SOL    HW1 4610   2.222   1.183   0.445
 1530SOL    HW2 4611   2.233   1.020   0.441
 1531SOL     OW 4612   2.428   0.537   0.865
 1531SOL    HW1 4613   2.440   0.603   0.791
 1531SOL    HW2 4614   2.474   0.571   0.948
 1532SOL     OW 4615   3.114   1.348   0.388
 1532SOL    HW1 4616   3.164   1.425   0.428
 1532SOL    HW2 4617   3.019   1.350   0.420
 1533SOL     OW 4618   3.134   1.445   1.142
 1533SOL    HW1 4619   3.181   1.458   1.229
 1533SOL    HW2 4620   3.068   1.371   1.151
 1534SOL     OW 4621   3.444   0.639   0.472
 1534SOL    HW1 4622   3.413   0.700   0.545
 1534SOL    HW2 4623   3.494   0.691   0.403
 1535SOL     OW 4624   2.216   1.510   1.329
 1535SOL    HW1 4625   2.195   1.466   1.242
 1535SOL    HW2 4626   2.313   1.536   1.332
 1536SOL     OW 4627   2.264   0.751   1.598
 1536SOL    HW1 4628   2.332   0.806   1.551
 1536SOL    HW2 4629   2.304   0.663   1.625
 1537SOL     OW 4630   3.449   0.779   1.670
 1537SOL    HW1 4631   3.357   0.817   1.665
 1537SOL    HW2 4632   3.509   0.826   1.605
 1538SOL     OW 4633   2.875   0.105   1.770
 1538SOL    HW1 4634   2.881   0.190   1.718
 1538SOL    HW2 4635   2.907   0.029   1.713
 1539SOL     OW 4636   2.366   0.050   1.740
 1539SOL    HW1 4637   2.324  -0.007   1.670
 1539SOL    HW2 4638   2.300   0.119   1.772
 1540SOL     OW 4639   2.435   0.870   1.029
 1540SOL    HW1 4640   2.479   0.959   1.020
 1540SOL    HW2 4641   2.372   0.870   1.106
 1541SOL     OW 4642   3.222   0.862   1.045
 1541SOL    HW1 4643   3.147   0.862   0.979
 1541SOL    HW2 4644   3.259   0.770   1.054
 1542SOL     OW 4645   3.071   0.525   0.275
 1542SOL    HW1 4646   3.084   0.441   0.329
 1542SOL    HW2 4647   3.042   0.599   0.335
 1543SOL     OW 4648   2.169   0.213   1.231
 1543SOL    HW1 4649   2.146   0.250   1.321
 1543SOL    HW2 4650   2.139   0.118   1.225
 1544SOL     OW 4651   1.899   1.310   1.282
 1544SOL    HW1 4652   1.952   1.261   1.350
 1544SOL    HW2 4653   1.921   1.408   1.287
 1545SOL     OW 4654   2.594   0.634   1.064
 1545SOL    HW1 4655   2.653   0.608   0.988
 1545SOL    HW2 4656   2.566   0.730   1.053
 1546SOL     OW 4657   3.590   0.935   1.854
 1546SOL    HW1 4658   3.544   0.928   1.765
 1546SOL    HW2 4659   3.528   0.979   1.920
 1547SOL     OW 4660   2.169   0.063   0.618
 1547SOL    HW1 4661   2.158   0.157   0.651
 1547SOL    HW2 4662   2.164   0.000   0.695
 1548SOL     OW 4663   3.484   0.367   0.374
 1548SOL    HW1 4664   3.486   0.291   0.438
 1548SOL    HW2 4665   3.436   0.444   0.414
 1549SOL     OW 4666   2.885   0.766   0.966
 1549SOL    HW1 4667   2.900   0.787   1.062
 1549SOL    HW2 4668   2.855   0.671   0.957
 1550SOL     OW 4669   2.842   1.573   1.700
 1550SOL    HW1 4670   2.822   1.617   1.612
 1550SOL    HW2 4671   2.881   1.482   1.684
 1551SOL     OW 4672   3.721   1.518   1.605
 1551SOL    HW1 4673   3.735   1.545   1.510
 1551SOL    HW2 4674   3.804   1.540   1.658
 1552SOL     OW 4675   2.212   0.898   1.804
 1552SOL    HW1 4676   2.288   0.942   1.852
 1552SOL    HW2 4677   2.247   0.851   1.722
 1553SOL     OW 4678   3.402   0.274   0.125
 1553SOL    HW1 4679   3.341   0.199   0.148
 1553SOL    HW2 4680   3.424   0.326   0.208
 1554SOL     OW 4681   3.165   0.838   0.042
 1554SOL    HW1 4682   3.199   0.745   0.057
 1554SOL    HW2 4683   3.183   0.865  -0.053
 1555SOL     OW 4684   2.930   1.333   0.849
 1555SOL    HW1 4685   2.937   1.249   0.794
 1555SOL    HW2 4686   2.992   1.402   0.813
 1556SOL     OW 4687   2.181   0.810   0.949
 1556SOL    HW1 4688   2.274   0.846   0.954
 1556SOL    HW2 4689   2.175   0.725   1.001
 1557SOL     OW 4690   2.201   0.509   1.006
 1557SOL    HW1 4691   2.149   0.426   0.989
 1557SOL    HW2 4692   2.278   0.514   0.942
 1558SOL     OW 4693   3.000   0.380   1.678
 1558SOL    HW1 4694   2.955   0.443   1.742
 1558SOL    HW2 4695   3.093   0.411   1.661
 1559SOL     OW 4696   3.022   0.207   1.477
 1559SOL    HW1 4697   3.022   0.271   1.554
 1559SOL    HW2 4698   3.050   0.255   1.394
 1560SOL     OW 4699   1.870   1.326   0.200
 1560SOL    HW1 4700   1.777   1.347   0.169
 1560SOL    HW2 4701   1.880   1.227   0.213
 1561SOL     OW 4702   1.950   1.801   0.927
 1561SOL    HW1 4703   1.908   1.715   0.900
 1561SOL    HW2 4704   2.044   1.804   0.893
 1562SOL     OW 4705   2.366   1.568   0.910
 1562SOL    HW1 4706   2.432   1.642   0.919
 1562SOL    HW2 4707   2.410   1.489   0.868
 1563SOL     OW 4708   2.864   0.796   1.238
 1563SOL    HW1 4709   2.905   0.764   1.324
 1563SOL    HW2 4710   2.768   0.769   1.235
 1564SOL     OW 4711   1.902   0.544   1.114
 1564SOL    HW1 4712   1.987   0.511   1.073
 1564SOL    HW2 4713   1.915   0.559   1.212
 1565SOL     OW 4714   2.051   0.520   1.722
 1565SOL    HW1 4715   2.110   0.480   1.652
 1565SOL    HW2 4716   1.993   0.591   1.681
 1566SOL     OW 4717   3.231   0.950   1.660
 1566SOL    HW1 4718   3.270   1.039   1.680
 1566SOL    HW2 4719   3.241   0.930   1.563
 1567SOL     OW 4720   2.677   0.572   0.325
 1567SOL    HW1 4721   2.684   0.483   0.279
 1567SOL    HW2 4722   2.583   0.606   0.317
 1568SOL     OW 4723   3.519   0.604   1.206
 1568SOL    HW1 4724   3.481   0.535   1.268
 1568SOL    HW2 4725   3.601   0.568   1.162
 1569SOL     OW 4726   2.114   1.564   1.744
 1569SOL    HW1 4727   2.084   1.621   1.820
 1569SOL    HW2 4728   2.107   1.467   1.770
 1570SOL     OW 4729   2.533   0.464   1.269
 1570SOL    HW1 4730   2.499   0.375   1.239
 1570SOL    HW2 4731   2.559   0.518   1.189
 1571SOL     OW 4732   2.792   1.678   1.465
 1571SOL    HW1 4733   2.768   1.660   1.370
 1571SOL    HW2 4734   2.822   1.772   1.475
 1572SOL     OW 4735   2.335   0.500   0.191
 1572SOL    HW1 4736   2.396   0.580   0.195
 1572SOL    HW2 4737   2.240   0.531   0.198
 1573SOL     OW 4738   2.021   1.137   1.466
 1573SOL    HW1 4739   2.043   1.076   1.542
 1573SOL    HW2 4740   2.031   1.088   1.380
 1574SOL     OW 4741   3.209   1.059   1.234
 1574SOL    HW1 4742   3.233   0.996   1.160
 1574SOL    HW2 4743   3.119   1.099   1.216
 1575SOL     OW 4744   3.164   0.855   0.309
 1575SOL    HW1 4745   3.078   0.824   0.351
 1575SOL    HW2 4746   3.160   0.841   0.210
 1576SOL     OW 4747   3.621   1.747   1.154
 1576SOL    HW1 4748   3.682   1.777   1.081
 1576SOL    HW2 4749   3.583   1.658   1.132
 1577SOL     OW 4750   3.114   1.731   1.128
 1577SOL    HW1 4751   3.198   1.736   1.074
 1577SOL    HW2 4752   3.091   1.635   1.146
 1578SOL     OW 4753   1.945   1.258   1.022
 1578SOL    HW1 4754   1.940   1.257   1.122
 1578SOL    HW2 4755   1.862   1.217   0.984
 1579SOL     OW 4756   2.550   1.662   1.716
 1579SOL    HW1 4757   2.494   1.743   1.725
 1579SOL    HW2 4758   2.602   1.666   1.630
 1580SOL     OW 4759   2.765   0.086   0.133
 1580SOL    HW1 4760   2.816   0.087   0.047
 1580SOL    HW2 4761   2.821   0.044   0.204
 1581SOL     OW 4762   3.588   0.135   0.523
 1581SOL    HW1 4763   3.661   0.118   0.456
 1581SOL    HW2 4764   3.557   0.048   0.561
 1582SOL     OW 4765   3.250   1.573   0.477
 1582SOL    HW1 4766   3.317   1.585   0.403
 1582SOL    HW2 4767   3.210   1.662   0.500
 1583SOL     OW 4768   1.992   1.794   1.851
 1583SOL    HW1 4769   1.951   1.720   1.904
 1583SOL    HW2 4770   2.056   1.845   1.909
 1584SOL     OW 4771   3.142   0.927   0.672
 1584SOL    HW1 4772   3.202   0.846   0.674
 1584SOL    HW2 4773   3.182   0.996   0.612
 1585SOL     OW 4774   2.692   1.273   1.422
 1585SOL    HW1 4775   2.687   1.306   1.517
 1585SOL    HW2 4776   2.606   1.292   1.376
 1586SOL     OW 4777   2.534   1.616   0.154
 1586SOL    HW1 4778   2.543   1.626   0.055
 1586SOL    HW2 4779   2.494   1.527   0.175
 1587SOL     OW 4780   3.512   1.720   1.394
 1587SOL    HW1 4781   3.565   1.730   1.310
 1587SOL    HW2 4782   3.485   1.810   1.428
 1588SOL     OW 4783   3.703   0.175   0.963
 1588SOL    HW1 4784   3.742   0.090   0.927
 1588SOL    HW2 4785   3.605   0.177   0.944
 1589SOL     OW 4786   2.125   0.326   0.720
 1589SOL    HW1 4787   2.046   0.377   0.686
 1589SOL    HW2 4788   2.116   0.311   0.818
 1590SOL     OW 4789   3.056   1.612   0.031
 1590SOL    HW1 4790   3.062   1.519   0.068
 1590SOL    HW2 4791   2.997   1.612  -0.049
 1591SOL     OW 4792   2.684   1.002   1.372
 1591SOL    HW1 4793   2.724   1.001   1.280
 1591SOL    HW2 4794   2.694   1.094   1.412
 1592SOL     OW 4795   2.778   0.910   0.291
 1592SOL    HW1 4796   2.841   0.948   0.223
 1592SOL    HW2 4797   2.818   0.827   0.330
 1593SOL     OW 4798   3.366   1.607   0.044
 1593SOL    HW1 4799   3.274   1.644   0.051
 1593SOL    HW2 4800   3.404   1.627  -0.046
 1594SOL     OW 4801   2.234   1.288   1.490
 1594SOL    HW1 4802   2.221   1.381   1.456
 1594SOL    HW2 4803   2.150   1.236   1.477
 1595SOL     OW 4804   3.476   1.292   1.289
 1595SOL    HW1 4805   3.536   1.295   1.369
 1595SOL    HW2 4806   3.401   1.356   1.302
 1596SOL     OW 4807   2.901   1.098   0.696
 1596SOL    HW1 4808   2.831   1.051   0.750
 1596SOL    HW2 4809   2.960   1.030   0.653
 1597SOL     OW 4810   2.876   0.236   0.971
 1597SOL    HW1 4811   2.868   0.200   0.878
 1597SOL    HW2 4812   2.874   0.160   1.036
 1598SOL     OW 4813   2.452   1.487   0.491
 1598SOL    HW1 4814   2.494   1.429   0.421
 1598SOL    HW2 4815   2.408   1.566   0.447
 1599SOL     OW 4816   3.571   0.385   1.381
 1599SOL    HW1 4817   3.644   0.454   1.385
 1599SOL    HW2 4818   3.599   0.310   1.322
 1600SOL     OW 4819   2.117   1.348   0.290
 1600SOL    HW1 4820   2.021   1.349   0.263
 1600SOL    HW2 4821   2.129   1.401   0.374
 1601SOL     OW 4822   1.967   1.013   1.726
 1601SOL    HW1 4823   1.890   0.980   1.780
 1601SOL    HW2 4824   2.052   0.983   1.768
 1602SOL     OW 4825   2.534   0.203   1.489
 1602SOL    HW1 4826   2.624   0.187   1.449
 1602SOL    HW2 4827   2.542   0.208   1.588
 1603SOL     OW 4828   1.937   0.345   0.033
 1603SOL    HW1 4829   1.845   0.317   0.004
 1603SOL    HW2 4830   1.968   0.422  -0.023
 1604SOL     OW 4831   3.302   0.856   1.398
 1604SOL    HW1 4832   3.245   0.908   1.335
 1604SOL    HW2 4833   3.398   0.868   1.374
 1605SOL     OW 4834   1.934   0.166   0.318
 1605SOL    HW1 4835   1.917   0.249   0.264
 1605SOL    HW2 4836   2.024   0.129   0.296
 1606SOL     OW 4837   3.045   1.335   0.119
 1606SOL    HW1 4838   2.946   1.324   0.121
 1606SOL    HW2 4839   3.079   1.350   0.212
 1607SOL     OW 4840   2.475   0.842   1.431
 1607SOL    HW1 4841   2.531   0.923   1.414
 1607SOL    HW2 4842   2.534   0.762   1.434
 1608SOL     OW 4843   3.355   1.767   0.959
 1608SOL    HW1 4844   3.388   1.831   0.890
 1608SOL    HW2 4845   3.421   1.761   1.034
 1609SOL     OW 4846   2.578   0.565   1.708
 1609SOL    HW1 4847   2.597   0.630   1.782
 1609SOL    HW2 4848   2.638   0.485   1.717
 1610SOL     OW 4849   3.312   1.220   1.633
 1610SOL    HW1 4850   3.303   1.210   1.732
 1610SOL    HW2 4851   3.408   1.213   1.607
 1611SOL     OW 4852   2.252   1.741   1.560
 1611SOL    HW1 4853   2.161   1.782   1.558
 1611SOL    HW2 4854   2.245   1.647   1.592
 1612SOL     OW 4855   3.536   0.883   1.254
 1612SOL    HW1 4856   3.509   0.794   1.217
 1612SOL    HW2 4857   3.537   0.951   1.181
 1613SOL     OW 4858   3.087   0.325   0.449
 1613SOL    HW1 4859   3.152   0.251   0.438
 1613SOL    HW2 4860   3.107   0.375   0.533
 1614SOL     OW 4861   2.456   0.745   0.652
 1614SOL    HW1 4862   2.506   0.830   0.633
 1614SOL    HW2 4863   2.368   0.747   0.604
 1615SOL     OW 4864   3.639   0.342   1.642
 1615SOL    HW1 4865   3.622   0.373   1.548
 1615SOL    HW2 4866   3.555   0.305   1.680
 1616SOL     OW 4867   3.592   0.934   1.517
 1616SOL    HW1 4868   3.630   1.025   1.532
 1616SOL    HW2 4869   3.584   0.917   1.418
 1617SOL     OW 4870   2.721   1.374   0.016
 1617SOL    HW1 4871   2.675   1.389   0.104
 1617SOL    HW2 4872   2.765   1.459  -0.014
 1618SOL     OW 4873   2.523   1.790   0.953
 1618SOL    HW1 4874   2.477   1.878   0.940
 1618SOL    HW2 4875   2.622   1.802   0.946
 1619SOL     OW 4876   2.721   0.956   0.861
 1619SOL    HW1 4877   2.775   0.887   0.909
 1619SOL    HW2 4878   2.689   1.025   0.927
 1620SOL     OW 4879   2.945   0.984   0.087
 1620SOL    HW1 4880   2.922   1.037   0.005
 1620SOL    HW2 4881   3.026   0.928   0.068
 1621SOL     OW 4882   3.723   1.569   0.851
 1621SOL    HW1 4883   3.652   1.557   0.781
 1621SOL    HW2 4884   3.724   1.490   0.911
 1622SOL     OW 4885   2.083   1.314   1.844
 1622SOL    HW1 4886   2.018   1.241   1.823
 1622SOL    HW2 4887   2.087   1.328   1.942
 1623SOL     OW 4888   1.941   1.240   0.653
 1623SOL    HW1 4889   1.940   1.193   0.741
 1623SOL    HW2 4890   2.023   1.212   0.602
 1624SOL     OW 4891   2.534   1.391   1.624
 1624SOL    HW1 4892   2.456   1.341   1.662
 1624SOL    HW2 4893   2.531   1.486   1.655
 1625SOL     OW 4894   3.686   0.192   1.227
 1625SOL    HW1 4895   3.682   0.102   1.271
 1625SOL    HW2 4896   3.689   0.181   1.128
 1626SOL     OW 4897   2.290   0.424   0.520
 1626SOL    HW1 4898   2.320   0.352   0.458
 1626SOL    HW2 4899   2.251   0.384   0.603
 1627SOL     OW 4900   3.567   1.487   1.104
 1627SOL    HW1 4901   3.474   1.462   1.077
 1627SOL    HW2 4902   3.593   1.437   1.186
 1628SOL     OW 4903   2.179   0.547   1.280
 1628SOL    HW1 4904   2.217   0.488   1.352
 1628SOL    HW2 4905   2.219   0.521   1.192
 1629SOL     OW 4906   2.674   1.586   0.687
 1629SOL    HW1 4907   2.706   1.596   0.593
 1629SOL    HW2 4908   2.595   1.524   0.689
 1630SOL     OW 4909   3.286   0.214   1.112
 1630SOL    HW1 4910   3.338   0.149   1.167
 1630SOL    HW2 4911   3.237   0.277   1.173
 1631SOL     OW 4912   2.863   0.034   1.154
 1631SOL    HW1 4913   2.800  -0.038   1.123
 1631SOL    HW2 4914   2.956  -0.002   1.154
 1632SOL     OW 4915   2.632   1.330   0.301
 1632SOL    HW1 4916   2.586   1.243   0.318
 1632SOL    HW2 4917   2.723   1.327   0.342
 1633SOL     OW 4918   2.480   1.567   1.284
 1633SOL    HW1 4919   2.475   1.649   1.341
 1633SOL    HW2 4920   2.569   1.564   1.239
 1634SOL     OW 4921   3.214   0.052   0.168
 1634SOL    HW1 4922   3.249   0.011   0.084
 1634SOL    HW2 4923   3.124   0.014   0.188
 1635SOL     OW 4924   3.162   0.453   0.691
 1635SOL    HW1 4925   3.103   0.533   0.695
 1635SOL    HW2 4926   3.177   0.418   0.784
 1636SOL     OW 4927   3.455   0.221   0.882
 1636SOL    HW1 4928   3.371   0.220   0.936
 1636SOL    HW2 4929   3.457   0.304   0.826
 1637SOL     OW 4930   1.901   1.077   0.300
 1637SOL    HW1 4931   2.000   1.066   0.291
 1637SOL    HW2 4932   1.861   0.991   0.332
 1638SOL     OW 4933   2.737   1.646   0.337
 1638SOL    HW1 4934   2.660   1.611   0.283
 1638SOL    HW2 4935   2.705   1.717   0.399
 1639SOL     OW 4936   2.092   0.628   1.975
 1639SOL    HW1 4937   1.999   0.626   2.012
 1639SOL    HW2 4938   2.093   0.589   1.883
 1640SOL     OW 4939   2.087   0.275   2.858
 1640SOL    HW1 4940   2.122   0.258   2.950
 1640SOL    HW2 4941   1.999   0.230   2.846
 1641SOL     OW 4942   1.881   0.368   2.509
 1641SOL    HW1 4943   1.799   0.411   2.548
 1641SOL    HW2 4944   1.853   0.295   2.446
 1642SOL     OW 4945   2.431   1.275   3.027
 1642SOL    HW1 4946   2.338   1.268   2.990
 1642SOL    HW2 4947   2.442   1.364   3.071
 1643SOL     OW 4948   3.417   1.511   2.565
 1643SOL    HW1 4949   3.360   1.495   2.646
 1643SOL    HW2 4950   3.358   1.521   2.485
 1644SOL     OW 4951   2.997   0.703   2.579
 1644SOL    HW1 4952   3.054   0.781   2.554
 1644SOL    HW2 4953   2.937   0.729   2.655
 1645SOL     OW 4954   3.617   0.607   2.093
 1645SOL    HW1 4955   3.605   0.594   1.994
 1645SOL    HW2 4956   3.587   0.526   2.142
 1646SOL     OW 4957   2.630   1.144   2.885
 1646SOL    HW1 4958   2.552   1.161   2.945
 1646SOL    HW2 4959   2.664   1.231   2.849
 1647SOL     OW 4960   2.712   0.798   3.685
 1647SOL    HW1 4961   2.708   0.874   3.750
 1647SOL    HW2 4962   2.734   0.834   3.594
 1648SOL     OW 4963   2.547   1.012   2.527
 1648SOL    HW1 4964   2.616   0.996   2.597
 1648SOL    HW2 4965   2.474   1.069   2.565
 1649SOL     OW 4966   2.548   1.161   3.665
 1649SOL    HW1 4967   2.608   1.240   3.679
 1649SOL    HW2 4968   2.462   1.192   3.624
 1650SOL     OW 4969   2.197   1.435   2.923
 1650SOL    HW1 4970   2.119   1.404   2.870
 1650SOL    HW2 4971   2.255   1.493   2.866
 1651SOL     OW 4972   3.322   1.505   3.201
 1651SOL    HW1 4973   3.346   1.599   3.227
 1651SOL    HW2 4974   3.306   1.451   3.283
 1652SOL     OW 4975   2.300   0.392   3.361
 1652SOL    HW1 4976   2.382   0.336   3.370
 1652SOL    HW2 4977   2.219   0.334   3.365
 1653SOL     OW 4978   3.465   0.447   2.599
 1653SOL    HW1 4979   3.391   0.493   2.549
 1653SOL    HW2 4980   3.516   0.515   2.652
 1654SOL     OW 4981   2.093   1.713   2.345
 1654SOL    HW1 4982   2.127   1.790   2.399
 1654SOL    HW2 4983   2.137   1.713   2.255
 1655SOL     OW 4984   2.989   1.341   3.552
 1655SOL    HW1 4985   3.036   1.341   3.640
 1655SOL    HW2 4986   2.941   1.254   3.541
 1656SOL     OW 4987   2.092   1.434   2.400
 1656SOL    HW1 4988   2.066   1.530   2.400
 1656SOL    HW2 4989   2.021   1.380   2.445
 1657SOL     OW 4990   2.102   1.091   2.748
 1657SOL    HW1 4991   2.116   1.007   2.800
 1657SOL    HW2 4992   2.047   1.155   2.803
 1658SOL     OW 4993   2.482   1.786   3.301
 1658SOL    HW1 4994   2.390   1.769   3.336
 1658SOL    HW2 4995   2.510   1.878   3.327
 1659SOL     OW 4996   2.468   0.964   1.985
 1659SOL    HW1 4997   2.475   1.048   1.931
 1659SOL    HW2 4998   2.514   0.977   2.073
 1660SOL     OW 4999   3.456   0.114   3.342
 1660SOL    HW1 5000   3.438   0.181   3.270
 1660SOL    HW2 5001   3.453   0.160   3.431
 1661SOL     OW 5002   1.984   0.643   2.425
 1661SOL    HW1 5003   1.939   0.555   2.442
 1661SOL    HW2 5004   1.983   0.697   2.509
 1662SOL     OW 5005   3.704   1.767   2.221
 1662SOL    HW1 5006   3.758   1.738   2.301
 1662SOL    HW2 5007   3.734   1.857   2.192
 1663SOL     OW 5008   1.889   1.596   1.979
 1663SOL    HW1 5009   1.870   1.500   2.000
 1663SOL    HW2 5010   1.856   1.654   2.054
 1664SOL     OW 5011   3.551   0.922   2.474
 1664SOL    HW1 5012   3.646   0.893   2.482
 1664SOL    HW2 5013   3.543   0.987   2.399
 1665SOL     OW 5014   3.503   1.108   2.294
 1665SOL    HW1 5015   3.589   1.110   2.242
 1665SOL    HW2 5016   3.517   1.155   2.382
 1666SOL     OW 5017   1.975   0.737   3.459
 1666SOL    HW1 5018   2.063   0.724   3.504
 1666SOL    HW2 5019   1.962   0.834   3.437
 1667SOL     OW 5020   2.475   1.365   2.588
 1667SOL    HW1 5021   2.426   1.278   2.597
 1667SOL    HW2 5022   2.452   1.408   2.501
 1668SOL     OW 5023   3.155   1.228   3.285
 1668SOL    HW1 5024   3.192   1.155   3.227
 1668SOL    HW2 5025   3.207   1.233   3.370
 1669SOL     OW 5026   2.671   0.004   2.364
 1669SOL    HW1 5027   2.711   0.095   2.355
 1669SOL    HW2 5028   2.571   0.012   2.370
 1670SOL     OW 5029   2.059   0.976   3.126
 1670SOL    HW1 5030   2.148   0.931   3.112
 1670SOL    HW2 5031   1.986   0.911   3.107
 1671SOL     OW 5032   3.387   0.999   2.052
 1671SOL    HW1 5033   3.324   0.923   2.065
 1671SOL    HW2 5034   3.435   1.017   2.138
 1672SOL     OW 5035   3.049   1.792   3.478
 1672SOL    HW1 5036   3.073   1.852   3.402
 1672SOL    HW2 5037   3.056   1.697   3.448
 1673SOL     OW 5038   2.179   0.251   3.663
 1673SOL    HW1 5039   2.250   0.322   3.669
 1673SOL    HW2 5040   2.091   0.290   3.691
 1674SOL     OW 5041   3.328   1.417   2.815
 1674SOL    HW1 5042   3.269   1.423   2.895
 1674SOL    HW2 5043   3.313   1.329   2.769
 1675SOL     OW 5044   3.529   1.714   2.434
 1675SOL    HW1 5045   3.488   1.691   2.346
 1675SOL    HW2 5046   3.511   1.640   2.499
 1676SOL     OW 5047   2.460   0.729   2.132
 1676SOL    HW1 5048   2.484   0.798   2.064
 1676SOL    HW2 5049   2.382   0.762   2.186
 1677SOL     OW 5050   3.143   0.345   2.806
 1677SOL    HW1 5051   3.057   0.295   2.793
 1677SOL    HW2 5052   3.205   0.291   2.862
 1678SOL     OW 5053   3.438   1.662   2.169
 1678SOL    HW1 5054   3.527   1.708   2.172
 1678SOL    HW2 5055   3.417   1.638   2.074
 1679SOL     OW 5056   2.669   0.605   3.327
 1679SOL    HW1 5057   2.622   0.602   3.416
 1679SOL    HW2 5058   2.618   0.550   3.261
 1680SOL     OW 5059   3.256   0.469   3.536
 1680SOL    HW1 5060   3.236   0.512   3.624
 1680SOL    HW2 5061   3.334   0.407   3.545
 1681SOL     OW 5062   2.835   0.890   3.434
 1681SOL    HW1 5063   2.881   0.806   3.405
 1681SOL    HW2 5064   2.779   0.924   3.359
 1682SOL     OW 5065   2.853   0.410   3.104
 1682SOL    HW1 5066   2.776   0.444   3.158
 1682SOL    HW2 5067   2.819   0.359   3.025
 1683SOL     OW 5068   2.903   0.701   2.291
 1683SOL    HW1 5069   2.929   0.697   2.387
 1683SOL    HW2 5070   2.818   0.650   2.277
 1684SOL     OW 5071   1.938   0.811   2.651
 1684SOL    HW1 5072   2.037   0.799   2.660
 1684SOL    HW2 5073   1.914   0.906   2.672
 1685SOL     OW 5074   1.992   1.821   3.433
 1685SOL    HW1 5075   1.982   1.806   3.532
 1685SOL    HW2 5076   1.906   1.857   3.397
 1686SOL     OW 5077   2.727   0.348   2.057
 1686SOL    HW1 5078   2.786   0.411   2.008
 1686SOL    HW2 5079   2.746   0.254   2.028
 1687SOL     OW 5080   3.581   0.585   3.693
 1687SOL    HW1 5081   3.555   0.674   3.657
 1687SOL    HW2 5082   3.579   0.517   3.620
 1688SOL     OW 5083   3.224   1.144   2.407
 1688SOL    HW1 5084   3.307   1.115   2.359
 1688SOL    HW2 5085   3.175   1.211   2.351
 1689SOL     OW 5086   2.412   0.196   2.747
 1689SOL    HW1 5087   2.407   0.191   2.847
 1689SOL    HW2 5088   2.414   0.292   2.718
 1690SOL     OW 5089   2.870   1.456   2.339
 1690SOL    HW1 5090   2.824   1.528   2.287
 1690SOL    HW2 5091   2.866   1.476   2.437
 1691SOL     OW 5092   2.213   1.801   2.715
 1691SOL    HW1 5093   2.263   1.715   2.721
 1691SOL    HW2 5094   2.278   1.878   2.712
 1692SOL     OW 5095   3.657   1.066   2.735
 1692SOL    HW1 5096   3.595   1.051   2.659
 1692SOL    HW2 5097   3.605   1.077   2.820
 1693SOL     OW 5098   3.089   1.550   3.368
 1693SOL    HW1 5099   3.095   1.473   3.432
 1693SOL    HW2 5100   3.037   1.524   3.288
 1694SOL     OW 5101   2.183   0.943   2.104
 1694SOL    HW1 5102   2.265   0.982   2.062
 1694SOL    HW2 5103   2.156   0.861   2.055
 1695SOL     OW 5104   3.320   0.735   2.590
 1695SOL    HW1 5105   3.315   0.670   2.665
 1695SOL    HW2 5106   3.400   0.794   2.603
 1696SOL     OW 5107   2.323   1.266   3.589
 1696SOL    HW1 5108   2.273   1.267   3.503
 1696SOL    HW2 5109   2.260   1.248   3.665
 1697SOL     OW 5110   2.973   1.776   2.099
 1697SOL    HW1 5111   2.913   1.714   2.149
 1697SOL    HW2 5112   3.004   1.732   2.014
 1698SOL     OW 5113   2.064   0.285   3.360
 1698SOL    HW1 5114   1.984   0.345   3.347
 1698SOL    HW2 5115   2.054   0.236   3.446
 1699SOL     OW 5116   3.494   1.377   1.943
 1699SOL    HW1 5117   3.462   1.471   1.933
 1699SOL    HW2 5118   3.418   1.314   1.931
 1700SOL     OW 5119   2.326   1.743   2.185
 1700SOL    HW1 5120   2.359   1.782   2.271
 1700SOL    HW2 5121   2.402   1.736   2.120
 1701SOL     OW 5122   3.262   0.107   2.288
 1701SOL    HW1 5123   3.238   0.070   2.198
 1701SOL    HW2 5124   3.361   0.123   2.292
 1702SOL     OW 5125   2.111   1.785   3.103
 1702SOL    HW1 5126   2.168   1.720   3.153
 1702SOL    HW2 5127   2.095   1.752   3.010
 1703SOL     OW 5128   2.802   1.698   2.766
 1703SOL    HW1 5129   2.882   1.641   2.787
 1703SOL    HW2 5130   2.753   1.658   2.689
 1704SOL     OW 5131   2.244   0.700   2.342
 1704SOL    HW1 5132   2.289   0.610   2.339
 1704SOL    HW2 5133   2.150   0.689   2.375
 1705SOL     OW 5134   3.409   0.222   3.591
 1705SOL    HW1 5135   3.404   0.259   3.683
 1705SOL    HW2 5136   3.337   0.153   3.579
 1706SOL     OW 5137   2.476   0.122   1.979
 1706SOL    HW1 5138   2.574   0.100   1.986
 1706SOL    HW2 5139   2.445   0.105   1.886
 1707SOL     OW 5140   2.643   0.264   3.611
 1707SOL    HW1 5141   2.710   0.203   3.654
 1707SOL    HW2 5142   2.570   0.283   3.676
 1708SOL     OW 5143   2.750   1.514   3.057
 1708SOL    HW1 5144   2.727   1.489   2.963
 1708SOL    HW2 5145   2.811   1.445   3.096
 1709SOL     OW 5146   3.213   0.590   3.295
 1709SOL    HW1 5147   3.241   0.547   3.380
 1709SOL    HW2 5148   3.238   0.686   3.296
 1710SOL     OW 5149   2.665   1.402   2.786
 1710SOL    HW1 5150   2.755   1.416   2.744
 1710SOL    HW2 5151   2.594   1.404   2.715
 1711SOL     OW 5152   2.784   0.503   2.761
 1711SOL    HW1 5153   2.759   0.494   2.665
 1711SOL    HW2 5154   2.832   0.421   2.792
 1712SOL     OW 5155   2.401   0.064   2.374
 1712SOL    HW1 5156   2.320   0.065   2.432
 1712SOL    HW2 5157   2.404   0.147   2.319
 1713SOL     OW 5158   3.296   1.188   1.903
 1713SOL    HW1 5159   3.328   1.112   1.960
 1713SOL    HW2 5160   3.204   1.215   1.933
 1714SOL     OW 5161   2.159   0.035   2.033
 1714SOL    HW1 5162   2.208   0.119   2.012
 1714SOL    HW2 5163   2.221  -0.030   2.078
 1715SOL     OW 5164   2.797   0.236   2.342
 1715SOL    HW1 5165   2.749   0.277   2.264
 1715SOL    HW2 5166   2.896   0.234   2.323
 1716SOL     OW 5167   2.938   0.683   3.326
 1716SOL    HW1 5168   2.858   0.622   3.329
 1716SOL    HW2 5169   3.019   0.630   3.302
 1717SOL     OW 5170   3.089   1.570   2.655
 1717SOL    HW1 5171   3.110   1.644   2.590
 1717SOL    HW2 5172   3.157   1.570   2.728
 1718SOL     OW 5173   2.321   1.152   2.603
 1718SOL    HW1 5174   2.250   1.125   2.668
 1718SOL    HW2 5175   2.295   1.124   2.510
 1719SOL     OW 5176   3.133   1.797   2.453
 1719SOL    HW1 5177   3.177   1.861   2.389
 1719SOL    HW2 5178   3.083   1.849   2.523
 1720SOL     OW 5179   2.894   0.549   1.878
 1720SOL    HW1 5180   2.853   0.631   1.839
 1720SOL    HW2 5181   2.958   0.575   1.951
 1721SOL     OW 5182   1.940   0.556   3.248
 1721SOL    HW1 5183   2.032   0.555   3.207
 1721SOL    HW2 5184   1.934   0.630   3.315
 1722SOL     OW 5185   2.423   0.222   3.009
 1722SOL    HW1 5186   2.461   0.138   3.046
 1722SOL    HW2 5187   2.335   0.241   3.053
 1723SOL     OW 5188   2.728   0.454   2.504
 1723SOL    HW1 5189   2.696   0.526   2.442
 1723SOL    HW2 5190   2.752   0.373   2.451
 1724SOL     OW 5191   2.879   0.039   2.615
 1724SOL    HW1 5192   2.807   0.044   2.546
 1724SOL    HW2 5193   2.855  -0.030   2.684
 1725SOL     OW 5194   3.291   1.173   2.729
 1725SOL    HW1 5195   3.236   1.089   2.722
 1725SOL    HW2 5196   3.317   1.202   2.637
 1726SOL     OW 5197   3.328   0.590   2.854
 1726SOL    HW1 5198   3.298   0.495   2.861
 1726SOL    HW2 5199   3.401   0.606   2.920
 1727SOL     OW 5200   3.719   0.833   2.239
 1727SOL    HW1 5201   3.761   0.769   2.303
 1727SOL    HW2 5202   3.681   0.782   2.161
 1728SOL     OW 5203   2.350   1.385   2.036
 1728SOL    HW1 5204   2.263   1.370   2.083
 1728SOL    HW2 5205   2.333   1.411   1.941
 1729SOL     OW 5206   3.526   1.280   2.519
 1729SOL    HW1 5207   3.625   1.288   2.533
 1729SOL    HW2 5208   3.481   1.364   2.550
 1730SOL     OW 5209   3.252   0.575   1.940
 1730SOL    HW1 5210   3.198   0.554   2.021
 1730SOL    HW2 5211   3.343   0.534   1.949
 1731SOL     OW 5212   2.389   0.256   2.190
 1731SOL    HW1 5213   2.416   0.197   2.115
 1731SOL    HW2 5214   2.389   0.351   2.159
 1732SOL     OW 5215   3.616   1.223   3.450
 1732SOL    HW1 5216   3.707   1.184   3.437
 1732SOL    HW2 5217   3.624   1.319   3.474
 1733SOL     OW 5218   2.926   1.347   3.202
 1733SOL    HW1 5219   2.846   1.324   3.257
 1733SOL    HW2 5220   3.009   1.321   3.251
 1734SOL     OW 5221   3.454   1.629   3.487
 1734SOL    HW1 5222   3.481   1.663   3.397
 1734SOL    HW2 5223   3.533   1.591   3.533
 1735SOL     OW 5224   2.973   1.195   2.962
 1735SOL    HW1 5225   2.933   1.239   3.043
 1735SOL    HW2 5226   2.932   1.232   2.879
 1736SOL     OW 5227   3.500   1.099   2.941
 1736SOL    HW1 5228   3.505   1.180   3.000
 1736SOL    HW2 5229   3.414   1.101   2.890
 1737SOL     OW 5230   2.777   0.089   3.264
 1737SOL    HW1 5231   2.802   0.069   3.169
 1737SOL    HW2 5232   2.849   0.145   3.306
 1738SOL     OW 5233   2.842   1.116   3.581
 1738SOL    HW1 5234   2.743   1.122   3.591
 1738SOL    HW2 5235   2.865   1.036   3.525
 1739SOL     OW 5236   2.567   1.050   2.230
 1739SOL    HW1 5237   2.553   1.057   2.329
 1739SOL    HW2 5238   2.651   0.999   2.212
 1740SOL     OW 5239   2.272   0.813   3.113
 1740SOL    HW1 5240   2.358   0.825   3.163
 1740SOL    HW2 5241   2.230   0.726   3.140
 1741SOL     OW 5242   3.136   0.386   3.124
 1741SOL    HW1 5243   3.157   0.460   3.188
 1741SOL    HW2 5244   3.047   0.403   3.081
 1742SOL     OW 5245   1.926   1.564   3.193
 1742SOL    HW1 5246   1.880   1.646   3.159
 1742SOL    HW2 5247   2.024   1.583   3.202
 1743SOL     OW 5248   2.229   1.100   2.363
 1743SOL    HW1 5249   2.222   1.183   2.307
 1743SOL    HW2 5250   2.233   1.020   2.303
 1744SOL     OW 5251   2.428   0.537   2.727
 1744SOL    HW1 5252   2.440   0.603   2.653
 1744SOL    HW2 5253   2.474   0.571   2.810
 1745SOL     OW 5254   3.114   1.348   2.250
 1745SOL    HW1 5255   3.164   1.425   2.290
 1745SOL    HW2 5256   3.019   1.350   2.282
 1746SOL     OW 5257   3.134   1.445   3.004
 1746SOL    HW1 5258   3.181   1.458   3.091
 1746SOL    HW2 5259   3.068   1.371   3.013
 1747SOL     OW 5260   3.444   0.639   2.334
 1747SOL    HW1 5261   3.413   0.700   2.407
 1747SOL    HW2 5262   3.494   0.691   2.265
 1748SOL     OW 5263   2.216   1.510   3.191
 1748SOL    HW1 5264   2.195   1.466   3.104
 1748SOL    HW2 5265   2.313   1.536   3.194
 1749SOL     OW 5266   2.264   0.751   3.460
 1749SOL    HW1 5267   2.332   0.806   3.413
 1749SOL    HW2 5268   2.304   0.663   3.487
 1750SOL     OW 5269   3.449   0.779   3.532
 1750SOL    HW1 5270   3.357   0.817   3.527
 1750SOL    HW2 5271   3.509   0.826   3.467
 1751SOL     OW 5272   2.875   0.105   3.632
 1751SOL    HW1 5273   2.881   0.190   3.580
 1751SOL    HW2 5274   2.907   0.029   3.575
 1752SOL     OW 5275   2.366   0.050   3.602
 1752SOL    HW1 5276   2.324  -0.007   3.532
 1752SOL    HW2 5277   2.300   0.119   3.634
 1753SOL     OW 5278   2.435   0.870   2.891
 1753SOL    HW1 5279   2.479   0.959   2.882
 1753SOL    HW2 5280   2.372   0.870   2.968
 1754SOL     OW 5281   3.222   0.862   2.907
 1754SOL    HW1 5282   3.147   0.862   2.841
 1754SOL    HW2 5283   3.259   0.770   2.916
 1755SOL     OW 5284   3.071   0.525   2.137
 1755SOL    HW1 5285   3.084   0.441   2.191
 1755SOL    HW2 5286   3.042   0.599   2.197
 1756SOL     OW 5287   2.169   0.213   3.093
 1756SOL    HW1 5288   2.146   0.250   3.183
 1756SOL    HW2 5289   2.139   0.118   3.087
 1757SOL     OW 5290   1.899   1.310   3.144
 1757SOL    HW1 5291   1.952   1.261   3.212
 1757SOL    HW2 5292   1.921   1.408   3.149
 1758SOL     OW 5293   2.594   0.634   2.926
 1758SOL    HW1 5294   2.653   0.608   2.850
 1758SOL    HW2 5295   2.566   0.730   2.915
 1759SOL     OW 5296   3.590   0.935   3.716
 1759SOL    HW1 5297   3.544   0.928   3.627
 1759SOL    HW2 5298   3.528   0.979   3.782
 1760SOL     OW 5299   2.169   0.063   2.480
 1760SOL    HW1 5300   2.158   0.157   2.513
 1760SOL    HW2 5301   2.164   0.000   2.557
 1761SOL     OW 5302   3.484   0.367   2.236
 1761SOL    HW1 5303   3.486   0.291   2.300
 1761SOL    HW2 5304   3.436   0.444   2.276
 1762SOL     OW 5305   2.885   0.766   2.828
 1762SOL    HW1 5306   2.900   0.787   2.924
 1762SOL    HW2 5307   2.855   0.671   2.819
 1763SOL     OW 5308   2.842   1.573   3.562
 1763SOL    HW1 5309   2.822   1.617   3.474
 1763SOL    HW2 5310   2.881   1.482   3.546
 1764SOL     OW 5311   3.721   1.518   3.467
 1764SOL    HW1 5312   3.735   1.545   3.372
 1764SOL    HW2 5313   3.804   1.540   3.520
 1765SOL     OW 5314   2.212   0.898   3.666
 1765SOL    HW1 5315   2.288   0.942   3.714
 1765SOL    HW2 5316   2.247   0.851   3.584
 1766SOL     OW 5317   3.402   0.274   1.987
 1766SOL    HW1 5318   3.341   0.199   2.010
 1766SOL    HW2 5319   3.424   0.326   2.070
 1767SOL     OW 5320   3.165   0.838   1.904
 1767SOL    HW1 5321   3.199   0.745   1.919
 1767SOL    HW2 5322   3.183   0.865   1.809
 1768SOL     OW 5323   2.930   1.333   2.711
 1768SOL    HW1 5324   2.937   1.249   2.656
 1768SOL    HW2 5325   2.992   1.402   2.675
 1769SOL     OW 5326   2.181   0.810   2.811
 1769SOL    HW1 5327   2.274   0.846   2.816
 1769SOL    HW2 5328   2.175   0.725   2.863
 1770SOL     OW 5329   2.201   0.509   2.868
 1770SOL    HW1 5330   2.149   0.426   2.851
 1770SOL    HW2 5331   2.278   0.514   2.804
 1771SOL     OW 5332   3.000   0.380   3.540
 1771SOL    HW1 5333   2.955   0.443   3.604
 1771SOL    HW2 5334   3.093   0.411   3.523
 1772SOL     OW 5335   3.022   0.207   3.339
 1772SOL    HW1 5336   3.022   0.271   3.416
 1772SOL    HW2 5337   3.050   0.255   3.256
 1773SOL     OW 5338   1.870   1.326   2.062
 1773SOL    HW1 5339   1.777   1.347   2.031
 1773SOL    HW2 5340   1.880   1.227   2.075
 1774SOL     OW 5341   1.950   1.801   2.789
 1774SOL    HW1 5342   1.908   1.715   2.762
 1774SOL    HW2 5343   2.044   1.804   2.755
 1775SOL     OW 5344   2.366   1.568   2.772
 1775SOL    HW1 5345   2.432   1.642   2.781
 1775SOL    HW2 5346   2.410   1.489   2.730
 1776SOL     OW 5347   2.864   0.796   3.100
 1776SOL    HW1 5348   2.905   0.764   3.186
 1776SOL    HW2 5349   2.768   0.769   3.097
 1777SOL     OW 5350   1.902   0.544   2.976
 1777SOL    HW1 5351   1.987   0.511   2.935
 1777SOL    HW2 5352   1.915   0.559   3.074
 1778SOL     OW 5353   2.051   0.520   3.584
 1778SOL    HW1 5354   2.110   0.480   3.514
 1778SOL    HW2 5355   1.993   0.591   3.543
 1779SOL     OW 5356   3.231   0.950   3.522
 1779SOL    HW1 5357   3.270   1.039   3.542
 1779SOL    HW2 5358   3.241   0.930   3.425
 1780SOL     OW 5359   2.677   0.572   2.187
 1780SOL    HW1 5360   2.684   0.483   2.141
 1780SOL    HW2 5361   2.583   0.606   2.179
 1781SOL     OW 5362   3.519   0.604   3.068
 1781SOL    HW1 5363   3.481   0.535   3.130
 1781SOL    HW2 5364   3.601   0.568   3.024
 1782SOL     OW 5365   2.114   1.564   3.606
 1782SOL    HW1 5366   2.084   1.621   3.682
 1782SOL    HW2 5367   2.107   1.467   3.632
 1783SOL     OW 5368   2.533   0.464   3.131
 1783SOL    HW1 5369   2.499   0.375   3.101
 1783SOL    HW2 5370   2.559   0.518   3.051
 1784SOL     OW 5371   2.792   1.678   3.327
 1784SOL    HW1 5372   2.768   1.660   3.232
 1784SOL    HW2 5373   2.822   1.772   3.337
 1785SOL     OW 5374   2.335   0.500   2.053
 1785SOL    HW1 5375   2.396   0.580   2.057
 1785SOL    HW2 5376   2.240   0.531   2.060
 1786SOL     OW 5377   2.021   1.137   3.328
 1786SOL    HW1 5378   2.043   1.076   3.404
 1786SOL    HW2 5379   2.031   1.088   3.242
 1787SOL     OW 5380   3.209   1.059   3.096
 1787SOL    HW1 5381   3.233   0.996   3.022
 1787SOL    HW2 5382   3.119   1.099   3.078
 1788SOL     OW 5383   3.164   0.855   2.171
 1788SOL    HW1 5384   3.078   0.824   2.213
 1788SOL    HW2 5385   3.160   0.841   2.072
 1789SOL     OW 5386   3.621   1.747   3.016
 1789SOL    HW1 5387   3.682   1.777   2.943
 1789SOL    HW2 5388   3.583   1.658   2.994
 1790SOL     OW 5389   3.114   1.731   2.990
 1790SOL    HW1 5390   3.198   1.736   2.936
 1790SOL    HW2 5391   3.091   1.635   3.008
 1791SOL     OW 5392   1.945   1.258   2.884
 1791SOL    HW1 5393   1.940   1.257   2.984
 1791SOL    HW2 5394   1.862   1.217   2.846
 1792SOL     OW 5395   2.550   1.662   3.578
 1792SOL    HW1 5396   2.494   1.743   3.587
 1792SOL    HW2 5397   2.602   1.666   3.492
 1793SOL     OW 5398   3.588   0.135   2.385
 1793SOL    HW1 5399   3.661   0.118   2.318
 1793SOL    HW2 5400   3.557   0.048   2.423
 1794SOL     OW 5401   3.250   1.573   2.339
 1794SOL    HW1 5402   3.317   1.585   2.265
 1794SOL    HW2 5403   3.210   1.662   2.362
 1795SOL     OW 5404   1.992   1.794   3.713
 1795SOL    HW1 5405   1.951   1.720   3.766
 1795SOL    HW2 5406   2.056   1.845   3.771
 1796SOL     OW 5407   3.142   0.927   2.534
 1796SOL    HW1 5408   3.202   0.846   2.536
 1796SOL    HW2 5409   3.182   0.996   2.474
 1797SOL     OW 5410   2.692   1.273   3.284
 1797SOL    HW1 5411   2.687   1.306   3.379
 1797SOL    HW2 5412   2.606   1.292   3.238
 1798SOL     OW 5413   2.534   1.616   2.016
 1798SOL    HW1 5414   2.543   1.626   1.917
 1798SOL    HW2 5415   2.494   1.527   2.037
 1799SOL     OW 5416   3.512   1.720   3.256
 1799SOL    HW1 5417   3.565   1.730   3.172
 1799SOL    HW2 5418   3.485   1.810   3.290
 1800SOL     OW 5419   3.703   0.175   2.825
 1800SOL    HW1 5420   3.742   0.090   2.789
 1800SOL    HW2 5421   3.605   0.177   2.806
 1801SOL     OW 5422   2.125   0.326   2.582
 1801SOL    HW1 5423   2.046   0.377   2.548
 1801SOL    HW2 5424   2.116   0.311   2.680
 1802SOL     OW 5425   3.056   1.612   1.893
 1802SOL    HW1 5426   3.062   1.519   1.930
 1802SOL    HW2 5427   2.997   1.612   1.813
 1803SOL     OW 5428   2.684   1.002   3.234
 1803SOL    HW1 5429   2.724   1.001   3.142
 1803SOL    HW2 5430   2.694   1.094   3.274
 1804SOL     OW 5431   2.778   0.910   2.153
 1804SOL    HW1 5432   2.841   0.948   2.085
 1804SOL    HW2 5433   2.818   0.827   2.192
 1805SOL     OW 5434   3.366   1.607   1.906
 1805SOL    HW1 5435   3.274   1.644   1.913
 1805SOL    HW2 5436   3.404   1.627   1.816
 1806SOL     OW 5437   2.234   1.288   3.352
 1806SOL    HW1 5438   2.221   1.381   3.318
 1806SOL    HW2 5439   2.150   1.236   3.339
 1807SOL     OW 5440   3.476   1.292   3.151
 1807SOL    HW1 5441   3.536   1.295   3.231
 1807SOL    HW2 5442   3.401   1.356   3.164
 1808SOL     OW 5443   2.901   1.098   2.558
 1808SOL    HW1 5444   2.831   1.051   2.612
 1808SOL    HW2 5445   2.960   1.030   2.515
 1809SOL     OW 5446   2.876   0.236   2.833
 1809SOL    HW1 5447   2.868   0.200   2.740
 1809SOL    HW2 5448   2.874   0.160   2.898
 1810SOL     OW 5449   2.452   1.487   2.353
 1810SOL    HW1 5450   2.494   1.429   2.283
 1810SOL    HW2 5451   2.408   1.566   2.309
 1811SOL     OW 5452   3.571   0.385   3.243
 1811SOL    HW1 5453   3.644   0.454   3.247
 1811SOL    HW2 5454   3.599   0.310   3.184
 1812SOL     OW 5455   2.117   1.348   2.152
 1812SOL    HW1 5456   2.021   1.349   2.125
 1812SOL    HW2 5457   2.129   1.401   2.236
 1813SOL     OW 5458   1.967   1.013   3.588
 1813SOL    HW1 5459   1.890   0.980   3.642
 1813SOL    HW2 5460   2.052   0.983   3.630
 1814SOL     OW 5461   2.534   0.203   3.351
 1814SOL    HW1 5462   2.624   0.187   3.311
 1814SOL    HW2 5463   2.542   0.208   3.450
 1815SOL     OW 5464   1.937   0.345   1.895
 1815SOL    HW1 5465   1.845   0.317   1.866
 1815SOL    HW2 5466   1.968   0.422   1.839
 1816SOL     OW 5467   3.302   0.856   3.260
 1816SOL    HW1 5468   3.245   0.908   3.197
 1816SOL    HW2 5469   3.398   0.868   3.236
 1817SOL     OW 5470   1.934   0.166   2.180
 1817SOL    HW1 5471   1.917   0.249   2.126
 1817SOL    HW2 5472   2.024   0.129   2.158
 1818SOL     OW 5473   3.045   1.335   1.981
 1818SOL    HW1 5474   2.946   1.324   1.983
 1818SOL    HW2 5475   3.079   1.350   2.074
 1819SOL     OW 5476   2.475   0.842   3.293
 1819SOL    HW1 5477   2.531   0.923   3.276
 1819SOL    HW2 5478   2.534   0.762   3.296
 1820SOL     OW 5479   3.355   1.767   2.821
 1820SOL    HW1 5480   3.388   1.831   2.752
 1820SOL    HW2 5481   3.421   1.761   2.896
 1821SOL     OW 5482   2.578   0.565   3.570
 1821SOL    HW1 5483   2.597   0.630   3.644
 1821SOL    HW2 5484   2.638   0.485   3.579
 1822SOL     OW 5485   3.312   1.220   3.495
 1822SOL    HW1 5486   3.303   1.210   3.594
 1822SOL    HW2 5487   3.408   1.213   3.469
 1823SOL     OW 5488   2.252   1.741   3.422
 1823SOL    HW1 5489   2.161   1.782   3.420
 1823SOL    HW2 5490   2.245   1.647   3.454
 1824SOL     OW 5491   3.536   0.883   3.116
 1824SOL    HW1 5492   3.509   0.794   3.079
 1824SOL    HW2 5493   3.537   0.951   3.043
 1825SOL     OW 5494   3.087   0.325   2.311
 1825SOL    HW1 5495   3.152   0.251   2.300
 1825SOL    HW2 5496   3.107   0.375   2.395
 1826SOL     OW 5497   2.456   0.745   2.514
 1826SOL    HW1 5498   2.506   0.830   2.495
 1826SOL    HW2 5499   2.368   0.747   2.466
 1827SOL     OW 5500   3.639   0.342   3.504
 1827SOL    HW1 5501   3.622   0.373   3.410
 1827SOL    HW2 5502   3.555   0.305   3.542
 1828SOL     OW 5503   3.592   0.934   3.379
 1828SOL    HW1 5504   3.630   1.025   3.394
 1828SOL    HW2 5505   3.584   0.917   3.280
 1829SOL     OW 5506   2.721   1.374   1.878
 1829SOL    HW1 5507   2.675   1.389   1.966
 1829SOL    HW2 5508   2.765   1.459   1.848
 1830SOL     OW 5509   2.523   1.790   2.815
 1830SOL    HW1 5510   2.477   1.878   2.802
 1830SOL    HW2 5511   2.622   1.802   2.808
 1831SOL     OW 5512   2.721   0.956   2.723
 1831SOL    HW1 5513   2.775   0.887   2.771
 1831SOL    HW2 5514   2.689   1.025   2.789
 1832SOL     OW 5515   2.945   0.984   1.949
 1832SOL    HW1 5516   2.922   1.037   1.867
 1832SOL    HW2 5517   3.026   0.928   1.930
 1833SOL     OW 5518   3.723   1.569   2.713
 1833SOL    HW1 5519   3.652   1.557   2.643
 1833SOL    HW2 5520   3.724   1.490   2.773
 1834SOL     OW 5521   2.083   1.314   3.706
 1834SOL    HW1 5522   2.018   1.241   3.685
 1834SOL    HW2 5523   2.087   1.328   3.804
 1835SOL     OW 5524   1.941   1.240   2.515
 1835SOL    HW1 5525   1.940   1.193   2.603
 1835SOL    HW2 5526   2.023   1.212   2.464
 1836SOL     OW 5527   2.534   1.391   3.486
 1836SOL    HW1 5528   2.456   1.341   3.524
 1836SOL    HW2 5529   2.531   1.486   3.517
 1837SOL     OW 5530   3.686   0.192   3.089
 1837SOL    HW1 5531   3.682   0.102   3.133
 1837SOL    HW2 5532   3.689   0.181   2.990
 1838SOL     OW 5533   2.290   0.424   2.382
 1838SOL    HW1 5534   2.320   0.352   2.320
 1838SOL    HW2 5535   2.251   0.384   2.465
 1839SOL     OW 5536   3.567   1.487   2.966
 1839SOL    HW1 5537   3.474   1.462   2.939
 1839SOL    HW2 5538   3.593   1.437   3.048
 1840SOL     OW 5539   2.179   0.547   3.142
 1840SOL    HW1 5540   2.217   0.488   3.214
 1840SOL    HW2 5541   2.219   0.521   3.054
 1841SOL     OW 5542   2.674   1.586   2.549
 1841SOL    HW1 5543   2.706   1.596   2.455
 1841SOL    HW2 5544   2.595   1.524   2.551
 1842SOL     OW 5545   3.286   0.214   2.974
 1842SOL    HW1 5546   3.338   0.149   3.029
 1842SOL    HW2 5547   3.237   0.277   3.035
 1843SOL     OW 5548   2.863   0.034   3.016
 1843SOL    HW1 5549   2.800  -0.038   2.985
 1843SOL    HW2 5550   2.956  -0.002   3.016
 1844SOL     OW 5551   2.632   1.330   2.163
 1844SOL    HW1 5552   2.586   1.243   2.180
 1844SOL    HW2 5553   2.723   1.327   2.204
 1845SOL     OW 5554   2.480   1.567   3.146
 1845SOL    HW1 5555   2.475   1.649   3.203
 1845SOL    HW2 5556   2.569   1.564   3.101
 1846SOL     OW 5557   3.214   0.052   2.030
 1846SOL    HW1 5558   3.249   0.011   1.946
 1846SOL    HW2 5559   3.124   0.014   2.050
 1847SOL     OW 5560   3.162   0.453   2.553
 1847SOL    HW1 5561   3.103   0.533   2.557
 1847SOL    HW2 5562   3.177   0.418   2.646
 1848SOL     OW 5563   3.455   0.221   2.744
 1848SOL    HW1 5564   3.371   0.220   2.798
 1848SOL    HW2 5565   3.457   0.304   2.688
 1849SOL     OW 5566   1.901   1.077   2.162
 1849SOL    HW1 5567   2.000   1.066   2.153
 1849SOL    HW2 5568   1.861   0.991   2.194
 1850SOL     OW 5569   2.737   1.646   2.199
 1850SOL    HW1 5570   2.660   1.611   2.145
 1850SOL    HW2 5571   2.705   1.717   2.261
 1851SOL     OW 5572   2.092   0.628   3.837
 1851SOL    HW1 5573   1.999   0.626   3.874
 1851SOL    HW2 5574   2.093   0.589   3.745
 1852SOL     OW 5575   2.087   0.275   4.720
 1852SOL    HW1 5576   2.122   0.258   4.812
 1852SOL    HW2 5577   1.999   0.230   4.708
 1853SOL     OW 5578   1.881   0.368   4.371
 1853SOL    HW1 5579   1.799   0.411   4.410
 1853SOL    HW2 5580   1.853   0.295   4.308
 1854SOL     OW 5581   3.417   1.511   4.427
 1854SOL    HW1 5582   3.360   1.495   4.508
 1854SOL    HW2 5583   3.358   1.521   4.347
 1855SOL     OW 5584   2.997   0.703   4.441
 1855SOL    HW1 5585   3.054   0.781   4.416
 1855SOL    HW2 5586   2.937   0.729   4.517
 1856SOL     OW 5587   3.617   0.607   3.955
 1856SOL    HW1 5588   3.605   0.594   3.856
 1856SOL    HW2 5589   3.587   0.526   4.004
 1857SOL     OW 5590   2.630   1.144   4.747
 1857SOL    HW1 5591   2.552   1.161   4.807
 1857SOL    HW2 5592   2.664   1.231   4.711
 1858SOL     OW 5593   2.547   1.012   4.389
 1858SOL    HW1 5594   2.616   0.996   4.459
 1858SOL    HW2 5595   2.474   1.069   4.427
 1859SOL     OW 5596   2.197   1.435   4.785
 1859SOL    HW1 5597   2.119   1.404   4.732
 1859SOL    HW2 5598   2.255   1.493   4.728
 1860SOL     OW 5599   3.465   0.447   4.461
 1860SOL    HW1 5600   3.391   0.493   4.411
 1860SOL    HW2 5601   3.516   0.515   4.514
 1861SOL     OW 5602   2.093   1.713   4.207
 1861SOL    HW1 5603   2.127   1.790   4.261
 1861SOL    HW2 5604   2.137   1.713   4.117
 1862SOL     OW 5605   2.092   1.434   4.262
 1862SOL    HW1 5606   2.066   1.530   4.262
 1862SOL    HW2 5607   2.021   1.380   4.307
 1863SOL     OW 5608   2.102   1.091   4.610
 1863SOL    HW1 5609   2.116   1.007   4.662
 1863SOL    HW2 5610   2.047   1.155   4.665
 1864SOL     OW 5611   2.468   0.964   3.847
 1864SOL    HW1 5612   2.475   1.048   3.793
 1864SOL    HW2 5613   2.514   0.977   3.935
 1865SOL     OW 5614   1.984   0.643   4.287
 1865SOL    HW1 5615   1.939   0.555   4.304
 1865SOL    HW2 5616   1.983   0.697   4.371
 1866SOL     OW 5617   3.704   1.767   4.083
 1866SOL    HW1 5618   3.758   1.738   4.163
 1866SOL    HW2 5619   3.734   1.857   4.054
 1867SOL     OW 5620   1.889   1.596   3.841
 1867SOL    HW1 5621   1.870   1.500   3.862
 1867SOL    HW2 5622   1.856   1.654   3.916
 1868SOL     OW 5623   3.551   0.922   4.336
 1868SOL    HW1 5624   3.646   0.893   4.344
 1868SOL    HW2 5625   3.543   0.987   4.261
 1869SOL     OW 5626   3.503   1.108   4.156
 1869SOL    HW1 5627   3.589   1.110   4.104
 1869SOL    HW2 5628   3.517   1.155   4.244
 1870SOL     OW 5629   2.475   1.365   4.450
 1870SOL    HW1 5630   2.426   1.278   4.459
 1870SOL    HW2 5631   2.452   1.408   4.363
 1871SOL     OW 5632   2.671   0.004   4.226
 1871SOL    HW1 5633   2.711   0.095   4.217
 1871SOL    HW2 5634   2.571   0.012   4.232
 1872SOL     OW 5635   3.387   0.999   3.914
 1872SOL    HW1 5636   3.324   0.923   3.927
 1872SOL    HW2 5637   3.435   1.017   4.000
 1873SOL     OW 5638   3.328   1.417   4.677
 1873SOL    HW1 5639   3.269   1.423   4.757
 1873SOL    HW2 5640   3.313   1.329   4.631
 1874SOL     OW 5641   3.529   1.714   4.296
 1874SOL    HW1 5642   3.488   1.691   4.208
 1874SOL    HW2 5643   3.511   1.640   4.361
 1875SOL     OW 5644   2.460   0.729   3.994
 1875SOL    HW1 5645   2.484   0.798   3.926
 1875SOL    HW2 5646   2.382   0.762   4.048
 1876SOL     OW 5647   3.143   0.345   4.668
 1876SOL    HW1 5648   3.057   0.295   4.655
 1876SOL    HW2 5649   3.205   0.291   4.724
 1877SOL     OW 5650   3.438   1.662   4.031
 1877SOL    HW1 5651   3.527   1.708   4.034
 1877SOL    HW2 5652   3.417   1.638   3.936
 1878SOL     OW 5653   2.903   0.701   4.153
 1878SOL    HW1 5654   2.929   0.697   4.249
 1878SOL    HW2 5655   2.818   0.650   4.139
 1879SOL     OW 5656   1.938   0.811   4.513
 1879SOL    HW1 5657   2.037   0.799   4.522
 1879SOL    HW2 5658   1.914   0.906   4.534
 1880SOL     OW 5659   2.727   0.348   3.919
 1880SOL    HW1 5660   2.786   0.411   3.870
 1880SOL    HW2 5661   2.746   0.254   3.890
 1881SOL     OW 5662   3.224   1.144   4.269
 1881SOL    HW1 5663   3.307   1.115   4.221
 1881SOL    HW2 5664   3.175   1.211   4.213
 1882SOL     OW 5665   2.412   0.196   4.609
 1882SOL    HW1 5666   2.407   0.191   4.709
 1882SOL    HW2 5667   2.414   0.292   4.580
 1883SOL     OW 5668   2.870   1.456   4.201
 1883SOL    HW1 5669   2.824   1.528   4.149
 1883SOL    HW2 5670   2.866   1.476   4.299
 1884SOL     OW 5671   2.213   1.801   4.577
 1884SOL    HW1 5672   2.263   1.715   4.583
 1884SOL    HW2 5673   2.278   1.878   4.574
 1885SOL     OW 5674   3.657   1.066   4.597
 1885SOL    HW1 5675   3.595   1.051   4.521
 1885SOL    HW2 5676   3.605   1.077   4.682
 1886SOL     OW 5677   2.183   0.943   3.966
 1886SOL    HW1 5678   2.265   0.982   3.924
 1886SOL    HW2 5679   2.156   0.861   3.917
 1887SOL     OW 5680   3.320   0.735   4.452
 1887SOL    HW1 5681   3.315   0.670   4.527
 1887SOL    HW2 5682   3.400   0.794   4.465
 1888SOL     OW 5683   2.973   1.776   3.961
 1888SOL    HW1 5684   2.913   1.714   4.011
 1888SOL    HW2 5685   3.004   1.732   3.876
 1889SOL     OW 5686   3.494   1.377   3.805
 1889SOL    HW1 5687   3.462   1.471   3.795
 1889SOL    HW2 5688   3.418   1.314   3.793
 1890SOL     OW 5689   2.326   1.743   4.047
 1890SOL    HW1 5690   2.359   1.782   4.133
 1890SOL    HW2 5691   2.402   1.736   3.982
 1891SOL     OW 5692   3.262   0.107   4.150
 1891SOL    HW1 5693   3.238   0.070   4.060
 1891SOL    HW2 5694   3.361   0.123   4.154
 1892SOL     OW 5695   2.111   1.785   4.965
 1892SOL    HW1 5696   2.168   1.720   5.015
 1892SOL    HW2 5697   2.095   1.752   4.872
 1893SOL     OW 5698   2.802   1.698   4.628
 1893SOL    HW1 5699   2.882   1.641   4.649
 1893SOL    HW2 5700   2.753   1.658   4.551
 1894SOL     OW 5701   2.244   0.700   4.204
 1894SOL    HW1 5702   2.289   0.610   4.201
 1894SOL    HW2 5703   2.150   0.689   4.237
 1895SOL     OW 5704   2.476   0.122   3.841
 1895SOL    HW1 5705   2.574   0.100   3.848
 1895SOL    HW2 5706   2.445   0.105   3.748
 1896SOL     OW 5707   2.665   1.402   4.648
 1896SOL    HW1 5708   2.755   1.416   4.606
 1896SOL    HW2 5709   2.594   1.404   4.577
 1897SOL     OW 5710   2.784   0.503   4.623
 1897SOL    HW1 5711   2.759   0.494   4.527
 1897SOL    HW2 5712   2.832   0.421   4.654
 1898SOL     OW 5713   2.401   0.064   4.236
 1898SOL    HW1 5714   2.320   0.065   4.294
 1898SOL    HW2 5715   2.404   0.147   4.181
 1899SOL     OW 5716   3.296   1.188   3.765
 1899SOL    HW1 5717   3.328   1.112   3.822
 1899SOL    HW2 5718   3.204   1.215   3.795
 1900SOL     OW 5719   2.159   0.035   3.895
 1900SOL    HW1 5720   2.208   0.119   3.874
 1900SOL    HW2 5721   2.221  -0.030   3.940
 1901SOL     OW 5722   2.797   0.236   4.204
 1901SOL    HW1 5723   2.749   0.277   4.126
 1901SOL    HW2 5724   2.896   0.234   4.185
 1902SOL     OW 5725   3.089   1.570   4.517
 1902SOL    HW1 5726   3.110   1.644   4.452
 1902SOL    HW2 5727   3.157   1.570   4.590
 1903SOL     OW 5728   2.321   1.152   4.465
 1903SOL    HW1 5729   2.250   1.125   4.530
 1903SOL    HW2 5730   2.295   1.124   4.372
 1904SOL     OW 5731   3.133   1.797   4.315
 1904SOL    HW1 5732   3.177   1.861   4.251
 1904SOL    HW2 5733   3.083   1.849   4.385
 1905SOL     OW 5734   2.894   0.549   3.740
 1905SOL    HW1 5735   2.853   0.631   3.701
 1905SOL    HW2 5736   2.958   0.575   3.813
 1906SOL     OW 5737   2.728   0.454   4.366
 1906SOL    HW1 5738   2.696   0.526   4.304
 1906SOL    HW2 5739   2.752   0.373   4.313
 1907SOL     OW 5740   2.879   0.039   4.477
 1907SOL    HW1 5741   2.807   0.044   4.408
 1907SOL    HW2 5742   2.855  -0.030   4.546
 1908SOL     OW 5743   3.291   1.173   4.591
 1908SOL    HW1 5744   3.236   1.089   4.584
 1908SOL    HW2 5745   3.317   1.202   4.499
 1909SOL     OW 5746   3.328   0.590   4.716
 1909SOL    HW1 5747   3.298   0.495   4.723
 1909SOL    HW2 5748   3.401   0.606   4.782
 1910SOL     OW 5749   3.719   0.833   4.101
 1910SOL    HW1 5750   3.761   0.769   4.165
 1910SOL    HW2 5751   3.681   0.782   4.023
 1911SOL     OW 5752   2.350   1.385   3.898
 1911SOL    HW1 5753   2.263   1.370   3.945
 1911SOL    HW2 5754   2.333   1.411   3.803
 1912SOL     OW 5755   3.526   1.280   4.381
 1912SOL    HW1 5756   3.625   1.288   4.395
 1912SOL    HW2 5757   3.481   1.364   4.412
 1913SOL     OW 5758   3.252   0.575   3.802
 1913SOL    HW1 5759   3.198   0.554   3.883
 1913SOL    HW2 5760   3.343   0.534   3.811
 1914SOL     OW 5761   2.389   0.256   4.052
 1914SOL    HW1 5762   2.416   0.197   3.977
 1914SOL    HW2 5763   2.389   0.351   4.021
 1915SOL     OW 5764   3.500   1.099   4.803
 1915SOL    HW1 5765   3.505   1.180   4.862
 1915SOL    HW2 5766   3.414   1.101   4.752
 1916SOL     OW 5767   2.567   1.050   4.092
 1916SOL    HW1 5768   2.553   1.057   4.191
 1916SOL    HW2 5769   2.651   0.999   4.074
 1917SOL     OW 5770   2.229   1.100   4.225
 1917SOL    HW1 5771   2.222   1.183   4.169
 1917SOL    HW2 5772   2.233   1.020   4.165
 1918SOL     OW 5773   2.428   0.537   4.589
 1918SOL    HW1 5774   2.440   0.603   4.515
 1918SOL    HW2 5775   2.474   0.571   4.672
 1919SOL     OW 5776   3.114   1.348   4.112
 1919SOL    HW1 5777   3.164   1.425   4.152
 1919SOL    HW2 5778   3.019   1.350   4.144
 1920SOL     OW 5779   3.444   0.639   4.196
 1920SOL    HW1 5780   3.413   0.700   4.269
 1920SOL    HW2 5781   3.494   0.691   4.127
 1921SOL     OW 5782   2.435   0.870   4.753
 1921SOL    HW1 5783   2.479   0.959   4.744
 1921SOL    HW2 5784   2.372   0.870   4.830
 1922SOL     OW 5785   3.071   0.525   3.999
 1922SOL    HW1 5786   3.084   0.441   4.053
 1922SOL    HW2 5787   3.042   0.599   4.059
 1923SOL     OW 5788   2.594   0.634   4.788
 1923SOL    HW1 5789   2.653   0.608   4.712
 1923SOL    HW2 5790   2.566   0.730   4.777
 1924SOL     OW 5791   2.169   0.063   4.342
 1924SOL    HW1 5792   2.158   0.157   4.375
 1924SOL    HW2 5793   2.164   0.000   4.419
 1925SOL     OW 5794   3.484   0.367   4.098
 1925SOL    HW1 5795   3.486   0.291   4.162
 1925SOL    HW2 5796   3.436   0.444   4.138
 1926SOL     OW 5797   3.402   0.274   3.849
 1926SOL    HW1 5798   3.341   0.199   3.872
 1926SOL    HW2 5799   3.424   0.326   3.932
 1927SOL     OW 5800   3.165   0.838   3.766
 1927SOL    HW1 5801   3.199   0.745   3.781
 1927SOL    HW2 5802   3.183   0.865   3.671
 1928SOL     OW 5803   2.930   1.333   4.573
 1928SOL    HW1 5804   2.937   1.249   4.518
 1928SOL    HW2 5805   2.992   1.402   4.537
 1929SOL     OW 5806   2.181   0.810   4.673
 1929SOL    HW1 5807   2.274   0.846   4.678
 1929SOL    HW2 5808   2.175   0.725   4.725
 1930SOL     OW 5809   2.201   0.509   4.730
 1930SOL    HW1 5810   2.149   0.426   4.713
 1930SOL    HW2 5811   2.278   0.514   4.666
 1931SOL     OW 5812   1.870   1.326   3.924
 1931SOL    HW1 5813   1.777   1.347   3.893
 1931SOL    HW2 5814   1.880   1.227   3.937
 1932SOL     OW 5815   1.950   1.801   4.651
 1932SOL    HW1 5816   1.908   1.715   4.624
 1932SOL    HW2 5817   2.044   1.804   4.617
 1933SOL     OW 5818   2.366   1.568   4.634
 1933SOL    HW1 5819   2.432   1.642   4.643
 1933SOL    HW2 5820   2.410   1.489   4.592
 1934SOL     OW 5821   2.864   0.796   4.962
 1934SOL    HW1 5822   2.905   0.764   5.048
 1934SOL    HW2 5823   2.768   0.769   4.959
 1935SOL     OW 5824   2.677   0.572   4.049
 1935SOL    HW1 5825   2.684   0.483   4.003
 1935SOL    HW2 5826   2.583   0.606   4.041
 1936SOL     OW 5827   2.533   0.464   4.993
 1936SOL    HW1 5828   2.499   0.375   4.963
 1936SOL    HW2 5829   2.559   0.518   4.913
 1937SOL     OW 5830   2.335   0.500   3.915
 1937SOL    HW1 5831   2.396   0.580   3.919
 1937SOL    HW2 5832   2.240   0.531   3.922
 1938SOL     OW 5833   3.164   0.855   4.033
 1938SOL    HW1 5834   3.078   0.824   4.075
 1938SOL    HW2 5835   3.160   0.841   3.934
 1939SOL     OW 5836   3.621   1.747   4.878
 1939SOL    HW1 5837   3.682   1.777   4.805
 1939SOL    HW2 5838   3.583   1.658   4.856
 1940SOL     OW 5839   1.945   1.258   4.746
 1940SOL    HW1 5840   1.940   1.257   4.846
 1940SOL    HW2 5841   1.862   1.217   4.708
 1941SOL     OW 5842   3.588   0.135   4.247
 1941SOL    HW1 5843   3.661   0.118   4.180
 1941SOL    HW2 5844   3.557   0.048   4.285
 1942SOL     OW 5845   3.250   1.573   4.201
 1942SOL    HW1 5846   3.317   1.585   4.127
 1942SOL    HW2 5847   3.210   1.662   4.224
 1943SOL     OW 5848   3.142   0.927   4.396
 1943SOL    HW1 5849   3.202   0.846   4.398
 1943SOL    HW2 5850   3.182   0.996   4.336
 1944SOL     OW 5851   2.534   1.616   3.878
 1944SOL    HW1 5852   2.543   1.626   3.779
 1944SOL    HW2 5853   2.494   1.527   3.899
 1945SOL     OW 5854   3.703   0.175   4.687
 1945SOL    HW1 5855   3.742   0.090   4.651
 1945SOL    HW2 5856   3.605   0.177   4.668
 1946SOL     OW 5857   2.125   0.326   4.444
 1946SOL    HW1 5858   2.046   0.377   4.410
 1946SOL    HW2 5859   2.116   0.311   4.542
 1947SOL     OW 5860   3.056   1.612   3.755
 1947SOL    HW1 5861   3.062   1.519   3.792
 1947SOL    HW2 5862   2.997   1.612   3.675
 1948SOL     OW 5863   2.778   0.910   4.015
 1948SOL    HW1 5864   2.841   0.948   3.947
 1948SOL    HW2 5865   2.818   0.827   4.054
 1949SOL     OW 5866   3.366   1.607   3.768
 1949SOL    HW1 5867   3.274   1.644   3.775
 1949SOL    HW2 5868   3.404   1.627   3.678
 1950SOL     OW 5869   2.901   1.098   4.420
 1950SOL    HW1 5870   2.831   1.051   4.474
 1950SOL    HW2 5871   2.960   1.030   4.377
 1951SOL     OW 5872   2.876   0.236   4.695
 1951SOL    HW1 5873   2.868   0.200   4.602
 1951SOL    HW2 5874   2.874   0.160   4.760
 1952SOL     OW 5875   2.452   1.487   4.215
 1952SOL    HW1 5876   2.494   1.429   4.145
 1952SOL    HW2 5877   2.408   1.566   4.171
 1953SOL     OW 5878   2.117   1.348   4.014
 1953SOL    HW1 5879   2.021   1.349   3.987
 1953SOL    HW2 5880   2.129   1.401   4.098
 1954SOL     OW 5881   1.937   0.345   3.757
 1954SOL    HW1 5882   1.845   0.317   3.728
 1954SOL    HW2 5883   1.968   0.422   3.701
 1955SOL     OW 5884   1.934   0.166   4.042
 1955SOL    HW1 5885   1.917   0.249   3.988
 1955SOL    HW2 5886   2.024   0.129   4.020
 1956SOL     OW 5887   3.045   1.335   3.843
 1956SOL    HW1 5888   2.946   1.324   3.845
 1956SOL    HW2 5889   3.079   1.350   3.936
 1957SOL     OW 5890   3.536   0.883   4.978
 1957SOL    HW1 5891   3.509   0.794   4.941
 1957SOL    HW2 5892   3.537   0.951   4.905
 1958SOL     OW 5893   3.087   0.325   4.173
 1958SOL    HW1 5894   3.152   0.251   4.162
 1958SOL    HW2 5895   3.107   0.375   4.257
 1959SOL     OW 5896   2.456   0.745   4.376
 1959SOL    HW1 5897   2.506   0.830   4.357
 1959SOL    HW2 5898   2.368   0.747   4.328
 1960SOL     OW 5899   2.721   1.374   3.740
 1960SOL    HW1 5900   2.675   1.389   3.828
 1960SOL    HW2 5901   2.765   1.459   3.710
 1961SOL     OW 5902   2.523   1.790   4.677
 1961SOL    HW1 5903   2.477   1.878   4.664
 1961SOL    HW2 5904   2.622   1.802   4.670
 1962SOL     OW 5905   2.721   0.956   4.585
 1962SOL    HW1 5906   2.775   0.887   4.633
 1962SOL    HW2 5907   2.689   1.025   4.651
 1963SOL     OW 5908   2.945   0.984   3.811
 1963SOL    HW1 5909   2.922   1.037   3.729
 1963SOL    HW2 5910   3.026   0.928   3.792
 1964SOL     OW 5911   3.723   1.569   4.575
 1964SOL    HW1 5912   3.652   1.557   4.505
 1964SOL    HW2 5913   3.724   1.490   4.635
 1965SOL     OW 5914   1.941   1.240   4.377
 1965SOL    HW1 5915   1.940   1.193   4.465
 1965SOL    HW2 5916   2.023   1.212   4.326
 1966SOL     OW 5917   3.686   0.192   4.951
 1966SOL    HW1 5918   3.682   0.102   4.995
 1966SOL    HW2 5919   3.689   0.181   4.852
 1967SOL     OW 5920   2.290   0.424   4.244
 1967SOL    HW1 5921   2.320   0.352   4.182
 1967SOL    HW2 5922   2.251   0.384   4.327
 1968SOL     OW 5923   2.674   1.586   4.411
 1968SOL    HW1 5924   2.706   1.596   4.317
 1968SOL    HW2 5925   2.595   1.524   4.413
 1969SOL     OW 5926   2.632   1.330   4.025
 1969SOL    HW1 5927   2.586   1.243   4.042
 1969SOL    HW2 5928   2.723   1.327   4.066
 1970SOL     OW 5929   3.214   0.052   3.892
 1970SOL    HW1 5930   3.249   0.011   3.808
 1970SOL    HW2 5931   3.124   0.014   3.912
 1971SOL     OW 5932   3.162   0.453   4.415
 1971SOL    HW1 5933   3.103   0.533   4.419
 1971SOL    HW2 5934   3.177   0.418   4.508
 1972SOL     OW 5935   3.455   0.221   4.606
 1972SOL    HW1 5936   3.371   0.220   4.660
 1972SOL    HW2 5937   3.457   0.304   4.550
 1973SOL     OW 5938   1.901   1.077   4.024
 1973SOL    HW1 5939   2.000   1.066   4.015
 1973SOL    HW2 5940   1.861   0.991   4.056
 1974SOL     OW 5941   2.737   1.646   4.061
 1974SOL    HW1 5942   2.660   1.611   4.007
 1974SOL    HW2 5943   2.705   1.717   4.123
 1975SOL     OW 5944   2.092   2.490   0.113
 1975SOL    HW1 5945   1.999   2.488   0.150
 1975SOL    HW2 5946   2.093   2.451   0.021
 1976SOL     OW 5947   2.087   2.137   0.996
 1976SOL    HW1 5948   2.122   2.120   1.088
 1976SOL    HW2 5949   1.999   2.092   0.984
 1977SOL     OW 5950   1.881   2.230   0.647
 1977SOL    HW1 5951   1.799   2.273   0.686
 1977SOL    HW2 5952   1.853   2.157   0.584
 1978SOL     OW 5953   2.431   3.137   1.165
 1978SOL    HW1 5954   2.338   3.130   1.128
 1978SOL    HW2 5955   2.442   3.226   1.209
 1979SOL     OW 5956   3.417   3.373   0.703
 1979SOL    HW1 5957   3.360   3.357   0.784
 1979SOL    HW2 5958   3.358   3.383   0.623
 1980SOL     OW 5959   2.997   2.565   0.717
 1980SOL    HW1 5960   3.054   2.643   0.692
 1980SOL    HW2 5961   2.937   2.591   0.793
 1981SOL     OW 5962   3.617   2.469   0.231
 1981SOL    HW1 5963   3.605   2.456   0.132
 1981SOL    HW2 5964   3.587   2.388   0.280
 1982SOL     OW 5965   2.630   3.006   1.023
 1982SOL    HW1 5966   2.552   3.023   1.083
 1982SOL    HW2 5967   2.664   3.093   0.987
 1983SOL     OW 5968   2.712   2.660   1.823
 1983SOL    HW1 5969   2.708   2.736   1.888
 1983SOL    HW2 5970   2.734   2.696   1.732
 1984SOL     OW 5971   2.547   2.874   0.665
 1984SOL    HW1 5972   2.616   2.858   0.735
 1984SOL    HW2 5973   2.474   2.931   0.703
 1985SOL     OW 5974   2.548   3.023   1.803
 1985SOL    HW1 5975   2.608   3.102   1.817
 1985SOL    HW2 5976   2.462   3.054   1.762
 1986SOL     OW 5977   2.197   3.297   1.061
 1986SOL    HW1 5978   2.119   3.266   1.008
 1986SOL    HW2 5979   2.255   3.355   1.004
 1987SOL     OW 5980   3.322   3.367   1.339
 1987SOL    HW1 5981   3.346   3.461   1.365
 1987SOL    HW2 5982   3.306   3.313   1.421
 1988SOL     OW 5983   2.300   2.254   1.499
 1988SOL    HW1 5984   2.382   2.198   1.508
 1988SOL    HW2 5985   2.219   2.196   1.503
 1989SOL     OW 5986   3.465   2.309   0.737
 1989SOL    HW1 5987   3.391   2.355   0.687
 1989SOL    HW2 5988   3.516   2.377   0.790
 1990SOL     OW 5989   2.093   3.575   0.483
 1990SOL    HW1 5990   2.127   3.652   0.537
 1990SOL    HW2 5991   2.137   3.575   0.393
 1991SOL     OW 5992   2.989   3.203   1.690
 1991SOL    HW1 5993   3.036   3.203   1.778
 1991SOL    HW2 5994   2.941   3.116   1.679
 1992SOL     OW 5995   2.092   3.296   0.538
 1992SOL    HW1 5996   2.066   3.392   0.538
 1992SOL    HW2 5997   2.021   3.242   0.583
 1993SOL     OW 5998   2.102   2.953   0.886
 1993SOL    HW1 5999   2.116   2.869   0.938
 1993SOL    HW2 6000   2.047   3.017   0.941
 1994SOL     OW 6001   2.482   3.648   1.439
 1994SOL    HW1 6002   2.390   3.631   1.474
 1994SOL    HW2 6003   2.510   3.740   1.465
 1995SOL     OW 6004   2.468   2.826   0.123
 1995SOL    HW1 6005   2.475   2.910   0.069
 1995SOL    HW2 6006   2.514   2.839   0.211
 1996SOL     OW 6007   3.456   1.976   1.480
 1996SOL    HW1 6008   3.438   2.043   1.408
 1996SOL    HW2 6009   3.453   2.022   1.569
 1997SOL     OW 6010   1.984   2.505   0.563
 1997SOL    HW1 6011   1.939   2.417   0.580
 1997SOL    HW2 6012   1.983   2.559   0.647
 1998SOL     OW 6013   3.704   3.629   0.359
 1998SOL    HW1 6014   3.758   3.600   0.439
 1998SOL    HW2 6015   3.734   3.719   0.330
 1999SOL     OW 6016   1.889   3.458   0.117
 1999SOL    HW1 6017   1.870   3.362   0.138
 1999SOL    HW2 6018   1.856   3.516   0.192
 2000SOL     OW 6019   3.551   2.784   0.612
 2000SOL    HW1 6020   3.646   2.755   0.620
 2000SOL    HW2 6021   3.543   2.849   0.537
 2001SOL     OW 6022   3.503   2.970   0.432
 2001SOL    HW1 6023   3.589   2.972   0.380
 2001SOL    HW2 6024   3.517   3.017   0.520
 2002SOL     OW 6025   1.975   2.599   1.597
 2002SOL    HW1 6026   2.063   2.586   1.642
 2002SOL    HW2 6027   1.962   2.696   1.575
 2003SOL     OW 6028   2.475   3.227   0.726
 2003SOL    HW1 6029   2.426   3.140   0.735
 2003SOL    HW2 6030   2.452   3.270   0.639
 2004SOL     OW 6031   3.155   3.090   1.423
 2004SOL    HW1 6032   3.192   3.017   1.365
 2004SOL    HW2 6033   3.207   3.095   1.508
 2005SOL     OW 6034   2.671   1.866   0.502
 2005SOL    HW1 6035   2.711   1.957   0.493
 2005SOL    HW2 6036   2.571   1.874   0.508
 2006SOL     OW 6037   2.059   2.838   1.264
 2006SOL    HW1 6038   2.148   2.793   1.250
 2006SOL    HW2 6039   1.986   2.773   1.245
 2007SOL     OW 6040   3.387   2.861   0.190
 2007SOL    HW1 6041   3.324   2.785   0.203
 2007SOL    HW2 6042   3.435   2.879   0.276
 2008SOL     OW 6043   3.049   3.654   1.616
 2008SOL    HW1 6044   3.073   3.714   1.540
 2008SOL    HW2 6045   3.056   3.559   1.586
 2009SOL     OW 6046   2.179   2.113   1.801
 2009SOL    HW1 6047   2.250   2.184   1.807
 2009SOL    HW2 6048   2.091   2.152   1.829
 2010SOL     OW 6049   3.328   3.279   0.953
 2010SOL    HW1 6050   3.269   3.285   1.033
 2010SOL    HW2 6051   3.313   3.191   0.907
 2011SOL     OW 6052   3.529   3.576   0.572
 2011SOL    HW1 6053   3.488   3.553   0.484
 2011SOL    HW2 6054   3.511   3.502   0.637
 2012SOL     OW 6055   2.460   2.591   0.270
 2012SOL    HW1 6056   2.484   2.660   0.202
 2012SOL    HW2 6057   2.382   2.624   0.324
 2013SOL     OW 6058   3.143   2.207   0.944
 2013SOL    HW1 6059   3.057   2.157   0.931
 2013SOL    HW2 6060   3.205   2.153   1.000
 2014SOL     OW 6061   3.438   3.524   0.307
 2014SOL    HW1 6062   3.527   3.570   0.310
 2014SOL    HW2 6063   3.417   3.500   0.212
 2015SOL     OW 6064   2.669   2.467   1.465
 2015SOL    HW1 6065   2.622   2.464   1.554
 2015SOL    HW2 6066   2.618   2.412   1.399
 2016SOL     OW 6067   3.256   2.331   1.674
 2016SOL    HW1 6068   3.236   2.374   1.762
 2016SOL    HW2 6069   3.334   2.269   1.683
 2017SOL     OW 6070   2.835   2.752   1.572
 2017SOL    HW1 6071   2.881   2.668   1.543
 2017SOL    HW2 6072   2.779   2.786   1.497
 2018SOL     OW 6073   2.853   2.272   1.242
 2018SOL    HW1 6074   2.776   2.306   1.296
 2018SOL    HW2 6075   2.819   2.221   1.163
 2019SOL     OW 6076   2.903   2.563   0.429
 2019SOL    HW1 6077   2.929   2.559   0.525
 2019SOL    HW2 6078   2.818   2.512   0.415
 2020SOL     OW 6079   1.938   2.673   0.789
 2020SOL    HW1 6080   2.037   2.661   0.798
 2020SOL    HW2 6081   1.914   2.768   0.810
 2021SOL     OW 6082   1.992   3.683   1.571
 2021SOL    HW1 6083   1.982   3.668   1.670
 2021SOL    HW2 6084   1.906   3.719   1.535
 2022SOL     OW 6085   2.727   2.210   0.195
 2022SOL    HW1 6086   2.786   2.273   0.146
 2022SOL    HW2 6087   2.746   2.116   0.166
 2023SOL     OW 6088   3.581   2.447   1.831
 2023SOL    HW1 6089   3.555   2.536   1.795
 2023SOL    HW2 6090   3.579   2.379   1.758
 2024SOL     OW 6091   3.224   3.006   0.545
 2024SOL    HW1 6092   3.307   2.977   0.497
 2024SOL    HW2 6093   3.175   3.073   0.489
 2025SOL     OW 6094   2.412   2.058   0.885
 2025SOL    HW1 6095   2.407   2.053   0.985
 2025SOL    HW2 6096   2.414   2.154   0.856
 2026SOL     OW 6097   2.870   3.318   0.477
 2026SOL    HW1 6098   2.824   3.390   0.425
 2026SOL    HW2 6099   2.866   3.338   0.575
 2027SOL     OW 6100   2.213   3.663   0.853
 2027SOL    HW1 6101   2.263   3.577   0.859
 2027SOL    HW2 6102   2.278   3.740   0.850
 2028SOL     OW 6103   3.657   2.928   0.873
 2028SOL    HW1 6104   3.595   2.913   0.797
 2028SOL    HW2 6105   3.605   2.939   0.958
 2029SOL     OW 6106   3.089   3.412   1.506
 2029SOL    HW1 6107   3.095   3.335   1.570
 2029SOL    HW2 6108   3.037   3.386   1.426
 2030SOL     OW 6109   2.183   2.805   0.242
 2030SOL    HW1 6110   2.265   2.844   0.200
 2030SOL    HW2 6111   2.156   2.723   0.193
 2031SOL     OW 6112   3.320   2.597   0.728
 2031SOL    HW1 6113   3.315   2.532   0.803
 2031SOL    HW2 6114   3.400   2.656   0.741
 2032SOL     OW 6115   2.323   3.128   1.727
 2032SOL    HW1 6116   2.273   3.129   1.641
 2032SOL    HW2 6117   2.260   3.110   1.803
 2033SOL     OW 6118   2.973   3.638   0.237
 2033SOL    HW1 6119   2.913   3.576   0.287
 2033SOL    HW2 6120   3.004   3.594   0.152
 2034SOL     OW 6121   2.064   2.147   1.498
 2034SOL    HW1 6122   1.984   2.207   1.485
 2034SOL    HW2 6123   2.054   2.098   1.584
 2035SOL     OW 6124   3.494   3.239   0.081
 2035SOL    HW1 6125   3.462   3.333   0.071
 2035SOL    HW2 6126   3.418   3.176   0.069
 2036SOL     OW 6127   2.326   3.605   0.323
 2036SOL    HW1 6128   2.359   3.644   0.409
 2036SOL    HW2 6129   2.402   3.598   0.258
 2037SOL     OW 6130   3.262   1.969   0.426
 2037SOL    HW1 6131   3.238   1.932   0.336
 2037SOL    HW2 6132   3.361   1.985   0.430
 2038SOL     OW 6133   2.111   3.647   1.241
 2038SOL    HW1 6134   2.168   3.582   1.291
 2038SOL    HW2 6135   2.095   3.614   1.148
 2039SOL     OW 6136   2.802   3.560   0.904
 2039SOL    HW1 6137   2.882   3.503   0.925
 2039SOL    HW2 6138   2.753   3.520   0.827
 2040SOL     OW 6139   2.244   2.562   0.480
 2040SOL    HW1 6140   2.289   2.472   0.477
 2040SOL    HW2 6141   2.150   2.551   0.513
 2041SOL     OW 6142   3.409   2.084   1.729
 2041SOL    HW1 6143   3.404   2.121   1.821
 2041SOL    HW2 6144   3.337   2.015   1.717
 2042SOL     OW 6145   2.476   1.984   0.117
 2042SOL    HW1 6146   2.574   1.962   0.124
 2042SOL    HW2 6147   2.445   1.967   0.024
 2043SOL     OW 6148   2.643   2.126   1.749
 2043SOL    HW1 6149   2.710   2.065   1.792
 2043SOL    HW2 6150   2.570   2.145   1.814
 2044SOL     OW 6151   2.750   3.376   1.195
 2044SOL    HW1 6152   2.727   3.351   1.101
 2044SOL    HW2 6153   2.811   3.307   1.234
 2045SOL     OW 6154   3.213   2.452   1.433
 2045SOL    HW1 6155   3.241   2.409   1.518
 2045SOL    HW2 6156   3.238   2.548   1.434
 2046SOL     OW 6157   2.665   3.264   0.924
 2046SOL    HW1 6158   2.755   3.278   0.882
 2046SOL    HW2 6159   2.594   3.266   0.853
 2047SOL     OW 6160   2.784   2.365   0.899
 2047SOL    HW1 6161   2.759   2.356   0.803
 2047SOL    HW2 6162   2.832   2.283   0.930
 2048SOL     OW 6163   2.401   1.926   0.512
 2048SOL    HW1 6164   2.320   1.927   0.570
 2048SOL    HW2 6165   2.404   2.009   0.457
 2049SOL     OW 6166   3.296   3.050   0.041
 2049SOL    HW1 6167   3.328   2.974   0.098
 2049SOL    HW2 6168   3.204   3.077   0.071
 2050SOL     OW 6169   2.797   2.098   0.480
 2050SOL    HW1 6170   2.749   2.139   0.402
 2050SOL    HW2 6171   2.896   2.096   0.461
 2051SOL     OW 6172   2.938   2.545   1.464
 2051SOL    HW1 6173   2.858   2.484   1.467
 2051SOL    HW2 6174   3.019   2.492   1.440
 2052SOL     OW 6175   3.089   3.432   0.793
 2052SOL    HW1 6176   3.110   3.506   0.728
 2052SOL    HW2 6177   3.157   3.432   0.866
 2053SOL     OW 6178   2.321   3.014   0.741
 2053SOL    HW1 6179   2.250   2.987   0.806
 2053SOL    HW2 6180   2.295   2.986   0.648
 2054SOL     OW 6181   3.133   3.659   0.591
 2054SOL    HW1 6182   3.177   3.723   0.527
 2054SOL    HW2 6183   3.083   3.711   0.661
 2055SOL     OW 6184   2.894   2.411   0.016
 2055SOL    HW1 6185   2.853   2.493  -0.023
 2055SOL    HW2 6186   2.958   2.437   0.089
 2056SOL     OW 6187   1.940   2.418   1.386
 2056SOL    HW1 6188   2.032   2.417   1.345
 2056SOL    HW2 6189   1.934   2.492   1.453
 2057SOL     OW 6190   2.423   2.084   1.147
 2057SOL    HW1 6191   2.461   2.000   1.184
 2057SOL    HW2 6192   2.335   2.103   1.191
 2058SOL     OW 6193   2.728   2.316   0.642
 2058SOL    HW1 6194   2.696   2.388   0.580
 2058SOL    HW2 6195   2.752   2.235   0.589
 2059SOL     OW 6196   2.879   1.901   0.753
 2059SOL    HW1 6197   2.807   1.906   0.684
 2059SOL    HW2 6198   2.855   1.832   0.822
 2060SOL     OW 6199   3.291   3.035   0.867
 2060SOL    HW1 6200   3.236   2.951   0.860
 2060SOL    HW2 6201   3.317   3.064   0.775
 2061SOL     OW 6202   3.328   2.452   0.992
 2061SOL    HW1 6203   3.298   2.357   0.999
 2061SOL    HW2 6204   3.401   2.468   1.058
 2062SOL     OW 6205   3.719   2.695   0.377
 2062SOL    HW1 6206   3.761   2.631   0.441
 2062SOL    HW2 6207   3.681   2.644   0.299
 2063SOL     OW 6208   2.350   3.247   0.174
 2063SOL    HW1 6209   2.263   3.232   0.221
 2063SOL    HW2 6210   2.333   3.273   0.079
 2064SOL     OW 6211   3.526   3.142   0.657
 2064SOL    HW1 6212   3.625   3.150   0.671
 2064SOL    HW2 6213   3.481   3.226   0.688
 2065SOL     OW 6214   3.252   2.437   0.078
 2065SOL    HW1 6215   3.198   2.416   0.159
 2065SOL    HW2 6216   3.343   2.396   0.087
 2066SOL     OW 6217   2.389   2.118   0.328
 2066SOL    HW1 6218   2.416   2.059   0.253
 2066SOL    HW2 6219   2.389   2.213   0.297
 2067SOL     OW 6220   3.616   3.085   1.588
 2067SOL    HW1 6221   3.707   3.046   1.575
 2067SOL    HW2 6222   3.624   3.181   1.612
 2068SOL     OW 6223   2.926   3.209   1.340
 2068SOL    HW1 6224   2.846   3.186   1.395
 2068SOL    HW2 6225   3.009   3.183   1.389
 2069SOL     OW 6226   3.454   3.491   1.625
 2069SOL    HW1 6227   3.481   3.525   1.535
 2069SOL    HW2 6228   3.533   3.453   1.671
 2070SOL     OW 6229   2.973   3.057   1.100
 2070SOL    HW1 6230   2.933   3.101   1.181
 2070SOL    HW2 6231   2.932   3.094   1.017
 2071SOL     OW 6232   3.500   2.961   1.079
 2071SOL    HW1 6233   3.505   3.042   1.138
 2071SOL    HW2 6234   3.414   2.963   1.028
 2072SOL     OW 6235   2.777   1.951   1.402
 2072SOL    HW1 6236   2.802   1.931   1.307
 2072SOL    HW2 6237   2.849   2.007   1.444
 2073SOL     OW 6238   2.842   2.978   1.719
 2073SOL    HW1 6239   2.743   2.984   1.729
 2073SOL    HW2 6240   2.865   2.898   1.663
 2074SOL     OW 6241   2.567   2.912   0.368
 2074SOL    HW1 6242   2.553   2.919   0.467
 2074SOL    HW2 6243   2.651   2.861   0.350
 2075SOL     OW 6244   2.272   2.675   1.251
 2075SOL    HW1 6245   2.358   2.687   1.301
 2075SOL    HW2 6246   2.230   2.588   1.278
 2076SOL     OW 6247   3.136   2.248   1.262
 2076SOL    HW1 6248   3.157   2.322   1.326
 2076SOL    HW2 6249   3.047   2.265   1.219
 2077SOL     OW 6250   1.926   3.426   1.331
 2077SOL    HW1 6251   1.880   3.508   1.297
 2077SOL    HW2 6252   2.024   3.445   1.340
 2078SOL     OW 6253   2.229   2.962   0.501
 2078SOL    HW1 6254   2.222   3.045   0.445
 2078SOL    HW2 6255   2.233   2.882   0.441
 2079SOL     OW 6256   2.428   2.399   0.865
 2079SOL    HW1 6257   2.440   2.465   0.791
 2079SOL    HW2 6258   2.474   2.433   0.948
 2080SOL     OW 6259   3.114   3.210   0.388
 2080SOL    HW1 6260   3.164   3.287   0.428
 2080SOL    HW2 6261   3.019   3.212   0.420
 2081SOL     OW 6262   3.134   3.307   1.142
 2081SOL    HW1 6263   3.181   3.320   1.229
 2081SOL    HW2 6264   3.068   3.233   1.151
 2082SOL     OW 6265   3.444   2.501   0.472
 2082SOL    HW1 6266   3.413   2.562   0.545
 2082SOL    HW2 6267   3.494   2.553   0.403
 2083SOL     OW 6268   2.216   3.372   1.329
 2083SOL    HW1 6269   2.195   3.328   1.242
 2083SOL    HW2 6270   2.313   3.398   1.332
 2084SOL     OW 6271   2.264   2.613   1.598
 2084SOL    HW1 6272   2.332   2.668   1.551
 2084SOL    HW2 6273   2.304   2.525   1.625
 2085SOL     OW 6274   3.449   2.641   1.670
 2085SOL    HW1 6275   3.357   2.679   1.665
 2085SOL    HW2 6276   3.509   2.688   1.605
 2086SOL     OW 6277   2.875   1.967   1.770
 2086SOL    HW1 6278   2.881   2.052   1.718
 2086SOL    HW2 6279   2.907   1.891   1.713
 2087SOL     OW 6280   2.366   1.912   1.740
 2087SOL    HW1 6281   2.324   1.855   1.670
 2087SOL    HW2 6282   2.300   1.981   1.772
 2088SOL     OW 6283   2.435   2.732   1.029
 2088SOL    HW1 6284   2.479   2.821   1.020
 2088SOL    HW2 6285   2.372   2.732   1.106
 2089SOL     OW 6286   3.222   2.724   1.045
 2089SOL    HW1 6287   3.147   2.724   0.979
 2089SOL    HW2 6288   3.259   2.632   1.054
 2090SOL     OW 6289   3.071   2.387   0.275
 2090SOL    HW1 6290   3.084   2.303   0.329
 2090SOL    HW2 6291   3.042   2.461   0.335
 2091SOL     OW 6292   2.169   2.075   1.231
 2091SOL    HW1 6293   2.146   2.112   1.321
 2091SOL    HW2 6294   2.139   1.980   1.225
 2092SOL     OW 6295   1.899   3.172   1.282
 2092SOL    HW1 6296   1.952   3.123   1.350
 2092SOL    HW2 6297   1.921   3.270   1.287
 2093SOL     OW 6298   2.594   2.496   1.064
 2093SOL    HW1 6299   2.653   2.470   0.988
 2093SOL    HW2 6300   2.566   2.592   1.053
 2094SOL     OW 6301   3.590   2.797   1.854
 2094SOL    HW1 6302   3.544   2.790   1.765
 2094SOL    HW2 6303   3.528   2.841   1.920
 2095SOL     OW 6304   2.169   1.925   0.618
 2095SOL    HW1 6305   2.158   2.019   0.651
 2095SOL    HW2 6306   2.164   1.862   0.695
 2096SOL     OW 6307   3.484   2.229   0.374
 2096SOL    HW1 6308   3.486   2.153   0.438
 2096SOL    HW2 6309   3.436   2.306   0.414
 2097SOL     OW 6310   2.885   2.628   0.966
 2097SOL    HW1 6311   2.900   2.649   1.062
 2097SOL    HW2 6312   2.855   2.533   0.957
 2098SOL     OW 6313   2.842   3.435   1.700
 2098SOL    HW1 6314   2.822   3.479   1.612
 2098SOL    HW2 6315   2.881   3.344   1.684
 2099SOL     OW 6316   3.721   3.380   1.605
 2099SOL    HW1 6317   3.735   3.407   1.510
 2099SOL    HW2 6318   3.804   3.402   1.658
 2100SOL     OW 6319   2.212   2.760   1.804
 2100SOL    HW1 6320   2.288   2.804   1.852
 2100SOL    HW2 6321   2.247   2.713   1.722
 2101SOL     OW 6322   3.402   2.136   0.125
 2101SOL    HW1 6323   3.341   2.061   0.148
 2101SOL    HW2 6324   3.424   2.188   0.208
 2102SOL     OW 6325   3.165   2.700   0.042
 2102SOL    HW1 6326   3.199   2.607   0.057
 2102SOL    HW2 6327   3.183   2.727  -0.053
 2103SOL     OW 6328   2.930   3.195   0.849
 2103SOL    HW1 6329   2.937   3.111   0.794
 2103SOL    HW2 6330   2.992   3.264   0.813
 2104SOL     OW 6331   2.181   2.672   0.949
 2104SOL    HW1 6332   2.274   2.708   0.954
 2104SOL    HW2 6333   2.175   2.587   1.001
 2105SOL     OW 6334   2.201   2.371   1.006
 2105SOL    HW1 6335   2.149   2.288   0.989
 2105SOL    HW2 6336   2.278   2.376   0.942
 2106SOL     OW 6337   3.000   2.242   1.678
 2106SOL    HW1 6338   2.955   2.305   1.742
 2106SOL    HW2 6339   3.093   2.273   1.661
 2107SOL     OW 6340   3.022   2.069   1.477
 2107SOL    HW1 6341   3.022   2.133   1.554
 2107SOL    HW2 6342   3.050   2.117   1.394
 2108SOL     OW 6343   1.870   3.188   0.200
 2108SOL    HW1 6344   1.777   3.209   0.169
 2108SOL    HW2 6345   1.880   3.089   0.213
 2109SOL     OW 6346   1.950   3.663   0.927
 2109SOL    HW1 6347   1.908   3.577   0.900
 2109SOL    HW2 6348   2.044   3.666   0.893
 2110SOL     OW 6349   2.366   3.430   0.910
 2110SOL    HW1 6350   2.432   3.504   0.919
 2110SOL    HW2 6351   2.410   3.351   0.868
 2111SOL     OW 6352   2.864   2.658   1.238
 2111SOL    HW1 6353   2.905   2.626   1.324
 2111SOL    HW2 6354   2.768   2.631   1.235
 2112SOL     OW 6355   1.902   2.406   1.114
 2112SOL    HW1 6356   1.987   2.373   1.073
 2112SOL    HW2 6357   1.915   2.421   1.212
 2113SOL     OW 6358   2.051   2.382   1.722
 2113SOL    HW1 6359   2.110   2.342   1.652
 2113SOL    HW2 6360   1.993   2.453   1.681
 2114SOL     OW 6361   3.231   2.812   1.660
 2114SOL    HW1 6362   3.270   2.901   1.680
 2114SOL    HW2 6363   3.241   2.792   1.563
 2115SOL     OW 6364   2.677   2.434   0.325
 2115SOL    HW1 6365   2.684   2.345   0.279
 2115SOL    HW2 6366   2.583   2.468   0.317
 2116SOL     OW 6367   3.519   2.466   1.206
 2116SOL    HW1 6368   3.481   2.397   1.268
 2116SOL    HW2 6369   3.601   2.430   1.162
 2117SOL     OW 6370   2.114   3.426   1.744
 2117SOL    HW1 6371   2.084   3.483   1.820
 2117SOL    HW2 6372   2.107   3.329   1.770
 2118SOL     OW 6373   2.533   2.326   1.269
 2118SOL    HW1 6374   2.499   2.237   1.239
 2118SOL    HW2 6375   2.559   2.380   1.189
 2119SOL     OW 6376   2.792   3.540   1.465
 2119SOL    HW1 6377   2.768   3.522   1.370
 2119SOL    HW2 6378   2.822   3.634   1.475
 2120SOL     OW 6379   2.335   2.362   0.191
 2120SOL    HW1 6380   2.396   2.442   0.195
 2120SOL    HW2 6381   2.240   2.393   0.198
 2121SOL     OW 6382   2.021   2.999   1.466
 2121SOL    HW1 6383   2.043   2.938   1.542
 2121SOL    HW2 6384   2.031   2.950   1.380
 2122SOL     OW 6385   3.209   2.921   1.234
 2122SOL    HW1 6386   3.233   2.858   1.160
 2122SOL    HW2 6387   3.119   2.961   1.216
 2123SOL     OW 6388   3.164   2.717   0.309
 2123SOL    HW1 6389   3.078   2.686   0.351
 2123SOL    HW2 6390   3.160   2.703   0.210
 2124SOL     OW 6391   3.621   3.609   1.154
 2124SOL    HW1 6392   3.682   3.639   1.081
 2124SOL    HW2 6393   3.583   3.520   1.132
 2125SOL     OW 6394   3.114   3.593   1.128
 2125SOL    HW1 6395   3.198   3.598   1.074
 2125SOL    HW2 6396   3.091   3.497   1.146
 2126SOL     OW 6397   1.945   3.120   1.022
 2126SOL    HW1 6398   1.940   3.119   1.122
 2126SOL    HW2 6399   1.862   3.079   0.984
 2127SOL     OW 6400   2.550   3.524   1.716
 2127SOL    HW1 6401   2.494   3.605   1.725
 2127SOL    HW2 6402   2.602   3.528   1.630
 2128SOL     OW 6403   2.765   1.948   0.133
 2128SOL    HW1 6404   2.816   1.949   0.047
 2128SOL    HW2 6405   2.821   1.906   0.204
 2129SOL     OW 6406   3.588   1.997   0.523
 2129SOL    HW1 6407   3.661   1.980   0.456
 2129SOL    HW2 6408   3.557   1.910   0.561
 2130SOL     OW 6409   3.250   3.435   0.477
 2130SOL    HW1 6410   3.317   3.447   0.403
 2130SOL    HW2 6411   3.210   3.524   0.500
 2131SOL     OW 6412   1.992   3.656   1.851
 2131SOL    HW1 6413   1.951   3.582   1.904
 2131SOL    HW2 6414   2.056   3.707   1.909
 2132SOL     OW 6415   3.142   2.789   0.672
 2132SOL    HW1 6416   3.202   2.708   0.674
 2132SOL    HW2 6417   3.182   2.858   0.612
 2133SOL     OW 6418   2.692   3.135   1.422
 2133SOL    HW1 6419   2.687   3.168   1.517
 2133SOL    HW2 6420   2.606   3.154   1.376
 2134SOL     OW 6421   2.534   3.478   0.154
 2134SOL    HW1 6422   2.543   3.488   0.055
 2134SOL    HW2 6423   2.494   3.389   0.175
 2135SOL     OW 6424   3.512   3.582   1.394
 2135SOL    HW1 6425   3.565   3.592   1.310
 2135SOL    HW2 6426   3.485   3.672   1.428
 2136SOL     OW 6427   3.703   2.037   0.963
 2136SOL    HW1 6428   3.742   1.952   0.927
 2136SOL    HW2 6429   3.605   2.039   0.944
 2137SOL     OW 6430   2.125   2.188   0.720
 2137SOL    HW1 6431   2.046   2.239   0.686
 2137SOL    HW2 6432   2.116   2.173   0.818
 2138SOL     OW 6433   3.056   3.474   0.031
 2138SOL    HW1 6434   3.062   3.381   0.068
 2138SOL    HW2 6435   2.997   3.474  -0.049
 2139SOL     OW 6436   2.684   2.864   1.372
 2139SOL    HW1 6437   2.724   2.863   1.280
 2139SOL    HW2 6438   2.694   2.956   1.412
 2140SOL     OW 6439   2.778   2.772   0.291
 2140SOL    HW1 6440   2.841   2.810   0.223
 2140SOL    HW2 6441   2.818   2.689   0.330
 2141SOL     OW 6442   3.366   3.469   0.044
 2141SOL    HW1 6443   3.274   3.506   0.051
 2141SOL    HW2 6444   3.404   3.489  -0.046
 2142SOL     OW 6445   2.234   3.150   1.490
 2142SOL    HW1 6446   2.221   3.243   1.456
 2142SOL    HW2 6447   2.150   3.098   1.477
 2143SOL     OW 6448   3.476   3.154   1.289
 2143SOL    HW1 6449   3.536   3.157   1.369
 2143SOL    HW2 6450   3.401   3.218   1.302
 2144SOL     OW 6451   2.901   2.960   0.696
 2144SOL    HW1 6452   2.831   2.913   0.750
 2144SOL    HW2 6453   2.960   2.892   0.653
 2145SOL     OW 6454   2.876   2.098   0.971
 2145SOL    HW1 6455   2.868   2.062   0.878
 2145SOL    HW2 6456   2.874   2.022   1.036
 2146SOL     OW 6457   2.452   3.349   0.491
 2146SOL    HW1 6458   2.494   3.291   0.421
 2146SOL    HW2 6459   2.408   3.428   0.447
 2147SOL     OW 6460   3.571   2.247   1.381
 2147SOL    HW1 6461   3.644   2.316   1.385
 2147SOL    HW2 6462   3.599   2.172   1.322
 2148SOL     OW 6463   2.117   3.210   0.290
 2148SOL    HW1 6464   2.021   3.211   0.263
 2148SOL    HW2 6465   2.129   3.263   0.374
 2149SOL     OW 6466   1.967   2.875   1.726
 2149SOL    HW1 6467   1.890   2.842   1.780
 2149SOL    HW2 6468   2.052   2.845   1.768
 2150SOL     OW 6469   2.534   2.065   1.489
 2150SOL    HW1 6470   2.624   2.049   1.449
 2150SOL    HW2 6471   2.542   2.070   1.588
 2151SOL     OW 6472   1.937   2.207   0.033
 2151SOL    HW1 6473   1.845   2.179   0.004
 2151SOL    HW2 6474   1.968   2.284  -0.023
 2152SOL     OW 6475   3.302   2.718   1.398
 2152SOL    HW1 6476   3.245   2.770   1.335
 2152SOL    HW2 6477   3.398   2.730   1.374
 2153SOL     OW 6478   1.934   2.028   0.318
 2153SOL    HW1 6479   1.917   2.111   0.264
 2153SOL    HW2 6480   2.024   1.991   0.296
 2154SOL     OW 6481   3.045   3.197   0.119
 2154SOL    HW1 6482   2.946   3.186   0.121
 2154SOL    HW2 6483   3.079   3.212   0.212
 2155SOL     OW 6484   2.475   2.704   1.431
 2155SOL    HW1 6485   2.531   2.785   1.414
 2155SOL    HW2 6486   2.534   2.624   1.434
 2156SOL     OW 6487   3.355   3.629   0.959
 2156SOL    HW1 6488   3.388   3.693   0.890
 2156SOL    HW2 6489   3.421   3.623   1.034
 2157SOL     OW 6490   2.578   2.427   1.708
 2157SOL    HW1 6491   2.597   2.492   1.782
 2157SOL    HW2 6492   2.638   2.347   1.717
 2158SOL     OW 6493   3.312   3.082   1.633
 2158SOL    HW1 6494   3.303   3.072   1.732
 2158SOL    HW2 6495   3.408   3.075   1.607
 2159SOL     OW 6496   2.252   3.603   1.560
 2159SOL    HW1 6497   2.161   3.644   1.558
 2159SOL    HW2 6498   2.245   3.509   1.592
 2160SOL     OW 6499   3.536   2.745   1.254
 2160SOL    HW1 6500   3.509   2.656   1.217
 2160SOL    HW2 6501   3.537   2.813   1.181
 2161SOL     OW 6502   3.087   2.187   0.449
 2161SOL    HW1 6503   3.152   2.113   0.438
 2161SOL    HW2 6504   3.107   2.237   0.533
 2162SOL     OW 6505   2.456   2.607   0.652
 2162SOL    HW1 6506   2.506   2.692   0.633
 2162SOL    HW2 6507   2.368   2.609   0.604
 2163SOL     OW 6508   3.639   2.204   1.642
 2163SOL    HW1 6509   3.622   2.235   1.548
 2163SOL    HW2 6510   3.555   2.167   1.680
 2164SOL     OW 6511   3.592   2.796   1.517
 2164SOL    HW1 6512   3.630   2.887   1.532
 2164SOL    HW2 6513   3.584   2.779   1.418
 2165SOL     OW 6514   2.721   3.236   0.016
 2165SOL    HW1 6515   2.675   3.251   0.104
 2165SOL    HW2 6516   2.765   3.321  -0.014
 2166SOL     OW 6517   2.523   3.652   0.953
 2166SOL    HW1 6518   2.477   3.740   0.940
 2166SOL    HW2 6519   2.622   3.664   0.946
 2167SOL     OW 6520   2.721   2.818   0.861
 2167SOL    HW1 6521   2.775   2.749   0.909
 2167SOL    HW2 6522   2.689   2.887   0.927
 2168SOL     OW 6523   2.945   2.846   0.087
 2168SOL    HW1 6524   2.922   2.899   0.005
 2168SOL    HW2 6525   3.026   2.790   0.068
 2169SOL     OW 6526   3.723   3.431   0.851
 2169SOL    HW1 6527   3.652   3.419   0.781
 2169SOL    HW2 6528   3.724   3.352   0.911
 2170SOL     OW 6529   2.083   3.176   1.844
 2170SOL    HW1 6530   2.018   3.103   1.823
 2170SOL    HW2 6531   2.087   3.190   1.942
 2171SOL     OW 6532   1.941   3.102   0.653
 2171SOL    HW1 6533   1.940   3.055   0.741
 2171SOL    HW2 6534   2.023   3.074   0.602
 2172SOL     OW 6535   2.534   3.253   1.624
 2172SOL    HW1 6536   2.456   3.203   1.662
 2172SOL    HW2 6537   2.531   3.348   1.655
 2173SOL     OW 6538   3.686   2.054   1.227
 2173SOL    HW1 6539   3.682   1.964   1.271
 2173SOL    HW2 6540   3.689   2.043   1.128
 2174SOL     OW 6541   2.290   2.286   0.520
 2174SOL    HW1 6542   2.320   2.214   0.458
 2174SOL    HW2 6543   2.251   2.246   0.603
 2175SOL     OW 6544   3.567   3.349   1.104
 2175SOL    HW1 6545   3.474   3.324   1.077
 2175SOL    HW2 6546   3.593   3.299   1.186
 2176SOL     OW 6547   2.179   2.409   1.280
 2176SOL    HW1 6548   2.217   2.350   1.352
 2176SOL    HW2 6549   2.219   2.383   1.192
 2177SOL     OW 6550   2.674   3.448   0.687
 2177SOL    HW1 6551   2.706   3.458   0.593
 2177SOL    HW2 6552   2.595   3.386   0.689
 2178SOL     OW 6553   3.286   2.076   1.112
 2178SOL    HW1 6554   3.338   2.011   1.167
 2178SOL    HW2 6555   3.237   2.139   1.173
 2179SOL     OW 6556   2.863   1.896   1.154
 2179SOL    HW1 6557   2.800   1.824   1.123
 2179SOL    HW2 6558   2.956   1.860   1.154
 2180SOL     OW 6559   2.632   3.192   0.301
 2180SOL    HW1 6560   2.586   3.105   0.318
 2180SOL    HW2 6561   2.723   3.189   0.342
 2181SOL     OW 6562   2.480   3.429   1.284
 2181SOL    HW1 6563   2.475   3.511   1.341
 2181SOL    HW2 6564   2.569   3.426   1.239
 2182SOL     OW 6565   3.214   1.914   0.168
 2182SOL    HW1 6566   3.249   1.873   0.084
 2182SOL    HW2 6567   3.124   1.876   0.188
 2183SOL     OW 6568   3.162   2.315   0.691
 2183SOL    HW1 6569   3.103   2.395   0.695
 2183SOL    HW2 6570   3.177   2.280   0.784
 2184SOL     OW 6571   3.455   2.083   0.882
 2184SOL    HW1 6572   3.371   2.082   0.936
 2184SOL    HW2 6573   3.457   2.166   0.826
 2185SOL     OW 6574   1.901   2.939   0.300
 2185SOL    HW1 6575   2.000   2.928   0.291
 2185SOL    HW2 6576   1.861   2.853   0.332
 2186SOL     OW 6577   2.737   3.508   0.337
 2186SOL    HW1 6578   2.660   3.473   0.283
 2186SOL    HW2 6579   2.705   3.579   0.399
 2187SOL     OW 6580   2.092   2.490   1.975
 2187SOL    HW1 6581   1.999   2.488   2.012
 2187SOL    HW2 6582   2.093   2.451   1.883
 2188SOL     OW 6583   2.087   2.137   2.858
 2188SOL    HW1 6584   2.122   2.120   2.950
 2188SOL    HW2 6585   1.999   2.092   2.846
 2189SOL     OW 6586   1.881   2.230   2.509
 2189SOL    HW1 6587   1.799   2.273   2.548
 2189SOL    HW2 6588   1.853   2.157   2.446
 2190SOL     OW 6589   2.431   3.137   3.027
 2190SOL    HW1 6590   2.338   3.130   2.990
 2190SOL    HW2 6591   2.442   3.226   3.071
 2191SOL     OW 6592   3.417   3.373   2.565
 2191SOL    HW1 6593   3.360   3.357   2.646
 2191SOL    HW2 6594   3.358   3.383   2.485
 2192SOL     OW 6595   2.997   2.565   2.579
 2192SOL    HW1 6596   3.054   2.643   2.554
 2192SOL    HW2 6597   2.937   2.591   2.655
 2193SOL     OW 6598   3.617   2.469   2.093
 2193SOL    HW1 6599   3.605   2.456   1.994
 2193SOL    HW2 6600   3.587   2.388   2.142
 2194SOL     OW 6601   2.630   3.006   2.885
 2194SOL    HW1 6602   2.552   3.023   2.945
 2194SOL    HW2 6603   2.664   3.093   2.849
 2195SOL     OW 6604   2.712   2.660   3.685
 2195SOL    HW1 6605   2.708   2.736   3.750
 2195SOL    HW2 6606   2.734   2.696   3.594
 2196SOL     OW 6607   2.547   2.874   2.527
 2196SOL    HW1 6608   2.616   2.858   2.597
 2196SOL    HW2 6609   2.474   2.931   2.565
 2197SOL     OW 6610   2.548   3.023   3.665
 2197SOL    HW1 6611   2.608   3.102   3.679
 2197SOL    HW2 6612   2.462   3.054   3.624
 2198SOL     OW 6613   2.197   3.297   2.923
 2198SOL    HW1 6614   2.119   3.266   2.870
 2198SOL    HW2 6615   2.255   3.355   2.866
 2199SOL     OW 6616   3.322   3.367   3.201
 2199SOL    HW1 6617   3.346   3.461   3.227
 2199SOL    HW2 6618   3.306   3.313   3.283
 2200SOL     OW 6619   2.300   2.254   3.361
 2200SOL    HW1 6620   2.382   2.198   3.370
 2200SOL    HW2 6621   2.219   2.196   3.365
 2201SOL     OW 6622   3.465   2.309   2.599
 2201SOL    HW1 6623   3.391   2.355   2.549
 2201SOL    HW2 6624   3.516   2.377   2.652
 2202SOL     OW 6625   2.093   3.575   2.345
 2202SOL    HW1 6626   2.127   3.652   2.399
 2202SOL    HW2 6627   2.137   3.575   2.255
 2203SOL     OW 6628   2.989   3.203   3.552
 2203SOL    HW1 6629   3.036   3.203   3.640
 2203SOL    HW2 6630   2.941   3.116   3.541
 2204SOL     OW 6631   2.092   3.296   2.400
 2204SOL    HW1 6632   2.066   3.392   2.400
 2204SOL    HW2 6633   2.021   3.242   2.445
 2205SOL     OW 6634   2.102   2.953   2.748
 2205SOL    HW1 6635   2.116   2.869   2.800
 2205SOL    HW2 6636   2.047   3.017   2.803
 2206SOL     OW 6637   2.482   3.648   3.301
 2206SOL    HW1 6638   2.390   3.631   3.336
 2206SOL    HW2 6639   2.510   3.740   3.327
 2207SOL     OW 6640   2.468   2.826   1.985
 2207SOL    HW1 6641   2.475   2.910   1.931
 2207SOL    HW2 6642   2.514   2.839   2.073
 2208SOL     OW 6643   3.456   1.976   3.342
 2208SOL    HW1 6644   3.438   2.043   3.270
 2208SOL    HW2 6645   3.453   2.022   3.431
 2209SOL     OW 6646   1.984   2.505   2.425
 2209SOL    HW1 6647   1.939   2.417   2.442
 2209SOL    HW2 6648   1.983   2.559   2.509
 2210SOL     OW 6649   3.704   3.629   2.221
 2210SOL    HW1 6650   3.758   3.600   2.301
 2210SOL    HW2 6651   3.734   3.719   2.192
 2211SOL     OW 6652   1.889   3.458   1.979
 2211SOL    HW1 6653   1.870   3.362   2.000
 2211SOL    HW2 6654   1.856   3.516   2.054
 2212SOL     OW 6655   3.551   2.784   2.474
 2212SOL    HW1 6656   3.646   2.755   2.482
 2212SOL    HW2 6657   3.543   2.849   2.399
 2213SOL     OW 6658   3.503   2.970   2.294
 2213SOL    HW1 6659   3.589   2.972   2.242
 2213SOL    HW2 6660   3.517   3.017   2.382
 2214SOL     OW 6661   1.975   2.599   3.459
 2214SOL    HW1 6662   2.063   2.586   3.504
 2214SOL    HW2 6663   1.962   2.696   3.437
 2215SOL     OW 6664   2.475   3.227   2.588
 2215SOL    HW1 6665   2.426   3.140   2.597
 2215SOL    HW2 6666   2.452   3.270   2.501
 2216SOL     OW 6667   3.155   3.090   3.285
 2216SOL    HW1 6668   3.192   3.017   3.227
 2216SOL    HW2 6669   3.207   3.095   3.370
 2217SOL     OW 6670   2.671   1.866   2.364
 2217SOL    HW1 6671   2.711   1.957   2.355
 2217SOL    HW2 6672   2.571   1.874   2.370
 2218SOL     OW 6673   2.059   2.838   3.126
 2218SOL    HW1 6674   2.148   2.793   3.112
 2218SOL    HW2 6675   1.986   2.773   3.107
 2219SOL     OW 6676   3.387   2.861   2.052
 2219SOL    HW1 6677   3.324   2.785   2.065
 2219SOL    HW2 6678   3.435   2.879   2.138
 2220SOL     OW 6679   3.049   3.654   3.478
 2220SOL    HW1 6680   3.073   3.714   3.402
 2220SOL    HW2 6681   3.056   3.559   3.448
 2221SOL     OW 6682   2.179   2.113   3.663
 2221SOL    HW1 6683   2.250   2.184   3.669
 2221SOL    HW2 6684   2.091   2.152   3.691
 2222SOL     OW 6685   3.328   3.279   2.815
 2222SOL    HW1 6686   3.269   3.285   2.895
 2222SOL    HW2 6687   3.313   3.191   2.769
 2223SOL     OW 6688   3.529   3.576   2.434
 2223SOL    HW1 6689   3.488   3.553   2.346
 2223SOL    HW2 6690   3.511   3.502   2.499
 2224SOL     OW 6691   3.143   2.207   2.806
 2224SOL    HW1 6692   3.057   2.157   2.793
 2224SOL    HW2 6693   3.205   2.153   2.862
 2225SOL     OW 6694   3.438   3.524   2.169
 2225SOL    HW1 6695   3.527   3.570   2.172
 2225SOL    HW2 6696   3.417   3.500   2.074
 2226SOL     OW 6697   2.669   2.467   3.327
 2226SOL    HW1 6698   2.622   2.464   3.416
 2226SOL    HW2 6699   2.618   2.412   3.261
 2227SOL     OW 6700   3.256   2.331   3.536
 2227SOL    HW1 6701   3.236   2.374   3.624
 2227SOL    HW2 6702   3.334   2.269   3.545
 2228SOL     OW 6703   2.835   2.752   3.434
 2228SOL    HW1 6704   2.881   2.668   3.405
 2228SOL    HW2 6705   2.779   2.786   3.359
 2229SOL     OW 6706   2.853   2.272   3.104
 2229SOL    HW1 6707   2.776   2.306   3.158
 2229SOL    HW2 6708   2.819   2.221   3.025
 2230SOL     OW 6709   2.903   2.563   2.291
 2230SOL    HW1 6710   2.929   2.559   2.387
 2230SOL    HW2 6711   2.818   2.512   2.277
 2231SOL     OW 6712   1.938   2.673   2.651
 2231SOL    HW1 6713   2.037   2.661   2.660
 2231SOL    HW2 6714   1.914   2.768   2.672
 2232SOL     OW 6715   1.992   3.683   3.433
 2232SOL    HW1 6716   1.982   3.668   3.532
 2232SOL    HW2 6717   1.906   3.719   3.397
 2233SOL     OW 6718   2.727   2.210   2.057
 2233SOL    HW1 6719   2.786   2.273   2.008
 2233SOL    HW2 6720   2.746   2.116   2.028
 2234SOL     OW 6721   3.581   2.447   3.693
 2234SOL    HW1 6722   3.555   2.536   3.657
 2234SOL    HW2 6723   3.579   2.379   3.620
 2235SOL     OW 6724   3.224   3.006   2.407
 2235SOL    HW1 6725   3.307   2.977   2.359
 2235SOL    HW2 6726   3.175   3.073   2.351
 2236SOL     OW 6727   2.870   3.318   2.339
 2236SOL    HW1 6728   2.824   3.390   2.287
 2236SOL    HW2 6729   2.866   3.338   2.437
 2237SOL     OW 6730   2.213   3.663   2.715
 2237SOL    HW1 6731   2.263   3.577   2.721
 2237SOL    HW2 6732   2.278   3.740   2.712
 2238SOL     OW 6733   3.657   2.928   2.735
 2238SOL    HW1 6734   3.595   2.913   2.659
 2238SOL    HW2 6735   3.605   2.939   2.820
 2239SOL     OW 6736   3.089   3.412   3.368
 2239SOL    HW1 6737   3.095   3.335   3.432
 2239SOL    HW2 6738   3.037   3.386   3.288
 2240SOL     OW 6739   2.183   2.805   2.104
 2240SOL    HW1 6740   2.265   2.844   2.062
 2240SOL    HW2 6741   2.156   2.723   2.055
 2241SOL     OW 6742   3.320   2.597   2.590
 2241SOL    HW1 6743   3.315   2.532   2.665
 2241SOL    HW2 6744   3.400   2.656   2.603
 2242SOL     OW 6745   2.323   3.128   3.589
 2242SOL    HW1 6746   2.273   3.129   3.503
 2242SOL    HW2 6747   2.260   3.110   3.665
 2243SOL     OW 6748   2.973   3.638   2.099
 2243SOL    HW1 6749   2.913   3.576   2.149
 2243SOL    HW2 6750   3.004   3.594   2.014
 2244SOL     OW 6751   2.064   2.147   3.360
 2244SOL    HW1 6752   1.984   2.207   3.347
 2244SOL    HW2 6753   2.054   2.098   3.446
 2245SOL     OW 6754   3.494   3.239   1.943
 2245SOL    HW1 6755   3.462   3.333   1.933
 2245SOL    HW2 6756   3.418   3.176   1.931
 2246SOL     OW 6757   2.326   3.605   2.185
 2246SOL    HW1 6758   2.359   3.644   2.271
 2246SOL    HW2 6759   2.402   3.598   2.120
 2247SOL     OW 6760   3.262   1.969   2.288
 2247SOL    HW1 6761   3.238   1.932   2.198
 2247SOL    HW2 6762   3.361   1.985   2.292
 2248SOL     OW 6763   2.111   3.647   3.103
 2248SOL    HW1 6764   2.168   3.582   3.153
 2248SOL    HW2 6765   2.095   3.614   3.010
 2249SOL     OW 6766   2.802   3.560   2.766
 2249SOL    HW1 6767   2.882   3.503   2.787
 2249SOL    HW2 6768   2.753   3.520   2.689
 2250SOL     OW 6769   3.409   2.084   3.591
 2250SOL    HW1 6770   3.404   2.121   3.683
 2250SOL    HW2 6771   3.337   2.015   3.579
 2251SOL     OW 6772   2.476   1.984   1.979
 2251SOL    HW1 6773   2.574   1.962   1.986
 2251SOL    HW2 6774   2.445   1.967   1.886
 2252SOL     OW 6775   2.643   2.126   3.611
 2252SOL    HW1 6776   2.710   2.065   3.654
 2252SOL    HW2 6777   2.570   2.145   3.676
 2253SOL     OW 6778   2.750   3.376   3.057
 2253SOL    HW1 6779   2.727   3.351   2.963
 2253SOL    HW2 6780   2.811   3.307   3.096
 2254SOL     OW 6781   3.213   2.452   3.295
 2254SOL    HW1 6782   3.241   2.409   3.380
 2254SOL    HW2 6783   3.238   2.548   3.296
 2255SOL     OW 6784   2.665   3.264   2.786
 2255SOL    HW1 6785   2.755   3.278   2.744
 2255SOL    HW2 6786   2.594   3.266   2.715
 2256SOL     OW 6787   2.784   2.365   2.761
 2256SOL    HW1 6788   2.759   2.356   2.665
 2256SOL    HW2 6789   2.832   2.283   2.792
 2257SOL     OW 6790   2.401   1.926   2.374
 2257SOL    HW1 6791   2.320   1.927   2.432
 2257SOL    HW2 6792   2.404   2.009   2.319
 2258SOL     OW 6793   3.296   3.050   1.903
 2258SOL    HW1 6794   3.328   2.974   1.960
 2258SOL    HW2 6795   3.204   3.077   1.933
 2259SOL     OW 6796   2.159   1.897   2.033
 2259SOL    HW1 6797   2.208   1.981   2.012
 2259SOL    HW2 6798   2.221   1.832   2.078
 2260SOL     OW 6799   2.797   2.098   2.342
 2260SOL    HW1 6800   2.749   2.139   2.264
 2260SOL    HW2 6801   2.896   2.096   2.323
 2261SOL     OW 6802   2.938   2.545   3.326
 2261SOL    HW1 6803   2.858   2.484   3.329
 2261SOL    HW2 6804   3.019   2.492   3.302
 2262SOL     OW 6805   3.089   3.432   2.655
 2262SOL    HW1 6806   3.110   3.506   2.590
 2262SOL    HW2 6807   3.157   3.432   2.728
 2263SOL     OW 6808   2.321   3.014   2.603
 2263SOL    HW1 6809   2.250   2.987   2.668
 2263SOL    HW2 6810   2.295   2.986   2.510
 2264SOL     OW 6811   3.133   3.659   2.453
 2264SOL    HW1 6812   3.177   3.723   2.389
 2264SOL    HW2 6813   3.083   3.711   2.523
 2265SOL     OW 6814   2.894   2.411   1.878
 2265SOL    HW1 6815   2.853   2.493   1.839
 2265SOL    HW2 6816   2.958   2.437   1.951
 2266SOL     OW 6817   1.940   2.418   3.248
 2266SOL    HW1 6818   2.032   2.417   3.207
 2266SOL    HW2 6819   1.934   2.492   3.315
 2267SOL     OW 6820   2.423   2.084   3.009
 2267SOL    HW1 6821   2.461   2.000   3.046
 2267SOL    HW2 6822   2.335   2.103   3.053
 2268SOL     OW 6823   2.728   2.316   2.504
 2268SOL    HW1 6824   2.696   2.388   2.442
 2268SOL    HW2 6825   2.752   2.235   2.451
 2269SOL     OW 6826   2.879   1.901   2.615
 2269SOL    HW1 6827   2.807   1.906   2.546
 2269SOL    HW2 6828   2.855   1.832   2.684
 2270SOL     OW 6829   3.291   3.035   2.729
 2270SOL    HW1 6830   3.236   2.951   2.722
 2270SOL    HW2 6831   3.317   3.064   2.637
 2271SOL     OW 6832   3.328   2.452   2.854
 2271SOL    HW1 6833   3.298   2.357   2.861
 2271SOL    HW2 6834   3.401   2.468   2.920
 2272SOL     OW 6835   3.719   2.695   2.239
 2272SOL    HW1 6836   3.761   2.631   2.303
 2272SOL    HW2 6837   3.681   2.644   2.161
 2273SOL     OW 6838   2.350   3.247   2.036
 2273SOL    HW1 6839   2.263   3.232   2.083
 2273SOL    HW2 6840   2.333   3.273   1.941
 2274SOL     OW 6841   3.526   3.142   2.519
 2274SOL    HW1 6842   3.625   3.150   2.533
 2274SOL    HW2 6843   3.481   3.226   2.550
 2275SOL     OW 6844   3.252   2.437   1.940
 2275SOL    HW1 6845   3.198   2.416   2.021
 2275SOL    HW2 6846   3.343   2.396   1.949
 2276SOL     OW 6847   3.616   3.085   3.450
 2276SOL    HW1 6848   3.707   3.046   3.437
 2276SOL    HW2 6849   3.624   3.181   3.474
 2277SOL     OW 6850   2.926   3.209   3.202
 2277SOL    HW1 6851   2.846   3.186   3.257
 2277SOL    HW2 6852   3.009   3.183   3.251
 2278SOL     OW 6853   3.454   3.491   3.487
 2278SOL    HW1 6854   3.481   3.525   3.397
 2278SOL    HW2 6855   3.533   3.453   3.533
 2279SOL     OW 6856   2.973   3.057   2.962
 2279SOL    HW1 6857   2.933   3.101   3.043
 2279SOL    HW2 6858   2.932   3.094   2.879
 2280SOL     OW 6859   3.500   2.961   2.941
 2280SOL    HW1 6860   3.505   3.042   3.000
 2280SOL    HW2 6861   3.414   2.963   2.890
 2281SOL     OW 6862   2.777   1.951   3.264
 2281SOL    HW1 6863   2.802   1.931   3.169
 2281SOL    HW2 6864   2.849   2.007   3.306
 2282SOL     OW 6865   2.842   2.978   3.581
 2282SOL    HW1 6866   2.743   2.984   3.591
 2282SOL    HW2 6867   2.865   2.898   3.525
 2283SOL     OW 6868   2.567   2.912   2.230
 2283SOL    HW1 6869   2.553   2.919   2.329
 2283SOL    HW2 6870   2.651   2.861   2.212
 2284SOL     OW 6871   2.272   2.675   3.113
 2284SOL    HW1 6872   2.358   2.687   3.163
 2284SOL    HW2 6873   2.230   2.588   3.140
 2285SOL     OW 6874   3.136   2.248   3.124
 2285SOL    HW1 6875   3.157   2.322   3.188
 2285SOL    HW2 6876   3.047   2.265   3.081
 2286SOL     OW 6877   1.926   3.426   3.193
 2286SOL    HW1 6878   1.880   3.508   3.159
 2286SOL    HW2 6879   2.024   3.445   3.202
 2287SOL     OW 6880   2.229   2.962   2.363
 2287SOL    HW1 6881   2.222   3.045   2.307
 2287SOL    HW2 6882   2.233   2.882   2.303
 2288SOL     OW 6883   3.114   3.210   2.250
 2288SOL    HW1 6884   3.164   3.287   2.290
 2288SOL    HW2 6885   3.019   3.212   2.282
 2289SOL     OW 6886   3.134   3.307   3.004
 2289SOL    HW1 6887   3.181   3.320   3.091
 2289SOL    HW2 6888   3.068   3.233   3.013
 2290SOL     OW 6889   3.444   2.501   2.334
 2290SOL    HW1 6890   3.413   2.562   2.407
 2290SOL    HW2 6891   3.494   2.553   2.265
 2291SOL     OW 6892   2.216   3.372   3.191
 2291SOL    HW1 6893   2.195   3.328   3.104
 2291SOL    HW2 6894   2.313   3.398   3.194
 2292SOL     OW 6895   2.264   2.613   3.460
 2292SOL    HW1 6896   2.332   2.668   3.413
 2292SOL    HW2 6897   2.304   2.525   3.487
 2293SOL     OW 6898   3.449   2.641   3.532
 2293SOL    HW1 6899   3.357   2.679   3.527
 2293SOL    HW2 6900   3.509   2.688   3.467
 2294SOL     OW 6901   2.875   1.967   3.632
 2294SOL    HW1 6902   2.881   2.052   3.580
 2294SOL    HW2 6903   2.907   1.891   3.575
 2295SOL     OW 6904   2.366   1.912   3.602
 2295SOL    HW1 6905   2.324   1.855   3.532
 2295SOL    HW2 6906   2.300   1.981   3.634
 2296SOL     OW 6907   2.435   2.732   2.891
 2296SOL    HW1 6908   2.479   2.821   2.882
 2296SOL    HW2 6909   2.372   2.732   2.968
 2297SOL     OW 6910   3.222   2.724   2.907
 2297SOL    HW1 6911   3.147   2.724   2.841
 2297SOL    HW2 6912   3.259   2.632   2.916
 2298SOL     OW 6913   3.071   2.387   2.137
 2298SOL    HW1 6914   3.084   2.303   2.191
 2298SOL    HW2 6915   3.042   2.461   2.197
 2299SOL     OW 6916   2.169   2.075   3.093
 2299SOL    HW1 6917   2.146   2.112   3.183
 2299SOL    HW2 6918   2.139   1.980   3.087
 2300SOL     OW 6919   1.899   3.172   3.144
 2300SOL    HW1 6920   1.952   3.123   3.212
 2300SOL    HW2 6921   1.921   3.270   3.149
 2301SOL     OW 6922   3.590   2.797   3.716
 2301SOL    HW1 6923   3.544   2.790   3.627
 2301SOL    HW2 6924   3.528   2.841   3.782
 2302SOL     OW 6925   2.169   1.925   2.480
 2302SOL    HW1 6926   2.158   2.019   2.513
 2302SOL    HW2 6927   2.164   1.862   2.557
 2303SOL     OW 6928   3.484   2.229   2.236
 2303SOL    HW1 6929   3.486   2.153   2.300
 2303SOL    HW2 6930   3.436   2.306   2.276
 2304SOL     OW 6931   2.885   2.628   2.828
 2304SOL    HW1 6932   2.900   2.649   2.924
 2304SOL    HW2 6933   2.855   2.533   2.819
 2305SOL     OW 6934   2.842   3.435   3.562
 2305SOL    HW1 6935   2.822   3.479   3.474
 2305SOL    HW2 6936   2.881   3.344   3.546
 2306SOL     OW 6937   3.721   3.380   3.467
 2306SOL    HW1 6938   3.735   3.407   3.372
 2306SOL    HW2 6939   3.804   3.402   3.520
 2307SOL     OW 6940   2.212   2.760   3.666
 2307SOL    HW1 6941   2.288   2.804   3.714
 2307SOL    HW2 6942   2.247   2.713   3.584
 2308SOL     OW 6943   3.402   2.136   1.987
 2308SOL    HW1 6944   3.341   2.061   2.010
 2308SOL    HW2 6945   3.424   2.188   2.070
 2309SOL     OW 6946   3.165   2.700   1.904
 2309SOL    HW1 6947   3.199   2.607   1.919
 2309SOL    HW2 6948   3.183   2.727   1.809
 2310SOL     OW 6949   2.930   3.195   2.711
 2310SOL    HW1 6950   2.937   3.111   2.656
 2310SOL    HW2 6951   2.992   3.264   2.675
 2311SOL     OW 6952   2.181   2.672   2.811
 2311SOL    HW1 6953   2.274   2.708   2.816
 2311SOL    HW2 6954   2.175   2.587   2.863
 2312SOL     OW 6955   3.000   2.242   3.540
 2312SOL    HW1 6956   2.955   2.305   3.604
 2312SOL    HW2 6957   3.093   2.273   3.523
 2313SOL     OW 6958   3.022   2.069   3.339
 2313SOL    HW1 6959   3.022   2.133   3.416
 2313SOL    HW2 6960   3.050   2.117   3.256
 2314SOL     OW 6961   1.870   3.188   2.062
 2314SOL    HW1 6962   1.777   3.209   2.031
 2314SOL    HW2 6963   1.880   3.089   2.075
 2315SOL     OW 6964   1.950   3.663   2.789
 2315SOL    HW1 6965   1.908   3.577   2.762
 2315SOL    HW2 6966   2.044   3.666   2.755
 2316SOL     OW 6967   2.366   3.430   2.772
 2316SOL    HW1 6968   2.432   3.504   2.781
 2316SOL    HW2 6969   2.410   3.351   2.730
 2317SOL     OW 6970   2.864   2.658   3.100
 2317SOL    HW1 6971   2.905   2.626   3.186
 2317SOL    HW2 6972   2.768   2.631   3.097
 2318SOL     OW 6973   1.902   2.406   2.976
 2318SOL    HW1 6974   1.987   2.373   2.935
 2318SOL    HW2 6975   1.915   2.421   3.074
 2319SOL     OW 6976   2.051   2.382   3.584
 2319SOL    HW1 6977   2.110   2.342   3.514
 2319SOL    HW2 6978   1.993   2.453   3.543
 2320SOL     OW 6979   3.231   2.812   3.522
 2320SOL    HW1 6980   3.270   2.901   3.542
 2320SOL    HW2 6981   3.241   2.792   3.425
 2321SOL     OW 6982   2.677   2.434   2.187
 2321SOL    HW1 6983   2.684   2.345   2.141
 2321SOL    HW2 6984   2.583   2.468   2.179
 2322SOL     OW 6985   3.519   2.466   3.068
 2322SOL    HW1 6986   3.481   2.397   3.130
 2322SOL    HW2 6987   3.601   2.430   3.024
 2323SOL     OW 6988   2.114   3.426   3.606
 2323SOL    HW1 6989   2.084   3.483   3.682
 2323SOL    HW2 6990   2.107   3.329   3.632
 2324SOL     OW 6991   2.533   2.326   3.131
 2324SOL    HW1 6992   2.499   2.237   3.101
 2324SOL    HW2 6993   2.559   2.380   3.051
 2325SOL     OW 6994   2.792   3.540   3.327
 2325SOL    HW1 6995   2.768   3.522   3.232
 2325SOL    HW2 6996   2.822   3.634   3.337
 2326SOL     OW 6997   2.021   2.999   3.328
 2326SOL    HW1 6998   2.043   2.938   3.404
 2326SOL    HW2 6999   2.031   2.950   3.242
 2327SOL     OW 7000   3.209   2.921   3.096
 2327SOL    HW1 7001   3.233   2.858   3.022
 2327SOL    HW2 7002   3.119   2.961   3.078
 2328SOL     OW 7003   3.164   2.717   2.171
 2328SOL    HW1 7004   3.078   2.686   2.213
 2328SOL    HW2 7005   3.160   2.703   2.072
 2329SOL     OW 7006   3.621   3.609   3.016
 2329SOL    HW1 7007   3.682   3.639   2.943
 2329SOL    HW2 7008   3.583   3.520   2.994
 2330SOL     OW 7009   3.114   3.593   2.990
 2330SOL    HW1 7010   3.198   3.598   2.936
 2330SOL    HW2 7011   3.091   3.497   3.008
 2331SOL     OW 7012   1.945   3.120   2.884
 2331SOL    HW1 7013   1.940   3.119   2.984
 2331SOL    HW2 7014   1.862   3.079   2.846
 2332SOL     OW 7015   2.550   3.524   3.578
 2332SOL    HW1 7016   2.494   3.605   3.587
 2332SOL    HW2 7017   2.602   3.528   3.492
 2333SOL     OW 7018   3.588   1.997   2.385
 2333SOL    HW1 7019   3.661   1.980   2.318
 2333SOL    HW2 7020   3.557   1.910   2.423
 2334SOL     OW 7021   3.250   3.435   2.339
 2334SOL    HW1 7022   3.317   3.447   2.265
 2334SOL    HW2 7023   3.210   3.524   2.362
 2335SOL     OW 7024   1.992   3.656   3.713
 2335SOL    HW1 7025   1.951   3.582   3.766
 2335SOL    HW2 7026   2.056   3.707   3.771
 2336SOL     OW 7027   3.142   2.789   2.534
 2336SOL    HW1 7028   3.202   2.708   2.536
 2336SOL    HW2 7029   3.182   2.858   2.474
 2337SOL     OW 7030   2.692   3.135   3.284
 2337SOL    HW1 7031   2.687   3.168   3.379
 2337SOL    HW2 7032   2.606   3.154   3.238
 2338SOL     OW 7033   2.534   3.478   2.016
 2338SOL    HW1 7034   2.543   3.488   1.917
 2338SOL    HW2 7035   2.494   3.389   2.037
 2339SOL     OW 7036   3.512   3.582   3.256
 2339SOL    HW1 7037   3.565   3.592   3.172
 2339SOL    HW2 7038   3.485   3.672   3.290
 2340SOL     OW 7039   3.703   2.037   2.825
 2340SOL    HW1 7040   3.742   1.952   2.789
 2340SOL    HW2 7041   3.605   2.039   2.806
 2341SOL     OW 7042   2.125   2.188   2.582
 2341SOL    HW1 7043   2.046   2.239   2.548
 2341SOL    HW2 7044   2.116   2.173   2.680
 2342SOL     OW 7045   3.056   3.474   1.893
 2342SOL    HW1 7046   3.062   3.381   1.930
 2342SOL    HW2 7047   2.997   3.474   1.813
 2343SOL     OW 7048   2.684   2.864   3.234
 2343SOL    HW1 7049   2.724   2.863   3.142
 2343SOL    HW2 7050   2.694   2.956   3.274
 2344SOL     OW 7051   2.778   2.772   2.153
 2344SOL    HW1 7052   2.841   2.810   2.085
 2344SOL    HW2 7053   2.818   2.689   2.192
 2345SOL     OW 7054   3.366   3.469   1.906
 2345SOL    HW1 7055   3.274   3.506   1.913
 2345SOL    HW2 7056   3.404   3.489   1.816
 2346SOL     OW 7057   2.234   3.150   3.352
 2346SOL    HW1 7058   2.221   3.243   3.318
 2346SOL    HW2 7059   2.150   3.098   3.339
 2347SOL     OW 7060   3.476   3.154   3.151
 2347SOL    HW1 7061   3.536   3.157   3.231
 2347SOL    HW2 7062   3.401   3.218   3.164
 2348SOL     OW 7063   2.901   2.960   2.558
 2348SOL    HW1 7064   2.831   2.913   2.612
 2348SOL    HW2 7065   2.960   2.892   2.515
 2349SOL     OW 7066   2.876   2.098   2.833
 2349SOL    HW1 7067   2.868   2.062   2.740
 2349SOL    HW2 7068   2.874   2.022   2.898
 2350SOL     OW 7069   2.452   3.349   2.353
 2350SOL    HW1 7070   2.494   3.291   2.283
 2350SOL    HW2 7071   2.408   3.428   2.309
 2351SOL     OW 7072   3.571   2.247   3.243
 2351SOL    HW1 7073   3.644   2.316   3.247
 2351SOL    HW2 7074   3.599   2.172   3.184
 2352SOL     OW 7075   2.117   3.210   2.152
 2352SOL    HW1 7076   2.021   3.211   2.125
 2352SOL    HW2 7077   2.129   3.263   2.236
 2353SOL     OW 7078   1.967   2.875   3.588
 2353SOL    HW1 7079   1.890   2.842   3.642
 2353SOL    HW2 7080   2.052   2.845   3.630
 2354SOL     OW 7081   2.534   2.065   3.351
 2354SOL    HW1 7082   2.624   2.049   3.311
 2354SOL    HW2 7083   2.542   2.070   3.450
 2355SOL     OW 7084   1.937   2.207   1.895
 2355SOL    HW1 7085   1.845   2.179   1.866
 2355SOL    HW2 7086   1.968   2.284   1.839
 2356SOL     OW 7087   3.302   2.718   3.260
 2356SOL    HW1 7088   3.245   2.770   3.197
 2356SOL    HW2 7089   3.398   2.730   3.236
 2357SOL     OW 7090   1.934   2.028   2.180
 2357SOL    HW1 7091   1.917   2.111   2.126
 2357SOL    HW2 7092   2.024   1.991   2.158
 2358SOL     OW 7093   3.045   3.197   1.981
 2358SOL    HW1 7094   2.946   3.186   1.983
 2358SOL    HW2 7095   3.079   3.212   2.074
 2359SOL     OW 7096   2.475   2.704   3.293
 2359SOL    HW1 7097   2.531   2.785   3.276
 2359SOL    HW2 7098   2.534   2.624   3.296
 2360SOL     OW 7099   3.355   3.629   2.821
 2360SOL    HW1 7100   3.388   3.693   2.752
 2360SOL    HW2 7101   3.421   3.623   2.896
 2361SOL     OW 7102   2.578   2.427   3.570
 2361SOL    HW1 7103   2.597   2.492   3.644
 2361SOL    HW2 7104   2.638   2.347   3.579
 2362SOL     OW 7105   3.312   3.082   3.495
 2362SOL    HW1 7106   3.303   3.072   3.594
 2362SOL    HW2 7107   3.408   3.075   3.469
 2363SOL     OW 7108   2.252   3.603   3.422
 2363SOL    HW1 7109   2.161   3.644   3.420
 2363SOL    HW2 7110   2.245   3.509   3.454
 2364SOL     OW 7111   3.536   2.745   3.116
 2364SOL    HW1 7112   3.509   2.656   3.079
 2364SOL    HW2 7113   3.537   2.813   3.043
 2365SOL     OW 7114   3.087   2.187   2.311
 2365SOL    HW1 7115   3.152   2.113   2.300
 2365SOL    HW2 7116   3.107   2.237   2.395
 2366SOL     OW 7117   3.639   2.204   3.504
 2366SOL    HW1 7118   3.622   2.235   3.410
 2366SOL    HW2 7119   3.555   2.167   3.542
 2367SOL     OW 7120   3.592   2.796   3.379
 2367SOL    HW1 7121   3.630   2.887   3.394
 2367SOL    HW2 7122   3.584   2.779   3.280
 2368SOL     OW 7123   2.721   3.236   1.878
 2368SOL    HW1 7124   2.675   3.251   1.966
 2368SOL    HW2 7125   2.765   3.321   1.848
 2369SOL     OW 7126   2.523   3.652   2.815
 2369SOL    HW1 7127   2.477   3.740   2.802
 2369SOL    HW2 7128   2.622   3.664   2.808
 2370SOL     OW 7129   2.721   2.818   2.723
 2370SOL    HW1 7130   2.775   2.749   2.771
 2370SOL    HW2 7131   2.689   2.887   2.789
 2371SOL     OW 7132   2.945   2.846   1.949
 2371SOL    HW1 7133   2.922   2.899   1.867
 2371SOL    HW2 7134   3.026   2.790   1.930
 2372SOL     OW 7135   3.723   3.431   2.713
 2372SOL    HW1 7136   3.652   3.419   2.643
 2372SOL    HW2 7137   3.724   3.352   2.773
 2373SOL     OW 7138   2.083   3.176   3.706
 2373SOL    HW1 7139   2.018   3.103   3.685
 2373SOL    HW2 7140   2.087   3.190   3.804
 2374SOL     OW 7141   1.941   3.102   2.515
 2374SOL    HW1 7142   1.940   3.055   2.603
 2374SOL    HW2 7143   2.023   3.074   2.464
 2375SOL     OW 7144   2.534   3.253   3.486
 2375SOL    HW1 7145   2.456   3.203   3.524
 2375SOL    HW2 7146   2.531   3.348   3.517
 2376SOL     OW 7147   3.686   2.054   3.089
 2376SOL    HW1 7148   3.682   1.964   3.133
 2376SOL    HW2 7149   3.689   2.043   2.990
 2377SOL     OW 7150   3.567   3.349   2.966
 2377SOL    HW1 7151   3.474   3.324   2.939
 2377SOL    HW2 7152   3.593   3.299   3.048
 2378SOL     OW 7153   2.179   2.409   3.142
 2378SOL    HW1 7154   2.217   2.350   3.214
 2378SOL    HW2 7155   2.219   2.383   3.054
 2379SOL     OW 7156   2.674   3.448   2.549
 2379SOL    HW1 7157   2.706   3.458   2.455
 2379SOL    HW2 7158   2.595   3.386   2.551
 2380SOL     OW 7159   3.286   2.076   2.974
 2380SOL    HW1 7160   3.338   2.011   3.029
 2380SOL    HW2 7161   3.237   2.139   3.035
 2381SOL     OW 7162   2.863   1.896   3.016
 2381SOL    HW1 7163   2.800   1.824   2.985
 2381SOL    HW2 7164   2.956   1.860   3.016
 2382SOL     OW 7165   2.632   3.192   2.163
 2382SOL    HW1 7166   2.586   3.105   2.180
 2382SOL    HW2 7167   2.723   3.189   2.204
 2383SOL     OW 7168   2.480   3.429   3.146
 2383SOL    HW1 7169   2.475   3.511   3.203
 2383SOL    HW2 7170   2.569   3.426   3.101
 2384SOL     OW 7171   3.214   1.914   2.030
 2384SOL    HW1 7172   3.249   1.873   1.946
 2384SOL    HW2 7173   3.124   1.876   2.050
 2385SOL     OW 7174   3.162   2.315   2.553
 2385SOL    HW1 7175   3.103   2.395   2.557
 2385SOL    HW2 7176   3.177   2.280   2.646
 2386SOL     OW 7177   3.455   2.083   2.744
 2386SOL    HW1 7178   3.371   2.082   2.798
 2386SOL    HW2 7179   3.457   2.166   2.688
 2387SOL     OW 7180   1.901   2.939   2.162
 2387SOL    HW1 7181   2.000   2.928   2.153
 2387SOL    HW2 7182   1.861   2.853   2.194
 2388SOL     OW 7183   2.737   3.508   2.199
 2388SOL    HW1 7184   2.660   3.473   2.145
 2388SOL    HW2 7185   2.705   3.579   2.261
 2389SOL     OW 7186   2.092   2.490   3.837
 2389SOL    HW1 7187   1.999   2.488   3.874
 2389SOL    HW2 7188   2.093   2.451   3.745
 2390SOL     OW 7189   2.087   2.137   4.720
 2390SOL    HW1 7190   2.122   2.120   4.812
 2390SOL    HW2 7191   1.999   2.092   4.708
 2391SOL     OW 7192   1.881   2.230   4.371
 2391SOL    HW1 7193   1.799   2.273   4.410
 2391SOL    HW2 7194   1.853   2.157   4.308
 2392SOL     OW 7195   3.417   3.373   4.427
 2392SOL    HW1 7196   3.360   3.357   4.508
 2392SOL    HW2 7197   3.358   3.383   4.347
 2393SOL     OW 7198   2.997   2.565   4.441
 2393SOL    HW1 7199   3.054   2.643   4.416
 2393SOL    HW2 7200   2.937   2.591   4.517
 2394SOL     OW 7201   3.617   2.469   3.955
 2394SOL    HW1 7202   3.605   2.456   3.856
 2394SOL    HW2 7203   3.587   2.388   4.004
 2395SOL     OW 7204   2.630   3.006   4.747
 2395SOL    HW1 7205   2.552   3.023   4.807
 2395SOL    HW2 7206   2.664   3.093   4.711
 2396SOL     OW 7207   2.547   2.874   4.389
 2396SOL    HW1 7208   2.616   2.858   4.459
 2396SOL    HW2 7209   2.474   2.931   4.427
 2397SOL     OW 7210   2.197   3.297   4.785
 2397SOL    HW1 7211   2.119   3.266   4.732
 2397SOL    HW2 7212   2.255   3.355   4.728
 2398SOL     OW 7213   3.465   2.309   4.461
 2398SOL    HW1 7214   3.391   2.355   4.411
 2398SOL    HW2 7215   3.516   2.377   4.514
 2399SOL     OW 7216   2.093   3.575   4.207
 2399SOL    HW1 7217   2.127   3.652   4.261
 2399SOL    HW2 7218   2.137   3.575   4.117
 2400SOL     OW 7219   2.092   3.296   4.262
 2400SOL    HW1 7220   2.066   3.392   4.262
 2400SOL    HW2 7221   2.021   3.242   4.307
 2401SOL     OW 7222   2.102   2.953   4.610
 2401SOL    HW1 7223   2.116   2.869   4.662
 2401SOL    HW2 7224   2.047   3.017   4.665
 2402SOL     OW 7225   2.468   2.826   3.847
 2402SOL    HW1 7226   2.475   2.910   3.793
 2402SOL    HW2 7227   2.514   2.839   3.935
 2403SOL     OW 7228   1.984   2.505   4.287
 2403SOL    HW1 7229   1.939   2.417   4.304
 2403SOL    HW2 7230   1.983   2.559   4.371
 2404SOL     OW 7231   3.704   3.629   4.083
 2404SOL    HW1 7232   3.758   3.600   4.163
 2404SOL    HW2 7233   3.734   3.719   4.054
 2405SOL     OW 7234   1.889   3.458   3.841
 2405SOL    HW1 7235   1.870   3.362   3.862
 2405SOL    HW2 7236   1.856   3.516   3.916
 2406SOL     OW 7237   3.551   2.784   4.336
 2406SOL    HW1 7238   3.646   2.755   4.344
 2406SOL    HW2 7239   3.543   2.849   4.261
 2407SOL     OW 7240   3.503   2.970   4.156
 2407SOL    HW1 7241   3.589   2.972   4.104
 2407SOL    HW2 7242   3.517   3.017   4.244
 2408SOL     OW 7243   2.475   3.227   4.450
 2408SOL    HW1 7244   2.426   3.140   4.459
 2408SOL    HW2 7245   2.452   3.270   4.363
 2409SOL     OW 7246   2.671   1.866   4.226
 2409SOL    HW1 7247   2.711   1.957   4.217
 2409SOL    HW2 7248   2.571   1.874   4.232
 2410SOL     OW 7249   3.387   2.861   3.914
 2410SOL    HW1 7250   3.324   2.785   3.927
 2410SOL    HW2 7251   3.435   2.879   4.000
 2411SOL     OW 7252   3.328   3.279   4.677
 2411SOL    HW1 7253   3.269   3.285   4.757
 2411SOL    HW2 7254   3.313   3.191   4.631
 2412SOL     OW 7255   3.529   3.576   4.296
 2412SOL    HW1 7256   3.488   3.553   4.208
 2412SOL    HW2 7257   3.511   3.502   4.361
 2413SOL     OW 7258   2.460   2.591   3.994
 2413SOL    HW1 7259   2.484   2.660   3.926
 2413SOL    HW2 7260   2.382   2.624   4.048
 2414SOL     OW 7261   3.143   2.207   4.668
 2414SOL    HW1 7262   3.057   2.157   4.655
 2414SOL    HW2 7263   3.205   2.153   4.724
 2415SOL     OW 7264   3.438   3.524   4.031
 2415SOL    HW1 7265   3.527   3.570   4.034
 2415SOL    HW2 7266   3.417   3.500   3.936
 2416SOL     OW 7267   2.903   2.563   4.153
 2416SOL    HW1 7268   2.929   2.559   4.249
 2416SOL    HW2 7269   2.818   2.512   4.139
 2417SOL     OW 7270   1.938   2.673   4.513
 2417SOL    HW1 7271   2.037   2.661   4.522
 2417SOL    HW2 7272   1.914   2.768   4.534
 2418SOL     OW 7273   2.727   2.210   3.919
 2418SOL    HW1 7274   2.786   2.273   3.870
 2418SOL    HW2 7275   2.746   2.116   3.890
 2419SOL     OW 7276   3.224   3.006   4.269
 2419SOL    HW1 7277   3.307   2.977   4.221
 2419SOL    HW2 7278   3.175   3.073   4.213
 2420SOL     OW 7279   2.412   2.058   4.609
 2420SOL    HW1 7280   2.407   2.053   4.709
 2420SOL    HW2 7281   2.414   2.154   4.580
 2421SOL     OW 7282   2.870   3.318   4.201
 2421SOL    HW1 7283   2.824   3.390   4.149
 2421SOL    HW2 7284   2.866   3.338   4.299
 2422SOL     OW 7285   2.213   3.663   4.577
 2422SOL    HW1 7286   2.263   3.577   4.583
 2422SOL    HW2 7287   2.278   3.740   4.574
 2423SOL     OW 7288   3.657   2.928   4.597
 2423SOL    HW1 7289   3.595   2.913   4.521
 2423SOL    HW2 7290   3.605   2.939   4.682
 2424SOL     OW 7291   2.183   2.805   3.966
 2424SOL    HW1 7292   2.265   2.844   3.924
 2424SOL    HW2 7293   2.156   2.723   3.917
 2425SOL     OW 7294   3.320   2.597   4.452
 2425SOL    HW1 7295   3.315   2.532   4.527
 2425SOL    HW2 7296   3.400   2.656   4.465
 2426SOL     OW 7297   2.973   3.638   3.961
 2426SOL    HW1 7298   2.913   3.576   4.011
 2426SOL    HW2 7299   3.004   3.594   3.876
 2427SOL     OW 7300   3.494   3.239   3.805
 2427SOL    HW1 7301   3.462   3.333   3.795
 2427SOL    HW2 7302   3.418   3.176   3.793
 2428SOL     OW 7303   2.326   3.605   4.047
 2428SOL    HW1 7304   2.359   3.644   4.133
 2428SOL    HW2 7305   2.402   3.598   3.982
 2429SOL     OW 7306   3.262   1.969   4.150
 2429SOL    HW1 7307   3.238   1.932   4.060
 2429SOL    HW2 7308   3.361   1.985   4.154
 2430SOL     OW 7309   2.111   3.647   4.965
 2430SOL    HW1 7310   2.168   3.582   5.015
 2430SOL    HW2 7311   2.095   3.614   4.872
 2431SOL     OW 7312   2.802   3.560   4.628
 2431SOL    HW1 7313   2.882   3.503   4.649
 2431SOL    HW2 7314   2.753   3.520   4.551
 2432SOL     OW 7315   2.244   2.562   4.204
 2432SOL    HW1 7316   2.289   2.472   4.201
 2432SOL    HW2 7317   2.150   2.551   4.237
 2433SOL     OW 7318   2.476   1.984   3.841
 2433SOL    HW1 7319   2.574   1.962   3.848
 2433SOL    HW2 7320   2.445   1.967   3.748
 2434SOL     OW 7321   2.665   3.264   4.648
 2434SOL    HW1 7322   2.755   3.278   4.606
 2434SOL    HW2 7323   2.594   3.266   4.577
 2435SOL     OW 7324   2.784   2.365   4.623
 2435SOL    HW1 7325   2.759   2.356   4.527
 2435SOL    HW2 7326   2.832   2.283   4.654
 2436SOL     OW 7327   2.401   1.926   4.236
 2436SOL    HW1 7328   2.320   1.927   4.294
 2436SOL    HW2 7329   2.404   2.009   4.181
 2437SOL     OW 7330   3.296   3.050   3.765
 2437SOL    HW1 7331   3.328   2.974   3.822
 2437SOL    HW2 7332   3.204   3.077   3.795
 2438SOL     OW 7333   2.159   1.897   3.895
 2438SOL    HW1 7334   2.208   1.981   3.874
 2438SOL    HW2 7335   2.221   1.832   3.940
 2439SOL     OW 7336   2.797   2.098   4.204
 2439SOL    HW1 7337   2.749   2.139   4.126
 2439SOL    HW2 7338   2.896   2.096   4.185
 2440SOL     OW 7339   3.089   3.432   4.517
 2440SOL    HW1 7340   3.110   3.506   4.452
 2440SOL    HW2 7341   3.157   3.432   4.590
 2441SOL     OW 7342   2.321   3.014   4.465
 2441SOL    HW1 7343   2.250   2.987   4.530
 2441SOL    HW2 7344   2.295   2.986   4.372
 2442SOL     OW 7345   3.133   3.659   4.315
 2442SOL    HW1 7346   3.177   3.723   4.251
 2442SOL    HW2 7347   3.083   3.711   4.385
 2443SOL     OW 7348   2.894   2.411   3.740
 2443SOL    HW1 7349   2.853   2.493   3.701
 2443SOL    HW2 7350   2.958   2.437   3.813
 2444SOL     OW 7351   2.728   2.316   4.366
 2444SOL    HW1 7352   2.696   2.388   4.304
 2444SOL    HW2 7353   2.752   2.235   4.313
 2445SOL     OW 7354   2.879   1.901   4.477
 2445SOL    HW1 7355   2.807   1.906   4.408
 2445SOL    HW2 7356   2.855   1.832   4.546
 2446SOL     OW 7357   3.291   3.035   4.591
 2446SOL    HW1 7358   3.236   2.951   4.584
 2446SOL    HW2 7359   3.317   3.064   4.499
 2447SOL     OW 7360   3.328   2.452   4.716
 2447SOL    HW1 7361   3.298   2.357   4.723
 2447SOL    HW2 7362   3.401   2.468   4.782
 2448SOL     OW 7363   3.719   2.695   4.101
 2448SOL    HW1 7364   3.761   2.631   4.165
 2448SOL    HW2 7365   3.681   2.644   4.023
 2449SOL     OW 7366   2.350   3.247   3.898
 2449SOL    HW1 7367   2.263   3.232   3.945
 2449SOL    HW2 7368   2.333   3.273   3.803
 2450SOL     OW 7369   3.526   3.142   4.381
 2450SOL    HW1 7370   3.625   3.150   4.395
 2450SOL    HW2 7371   3.481   3.226   4.412
 2451SOL     OW 7372   3.252   2.437   3.802
 2451SOL    HW1 7373   3.198   2.416   3.883
 2451SOL    HW2 7374   3.343   2.396   3.811
 2452SOL     OW 7375   2.389   2.118   4.052
 2452SOL    HW1 7376   2.416   2.059   3.977
 2452SOL    HW2 7377   2.389   2.213   4.021
 2453SOL     OW 7378   3.500   2.961   4.803
 2453SOL    HW1 7379   3.505   3.042   4.862
 2453SOL    HW2 7380   3.414   2.963   4.752
 2454SOL     OW 7381   2.567   2.912   4.092
 2454SOL    HW1 7382   2.553   2.919   4.191
 2454SOL    HW2 7383   2.651   2.861   4.074
 2455SOL     OW 7384   2.229   2.962   4.225
 2455SOL    HW1 7385   2.222   3.045   4.169
 2455SOL    HW2 7386   2.233   2.882   4.165
 2456SOL     OW 7387   2.428   2.399   4.589
 2456SOL    HW1 7388   2.440   2.465   4.515
 2456SOL    HW2 7389   2.474   2.433   4.672
 2457SOL     OW 7390   3.114   3.210   4.112
 2457SOL    HW1 7391   3.164   3.287   4.152
 2457SOL    HW2 7392   3.019   3.212   4.144
 2458SOL     OW 7393   3.444   2.501   4.196
 2458SOL    HW1 7394   3.413   2.562   4.269
 2458SOL    HW2 7395   3.494   2.553   4.127
 2459SOL     OW 7396   2.435   2.732   4.753
 2459SOL    HW1 7397   2.479   2.821   4.744
 2459SOL    HW2 7398   2.372   2.732   4.830
 2460SOL     OW 7399   3.071   2.387   3.999
 2460SOL    HW1 7400   3.084   2.303   4.053
 2460SOL    HW2 7401   3.042   2.461   4.059
 2461SOL     OW 7402   2.169   2.075   4.955
 2461SOL    HW1 7403   2.146   2.112   5.045
 2461SOL    HW2 7404   2.139   1.980   4.949
 2462SOL     OW 7405   2.594   2.496   4.788
 2462SOL    HW1 7406   2.653   2.470   4.712
 2462SOL    HW2 7407   2.566   2.592   4.777
 2463SOL     OW 7408   2.169   1.925   4.342
 2463SOL    HW1 7409   2.158   2.019   4.375
 2463SOL    HW2 7410   2.164   1.862   4.419
 2464SOL     OW 7411   3.484   2.229   4.098
 2464SOL    HW1 7412   3.486   2.153   4.162
 2464SOL    HW2 7413   3.436   2.306   4.138
 2465SOL     OW 7414   3.402   2.136   3.849
 2465SOL    HW1 7415   3.341   2.061   3.872
 2465SOL    HW2 7416   3.424   2.188   3.932
 2466SOL     OW 7417   3.165   2.700   3.766
 2466SOL    HW1 7418   3.199   2.607   3.781
 2466SOL    HW2 7419   3.183   2.727   3.671
 2467SOL     OW 7420   2.930   3.195   4.573
 2467SOL    HW1 7421   2.937   3.111   4.518
 2467SOL    HW2 7422   2.992   3.264   4.537
 2468SOL     OW 7423   2.181   2.672   4.673
 2468SOL    HW1 7424   2.274   2.708   4.678
 2468SOL    HW2 7425   2.175   2.587   4.725
 2469SOL     OW 7426   2.201   2.371   4.730
 2469SOL    HW1 7427   2.149   2.288   4.713
 2469SOL    HW2 7428   2.278   2.376   4.666
 2470SOL     OW 7429   1.870   3.188   3.924
 2470SOL    HW1 7430   1.777   3.209   3.893
 2470SOL    HW2 7431   1.880   3.089   3.937
 2471SOL     OW 7432   1.950   3.663   4.651
 2471SOL    HW1 7433   1.908   3.577   4.624
 2471SOL    HW2 7434   2.044   3.666   4.617
 2472SOL     OW 7435   2.366   3.430   4.634
 2472SOL    HW1 7436   2.432   3.504   4.643
 2472SOL    HW2 7437   2.410   3.351   4.592
 2473SOL     OW 7438   2.864   2.658   4.962
 2473SOL    HW1 7439   2.905   2.626   5.048
 2473SOL    HW2 7440   2.768   2.631   4.959
 2474SOL     OW 7441   2.677   2.434   4.049
 2474SOL    HW1 7442   2.684   2.345   4.003
 2474SOL    HW2 7443   2.583   2.468   4.041
 2475SOL     OW 7444   2.533   2.326   4.993
 2475SOL    HW1 7445   2.499   2.237   4.963
 2475SOL    HW2 7446   2.559   2.380   4.913
 2476SOL     OW 7447   2.335   2.362   3.915
 2476SOL    HW1 7448   2.396   2.442   3.919
 2476SOL    HW2 7449   2.240   2.393   3.922
 2477SOL     OW 7450   3.164   2.717   4.033
 2477SOL    HW1 7451   3.078   2.686   4.075
 2477SOL    HW2 7452   3.160   2.703   3.934
 2478SOL     OW 7453   3.621   3.609   4.878
 2478SOL    HW1 7454   3.682   3.639   4.805
 2478SOL    HW2 7455   3.583   3.520   4.856
 2479SOL     OW 7456   1.945   3.120   4.746
 2479SOL    HW1 7457   1.940   3.119   4.846
 2479SOL    HW2 7458   1.862   3.079   4.708
 2480SOL     OW 7459   3.588   1.997   4.247
 2480SOL    HW1 7460   3.661   1.980   4.180
 2480SOL    HW2 7461   3.557   1.910   4.285
 2481SOL     OW 7462   3.250   3.435   4.201
 2481SOL    HW1 7463   3.317   3.447   4.127
 2481SOL    HW2 7464   3.210   3.524   4.224
 2482SOL     OW 7465   3.142   2.789   4.396
 2482SOL    HW1 7466   3.202   2.708   4.398
 2482SOL    HW2 7467   3.182   2.858   4.336
 2483SOL     OW 7468   2.534   3.478   3.878
 2483SOL    HW1 7469   2.543   3.488   3.779
 2483SOL    HW2 7470   2.494   3.389   3.899
 2484SOL     OW 7471   3.703   2.037   4.687
 2484SOL    HW1 7472   3.742   1.952   4.651
 2484SOL    HW2 7473   3.605   2.039   4.668
 2485SOL     OW 7474   2.125   2.188   4.444
 2485SOL    HW1 7475   2.046   2.239   4.410
 2485SOL    HW2 7476   2.116   2.173   4.542
 2486SOL     OW 7477   3.056   3.474   3.755
 2486SOL    HW1 7478   3.062   3.381   3.792
 2486SOL    HW2 7479   2.997   3.474   3.675
 2487SOL     OW 7480   2.778   2.772   4.015
 2487SOL    HW1 7481   2.841   2.810   3.947
 2487SOL    HW2 7482   2.818   2.689   4.054
 2488SOL     OW 7483   3.366   3.469   3.768
 2488SOL    HW1 7484   3.274   3.506   3.775
 2488SOL    HW2 7485   3.404   3.489   3.678
 2489SOL     OW 7486   2.901   2.960   4.420
 2489SOL    HW1 7487   2.831   2.913   4.474
 2489SOL    HW2 7488   2.960   2.892   4.377
 2490SOL     OW 7489   2.876   2.098   4.695
 2490SOL    HW1 7490   2.868   2.062   4.602
 2490SOL    HW2 7491   2.874   2.022   4.760
 2491SOL     OW 7492   2.452   3.349   4.215
 2491SOL    HW1 7493   2.494   3.291   4.145
 2491SOL    HW2 7494   2.408   3.428   4.171
 2492SOL     OW 7495   2.117   3.210   4.014
 2492SOL    HW1 7496   2.021   3.211   3.987
 2492SOL    HW2 7497   2.129   3.263   4.098
 2493SOL     OW 7498   1.937   2.207   3.757
 2493SOL    HW1 7499   1.845   2.179   3.728
 2493SOL    HW2 7500   1.968   2.284   3.701
 2494SOL     OW 7501   1.934   2.028   4.042
 2494SOL    HW1 7502   1.917   2.111   3.988
 2494SOL    HW2 7503   2.024   1.991   4.020
 2495SOL     OW 7504   3.045   3.197   3.843
 2495SOL    HW1 7505   2.946   3.186   3.845
 2495SOL    HW2 7506   3.079   3.212   3.936
 2496SOL     OW 7507   3.536   2.745   4.978
 2496SOL    HW1 7508   3.509   2.656   4.941
 2496SOL    HW2 7509   3.537   2.813   4.905
 2497SOL     OW 7510   3.087   2.187   4.173
 2497SOL    HW1 7511   3.152   2.113   4.162
 2497SOL    HW2 7512   3.107   2.237   4.257
 2498SOL     OW 7513   2.456   2.607   4.376
 2498SOL    HW1 7514   2.506   2.692   4.357
 2498SOL    HW2 7515   2.368   2.609   4.328
 2499SOL     OW 7516   2.721   3.236   3.740
 2499SOL    HW1 7517   2.675   3.251   3.828
 2499SOL    HW2 7518   2.765   3.321   3.710
 2500SOL     OW 7519   2.523   3.652   4.677
 2500SOL    HW1 7520   2.477   3.740   4.664
 2500SOL    HW2 7521   2.622   3.664   4.670
 2501SOL     OW 7522   2.721   2.818   4.585
 2501SOL    HW1 7523   2.775   2.749   4.633
 2501SOL    HW2 7524   2.689   2.887   4.651
 2502SOL     OW 7525   2.945   2.846   3.811
 2502SOL    HW1 7526   2.922   2.899   3.729
 2502SOL    HW2 7527   3.026   2.790   3.792
 2503SOL     OW 7528   3.723   3.431   4.575
 2503SOL    HW1 7529   3.652   3.419   4.505
 2503SOL    HW2 7530   3.724   3.352   4.635
 2504SOL     OW 7531   1.941   3.102   4.377
 2504SOL    HW1 7532   1.940   3.055   4.465
 2504SOL    HW2 7533   2.023   3.074   4.326
 2505SOL     OW 7534   3.686   2.054   4.951
 2505SOL    HW1 7535   3.682   1.964   4.995
 2505SOL    HW2 7536   3.689   2.043   4.852
 2506SOL     OW 7537   2.290   2.286   4.244
 2506SOL    HW1 7538   2.320   2.214   4.182
 2506SOL    HW2 7539   2.251   2.246   4.327
 2507SOL     OW 7540   2.674   3.448   4.411
 2507SOL    HW1 7541   2.706   3.458   4.317
 2507SOL    HW2 7542   2.595   3.386   4.413
 2508SOL     OW 7543   2.632   3.192   4.025
 2508SOL    HW1 7544   2.586   3.105   4.042
 2508SOL    HW2 7545   2.723   3.189   4.066
 2509SOL     OW 7546   3.214   1.914   3.892
 2509SOL    HW1 7547   3.249   1.873   3.808
 2509SOL    HW2 7548   3.124   1.876   3.912
 2510SOL     OW 7549   3.162   2.315   4.415
 2510SOL    HW1 7550   3.103   2.395   4.419
 2510SOL    HW2 7551   3.177   2.280   4.508
 2511SOL     OW 7552   3.455   2.083   4.606
 2511SOL    HW1 7553   3.371   2.082   4.660
 2511SOL    HW2 7554   3.457   2.166   4.550
 2512SOL     OW 7555   1.901   2.939   4.024
 2512SOL    HW1 7556   2.000   2.928   4.015
 2512SOL    HW2 7557   1.861   2.853   4.056
 2513SOL     OW 7558   2.737   3.508   4.061
 2513SOL    HW1 7559   2.660   3.473   4.007
 2513SOL    HW2 7560   2.705   3.579   4.123
 2514SOL     OW 7561   2.092   4.352   0.113
 2514SOL    HW1 7562   1.999   4.350   0.150
 2514SOL    HW2 7563   2.093   4.313   0.021
 2515SOL     OW 7564   2.087   3.999   0.996
 2515SOL    HW1 7565   2.122   3.982   1.088
 2515SOL    HW2 7566   1.999   3.954   0.984
 2516SOL     OW 7567   1.881   4.092   0.647
 2516SOL    HW1 7568   1.799   4.135   0.686
 2516SOL    HW2 7569   1.853   4.019   0.584
 2517SOL     OW 7570   2.997   4.427   0.717
 2517SOL    HW1 7571   3.054   4.505   0.692
 2517SOL    HW2 7572   2.937   4.453   0.793
 2518SOL     OW 7573   3.617   4.331   0.231
 2518SOL    HW1 7574   3.605   4.318   0.132
 2518SOL    HW2 7575   3.587   4.250   0.280
 2519SOL     OW 7576   2.630   4.868   1.023
 2519SOL    HW1 7577   2.552   4.885   1.083
 2519SOL    HW2 7578   2.664   4.955   0.987
 2520SOL     OW 7579   2.712   4.522   1.823
 2520SOL    HW1 7580   2.708   4.598   1.888
 2520SOL    HW2 7581   2.734   4.558   1.732
 2521SOL     OW 7582   2.547   4.736   0.665
 2521SOL    HW1 7583   2.616   4.720   0.735
 2521SOL    HW2 7584   2.474   4.793   0.703
 2522SOL     OW 7585   2.300   4.116   1.499
 2522SOL    HW1 7586   2.382   4.060   1.508
 2522SOL    HW2 7587   2.219   4.058   1.503
 2523SOL     OW 7588   3.465   4.171   0.737
 2523SOL    HW1 7589   3.391   4.217   0.687
 2523SOL    HW2 7590   3.516   4.239   0.790
 2524SOL     OW 7591   2.102   4.815   0.886
 2524SOL    HW1 7592   2.116   4.731   0.938
 2524SOL    HW2 7593   2.047   4.879   0.941
 2525SOL     OW 7594   2.468   4.688   0.123
 2525SOL    HW1 7595   2.475   4.772   0.069
 2525SOL    HW2 7596   2.514   4.701   0.211
 2526SOL     OW 7597   3.456   3.838   1.480
 2526SOL    HW1 7598   3.438   3.905   1.408
 2526SOL    HW2 7599   3.453   3.884   1.569
 2527SOL     OW 7600   1.984   4.367   0.563
 2527SOL    HW1 7601   1.939   4.279   0.580
 2527SOL    HW2 7602   1.983   4.421   0.647
 2528SOL     OW 7603   3.551   4.646   0.612
 2528SOL    HW1 7604   3.646   4.617   0.620
 2528SOL    HW2 7605   3.543   4.711   0.537
 2529SOL     OW 7606   1.975   4.461   1.597
 2529SOL    HW1 7607   2.063   4.448   1.642
 2529SOL    HW2 7608   1.962   4.558   1.575
 2530SOL     OW 7609   2.671   3.728   0.502
 2530SOL    HW1 7610   2.711   3.819   0.493
 2530SOL    HW2 7611   2.571   3.736   0.508
 2531SOL     OW 7612   2.059   4.700   1.264
 2531SOL    HW1 7613   2.148   4.655   1.250
 2531SOL    HW2 7614   1.986   4.635   1.245
 2532SOL     OW 7615   3.387   4.723   0.190
 2532SOL    HW1 7616   3.324   4.647   0.203
 2532SOL    HW2 7617   3.435   4.741   0.276
 2533SOL     OW 7618   2.179   3.975   1.801
 2533SOL    HW1 7619   2.250   4.046   1.807
 2533SOL    HW2 7620   2.091   4.014   1.829
 2534SOL     OW 7621   2.460   4.453   0.270
 2534SOL    HW1 7622   2.484   4.522   0.202
 2534SOL    HW2 7623   2.382   4.486   0.324
 2535SOL     OW 7624   3.143   4.069   0.944
 2535SOL    HW1 7625   3.057   4.019   0.931
 2535SOL    HW2 7626   3.205   4.015   1.000
 2536SOL     OW 7627   2.669   4.329   1.465
 2536SOL    HW1 7628   2.622   4.326   1.554
 2536SOL    HW2 7629   2.618   4.274   1.399
 2537SOL     OW 7630   3.256   4.193   1.674
 2537SOL    HW1 7631   3.236   4.236   1.762
 2537SOL    HW2 7632   3.334   4.131   1.683
 2538SOL     OW 7633   2.835   4.614   1.572
 2538SOL    HW1 7634   2.881   4.530   1.543
 2538SOL    HW2 7635   2.779   4.648   1.497
 2539SOL     OW 7636   2.853   4.134   1.242
 2539SOL    HW1 7637   2.776   4.168   1.296
 2539SOL    HW2 7638   2.819   4.083   1.163
 2540SOL     OW 7639   2.903   4.425   0.429
 2540SOL    HW1 7640   2.929   4.421   0.525
 2540SOL    HW2 7641   2.818   4.374   0.415
 2541SOL     OW 7642   1.938   4.535   0.789
 2541SOL    HW1 7643   2.037   4.523   0.798
 2541SOL    HW2 7644   1.914   4.630   0.810
 2542SOL     OW 7645   2.727   4.072   0.195
 2542SOL    HW1 7646   2.786   4.135   0.146
 2542SOL    HW2 7647   2.746   3.978   0.166
 2543SOL     OW 7648   3.581   4.309   1.831
 2543SOL    HW1 7649   3.555   4.398   1.795
 2543SOL    HW2 7650   3.579   4.241   1.758
 2544SOL     OW 7651   2.412   3.920   0.885
 2544SOL    HW1 7652   2.407   3.915   0.985
 2544SOL    HW2 7653   2.414   4.016   0.856
 2545SOL     OW 7654   3.657   4.790   0.873
 2545SOL    HW1 7655   3.595   4.775   0.797
 2545SOL    HW2 7656   3.605   4.801   0.958
 2546SOL     OW 7657   3.320   4.459   0.728
 2546SOL    HW1 7658   3.315   4.394   0.803
 2546SOL    HW2 7659   3.400   4.518   0.741
 2547SOL     OW 7660   2.064   4.009   1.498
 2547SOL    HW1 7661   1.984   4.069   1.485
 2547SOL    HW2 7662   2.054   3.960   1.584
 2548SOL     OW 7663   3.262   3.831   0.426
 2548SOL    HW1 7664   3.238   3.794   0.336
 2548SOL    HW2 7665   3.361   3.847   0.430
 2549SOL     OW 7666   2.244   4.424   0.480
 2549SOL    HW1 7667   2.289   4.334   0.477
 2549SOL    HW2 7668   2.150   4.413   0.513
 2550SOL     OW 7669   3.409   3.946   1.729
 2550SOL    HW1 7670   3.404   3.983   1.821
 2550SOL    HW2 7671   3.337   3.877   1.717
 2551SOL     OW 7672   2.476   3.846   0.117
 2551SOL    HW1 7673   2.574   3.824   0.124
 2551SOL    HW2 7674   2.445   3.829   0.024
 2552SOL     OW 7675   2.643   3.988   1.749
 2552SOL    HW1 7676   2.710   3.927   1.792
 2552SOL    HW2 7677   2.570   4.007   1.814
 2553SOL     OW 7678   3.213   4.314   1.433
 2553SOL    HW1 7679   3.241   4.271   1.518
 2553SOL    HW2 7680   3.238   4.410   1.434
 2554SOL     OW 7681   2.784   4.227   0.899
 2554SOL    HW1 7682   2.759   4.218   0.803
 2554SOL    HW2 7683   2.832   4.145   0.930
 2555SOL     OW 7684   2.401   3.788   0.512
 2555SOL    HW1 7685   2.320   3.789   0.570
 2555SOL    HW2 7686   2.404   3.871   0.457
 2556SOL     OW 7687   2.797   3.960   0.480
 2556SOL    HW1 7688   2.749   4.001   0.402
 2556SOL    HW2 7689   2.896   3.958   0.461
 2557SOL     OW 7690   2.938   4.407   1.464
 2557SOL    HW1 7691   2.858   4.346   1.467
 2557SOL    HW2 7692   3.019   4.354   1.440
 2558SOL     OW 7693   2.894   4.273   0.016
 2558SOL    HW1 7694   2.853   4.355  -0.023
 2558SOL    HW2 7695   2.958   4.299   0.089
 2559SOL     OW 7696   1.940   4.280   1.386
 2559SOL    HW1 7697   2.032   4.279   1.345
 2559SOL    HW2 7698   1.934   4.354   1.453
 2560SOL     OW 7699   2.423   3.946   1.147
 2560SOL    HW1 7700   2.461   3.862   1.184
 2560SOL    HW2 7701   2.335   3.965   1.191
 2561SOL     OW 7702   2.728   4.178   0.642
 2561SOL    HW1 7703   2.696   4.250   0.580
 2561SOL    HW2 7704   2.752   4.097   0.589
 2562SOL     OW 7705   2.879   3.763   0.753
 2562SOL    HW1 7706   2.807   3.768   0.684
 2562SOL    HW2 7707   2.855   3.694   0.822
 2563SOL     OW 7708   3.291   4.897   0.867
 2563SOL    HW1 7709   3.236   4.813   0.860
 2563SOL    HW2 7710   3.317   4.926   0.775
 2564SOL     OW 7711   3.328   4.314   0.992
 2564SOL    HW1 7712   3.298   4.219   0.999
 2564SOL    HW2 7713   3.401   4.330   1.058
 2565SOL     OW 7714   3.719   4.557   0.377
 2565SOL    HW1 7715   3.761   4.493   0.441
 2565SOL    HW2 7716   3.681   4.506   0.299
 2566SOL     OW 7717   3.252   4.299   0.078
 2566SOL    HW1 7718   3.198   4.278   0.159
 2566SOL    HW2 7719   3.343   4.258   0.087
 2567SOL     OW 7720   2.389   3.980   0.328
 2567SOL    HW1 7721   2.416   3.921   0.253
 2567SOL    HW2 7722   2.389   4.075   0.297
 2568SOL     OW 7723   3.500   4.823   1.079
 2568SOL    HW1 7724   3.505   4.904   1.138
 2568SOL    HW2 7725   3.414   4.825   1.028
 2569SOL     OW 7726   2.777   3.813   1.402
 2569SOL    HW1 7727   2.802   3.793   1.307
 2569SOL    HW2 7728   2.849   3.869   1.444
 2570SOL     OW 7729   2.272   4.537   1.251
 2570SOL    HW1 7730   2.358   4.549   1.301
 2570SOL    HW2 7731   2.230   4.450   1.278
 2571SOL     OW 7732   3.136   4.110   1.262
 2571SOL    HW1 7733   3.157   4.184   1.326
 2571SOL    HW2 7734   3.047   4.127   1.219
 2572SOL     OW 7735   2.428   4.261   0.865
 2572SOL    HW1 7736   2.440   4.327   0.791
 2572SOL    HW2 7737   2.474   4.295   0.948
 2573SOL     OW 7738   3.444   4.363   0.472
 2573SOL    HW1 7739   3.413   4.424   0.545
 2573SOL    HW2 7740   3.494   4.415   0.403
 2574SOL     OW 7741   2.264   4.475   1.598
 2574SOL    HW1 7742   2.332   4.530   1.551
 2574SOL    HW2 7743   2.304   4.387   1.625
 2575SOL     OW 7744   3.449   4.503   1.670
 2575SOL    HW1 7745   3.357   4.541   1.665
 2575SOL    HW2 7746   3.509   4.550   1.605
 2576SOL     OW 7747   2.875   3.829   1.770
 2576SOL    HW1 7748   2.881   3.914   1.718
 2576SOL    HW2 7749   2.907   3.753   1.713
 2577SOL     OW 7750   2.366   3.774   1.740
 2577SOL    HW1 7751   2.324   3.717   1.670
 2577SOL    HW2 7752   2.300   3.843   1.772
 2578SOL     OW 7753   2.435   4.594   1.029
 2578SOL    HW1 7754   2.479   4.683   1.020
 2578SOL    HW2 7755   2.372   4.594   1.106
 2579SOL     OW 7756   3.222   4.586   1.045
 2579SOL    HW1 7757   3.147   4.586   0.979
 2579SOL    HW2 7758   3.259   4.494   1.054
 2580SOL     OW 7759   3.071   4.249   0.275
 2580SOL    HW1 7760   3.084   4.165   0.329
 2580SOL    HW2 7761   3.042   4.323   0.335
 2581SOL     OW 7762   2.169   3.937   1.231
 2581SOL    HW1 7763   2.146   3.974   1.321
 2581SOL    HW2 7764   2.139   3.842   1.225
 2582SOL     OW 7765   2.594   4.358   1.064
 2582SOL    HW1 7766   2.653   4.332   0.988
 2582SOL    HW2 7767   2.566   4.454   1.053
 2583SOL     OW 7768   3.590   4.659   1.854
 2583SOL    HW1 7769   3.544   4.652   1.765
 2583SOL    HW2 7770   3.528   4.703   1.920
 2584SOL     OW 7771   2.169   3.787   0.618
 2584SOL    HW1 7772   2.158   3.881   0.651
 2584SOL    HW2 7773   2.164   3.724   0.695
 2585SOL     OW 7774   3.484   4.091   0.374
 2585SOL    HW1 7775   3.486   4.015   0.438
 2585SOL    HW2 7776   3.436   4.168   0.414
 2586SOL     OW 7777   2.885   4.490   0.966
 2586SOL    HW1 7778   2.900   4.511   1.062
 2586SOL    HW2 7779   2.855   4.395   0.957
 2587SOL     OW 7780   2.212   4.622   1.804
 2587SOL    HW1 7781   2.288   4.666   1.852
 2587SOL    HW2 7782   2.247   4.575   1.722
 2588SOL     OW 7783   3.402   3.998   0.125
 2588SOL    HW1 7784   3.341   3.923   0.148
 2588SOL    HW2 7785   3.424   4.050   0.208
 2589SOL     OW 7786   3.165   4.562   0.042
 2589SOL    HW1 7787   3.199   4.469   0.057
 2589SOL    HW2 7788   3.183   4.589  -0.053
 2590SOL     OW 7789   2.181   4.534   0.949
 2590SOL    HW1 7790   2.274   4.570   0.954
 2590SOL    HW2 7791   2.175   4.449   1.001
 2591SOL     OW 7792   2.201   4.233   1.006
 2591SOL    HW1 7793   2.149   4.150   0.989
 2591SOL    HW2 7794   2.278   4.238   0.942
 2592SOL     OW 7795   3.000   4.104   1.678
 2592SOL    HW1 7796   2.955   4.167   1.742
 2592SOL    HW2 7797   3.093   4.135   1.661
 2593SOL     OW 7798   3.022   3.931   1.477
 2593SOL    HW1 7799   3.022   3.995   1.554
 2593SOL    HW2 7800   3.050   3.979   1.394
 2594SOL     OW 7801   2.864   4.520   1.238
 2594SOL    HW1 7802   2.905   4.488   1.324
 2594SOL    HW2 7803   2.768   4.493   1.235
 2595SOL     OW 7804   1.902   4.268   1.114
 2595SOL    HW1 7805   1.987   4.235   1.073
 2595SOL    HW2 7806   1.915   4.283   1.212
 2596SOL     OW 7807   2.051   4.244   1.722
 2596SOL    HW1 7808   2.110   4.204   1.652
 2596SOL    HW2 7809   1.993   4.315   1.681
 2597SOL     OW 7810   3.231   4.674   1.660
 2597SOL    HW1 7811   3.270   4.763   1.680
 2597SOL    HW2 7812   3.241   4.654   1.563
 2598SOL     OW 7813   2.677   4.296   0.325
 2598SOL    HW1 7814   2.684   4.207   0.279
 2598SOL    HW2 7815   2.583   4.330   0.317
 2599SOL     OW 7816   3.519   4.328   1.206
 2599SOL    HW1 7817   3.481   4.259   1.268
 2599SOL    HW2 7818   3.601   4.292   1.162
 2600SOL     OW 7819   2.533   4.188   1.269
 2600SOL    HW1 7820   2.499   4.099   1.239
 2600SOL    HW2 7821   2.559   4.242   1.189
 2601SOL     OW 7822   2.335   4.224   0.191
 2601SOL    HW1 7823   2.396   4.304   0.195
 2601SOL    HW2 7824   2.240   4.255   0.198
 2602SOL     OW 7825   2.021   4.861   1.466
 2602SOL    HW1 7826   2.043   4.800   1.542
 2602SOL    HW2 7827   2.031   4.812   1.380
 2603SOL     OW 7828   3.209   4.783   1.234
 2603SOL    HW1 7829   3.233   4.720   1.160
 2603SOL    HW2 7830   3.119   4.823   1.216
 2604SOL     OW 7831   3.164   4.579   0.309
 2604SOL    HW1 7832   3.078   4.548   0.351
 2604SOL    HW2 7833   3.160   4.565   0.210
 2605SOL     OW 7834   2.765   3.810   0.133
 2605SOL    HW1 7835   2.816   3.811   0.047
 2605SOL    HW2 7836   2.821   3.768   0.204
 2606SOL     OW 7837   3.588   3.859   0.523
 2606SOL    HW1 7838   3.661   3.842   0.456
 2606SOL    HW2 7839   3.557   3.772   0.561
 2607SOL     OW 7840   3.142   4.651   0.672
 2607SOL    HW1 7841   3.202   4.570   0.674
 2607SOL    HW2 7842   3.182   4.720   0.612
 2608SOL     OW 7843   3.703   3.899   0.963
 2608SOL    HW1 7844   3.742   3.814   0.927
 2608SOL    HW2 7845   3.605   3.901   0.944
 2609SOL     OW 7846   2.125   4.050   0.720
 2609SOL    HW1 7847   2.046   4.101   0.686
 2609SOL    HW2 7848   2.116   4.035   0.818
 2610SOL     OW 7849   2.778   4.634   0.291
 2610SOL    HW1 7850   2.841   4.672   0.223
 2610SOL    HW2 7851   2.818   4.551   0.330
 2611SOL     OW 7852   2.876   3.960   0.971
 2611SOL    HW1 7853   2.868   3.924   0.878
 2611SOL    HW2 7854   2.874   3.884   1.036
 2612SOL     OW 7855   3.571   4.109   1.381
 2612SOL    HW1 7856   3.644   4.178   1.385
 2612SOL    HW2 7857   3.599   4.034   1.322
 2613SOL     OW 7858   1.967   4.737   1.726
 2613SOL    HW1 7859   1.890   4.704   1.780
 2613SOL    HW2 7860   2.052   4.707   1.768
 2614SOL     OW 7861   2.534   3.927   1.489
 2614SOL    HW1 7862   2.624   3.911   1.449
 2614SOL    HW2 7863   2.542   3.932   1.588
 2615SOL     OW 7864   1.937   4.069   0.033
 2615SOL    HW1 7865   1.845   4.041   0.004
 2615SOL    HW2 7866   1.968   4.146  -0.023
 2616SOL     OW 7867   3.302   4.580   1.398
 2616SOL    HW1 7868   3.245   4.632   1.335
 2616SOL    HW2 7869   3.398   4.592   1.374
 2617SOL     OW 7870   1.934   3.890   0.318
 2617SOL    HW1 7871   1.917   3.973   0.264
 2617SOL    HW2 7872   2.024   3.853   0.296
 2618SOL     OW 7873   3.045   5.059   0.119
 2618SOL    HW1 7874   2.946   5.048   0.121
 2618SOL    HW2 7875   3.079   5.074   0.212
 2619SOL     OW 7876   2.475   4.566   1.431
 2619SOL    HW1 7877   2.531   4.647   1.414
 2619SOL    HW2 7878   2.534   4.486   1.434
 2620SOL     OW 7879   2.578   4.289   1.708
 2620SOL    HW1 7880   2.597   4.354   1.782
 2620SOL    HW2 7881   2.638   4.209   1.717
 2621SOL     OW 7882   3.536   4.607   1.254
 2621SOL    HW1 7883   3.509   4.518   1.217
 2621SOL    HW2 7884   3.537   4.675   1.181
 2622SOL     OW 7885   3.087   4.049   0.449
 2622SOL    HW1 7886   3.152   3.975   0.438
 2622SOL    HW2 7887   3.107   4.099   0.533
 2623SOL     OW 7888   2.456   4.469   0.652
 2623SOL    HW1 7889   2.506   4.554   0.633
 2623SOL    HW2 7890   2.368   4.471   0.604
 2624SOL     OW 7891   3.639   4.066   1.642
 2624SOL    HW1 7892   3.622   4.097   1.548
 2624SOL    HW2 7893   3.555   4.029   1.680
 2625SOL     OW 7894   3.592   4.658   1.517
 2625SOL    HW1 7895   3.630   4.749   1.532
 2625SOL    HW2 7896   3.584   4.641   1.418
 2626SOL     OW 7897   2.721   4.680   0.861
 2626SOL    HW1 7898   2.775   4.611   0.909
 2626SOL    HW2 7899   2.689   4.749   0.927
 2627SOL     OW 7900   2.945   4.708   0.087
 2627SOL    HW1 7901   2.922   4.761   0.005
 2627SOL    HW2 7902   3.026   4.652   0.068
 2628SOL     OW 7903   1.941   4.964   0.653
 2628SOL    HW1 7904   1.940   4.917   0.741
 2628SOL    HW2 7905   2.023   4.936   0.602
 2629SOL     OW 7906   3.686   3.916   1.227
 2629SOL    HW1 7907   3.682   3.826   1.271
 2629SOL    HW2 7908   3.689   3.905   1.128
 2630SOL     OW 7909   2.290   4.148   0.520
 2630SOL    HW1 7910   2.320   4.076   0.458
 2630SOL    HW2 7911   2.251   4.108   0.603
 2631SOL     OW 7912   2.179   4.271   1.280
 2631SOL    HW1 7913   2.217   4.212   1.352
 2631SOL    HW2 7914   2.219   4.245   1.192
 2632SOL     OW 7915   3.286   3.938   1.112
 2632SOL    HW1 7916   3.338   3.873   1.167
 2632SOL    HW2 7917   3.237   4.001   1.173
 2633SOL     OW 7918   2.863   3.758   1.154
 2633SOL    HW1 7919   2.800   3.686   1.123
 2633SOL    HW2 7920   2.956   3.722   1.154
 2634SOL     OW 7921   3.214   3.776   0.168
 2634SOL    HW1 7922   3.249   3.735   0.084
 2634SOL    HW2 7923   3.124   3.738   0.188
 2635SOL     OW 7924   3.162   4.177   0.691
 2635SOL    HW1 7925   3.103   4.257   0.695
 2635SOL    HW2 7926   3.177   4.142   0.784
 2636SOL     OW 7927   3.455   3.945   0.882
 2636SOL    HW1 7928   3.371   3.944   0.936
 2636SOL    HW2 7929   3.457   4.028   0.826
 2637SOL     OW 7930   1.901   4.801   0.300
 2637SOL    HW1 7931   2.000   4.790   0.291
 2637SOL    HW2 7932   1.861   4.715   0.332
 2638SOL     OW 7933   2.092   4.352   1.975
 2638SOL    HW1 7934   1.999   4.350   2.012
 2638SOL    HW2 7935   2.093   4.313   1.883
 2639SOL     OW 7936   2.087   3.999   2.858
 2639SOL    HW1 7937   2.122   3.982   2.950
 2639SOL    HW2 7938   1.999   3.954   2.846
 2640SOL     OW 7939   1.881   4.092   2.509
 2640SOL    HW1 7940   1.799   4.135   2.548
 2640SOL    HW2 7941   1.853   4.019   2.446
 2641SOL     OW 7942   2.997   4.427   2.579
 2641SOL    HW1 7943   3.054   4.505   2.554
 2641SOL    HW2 7944   2.937   4.453   2.655
 2642SOL     OW 7945   3.617   4.331   2.093
 2642SOL    HW1 7946   3.605   4.318   1.994
 2642SOL    HW2 7947   3.587   4.250   2.142
 2643SOL     OW 7948   2.630   4.868   2.885
 2643SOL    HW1 7949   2.552   4.885   2.945
 2643SOL    HW2 7950   2.664   4.955   2.849
 2644SOL     OW 7951   2.712   4.522   3.685
 2644SOL    HW1 7952   2.708   4.598   3.750
 2644SOL    HW2 7953   2.734   4.558   3.594
 2645SOL     OW 7954   2.547   4.736   2.527
 2645SOL    HW1 7955   2.616   4.720   2.597
 2645SOL    HW2 7956   2.474   4.793   2.565
 2646SOL     OW 7957   2.300   4.116   3.361
 2646SOL    HW1 7958   2.382   4.060   3.370
 2646SOL    HW2 7959   2.219   4.058   3.365
 2647SOL     OW 7960   3.465   4.171   2.599
 2647SOL    HW1 7961   3.391   4.217   2.549
 2647SOL    HW2 7962   3.516   4.239   2.652
 2648SOL     OW 7963   2.102   4.815   2.748
 2648SOL    HW1 7964   2.116   4.731   2.800
 2648SOL    HW2 7965   2.047   4.879   2.803
 2649SOL     OW 7966   2.468   4.688   1.985
 2649SOL    HW1 7967   2.475   4.772   1.931
 2649SOL    HW2 7968   2.514   4.701   2.073
 2650SOL     OW 7969   3.456   3.838   3.342
 2650SOL    HW1 7970   3.438   3.905   3.270
 2650SOL    HW2 7971   3.453   3.884   3.431
 2651SOL     OW 7972   1.984   4.367   2.425
 2651SOL    HW1 7973   1.939   4.279   2.442
 2651SOL    HW2 7974   1.983   4.421   2.509
 2652SOL     OW 7975   3.551   4.646   2.474
 2652SOL    HW1 7976   3.646   4.617   2.482
 2652SOL    HW2 7977   3.543   4.711   2.399
 2653SOL     OW 7978   1.975   4.461   3.459
 2653SOL    HW1 7979   2.063   4.448   3.504
 2653SOL    HW2 7980   1.962   4.558   3.437
 2654SOL     OW 7981   2.671   3.728   2.364
 2654SOL    HW1 7982   2.711   3.819   2.355
 2654SOL    HW2 7983   2.571   3.736   2.370
 2655SOL     OW 7984   2.059   4.700   3.126
 2655SOL    HW1 7985   2.148   4.655   3.112
 2655SOL    HW2 7986   1.986   4.635   3.107
 2656SOL     OW 7987   3.387   4.723   2.052
 2656SOL    HW1 7988   3.324   4.647   2.065
 2656SOL    HW2 7989   3.435   4.741   2.138
 2657SOL     OW 7990   2.179   3.975   3.663
 2657SOL    HW1 7991   2.250   4.046   3.669
 2657SOL    HW2 7992   2.091   4.014   3.691
 2658SOL     OW 7993   2.460   4.453   2.132
 2658SOL    HW1 7994   2.484   4.522   2.064
 2658SOL    HW2 7995   2.382   4.486   2.186
 2659SOL     OW 7996   3.143   4.069   2.806
 2659SOL    HW1 7997   3.057   4.019   2.793
 2659SOL    HW2 7998   3.205   4.015   2.862
 2660SOL     OW 7999   2.669   4.329   3.327
 2660SOL    HW1 8000   2.622   4.326   3.416
 2660SOL    HW2 8001   2.618   4.274   3.261
 2661SOL     OW 8002   3.256   4.193   3.536
 2661SOL    HW1 8003   3.236   4.236   3.624
 2661SOL    HW2 8004   3.334   4.131   3.545
 2662SOL     OW 8005   2.835   4.614   3.434
 2662SOL    HW1 8006   2.881   4.530   3.405
 2662SOL    HW2 8007   2.779   4.648   3.359
 2663SOL     OW 8008   2.853   4.134   3.104
 2663SOL    HW1 8009   2.776   4.168   3.158
 2663SOL    HW2 8010   2.819   4.083   3.025
 2664SOL     OW 8011   2.903   4.425   2.291
 2664SOL    HW1 8012   2.929   4.421   2.387
 2664SOL    HW2 8013   2.818   4.374   2.277
 2665SOL     OW 8014   1.938   4.535   2.651
 2665SOL    HW1 8015   2.037   4.523   2.660
 2665SOL    HW2 8016   1.914   4.630   2.672
 2666SOL     OW 8017   2.727   4.072   2.057
 2666SOL    HW1 8018   2.786   4.135   2.008
 2666SOL    HW2 8019   2.746   3.978   2.028
 2667SOL     OW 8020   3.581   4.309   3.693
 2667SOL    HW1 8021   3.555   4.398   3.657
 2667SOL    HW2 8022   3.579   4.241   3.620
 2668SOL     OW 8023   2.412   3.920   2.747
 2668SOL    HW1 8024   2.407   3.915   2.847
 2668SOL    HW2 8025   2.414   4.016   2.718
 2669SOL     OW 8026   3.657   4.790   2.735
 2669SOL    HW1 8027   3.595   4.775   2.659
 2669SOL    HW2 8028   3.605   4.801   2.820
 2670SOL     OW 8029   3.320   4.459   2.590
 2670SOL    HW1 8030   3.315   4.394   2.665
 2670SOL    HW2 8031   3.400   4.518   2.603
 2671SOL     OW 8032   2.064   4.009   3.360
 2671SOL    HW1 8033   1.984   4.069   3.347
 2671SOL    HW2 8034   2.054   3.960   3.446
 2672SOL     OW 8035   3.262   3.831   2.288
 2672SOL    HW1 8036   3.238   3.794   2.198
 2672SOL    HW2 8037   3.361   3.847   2.292
 2673SOL     OW 8038   2.244   4.424   2.342
 2673SOL    HW1 8039   2.289   4.334   2.339
 2673SOL    HW2 8040   2.150   4.413   2.375
 2674SOL     OW 8041   3.409   3.946   3.591
 2674SOL    HW1 8042   3.404   3.983   3.683
 2674SOL    HW2 8043   3.337   3.877   3.579
 2675SOL     OW 8044   2.476   3.846   1.979
 2675SOL    HW1 8045   2.574   3.824   1.986
 2675SOL    HW2 8046   2.445   3.829   1.886
 2676SOL     OW 8047   2.643   3.988   3.611
 2676SOL    HW1 8048   2.710   3.927   3.654
 2676SOL    HW2 8049   2.570   4.007   3.676
 2677SOL     OW 8050   3.213   4.314   3.295
 2677SOL    HW1 8051   3.241   4.271   3.380
 2677SOL    HW2 8052   3.238   4.410   3.296
 2678SOL     OW 8053   2.784   4.227   2.761
 2678SOL    HW1 8054   2.759   4.218   2.665
 2678SOL    HW2 8055   2.832   4.145   2.792
 2679SOL     OW 8056   2.401   3.788   2.374
 2679SOL    HW1 8057   2.320   3.789   2.432
 2679SOL    HW2 8058   2.404   3.871   2.319
 2680SOL     OW 8059   2.159   3.759   2.033
 2680SOL    HW1 8060   2.208   3.843   2.012
 2680SOL    HW2 8061   2.221   3.694   2.078
 2681SOL     OW 8062   2.797   3.960   2.342
 2681SOL    HW1 8063   2.749   4.001   2.264
 2681SOL    HW2 8064   2.896   3.958   2.323
 2682SOL     OW 8065   2.938   4.407   3.326
 2682SOL    HW1 8066   2.858   4.346   3.329
 2682SOL    HW2 8067   3.019   4.354   3.302
 2683SOL     OW 8068   2.894   4.273   1.878
 2683SOL    HW1 8069   2.853   4.355   1.839
 2683SOL    HW2 8070   2.958   4.299   1.951
 2684SOL     OW 8071   1.940   4.280   3.248
 2684SOL    HW1 8072   2.032   4.279   3.207
 2684SOL    HW2 8073   1.934   4.354   3.315
 2685SOL     OW 8074   2.423   3.946   3.009
 2685SOL    HW1 8075   2.461   3.862   3.046
 2685SOL    HW2 8076   2.335   3.965   3.053
 2686SOL     OW 8077   2.728   4.178   2.504
 2686SOL    HW1 8078   2.696   4.250   2.442
 2686SOL    HW2 8079   2.752   4.097   2.451
 2687SOL     OW 8080   2.879   3.763   2.615
 2687SOL    HW1 8081   2.807   3.768   2.546
 2687SOL    HW2 8082   2.855   3.694   2.684
 2688SOL     OW 8083   3.291   4.897   2.729
 2688SOL    HW1 8084   3.236   4.813   2.722
 2688SOL    HW2 8085   3.317   4.926   2.637
 2689SOL     OW 8086   3.328   4.314   2.854
 2689SOL    HW1 8087   3.298   4.219   2.861
 2689SOL    HW2 8088   3.401   4.330   2.920
 2690SOL     OW 8089   3.719   4.557   2.239
 2690SOL    HW1 8090   3.761   4.493   2.303
 2690SOL    HW2 8091   3.681   4.506   2.161
 2691SOL     OW 8092   3.252   4.299   1.940
 2691SOL    HW1 8093   3.198   4.278   2.021
 2691SOL    HW2 8094   3.343   4.258   1.949
 2692SOL     OW 8095   2.389   3.980   2.190
 2692SOL    HW1 8096   2.416   3.921   2.115
 2692SOL    HW2 8097   2.389   4.075   2.159
 2693SOL     OW 8098   3.500   4.823   2.941
 2693SOL    HW1 8099   3.505   4.904   3.000
 2693SOL    HW2 8100   3.414   4.825   2.890
 2694SOL     OW 8101   2.777   3.813   3.264
 2694SOL    HW1 8102   2.802   3.793   3.169
 2694SOL    HW2 8103   2.849   3.869   3.306
 2695SOL     OW 8104   2.272   4.537   3.113
 2695SOL    HW1 8105   2.358   4.549   3.163
 2695SOL    HW2 8106   2.230   4.450   3.140
 2696SOL     OW 8107   3.136   4.110   3.124
 2696SOL    HW1 8108   3.157   4.184   3.188
 2696SOL    HW2 8109   3.047   4.127   3.081
 2697SOL     OW 8110   2.428   4.261   2.727
 2697SOL    HW1 8111   2.440   4.327   2.653
 2697SOL    HW2 8112   2.474   4.295   2.810
 2698SOL     OW 8113   3.444   4.363   2.334
 2698SOL    HW1 8114   3.413   4.424   2.407
 2698SOL    HW2 8115   3.494   4.415   2.265
 2699SOL     OW 8116   2.264   4.475   3.460
 2699SOL    HW1 8117   2.332   4.530   3.413
 2699SOL    HW2 8118   2.304   4.387   3.487
 2700SOL     OW 8119   3.449   4.503   3.532
 2700SOL    HW1 8120   3.357   4.541   3.527
 2700SOL    HW2 8121   3.509   4.550   3.467
 2701SOL     OW 8122   2.875   3.829   3.632
 2701SOL    HW1 8123   2.881   3.914   3.580
 2701SOL    HW2 8124   2.907   3.753   3.575
 2702SOL     OW 8125   2.366   3.774   3.602
 2702SOL    HW1 8126   2.324   3.717   3.532
 2702SOL    HW2 8127   2.300   3.843   3.634
 2703SOL     OW 8128   2.435   4.594   2.891
 2703SOL    HW1 8129   2.479   4.683   2.882
 2703SOL    HW2 8130   2.372   4.594   2.968
 2704SOL     OW 8131   3.222   4.586   2.907
 2704SOL    HW1 8132   3.147   4.586   2.841
 2704SOL    HW2 8133   3.259   4.494   2.916
 2705SOL     OW 8134   3.071   4.249   2.137
 2705SOL    HW1 8135   3.084   4.165   2.191
 2705SOL    HW2 8136   3.042   4.323   2.197
 2706SOL     OW 8137   2.169   3.937   3.093
 2706SOL    HW1 8138   2.146   3.974   3.183
 2706SOL    HW2 8139   2.139   3.842   3.087
 2707SOL     OW 8140   2.594   4.358   2.926
 2707SOL    HW1 8141   2.653   4.332   2.850
 2707SOL    HW2 8142   2.566   4.454   2.915
 2708SOL     OW 8143   3.590   4.659   3.716
 2708SOL    HW1 8144   3.544   4.652   3.627
 2708SOL    HW2 8145   3.528   4.703   3.782
 2709SOL     OW 8146   2.169   3.787   2.480
 2709SOL    HW1 8147   2.158   3.881   2.513
 2709SOL    HW2 8148   2.164   3.724   2.557
 2710SOL     OW 8149   3.484   4.091   2.236
 2710SOL    HW1 8150   3.486   4.015   2.300
 2710SOL    HW2 8151   3.436   4.168   2.276
 2711SOL     OW 8152   2.885   4.490   2.828
 2711SOL    HW1 8153   2.900   4.511   2.924
 2711SOL    HW2 8154   2.855   4.395   2.819
 2712SOL     OW 8155   2.212   4.622   3.666
 2712SOL    HW1 8156   2.288   4.666   3.714
 2712SOL    HW2 8157   2.247   4.575   3.584
 2713SOL     OW 8158   3.402   3.998   1.987
 2713SOL    HW1 8159   3.341   3.923   2.010
 2713SOL    HW2 8160   3.424   4.050   2.070
 2714SOL     OW 8161   3.165   4.562   1.904
 2714SOL    HW1 8162   3.199   4.469   1.919
 2714SOL    HW2 8163   3.183   4.589   1.809
 2715SOL     OW 8164   2.181   4.534   2.811
 2715SOL    HW1 8165   2.274   4.570   2.816
 2715SOL    HW2 8166   2.175   4.449   2.863
 2716SOL     OW 8167   2.201   4.233   2.868
 2716SOL    HW1 8168   2.149   4.150   2.851
 2716SOL    HW2 8169   2.278   4.238   2.804
 2717SOL     OW 8170   3.000   4.104   3.540
 2717SOL    HW1 8171   2.955   4.167   3.604
 2717SOL    HW2 8172   3.093   4.135   3.523
 2718SOL     OW 8173   3.022   3.931   3.339
 2718SOL    HW1 8174   3.022   3.995   3.416
 2718SOL    HW2 8175   3.050   3.979   3.256
 2719SOL     OW 8176   2.864   4.520   3.100
 2719SOL    HW1 8177   2.905   4.488   3.186
 2719SOL    HW2 8178   2.768   4.493   3.097
 2720SOL     OW 8179   1.902   4.268   2.976
 2720SOL    HW1 8180   1.987   4.235   2.935
 2720SOL    HW2 8181   1.915   4.283   3.074
 2721SOL     OW 8182   2.051   4.244   3.584
 2721SOL    HW1 8183   2.110   4.204   3.514
 2721SOL    HW2 8184   1.993   4.315   3.543
 2722SOL     OW 8185   3.231   4.674   3.522
 2722SOL    HW1 8186   3.270   4.763   3.542
 2722SOL    HW2 8187   3.241   4.654   3.425
 2723SOL     OW 8188   2.677   4.296   2.187
 2723SOL    HW1 8189   2.684   4.207   2.141
 2723SOL    HW2 8190   2.583   4.330   2.179
 2724SOL     OW 8191   3.519   4.328   3.068
 2724SOL    HW1 8192   3.481   4.259   3.130
 2724SOL    HW2 8193   3.601   4.292   3.024
 2725SOL     OW 8194   2.533   4.188   3.131
 2725SOL    HW1 8195   2.499   4.099   3.101
 2725SOL    HW2 8196   2.559   4.242   3.051
 2726SOL     OW 8197   2.335   4.224   2.053
 2726SOL    HW1 8198   2.396   4.304   2.057
 2726SOL    HW2 8199   2.240   4.255   2.060
 2727SOL     OW 8200   2.021   4.861   3.328
 2727SOL    HW1 8201   2.043   4.800   3.404
 2727SOL    HW2 8202   2.031   4.812   3.242
 2728SOL     OW 8203   3.209   4.783   3.096
 2728SOL    HW1 8204   3.233   4.720   3.022
 2728SOL    HW2 8205   3.119   4.823   3.078
 2729SOL     OW 8206   3.164   4.579   2.171
 2729SOL    HW1 8207   3.078   4.548   2.213
 2729SOL    HW2 8208   3.160   4.565   2.072
 2730SOL     OW 8209   3.588   3.859   2.385
 2730SOL    HW1 8210   3.661   3.842   2.318
 2730SOL    HW2 8211   3.557   3.772   2.423
 2731SOL     OW 8212   3.142   4.651   2.534
 2731SOL    HW1 8213   3.202   4.570   2.536
 2731SOL    HW2 8214   3.182   4.720   2.474
 2732SOL     OW 8215   3.703   3.899   2.825
 2732SOL    HW1 8216   3.742   3.814   2.789
 2732SOL    HW2 8217   3.605   3.901   2.806
 2733SOL     OW 8218   2.125   4.050   2.582
 2733SOL    HW1 8219   2.046   4.101   2.548
 2733SOL    HW2 8220   2.116   4.035   2.680
 2734SOL     OW 8221   2.778   4.634   2.153
 2734SOL    HW1 8222   2.841   4.672   2.085
 2734SOL    HW2 8223   2.818   4.551   2.192
 2735SOL     OW 8224   2.876   3.960   2.833
 2735SOL    HW1 8225   2.868   3.924   2.740
 2735SOL    HW2 8226   2.874   3.884   2.898
 2736SOL     OW 8227   3.571   4.109   3.243
 2736SOL    HW1 8228   3.644   4.178   3.247
 2736SOL    HW2 8229   3.599   4.034   3.184
 2737SOL     OW 8230   1.967   4.737   3.588
 2737SOL    HW1 8231   1.890   4.704   3.642
 2737SOL    HW2 8232   2.052   4.707   3.630
 2738SOL     OW 8233   2.534   3.927   3.351
 2738SOL    HW1 8234   2.624   3.911   3.311
 2738SOL    HW2 8235   2.542   3.932   3.450
 2739SOL     OW 8236   1.937   4.069   1.895
 2739SOL    HW1 8237   1.845   4.041   1.866
 2739SOL    HW2 8238   1.968   4.146   1.839
 2740SOL     OW 8239   3.302   4.580   3.260
 2740SOL    HW1 8240   3.245   4.632   3.197
 2740SOL    HW2 8241   3.398   4.592   3.236
 2741SOL     OW 8242   1.934   3.890   2.180
 2741SOL    HW1 8243   1.917   3.973   2.126
 2741SOL    HW2 8244   2.024   3.853   2.158
 2742SOL     OW 8245   3.045   5.059   1.981
 2742SOL    HW1 8246   2.946   5.048   1.983
 2742SOL    HW2 8247   3.079   5.074   2.074
 2743SOL     OW 8248   2.475   4.566   3.293
 2743SOL    HW1 8249   2.531   4.647   3.276
 2743SOL    HW2 8250   2.534   4.486   3.296
 2744SOL     OW 8251   2.578   4.289   3.570
 2744SOL    HW1 8252   2.597   4.354   3.644
 2744SOL    HW2 8253   2.638   4.209   3.579
 2745SOL     OW 8254   3.536   4.607   3.116
 2745SOL    HW1 8255   3.509   4.518   3.079
 2745SOL    HW2 8256   3.537   4.675   3.043
 2746SOL     OW 8257   3.087   4.049   2.311
 2746SOL    HW1 8258   3.152   3.975   2.300
 2746SOL    HW2 8259   3.107   4.099   2.395
 2747SOL     OW 8260   2.456   4.469   2.514
 2747SOL    HW1 8261   2.506   4.554   2.495
 2747SOL    HW2 8262   2.368   4.471   2.466
 2748SOL     OW 8263   3.639   4.066   3.504
 2748SOL    HW1 8264   3.622   4.097   3.410
 2748SOL    HW2 8265   3.555   4.029   3.542
 2749SOL     OW 8266   3.592   4.658   3.379
 2749SOL    HW1 8267   3.630   4.749   3.394
 2749SOL    HW2 8268   3.584   4.641   3.280
 2750SOL     OW 8269   2.721   4.680   2.723
 2750SOL    HW1 8270   2.775   4.611   2.771
 2750SOL    HW2 8271   2.689   4.749   2.789
 2751SOL     OW 8272   2.945   4.708   1.949
 2751SOL    HW1 8273   2.922   4.761   1.867
 2751SOL    HW2 8274   3.026   4.652   1.930
 2752SOL     OW 8275   1.941   4.964   2.515
 2752SOL    HW1 8276   1.940   4.917   2.603
 2752SOL    HW2 8277   2.023   4.936   2.464
 2753SOL     OW 8278   3.686   3.916   3.089
 2753SOL    HW1 8279   3.682   3.826   3.133
 2753SOL    HW2 8280   3.689   3.905   2.990
 2754SOL     OW 8281   2.290   4.148   2.382
 2754SOL    HW1 8282   2.320   4.076   2.320
 2754SOL    HW2 8283   2.251   4.108   2.465
 2755SOL     OW 8284   2.179   4.271   3.142
 2755SOL    HW1 8285   2.217   4.212   3.214
 2755SOL    HW2 8286   2.219   4.245   3.054
 2756SOL     OW 8287   3.286   3.938   2.974
 2756SOL    HW1 8288   3.338   3.873   3.029
 2756SOL    HW2 8289   3.237   4.001   3.035
 2757SOL     OW 8290   2.863   3.758   3.016
 2757SOL    HW1 8291   2.800   3.686   2.985
 2757SOL    HW2 8292   2.956   3.722   3.016
 2758SOL     OW 8293   3.214   3.776   2.030
 2758SOL    HW1 8294   3.249   3.735   1.946
 2758SOL    HW2 8295   3.124   3.738   2.050
 2759SOL     OW 8296   3.162   4.177   2.553
 2759SOL    HW1 8297   3.103   4.257   2.557
 2759SOL    HW2 8298   3.177   4.142   2.646
 2760SOL     OW 8299   3.455   3.945   2.744
 2760SOL    HW1 8300   3.371   3.944   2.798
 2760SOL    HW2 8301   3.457   4.028   2.688
 2761SOL     OW 8302   1.901   4.801   2.162
 2761SOL    HW1 8303   2.000   4.790   2.153
 2761SOL    HW2 8304   1.861   4.715   2.194
 2762SOL     OW 8305   2.092   4.352   3.837
 2762SOL    HW1 8306   1.999   4.350   3.874
 2762SOL    HW2 8307   2.093   4.313   3.745
 2763SOL     OW 8308   2.087   3.999   4.720
 2763SOL    HW1 8309   2.122   3.982   4.812
 2763SOL    HW2 8310   1.999   3.954   4.708
 2764SOL     OW 8311   1.881   4.092   4.371
 2764SOL    HW1 8312   1.799   4.135   4.410
 2764SOL    HW2 8313   1.853   4.019   4.308
 2765SOL     OW 8314   2.997   4.427   4.441
 2765SOL    HW1 8315   3.054   4.505   4.416
 2765SOL    HW2 8316   2.937   4.453   4.517
 2766SOL     OW 8317   3.617   4.331   3.955
 2766SOL    HW1 8318   3.605   4.318   3.856
 2766SOL    HW2 8319   3.587   4.250   4.004
 2767SOL     OW 8320   2.547   4.736   4.389
 2767SOL    HW1 8321   2.616   4.720   4.459
 2767SOL    HW2 8322   2.474   4.793   4.427
 2768SOL     OW 8323   3.465   4.171   4.461
 2768SOL    HW1 8324   3.391   4.217   4.411
 2768SOL    HW2 8325   3.516   4.239   4.514
 2769SOL     OW 8326   2.102   4.815   4.610
 2769SOL    HW1 8327   2.116   4.731   4.662
 2769SOL    HW2 8328   2.047   4.879   4.665
 2770SOL     OW 8329   2.468   4.688   3.847
 2770SOL    HW1 8330   2.475   4.772   3.793
 2770SOL    HW2 8331   2.514   4.701   3.935
 2771SOL     OW 8332   1.984   4.367   4.287
 2771SOL    HW1 8333   1.939   4.279   4.304
 2771SOL    HW2 8334   1.983   4.421   4.371
 2772SOL     OW 8335   3.551   4.646   4.336
 2772SOL    HW1 8336   3.646   4.617   4.344
 2772SOL    HW2 8337   3.543   4.711   4.261
 2773SOL     OW 8338   2.671   3.728   4.226
 2773SOL    HW1 8339   2.711   3.819   4.217
 2773SOL    HW2 8340   2.571   3.736   4.232
 2774SOL     OW 8341   2.059   4.700   4.988
 2774SOL    HW1 8342   2.148   4.655   4.974
 2774SOL    HW2 8343   1.986   4.635   4.969
 2775SOL     OW 8344   3.387   4.723   3.914
 2775SOL    HW1 8345   3.324   4.647   3.927
 2775SOL    HW2 8346   3.435   4.741   4.000
 2776SOL     OW 8347   2.460   4.453   3.994
 2776SOL    HW1 8348   2.484   4.522   3.926
 2776SOL    HW2 8349   2.382   4.486   4.048
 2777SOL     OW 8350   3.143   4.069   4.668
 2777SOL    HW1 8351   3.057   4.019   4.655
 2777SOL    HW2 8352   3.205   4.015   4.724
 2778SOL     OW 8353   2.903   4.425   4.153
 2778SOL    HW1 8354   2.929   4.421   4.249
 2778SOL    HW2 8355   2.818   4.374   4.139
 2779SOL     OW 8356   1.938   4.535   4.513
 2779SOL    HW1 8357   2.037   4.523   4.522
 2779SOL    HW2 8358   1.914   4.630   4.534
 2780SOL     OW 8359   2.727   4.072   3.919
 2780SOL    HW1 8360   2.786   4.135   3.870
 2780SOL    HW2 8361   2.746   3.978   3.890
 2781SOL     OW 8362   2.412   3.920   4.609
 2781SOL    HW1 8363   2.407   3.915   4.709
 2781SOL    HW2 8364   2.414   4.016   4.580
 2782SOL     OW 8365   3.657   4.790   4.597
 2782SOL    HW1 8366   3.595   4.775   4.521
 2782SOL    HW2 8367   3.605   4.801   4.682
 2783SOL     OW 8368   3.320   4.459   4.452
 2783SOL    HW1 8369   3.315   4.394   4.527
 2783SOL    HW2 8370   3.400   4.518   4.465
 2784SOL     OW 8371   3.262   3.831   4.150
 2784SOL    HW1 8372   3.238   3.794   4.060
 2784SOL    HW2 8373   3.361   3.847   4.154
 2785SOL     OW 8374   2.244   4.424   4.204
 2785SOL    HW1 8375   2.289   4.334   4.201
 2785SOL    HW2 8376   2.150   4.413   4.237
 2786SOL     OW 8377   2.476   3.846   3.841
 2786SOL    HW1 8378   2.574   3.824   3.848
 2786SOL    HW2 8379   2.445   3.829   3.748
 2787SOL     OW 8380   2.784   4.227   4.623
 2787SOL    HW1 8381   2.759   4.218   4.527
 2787SOL    HW2 8382   2.832   4.145   4.654
 2788SOL     OW 8383   2.401   3.788   4.236
 2788SOL    HW1 8384   2.320   3.789   4.294
 2788SOL    HW2 8385   2.404   3.871   4.181
 2789SOL     OW 8386   2.159   3.759   3.895
 2789SOL    HW1 8387   2.208   3.843   3.874
 2789SOL    HW2 8388   2.221   3.694   3.940
 2790SOL     OW 8389   2.797   3.960   4.204
 2790SOL    HW1 8390   2.749   4.001   4.126
 2790SOL    HW2 8391   2.896   3.958   4.185
 2791SOL     OW 8392   2.894   4.273   3.740
 2791SOL    HW1 8393   2.853   4.355   3.701
 2791SOL    HW2 8394   2.958   4.299   3.813
 2792SOL     OW 8395   2.728   4.178   4.366
 2792SOL    HW1 8396   2.696   4.250   4.304
 2792SOL    HW2 8397   2.752   4.097   4.313
 2793SOL     OW 8398   2.879   3.763   4.477
 2793SOL    HW1 8399   2.807   3.768   4.408
 2793SOL    HW2 8400   2.855   3.694   4.546
 2794SOL     OW 8401   3.291   4.897   4.591
 2794SOL    HW1 8402   3.236   4.813   4.584
 2794SOL    HW2 8403   3.317   4.926   4.499
 2795SOL     OW 8404   3.328   4.314   4.716
 2795SOL    HW1 8405   3.298   4.219   4.723
 2795SOL    HW2 8406   3.401   4.330   4.782
 2796SOL     OW 8407   3.719   4.557   4.101
 2796SOL    HW1 8408   3.761   4.493   4.165
 2796SOL    HW2 8409   3.681   4.506   4.023
 2797SOL     OW 8410   3.252   4.299   3.802
 2797SOL    HW1 8411   3.198   4.278   3.883
 2797SOL    HW2 8412   3.343   4.258   3.811
 2798SOL     OW 8413   2.389   3.980   4.052
 2798SOL    HW1 8414   2.416   3.921   3.977
 2798SOL    HW2 8415   2.389   4.075   4.021
 2799SOL     OW 8416   3.500   4.823   4.803
 2799SOL    HW1 8417   3.505   4.904   4.862
 2799SOL    HW2 8418   3.414   4.825   4.752
 2800SOL     OW 8419   2.428   4.261   4.589
 2800SOL    HW1 8420   2.440   4.327   4.515
 2800SOL    HW2 8421   2.474   4.295   4.672
 2801SOL     OW 8422   3.444   4.363   4.196
 2801SOL    HW1 8423   3.413   4.424   4.269
 2801SOL    HW2 8424   3.494   4.415   4.127
 2802SOL     OW 8425   2.435   4.594   4.753
 2802SOL    HW1 8426   2.479   4.683   4.744
 2802SOL    HW2 8427   2.372   4.594   4.830
 2803SOL     OW 8428   3.071   4.249   3.999
 2803SOL    HW1 8429   3.084   4.165   4.053
 2803SOL    HW2 8430   3.042   4.323   4.059
 2804SOL     OW 8431   2.169   3.937   4.955
 2804SOL    HW1 8432   2.146   3.974   5.045
 2804SOL    HW2 8433   2.139   3.842   4.949
 2805SOL     OW 8434   2.594   4.358   4.788
 2805SOL    HW1 8435   2.653   4.332   4.712
 2805SOL    HW2 8436   2.566   4.454   4.777
 2806SOL     OW 8437   2.169   3.787   4.342
 2806SOL    HW1 8438   2.158   3.881   4.375
 2806SOL    HW2 8439   2.164   3.724   4.419
 2807SOL     OW 8440   3.484   4.091   4.098
 2807SOL    HW1 8441   3.486   4.015   4.162
 2807SOL    HW2 8442   3.436   4.168   4.138
 2808SOL     OW 8443   3.402   3.998   3.849
 2808SOL    HW1 8444   3.341   3.923   3.872
 2808SOL    HW2 8445   3.424   4.050   3.932
 2809SOL     OW 8446   3.165   4.562   3.766
 2809SOL    HW1 8447   3.199   4.469   3.781
 2809SOL    HW2 8448   3.183   4.589   3.671
 2810SOL     OW 8449   2.181   4.534   4.673
 2810SOL    HW1 8450   2.274   4.570   4.678
 2810SOL    HW2 8451   2.175   4.449   4.725
 2811SOL     OW 8452   2.201   4.233   4.730
 2811SOL    HW1 8453   2.149   4.150   4.713
 2811SOL    HW2 8454   2.278   4.238   4.666
 2812SOL     OW 8455   2.864   4.520   4.962
 2812SOL    HW1 8456   2.905   4.488   5.048
 2812SOL    HW2 8457   2.768   4.493   4.959
 2813SOL     OW 8458   2.677   4.296   4.049
 2813SOL    HW1 8459   2.684   4.207   4.003
 2813SOL    HW2 8460   2.583   4.330   4.041
 2814SOL     OW 8461   2.533   4.188   4.993
 2814SOL    HW1 8462   2.499   4.099   4.963
 2814SOL    HW2 8463   2.559   4.242   4.913
 2815SOL     OW 8464   2.335   4.224   3.915
 2815SOL    HW1 8465   2.396   4.304   3.919
 2815SOL    HW2 8466   2.240   4.255   3.922
 2816SOL     OW 8467   3.164   4.579   4.033
 2816SOL    HW1 8468   3.078   4.548   4.075
 2816SOL    HW2 8469   3.160   4.565   3.934
 2817SOL     OW 8470   3.588   3.859   4.247
 2817SOL    HW1 8471   3.661   3.842   4.180
 2817SOL    HW2 8472   3.557   3.772   4.285
 2818SOL     OW 8473   3.142   4.651   4.396
 2818SOL    HW1 8474   3.202   4.570   4.398
 2818SOL    HW2 8475   3.182   4.720   4.336
 2819SOL     OW 8476   3.703   3.899   4.687
 2819SOL    HW1 8477   3.742   3.814   4.651
 2819SOL    HW2 8478   3.605   3.901   4.668
 2820SOL     OW 8479   2.125   4.050   4.444
 2820SOL    HW1 8480   2.046   4.101   4.410
 2820SOL    HW2 8481   2.116   4.035   4.542
 2821SOL     OW 8482   2.778   4.634   4.015
 2821SOL    HW1 8483   2.841   4.672   3.947
 2821SOL    HW2 8484   2.818   4.551   4.054
 2822SOL     OW 8485   2.876   3.960   4.695
 2822SOL    HW1 8486   2.868   3.924   4.602
 2822SOL    HW2 8487   2.874   3.884   4.760
 2823SOL     OW 8488   1.937   4.069   3.757
 2823SOL    HW1 8489   1.845   4.041   3.728
 2823SOL    HW2 8490   1.968   4.146   3.701
 2824SOL     OW 8491   1.934   3.890   4.042
 2824SOL    HW1 8492   1.917   3.973   3.988
 2824SOL    HW2 8493   2.024   3.853   4.020
 2825SOL     OW 8494   3.045   5.059   3.843
 2825SOL    HW1 8495   2.946   5.048   3.845
 2825SOL    HW2 8496   3.079   5.074   3.936
 2826SOL     OW 8497   3.536   4.607   4.978
 2826SOL    HW1 8498   3.509   4.518   4.941
 2826SOL    HW2 8499   3.537   4.675   4.905
 2827SOL     OW 8500   3.087   4.049   4.173
 2827SOL    HW1 8501   3.152   3.975   4.162
 2827SOL    HW2 8502   3.107   4.099   4.257
 2828SOL     OW 8503   2.456   4.469   4.376
 2828SOL    HW1 8504   2.506   4.554   4.357
 2828SOL    HW2 8505   2.368   4.471   4.328
 2829SOL     OW 8506   2.721   4.680   4.585
 2829SOL    HW1 8507   2.775   4.611   4.633
 2829SOL    HW2 8508   2.689   4.749   4.651
 2830SOL     OW 8509   2.945   4.708   3.811
 2830SOL    HW1 8510   2.922   4.761   3.729
 2830SOL    HW2 8511   3.026   4.652   3.792
 2831SOL     OW 8512   1.941   4.964   4.377
 2831SOL    HW1 8513   1.940   4.917   4.465
 2831SOL    HW2 8514   2.023   4.936   4.326
 2832SOL     OW 8515   3.686   3.916   4.951
 2832SOL    HW1 8516   3.682   3.826   4.995
 2832SOL    HW2 8517   3.689   3.905   4.852
 2833SOL     OW 8518   2.290   4.148   4.244
 2833SOL    HW1 8519   2.320   4.076   4.182
 2833SOL    HW2 8520   2.251   4.108   4.327
 2834SOL     OW 8521   3.214   3.776   3.892
 2834SOL    HW1 8522   3.249   3.735   3.808
 2834SOL    HW2 8523   3.124   3.738   3.912
 2835SOL     OW 8524   3.162   4.177   4.415
 2835SOL    HW1 8525   3.103   4.257   4.419
 2835SOL    HW2 8526   3.177   4.142   4.508
 2836SOL     OW 8527   3.455   3.945   4.606
 2836SOL    HW1 8528   3.371   3.944   4.660
 2836SOL    HW2 8529   3.457   4.028   4.550
 2837SOL     OW 8530   1.901   4.801   4.024
 2837SOL    HW1 8531   2.000   4.790   4.015
 2837SOL    HW2 8532   1.861   4.715   4.056
 2838SOL     OW 8533   3.954   0.628   0.113
 2838SOL    HW1 8534   3.861   0.626   0.150
 2838SOL    HW2 8535   3.955   0.589   0.021
 2839SOL     OW 8536   3.949   0.275   0.996
 2839SOL    HW1 8537   3.984   0.258   1.088
 2839SOL    HW2 8538   3.861   0.230   0.984
 2840SOL     OW 8539   3.743   0.368   0.647
 2840SOL    HW1 8540   3.661   0.411   0.686
 2840SOL    HW2 8541   3.715   0.295   0.584
 2841SOL     OW 8542   4.293   1.275   1.165
 2841SOL    HW1 8543   4.200   1.268   1.128
 2841SOL    HW2 8544   4.304   1.364   1.209
 2842SOL     OW 8545   4.492   1.144   1.023
 2842SOL    HW1 8546   4.414   1.161   1.083
 2842SOL    HW2 8547   4.526   1.231   0.987
 2843SOL     OW 8548   4.574   0.798   1.823
 2843SOL    HW1 8549   4.570   0.874   1.888
 2843SOL    HW2 8550   4.596   0.834   1.732
 2844SOL     OW 8551   4.409   1.012   0.665
 2844SOL    HW1 8552   4.478   0.996   0.735
 2844SOL    HW2 8553   4.336   1.069   0.703
 2845SOL     OW 8554   4.410   1.161   1.803
 2845SOL    HW1 8555   4.470   1.240   1.817
 2845SOL    HW2 8556   4.324   1.192   1.762
 2846SOL     OW 8557   4.059   1.435   1.061
 2846SOL    HW1 8558   3.981   1.404   1.008
 2846SOL    HW2 8559   4.117   1.493   1.004
 2847SOL     OW 8560   4.162   0.392   1.499
 2847SOL    HW1 8561   4.244   0.336   1.508
 2847SOL    HW2 8562   4.081   0.334   1.503
 2848SOL     OW 8563   3.955   1.713   0.483
 2848SOL    HW1 8564   3.989   1.790   0.537
 2848SOL    HW2 8565   3.999   1.713   0.393
 2849SOL     OW 8566   3.954   1.434   0.538
 2849SOL    HW1 8567   3.928   1.530   0.538
 2849SOL    HW2 8568   3.883   1.380   0.583
 2850SOL     OW 8569   3.964   1.091   0.886
 2850SOL    HW1 8570   3.978   1.007   0.938
 2850SOL    HW2 8571   3.909   1.155   0.941
 2851SOL     OW 8572   4.344   1.786   1.439
 2851SOL    HW1 8573   4.252   1.769   1.474
 2851SOL    HW2 8574   4.372   1.878   1.465
 2852SOL     OW 8575   4.330   0.964   0.123
 2852SOL    HW1 8576   4.337   1.048   0.069
 2852SOL    HW2 8577   4.376   0.977   0.211
 2853SOL     OW 8578   3.846   0.643   0.563
 2853SOL    HW1 8579   3.801   0.555   0.580
 2853SOL    HW2 8580   3.845   0.697   0.647
 2854SOL     OW 8581   3.751   1.596   0.117
 2854SOL    HW1 8582   3.732   1.500   0.138
 2854SOL    HW2 8583   3.718   1.654   0.192
 2855SOL     OW 8584   3.837   0.737   1.597
 2855SOL    HW1 8585   3.925   0.724   1.642
 2855SOL    HW2 8586   3.824   0.834   1.575
 2856SOL     OW 8587   4.337   1.365   0.726
 2856SOL    HW1 8588   4.288   1.278   0.735
 2856SOL    HW2 8589   4.314   1.408   0.639
 2857SOL     OW 8590   4.533   0.004   0.502
 2857SOL    HW1 8591   4.573   0.095   0.493
 2857SOL    HW2 8592   4.433   0.012   0.508
 2858SOL     OW 8593   3.921   0.976   1.264
 2858SOL    HW1 8594   4.010   0.931   1.250
 2858SOL    HW2 8595   3.848   0.911   1.245
 2859SOL     OW 8596   4.041   0.251   1.801
 2859SOL    HW1 8597   4.112   0.322   1.807
 2859SOL    HW2 8598   3.953   0.290   1.829
 2860SOL     OW 8599   4.322   0.729   0.270
 2860SOL    HW1 8600   4.346   0.798   0.202
 2860SOL    HW2 8601   4.244   0.762   0.324
 2861SOL     OW 8602   4.531   0.605   1.465
 2861SOL    HW1 8603   4.484   0.602   1.554
 2861SOL    HW2 8604   4.480   0.550   1.399
 2862SOL     OW 8605   4.697   0.890   1.572
 2862SOL    HW1 8606   4.743   0.806   1.543
 2862SOL    HW2 8607   4.641   0.924   1.497
 2863SOL     OW 8608   4.715   0.410   1.242
 2863SOL    HW1 8609   4.638   0.444   1.296
 2863SOL    HW2 8610   4.681   0.359   1.163
 2864SOL     OW 8611   4.765   0.701   0.429
 2864SOL    HW1 8612   4.791   0.697   0.525
 2864SOL    HW2 8613   4.680   0.650   0.415
 2865SOL     OW 8614   3.800   0.811   0.789
 2865SOL    HW1 8615   3.899   0.799   0.798
 2865SOL    HW2 8616   3.776   0.906   0.810
 2866SOL     OW 8617   3.854   1.821   1.571
 2866SOL    HW1 8618   3.844   1.806   1.670
 2866SOL    HW2 8619   3.768   1.857   1.535
 2867SOL     OW 8620   4.589   0.348   0.195
 2867SOL    HW1 8621   4.648   0.411   0.146
 2867SOL    HW2 8622   4.608   0.254   0.166
 2868SOL     OW 8623   4.274   0.196   0.885
 2868SOL    HW1 8624   4.269   0.191   0.985
 2868SOL    HW2 8625   4.276   0.292   0.856
 2869SOL     OW 8626   4.732   1.456   0.477
 2869SOL    HW1 8627   4.686   1.528   0.425
 2869SOL    HW2 8628   4.728   1.476   0.575
 2870SOL     OW 8629   4.075   1.801   0.853
 2870SOL    HW1 8630   4.125   1.715   0.859
 2870SOL    HW2 8631   4.140   1.878   0.850
 2871SOL     OW 8632   4.045   0.943   0.242
 2871SOL    HW1 8633   4.127   0.982   0.200
 2871SOL    HW2 8634   4.018   0.861   0.193
 2872SOL     OW 8635   4.185   1.266   1.727
 2872SOL    HW1 8636   4.135   1.267   1.641
 2872SOL    HW2 8637   4.122   1.248   1.803
 2873SOL     OW 8638   3.926   0.285   1.498
 2873SOL    HW1 8639   3.846   0.345   1.485
 2873SOL    HW2 8640   3.916   0.236   1.584
 2874SOL     OW 8641   4.188   1.743   0.323
 2874SOL    HW1 8642   4.221   1.782   0.409
 2874SOL    HW2 8643   4.264   1.736   0.258
 2875SOL     OW 8644   3.973   1.785   1.241
 2875SOL    HW1 8645   4.030   1.720   1.291
 2875SOL    HW2 8646   3.957   1.752   1.148
 2876SOL     OW 8647   4.664   1.698   0.904
 2876SOL    HW1 8648   4.744   1.641   0.925
 2876SOL    HW2 8649   4.615   1.658   0.827
 2877SOL     OW 8650   4.106   0.700   0.480
 2877SOL    HW1 8651   4.151   0.610   0.477
 2877SOL    HW2 8652   4.012   0.689   0.513
 2878SOL     OW 8653   4.338   0.122   0.117
 2878SOL    HW1 8654   4.436   0.100   0.124
 2878SOL    HW2 8655   4.307   0.105   0.024
 2879SOL     OW 8656   4.505   0.264   1.749
 2879SOL    HW1 8657   4.572   0.203   1.792
 2879SOL    HW2 8658   4.432   0.283   1.814
 2880SOL     OW 8659   4.612   1.514   1.195
 2880SOL    HW1 8660   4.589   1.489   1.101
 2880SOL    HW2 8661   4.673   1.445   1.234
 2881SOL     OW 8662   4.527   1.402   0.924
 2881SOL    HW1 8663   4.617   1.416   0.882
 2881SOL    HW2 8664   4.456   1.404   0.853
 2882SOL     OW 8665   4.646   0.503   0.899
 2882SOL    HW1 8666   4.621   0.494   0.803
 2882SOL    HW2 8667   4.694   0.421   0.930
 2883SOL     OW 8668   4.263   0.064   0.512
 2883SOL    HW1 8669   4.182   0.065   0.570
 2883SOL    HW2 8670   4.266   0.147   0.457
 2884SOL     OW 8671   5.158   1.188   0.041
 2884SOL    HW1 8672   5.190   1.112   0.098
 2884SOL    HW2 8673   5.066   1.215   0.071
 2885SOL     OW 8674   4.021   0.035   0.171
 2885SOL    HW1 8675   4.070   0.119   0.150
 2885SOL    HW2 8676   4.083  -0.030   0.216
 2886SOL     OW 8677   4.659   0.236   0.480
 2886SOL    HW1 8678   4.611   0.277   0.402
 2886SOL    HW2 8679   4.758   0.234   0.461
 2887SOL     OW 8680   4.951   1.570   0.793
 2887SOL    HW1 8681   4.972   1.644   0.728
 2887SOL    HW2 8682   5.019   1.570   0.866
 2888SOL     OW 8683   4.183   1.152   0.741
 2888SOL    HW1 8684   4.112   1.125   0.806
 2888SOL    HW2 8685   4.157   1.124   0.648
 2889SOL     OW 8686   4.756   0.549   0.016
 2889SOL    HW1 8687   4.715   0.631  -0.023
 2889SOL    HW2 8688   4.820   0.575   0.089
 2890SOL     OW 8689   3.802   0.556   1.386
 2890SOL    HW1 8690   3.894   0.555   1.345
 2890SOL    HW2 8691   3.796   0.630   1.453
 2891SOL     OW 8692   4.285   0.222   1.147
 2891SOL    HW1 8693   4.323   0.138   1.184
 2891SOL    HW2 8694   4.197   0.241   1.191
 2892SOL     OW 8695   4.590   0.454   0.642
 2892SOL    HW1 8696   4.558   0.526   0.580
 2892SOL    HW2 8697   4.614   0.373   0.589
 2893SOL     OW 8698   4.741   0.039   0.753
 2893SOL    HW1 8699   4.669   0.044   0.684
 2893SOL    HW2 8700   4.717  -0.030   0.822
 2894SOL     OW 8701   4.212   1.385   0.174
 2894SOL    HW1 8702   4.125   1.370   0.221
 2894SOL    HW2 8703   4.195   1.411   0.079
 2895SOL     OW 8704   4.251   0.256   0.328
 2895SOL    HW1 8705   4.278   0.197   0.253
 2895SOL    HW2 8706   4.251   0.351   0.297
 2896SOL     OW 8707   4.639   0.089   1.402
 2896SOL    HW1 8708   4.664   0.069   1.307
 2896SOL    HW2 8709   4.711   0.145   1.444
 2897SOL     OW 8710   4.704   1.116   1.719
 2897SOL    HW1 8711   4.605   1.122   1.729
 2897SOL    HW2 8712   4.727   1.036   1.663
 2898SOL     OW 8713   4.429   1.050   0.368
 2898SOL    HW1 8714   4.415   1.057   0.467
 2898SOL    HW2 8715   4.513   0.999   0.350
 2899SOL     OW 8716   4.134   0.813   1.251
 2899SOL    HW1 8717   4.220   0.825   1.301
 2899SOL    HW2 8718   4.092   0.726   1.278
 2900SOL     OW 8719   3.788   1.564   1.331
 2900SOL    HW1 8720   3.742   1.646   1.297
 2900SOL    HW2 8721   3.886   1.583   1.340
 2901SOL     OW 8722   4.091   1.100   0.501
 2901SOL    HW1 8723   4.084   1.183   0.445
 2901SOL    HW2 8724   4.095   1.020   0.441
 2902SOL     OW 8725   4.290   0.537   0.865
 2902SOL    HW1 8726   4.302   0.603   0.791
 2902SOL    HW2 8727   4.336   0.571   0.948
 2903SOL     OW 8728   4.078   1.510   1.329
 2903SOL    HW1 8729   4.057   1.466   1.242
 2903SOL    HW2 8730   4.175   1.536   1.332
 2904SOL     OW 8731   4.126   0.751   1.598
 2904SOL    HW1 8732   4.194   0.806   1.551
 2904SOL    HW2 8733   4.166   0.663   1.625
 2905SOL     OW 8734   4.737   0.105   1.770
 2905SOL    HW1 8735   4.743   0.190   1.718
 2905SOL    HW2 8736   4.769   0.029   1.713
 2906SOL     OW 8737   4.228   0.050   1.740
 2906SOL    HW1 8738   4.186  -0.007   1.670
 2906SOL    HW2 8739   4.162   0.119   1.772
 2907SOL     OW 8740   4.297   0.870   1.029
 2907SOL    HW1 8741   4.341   0.959   1.020
 2907SOL    HW2 8742   4.234   0.870   1.106
 2908SOL     OW 8743   4.933   0.525   0.275
 2908SOL    HW1 8744   4.946   0.441   0.329
 2908SOL    HW2 8745   4.904   0.599   0.335
 2909SOL     OW 8746   4.031   0.213   1.231
 2909SOL    HW1 8747   4.008   0.250   1.321
 2909SOL    HW2 8748   4.001   0.118   1.225
 2910SOL     OW 8749   3.761   1.310   1.282
 2910SOL    HW1 8750   3.814   1.261   1.350
 2910SOL    HW2 8751   3.783   1.408   1.287
 2911SOL     OW 8752   4.456   0.634   1.064
 2911SOL    HW1 8753   4.515   0.608   0.988
 2911SOL    HW2 8754   4.428   0.730   1.053
 2912SOL     OW 8755   4.031   0.063   0.618
 2912SOL    HW1 8756   4.020   0.157   0.651
 2912SOL    HW2 8757   4.026   0.000   0.695
 2913SOL     OW 8758   4.747   0.766   0.966
 2913SOL    HW1 8759   4.762   0.787   1.062
 2913SOL    HW2 8760   4.717   0.671   0.957
 2914SOL     OW 8761   4.704   1.573   1.700
 2914SOL    HW1 8762   4.684   1.617   1.612
 2914SOL    HW2 8763   4.743   1.482   1.684
 2915SOL     OW 8764   4.074   0.898   1.804
 2915SOL    HW1 8765   4.150   0.942   1.852
 2915SOL    HW2 8766   4.109   0.851   1.722
 2916SOL     OW 8767   4.043   0.810   0.949
 2916SOL    HW1 8768   4.136   0.846   0.954
 2916SOL    HW2 8769   4.037   0.725   1.001
 2917SOL     OW 8770   4.063   0.509   1.006
 2917SOL    HW1 8771   4.011   0.426   0.989
 2917SOL    HW2 8772   4.140   0.514   0.942
 2918SOL     OW 8773   3.732   1.326   0.200
 2918SOL    HW1 8774   3.639   1.347   0.169
 2918SOL    HW2 8775   3.742   1.227   0.213
 2919SOL     OW 8776   3.812   1.801   0.927
 2919SOL    HW1 8777   3.770   1.715   0.900
 2919SOL    HW2 8778   3.906   1.804   0.893
 2920SOL     OW 8779   4.228   1.568   0.910
 2920SOL    HW1 8780   4.294   1.642   0.919
 2920SOL    HW2 8781   4.272   1.489   0.868
 2921SOL     OW 8782   4.726   0.796   1.238
 2921SOL    HW1 8783   4.767   0.764   1.324
 2921SOL    HW2 8784   4.630   0.769   1.235
 2922SOL     OW 8785   3.764   0.544   1.114
 2922SOL    HW1 8786   3.849   0.511   1.073
 2922SOL    HW2 8787   3.777   0.559   1.212
 2923SOL     OW 8788   3.913   0.520   1.722
 2923SOL    HW1 8789   3.972   0.480   1.652
 2923SOL    HW2 8790   3.855   0.591   1.681
 2924SOL     OW 8791   4.539   0.572   0.325
 2924SOL    HW1 8792   4.546   0.483   0.279
 2924SOL    HW2 8793   4.445   0.606   0.317
 2925SOL     OW 8794   3.976   1.564   1.744
 2925SOL    HW1 8795   3.946   1.621   1.820
 2925SOL    HW2 8796   3.969   1.467   1.770
 2926SOL     OW 8797   4.395   0.464   1.269
 2926SOL    HW1 8798   4.361   0.375   1.239
 2926SOL    HW2 8799   4.421   0.518   1.189
 2927SOL     OW 8800   4.654   1.678   1.465
 2927SOL    HW1 8801   4.630   1.660   1.370
 2927SOL    HW2 8802   4.684   1.772   1.475
 2928SOL     OW 8803   4.197   0.500   0.191
 2928SOL    HW1 8804   4.258   0.580   0.195
 2928SOL    HW2 8805   4.102   0.531   0.198
 2929SOL     OW 8806   3.883   1.137   1.466
 2929SOL    HW1 8807   3.905   1.076   1.542
 2929SOL    HW2 8808   3.893   1.088   1.380
 2930SOL     OW 8809   3.807   1.258   1.022
 2930SOL    HW1 8810   3.802   1.257   1.122
 2930SOL    HW2 8811   3.724   1.217   0.984
 2931SOL     OW 8812   4.412   1.662   1.716
 2931SOL    HW1 8813   4.356   1.743   1.725
 2931SOL    HW2 8814   4.464   1.666   1.630
 2932SOL     OW 8815   4.627   0.086   0.133
 2932SOL    HW1 8816   4.678   0.087   0.047
 2932SOL    HW2 8817   4.683   0.044   0.204
 2933SOL     OW 8818   3.854   1.794   1.851
 2933SOL    HW1 8819   3.813   1.720   1.904
 2933SOL    HW2 8820   3.918   1.845   1.909
 2934SOL     OW 8821   5.004   0.927   0.672
 2934SOL    HW1 8822   5.064   0.846   0.674
 2934SOL    HW2 8823   5.044   0.996   0.612
 2935SOL     OW 8824   4.554   1.273   1.422
 2935SOL    HW1 8825   4.549   1.306   1.517
 2935SOL    HW2 8826   4.468   1.292   1.376
 2936SOL     OW 8827   4.396   1.616   0.154
 2936SOL    HW1 8828   4.405   1.626   0.055
 2936SOL    HW2 8829   4.356   1.527   0.175
 2937SOL     OW 8830   3.987   0.326   0.720
 2937SOL    HW1 8831   3.908   0.377   0.686
 2937SOL    HW2 8832   3.978   0.311   0.818
 2938SOL     OW 8833   4.546   1.002   1.372
 2938SOL    HW1 8834   4.586   1.001   1.280
 2938SOL    HW2 8835   4.556   1.094   1.412
 2939SOL     OW 8836   4.640   0.910   0.291
 2939SOL    HW1 8837   4.703   0.948   0.223
 2939SOL    HW2 8838   4.680   0.827   0.330
 2940SOL     OW 8839   4.096   1.288   1.490
 2940SOL    HW1 8840   4.083   1.381   1.456
 2940SOL    HW2 8841   4.012   1.236   1.477
 2941SOL     OW 8842   4.763   1.098   0.696
 2941SOL    HW1 8843   4.693   1.051   0.750
 2941SOL    HW2 8844   4.822   1.030   0.653
 2942SOL     OW 8845   4.738   0.236   0.971
 2942SOL    HW1 8846   4.730   0.200   0.878
 2942SOL    HW2 8847   4.736   0.160   1.036
 2943SOL     OW 8848   4.314   1.487   0.491
 2943SOL    HW1 8849   4.356   1.429   0.421
 2943SOL    HW2 8850   4.270   1.566   0.447
 2944SOL     OW 8851   3.979   1.348   0.290
 2944SOL    HW1 8852   3.883   1.349   0.263
 2944SOL    HW2 8853   3.991   1.401   0.374
 2945SOL     OW 8854   3.829   1.013   1.726
 2945SOL    HW1 8855   3.752   0.980   1.780
 2945SOL    HW2 8856   3.914   0.983   1.768
 2946SOL     OW 8857   4.396   0.203   1.489
 2946SOL    HW1 8858   4.486   0.187   1.449
 2946SOL    HW2 8859   4.404   0.208   1.588
 2947SOL     OW 8860   3.799   0.345   0.033
 2947SOL    HW1 8861   3.707   0.317   0.004
 2947SOL    HW2 8862   3.830   0.422  -0.023
 2948SOL     OW 8863   3.796   0.166   0.318
 2948SOL    HW1 8864   3.779   0.249   0.264
 2948SOL    HW2 8865   3.886   0.129   0.296
 2949SOL     OW 8866   4.337   0.842   1.431
 2949SOL    HW1 8867   4.393   0.923   1.414
 2949SOL    HW2 8868   4.396   0.762   1.434
 2950SOL     OW 8869   4.440   0.565   1.708
 2950SOL    HW1 8870   4.459   0.630   1.782
 2950SOL    HW2 8871   4.500   0.485   1.717
 2951SOL     OW 8872   4.114   1.741   1.560
 2951SOL    HW1 8873   4.023   1.782   1.558
 2951SOL    HW2 8874   4.107   1.647   1.592
 2952SOL     OW 8875   4.949   0.325   0.449
 2952SOL    HW1 8876   5.014   0.251   0.438
 2952SOL    HW2 8877   4.969   0.375   0.533
 2953SOL     OW 8878   4.318   0.745   0.652
 2953SOL    HW1 8879   4.368   0.830   0.633
 2953SOL    HW2 8880   4.230   0.747   0.604
 2954SOL     OW 8881   4.583   1.374   0.016
 2954SOL    HW1 8882   4.537   1.389   0.104
 2954SOL    HW2 8883   4.627   1.459  -0.014
 2955SOL     OW 8884   4.385   1.790   0.953
 2955SOL    HW1 8885   4.339   1.878   0.940
 2955SOL    HW2 8886   4.484   1.802   0.946
 2956SOL     OW 8887   4.583   0.956   0.861
 2956SOL    HW1 8888   4.637   0.887   0.909
 2956SOL    HW2 8889   4.551   1.025   0.927
 2957SOL     OW 8890   4.807   0.984   0.087
 2957SOL    HW1 8891   4.784   1.037   0.005
 2957SOL    HW2 8892   4.888   0.928   0.068
 2958SOL     OW 8893   3.945   1.314   1.844
 2958SOL    HW1 8894   3.880   1.241   1.823
 2958SOL    HW2 8895   3.949   1.328   1.942
 2959SOL     OW 8896   3.803   1.240   0.653
 2959SOL    HW1 8897   3.802   1.193   0.741
 2959SOL    HW2 8898   3.885   1.212   0.602
 2960SOL     OW 8899   4.396   1.391   1.624
 2960SOL    HW1 8900   4.318   1.341   1.662
 2960SOL    HW2 8901   4.393   1.486   1.655
 2961SOL     OW 8902   4.152   0.424   0.520
 2961SOL    HW1 8903   4.182   0.352   0.458
 2961SOL    HW2 8904   4.113   0.384   0.603
 2962SOL     OW 8905   4.041   0.547   1.280
 2962SOL    HW1 8906   4.079   0.488   1.352
 2962SOL    HW2 8907   4.081   0.521   1.192
 2963SOL     OW 8908   4.536   1.586   0.687
 2963SOL    HW1 8909   4.568   1.596   0.593
 2963SOL    HW2 8910   4.457   1.524   0.689
 2964SOL     OW 8911   4.725   0.034   1.154
 2964SOL    HW1 8912   4.662  -0.038   1.123
 2964SOL    HW2 8913   4.818  -0.002   1.154
 2965SOL     OW 8914   4.494   1.330   0.301
 2965SOL    HW1 8915   4.448   1.243   0.318
 2965SOL    HW2 8916   4.585   1.327   0.342
 2966SOL     OW 8917   4.342   1.567   1.284
 2966SOL    HW1 8918   4.337   1.649   1.341
 2966SOL    HW2 8919   4.431   1.564   1.239
 2967SOL     OW 8920   3.763   1.077   0.300
 2967SOL    HW1 8921   3.862   1.066   0.291
 2967SOL    HW2 8922   3.723   0.991   0.332
 2968SOL     OW 8923   4.599   1.646   0.337
 2968SOL    HW1 8924   4.522   1.611   0.283
 2968SOL    HW2 8925   4.567   1.717   0.399
 2969SOL     OW 8926   3.954   0.628   1.975
 2969SOL    HW1 8927   3.861   0.626   2.012
 2969SOL    HW2 8928   3.955   0.589   1.883
 2970SOL     OW 8929   3.949   0.275   2.858
 2970SOL    HW1 8930   3.984   0.258   2.950
 2970SOL    HW2 8931   3.861   0.230   2.846
 2971SOL     OW 8932   3.743   0.368   2.509
 2971SOL    HW1 8933   3.661   0.411   2.548
 2971SOL    HW2 8934   3.715   0.295   2.446
 2972SOL     OW 8935   4.293   1.275   3.027
 2972SOL    HW1 8936   4.200   1.268   2.990
 2972SOL    HW2 8937   4.304   1.364   3.071
 2973SOL     OW 8938   4.492   1.144   2.885
 2973SOL    HW1 8939   4.414   1.161   2.945
 2973SOL    HW2 8940   4.526   1.231   2.849
 2974SOL     OW 8941   4.574   0.798   3.685
 2974SOL    HW1 8942   4.570   0.874   3.750
 2974SOL    HW2 8943   4.596   0.834   3.594
 2975SOL     OW 8944   4.409   1.012   2.527
 2975SOL    HW1 8945   4.478   0.996   2.597
 2975SOL    HW2 8946   4.336   1.069   2.565
 2976SOL     OW 8947   4.410   1.161   3.665
 2976SOL    HW1 8948   4.470   1.240   3.679
 2976SOL    HW2 8949   4.324   1.192   3.624
 2977SOL     OW 8950   4.059   1.435   2.923
 2977SOL    HW1 8951   3.981   1.404   2.870
 2977SOL    HW2 8952   4.117   1.493   2.866
 2978SOL     OW 8953   4.162   0.392   3.361
 2978SOL    HW1 8954   4.244   0.336   3.370
 2978SOL    HW2 8955   4.081   0.334   3.365
 2979SOL     OW 8956   3.955   1.713   2.345
 2979SOL    HW1 8957   3.989   1.790   2.399
 2979SOL    HW2 8958   3.999   1.713   2.255
 2980SOL     OW 8959   3.954   1.434   2.400
 2980SOL    HW1 8960   3.928   1.530   2.400
 2980SOL    HW2 8961   3.883   1.380   2.445
 2981SOL     OW 8962   3.964   1.091   2.748
 2981SOL    HW1 8963   3.978   1.007   2.800
 2981SOL    HW2 8964   3.909   1.155   2.803
 2982SOL     OW 8965   4.344   1.786   3.301
 2982SOL    HW1 8966   4.252   1.769   3.336
 2982SOL    HW2 8967   4.372   1.878   3.327
 2983SOL     OW 8968   4.330   0.964   1.985
 2983SOL    HW1 8969   4.337   1.048   1.931
 2983SOL    HW2 8970   4.376   0.977   2.073
 2984SOL     OW 8971   3.846   0.643   2.425
 2984SOL    HW1 8972   3.801   0.555   2.442
 2984SOL    HW2 8973   3.845   0.697   2.509
 2985SOL     OW 8974   3.751   1.596   1.979
 2985SOL    HW1 8975   3.732   1.500   2.000
 2985SOL    HW2 8976   3.718   1.654   2.054
 2986SOL     OW 8977   3.837   0.737   3.459
 2986SOL    HW1 8978   3.925   0.724   3.504
 2986SOL    HW2 8979   3.824   0.834   3.437
 2987SOL     OW 8980   4.337   1.365   2.588
 2987SOL    HW1 8981   4.288   1.278   2.597
 2987SOL    HW2 8982   4.314   1.408   2.501
 2988SOL     OW 8983   4.533   0.004   2.364
 2988SOL    HW1 8984   4.573   0.095   2.355
 2988SOL    HW2 8985   4.433   0.012   2.370
 2989SOL     OW 8986   3.921   0.976   3.126
 2989SOL    HW1 8987   4.010   0.931   3.112
 2989SOL    HW2 8988   3.848   0.911   3.107
 2990SOL     OW 8989   4.041   0.251   3.663
 2990SOL    HW1 8990   4.112   0.322   3.669
 2990SOL    HW2 8991   3.953   0.290   3.691
 2991SOL     OW 8992   4.322   0.729   2.132
 2991SOL    HW1 8993   4.346   0.798   2.064
 2991SOL    HW2 8994   4.244   0.762   2.186
 2992SOL     OW 8995   4.531   0.605   3.327
 2992SOL    HW1 8996   4.484   0.602   3.416
 2992SOL    HW2 8997   4.480   0.550   3.261
 2993SOL     OW 8998   4.697   0.890   3.434
 2993SOL    HW1 8999   4.743   0.806   3.405
 2993SOL    HW2 9000   4.641   0.924   3.359
 2994SOL     OW 9001   4.715   0.410   3.104
 2994SOL    HW1 9002   4.638   0.444   3.158
 2994SOL    HW2 9003   4.681   0.359   3.025
 2995SOL     OW 9004   4.765   0.701   2.291
 2995SOL    HW1 9005   4.791   0.697   2.387
 2995SOL    HW2 9006   4.680   0.650   2.277
 2996SOL     OW 9007   3.800   0.811   2.651
 2996SOL    HW1 9008   3.899   0.799   2.660
 2996SOL    HW2 9009   3.776   0.906   2.672
 2997SOL     OW 9010   3.854   1.821   3.433
 2997SOL    HW1 9011   3.844   1.806   3.532
 2997SOL    HW2 9012   3.768   1.857   3.397
 2998SOL     OW 9013   4.589   0.348   2.057
 2998SOL    HW1 9014   4.648   0.411   2.008
 2998SOL    HW2 9015   4.608   0.254   2.028
 2999SOL     OW 9016   4.274   0.196   2.747
 2999SOL    HW1 9017   4.269   0.191   2.847
 2999SOL    HW2 9018   4.276   0.292   2.718
 3000SOL     OW 9019   4.732   1.456   2.339
 3000SOL    HW1 9020   4.686   1.528   2.287
 3000SOL    HW2 9021   4.728   1.476   2.437
 3001SOL     OW 9022   4.075   1.801   2.715
 3001SOL    HW1 9023   4.125   1.715   2.721
 3001SOL    HW2 9024   4.140   1.878   2.712
 3002SOL     OW 9025   4.045   0.943   2.104
 3002SOL    HW1 9026   4.127   0.982   2.062
 3002SOL    HW2 9027   4.018   0.861   2.055
 3003SOL     OW 9028   4.185   1.266   3.589
 3003SOL    HW1 9029   4.135   1.267   3.503
 3003SOL    HW2 9030   4.122   1.248   3.665
 3004SOL     OW 9031   3.926   0.285   3.360
 3004SOL    HW1 9032   3.846   0.345   3.347
 3004SOL    HW2 9033   3.916   0.236   3.446
 3005SOL     OW 9034   4.188   1.743   2.185
 3005SOL    HW1 9035   4.221   1.782   2.271
 3005SOL    HW2 9036   4.264   1.736   2.120
 3006SOL     OW 9037   3.973   1.785   3.103
 3006SOL    HW1 9038   4.030   1.720   3.153
 3006SOL    HW2 9039   3.957   1.752   3.010
 3007SOL     OW 9040   4.664   1.698   2.766
 3007SOL    HW1 9041   4.744   1.641   2.787
 3007SOL    HW2 9042   4.615   1.658   2.689
 3008SOL     OW 9043   4.106   0.700   2.342
 3008SOL    HW1 9044   4.151   0.610   2.339
 3008SOL    HW2 9045   4.012   0.689   2.375
 3009SOL     OW 9046   4.338   0.122   1.979
 3009SOL    HW1 9047   4.436   0.100   1.986
 3009SOL    HW2 9048   4.307   0.105   1.886
 3010SOL     OW 9049   4.505   0.264   3.611
 3010SOL    HW1 9050   4.572   0.203   3.654
 3010SOL    HW2 9051   4.432   0.283   3.676
 3011SOL     OW 9052   4.612   1.514   3.057
 3011SOL    HW1 9053   4.589   1.489   2.963
 3011SOL    HW2 9054   4.673   1.445   3.096
 3012SOL     OW 9055   4.527   1.402   2.786
 3012SOL    HW1 9056   4.617   1.416   2.744
 3012SOL    HW2 9057   4.456   1.404   2.715
 3013SOL     OW 9058   4.646   0.503   2.761
 3013SOL    HW1 9059   4.621   0.494   2.665
 3013SOL    HW2 9060   4.694   0.421   2.792
 3014SOL     OW 9061   4.263   0.064   2.374
 3014SOL    HW1 9062   4.182   0.065   2.432
 3014SOL    HW2 9063   4.266   0.147   2.319
 3015SOL     OW 9064   4.021   0.035   2.033
 3015SOL    HW1 9065   4.070   0.119   2.012
 3015SOL    HW2 9066   4.083  -0.030   2.078
 3016SOL     OW 9067   4.659   0.236   2.342
 3016SOL    HW1 9068   4.611   0.277   2.264
 3016SOL    HW2 9069   4.758   0.234   2.323
 3017SOL     OW 9070   4.951   1.570   2.655
 3017SOL    HW1 9071   4.972   1.644   2.590
 3017SOL    HW2 9072   5.019   1.570   2.728
 3018SOL     OW 9073   4.183   1.152   2.603
 3018SOL    HW1 9074   4.112   1.125   2.668
 3018SOL    HW2 9075   4.157   1.124   2.510
 3019SOL     OW 9076   4.756   0.549   1.878
 3019SOL    HW1 9077   4.715   0.631   1.839
 3019SOL    HW2 9078   4.820   0.575   1.951
 3020SOL     OW 9079   3.802   0.556   3.248
 3020SOL    HW1 9080   3.894   0.555   3.207
 3020SOL    HW2 9081   3.796   0.630   3.315
 3021SOL     OW 9082   4.285   0.222   3.009
 3021SOL    HW1 9083   4.323   0.138   3.046
 3021SOL    HW2 9084   4.197   0.241   3.053
 3022SOL     OW 9085   4.590   0.454   2.504
 3022SOL    HW1 9086   4.558   0.526   2.442
 3022SOL    HW2 9087   4.614   0.373   2.451
 3023SOL     OW 9088   4.741   0.039   2.615
 3023SOL    HW1 9089   4.669   0.044   2.546
 3023SOL    HW2 9090   4.717  -0.030   2.684
 3024SOL     OW 9091   4.212   1.385   2.036
 3024SOL    HW1 9092   4.125   1.370   2.083
 3024SOL    HW2 9093   4.195   1.411   1.941
 3025SOL     OW 9094   4.251   0.256   2.190
 3025SOL    HW1 9095   4.278   0.197   2.115
 3025SOL    HW2 9096   4.251   0.351   2.159
 3026SOL     OW 9097   4.639   0.089   3.264
 3026SOL    HW1 9098   4.664   0.069   3.169
 3026SOL    HW2 9099   4.711   0.145   3.306
 3027SOL     OW 9100   4.704   1.116   3.581
 3027SOL    HW1 9101   4.605   1.122   3.591
 3027SOL    HW2 9102   4.727   1.036   3.525
 3028SOL     OW 9103   4.429   1.050   2.230
 3028SOL    HW1 9104   4.415   1.057   2.329
 3028SOL    HW2 9105   4.513   0.999   2.212
 3029SOL     OW 9106   4.134   0.813   3.113
 3029SOL    HW1 9107   4.220   0.825   3.163
 3029SOL    HW2 9108   4.092   0.726   3.140
 3030SOL     OW 9109   3.788   1.564   3.193
 3030SOL    HW1 9110   3.742   1.646   3.159
 3030SOL    HW2 9111   3.886   1.583   3.202
 3031SOL     OW 9112   4.091   1.100   2.363
 3031SOL    HW1 9113   4.084   1.183   2.307
 3031SOL    HW2 9114   4.095   1.020   2.303
 3032SOL     OW 9115   4.290   0.537   2.727
 3032SOL    HW1 9116   4.302   0.603   2.653
 3032SOL    HW2 9117   4.336   0.571   2.810
 3033SOL     OW 9118   4.078   1.510   3.191
 3033SOL    HW1 9119   4.057   1.466   3.104
 3033SOL    HW2 9120   4.175   1.536   3.194
 3034SOL     OW 9121   4.126   0.751   3.460
 3034SOL    HW1 9122   4.194   0.806   3.413
 3034SOL    HW2 9123   4.166   0.663   3.487
 3035SOL     OW 9124   4.737   0.105   3.632
 3035SOL    HW1 9125   4.743   0.190   3.580
 3035SOL    HW2 9126   4.769   0.029   3.575
 3036SOL     OW 9127   4.228   0.050   3.602
 3036SOL    HW1 9128   4.186  -0.007   3.532
 3036SOL    HW2 9129   4.162   0.119   3.634
 3037SOL     OW 9130   4.297   0.870   2.891
 3037SOL    HW1 9131   4.341   0.959   2.882
 3037SOL    HW2 9132   4.234   0.870   2.968
 3038SOL     OW 9133   4.933   0.525   2.137
 3038SOL    HW1 9134   4.946   0.441   2.191
 3038SOL    HW2 9135   4.904   0.599   2.197
 3039SOL     OW 9136   4.031   0.213   3.093
 3039SOL    HW1 9137   4.008   0.250   3.183
 3039SOL    HW2 9138   4.001   0.118   3.087
 3040SOL     OW 9139   3.761   1.310   3.144
 3040SOL    HW1 9140   3.814   1.261   3.212
 3040SOL    HW2 9141   3.783   1.408   3.149
 3041SOL     OW 9142   4.456   0.634   2.926
 3041SOL    HW1 9143   4.515   0.608   2.850
 3041SOL    HW2 9144   4.428   0.730   2.915
 3042SOL     OW 9145   4.031   0.063   2.480
 3042SOL    HW1 9146   4.020   0.157   2.513
 3042SOL    HW2 9147   4.026   0.000   2.557
 3043SOL     OW 9148   4.747   0.766   2.828
 3043SOL    HW1 9149   4.762   0.787   2.924
 3043SOL    HW2 9150   4.717   0.671   2.819
 3044SOL     OW 9151   4.704   1.573   3.562
 3044SOL    HW1 9152   4.684   1.617   3.474
 3044SOL    HW2 9153   4.743   1.482   3.546
 3045SOL     OW 9154   4.074   0.898   3.666
 3045SOL    HW1 9155   4.150   0.942   3.714
 3045SOL    HW2 9156   4.109   0.851   3.584
 3046SOL     OW 9157   4.043   0.810   2.811
 3046SOL    HW1 9158   4.136   0.846   2.816
 3046SOL    HW2 9159   4.037   0.725   2.863
 3047SOL     OW 9160   4.063   0.509   2.868
 3047SOL    HW1 9161   4.011   0.426   2.851
 3047SOL    HW2 9162   4.140   0.514   2.804
 3048SOL     OW 9163   3.732   1.326   2.062
 3048SOL    HW1 9164   3.639   1.347   2.031
 3048SOL    HW2 9165   3.742   1.227   2.075
 3049SOL     OW 9166   3.812   1.801   2.789
 3049SOL    HW1 9167   3.770   1.715   2.762
 3049SOL    HW2 9168   3.906   1.804   2.755
 3050SOL     OW 9169   4.228   1.568   2.772
 3050SOL    HW1 9170   4.294   1.642   2.781
 3050SOL    HW2 9171   4.272   1.489   2.730
 3051SOL     OW 9172   4.726   0.796   3.100
 3051SOL    HW1 9173   4.767   0.764   3.186
 3051SOL    HW2 9174   4.630   0.769   3.097
 3052SOL     OW 9175   3.764   0.544   2.976
 3052SOL    HW1 9176   3.849   0.511   2.935
 3052SOL    HW2 9177   3.777   0.559   3.074
 3053SOL     OW 9178   3.913   0.520   3.584
 3053SOL    HW1 9179   3.972   0.480   3.514
 3053SOL    HW2 9180   3.855   0.591   3.543
 3054SOL     OW 9181   4.539   0.572   2.187
 3054SOL    HW1 9182   4.546   0.483   2.141
 3054SOL    HW2 9183   4.445   0.606   2.179
 3055SOL     OW 9184   3.976   1.564   3.606
 3055SOL    HW1 9185   3.946   1.621   3.682
 3055SOL    HW2 9186   3.969   1.467   3.632
 3056SOL     OW 9187   4.395   0.464   3.131
 3056SOL    HW1 9188   4.361   0.375   3.101
 3056SOL    HW2 9189   4.421   0.518   3.051
 3057SOL     OW 9190   4.654   1.678   3.327
 3057SOL    HW1 9191   4.630   1.660   3.232
 3057SOL    HW2 9192   4.684   1.772   3.337
 3058SOL     OW 9193   4.197   0.500   2.053
 3058SOL    HW1 9194   4.258   0.580   2.057
 3058SOL    HW2 9195   4.102   0.531   2.060
 3059SOL     OW 9196   3.883   1.137   3.328
 3059SOL    HW1 9197   3.905   1.076   3.404
 3059SOL    HW2 9198   3.893   1.088   3.242
 3060SOL     OW 9199   3.807   1.258   2.884
 3060SOL    HW1 9200   3.802   1.257   2.984
 3060SOL    HW2 9201   3.724   1.217   2.846
 3061SOL     OW 9202   4.412   1.662   3.578
 3061SOL    HW1 9203   4.356   1.743   3.587
 3061SOL    HW2 9204   4.464   1.666   3.492
 3062SOL     OW 9205   3.854   1.794   3.713
 3062SOL    HW1 9206   3.813   1.720   3.766
 3062SOL    HW2 9207   3.918   1.845   3.771
 3063SOL     OW 9208   5.004   0.927   2.534
 3063SOL    HW1 9209   5.064   0.846   2.536
 3063SOL    HW2 9210   5.044   0.996   2.474
 3064SOL     OW 9211   4.554   1.273   3.284
 3064SOL    HW1 9212   4.549   1.306   3.379
 3064SOL    HW2 9213   4.468   1.292   3.238
 3065SOL     OW 9214   4.396   1.616   2.016
 3065SOL    HW1 9215   4.405   1.626   1.917
 3065SOL    HW2 9216   4.356   1.527   2.037
 3066SOL     OW 9217   3.987   0.326   2.582
 3066SOL    HW1 9218   3.908   0.377   2.548
 3066SOL    HW2 9219   3.978   0.311   2.680
 3067SOL     OW 9220   4.546   1.002   3.234
 3067SOL    HW1 9221   4.586   1.001   3.142
 3067SOL    HW2 9222   4.556   1.094   3.274
 3068SOL     OW 9223   4.640   0.910   2.153
 3068SOL    HW1 9224   4.703   0.948   2.085
 3068SOL    HW2 9225   4.680   0.827   2.192
 3069SOL     OW 9226   4.096   1.288   3.352
 3069SOL    HW1 9227   4.083   1.381   3.318
 3069SOL    HW2 9228   4.012   1.236   3.339
 3070SOL     OW 9229   4.763   1.098   2.558
 3070SOL    HW1 9230   4.693   1.051   2.612
 3070SOL    HW2 9231   4.822   1.030   2.515
 3071SOL     OW 9232   4.738   0.236   2.833
 3071SOL    HW1 9233   4.730   0.200   2.740
 3071SOL    HW2 9234   4.736   0.160   2.898
 3072SOL     OW 9235   4.314   1.487   2.353
 3072SOL    HW1 9236   4.356   1.429   2.283
 3072SOL    HW2 9237   4.270   1.566   2.309
 3073SOL     OW 9238   3.979   1.348   2.152
 3073SOL    HW1 9239   3.883   1.349   2.125
 3073SOL    HW2 9240   3.991   1.401   2.236
 3074SOL     OW 9241   3.829   1.013   3.588
 3074SOL    HW1 9242   3.752   0.980   3.642
 3074SOL    HW2 9243   3.914   0.983   3.630
 3075SOL     OW 9244   4.396   0.203   3.351
 3075SOL    HW1 9245   4.486   0.187   3.311
 3075SOL    HW2 9246   4.404   0.208   3.450
 3076SOL     OW 9247   3.799   0.345   1.895
 3076SOL    HW1 9248   3.707   0.317   1.866
 3076SOL    HW2 9249   3.830   0.422   1.839
 3077SOL     OW 9250   3.796   0.166   2.180
 3077SOL    HW1 9251   3.779   0.249   2.126
 3077SOL    HW2 9252   3.886   0.129   2.158
 3078SOL     OW 9253   4.337   0.842   3.293
 3078SOL    HW1 9254   4.393   0.923   3.276
 3078SOL    HW2 9255   4.396   0.762   3.296
 3079SOL     OW 9256   4.440   0.565   3.570
 3079SOL    HW1 9257   4.459   0.630   3.644
 3079SOL    HW2 9258   4.500   0.485   3.579
 3080SOL     OW 9259   4.114   1.741   3.422
 3080SOL    HW1 9260   4.023   1.782   3.420
 3080SOL    HW2 9261   4.107   1.647   3.454
 3081SOL     OW 9262   4.949   0.325   2.311
 3081SOL    HW1 9263   5.014   0.251   2.300
 3081SOL    HW2 9264   4.969   0.375   2.395
 3082SOL     OW 9265   4.318   0.745   2.514
 3082SOL    HW1 9266   4.368   0.830   2.495
 3082SOL    HW2 9267   4.230   0.747   2.466
 3083SOL     OW 9268   4.583   1.374   1.878
 3083SOL    HW1 9269   4.537   1.389   1.966
 3083SOL    HW2 9270   4.627   1.459   1.848
 3084SOL     OW 9271   4.385   1.790   2.815
 3084SOL    HW1 9272   4.339   1.878   2.802
 3084SOL    HW2 9273   4.484   1.802   2.808
 3085SOL     OW 9274   4.583   0.956   2.723
 3085SOL    HW1 9275   4.637   0.887   2.771
 3085SOL    HW2 9276   4.551   1.025   2.789
 3086SOL     OW 9277   3.945   1.314   3.706
 3086SOL    HW1 9278   3.880   1.241   3.685
 3086SOL    HW2 9279   3.949   1.328   3.804
 3087SOL     OW 9280   3.803   1.240   2.515
 3087SOL    HW1 9281   3.802   1.193   2.603
 3087SOL    HW2 9282   3.885   1.212   2.464
 3088SOL     OW 9283   4.396   1.391   3.486
 3088SOL    HW1 9284   4.318   1.341   3.524
 3088SOL    HW2 9285   4.393   1.486   3.517
 3089SOL     OW 9286   4.152   0.424   2.382
 3089SOL    HW1 9287   4.182   0.352   2.320
 3089SOL    HW2 9288   4.113   0.384   2.465
 3090SOL     OW 9289   4.041   0.547   3.142
 3090SOL    HW1 9290   4.079   0.488   3.214
 3090SOL    HW2 9291   4.081   0.521   3.054
 3091SOL     OW 9292   4.536   1.586   2.549
 3091SOL    HW1 9293   4.568   1.596   2.455
 3091SOL    HW2 9294   4.457   1.524   2.551
 3092SOL     OW 9295   4.725   0.034   3.016
 3092SOL    HW1 9296   4.662  -0.038   2.985
 3092SOL    HW2 9297   4.818  -0.002   3.016
 3093SOL     OW 9298   4.494   1.330   2.163
 3093SOL    HW1 9299   4.448   1.243   2.180
 3093SOL    HW2 9300   4.585   1.327   2.204
 3094SOL     OW 9301   4.342   1.567   3.146
 3094SOL    HW1 9302   4.337   1.649   3.203
 3094SOL    HW2 9303   4.431   1.564   3.101
 3095SOL     OW 9304   3.763   1.077   2.162
 3095SOL    HW1 9305   3.862   1.066   2.153
 3095SOL    HW2 9306   3.723   0.991   2.194
 3096SOL     OW 9307   4.599   1.646   2.199
 3096SOL    HW1 9308   4.522   1.611   2.145
 3096SOL    HW2 9309   4.567   1.717   2.261
 3097SOL     OW 9310   3.954   0.628   3.837
 3097SOL    HW1 9311   3.861   0.626   3.874
 3097SOL    HW2 9312   3.955   0.589   3.745
 3098SOL     OW 9313   3.949   0.275   4.720
 3098SOL    HW1 9314   3.984   0.258   4.812
 3098SOL    HW2 9315   3.861   0.230   4.708
 3099SOL     OW 9316   3.743   0.368   4.371
 3099SOL    HW1 9317   3.661   0.411   4.410
 3099SOL    HW2 9318   3.715   0.295   4.308
 3100SOL     OW 9319   4.492   1.144   4.747
 3100SOL    HW1 9320   4.414   1.161   4.807
 3100SOL    HW2 9321   4.526   1.231   4.711
 3101SOL     OW 9322   4.409   1.012   4.389
 3101SOL    HW1 9323   4.478   0.996   4.459
 3101SOL    HW2 9324   4.336   1.069   4.427
 3102SOL     OW 9325   4.059   1.435   4.785
 3102SOL    HW1 9326   3.981   1.404   4.732
 3102SOL    HW2 9327   4.117   1.493   4.728
 3103SOL     OW 9328   3.955   1.713   4.207
 3103SOL    HW1 9329   3.989   1.790   4.261
 3103SOL    HW2 9330   3.999   1.713   4.117
 3104SOL     OW 9331   3.954   1.434   4.262
 3104SOL    HW1 9332   3.928   1.530   4.262
 3104SOL    HW2 9333   3.883   1.380   4.307
 3105SOL     OW 9334   3.964   1.091   4.610
 3105SOL    HW1 9335   3.978   1.007   4.662
 3105SOL    HW2 9336   3.909   1.155   4.665
 3106SOL     OW 9337   4.330   0.964   3.847
 3106SOL    HW1 9338   4.337   1.048   3.793
 3106SOL    HW2 9339   4.376   0.977   3.935
 3107SOL     OW 9340   3.846   0.643   4.287
 3107SOL    HW1 9341   3.801   0.555   4.304
 3107SOL    HW2 9342   3.845   0.697   4.371
 3108SOL     OW 9343   3.751   1.596   3.841
 3108SOL    HW1 9344   3.732   1.500   3.862
 3108SOL    HW2 9345   3.718   1.654   3.916
 3109SOL     OW 9346   4.337   1.365   4.450
 3109SOL    HW1 9347   4.288   1.278   4.459
 3109SOL    HW2 9348   4.314   1.408   4.363
 3110SOL     OW 9349   4.533   0.004   4.226
 3110SOL    HW1 9350   4.573   0.095   4.217
 3110SOL    HW2 9351   4.433   0.012   4.232
 3111SOL     OW 9352   4.322   0.729   3.994
 3111SOL    HW1 9353   4.346   0.798   3.926
 3111SOL    HW2 9354   4.244   0.762   4.048
 3112SOL     OW 9355   4.765   0.701   4.153
 3112SOL    HW1 9356   4.791   0.697   4.249
 3112SOL    HW2 9357   4.680   0.650   4.139
 3113SOL     OW 9358   3.800   0.811   4.513
 3113SOL    HW1 9359   3.899   0.799   4.522
 3113SOL    HW2 9360   3.776   0.906   4.534
 3114SOL     OW 9361   4.589   0.348   3.919
 3114SOL    HW1 9362   4.648   0.411   3.870
 3114SOL    HW2 9363   4.608   0.254   3.890
 3115SOL     OW 9364   4.274   0.196   4.609
 3115SOL    HW1 9365   4.269   0.191   4.709
 3115SOL    HW2 9366   4.276   0.292   4.580
 3116SOL     OW 9367   4.732   1.456   4.201
 3116SOL    HW1 9368   4.686   1.528   4.149
 3116SOL    HW2 9369   4.728   1.476   4.299
 3117SOL     OW 9370   4.075   1.801   4.577
 3117SOL    HW1 9371   4.125   1.715   4.583
 3117SOL    HW2 9372   4.140   1.878   4.574
 3118SOL     OW 9373   4.045   0.943   3.966
 3118SOL    HW1 9374   4.127   0.982   3.924
 3118SOL    HW2 9375   4.018   0.861   3.917
 3119SOL     OW 9376   4.188   1.743   4.047
 3119SOL    HW1 9377   4.221   1.782   4.133
 3119SOL    HW2 9378   4.264   1.736   3.982
 3120SOL     OW 9379   3.973   1.785   4.965
 3120SOL    HW1 9380   4.030   1.720   5.015
 3120SOL    HW2 9381   3.957   1.752   4.872
 3121SOL     OW 9382   4.664   1.698   4.628
 3121SOL    HW1 9383   4.744   1.641   4.649
 3121SOL    HW2 9384   4.615   1.658   4.551
 3122SOL     OW 9385   4.106   0.700   4.204
 3122SOL    HW1 9386   4.151   0.610   4.201
 3122SOL    HW2 9387   4.012   0.689   4.237
 3123SOL     OW 9388   4.338   0.122   3.841
 3123SOL    HW1 9389   4.436   0.100   3.848
 3123SOL    HW2 9390   4.307   0.105   3.748
 3124SOL     OW 9391   4.527   1.402   4.648
 3124SOL    HW1 9392   4.617   1.416   4.606
 3124SOL    HW2 9393   4.456   1.404   4.577
 3125SOL     OW 9394   4.646   0.503   4.623
 3125SOL    HW1 9395   4.621   0.494   4.527
 3125SOL    HW2 9396   4.694   0.421   4.654
 3126SOL     OW 9397   4.263   0.064   4.236
 3126SOL    HW1 9398   4.182   0.065   4.294
 3126SOL    HW2 9399   4.266   0.147   4.181
 3127SOL     OW 9400   4.021   0.035   3.895
 3127SOL    HW1 9401   4.070   0.119   3.874
 3127SOL    HW2 9402   4.083  -0.030   3.940
 3128SOL     OW 9403   4.659   0.236   4.204
 3128SOL    HW1 9404   4.611   0.277   4.126
 3128SOL    HW2 9405   4.758   0.234   4.185
 3129SOL     OW 9406   4.951   1.570   4.517
 3129SOL    HW1 9407   4.972   1.644   4.452
 3129SOL    HW2 9408   5.019   1.570   4.590
 3130SOL     OW 9409   4.183   1.152   4.465
 3130SOL    HW1 9410   4.112   1.125   4.530
 3130SOL    HW2 9411   4.157   1.124   4.372
 3131SOL     OW 9412   4.756   0.549   3.740
 3131SOL    HW1 9413   4.715   0.631   3.701
 3131SOL    HW2 9414   4.820   0.575   3.813
 3132SOL     OW 9415   4.590   0.454   4.366
 3132SOL    HW1 9416   4.558   0.526   4.304
 3132SOL    HW2 9417   4.614   0.373   4.313
 3133SOL     OW 9418   4.741   0.039   4.477
 3133SOL    HW1 9419   4.669   0.044   4.408
 3133SOL    HW2 9420   4.717  -0.030   4.546
 3134SOL     OW 9421   4.212   1.385   3.898
 3134SOL    HW1 9422   4.125   1.370   3.945
 3134SOL    HW2 9423   4.195   1.411   3.803
 3135SOL     OW 9424   4.251   0.256   4.052
 3135SOL    HW1 9425   4.278   0.197   3.977
 3135SOL    HW2 9426   4.251   0.351   4.021
 3136SOL     OW 9427   4.429   1.050   4.092
 3136SOL    HW1 9428   4.415   1.057   4.191
 3136SOL    HW2 9429   4.513   0.999   4.074
 3137SOL     OW 9430   4.091   1.100   4.225
 3137SOL    HW1 9431   4.084   1.183   4.169
 3137SOL    HW2 9432   4.095   1.020   4.165
 3138SOL     OW 9433   4.290   0.537   4.589
 3138SOL    HW1 9434   4.302   0.603   4.515
 3138SOL    HW2 9435   4.336   0.571   4.672
 3139SOL     OW 9436   4.297   0.870   4.753
 3139SOL    HW1 9437   4.341   0.959   4.744
 3139SOL    HW2 9438   4.234   0.870   4.830
 3140SOL     OW 9439   4.933   0.525   3.999
 3140SOL    HW1 9440   4.946   0.441   4.053
 3140SOL    HW2 9441   4.904   0.599   4.059
 3141SOL     OW 9442   4.456   0.634   4.788
 3141SOL    HW1 9443   4.515   0.608   4.712
 3141SOL    HW2 9444   4.428   0.730   4.777
 3142SOL     OW 9445   4.031   0.063   4.342
 3142SOL    HW1 9446   4.020   0.157   4.375
 3142SOL    HW2 9447   4.026   0.000   4.419
 3143SOL     OW 9448   4.043   0.810   4.673
 3143SOL    HW1 9449   4.136   0.846   4.678
 3143SOL    HW2 9450   4.037   0.725   4.725
 3144SOL     OW 9451   4.063   0.509   4.730
 3144SOL    HW1 9452   4.011   0.426   4.713
 3144SOL    HW2 9453   4.140   0.514   4.666
 3145SOL     OW 9454   3.732   1.326   3.924
 3145SOL    HW1 9455   3.639   1.347   3.893
 3145SOL    HW2 9456   3.742   1.227   3.937
 3146SOL     OW 9457   3.812   1.801   4.651
 3146SOL    HW1 9458   3.770   1.715   4.624
 3146SOL    HW2 9459   3.906   1.804   4.617
 3147SOL     OW 9460   4.228   1.568   4.634
 3147SOL    HW1 9461   4.294   1.642   4.643
 3147SOL    HW2 9462   4.272   1.489   4.592
 3148SOL     OW 9463   4.726   0.796   4.962
 3148SOL    HW1 9464   4.767   0.764   5.048
 3148SOL    HW2 9465   4.630   0.769   4.959
 3149SOL     OW 9466   4.539   0.572   4.049
 3149SOL    HW1 9467   4.546   0.483   4.003
 3149SOL    HW2 9468   4.445   0.606   4.041
 3150SOL     OW 9469   4.395   0.464   4.993
 3150SOL    HW1 9470   4.361   0.375   4.963
 3150SOL    HW2 9471   4.421   0.518   4.913
 3151SOL     OW 9472   4.197   0.500   3.915
 3151SOL    HW1 9473   4.258   0.580   3.919
 3151SOL    HW2 9474   4.102   0.531   3.922
 3152SOL     OW 9475   3.807   1.258   4.746
 3152SOL    HW1 9476   3.802   1.257   4.846
 3152SOL    HW2 9477   3.724   1.217   4.708
 3153SOL     OW 9478   5.004   0.927   4.396
 3153SOL    HW1 9479   5.064   0.846   4.398
 3153SOL    HW2 9480   5.044   0.996   4.336
 3154SOL     OW 9481   4.396   1.616   3.878
 3154SOL    HW1 9482   4.405   1.626   3.779
 3154SOL    HW2 9483   4.356   1.527   3.899
 3155SOL     OW 9484   3.987   0.326   4.444
 3155SOL    HW1 9485   3.908   0.377   4.410
 3155SOL    HW2 9486   3.978   0.311   4.542
 3156SOL     OW 9487   4.640   0.910   4.015
 3156SOL    HW1 9488   4.703   0.948   3.947
 3156SOL    HW2 9489   4.680   0.827   4.054
 3157SOL     OW 9490   4.763   1.098   4.420
 3157SOL    HW1 9491   4.693   1.051   4.474
 3157SOL    HW2 9492   4.822   1.030   4.377
 3158SOL     OW 9493   4.738   0.236   4.695
 3158SOL    HW1 9494   4.730   0.200   4.602
 3158SOL    HW2 9495   4.736   0.160   4.760
 3159SOL     OW 9496   4.314   1.487   4.215
 3159SOL    HW1 9497   4.356   1.429   4.145
 3159SOL    HW2 9498   4.270   1.566   4.171
 3160SOL     OW 9499   3.979   1.348   4.014
 3160SOL    HW1 9500   3.883   1.349   3.987
 3160SOL    HW2 9501   3.991   1.401   4.098
 3161SOL     OW 9502   3.799   0.345   3.757
 3161SOL    HW1 9503   3.707   0.317   3.728
 3161SOL    HW2 9504   3.830   0.422   3.701
 3162SOL     OW 9505   3.796   0.166   4.042
 3162SOL    HW1 9506   3.779   0.249   3.988
 3162SOL    HW2 9507   3.886   0.129   4.020
 3163SOL     OW 9508   4.949   0.325   4.173
 3163SOL    HW1 9509   5.014   0.251   4.162
 3163SOL    HW2 9510   4.969   0.375   4.257
 3164SOL     OW 9511   4.318   0.745   4.376
 3164SOL    HW1 9512   4.368   0.830   4.357
 3164SOL    HW2 9513   4.230   0.747   4.328
 3165SOL     OW 9514   4.583   1.374   3.740
 3165SOL    HW1 9515   4.537   1.389   3.828
 3165SOL    HW2 9516   4.627   1.459   3.710
 3166SOL     OW 9517   4.385   1.790   4.677
 3166SOL    HW1 9518   4.339   1.878   4.664
 3166SOL    HW2 9519   4.484   1.802   4.670
 3167SOL     OW 9520   4.583   0.956   4.585
 3167SOL    HW1 9521   4.637   0.887   4.633
 3167SOL    HW2 9522   4.551   1.025   4.651
 3168SOL     OW 9523   3.803   1.240   4.377
 3168SOL    HW1 9524   3.802   1.193   4.465
 3168SOL    HW2 9525   3.885   1.212   4.326
 3169SOL     OW 9526   4.152   0.424   4.244
 3169SOL    HW1 9527   4.182   0.352   4.182
 3169SOL    HW2 9528   4.113   0.384   4.327
 3170SOL     OW 9529   4.536   1.586   4.411
 3170SOL    HW1 9530   4.568   1.596   4.317
 3170SOL    HW2 9531   4.457   1.524   4.413
 3171SOL     OW 9532   4.494   1.330   4.025
 3171SOL    HW1 9533   4.448   1.243   4.042
 3171SOL    HW2 9534   4.585   1.327   4.066
 3172SOL     OW 9535   3.763   1.077   4.024
 3172SOL    HW1 9536   3.862   1.066   4.015
 3172SOL    HW2 9537   3.723   0.991   4.056
 3173SOL     OW 9538   4.599   1.646   4.061
 3173SOL    HW1 9539   4.522   1.611   4.007
 3173SOL    HW2 9540   4.567   1.717   4.123
 3174SOL     OW 9541   3.954   2.490   0.113
 3174SOL    HW1 9542   3.861   2.488   0.150
 3174SOL    HW2 9543   3.955   2.451   0.021
 3175SOL     OW 9544   3.949   2.137   0.996
 3175SOL    HW1 9545   3.984   2.120   1.088
 3175SOL    HW2 9546   3.861   2.092   0.984
 3176SOL     OW 9547   3.743   2.230   0.647
 3176SOL    HW1 9548   3.661   2.273   0.686
 3176SOL    HW2 9549   3.715   2.157   0.584
 3177SOL     OW 9550   4.293   3.137   1.165
 3177SOL    HW1 9551   4.200   3.130   1.128
 3177SOL    HW2 9552   4.304   3.226   1.209
 3178SOL     OW 9553   4.492   3.006   1.023
 3178SOL    HW1 9554   4.414   3.023   1.083
 3178SOL    HW2 9555   4.526   3.093   0.987
 3179SOL     OW 9556   4.574   2.660   1.823
 3179SOL    HW1 9557   4.570   2.736   1.888
 3179SOL    HW2 9558   4.596   2.696   1.732
 3180SOL     OW 9559   4.409   2.874   0.665
 3180SOL    HW1 9560   4.478   2.858   0.735
 3180SOL    HW2 9561   4.336   2.931   0.703
 3181SOL     OW 9562   4.410   3.023   1.803
 3181SOL    HW1 9563   4.470   3.102   1.817
 3181SOL    HW2 9564   4.324   3.054   1.762
 3182SOL     OW 9565   4.059   3.297   1.061
 3182SOL    HW1 9566   3.981   3.266   1.008
 3182SOL    HW2 9567   4.117   3.355   1.004
 3183SOL     OW 9568   4.162   2.254   1.499
 3183SOL    HW1 9569   4.244   2.198   1.508
 3183SOL    HW2 9570   4.081   2.196   1.503
 3184SOL     OW 9571   3.955   3.575   0.483
 3184SOL    HW1 9572   3.989   3.652   0.537
 3184SOL    HW2 9573   3.999   3.575   0.393
 3185SOL     OW 9574   3.954   3.296   0.538
 3185SOL    HW1 9575   3.928   3.392   0.538
 3185SOL    HW2 9576   3.883   3.242   0.583
 3186SOL     OW 9577   3.964   2.953   0.886
 3186SOL    HW1 9578   3.978   2.869   0.938
 3186SOL    HW2 9579   3.909   3.017   0.941
 3187SOL     OW 9580   4.344   3.648   1.439
 3187SOL    HW1 9581   4.252   3.631   1.474
 3187SOL    HW2 9582   4.372   3.740   1.465
 3188SOL     OW 9583   4.330   2.826   0.123
 3188SOL    HW1 9584   4.337   2.910   0.069
 3188SOL    HW2 9585   4.376   2.839   0.211
 3189SOL     OW 9586   3.846   2.505   0.563
 3189SOL    HW1 9587   3.801   2.417   0.580
 3189SOL    HW2 9588   3.845   2.559   0.647
 3190SOL     OW 9589   3.751   3.458   0.117
 3190SOL    HW1 9590   3.732   3.362   0.138
 3190SOL    HW2 9591   3.718   3.516   0.192
 3191SOL     OW 9592   3.837   2.599   1.597
 3191SOL    HW1 9593   3.925   2.586   1.642
 3191SOL    HW2 9594   3.824   2.696   1.575
 3192SOL     OW 9595   4.337   3.227   0.726
 3192SOL    HW1 9596   4.288   3.140   0.735
 3192SOL    HW2 9597   4.314   3.270   0.639
 3193SOL     OW 9598   4.533   1.866   0.502
 3193SOL    HW1 9599   4.573   1.957   0.493
 3193SOL    HW2 9600   4.433   1.874   0.508
 3194SOL     OW 9601   3.921   2.838   1.264
 3194SOL    HW1 9602   4.010   2.793   1.250
 3194SOL    HW2 9603   3.848   2.773   1.245
 3195SOL     OW 9604   4.041   2.113   1.801
 3195SOL    HW1 9605   4.112   2.184   1.807
 3195SOL    HW2 9606   3.953   2.152   1.829
 3196SOL     OW 9607   4.322   2.591   0.270
 3196SOL    HW1 9608   4.346   2.660   0.202
 3196SOL    HW2 9609   4.244   2.624   0.324
 3197SOL     OW 9610   4.531   2.467   1.465
 3197SOL    HW1 9611   4.484   2.464   1.554
 3197SOL    HW2 9612   4.480   2.412   1.399
 3198SOL     OW 9613   4.697   2.752   1.572
 3198SOL    HW1 9614   4.743   2.668   1.543
 3198SOL    HW2 9615   4.641   2.786   1.497
 3199SOL     OW 9616   4.715   2.272   1.242
 3199SOL    HW1 9617   4.638   2.306   1.296
 3199SOL    HW2 9618   4.681   2.221   1.163
 3200SOL     OW 9619   4.765   2.563   0.429
 3200SOL    HW1 9620   4.791   2.559   0.525
 3200SOL    HW2 9621   4.680   2.512   0.415
 3201SOL     OW 9622   3.800   2.673   0.789
 3201SOL    HW1 9623   3.899   2.661   0.798
 3201SOL    HW2 9624   3.776   2.768   0.810
 3202SOL     OW 9625   3.854   3.683   1.571
 3202SOL    HW1 9626   3.844   3.668   1.670
 3202SOL    HW2 9627   3.768   3.719   1.535
 3203SOL     OW 9628   4.589   2.210   0.195
 3203SOL    HW1 9629   4.648   2.273   0.146
 3203SOL    HW2 9630   4.608   2.116   0.166
 3204SOL     OW 9631   4.274   2.058   0.885
 3204SOL    HW1 9632   4.269   2.053   0.985
 3204SOL    HW2 9633   4.276   2.154   0.856
 3205SOL     OW 9634   4.732   3.318   0.477
 3205SOL    HW1 9635   4.686   3.390   0.425
 3205SOL    HW2 9636   4.728   3.338   0.575
 3206SOL     OW 9637   4.075   3.663   0.853
 3206SOL    HW1 9638   4.125   3.577   0.859
 3206SOL    HW2 9639   4.140   3.740   0.850
 3207SOL     OW 9640   4.045   2.805   0.242
 3207SOL    HW1 9641   4.127   2.844   0.200
 3207SOL    HW2 9642   4.018   2.723   0.193
 3208SOL     OW 9643   4.185   3.128   1.727
 3208SOL    HW1 9644   4.135   3.129   1.641
 3208SOL    HW2 9645   4.122   3.110   1.803
 3209SOL     OW 9646   3.926   2.147   1.498
 3209SOL    HW1 9647   3.846   2.207   1.485
 3209SOL    HW2 9648   3.916   2.098   1.584
 3210SOL     OW 9649   4.188   3.605   0.323
 3210SOL    HW1 9650   4.221   3.644   0.409
 3210SOL    HW2 9651   4.264   3.598   0.258
 3211SOL     OW 9652   3.973   3.647   1.241
 3211SOL    HW1 9653   4.030   3.582   1.291
 3211SOL    HW2 9654   3.957   3.614   1.148
 3212SOL     OW 9655   4.664   3.560   0.904
 3212SOL    HW1 9656   4.744   3.503   0.925
 3212SOL    HW2 9657   4.615   3.520   0.827
 3213SOL     OW 9658   4.106   2.562   0.480
 3213SOL    HW1 9659   4.151   2.472   0.477
 3213SOL    HW2 9660   4.012   2.551   0.513
 3214SOL     OW 9661   4.338   1.984   0.117
 3214SOL    HW1 9662   4.436   1.962   0.124
 3214SOL    HW2 9663   4.307   1.967   0.024
 3215SOL     OW 9664   4.505   2.126   1.749
 3215SOL    HW1 9665   4.572   2.065   1.792
 3215SOL    HW2 9666   4.432   2.145   1.814
 3216SOL     OW 9667   4.612   3.376   1.195
 3216SOL    HW1 9668   4.589   3.351   1.101
 3216SOL    HW2 9669   4.673   3.307   1.234
 3217SOL     OW 9670   4.527   3.264   0.924
 3217SOL    HW1 9671   4.617   3.278   0.882
 3217SOL    HW2 9672   4.456   3.266   0.853
 3218SOL     OW 9673   4.646   2.365   0.899
 3218SOL    HW1 9674   4.621   2.356   0.803
 3218SOL    HW2 9675   4.694   2.283   0.930
 3219SOL     OW 9676   4.263   1.926   0.512
 3219SOL    HW1 9677   4.182   1.927   0.570
 3219SOL    HW2 9678   4.266   2.009   0.457
 3220SOL     OW 9679   5.158   3.050   0.041
 3220SOL    HW1 9680   5.190   2.974   0.098
 3220SOL    HW2 9681   5.066   3.077   0.071
 3221SOL     OW 9682   4.659   2.098   0.480
 3221SOL    HW1 9683   4.611   2.139   0.402
 3221SOL    HW2 9684   4.758   2.096   0.461
 3222SOL     OW 9685   4.951   3.432   0.793
 3222SOL    HW1 9686   4.972   3.506   0.728
 3222SOL    HW2 9687   5.019   3.432   0.866
 3223SOL     OW 9688   4.183   3.014   0.741
 3223SOL    HW1 9689   4.112   2.987   0.806
 3223SOL    HW2 9690   4.157   2.986   0.648
 3224SOL     OW 9691   4.756   2.411   0.016
 3224SOL    HW1 9692   4.715   2.493  -0.023
 3224SOL    HW2 9693   4.820   2.437   0.089
 3225SOL     OW 9694   3.802   2.418   1.386
 3225SOL    HW1 9695   3.894   2.417   1.345
 3225SOL    HW2 9696   3.796   2.492   1.453
 3226SOL     OW 9697   4.285   2.084   1.147
 3226SOL    HW1 9698   4.323   2.000   1.184
 3226SOL    HW2 9699   4.197   2.103   1.191
 3227SOL     OW 9700   4.590   2.316   0.642
 3227SOL    HW1 9701   4.558   2.388   0.580
 3227SOL    HW2 9702   4.614   2.235   0.589
 3228SOL     OW 9703   4.741   1.901   0.753
 3228SOL    HW1 9704   4.669   1.906   0.684
 3228SOL    HW2 9705   4.717   1.832   0.822
 3229SOL     OW 9706   4.212   3.247   0.174
 3229SOL    HW1 9707   4.125   3.232   0.221
 3229SOL    HW2 9708   4.195   3.273   0.079
 3230SOL     OW 9709   4.251   2.118   0.328
 3230SOL    HW1 9710   4.278   2.059   0.253
 3230SOL    HW2 9711   4.251   2.213   0.297
 3231SOL     OW 9712   4.639   1.951   1.402
 3231SOL    HW1 9713   4.664   1.931   1.307
 3231SOL    HW2 9714   4.711   2.007   1.444
 3232SOL     OW 9715   4.704   2.978   1.719
 3232SOL    HW1 9716   4.605   2.984   1.729
 3232SOL    HW2 9717   4.727   2.898   1.663
 3233SOL     OW 9718   4.429   2.912   0.368
 3233SOL    HW1 9719   4.415   2.919   0.467
 3233SOL    HW2 9720   4.513   2.861   0.350
 3234SOL     OW 9721   4.134   2.675   1.251
 3234SOL    HW1 9722   4.220   2.687   1.301
 3234SOL    HW2 9723   4.092   2.588   1.278
 3235SOL     OW 9724   3.788   3.426   1.331
 3235SOL    HW1 9725   3.742   3.508   1.297
 3235SOL    HW2 9726   3.886   3.445   1.340
 3236SOL     OW 9727   4.091   2.962   0.501
 3236SOL    HW1 9728   4.084   3.045   0.445
 3236SOL    HW2 9729   4.095   2.882   0.441
 3237SOL     OW 9730   4.290   2.399   0.865
 3237SOL    HW1 9731   4.302   2.465   0.791
 3237SOL    HW2 9732   4.336   2.433   0.948
 3238SOL     OW 9733   4.078   3.372   1.329
 3238SOL    HW1 9734   4.057   3.328   1.242
 3238SOL    HW2 9735   4.175   3.398   1.332
 3239SOL     OW 9736   4.126   2.613   1.598
 3239SOL    HW1 9737   4.194   2.668   1.551
 3239SOL    HW2 9738   4.166   2.525   1.625
 3240SOL     OW 9739   4.737   1.967   1.770
 3240SOL    HW1 9740   4.743   2.052   1.718
 3240SOL    HW2 9741   4.769   1.891   1.713
 3241SOL     OW 9742   4.228   1.912   1.740
 3241SOL    HW1 9743   4.186   1.855   1.670
 3241SOL    HW2 9744   4.162   1.981   1.772
 3242SOL     OW 9745   4.297   2.732   1.029
 3242SOL    HW1 9746   4.341   2.821   1.020
 3242SOL    HW2 9747   4.234   2.732   1.106
 3243SOL     OW 9748   4.933   2.387   0.275
 3243SOL    HW1 9749   4.946   2.303   0.329
 3243SOL    HW2 9750   4.904   2.461   0.335
 3244SOL     OW 9751   4.031   2.075   1.231
 3244SOL    HW1 9752   4.008   2.112   1.321
 3244SOL    HW2 9753   4.001   1.980   1.225
 3245SOL     OW 9754   3.761   3.172   1.282
 3245SOL    HW1 9755   3.814   3.123   1.350
 3245SOL    HW2 9756   3.783   3.270   1.287
 3246SOL     OW 9757   4.456   2.496   1.064
 3246SOL    HW1 9758   4.515   2.470   0.988
 3246SOL    HW2 9759   4.428   2.592   1.053
 3247SOL     OW 9760   4.031   1.925   0.618
 3247SOL    HW1 9761   4.020   2.019   0.651
 3247SOL    HW2 9762   4.026   1.862   0.695
 3248SOL     OW 9763   4.747   2.628   0.966
 3248SOL    HW1 9764   4.762   2.649   1.062
 3248SOL    HW2 9765   4.717   2.533   0.957
 3249SOL     OW 9766   4.704   3.435   1.700
 3249SOL    HW1 9767   4.684   3.479   1.612
 3249SOL    HW2 9768   4.743   3.344   1.684
 3250SOL     OW 9769   4.074   2.760   1.804
 3250SOL    HW1 9770   4.150   2.804   1.852
 3250SOL    HW2 9771   4.109   2.713   1.722
 3251SOL     OW 9772   4.043   2.672   0.949
 3251SOL    HW1 9773   4.136   2.708   0.954
 3251SOL    HW2 9774   4.037   2.587   1.001
 3252SOL     OW 9775   4.063   2.371   1.006
 3252SOL    HW1 9776   4.011   2.288   0.989
 3252SOL    HW2 9777   4.140   2.376   0.942
 3253SOL     OW 9778   3.732   3.188   0.200
 3253SOL    HW1 9779   3.639   3.209   0.169
 3253SOL    HW2 9780   3.742   3.089   0.213
 3254SOL     OW 9781   3.812   3.663   0.927
 3254SOL    HW1 9782   3.770   3.577   0.900
 3254SOL    HW2 9783   3.906   3.666   0.893
 3255SOL     OW 9784   4.228   3.430   0.910
 3255SOL    HW1 9785   4.294   3.504   0.919
 3255SOL    HW2 9786   4.272   3.351   0.868
 3256SOL     OW 9787   4.726   2.658   1.238
 3256SOL    HW1 9788   4.767   2.626   1.324
 3256SOL    HW2 9789   4.630   2.631   1.235
 3257SOL     OW 9790   3.764   2.406   1.114
 3257SOL    HW1 9791   3.849   2.373   1.073
 3257SOL    HW2 9792   3.777   2.421   1.212
 3258SOL     OW 9793   3.913   2.382   1.722
 3258SOL    HW1 9794   3.972   2.342   1.652
 3258SOL    HW2 9795   3.855   2.453   1.681
 3259SOL     OW 9796   4.539   2.434   0.325
 3259SOL    HW1 9797   4.546   2.345   0.279
 3259SOL    HW2 9798   4.445   2.468   0.317
 3260SOL     OW 9799   3.976   3.426   1.744
 3260SOL    HW1 9800   3.946   3.483   1.820
 3260SOL    HW2 9801   3.969   3.329   1.770
 3261SOL     OW 9802   4.395   2.326   1.269
 3261SOL    HW1 9803   4.361   2.237   1.239
 3261SOL    HW2 9804   4.421   2.380   1.189
 3262SOL     OW 9805   4.654   3.540   1.465
 3262SOL    HW1 9806   4.630   3.522   1.370
 3262SOL    HW2 9807   4.684   3.634   1.475
 3263SOL     OW 9808   4.197   2.362   0.191
 3263SOL    HW1 9809   4.258   2.442   0.195
 3263SOL    HW2 9810   4.102   2.393   0.198
 3264SOL     OW 9811   3.883   2.999   1.466
 3264SOL    HW1 9812   3.905   2.938   1.542
 3264SOL    HW2 9813   3.893   2.950   1.380
 3265SOL     OW 9814   3.807   3.120   1.022
 3265SOL    HW1 9815   3.802   3.119   1.122
 3265SOL    HW2 9816   3.724   3.079   0.984
 3266SOL     OW 9817   4.412   3.524   1.716
 3266SOL    HW1 9818   4.356   3.605   1.725
 3266SOL    HW2 9819   4.464   3.528   1.630
 3267SOL     OW 9820   4.627   1.948   0.133
 3267SOL    HW1 9821   4.678   1.949   0.047
 3267SOL    HW2 9822   4.683   1.906   0.204
 3268SOL     OW 9823   3.854   3.656   1.851
 3268SOL    HW1 9824   3.813   3.582   1.904
 3268SOL    HW2 9825   3.918   3.707   1.909
 3269SOL     OW 9826   5.004   2.789   0.672
 3269SOL    HW1 9827   5.064   2.708   0.674
 3269SOL    HW2 9828   5.044   2.858   0.612
 3270SOL     OW 9829   4.554   3.135   1.422
 3270SOL    HW1 9830   4.549   3.168   1.517
 3270SOL    HW2 9831   4.468   3.154   1.376
 3271SOL     OW 9832   4.396   3.478   0.154
 3271SOL    HW1 9833   4.405   3.488   0.055
 3271SOL    HW2 9834   4.356   3.389   0.175
 3272SOL     OW 9835   3.987   2.188   0.720
 3272SOL    HW1 9836   3.908   2.239   0.686
 3272SOL    HW2 9837   3.978   2.173   0.818
 3273SOL     OW 9838   4.546   2.864   1.372
 3273SOL    HW1 9839   4.586   2.863   1.280
 3273SOL    HW2 9840   4.556   2.956   1.412
 3274SOL     OW 9841   4.640   2.772   0.291
 3274SOL    HW1 9842   4.703   2.810   0.223
 3274SOL    HW2 9843   4.680   2.689   0.330
 3275SOL     OW 9844   4.096   3.150   1.490
 3275SOL    HW1 9845   4.083   3.243   1.456
 3275SOL    HW2 9846   4.012   3.098   1.477
 3276SOL     OW 9847   4.763   2.960   0.696
 3276SOL    HW1 9848   4.693   2.913   0.750
 3276SOL    HW2 9849   4.822   2.892   0.653
 3277SOL     OW 9850   4.738   2.098   0.971
 3277SOL    HW1 9851   4.730   2.062   0.878
 3277SOL    HW2 9852   4.736   2.022   1.036
 3278SOL     OW 9853   4.314   3.349   0.491
 3278SOL    HW1 9854   4.356   3.291   0.421
 3278SOL    HW2 9855   4.270   3.428   0.447
 3279SOL     OW 9856   3.979   3.210   0.290
 3279SOL    HW1 9857   3.883   3.211   0.263
 3279SOL    HW2 9858   3.991   3.263   0.374
 3280SOL     OW 9859   3.829   2.875   1.726
 3280SOL    HW1 9860   3.752   2.842   1.780
 3280SOL    HW2 9861   3.914   2.845   1.768
 3281SOL     OW 9862   4.396   2.065   1.489
 3281SOL    HW1 9863   4.486   2.049   1.449
 3281SOL    HW2 9864   4.404   2.070   1.588
 3282SOL     OW 9865   3.799   2.207   0.033
 3282SOL    HW1 9866   3.707   2.179   0.004
 3282SOL    HW2 9867   3.830   2.284  -0.023
 3283SOL     OW 9868   3.796   2.028   0.318
 3283SOL    HW1 9869   3.779   2.111   0.264
 3283SOL    HW2 9870   3.886   1.991   0.296
 3284SOL     OW 9871   4.337   2.704   1.431
 3284SOL    HW1 9872   4.393   2.785   1.414
 3284SOL    HW2 9873   4.396   2.624   1.434
 3285SOL     OW 9874   4.440   2.427   1.708
 3285SOL    HW1 9875   4.459   2.492   1.782
 3285SOL    HW2 9876   4.500   2.347   1.717
 3286SOL     OW 9877   4.114   3.603   1.560
 3286SOL    HW1 9878   4.023   3.644   1.558
 3286SOL    HW2 9879   4.107   3.509   1.592
 3287SOL     OW 9880   4.949   2.187   0.449
 3287SOL    HW1 9881   5.014   2.113   0.438
 3287SOL    HW2 9882   4.969   2.237   0.533
 3288SOL     OW 9883   4.318   2.607   0.652
 3288SOL    HW1 9884   4.368   2.692   0.633
 3288SOL    HW2 9885   4.230   2.609   0.604
 3289SOL     OW 9886   4.583   3.236   0.016
 3289SOL    HW1 9887   4.537   3.251   0.104
 3289SOL    HW2 9888   4.627   3.321  -0.014
 3290SOL     OW 9889   4.385   3.652   0.953
 3290SOL    HW1 9890   4.339   3.740   0.940
 3290SOL    HW2 9891   4.484   3.664   0.946
 3291SOL     OW 9892   4.583   2.818   0.861
 3291SOL    HW1 9893   4.637   2.749   0.909
 3291SOL    HW2 9894   4.551   2.887   0.927
 3292SOL     OW 9895   4.807   2.846   0.087
 3292SOL    HW1 9896   4.784   2.899   0.005
 3292SOL    HW2 9897   4.888   2.790   0.068
 3293SOL     OW 9898   3.945   3.176   1.844
 3293SOL    HW1 9899   3.880   3.103   1.823
 3293SOL    HW2 9900   3.949   3.190   1.942
 3294SOL     OW 9901   3.803   3.102   0.653
 3294SOL    HW1 9902   3.802   3.055   0.741
 3294SOL    HW2 9903   3.885   3.074   0.602
 3295SOL     OW 9904   4.396   3.253   1.624
 3295SOL    HW1 9905   4.318   3.203   1.662
 3295SOL    HW2 9906   4.393   3.348   1.655
 3296SOL     OW 9907   4.152   2.286   0.520
 3296SOL    HW1 9908   4.182   2.214   0.458
 3296SOL    HW2 9909   4.113   2.246   0.603
 3297SOL     OW 9910   4.041   2.409   1.280
 3297SOL    HW1 9911   4.079   2.350   1.352
 3297SOL    HW2 9912   4.081   2.383   1.192
 3298SOL     OW 9913   4.536   3.448   0.687
 3298SOL    HW1 9914   4.568   3.458   0.593
 3298SOL    HW2 9915   4.457   3.386   0.689
 3299SOL     OW 9916   4.725   1.896   1.154
 3299SOL    HW1 9917   4.662   1.824   1.123
 3299SOL    HW2 9918   4.818   1.860   1.154
 3300SOL     OW 9919   4.494   3.192   0.301
 3300SOL    HW1 9920   4.448   3.105   0.318
 3300SOL    HW2 9921   4.585   3.189   0.342
 3301SOL     OW 9922   4.342   3.429   1.284
 3301SOL    HW1 9923   4.337   3.511   1.341
 3301SOL    HW2 9924   4.431   3.426   1.239
 3302SOL     OW 9925   3.763   2.939   0.300
 3302SOL    HW1 9926   3.862   2.928   0.291
 3302SOL    HW2 9927   3.723   2.853   0.332
 3303SOL     OW 9928   4.599   3.508   0.337
 3303SOL    HW1 9929   4.522   3.473   0.283
 3303SOL    HW2 9930   4.567   3.579   0.399
 3304SOL     OW 9931   3.954   2.490   1.975
 3304SOL    HW1 9932   3.861   2.488   2.012
 3304SOL    HW2 9933   3.955   2.451   1.883
 3305SOL     OW 9934   3.949   2.137   2.858
 3305SOL    HW1 9935   3.984   2.120   2.950
 3305SOL    HW2 9936   3.861   2.092   2.846
 3306SOL     OW 9937   3.743   2.230   2.509
 3306SOL    HW1 9938   3.661   2.273   2.548
 3306SOL    HW2 9939   3.715   2.157   2.446
 3307SOL     OW 9940   4.293   3.137   3.027
 3307SOL    HW1 9941   4.200   3.130   2.990
 3307SOL    HW2 9942   4.304   3.226   3.071
 3308SOL     OW 9943   4.492   3.006   2.885
 3308SOL    HW1 9944   4.414   3.023   2.945
 3308SOL    HW2 9945   4.526   3.093   2.849
 3309SOL     OW 9946   4.574   2.660   3.685
 3309SOL    HW1 9947   4.570   2.736   3.750
 3309SOL    HW2 9948   4.596   2.696   3.594
 3310SOL     OW 9949   4.409   2.874   2.527
 3310SOL    HW1 9950   4.478   2.858   2.597
 3310SOL    HW2 9951   4.336   2.931   2.565
 3311SOL     OW 9952   4.410   3.023   3.665
 3311SOL    HW1 9953   4.470   3.102   3.679
 3311SOL    HW2 9954   4.324   3.054   3.624
 3312SOL     OW 9955   4.059   3.297   2.923
 3312SOL    HW1 9956   3.981   3.266   2.870
 3312SOL    HW2 9957   4.117   3.355   2.866
 3313SOL     OW 9958   4.162   2.254   3.361
 3313SOL    HW1 9959   4.244   2.198   3.370
 3313SOL    HW2 9960   4.081   2.196   3.365
 3314SOL     OW 9961   3.955   3.575   2.345
 3314SOL    HW1 9962   3.989   3.652   2.399
 3314SOL    HW2 9963   3.999   3.575   2.255
 3315SOL     OW 9964   3.954   3.296   2.400
 3315SOL    HW1 9965   3.928   3.392   2.400
 3315SOL    HW2 9966   3.883   3.242   2.445
 3316SOL     OW 9967   3.964   2.953   2.748
 3316SOL    HW1 9968   3.978   2.869   2.800
 3316SOL    HW2 9969   3.909   3.017   2.803
 3317SOL     OW 9970   4.344   3.648   3.301
 3317SOL    HW1 9971   4.252   3.631   3.336
 3317SOL    HW2 9972   4.372   3.740   3.327
 3318SOL     OW 9973   4.330   2.826   1.985
 3318SOL    HW1 9974   4.337   2.910   1.931
 3318SOL    HW2 9975   4.376   2.839   2.073
 3319SOL     OW 9976   3.846   2.505   2.425
 3319SOL    HW1 9977   3.801   2.417   2.442
 3319SOL    HW2 9978   3.845   2.559   2.509
 3320SOL     OW 9979   3.751   3.458   1.979
 3320SOL    HW1 9980   3.732   3.362   2.000
 3320SOL    HW2 9981   3.718   3.516   2.054
 3321SOL     OW 9982   3.837   2.599   3.459
 3321SOL    HW1 9983   3.925   2.586   3.504
 3321SOL    HW2 9984   3.824   2.696   3.437
 3322SOL     OW 9985   4.337   3.227   2.588
 3322SOL    HW1 9986   4.288   3.140   2.597
 3322SOL    HW2 9987   4.314   3.270   2.501
 3323SOL     OW 9988   4.533   1.866   2.364
 3323SOL    HW1 9989   4.573   1.957   2.355
 3323SOL    HW2 9990   4.433   1.874   2.370
 3324SOL     OW 9991   3.921   2.838   3.126
 3324SOL    HW1 9992   4.010   2.793   3.112
 3324SOL    HW2 9993   3.848   2.773   3.107
 3325SOL     OW 9994   4.041   2.113   3.663
 3325SOL    HW1 9995   4.112   2.184   3.669
 3325SOL    HW2 9996   3.953   2.152   3.691
 3326SOL     OW 9997   4.322   2.591   2.132
 3326SOL    HW1 9998   4.346   2.660   2.064
 3326SOL    HW2 9999   4.244   2.624   2.186
 3327SOL     OW10000   4.531   2.467   3.327
 3327SOL    HW110001   4.484   2.464   3.416
 3327SOL    HW210002   4.480   2.412   3.261
 3328SOL     OW10003   4.697   2.752   3.434
 3328SOL    HW110004   4.743   2.668   3.405
 3328SOL    HW210005   4.641   2.786   3.359
 3329SOL     OW10006   4.715   2.272   3.104
 3329SOL    HW110007   4.638   2.306   3.158
 3329SOL    HW210008   4.681   2.221   3.025
 3330SOL     OW10009   4.765   2.563   2.291
 3330SOL    HW110010   4.791   2.559   2.387
 3330SOL    HW210011   4.680   2.512   2.277
 3331SOL     OW10012   3.800   2.673   2.651
 3331SOL    HW110013   3.899   2.661   2.660
 3331SOL    HW210014   3.776   2.768   2.672
 3332SOL     OW10015   3.854   3.683   3.433
 3332SOL    HW110016   3.844   3.668   3.532
 3332SOL    HW210017   3.768   3.719   3.397
 3333SOL     OW10018   4.589   2.210   2.057
 3333SOL    HW110019   4.648   2.273   2.008
 3333SOL    HW210020   4.608   2.116   2.028
 3334SOL     OW10021   4.274   2.058   2.747
 3334SOL    HW110022   4.269   2.053   2.847
 3334SOL    HW210023   4.276   2.154   2.718
 3335SOL     OW10024   4.732   3.318   2.339
 3335SOL    HW110025   4.686   3.390   2.287
 3335SOL    HW210026   4.728   3.338   2.437
 3336SOL     OW10027   4.075   3.663   2.715
 3336SOL    HW110028   4.125   3.577   2.721
 3336SOL    HW210029   4.140   3.740   2.712
 3337SOL     OW10030   4.045   2.805   2.104
 3337SOL    HW110031   4.127   2.844   2.062
 3337SOL    HW210032   4.018   2.723   2.055
 3338SOL     OW10033   4.185   3.128   3.589
 3338SOL    HW110034   4.135   3.129   3.503
 3338SOL    HW210035   4.122   3.110   3.665
 3339SOL     OW10036   3.926   2.147   3.360
 3339SOL    HW110037   3.846   2.207   3.347
 3339SOL    HW210038   3.916   2.098   3.446
 3340SOL     OW10039   4.188   3.605   2.185
 3340SOL    HW110040   4.221   3.644   2.271
 3340SOL    HW210041   4.264   3.598   2.120
 3341SOL     OW10042   3.973   3.647   3.103
 3341SOL    HW110043   4.030   3.582   3.153
 3341SOL    HW210044   3.957   3.614   3.010
 3342SOL     OW10045   4.664   3.560   2.766
 3342SOL    HW110046   4.744   3.503   2.787
 3342SOL    HW210047   4.615   3.520   2.689
 3343SOL     OW10048   4.106   2.562   2.342
 3343SOL    HW110049   4.151   2.472   2.339
 3343SOL    HW210050   4.012   2.551   2.375
 3344SOL     OW10051   4.338   1.984   1.979
 3344SOL    HW110052   4.436   1.962   1.986
 3344SOL    HW210053   4.307   1.967   1.886
 3345SOL     OW10054   4.505   2.126   3.611
 3345SOL    HW110055   4.572   2.065   3.654
 3345SOL    HW210056   4.432   2.145   3.676
 3346SOL     OW10057   4.612   3.376   3.057
 3346SOL    HW110058   4.589   3.351   2.963
 3346SOL    HW210059   4.673   3.307   3.096
 3347SOL     OW10060   4.527   3.264   2.786
 3347SOL    HW110061   4.617   3.278   2.744
 3347SOL    HW210062   4.456   3.266   2.715
 3348SOL     OW10063   4.646   2.365   2.761
 3348SOL    HW110064   4.621   2.356   2.665
 3348SOL    HW210065   4.694   2.283   2.792
 3349SOL     OW10066   4.263   1.926   2.374
 3349SOL    HW110067   4.182   1.927   2.432
 3349SOL    HW210068   4.266   2.009   2.319
 3350SOL     OW10069   4.021   1.897   2.033
 3350SOL    HW110070   4.070   1.981   2.012
 3350SOL    HW210071   4.083   1.832   2.078
 3351SOL     OW10072   4.659   2.098   2.342
 3351SOL    HW110073   4.611   2.139   2.264
 3351SOL    HW210074   4.758   2.096   2.323
 3352SOL     OW10075   4.951   3.432   2.655
 3352SOL    HW110076   4.972   3.506   2.590
 3352SOL    HW210077   5.019   3.432   2.728
 3353SOL     OW10078   4.183   3.014   2.603
 3353SOL    HW110079   4.112   2.987   2.668
 3353SOL    HW210080   4.157   2.986   2.510
 3354SOL     OW10081   4.756   2.411   1.878
 3354SOL    HW110082   4.715   2.493   1.839
 3354SOL    HW210083   4.820   2.437   1.951
 3355SOL     OW10084   3.802   2.418   3.248
 3355SOL    HW110085   3.894   2.417   3.207
 3355SOL    HW210086   3.796   2.492   3.315
 3356SOL     OW10087   4.285   2.084   3.009
 3356SOL    HW110088   4.323   2.000   3.046
 3356SOL    HW210089   4.197   2.103   3.053
 3357SOL     OW10090   4.590   2.316   2.504
 3357SOL    HW110091   4.558   2.388   2.442
 3357SOL    HW210092   4.614   2.235   2.451
 3358SOL     OW10093   4.741   1.901   2.615
 3358SOL    HW110094   4.669   1.906   2.546
 3358SOL    HW210095   4.717   1.832   2.684
 3359SOL     OW10096   4.212   3.247   2.036
 3359SOL    HW110097   4.125   3.232   2.083
 3359SOL    HW210098   4.195   3.273   1.941
 3360SOL     OW10099   4.251   2.118   2.190
 3360SOL    HW110100   4.278   2.059   2.115
 3360SOL    HW210101   4.251   2.213   2.159
 3361SOL     OW10102   4.639   1.951   3.264
 3361SOL    HW110103   4.664   1.931   3.169
 3361SOL    HW210104   4.711   2.007   3.306
 3362SOL     OW10105   4.704   2.978   3.581
 3362SOL    HW110106   4.605   2.984   3.591
 3362SOL    HW210107   4.727   2.898   3.525
 3363SOL     OW10108   4.429   2.912   2.230
 3363SOL    HW110109   4.415   2.919   2.329
 3363SOL    HW210110   4.513   2.861   2.212
 3364SOL     OW10111   4.134   2.675   3.113
 3364SOL    HW110112   4.220   2.687   3.163
 3364SOL    HW210113   4.092   2.588   3.140
 3365SOL     OW10114   3.788   3.426   3.193
 3365SOL    HW110115   3.742   3.508   3.159
 3365SOL    HW210116   3.886   3.445   3.202
 3366SOL     OW10117   4.091   2.962   2.363
 3366SOL    HW110118   4.084   3.045   2.307
 3366SOL    HW210119   4.095   2.882   2.303
 3367SOL     OW10120   4.290   2.399   2.727
 3367SOL    HW110121   4.302   2.465   2.653
 3367SOL    HW210122   4.336   2.433   2.810
 3368SOL     OW10123   4.078   3.372   3.191
 3368SOL    HW110124   4.057   3.328   3.104
 3368SOL    HW210125   4.175   3.398   3.194
 3369SOL     OW10126   4.126   2.613   3.460
 3369SOL    HW110127   4.194   2.668   3.413
 3369SOL    HW210128   4.166   2.525   3.487
 3370SOL     OW10129   4.737   1.967   3.632
 3370SOL    HW110130   4.743   2.052   3.580
 3370SOL    HW210131   4.769   1.891   3.575
 3371SOL     OW10132   4.228   1.912   3.602
 3371SOL    HW110133   4.186   1.855   3.532
 3371SOL    HW210134   4.162   1.981   3.634
 3372SOL     OW10135   4.297   2.732   2.891
 3372SOL    HW110136   4.341   2.821   2.882
 3372SOL    HW210137   4.234   2.732   2.968
 3373SOL     OW10138   4.933   2.387   2.137
 3373SOL    HW110139   4.946   2.303   2.191
 3373SOL    HW210140   4.904   2.461   2.197
 3374SOL     OW10141   4.031   2.075   3.093
 3374SOL    HW110142   4.008   2.112   3.183
 3374SOL    HW210143   4.001   1.980   3.087
 3375SOL     OW10144   3.761   3.172   3.144
 3375SOL    HW110145   3.814   3.123   3.212
 3375SOL    HW210146   3.783   3.270   3.149
 3376SOL     OW10147   4.456   2.496   2.926
 3376SOL    HW110148   4.515   2.470   2.850
 3376SOL    HW210149   4.428   2.592   2.915
 3377SOL     OW10150   4.031   1.925   2.480
 3377SOL    HW110151   4.020   2.019   2.513
 3377SOL    HW210152   4.026   1.862   2.557
 3378SOL     OW10153   4.747   2.628   2.828
 3378SOL    HW110154   4.762   2.649   2.924
 3378SOL    HW210155   4.717   2.533   2.819
 3379SOL     OW10156   4.704   3.435   3.562
 3379SOL    HW110157   4.684   3.479   3.474
 3379SOL    HW210158   4.743   3.344   3.546
 3380SOL     OW10159   4.074   2.760   3.666
 3380SOL    HW110160   4.150   2.804   3.714
 3380SOL    HW210161   4.109   2.713   3.584
 3381SOL     OW10162   4.043   2.672   2.811
 3381SOL    HW110163   4.136   2.708   2.816
 3381SOL    HW210164   4.037   2.587   2.863
 3382SOL     OW10165   4.063   2.371   2.868
 3382SOL    HW110166   4.011   2.288   2.851
 3382SOL    HW210167   4.140   2.376   2.804
 3383SOL     OW10168   3.732   3.188   2.062
 3383SOL    HW110169   3.639   3.209   2.031
 3383SOL    HW210170   3.742   3.089   2.075
 3384SOL     OW10171   3.812   3.663   2.789
 3384SOL    HW110172   3.770   3.577   2.762
 3384SOL    HW210173   3.906   3.666   2.755
 3385SOL     OW10174   4.228   3.430   2.772
 3385SOL    HW110175   4.294   3.504   2.781
 3385SOL    HW210176   4.272   3.351   2.730
 3386SOL     OW10177   4.726   2.658   3.100
 3386SOL    HW110178   4.767   2.626   3.186
 3386SOL    HW210179   4.630   2.631   3.097
 3387SOL     OW10180   3.764   2.406   2.976
 3387SOL    HW110181   3.849   2.373   2.935
 3387SOL    HW210182   3.777   2.421   3.074
 3388SOL     OW10183   3.913   2.382   3.584
 3388SOL    HW110184   3.972   2.342   3.514
 3388SOL    HW210185   3.855   2.453   3.543
 3389SOL     OW10186   4.539   2.434   2.187
 3389SOL    HW110187   4.546   2.345   2.141
 3389SOL    HW210188   4.445   2.468   2.179
 3390SOL     OW10189   3.976   3.426   3.606
 3390SOL    HW110190   3.946   3.483   3.682
 3390SOL    HW210191   3.969   3.329   3.632
 3391SOL     OW10192   4.395   2.326   3.131
 3391SOL    HW110193   4.361   2.237   3.101
 3391SOL    HW210194   4.421   2.380   3.051
 3392SOL     OW10195   4.654   3.540   3.327
 3392SOL    HW110196   4.630   3.522   3.232
 3392SOL    HW210197   4.684   3.634   3.337
 3393SOL     OW10198   4.197   2.362   2.053
 3393SOL    HW110199   4.258   2.442   2.057
 3393SOL    HW210200   4.102   2.393   2.060
 3394SOL     OW10201   3.883   2.999   3.328
 3394SOL    HW110202   3.905   2.938   3.404
 3394SOL    HW210203   3.893   2.950   3.242
 3395SOL     OW10204   3.807   3.120   2.884
 3395SOL    HW110205   3.802   3.119   2.984
 3395SOL    HW210206   3.724   3.079   2.846
 3396SOL     OW10207   4.412   3.524   3.578
 3396SOL    HW110208   4.356   3.605   3.587
 3396SOL    HW210209   4.464   3.528   3.492
 3397SOL     OW10210   3.854   3.656   3.713
 3397SOL    HW110211   3.813   3.582   3.766
 3397SOL    HW210212   3.918   3.707   3.771
 3398SOL     OW10213   5.004   2.789   2.534
 3398SOL    HW110214   5.064   2.708   2.536
 3398SOL    HW210215   5.044   2.858   2.474
 3399SOL     OW10216   4.554   3.135   3.284
 3399SOL    HW110217   4.549   3.168   3.379
 3399SOL    HW210218   4.468   3.154   3.238
 3400SOL     OW10219   4.396   3.478   2.016
 3400SOL    HW110220   4.405   3.488   1.917
 3400SOL    HW210221   4.356   3.389   2.037
 3401SOL     OW10222   3.987   2.188   2.582
 3401SOL    HW110223   3.908   2.239   2.548
 3401SOL    HW210224   3.978   2.173   2.680
 3402SOL     OW10225   4.546   2.864   3.234
 3402SOL    HW110226   4.586   2.863   3.142
 3402SOL    HW210227   4.556   2.956   3.274
 3403SOL     OW10228   4.640   2.772   2.153
 3403SOL    HW110229   4.703   2.810   2.085
 3403SOL    HW210230   4.680   2.689   2.192
 3404SOL     OW10231   4.096   3.150   3.352
 3404SOL    HW110232   4.083   3.243   3.318
 3404SOL    HW210233   4.012   3.098   3.339
 3405SOL     OW10234   4.763   2.960   2.558
 3405SOL    HW110235   4.693   2.913   2.612
 3405SOL    HW210236   4.822   2.892   2.515
 3406SOL     OW10237   4.738   2.098   2.833
 3406SOL    HW110238   4.730   2.062   2.740
 3406SOL    HW210239   4.736   2.022   2.898
 3407SOL     OW10240   4.314   3.349   2.353
 3407SOL    HW110241   4.356   3.291   2.283
 3407SOL    HW210242   4.270   3.428   2.309
 3408SOL     OW10243   3.979   3.210   2.152
 3408SOL    HW110244   3.883   3.211   2.125
 3408SOL    HW210245   3.991   3.263   2.236
 3409SOL     OW10246   3.829   2.875   3.588
 3409SOL    HW110247   3.752   2.842   3.642
 3409SOL    HW210248   3.914   2.845   3.630
 3410SOL     OW10249   4.396   2.065   3.351
 3410SOL    HW110250   4.486   2.049   3.311
 3410SOL    HW210251   4.404   2.070   3.450
 3411SOL     OW10252   3.799   2.207   1.895
 3411SOL    HW110253   3.707   2.179   1.866
 3411SOL    HW210254   3.830   2.284   1.839
 3412SOL     OW10255   3.796   2.028   2.180
 3412SOL    HW110256   3.779   2.111   2.126
 3412SOL    HW210257   3.886   1.991   2.158
 3413SOL     OW10258   4.337   2.704   3.293
 3413SOL    HW110259   4.393   2.785   3.276
 3413SOL    HW210260   4.396   2.624   3.296
 3414SOL     OW10261   4.440   2.427   3.570
 3414SOL    HW110262   4.459   2.492   3.644
 3414SOL    HW210263   4.500   2.347   3.579
 3415SOL     OW10264   4.114   3.603   3.422
 3415SOL    HW110265   4.023   3.644   3.420
 3415SOL    HW210266   4.107   3.509   3.454
 3416SOL     OW10267   4.949   2.187   2.311
 3416SOL    HW110268   5.014   2.113   2.300
 3416SOL    HW210269   4.969   2.237   2.395
 3417SOL     OW10270   4.318   2.607   2.514
 3417SOL    HW110271   4.368   2.692   2.495
 3417SOL    HW210272   4.230   2.609   2.466
 3418SOL     OW10273   4.583   3.236   1.878
 3418SOL    HW110274   4.537   3.251   1.966
 3418SOL    HW210275   4.627   3.321   1.848
 3419SOL     OW10276   4.385   3.652   2.815
 3419SOL    HW110277   4.339   3.740   2.802
 3419SOL    HW210278   4.484   3.664   2.808
 3420SOL     OW10279   4.583   2.818   2.723
 3420SOL    HW110280   4.637   2.749   2.771
 3420SOL    HW210281   4.551   2.887   2.789
 3421SOL     OW10282   3.945   3.176   3.706
 3421SOL    HW110283   3.880   3.103   3.685
 3421SOL    HW210284   3.949   3.190   3.804
 3422SOL     OW10285   3.803   3.102   2.515
 3422SOL    HW110286   3.802   3.055   2.603
 3422SOL    HW210287   3.885   3.074   2.464
 3423SOL     OW10288   4.396   3.253   3.486
 3423SOL    HW110289   4.318   3.203   3.524
 3423SOL    HW210290   4.393   3.348   3.517
 3424SOL     OW10291   4.152   2.286   2.382
 3424SOL    HW110292   4.182   2.214   2.320
 3424SOL    HW210293   4.113   2.246   2.465
 3425SOL     OW10294   4.041   2.409   3.142
 3425SOL    HW110295   4.079   2.350   3.214
 3425SOL    HW210296   4.081   2.383   3.054
 3426SOL     OW10297   4.536   3.448   2.549
 3426SOL    HW110298   4.568   3.458   2.455
 3426SOL    HW210299   4.457   3.386   2.551
 3427SOL     OW10300   4.725   1.896   3.016
 3427SOL    HW110301   4.662   1.824   2.985
 3427SOL    HW210302   4.818   1.860   3.016
 3428SOL     OW10303   4.494   3.192   2.163
 3428SOL    HW110304   4.448   3.105   2.180
 3428SOL    HW210305   4.585   3.189   2.204
 3429SOL     OW10306   4.342   3.429   3.146
 3429SOL    HW110307   4.337   3.511   3.203
 3429SOL    HW210308   4.431   3.426   3.101
 3430SOL     OW10309   3.763   2.939   2.162
 3430SOL    HW110310   3.862   2.928   2.153
 3430SOL    HW210311   3.723   2.853   2.194
 3431SOL     OW10312   4.599   3.508   2.199
 3431SOL    HW110313   4.522   3.473   2.145
 3431SOL    HW210314   4.567   3.579   2.261
 3432SOL     OW10315   3.954   2.490   3.837
 3432SOL    HW110316   3.861   2.488   3.874
 3432SOL    HW210317   3.955   2.451   3.745
 3433SOL     OW10318   3.949   2.137   4.720
 3433SOL    HW110319   3.984   2.120   4.812
 3433SOL    HW210320   3.861   2.092   4.708
 3434SOL     OW10321   3.743   2.230   4.371
 3434SOL    HW110322   3.661   2.273   4.410
 3434SOL    HW210323   3.715   2.157   4.308
 3435SOL     OW10324   4.492   3.006   4.747
 3435SOL    HW110325   4.414   3.023   4.807
 3435SOL    HW210326   4.526   3.093   4.711
 3436SOL     OW10327   4.409   2.874   4.389
 3436SOL    HW110328   4.478   2.858   4.459
 3436SOL    HW210329   4.336   2.931   4.427
 3437SOL     OW10330   4.059   3.297   4.785
 3437SOL    HW110331   3.981   3.266   4.732
 3437SOL    HW210332   4.117   3.355   4.728
 3438SOL     OW10333   3.955   3.575   4.207
 3438SOL    HW110334   3.989   3.652   4.261
 3438SOL    HW210335   3.999   3.575   4.117
 3439SOL     OW10336   3.954   3.296   4.262
 3439SOL    HW110337   3.928   3.392   4.262
 3439SOL    HW210338   3.883   3.242   4.307
 3440SOL     OW10339   3.964   2.953   4.610
 3440SOL    HW110340   3.978   2.869   4.662
 3440SOL    HW210341   3.909   3.017   4.665
 3441SOL     OW10342   4.330   2.826   3.847
 3441SOL    HW110343   4.337   2.910   3.793
 3441SOL    HW210344   4.376   2.839   3.935
 3442SOL     OW10345   3.846   2.505   4.287
 3442SOL    HW110346   3.801   2.417   4.304
 3442SOL    HW210347   3.845   2.559   4.371
 3443SOL     OW10348   3.751   3.458   3.841
 3443SOL    HW110349   3.732   3.362   3.862
 3443SOL    HW210350   3.718   3.516   3.916
 3444SOL     OW10351   4.337   3.227   4.450
 3444SOL    HW110352   4.288   3.140   4.459
 3444SOL    HW210353   4.314   3.270   4.363
 3445SOL     OW10354   4.533   1.866   4.226
 3445SOL    HW110355   4.573   1.957   4.217
 3445SOL    HW210356   4.433   1.874   4.232
 3446SOL     OW10357   4.322   2.591   3.994
 3446SOL    HW110358   4.346   2.660   3.926
 3446SOL    HW210359   4.244   2.624   4.048
 3447SOL     OW10360   4.765   2.563   4.153
 3447SOL    HW110361   4.791   2.559   4.249
 3447SOL    HW210362   4.680   2.512   4.139
 3448SOL     OW10363   3.800   2.673   4.513
 3448SOL    HW110364   3.899   2.661   4.522
 3448SOL    HW210365   3.776   2.768   4.534
 3449SOL     OW10366   4.589   2.210   3.919
 3449SOL    HW110367   4.648   2.273   3.870
 3449SOL    HW210368   4.608   2.116   3.890
 3450SOL     OW10369   4.274   2.058   4.609
 3450SOL    HW110370   4.269   2.053   4.709
 3450SOL    HW210371   4.276   2.154   4.580
 3451SOL     OW10372   4.732   3.318   4.201
 3451SOL    HW110373   4.686   3.390   4.149
 3451SOL    HW210374   4.728   3.338   4.299
 3452SOL     OW10375   4.075   3.663   4.577
 3452SOL    HW110376   4.125   3.577   4.583
 3452SOL    HW210377   4.140   3.740   4.574
 3453SOL     OW10378   4.045   2.805   3.966
 3453SOL    HW110379   4.127   2.844   3.924
 3453SOL    HW210380   4.018   2.723   3.917
 3454SOL     OW10381   4.188   3.605   4.047
 3454SOL    HW110382   4.221   3.644   4.133
 3454SOL    HW210383   4.264   3.598   3.982
 3455SOL     OW10384   3.973   3.647   4.965
 3455SOL    HW110385   4.030   3.582   5.015
 3455SOL    HW210386   3.957   3.614   4.872
 3456SOL     OW10387   4.664   3.560   4.628
 3456SOL    HW110388   4.744   3.503   4.649
 3456SOL    HW210389   4.615   3.520   4.551
 3457SOL     OW10390   4.106   2.562   4.204
 3457SOL    HW110391   4.151   2.472   4.201
 3457SOL    HW210392   4.012   2.551   4.237
 3458SOL     OW10393   4.338   1.984   3.841
 3458SOL    HW110394   4.436   1.962   3.848
 3458SOL    HW210395   4.307   1.967   3.748
 3459SOL     OW10396   4.527   3.264   4.648
 3459SOL    HW110397   4.617   3.278   4.606
 3459SOL    HW210398   4.456   3.266   4.577
 3460SOL     OW10399   4.646   2.365   4.623
 3460SOL    HW110400   4.621   2.356   4.527
 3460SOL    HW210401   4.694   2.283   4.654
 3461SOL     OW10402   4.263   1.926   4.236
 3461SOL    HW110403   4.182   1.927   4.294
 3461SOL    HW210404   4.266   2.009   4.181
 3462SOL     OW10405   4.021   1.897   3.895
 3462SOL    HW110406   4.070   1.981   3.874
 3462SOL    HW210407   4.083   1.832   3.940
 3463SOL     OW10408   4.659   2.098   4.204
 3463SOL    HW110409   4.611   2.139   4.126
 3463SOL    HW210410   4.758   2.096   4.185
 3464SOL     OW10411   4.951   3.432   4.517
 3464SOL    HW110412   4.972   3.506   4.452
 3464SOL    HW210413   5.019   3.432   4.590
 3465SOL     OW10414   4.183   3.014   4.465
 3465SOL    HW110415   4.112   2.987   4.530
 3465SOL    HW210416   4.157   2.986   4.372
 3466SOL     OW10417   4.756   2.411   3.740
 3466SOL    HW110418   4.715   2.493   3.701
 3466SOL    HW210419   4.820   2.437   3.813
 3467SOL     OW10420   4.590   2.316   4.366
 3467SOL    HW110421   4.558   2.388   4.304
 3467SOL    HW210422   4.614   2.235   4.313
 3468SOL     OW10423   4.741   1.901   4.477
 3468SOL    HW110424   4.669   1.906   4.408
 3468SOL    HW210425   4.717   1.832   4.546
 3469SOL     OW10426   4.212   3.247   3.898
 3469SOL    HW110427   4.125   3.232   3.945
 3469SOL    HW210428   4.195   3.273   3.803
 3470SOL     OW10429   4.251   2.118   4.052
 3470SOL    HW110430   4.278   2.059   3.977
 3470SOL    HW210431   4.251   2.213   4.021
 3471SOL     OW10432   4.429   2.912   4.092
 3471SOL    HW110433   4.415   2.919   4.191
 3471SOL    HW210434   4.513   2.861   4.074
 3472SOL     OW10435   4.091   2.962   4.225
 3472SOL    HW110436   4.084   3.045   4.169
 3472SOL    HW210437   4.095   2.882   4.165
 3473SOL     OW10438   4.290   2.399   4.589
 3473SOL    HW110439   4.302   2.465   4.515
 3473SOL    HW210440   4.336   2.433   4.672
 3474SOL     OW10441   4.297   2.732   4.753
 3474SOL    HW110442   4.341   2.821   4.744
 3474SOL    HW210443   4.234   2.732   4.830
 3475SOL     OW10444   4.933   2.387   3.999
 3475SOL    HW110445   4.946   2.303   4.053
 3475SOL    HW210446   4.904   2.461   4.059
 3476SOL     OW10447   4.031   2.075   4.955
 3476SOL    HW110448   4.008   2.112   5.045
 3476SOL    HW210449   4.001   1.980   4.949
 3477SOL     OW10450   4.456   2.496   4.788
 3477SOL    HW110451   4.515   2.470   4.712
 3477SOL    HW210452   4.428   2.592   4.777
 3478SOL     OW10453   4.031   1.925   4.342
 3478SOL    HW110454   4.020   2.019   4.375
 3478SOL    HW210455   4.026   1.862   4.419
 3479SOL     OW10456   4.043   2.672   4.673
 3479SOL    HW110457   4.136   2.708   4.678
 3479SOL    HW210458   4.037   2.587   4.725
 3480SOL     OW10459   4.063   2.371   4.730
 3480SOL    HW110460   4.011   2.288   4.713
 3480SOL    HW210461   4.140   2.376   4.666
 3481SOL     OW10462   3.732   3.188   3.924
 3481SOL    HW110463   3.639   3.209   3.893
 3481SOL    HW210464   3.742   3.089   3.937
 3482SOL     OW10465   3.812   3.663   4.651
 3482SOL    HW110466   3.770   3.577   4.624
 3482SOL    HW210467   3.906   3.666   4.617
 3483SOL     OW10468   4.228   3.430   4.634
 3483SOL    HW110469   4.294   3.504   4.643
 3483SOL    HW210470   4.272   3.351   4.592
 3484SOL     OW10471   4.726   2.658   4.962
 3484SOL    HW110472   4.767   2.626   5.048
 3484SOL    HW210473   4.630   2.631   4.959
 3485SOL     OW10474   4.539   2.434   4.049
 3485SOL    HW110475   4.546   2.345   4.003
 3485SOL    HW210476   4.445   2.468   4.041
 3486SOL     OW10477   4.395   2.326   4.993
 3486SOL    HW110478   4.361   2.237   4.963
 3486SOL    HW210479   4.421   2.380   4.913
 3487SOL     OW10480   4.197   2.362   3.915
 3487SOL    HW110481   4.258   2.442   3.919
 3487SOL    HW210482   4.102   2.393   3.922
 3488SOL     OW10483   3.807   3.120   4.746
 3488SOL    HW110484   3.802   3.119   4.846
 3488SOL    HW210485   3.724   3.079   4.708
 3489SOL     OW10486   5.004   2.789   4.396
 3489SOL    HW110487   5.064   2.708   4.398
 3489SOL    HW210488   5.044   2.858   4.336
 3490SOL     OW10489   4.396   3.478   3.878
 3490SOL    HW110490   4.405   3.488   3.779
 3490SOL    HW210491   4.356   3.389   3.899
 3491SOL     OW10492   3.987   2.188   4.444
 3491SOL    HW110493   3.908   2.239   4.410
 3491SOL    HW210494   3.978   2.173   4.542
 3492SOL     OW10495   4.640   2.772   4.015
 3492SOL    HW110496   4.703   2.810   3.947
 3492SOL    HW210497   4.680   2.689   4.054
 3493SOL     OW10498   4.763   2.960   4.420
 3493SOL    HW110499   4.693   2.913   4.474
 3493SOL    HW210500   4.822   2.892   4.377
 3494SOL     OW10501   4.738   2.098   4.695
 3494SOL    HW110502   4.730   2.062   4.602
 3494SOL    HW210503   4.736   2.022   4.760
 3495SOL     OW10504   4.314   3.349   4.215
 3495SOL    HW110505   4.356   3.291   4.145
 3495SOL    HW210506   4.270   3.428   4.171
 3496SOL     OW10507   3.979   3.210   4.014
 3496SOL    HW110508   3.883   3.211   3.987
 3496SOL    HW210509   3.991   3.263   4.098
 3497SOL     OW10510   3.799   2.207   3.757
 3497SOL    HW110511   3.707   2.179   3.728
 3497SOL    HW210512   3.830   2.284   3.701
 3498SOL     OW10513   3.796   2.028   4.042
 3498SOL    HW110514   3.779   2.111   3.988
 3498SOL    HW210515   3.886   1.991   4.020
 3499SOL     OW10516   4.949   2.187   4.173
 3499SOL    HW110517   5.014   2.113   4.162
 3499SOL    HW210518   4.969   2.237   4.257
 3500SOL     OW10519   4.318   2.607   4.376
 3500SOL    HW110520   4.368   2.692   4.357
 3500SOL    HW210521   4.230   2.609   4.328
 3501SOL     OW10522   4.583   3.236   3.740
 3501SOL    HW110523   4.537   3.251   3.828
 3501SOL    HW210524   4.627   3.321   3.710
 3502SOL     OW10525   4.385   3.652   4.677
 3502SOL    HW110526   4.339   3.740   4.664
 3502SOL    HW210527   4.484   3.664   4.670
 3503SOL     OW10528   4.583   2.818   4.585
 3503SOL    HW110529   4.637   2.749   4.633
 3503SOL    HW210530   4.551   2.887   4.651
 3504SOL     OW10531   3.803   3.102   4.377
 3504SOL    HW110532   3.802   3.055   4.465
 3504SOL    HW210533   3.885   3.074   4.326
 3505SOL     OW10534   4.152   2.286   4.244
 3505SOL    HW110535   4.182   2.214   4.182
 3505SOL    HW210536   4.113   2.246   4.327
 3506SOL     OW10537   4.536   3.448   4.411
 3506SOL    HW110538   4.568   3.458   4.317
 3506SOL    HW210539   4.457   3.386   4.413
 3507SOL     OW10540   4.494   3.192   4.025
 3507SOL    HW110541   4.448   3.105   4.042
 3507SOL    HW210542   4.585   3.189   4.066
 3508SOL     OW10543   3.763   2.939   4.024
 3508SOL    HW110544   3.862   2.928   4.015
 3508SOL    HW210545   3.723   2.853   4.056
 3509SOL     OW10546   4.599   3.508   4.061
 3509SOL    HW110547   4.522   3.473   4.007
 3509SOL    HW210548   4.567   3.579   4.123
 3510SOL     OW10549   3.954   4.352   0.113
 3510SOL    HW110550   3.861   4.350   0.150
 3510SOL    HW210551   3.955   4.313   0.021
 3511SOL     OW10552   3.949   3.999   0.996
 3511SOL    HW110553   3.984   3.982   1.088
 3511SOL    HW210554   3.861   3.954   0.984
 3512SOL     OW10555   3.743   4.092   0.647
 3512SOL    HW110556   3.661   4.135   0.686
 3512SOL    HW210557   3.715   4.019   0.584
 3513SOL     OW10558   4.492   4.868   1.023
 3513SOL    HW110559   4.414   4.885   1.083
 3513SOL    HW210560   4.526   4.955   0.987
 3514SOL     OW10561   4.574   4.522   1.823
 3514SOL    HW110562   4.570   4.598   1.888
 3514SOL    HW210563   4.596   4.558   1.732
 3515SOL     OW10564   4.409   4.736   0.665
 3515SOL    HW110565   4.478   4.720   0.735
 3515SOL    HW210566   4.336   4.793   0.703
 3516SOL     OW10567   4.162   4.116   1.499
 3516SOL    HW110568   4.244   4.060   1.508
 3516SOL    HW210569   4.081   4.058   1.503
 3517SOL     OW10570   3.964   4.815   0.886
 3517SOL    HW110571   3.978   4.731   0.938
 3517SOL    HW210572   3.909   4.879   0.941
 3518SOL     OW10573   4.330   4.688   0.123
 3518SOL    HW110574   4.337   4.772   0.069
 3518SOL    HW210575   4.376   4.701   0.211
 3519SOL     OW10576   3.846   4.367   0.563
 3519SOL    HW110577   3.801   4.279   0.580
 3519SOL    HW210578   3.845   4.421   0.647
 3520SOL     OW10579   3.837   4.461   1.597
 3520SOL    HW110580   3.925   4.448   1.642
 3520SOL    HW210581   3.824   4.558   1.575
 3521SOL     OW10582   4.533   3.728   0.502
 3521SOL    HW110583   4.573   3.819   0.493
 3521SOL    HW210584   4.433   3.736   0.508
 3522SOL     OW10585   3.921   4.700   1.264
 3522SOL    HW110586   4.010   4.655   1.250
 3522SOL    HW210587   3.848   4.635   1.245
 3523SOL     OW10588   4.041   3.975   1.801
 3523SOL    HW110589   4.112   4.046   1.807
 3523SOL    HW210590   3.953   4.014   1.829
 3524SOL     OW10591   4.322   4.453   0.270
 3524SOL    HW110592   4.346   4.522   0.202
 3524SOL    HW210593   4.244   4.486   0.324
 3525SOL     OW10594   4.531   4.329   1.465
 3525SOL    HW110595   4.484   4.326   1.554
 3525SOL    HW210596   4.480   4.274   1.399
 3526SOL     OW10597   4.697   4.614   1.572
 3526SOL    HW110598   4.743   4.530   1.543
 3526SOL    HW210599   4.641   4.648   1.497
 3527SOL     OW10600   4.715   4.134   1.242
 3527SOL    HW110601   4.638   4.168   1.296
 3527SOL    HW210602   4.681   4.083   1.163
 3528SOL     OW10603   4.765   4.425   0.429
 3528SOL    HW110604   4.791   4.421   0.525
 3528SOL    HW210605   4.680   4.374   0.415
 3529SOL     OW10606   3.800   4.535   0.789
 3529SOL    HW110607   3.899   4.523   0.798
 3529SOL    HW210608   3.776   4.630   0.810
 3530SOL     OW10609   4.589   4.072   0.195
 3530SOL    HW110610   4.648   4.135   0.146
 3530SOL    HW210611   4.608   3.978   0.166
 3531SOL     OW10612   4.274   3.920   0.885
 3531SOL    HW110613   4.269   3.915   0.985
 3531SOL    HW210614   4.276   4.016   0.856
 3532SOL     OW10615   3.926   4.009   1.498
 3532SOL    HW110616   3.846   4.069   1.485
 3532SOL    HW210617   3.916   3.960   1.584
 3533SOL     OW10618   4.106   4.424   0.480
 3533SOL    HW110619   4.151   4.334   0.477
 3533SOL    HW210620   4.012   4.413   0.513
 3534SOL     OW10621   4.338   3.846   0.117
 3534SOL    HW110622   4.436   3.824   0.124
 3534SOL    HW210623   4.307   3.829   0.024
 3535SOL     OW10624   4.505   3.988   1.749
 3535SOL    HW110625   4.572   3.927   1.792
 3535SOL    HW210626   4.432   4.007   1.814
 3536SOL     OW10627   4.646   4.227   0.899
 3536SOL    HW110628   4.621   4.218   0.803
 3536SOL    HW210629   4.694   4.145   0.930
 3537SOL     OW10630   4.263   3.788   0.512
 3537SOL    HW110631   4.182   3.789   0.570
 3537SOL    HW210632   4.266   3.871   0.457
 3538SOL     OW10633   4.659   3.960   0.480
 3538SOL    HW110634   4.611   4.001   0.402
 3538SOL    HW210635   4.758   3.958   0.461
 3539SOL     OW10636   4.756   4.273   0.016
 3539SOL    HW110637   4.715   4.355  -0.023
 3539SOL    HW210638   4.820   4.299   0.089
 3540SOL     OW10639   3.802   4.280   1.386
 3540SOL    HW110640   3.894   4.279   1.345
 3540SOL    HW210641   3.796   4.354   1.453
 3541SOL     OW10642   4.285   3.946   1.147
 3541SOL    HW110643   4.323   3.862   1.184
 3541SOL    HW210644   4.197   3.965   1.191
 3542SOL     OW10645   4.590   4.178   0.642
 3542SOL    HW110646   4.558   4.250   0.580
 3542SOL    HW210647   4.614   4.097   0.589
 3543SOL     OW10648   4.741   3.763   0.753
 3543SOL    HW110649   4.669   3.768   0.684
 3543SOL    HW210650   4.717   3.694   0.822
 3544SOL     OW10651   4.251   3.980   0.328
 3544SOL    HW110652   4.278   3.921   0.253
 3544SOL    HW210653   4.251   4.075   0.297
 3545SOL     OW10654   4.639   3.813   1.402
 3545SOL    HW110655   4.664   3.793   1.307
 3545SOL    HW210656   4.711   3.869   1.444
 3546SOL     OW10657   4.134   4.537   1.251
 3546SOL    HW110658   4.220   4.549   1.301
 3546SOL    HW210659   4.092   4.450   1.278
 3547SOL     OW10660   4.290   4.261   0.865
 3547SOL    HW110661   4.302   4.327   0.791
 3547SOL    HW210662   4.336   4.295   0.948
 3548SOL     OW10663   4.126   4.475   1.598
 3548SOL    HW110664   4.194   4.530   1.551
 3548SOL    HW210665   4.166   4.387   1.625
 3549SOL     OW10666   4.737   3.829   1.770
 3549SOL    HW110667   4.743   3.914   1.718
 3549SOL    HW210668   4.769   3.753   1.713
 3550SOL     OW10669   4.228   3.774   1.740
 3550SOL    HW110670   4.186   3.717   1.670
 3550SOL    HW210671   4.162   3.843   1.772
 3551SOL     OW10672   4.297   4.594   1.029
 3551SOL    HW110673   4.341   4.683   1.020
 3551SOL    HW210674   4.234   4.594   1.106
 3552SOL     OW10675   4.933   4.249   0.275
 3552SOL    HW110676   4.946   4.165   0.329
 3552SOL    HW210677   4.904   4.323   0.335
 3553SOL     OW10678   4.031   3.937   1.231
 3553SOL    HW110679   4.008   3.974   1.321
 3553SOL    HW210680   4.001   3.842   1.225
 3554SOL     OW10681   4.456   4.358   1.064
 3554SOL    HW110682   4.515   4.332   0.988
 3554SOL    HW210683   4.428   4.454   1.053
 3555SOL     OW10684   4.031   3.787   0.618
 3555SOL    HW110685   4.020   3.881   0.651
 3555SOL    HW210686   4.026   3.724   0.695
 3556SOL     OW10687   4.747   4.490   0.966
 3556SOL    HW110688   4.762   4.511   1.062
 3556SOL    HW210689   4.717   4.395   0.957
 3557SOL     OW10690   4.074   4.622   1.804
 3557SOL    HW110691   4.150   4.666   1.852
 3557SOL    HW210692   4.109   4.575   1.722
 3558SOL     OW10693   4.043   4.534   0.949
 3558SOL    HW110694   4.136   4.570   0.954
 3558SOL    HW210695   4.037   4.449   1.001
 3559SOL     OW10696   4.063   4.233   1.006
 3559SOL    HW110697   4.011   4.150   0.989
 3559SOL    HW210698   4.140   4.238   0.942
 3560SOL     OW10699   4.726   4.520   1.238
 3560SOL    HW110700   4.767   4.488   1.324
 3560SOL    HW210701   4.630   4.493   1.235
 3561SOL     OW10702   3.764   4.268   1.114
 3561SOL    HW110703   3.849   4.235   1.073
 3561SOL    HW210704   3.777   4.283   1.212
 3562SOL     OW10705   3.913   4.244   1.722
 3562SOL    HW110706   3.972   4.204   1.652
 3562SOL    HW210707   3.855   4.315   1.681
 3563SOL     OW10708   4.539   4.296   0.325
 3563SOL    HW110709   4.546   4.207   0.279
 3563SOL    HW210710   4.445   4.330   0.317
 3564SOL     OW10711   4.395   4.188   1.269
 3564SOL    HW110712   4.361   4.099   1.239
 3564SOL    HW210713   4.421   4.242   1.189
 3565SOL     OW10714   4.197   4.224   0.191
 3565SOL    HW110715   4.258   4.304   0.195
 3565SOL    HW210716   4.102   4.255   0.198
 3566SOL     OW10717   3.883   4.861   1.466
 3566SOL    HW110718   3.905   4.800   1.542
 3566SOL    HW210719   3.893   4.812   1.380
 3567SOL     OW10720   4.627   3.810   0.133
 3567SOL    HW110721   4.678   3.811   0.047
 3567SOL    HW210722   4.683   3.768   0.204
 3568SOL     OW10723   5.004   4.651   0.672
 3568SOL    HW110724   5.064   4.570   0.674
 3568SOL    HW210725   5.044   4.720   0.612
 3569SOL     OW10726   3.987   4.050   0.720
 3569SOL    HW110727   3.908   4.101   0.686
 3569SOL    HW210728   3.978   4.035   0.818
 3570SOL     OW10729   4.640   4.634   0.291
 3570SOL    HW110730   4.703   4.672   0.223
 3570SOL    HW210731   4.680   4.551   0.330
 3571SOL     OW10732   4.738   3.960   0.971
 3571SOL    HW110733   4.730   3.924   0.878
 3571SOL    HW210734   4.736   3.884   1.036
 3572SOL     OW10735   3.829   4.737   1.726
 3572SOL    HW110736   3.752   4.704   1.780
 3572SOL    HW210737   3.914   4.707   1.768
 3573SOL     OW10738   4.396   3.927   1.489
 3573SOL    HW110739   4.486   3.911   1.449
 3573SOL    HW210740   4.404   3.932   1.588
 3574SOL     OW10741   3.799   4.069   0.033
 3574SOL    HW110742   3.707   4.041   0.004
 3574SOL    HW210743   3.830   4.146  -0.023
 3575SOL     OW10744   3.796   3.890   0.318
 3575SOL    HW110745   3.779   3.973   0.264
 3575SOL    HW210746   3.886   3.853   0.296
 3576SOL     OW10747   4.337   4.566   1.431
 3576SOL    HW110748   4.393   4.647   1.414
 3576SOL    HW210749   4.396   4.486   1.434
 3577SOL     OW10750   4.440   4.289   1.708
 3577SOL    HW110751   4.459   4.354   1.782
 3577SOL    HW210752   4.500   4.209   1.717
 3578SOL     OW10753   4.949   4.049   0.449
 3578SOL    HW110754   5.014   3.975   0.438
 3578SOL    HW210755   4.969   4.099   0.533
 3579SOL     OW10756   4.318   4.469   0.652
 3579SOL    HW110757   4.368   4.554   0.633
 3579SOL    HW210758   4.230   4.471   0.604
 3580SOL     OW10759   4.583   4.680   0.861
 3580SOL    HW110760   4.637   4.611   0.909
 3580SOL    HW210761   4.551   4.749   0.927
 3581SOL     OW10762   3.803   4.964   0.653
 3581SOL    HW110763   3.802   4.917   0.741
 3581SOL    HW210764   3.885   4.936   0.602
 3582SOL     OW10765   4.152   4.148   0.520
 3582SOL    HW110766   4.182   4.076   0.458
 3582SOL    HW210767   4.113   4.108   0.603
 3583SOL     OW10768   4.041   4.271   1.280
 3583SOL    HW110769   4.079   4.212   1.352
 3583SOL    HW210770   4.081   4.245   1.192
 3584SOL     OW10771   4.725   3.758   1.154
 3584SOL    HW110772   4.662   3.686   1.123
 3584SOL    HW210773   4.818   3.722   1.154
 3585SOL     OW10774   3.763   4.801   0.300
 3585SOL    HW110775   3.862   4.790   0.291
 3585SOL    HW210776   3.723   4.715   0.332
 3586SOL     OW10777   3.954   4.352   1.975
 3586SOL    HW110778   3.861   4.350   2.012
 3586SOL    HW210779   3.955   4.313   1.883
 3587SOL     OW10780   3.949   3.999   2.858
 3587SOL    HW110781   3.984   3.982   2.950
 3587SOL    HW210782   3.861   3.954   2.846
 3588SOL     OW10783   3.743   4.092   2.509
 3588SOL    HW110784   3.661   4.135   2.548
 3588SOL    HW210785   3.715   4.019   2.446
 3589SOL     OW10786   4.492   4.868   2.885
 3589SOL    HW110787   4.414   4.885   2.945
 3589SOL    HW210788   4.526   4.955   2.849
 3590SOL     OW10789   4.574   4.522   3.685
 3590SOL    HW110790   4.570   4.598   3.750
 3590SOL    HW210791   4.596   4.558   3.594
 3591SOL     OW10792   4.409   4.736   2.527
 3591SOL    HW110793   4.478   4.720   2.597
 3591SOL    HW210794   4.336   4.793   2.565
 3592SOL     OW10795   4.162   4.116   3.361
 3592SOL    HW110796   4.244   4.060   3.370
 3592SOL    HW210797   4.081   4.058   3.365
 3593SOL     OW10798   3.964   4.815   2.748
 3593SOL    HW110799   3.978   4.731   2.800
 3593SOL    HW210800   3.909   4.879   2.803
 3594SOL     OW10801   4.330   4.688   1.985
 3594SOL    HW110802   4.337   4.772   1.931
 3594SOL    HW210803   4.376   4.701   2.073
 3595SOL     OW10804   3.846   4.367   2.425
 3595SOL    HW110805   3.801   4.279   2.442
 3595SOL    HW210806   3.845   4.421   2.509
 3596SOL     OW10807   3.837   4.461   3.459
 3596SOL    HW110808   3.925   4.448   3.504
 3596SOL    HW210809   3.824   4.558   3.437
 3597SOL     OW10810   4.533   3.728   2.364
 3597SOL    HW110811   4.573   3.819   2.355
 3597SOL    HW210812   4.433   3.736   2.370
 3598SOL     OW10813   3.921   4.700   3.126
 3598SOL    HW110814   4.010   4.655   3.112
 3598SOL    HW210815   3.848   4.635   3.107
 3599SOL     OW10816   4.041   3.975   3.663
 3599SOL    HW110817   4.112   4.046   3.669
 3599SOL    HW210818   3.953   4.014   3.691
 3600SOL     OW10819   4.322   4.453   2.132
 3600SOL    HW110820   4.346   4.522   2.064
 3600SOL    HW210821   4.244   4.486   2.186
 3601SOL     OW10822   4.531   4.329   3.327
 3601SOL    HW110823   4.484   4.326   3.416
 3601SOL    HW210824   4.480   4.274   3.261
 3602SOL     OW10825   4.697   4.614   3.434
 3602SOL    HW110826   4.743   4.530   3.405
 3602SOL    HW210827   4.641   4.648   3.359
 3603SOL     OW10828   4.715   4.134   3.104
 3603SOL    HW110829   4.638   4.168   3.158
 3603SOL    HW210830   4.681   4.083   3.025
 3604SOL     OW10831   4.765   4.425   2.291
 3604SOL    HW110832   4.791   4.421   2.387
 3604SOL    HW210833   4.680   4.374   2.277
 3605SOL     OW10834   3.800   4.535   2.651
 3605SOL    HW110835   3.899   4.523   2.660
 3605SOL    HW210836   3.776   4.630   2.672
 3606SOL     OW10837   4.589   4.072   2.057
 3606SOL    HW110838   4.648   4.135   2.008
 3606SOL    HW210839   4.608   3.978   2.028
 3607SOL     OW10840   4.274   3.920   2.747
 3607SOL    HW110841   4.269   3.915   2.847
 3607SOL    HW210842   4.276   4.016   2.718
 3608SOL     OW10843   3.926   4.009   3.360
 3608SOL    HW110844   3.846   4.069   3.347
 3608SOL    HW210845   3.916   3.960   3.446
 3609SOL     OW10846   4.106   4.424   2.342
 3609SOL    HW110847   4.151   4.334   2.339
 3609SOL    HW210848   4.012   4.413   2.375
 3610SOL     OW10849   4.338   3.846   1.979
 3610SOL    HW110850   4.436   3.824   1.986
 3610SOL    HW210851   4.307   3.829   1.886
 3611SOL     OW10852   4.505   3.988   3.611
 3611SOL    HW110853   4.572   3.927   3.654
 3611SOL    HW210854   4.432   4.007   3.676
 3612SOL     OW10855   4.646   4.227   2.761
 3612SOL    HW110856   4.621   4.218   2.665
 3612SOL    HW210857   4.694   4.145   2.792
 3613SOL     OW10858   4.263   3.788   2.374
 3613SOL    HW110859   4.182   3.789   2.432
 3613SOL    HW210860   4.266   3.871   2.319
 3614SOL     OW10861   4.021   3.759   2.033
 3614SOL    HW110862   4.070   3.843   2.012
 3614SOL    HW210863   4.083   3.694   2.078
 3615SOL     OW10864   4.659   3.960   2.342
 3615SOL    HW110865   4.611   4.001   2.264
 3615SOL    HW210866   4.758   3.958   2.323
 3616SOL     OW10867   4.756   4.273   1.878
 3616SOL    HW110868   4.715   4.355   1.839
 3616SOL    HW210869   4.820   4.299   1.951
 3617SOL     OW10870   3.802   4.280   3.248
 3617SOL    HW110871   3.894   4.279   3.207
 3617SOL    HW210872   3.796   4.354   3.315
 3618SOL     OW10873   4.285   3.946   3.009
 3618SOL    HW110874   4.323   3.862   3.046
 3618SOL    HW210875   4.197   3.965   3.053
 3619SOL     OW10876   4.590   4.178   2.504
 3619SOL    HW110877   4.558   4.250   2.442
 3619SOL    HW210878   4.614   4.097   2.451
 3620SOL     OW10879   4.741   3.763   2.615
 3620SOL    HW110880   4.669   3.768   2.546
 3620SOL    HW210881   4.717   3.694   2.684
 3621SOL     OW10882   4.251   3.980   2.190
 3621SOL    HW110883   4.278   3.921   2.115
 3621SOL    HW210884   4.251   4.075   2.159
 3622SOL     OW10885   4.639   3.813   3.264
 3622SOL    HW110886   4.664   3.793   3.169
 3622SOL    HW210887   4.711   3.869   3.306
 3623SOL     OW10888   4.134   4.537   3.113
 3623SOL    HW110889   4.220   4.549   3.163
 3623SOL    HW210890   4.092   4.450   3.140
 3624SOL     OW10891   4.290   4.261   2.727
 3624SOL    HW110892   4.302   4.327   2.653
 3624SOL    HW210893   4.336   4.295   2.810
 3625SOL     OW10894   4.126   4.475   3.460
 3625SOL    HW110895   4.194   4.530   3.413
 3625SOL    HW210896   4.166   4.387   3.487
 3626SOL     OW10897   4.737   3.829   3.632
 3626SOL    HW110898   4.743   3.914   3.580
 3626SOL    HW210899   4.769   3.753   3.575
 3627SOL     OW10900   4.228   3.774   3.602
 3627SOL    HW110901   4.186   3.717   3.532
 3627SOL    HW210902   4.162   3.843   3.634
 3628SOL     OW10903   4.297   4.594   2.891
 3628SOL    HW110904   4.341   4.683   2.882
 3628SOL    HW210905   4.234   4.594   2.968
 3629SOL     OW10906   4.933   4.249   2.137
 3629SOL    HW110907   4.946   4.165   2.191
 3629SOL    HW210908   4.904   4.323   2.197
 3630SOL     OW10909   4.031   3.937   3.093
 3630SOL    HW110910   4.008   3.974   3.183
 3630SOL    HW210911   4.001   3.842   3.087
 3631SOL     OW10912   4.456   4.358   2.926
 3631SOL    HW110913   4.515   4.332   2.850
 3631SOL    HW210914   4.428   4.454   2.915
 3632SOL     OW10915   4.031   3.787   2.480
 3632SOL    HW110916   4.020   3.881   2.513
 3632SOL    HW210917   4.026   3.724   2.557
 3633SOL     OW10918   4.747   4.490   2.828
 3633SOL    HW110919   4.762   4.511   2.924
 3633SOL    HW210920   4.717   4.395   2.819
 3634SOL     OW10921   4.074   4.622   3.666
 3634SOL    HW110922   4.150   4.666   3.714
 3634SOL    HW210923   4.109   4.575   3.584
 3635SOL     OW10924   4.043   4.534   2.811
 3635SOL    HW110925   4.136   4.570   2.816
 3635SOL    HW210926   4.037   4.449   2.863
 3636SOL     OW10927   4.063   4.233   2.868
 3636SOL    HW110928   4.011   4.150   2.851
 3636SOL    HW210929   4.140   4.238   2.804
 3637SOL     OW10930   4.726   4.520   3.100
 3637SOL    HW110931   4.767   4.488   3.186
 3637SOL    HW210932   4.630   4.493   3.097
 3638SOL     OW10933   3.764   4.268   2.976
 3638SOL    HW110934   3.849   4.235   2.935
 3638SOL    HW210935   3.777   4.283   3.074
 3639SOL     OW10936   3.913   4.244   3.584
 3639SOL    HW110937   3.972   4.204   3.514
 3639SOL    HW210938   3.855   4.315   3.543
 3640SOL     OW10939   4.539   4.296   2.187
 3640SOL    HW110940   4.546   4.207   2.141
 3640SOL    HW210941   4.445   4.330   2.179
 3641SOL     OW10942   4.395   4.188   3.131
 3641SOL    HW110943   4.361   4.099   3.101
 3641SOL    HW210944   4.421   4.242   3.051
 3642SOL     OW10945   4.197   4.224   2.053
 3642SOL    HW110946   4.258   4.304   2.057
 3642SOL    HW210947   4.102   4.255   2.060
 3643SOL     OW10948   3.883   4.861   3.328
 3643SOL    HW110949   3.905   4.800   3.404
 3643SOL    HW210950   3.893   4.812   3.242
 3644SOL     OW10951   5.026   4.579   2.171
 3644SOL    HW110952   4.940   4.548   2.213
 3644SOL    HW210953   5.022   4.565   2.072
 3645SOL     OW10954   5.004   4.651   2.534
 3645SOL    HW110955   5.064   4.570   2.536
 3645SOL    HW210956   5.044   4.720   2.474
 3646SOL     OW10957   3.987   4.050   2.582
 3646SOL    HW110958   3.908   4.101   2.548
 3646SOL    HW210959   3.978   4.035   2.680
 3647SOL     OW10960   4.640   4.634   2.153
 3647SOL    HW110961   4.703   4.672   2.085
 3647SOL    HW210962   4.680   4.551   2.192
 3648SOL     OW10963   4.738   3.960   2.833
 3648SOL    HW110964   4.730   3.924   2.740
 3648SOL    HW210965   4.736   3.884   2.898
 3649SOL     OW10966   3.829   4.737   3.588
 3649SOL    HW110967   3.752   4.704   3.642
 3649SOL    HW210968   3.914   4.707   3.630
 3650SOL     OW10969   4.396   3.927   3.351
 3650SOL    HW110970   4.486   3.911   3.311
 3650SOL    HW210971   4.404   3.932   3.450
 3651SOL     OW10972   3.799   4.069   1.895
 3651SOL    HW110973   3.707   4.041   1.866
 3651SOL    HW210974   3.830   4.146   1.839
 3652SOL     OW10975   3.796   3.890   2.180
 3652SOL    HW110976   3.779   3.973   2.126
 3652SOL    HW210977   3.886   3.853   2.158
 3653SOL     OW10978   4.337   4.566   3.293
 3653SOL    HW110979   4.393   4.647   3.276
 3653SOL    HW210980   4.396   4.486   3.296
 3654SOL     OW10981   4.440   4.289   3.570
 3654SOL    HW110982   4.459   4.354   3.644
 3654SOL    HW210983   4.500   4.209   3.579
 3655SOL     OW10984   4.949   4.049   2.311
 3655SOL    HW110985   5.014   3.975   2.300
 3655SOL    HW210986   4.969   4.099   2.395
 3656SOL     OW10987   4.318   4.469   2.514
 3656SOL    HW110988   4.368   4.554   2.495
 3656SOL    HW210989   4.230   4.471   2.466
 3657SOL     OW10990   4.583   4.680   2.723
 3657SOL    HW110991   4.637   4.611   2.771
 3657SOL    HW210992   4.551   4.749   2.789
 3658SOL     OW10993   3.803   4.964   2.515
 3658SOL    HW110994   3.802   4.917   2.603
 3658SOL    HW210995   3.885   4.936   2.464
 3659SOL     OW10996   4.152   4.148   2.382
 3659SOL    HW110997   4.182   4.076   2.320
 3659SOL    HW210998   4.113   4.108   2.465
 3660SOL     OW10999   4.041   4.271   3.142
 3660SOL    HW111000   4.079   4.212   3.214
 3660SOL    HW211001   4.081   4.245   3.054
 3661SOL     OW11002   4.725   3.758   3.016
 3661SOL    HW111003   4.662   3.686   2.985
 3661SOL    HW211004   4.818   3.722   3.016
 3662SOL     OW11005   3.763   4.801   2.162
 3662SOL    HW111006   3.862   4.790   2.153
 3662SOL    HW211007   3.723   4.715   2.194
 3663SOL     OW11008   3.954   4.352   3.837
 3663SOL    HW111009   3.861   4.350   3.874
 3663SOL    HW211010   3.955   4.313   3.745
 3664SOL     OW11011   3.949   3.999   4.720
 3664SOL    HW111012   3.984   3.982   4.812
 3664SOL    HW211013   3.861   3.954   4.708
 3665SOL     OW11014   3.743   4.092   4.371
 3665SOL    HW111015   3.661   4.135   4.410
 3665SOL    HW211016   3.715   4.019   4.308
 3666SOL     OW11017   4.409   4.736   4.389
 3666SOL    HW111018   4.478   4.720   4.459
 3666SOL    HW211019   4.336   4.793   4.427
 3667SOL     OW11020   3.964   4.815   4.610
 3667SOL    HW111021   3.978   4.731   4.662
 3667SOL    HW211022   3.909   4.879   4.665
 3668SOL     OW11023   4.330   4.688   3.847
 3668SOL    HW111024   4.337   4.772   3.793
 3668SOL    HW211025   4.376   4.701   3.935
 3669SOL     OW11026   3.846   4.367   4.287
 3669SOL    HW111027   3.801   4.279   4.304
 3669SOL    HW211028   3.845   4.421   4.371
 3670SOL     OW11029   4.533   3.728   4.226
 3670SOL    HW111030   4.573   3.819   4.217
 3670SOL    HW211031   4.433   3.736   4.232
 3671SOL     OW11032   3.921   4.700   4.988
 3671SOL    HW111033   4.010   4.655   4.974
 3671SOL    HW211034   3.848   4.635   4.969
 3672SOL     OW11035   4.322   4.453   3.994
 3672SOL    HW111036   4.346   4.522   3.926
 3672SOL    HW211037   4.244   4.486   4.048
 3673SOL     OW11038   4.765   4.425   4.153
 3673SOL    HW111039   4.791   4.421   4.249
 3673SOL    HW211040   4.680   4.374   4.139
 3674SOL     OW11041   3.800   4.535   4.513
 3674SOL    HW111042   3.899   4.523   4.522
 3674SOL    HW211043   3.776   4.630   4.534
 3675SOL     OW11044   4.589   4.072   3.919
 3675SOL    HW111045   4.648   4.135   3.870
 3675SOL    HW211046   4.608   3.978   3.890
 3676SOL     OW11047   4.274   3.920   4.609
 3676SOL    HW111048   4.269   3.915   4.709
 3676SOL    HW211049   4.276   4.016   4.580
 3677SOL     OW11050   4.106   4.424   4.204
 3677SOL    HW111051   4.151   4.334   4.201
 3677SOL    HW211052   4.012   4.413   4.237
 3678SOL     OW11053   4.338   3.846   3.841
 3678SOL    HW111054   4.436   3.824   3.848
 3678SOL    HW211055   4.307   3.829   3.748
 3679SOL     OW11056   4.646   4.227   4.623
 3679SOL    HW111057   4.621   4.218   4.527
 3679SOL    HW211058   4.694   4.145   4.654
 3680SOL     OW11059   4.263   3.788   4.236
 3680SOL    HW111060   4.182   3.789   4.294
 3680SOL    HW211061   4.266   3.871   4.181
 3681SOL     OW11062   4.021   3.759   3.895
 3681SOL    HW111063   4.070   3.843   3.874
 3681SOL    HW211064   4.083   3.694   3.940
 3682SOL     OW11065   4.659   3.960   4.204
 3682SOL    HW111066   4.611   4.001   4.126
 3682SOL    HW211067   4.758   3.958   4.185
 3683SOL     OW11068   4.756   4.273   3.740
 3683SOL    HW111069   4.715   4.355   3.701
 3683SOL    HW211070   4.820   4.299   3.813
 3684SOL     OW11071   4.590   4.178   4.366
 3684SOL    HW111072   4.558   4.250   4.304
 3684SOL    HW211073   4.614   4.097   4.313
 3685SOL     OW11074   4.741   3.763   4.477
 3685SOL    HW111075   4.669   3.768   4.408
 3685SOL    HW211076   4.717   3.694   4.546
 3686SOL     OW11077   4.251   3.980   4.052
 3686SOL    HW111078   4.278   3.921   3.977
 3686SOL    HW211079   4.251   4.075   4.021
 3687SOL     OW11080   4.290   4.261   4.589
 3687SOL    HW111081   4.302   4.327   4.515
 3687SOL    HW211082   4.336   4.295   4.672
 3688SOL     OW11083   4.297   4.594   4.753
 3688SOL    HW111084   4.341   4.683   4.744
 3688SOL    HW211085   4.234   4.594   4.830
 3689SOL     OW11086   4.933   4.249   3.999
 3689SOL    HW111087   4.946   4.165   4.053
 3689SOL    HW211088   4.904   4.323   4.059
 3690SOL     OW11089   4.031   3.937   4.955
 3690SOL    HW111090   4.008   3.974   5.045
 3690SOL    HW211091   4.001   3.842   4.949
 3691SOL     OW11092   4.456   4.358   4.788
 3691SOL    HW111093   4.515   4.332   4.712
 3691SOL    HW211094   4.428   4.454   4.777
 3692SOL     OW11095   4.031   3.787   4.342
 3692SOL    HW111096   4.020   3.881   4.375
 3692SOL    HW211097   4.026   3.724   4.419
 3693SOL     OW11098   4.043   4.534   4.673
 3693SOL    HW111099   4.136   4.570   4.678
 3693SOL    HW211100   4.037   4.449   4.725
 3694SOL     OW11101   4.063   4.233   4.730
 3694SOL    HW111102   4.011   4.150   4.713
 3694SOL    HW211103   4.140   4.238   4.666
 3695SOL     OW11104   4.726   4.520   4.962
 3695SOL    HW111105   4.767   4.488   5.048
 3695SOL    HW211106   4.630   4.493   4.959
 3696SOL     OW11107   4.539   4.296   4.049
 3696SOL    HW111108   4.546   4.207   4.003
 3696SOL    HW211109   4.445   4.330   4.041
 3697SOL     OW11110   4.395   4.188   4.993
 3697SOL    HW111111   4.361   4.099   4.963
 3697SOL    HW211112   4.421   4.242   4.913
 3698SOL     OW11113   4.197   4.224   3.915
 3698SOL    HW111114   4.258   4.304   3.919
 3698SOL    HW211115   4.102   4.255   3.922
 3699SOL     OW11116   5.026   4.579   4.033
 3699SOL    HW111117   4.940   4.548   4.075
 3699SOL    HW211118   5.022   4.565   3.934
 3700SOL     OW11119   5.004   4.651   4.396
 3700SOL    HW111120   5.064   4.570   4.398
 3700SOL    HW211121   5.044   4.720   4.336
 3701SOL     OW11122   3.987   4.050   4.444
 3701SOL    HW111123   3.908   4.101   4.410
 3701SOL    HW211124   3.978   4.035   4.542
 3702SOL     OW11125   4.640   4.634   4.015
 3702SOL    HW111126   4.703   4.672   3.947
 3702SOL    HW211127   4.680   4.551   4.054
 3703SOL     OW11128   4.738   3.960   4.695
 3703SOL    HW111129   4.730   3.924   4.602
 3703SOL    HW211130   4.736   3.884   4.760
 3704SOL     OW11131   3.799   4.069   3.757
 3704SOL    HW111132   3.707   4.041   3.728
 3704SOL    HW211133   3.830   4.146   3.701
 3705SOL     OW11134   3.796   3.890   4.042
 3705SOL    HW111135   3.779   3.973   3.988
 3705SOL    HW211136   3.886   3.853   4.020
 3706SOL     OW11137   4.949   4.049   4.173
 3706SOL    HW111138   5.014   3.975   4.162
 3706SOL    HW211139   4.969   4.099   4.257
 3707SOL     OW11140   4.318   4.469   4.376
 3707SOL    HW111141   4.368   4.554   4.357
 3707SOL    HW211142   4.230   4.471   4.328
 3708SOL     OW11143   4.583   4.680   4.585
 3708SOL    HW111144   4.637   4.611   4.633
 3708SOL    HW211145   4.551   4.749   4.651
 3709SOL     OW11146   3.803   4.964   4.377
 3709SOL    HW111147   3.802   4.917   4.465
 3709SOL    HW211148   3.885   4.936   4.326
 3710SOL     OW11149   4.152   4.148   4.244
 3710SOL    HW111150   4.182   4.076   4.182
 3710SOL    HW211151   4.113   4.108   4.327
 3711SOL     OW11152   3.763   4.801   4.024
 3711SOL    HW111153   3.862   4.790   4.015
 3711SOL    HW211154   3.723   4.715   4.056
   4.82286   4.82286   4.82286
