; mobley_3234716_GMX_OPLS.top created by acpype (v: 2023.10.27) on Wed May 20 23:44:15 2026

; Include forcefield parameters
#include "ffoplsaa.itp"

; Include mobley_3234716_GMX.itp topology
#include "mobley_3234716_GMX.itp"

; Ligand position restraints
#ifdef POSRES_LIG
#include "posre_mobley_3234716.itp"
#endif

[ system ]
 mobley_3234716

[ molecules ]
; Compound        nmols
 mobley_3234716   1     
