p_xylene
    18
   0.8180000  -0.4390000   0.5640000   0.7990000  -0.4060000   1.9590000
   2.9370000  -1.5970000   0.6200000   2.9180000  -1.5650000   2.0140000
   1.8870000  -1.0340000  -0.1050000   1.8500000  -0.9690000   2.6840000
   1.9060000  -1.0700000  -1.5960000   1.8300000  -0.9340000   4.1740000
  -0.0050000   0.0030000   0.0080000  -0.0370000   0.0610000   2.4720000
   3.7740000  -2.0630000   0.1060000   3.7410000  -2.0050000   2.5710000
   2.1010000  -2.0890000  -1.9510000   0.9490000  -0.7320000  -2.0150000
   2.6820000  -0.4060000  -2.0000000   2.7330000  -0.4430000   4.5570000
   0.9530000  -0.3900000   4.5490000   1.7790000  -1.9460000   4.5960000
