mobley_3234716_GMX.gro created by acpype (v: 2023.10.27) on Wed May 20 23:44:15 2026
 18
    1  MOL   C1    1   0.082  -0.044   0.056
    1  MOL   C2    2   0.080  -0.041   0.196
    1  MOL   C3    3   0.294  -0.160   0.062
    1  MOL   C4    4   0.292  -0.157   0.201
    1  MOL   C5    5   0.189  -0.103  -0.011
    1  MOL   C6    6   0.185  -0.097   0.268
    1  MOL   C7    7   0.191  -0.107  -0.160
    1  MOL   C8    8   0.183  -0.093   0.417
    1  MOL   H1    9  -0.001   0.000   0.001
    1  MOL   H2   10  -0.004   0.006   0.247
    1  MOL   H3   11   0.377  -0.206   0.011
    1  MOL   H4   12   0.374  -0.201   0.257
    1  MOL   H5   13   0.210  -0.209  -0.195
    1  MOL   H6   14   0.095  -0.073  -0.202
    1  MOL   H7   15   0.268  -0.041  -0.200
    1  MOL   H8   16   0.273  -0.044   0.456
    1  MOL   H9   17   0.095  -0.039   0.455
    1  MOL  H10   18   0.178  -0.195   0.460
    7.62200     4.30000    13.22200
