; mobley_3234716_GMX_OPLS.itp created by acpype (v: 2023.10.27) on Wed May 20 23:44:15 2026

; For OPLS atomtypes manual fine tuning
; AC_at:OPLS_at:OPLScode: Possible_Alternatives (see ffoplsaa.atp and ffoplsaanb.itp)
; ca:CA:opls_145: ['166', '501', '502']
; c3:CT:opls_135: ['136', '137', '149', '157', '158', '206', '209', '210', '223B', '224B', '245', '246', '274', '283', '284', '285', '292', '292B', '293B', '296', '307', '308', '505']
; ha:HA:opls_146: []
; hc:HC:opls_140: []

[ moleculetype ]
;name            nrexcl
 mobley_3234716   3

[ atoms ]
;   nr  type  resi  res  atom  cgnr     charge      mass       ; qtot   bond_type
     1 opls_145     1   MOL    C1    1    -0.127000     12.01100 ; qtot -0.127  CA  
     2 opls_145     1   MOL    C2    2    -0.127000     12.01100 ; qtot -0.254  CA  
     3 opls_145     1   MOL    C3    3    -0.127000     12.01100 ; qtot -0.381  CA  
     4 opls_145     1   MOL    C4    4    -0.127000     12.01100 ; qtot -0.508  CA  
     5 opls_145     1   MOL    C5    5    -0.082300     12.01100 ; qtot -0.590  CA  
     6 opls_145     1   MOL    C6    6    -0.082300     12.01100 ; qtot -0.673  CA  
     7 opls_135     1   MOL    C7    7    -0.052800     12.01100 ; qtot -0.725  CT  
     8 opls_135     1   MOL    C8    8    -0.052800     12.01100 ; qtot -0.778  CT  
     9 opls_146     1   MOL    H1    9     0.130000      1.00800 ; qtot -0.648  HA  
    10 opls_146     1   MOL    H2   10     0.130000      1.00800 ; qtot -0.518  HA  
    11 opls_146     1   MOL    H3   11     0.130000      1.00800 ; qtot -0.388  HA  
    12 opls_146     1   MOL    H4   12     0.130000      1.00800 ; qtot -0.258  HA  
    13 opls_140     1   MOL    H5   13     0.043033      1.00800 ; qtot -0.215  HC  
    14 opls_140     1   MOL    H6   14     0.043033      1.00800 ; qtot -0.172  HC  
    15 opls_140     1   MOL    H7   15     0.043033      1.00800 ; qtot -0.129  HC  
    16 opls_140     1   MOL    H8   16     0.043033      1.00800 ; qtot -0.086  HC  
    17 opls_140     1   MOL    H9   17     0.043033      1.00800 ; qtot -0.043  HC  
    18 opls_140     1   MOL   H10   18     0.043033      1.00800 ; qtot -0.000  HC  

[ bonds ]
;   ai     aj funct   r             k
     1      2   1 ;    1.3986e-01    2.9644e+05 ;     C1 - C2         CA - CA    
     1      5   1 ;    1.3986e-01    2.9644e+05 ;     C1 - C5         CA - CA    
     1      9   1 ;    1.0860e-01    3.0183e+05 ;     C1 - H1         CA - HA    
     2      6   1 ;    1.3986e-01    2.9644e+05 ;     C2 - C6         CA - CA    
     2     10   1 ;    1.0860e-01    3.0183e+05 ;     C2 - H2         CA - HA    
     3      4   1 ;    1.3986e-01    2.9644e+05 ;     C3 - C4         CA - CA    
     3      5   1 ;    1.3986e-01    2.9644e+05 ;     C3 - C5         CA - CA    
     3     11   1 ;    1.0860e-01    3.0183e+05 ;     C3 - H3         CA - HA    
     4      6   1 ;    1.3986e-01    2.9644e+05 ;     C4 - C6         CA - CA    
     4     12   1 ;    1.0860e-01    3.0183e+05 ;     C4 - H4         CA - HA    
     5      7   1 ;    1.5147e-01    2.0410e+05 ;     C5 - C7         CA - CT    
     6      8   1 ;    1.5147e-01    2.0410e+05 ;     C6 - C8         CA - CT    
     7     13   1 ;    1.0962e-01    2.8891e+05 ;     C7 - H5         CT - HC    
     7     14   1 ;    1.0962e-01    2.8891e+05 ;     C7 - H6         CT - HC    
     7     15   1 ;    1.0962e-01    2.8891e+05 ;     C7 - H7         CT - HC    
     8     16   1 ;    1.0962e-01    2.8891e+05 ;     C8 - H8         CT - HC    
     8     17   1 ;    1.0962e-01    2.8891e+05 ;     C8 - H9         CT - HC    
     8     18   1 ;    1.0962e-01    2.8891e+05 ;     C8 - H10        CT - HC    

[ pairs ]
;   ai     aj    funct
     1      4      1 ;     C1 - C4    
     1      8      1 ;     C1 - C8    
     1     11      1 ;     C1 - H3    
     1     13      1 ;     C1 - H5    
     1     14      1 ;     C1 - H6    
     1     15      1 ;     C1 - H7    
     2      3      1 ;     C2 - C3    
     2      7      1 ;     C2 - C7    
     2     12      1 ;     C2 - H4    
     2     16      1 ;     C2 - H8    
     2     17      1 ;     C2 - H9    
     2     18      1 ;     C2 - H10   
     3      8      1 ;     C3 - C8    
     3     13      1 ;     C3 - H5    
     3     14      1 ;     C3 - H6    
     3     15      1 ;     C3 - H7    
     4      7      1 ;     C4 - C7    
     4     10      1 ;     C4 - H2    
     4     16      1 ;     C4 - H8    
     4     17      1 ;     C4 - H9    
     4     18      1 ;     C4 - H10   
     5      6      1 ;     C5 - C6    
     5     10      1 ;     C5 - H2    
     5     12      1 ;     C5 - H4    
     6     11      1 ;     C6 - H3    
     7     11      1 ;     C7 - H3    
     8     10      1 ;     C8 - H2    
     8     12      1 ;     C8 - H4    
     9      3      1 ;     H1 - C3    
     9      6      1 ;     H1 - C6    
     9      7      1 ;     H1 - C7    
     9     10      1 ;     H1 - H2    
    11     12      1 ;     H3 - H4    

[ angles ]
;   ai     aj     ak    funct   theta         cth
     1      2      6      1 ;    1.2002e+02    5.3279e+02 ;     C1 - C2   - C6       CA -   CA - CA  
     1      2     10      1 ;    1.1988e+02    3.7572e+02 ;     C1 - C2   - H2       CA -   CA - HA  
     1      5      3      1 ;    1.2002e+02    5.3279e+02 ;     C1 - C5   - C3       CA -   CA - CA  
     1      5      7      1 ;    1.2083e+02    5.0827e+02 ;     C1 - C5   - C7       CA -   CA - CT  
     2      1      5      1 ;    1.2002e+02    5.3279e+02 ;     C2 - C1   - C5       CA -   CA - CA  
     2      1      9      1 ;    1.1988e+02    3.7572e+02 ;     C2 - C1   - H1       CA -   CA - HA  
     2      6      4      1 ;    1.2002e+02    5.3279e+02 ;     C2 - C6   - C4       CA -   CA - CA  
     2      6      8      1 ;    1.2083e+02    5.0827e+02 ;     C2 - C6   - C8       CA -   CA - CT  
     3      4      6      1 ;    1.2002e+02    5.3279e+02 ;     C3 - C4   - C6       CA -   CA - CA  
     3      4     12      1 ;    1.1988e+02    3.7572e+02 ;     C3 - C4   - H4       CA -   CA - HA  
     3      5      7      1 ;    1.2083e+02    5.0827e+02 ;     C3 - C5   - C7       CA -   CA - CT  
     4      3      5      1 ;    1.2002e+02    5.3279e+02 ;     C4 - C3   - C5       CA -   CA - CA  
     4      3     11      1 ;    1.1988e+02    3.7572e+02 ;     C4 - C3   - H3       CA -   CA - HA  
     4      6      8      1 ;    1.2083e+02    5.0827e+02 ;     C4 - C6   - C8       CA -   CA - CT  
     5      1      9      1 ;    1.1988e+02    3.7572e+02 ;     C5 - C1   - H1       CA -   CA - HA  
     5      3     11      1 ;    1.1988e+02    3.7572e+02 ;     C5 - C3   - H3       CA -   CA - HA  
     5      7     13      1 ;    1.1063e+02    3.6493e+02 ;     C5 - C7   - H5       CA -   CT - HC  
     5      7     14      1 ;    1.1063e+02    3.6493e+02 ;     C5 - C7   - H6       CA -   CT - HC  
     5      7     15      1 ;    1.1063e+02    3.6493e+02 ;     C5 - C7   - H7       CA -   CT - HC  
     6      2     10      1 ;    1.1988e+02    3.7572e+02 ;     C6 - C2   - H2       CA -   CA - HA  
     6      4     12      1 ;    1.1988e+02    3.7572e+02 ;     C6 - C4   - H4       CA -   CA - HA  
     6      8     16      1 ;    1.1063e+02    3.6493e+02 ;     C6 - C8   - H8       CA -   CT - HC  
     6      8     17      1 ;    1.1063e+02    3.6493e+02 ;     C6 - C8   - H9       CA -   CT - HC  
     6      8     18      1 ;    1.1063e+02    3.6493e+02 ;     C6 - C8   - H10      CA -   CT - HC  
    13      7     14      1 ;    1.0773e+02    2.9957e+02 ;     H5 - C7   - H6       HC -   CT - HC  
    13      7     15      1 ;    1.0773e+02    2.9957e+02 ;     H5 - C7   - H7       HC -   CT - HC  
    14      7     15      1 ;    1.0773e+02    2.9957e+02 ;     H6 - C7   - H7       HC -   CT - HC  
    16      8     17      1 ;    1.0773e+02    2.9957e+02 ;     H8 - C8   - H9       HC -   CT - HC  
    16      8     18      1 ;    1.0773e+02    2.9957e+02 ;     H8 - C8   - H10      HC -   CT - HC  
    17      8     18      1 ;    1.0773e+02    2.9957e+02 ;     H9 - C8   - H10      HC -   CT - HC  

[ dihedrals ] ; propers
; for gromacs 4.5 or higher, using funct 9
;    i      j      k      l   func   phase     kd      pn
     1      2      6      4      9 ;   180.00  15.16700   2 ;     C1-    C2-    C6-    C4
     1      2      6      8      9 ;   180.00  15.16700   2 ;     C1-    C2-    C6-    C8
     1      5      3      4      9 ;   180.00  15.16700   2 ;     C1-    C5-    C3-    C4
     1      5      3     11      9 ;   180.00  15.16700   2 ;     C1-    C5-    C3-    H3
     1      5      7     13      9 ;     0.00   0.00000   0 ;     C1-    C5-    C7-    H5
     1      5      7     14      9 ;     0.00   0.00000   0 ;     C1-    C5-    C7-    H6
     1      5      7     15      9 ;     0.00   0.00000   0 ;     C1-    C5-    C7-    H7
     2      1      5      3      9 ;   180.00  15.16700   2 ;     C2-    C1-    C5-    C3
     2      1      5      7      9 ;   180.00  15.16700   2 ;     C2-    C1-    C5-    C7
     2      6      4      3      9 ;   180.00  15.16700   2 ;     C2-    C6-    C4-    C3
     2      6      4     12      9 ;   180.00  15.16700   2 ;     C2-    C6-    C4-    H4
     2      6      8     16      9 ;     0.00   0.00000   0 ;     C2-    C6-    C8-    H8
     2      6      8     17      9 ;     0.00   0.00000   0 ;     C2-    C6-    C8-    H9
     2      6      8     18      9 ;     0.00   0.00000   0 ;     C2-    C6-    C8-   H10
     3      4      6      8      9 ;   180.00  15.16700   2 ;     C3-    C4-    C6-    C8
     3      5      7     13      9 ;     0.00   0.00000   0 ;     C3-    C5-    C7-    H5
     3      5      7     14      9 ;     0.00   0.00000   0 ;     C3-    C5-    C7-    H6
     3      5      7     15      9 ;     0.00   0.00000   0 ;     C3-    C5-    C7-    H7
     4      3      5      7      9 ;   180.00  15.16700   2 ;     C4-    C3-    C5-    C7
     4      6      2     10      9 ;   180.00  15.16700   2 ;     C4-    C6-    C2-    H2
     4      6      8     16      9 ;     0.00   0.00000   0 ;     C4-    C6-    C8-    H8
     4      6      8     17      9 ;     0.00   0.00000   0 ;     C4-    C6-    C8-    H9
     4      6      8     18      9 ;     0.00   0.00000   0 ;     C4-    C6-    C8-   H10
     5      1      2      6      9 ;   180.00  15.16700   2 ;     C5-    C1-    C2-    C6
     5      1      2     10      9 ;   180.00  15.16700   2 ;     C5-    C1-    C2-    H2
     5      3      4      6      9 ;   180.00  15.16700   2 ;     C5-    C3-    C4-    C6
     5      3      4     12      9 ;   180.00  15.16700   2 ;     C5-    C3-    C4-    H4
     6      4      3     11      9 ;   180.00  15.16700   2 ;     C6-    C4-    C3-    H3
     7      5      3     11      9 ;   180.00  15.16700   2 ;     C7-    C5-    C3-    H3
     8      6      2     10      9 ;   180.00  15.16700   2 ;     C8-    C6-    C2-    H2
     8      6      4     12      9 ;   180.00  15.16700   2 ;     C8-    C6-    C4-    H4
     9      1      2      6      9 ;   180.00  15.16700   2 ;     H1-    C1-    C2-    C6
     9      1      2     10      9 ;   180.00  15.16700   2 ;     H1-    C1-    C2-    H2
     9      1      5      3      9 ;   180.00  15.16700   2 ;     H1-    C1-    C5-    C3
     9      1      5      7      9 ;   180.00  15.16700   2 ;     H1-    C1-    C5-    C7
    11      3      4     12      9 ;   180.00  15.16700   2 ;     H3-    C3-    C4-    H4

[ dihedrals ] ; impropers
; treated as propers in GROMACS to use correct AMBER analytical function
;    i      j      k      l   func   phase     kd      pn
     1      3      5      7      4 ;   180.00   4.60240   2 ;     C1-    C3-    C5-    C7
     1      6      2     10      4 ;   180.00   4.60240   2 ;     C1-    C6-    C2-    H2
     3      6      4     12      4 ;   180.00   4.60240   2 ;     C3-    C6-    C4-    H4
     4      5      3     11      4 ;   180.00   4.60240   2 ;     C4-    C5-    C3-    H3
     8      2      6      4      4 ;   180.00   4.60240   2 ;     C8-    C2-    C6-    C4
     9      1      5      2      4 ;   180.00   4.60240   2 ;     H1-    C1-    C5-    C2
