mobley_1199854_GMX.gro created by acpype (v: 2023.10.27) on Wed May 20 23:46:01 2026
   11
    1MOL     C1    1   2.154   2.281   2.178
    1MOL     C2    2   2.235   2.284   2.306
    1MOL     C3    3   2.373   2.220   2.287
    1MOL     I1    4   2.484   2.222   2.469
    1MOL     H1    5   2.056   2.327   2.194
    1MOL     H2    6   2.205   2.336   2.098
    1MOL     H3    7   2.138   2.178   2.144
    1MOL     H4    8   2.180   2.231   2.385
    1MOL     H5    9   2.247   2.388   2.339
    1MOL     H6   10   2.429   2.274   2.209
    1MOL     H7   11   2.361   2.116   2.252
   4.51946   4.51946   4.51946
