mobley_6714389_GMX.gro created by acpype (v: 2023.10.27) on Thu May 21 00:02:04 2026
 7900
    1MOL     C1    1   2.198   2.146   2.174
    1MOL     N1    2   2.091   2.135   2.078
    1MOL     H1    3   2.161   2.184   2.270
    1MOL     H2    4   2.275   2.215   2.137
    1MOL     H3    5   2.245   2.049   2.191
    1MOL     H4    6   2.046   2.226   2.065
    1MOL     H5    7   2.018   2.073   2.114
    2SOL     OW    8   0.230   0.628   0.113
    2SOL    HW1    9   0.137   0.626   0.150
    2SOL    HW2   10   0.231   0.589   0.021
    3SOL     OW   11   0.225   0.275   0.996
    3SOL    HW1   12   0.260   0.258   1.088
    3SOL    HW2   13   0.137   0.230   0.984
    4SOL     OW   14   0.019   0.368   0.647
    4SOL    HW1   15  -0.063   0.411   0.686
    4SOL    HW2   16  -0.009   0.295   0.584
    5SOL     OW   17   0.569   1.275   1.165
    5SOL    HW1   18   0.476   1.268   1.128
    5SOL    HW2   19   0.580   1.364   1.209
    6SOL     OW   20   1.555   1.511   0.703
    6SOL    HW1   21   1.498   1.495   0.784
    6SOL    HW2   22   1.496   1.521   0.623
    7SOL     OW   23   1.135   0.703   0.717
    7SOL    HW1   24   1.192   0.781   0.692
    7SOL    HW2   25   1.075   0.729   0.793
    8SOL     OW   26   1.755   0.607   0.231
    8SOL    HW1   27   1.743   0.594   0.132
    8SOL    HW2   28   1.725   0.526   0.280
    9SOL     OW   29   0.768   1.144   1.023
    9SOL    HW1   30   0.690   1.161   1.083
    9SOL    HW2   31   0.802   1.231   0.987
   10SOL     OW   32   0.850   0.798   1.823
   10SOL    HW1   33   0.846   0.874   1.888
   10SOL    HW2   34   0.872   0.834   1.732
   11SOL     OW   35   0.685   1.012   0.665
   11SOL    HW1   36   0.754   0.996   0.735
   11SOL    HW2   37   0.612   1.069   0.703
   12SOL     OW   38   0.686   1.161   1.803
   12SOL    HW1   39   0.746   1.240   1.817
   12SOL    HW2   40   0.600   1.192   1.762
   13SOL     OW   41   0.335   1.435   1.061
   13SOL    HW1   42   0.257   1.404   1.008
   13SOL    HW2   43   0.393   1.493   1.004
   14SOL     OW   44   1.460   1.505   1.339
   14SOL    HW1   45   1.484   1.599   1.365
   14SOL    HW2   46   1.444   1.451   1.421
   15SOL     OW   47   0.438   0.392   1.499
   15SOL    HW1   48   0.520   0.336   1.508
   15SOL    HW2   49   0.357   0.334   1.503
   16SOL     OW   50   1.603   0.447   0.737
   16SOL    HW1   51   1.529   0.493   0.687
   16SOL    HW2   52   1.654   0.515   0.790
   17SOL     OW   53   0.231   1.713   0.483
   17SOL    HW1   54   0.265   1.790   0.537
   17SOL    HW2   55   0.275   1.713   0.393
   18SOL     OW   56   1.127   1.341   1.690
   18SOL    HW1   57   1.174   1.341   1.778
   18SOL    HW2   58   1.079   1.254   1.679
   19SOL     OW   59   0.230   1.434   0.538
   19SOL    HW1   60   0.204   1.530   0.538
   19SOL    HW2   61   0.159   1.380   0.583
   20SOL     OW   62   0.240   1.091   0.886
   20SOL    HW1   63   0.254   1.007   0.938
   20SOL    HW2   64   0.185   1.155   0.941
   21SOL     OW   65   0.620   1.786   1.439
   21SOL    HW1   66   0.528   1.769   1.474
   21SOL    HW2   67   0.648   1.878   1.465
   22SOL     OW   68   0.606   0.964   0.123
   22SOL    HW1   69   0.613   1.048   0.069
   22SOL    HW2   70   0.652   0.977   0.211
   23SOL     OW   71   1.594   0.114   1.480
   23SOL    HW1   72   1.576   0.181   1.408
   23SOL    HW2   73   1.591   0.160   1.569
   24SOL     OW   74   0.122   0.643   0.563
   24SOL    HW1   75   0.077   0.555   0.580
   24SOL    HW2   76   0.121   0.697   0.647
   25SOL     OW   77   1.842   1.767   0.359
   25SOL    HW1   78   1.896   1.738   0.439
   25SOL    HW2   79   1.872   1.857   0.330
   26SOL     OW   80   0.027   1.596   0.117
   26SOL    HW1   81   0.008   1.500   0.138
   26SOL    HW2   82  -0.006   1.654   0.192
   27SOL     OW   83   1.689   0.922   0.612
   27SOL    HW1   84   1.784   0.893   0.620
   27SOL    HW2   85   1.681   0.987   0.537
   28SOL     OW   86   1.641   1.108   0.432
   28SOL    HW1   87   1.727   1.110   0.380
   28SOL    HW2   88   1.655   1.155   0.520
   29SOL     OW   89   0.113   0.737   1.597
   29SOL    HW1   90   0.201   0.724   1.642
   29SOL    HW2   91   0.100   0.834   1.575
   30SOL     OW   92   0.613   1.365   0.726
   30SOL    HW1   93   0.564   1.278   0.735
   30SOL    HW2   94   0.590   1.408   0.639
   31SOL     OW   95   1.293   1.228   1.423
   31SOL    HW1   96   1.330   1.155   1.365
   31SOL    HW2   97   1.345   1.233   1.508
   32SOL     OW   98   0.809   0.004   0.502
   32SOL    HW1   99   0.849   0.095   0.493
   32SOL    HW2  100   0.709   0.012   0.508
   33SOL     OW  101   0.197   0.976   1.264
   33SOL    HW1  102   0.286   0.931   1.250
   33SOL    HW2  103   0.124   0.911   1.245
   34SOL     OW  104   1.525   0.999   0.190
   34SOL    HW1  105   1.462   0.923   0.203
   34SOL    HW2  106   1.573   1.017   0.276
   35SOL     OW  107   1.187   1.792   1.616
   35SOL    HW1  108   1.211   1.852   1.540
   35SOL    HW2  109   1.194   1.697   1.586
   36SOL     OW  110   0.317   0.251   1.801
   36SOL    HW1  111   0.388   0.322   1.807
   36SOL    HW2  112   0.229   0.290   1.829
   37SOL     OW  113   1.466   1.417   0.953
   37SOL    HW1  114   1.407   1.423   1.033
   37SOL    HW2  115   1.451   1.329   0.907
   38SOL     OW  116   1.667   1.714   0.572
   38SOL    HW1  117   1.626   1.691   0.484
   38SOL    HW2  118   1.649   1.640   0.637
   39SOL     OW  119   0.598   0.729   0.270
   39SOL    HW1  120   0.622   0.798   0.202
   39SOL    HW2  121   0.520   0.762   0.324
   40SOL     OW  122   1.281   0.345   0.944
   40SOL    HW1  123   1.195   0.295   0.931
   40SOL    HW2  124   1.343   0.291   1.000
   41SOL     OW  125   1.576   1.662   0.307
   41SOL    HW1  126   1.665   1.708   0.310
   41SOL    HW2  127   1.555   1.638   0.212
   42SOL     OW  128   0.807   0.605   1.465
   42SOL    HW1  129   0.760   0.602   1.554
   42SOL    HW2  130   0.756   0.550   1.399
   43SOL     OW  131   1.394   0.469   1.674
   43SOL    HW1  132   1.374   0.512   1.762
   43SOL    HW2  133   1.472   0.407   1.683
   44SOL     OW  134   0.973   0.890   1.572
   44SOL    HW1  135   1.019   0.806   1.543
   44SOL    HW2  136   0.917   0.924   1.497
   45SOL     OW  137   0.991   0.410   1.242
   45SOL    HW1  138   0.914   0.444   1.296
   45SOL    HW2  139   0.957   0.359   1.163
   46SOL     OW  140   1.041   0.701   0.429
   46SOL    HW1  141   1.067   0.697   0.525
   46SOL    HW2  142   0.956   0.650   0.415
   47SOL     OW  143   0.076   0.811   0.789
   47SOL    HW1  144   0.175   0.799   0.798
   47SOL    HW2  145   0.052   0.906   0.810
   48SOL     OW  146   0.130   1.821   1.571
   48SOL    HW1  147   0.120   1.806   1.670
   48SOL    HW2  148   0.044   1.857   1.535
   49SOL     OW  149   0.865   0.348   0.195
   49SOL    HW1  150   0.924   0.411   0.146
   49SOL    HW2  151   0.884   0.254   0.166
   50SOL     OW  152   1.719   0.585   1.831
   50SOL    HW1  153   1.693   0.674   1.795
   50SOL    HW2  154   1.717   0.517   1.758
   51SOL     OW  155   1.362   1.144   0.545
   51SOL    HW1  156   1.445   1.115   0.497
   51SOL    HW2  157   1.313   1.211   0.489
   52SOL     OW  158   0.550   0.196   0.885
   52SOL    HW1  159   0.545   0.191   0.985
   52SOL    HW2  160   0.552   0.292   0.856
   53SOL     OW  161   1.008   1.456   0.477
   53SOL    HW1  162   0.962   1.528   0.425
   53SOL    HW2  163   1.004   1.476   0.575
   54SOL     OW  164   0.351   1.801   0.853
   54SOL    HW1  165   0.401   1.715   0.859
   54SOL    HW2  166   0.416   1.878   0.850
   55SOL     OW  167   1.795   1.066   0.873
   55SOL    HW1  168   1.733   1.051   0.797
   55SOL    HW2  169   1.743   1.077   0.958
   56SOL     OW  170   1.227   1.550   1.506
   56SOL    HW1  171   1.233   1.473   1.570
   56SOL    HW2  172   1.175   1.524   1.426
   57SOL     OW  173   0.321   0.943   0.242
   57SOL    HW1  174   0.403   0.982   0.200
   57SOL    HW2  175   0.294   0.861   0.193
   58SOL     OW  176   1.458   0.735   0.728
   58SOL    HW1  177   1.453   0.670   0.803
   58SOL    HW2  178   1.538   0.794   0.741
   59SOL     OW  179   0.461   1.266   1.727
   59SOL    HW1  180   0.411   1.267   1.641
   59SOL    HW2  181   0.398   1.248   1.803
   60SOL     OW  182   1.111   1.776   0.237
   60SOL    HW1  183   1.051   1.714   0.287
   60SOL    HW2  184   1.142   1.732   0.152
   61SOL     OW  185   0.202   0.285   1.498
   61SOL    HW1  186   0.122   0.345   1.485
   61SOL    HW2  187   0.192   0.236   1.584
   62SOL     OW  188   1.632   1.377   0.081
   62SOL    HW1  189   1.600   1.471   0.071
   62SOL    HW2  190   1.556   1.314   0.069
   63SOL     OW  191   0.464   1.743   0.323
   63SOL    HW1  192   0.497   1.782   0.409
   63SOL    HW2  193   0.540   1.736   0.258
   64SOL     OW  194   1.400   0.107   0.426
   64SOL    HW1  195   1.376   0.070   0.336
   64SOL    HW2  196   1.499   0.123   0.430
   65SOL     OW  197   0.249   1.785   1.241
   65SOL    HW1  198   0.306   1.720   1.291
   65SOL    HW2  199   0.233   1.752   1.148
   66SOL     OW  200   0.940   1.698   0.904
   66SOL    HW1  201   1.020   1.641   0.925
   66SOL    HW2  202   0.891   1.658   0.827
   67SOL     OW  203   0.382   0.700   0.480
   67SOL    HW1  204   0.427   0.610   0.477
   67SOL    HW2  205   0.288   0.689   0.513
   68SOL     OW  206   1.547   0.222   1.729
   68SOL    HW1  207   1.542   0.259   1.821
   68SOL    HW2  208   1.475   0.153   1.717
   69SOL     OW  209   0.614   0.122   0.117
   69SOL    HW1  210   0.712   0.100   0.124
   69SOL    HW2  211   0.583   0.105   0.024
   70SOL     OW  212   0.781   0.264   1.749
   70SOL    HW1  213   0.848   0.203   1.792
   70SOL    HW2  214   0.708   0.283   1.814
   71SOL     OW  215   0.888   1.514   1.195
   71SOL    HW1  216   0.865   1.489   1.101
   71SOL    HW2  217   0.949   1.445   1.234
   72SOL     OW  218   1.351   0.590   1.433
   72SOL    HW1  219   1.379   0.547   1.518
   72SOL    HW2  220   1.376   0.686   1.434
   73SOL     OW  221   0.803   1.402   0.924
   73SOL    HW1  222   0.893   1.416   0.882
   73SOL    HW2  223   0.732   1.404   0.853
   74SOL     OW  224   0.922   0.503   0.899
   74SOL    HW1  225   0.897   0.494   0.803
   74SOL    HW2  226   0.970   0.421   0.930
   75SOL     OW  227   0.539   0.064   0.512
   75SOL    HW1  228   0.458   0.065   0.570
   75SOL    HW2  229   0.542   0.147   0.457
   76SOL     OW  230   1.434   1.188   0.041
   76SOL    HW1  231   1.466   1.112   0.098
   76SOL    HW2  232   1.342   1.215   0.071
   77SOL     OW  233   0.297   0.035   0.171
   77SOL    HW1  234   0.346   0.119   0.150
   77SOL    HW2  235   0.359  -0.030   0.216
   78SOL     OW  236   0.935   0.236   0.480
   78SOL    HW1  237   0.887   0.277   0.402
   78SOL    HW2  238   1.034   0.234   0.461
   79SOL     OW  239   1.076   0.683   1.464
   79SOL    HW1  240   0.996   0.622   1.467
   79SOL    HW2  241   1.157   0.630   1.440
   80SOL     OW  242   1.227   1.570   0.793
   80SOL    HW1  243   1.248   1.644   0.728
   80SOL    HW2  244   1.295   1.570   0.866
   81SOL     OW  245   0.459   1.152   0.741
   81SOL    HW1  246   0.388   1.125   0.806
   81SOL    HW2  247   0.433   1.124   0.648
   82SOL     OW  248   1.271   1.797   0.591
   82SOL    HW1  249   1.315   1.861   0.527
   82SOL    HW2  250   1.221   1.849   0.661
   83SOL     OW  251   1.032   0.549   0.016
   83SOL    HW1  252   0.991   0.631  -0.023
   83SOL    HW2  253   1.096   0.575   0.089
   84SOL     OW  254   0.078   0.556   1.386
   84SOL    HW1  255   0.170   0.555   1.345
   84SOL    HW2  256   0.072   0.630   1.453
   85SOL     OW  257   0.561   0.222   1.147
   85SOL    HW1  258   0.599   0.138   1.184
   85SOL    HW2  259   0.473   0.241   1.191
   86SOL     OW  260   0.866   0.454   0.642
   86SOL    HW1  261   0.834   0.526   0.580
   86SOL    HW2  262   0.890   0.373   0.589
   87SOL     OW  263   1.017   0.039   0.753
   87SOL    HW1  264   0.945   0.044   0.684
   87SOL    HW2  265   0.993  -0.030   0.822
   88SOL     OW  266   1.429   1.173   0.867
   88SOL    HW1  267   1.374   1.089   0.860
   88SOL    HW2  268   1.455   1.202   0.775
   89SOL     OW  269   1.466   0.590   0.992
   89SOL    HW1  270   1.436   0.495   0.999
   89SOL    HW2  271   1.539   0.606   1.058
   90SOL     OW  272   1.857   0.833   0.377
   90SOL    HW1  273   1.899   0.769   0.441
   90SOL    HW2  274   1.819   0.782   0.299
   91SOL     OW  275   0.488   1.385   0.174
   91SOL    HW1  276   0.401   1.370   0.221
   91SOL    HW2  277   0.471   1.411   0.079
   92SOL     OW  278   1.664   1.280   0.657
   92SOL    HW1  279   1.763   1.288   0.671
   92SOL    HW2  280   1.619   1.364   0.688
   93SOL     OW  281   1.390   0.575   0.078
   93SOL    HW1  282   1.336   0.554   0.159
   93SOL    HW2  283   1.481   0.534   0.087
   94SOL     OW  284   0.527   0.256   0.328
   94SOL    HW1  285   0.554   0.197   0.253
   94SOL    HW2  286   0.527   0.351   0.297
   95SOL     OW  287   1.754   1.223   1.588
   95SOL    HW1  288   1.845   1.184   1.575
   95SOL    HW2  289   1.762   1.319   1.612
   96SOL     OW  290   1.064   1.347   1.340
   96SOL    HW1  291   0.984   1.324   1.395
   96SOL    HW2  292   1.147   1.321   1.389
   97SOL     OW  293   1.592   1.629   1.625
   97SOL    HW1  294   1.619   1.663   1.535
   97SOL    HW2  295   1.671   1.591   1.671
   98SOL     OW  296   1.111   1.195   1.100
   98SOL    HW1  297   1.071   1.239   1.181
   98SOL    HW2  298   1.070   1.232   1.017
   99SOL     OW  299   1.638   1.099   1.079
   99SOL    HW1  300   1.643   1.180   1.138
   99SOL    HW2  301   1.552   1.101   1.028
  100SOL     OW  302   0.915   0.089   1.402
  100SOL    HW1  303   0.940   0.069   1.307
  100SOL    HW2  304   0.987   0.145   1.444
  101SOL     OW  305   0.980   1.116   1.719
  101SOL    HW1  306   0.881   1.122   1.729
  101SOL    HW2  307   1.003   1.036   1.663
  102SOL     OW  308   0.705   1.050   0.368
  102SOL    HW1  309   0.691   1.057   0.467
  102SOL    HW2  310   0.789   0.999   0.350
  103SOL     OW  311   0.410   0.813   1.251
  103SOL    HW1  312   0.496   0.825   1.301
  103SOL    HW2  313   0.368   0.726   1.278
  104SOL     OW  314   1.274   0.386   1.262
  104SOL    HW1  315   1.295   0.460   1.326
  104SOL    HW2  316   1.185   0.403   1.219
  105SOL     OW  317   0.064   1.564   1.331
  105SOL    HW1  318   0.018   1.646   1.297
  105SOL    HW2  319   0.162   1.583   1.340
  106SOL     OW  320   0.367   1.100   0.501
  106SOL    HW1  321   0.360   1.183   0.445
  106SOL    HW2  322   0.371   1.020   0.441
  107SOL     OW  323   0.566   0.537   0.865
  107SOL    HW1  324   0.578   0.603   0.791
  107SOL    HW2  325   0.612   0.571   0.948
  108SOL     OW  326   1.252   1.348   0.388
  108SOL    HW1  327   1.302   1.425   0.428
  108SOL    HW2  328   1.157   1.350   0.420
  109SOL     OW  329   1.272   1.445   1.142
  109SOL    HW1  330   1.319   1.458   1.229
  109SOL    HW2  331   1.206   1.371   1.151
  110SOL     OW  332   1.582   0.639   0.472
  110SOL    HW1  333   1.551   0.700   0.545
  110SOL    HW2  334   1.632   0.691   0.403
  111SOL     OW  335   0.354   1.510   1.329
  111SOL    HW1  336   0.333   1.466   1.242
  111SOL    HW2  337   0.451   1.536   1.332
  112SOL     OW  338   0.402   0.751   1.598
  112SOL    HW1  339   0.470   0.806   1.551
  112SOL    HW2  340   0.442   0.663   1.625
  113SOL     OW  341   1.587   0.779   1.670
  113SOL    HW1  342   1.495   0.817   1.665
  113SOL    HW2  343   1.647   0.826   1.605
  114SOL     OW  344   1.013   0.105   1.770
  114SOL    HW1  345   1.019   0.190   1.718
  114SOL    HW2  346   1.045   0.029   1.713
  115SOL     OW  347   0.504   0.050   1.740
  115SOL    HW1  348   0.462  -0.007   1.670
  115SOL    HW2  349   0.438   0.119   1.772
  116SOL     OW  350   0.573   0.870   1.029
  116SOL    HW1  351   0.617   0.959   1.020
  116SOL    HW2  352   0.510   0.870   1.106
  117SOL     OW  353   1.360   0.862   1.045
  117SOL    HW1  354   1.285   0.862   0.979
  117SOL    HW2  355   1.397   0.770   1.054
  118SOL     OW  356   1.209   0.525   0.275
  118SOL    HW1  357   1.222   0.441   0.329
  118SOL    HW2  358   1.180   0.599   0.335
  119SOL     OW  359   0.307   0.213   1.231
  119SOL    HW1  360   0.284   0.250   1.321
  119SOL    HW2  361   0.277   0.118   1.225
  120SOL     OW  362   0.037   1.310   1.282
  120SOL    HW1  363   0.090   1.261   1.350
  120SOL    HW2  364   0.059   1.408   1.287
  121SOL     OW  365   0.732   0.634   1.064
  121SOL    HW1  366   0.791   0.608   0.988
  121SOL    HW2  367   0.704   0.730   1.053
  122SOL     OW  368   1.728   0.935   1.854
  122SOL    HW1  369   1.682   0.928   1.765
  122SOL    HW2  370   1.666   0.979   1.920
  123SOL     OW  371   0.307   0.063   0.618
  123SOL    HW1  372   0.296   0.157   0.651
  123SOL    HW2  373   0.302   0.000   0.695
  124SOL     OW  374   1.622   0.367   0.374
  124SOL    HW1  375   1.624   0.291   0.438
  124SOL    HW2  376   1.574   0.444   0.414
  125SOL     OW  377   1.023   0.766   0.966
  125SOL    HW1  378   1.038   0.787   1.062
  125SOL    HW2  379   0.993   0.671   0.957
  126SOL     OW  380   0.980   1.573   1.700
  126SOL    HW1  381   0.960   1.617   1.612
  126SOL    HW2  382   1.019   1.482   1.684
  127SOL     OW  383   1.859   1.518   1.605
  127SOL    HW1  384   1.873   1.545   1.510
  127SOL    HW2  385   1.942   1.540   1.658
  128SOL     OW  386   0.350   0.898   1.804
  128SOL    HW1  387   0.426   0.942   1.852
  128SOL    HW2  388   0.385   0.851   1.722
  129SOL     OW  389   1.540   0.274   0.125
  129SOL    HW1  390   1.479   0.199   0.148
  129SOL    HW2  391   1.562   0.326   0.208
  130SOL     OW  392   1.303   0.838   0.042
  130SOL    HW1  393   1.337   0.745   0.057
  130SOL    HW2  394   1.321   0.865  -0.053
  131SOL     OW  395   1.068   1.333   0.849
  131SOL    HW1  396   1.075   1.249   0.794
  131SOL    HW2  397   1.130   1.402   0.813
  132SOL     OW  398   0.319   0.810   0.949
  132SOL    HW1  399   0.412   0.846   0.954
  132SOL    HW2  400   0.313   0.725   1.001
  133SOL     OW  401   0.339   0.509   1.006
  133SOL    HW1  402   0.287   0.426   0.989
  133SOL    HW2  403   0.416   0.514   0.942
  134SOL     OW  404   1.138   0.380   1.678
  134SOL    HW1  405   1.093   0.443   1.742
  134SOL    HW2  406   1.231   0.411   1.661
  135SOL     OW  407   1.160   0.207   1.477
  135SOL    HW1  408   1.160   0.271   1.554
  135SOL    HW2  409   1.188   0.255   1.394
  136SOL     OW  410   0.008   1.326   0.200
  136SOL    HW1  411  -0.085   1.347   0.169
  136SOL    HW2  412   0.018   1.227   0.213
  137SOL     OW  413   0.088   1.801   0.927
  137SOL    HW1  414   0.046   1.715   0.900
  137SOL    HW2  415   0.182   1.804   0.893
  138SOL     OW  416   0.504   1.568   0.910
  138SOL    HW1  417   0.570   1.642   0.919
  138SOL    HW2  418   0.548   1.489   0.868
  139SOL     OW  419   1.002   0.796   1.238
  139SOL    HW1  420   1.043   0.764   1.324
  139SOL    HW2  421   0.906   0.769   1.235
  140SOL     OW  422   0.040   0.544   1.114
  140SOL    HW1  423   0.125   0.511   1.073
  140SOL    HW2  424   0.053   0.559   1.212
  141SOL     OW  425   0.189   0.520   1.722
  141SOL    HW1  426   0.248   0.480   1.652
  141SOL    HW2  427   0.131   0.591   1.681
  142SOL     OW  428   1.369   0.950   1.660
  142SOL    HW1  429   1.408   1.039   1.680
  142SOL    HW2  430   1.379   0.930   1.563
  143SOL     OW  431   0.815   0.572   0.325
  143SOL    HW1  432   0.822   0.483   0.279
  143SOL    HW2  433   0.721   0.606   0.317
  144SOL     OW  434   1.657   0.604   1.206
  144SOL    HW1  435   1.619   0.535   1.268
  144SOL    HW2  436   1.739   0.568   1.162
  145SOL     OW  437   0.252   1.564   1.744
  145SOL    HW1  438   0.222   1.621   1.820
  145SOL    HW2  439   0.245   1.467   1.770
  146SOL     OW  440   0.671   0.464   1.269
  146SOL    HW1  441   0.637   0.375   1.239
  146SOL    HW2  442   0.697   0.518   1.189
  147SOL     OW  443   0.930   1.678   1.465
  147SOL    HW1  444   0.906   1.660   1.370
  147SOL    HW2  445   0.960   1.772   1.475
  148SOL     OW  446   0.473   0.500   0.191
  148SOL    HW1  447   0.534   0.580   0.195
  148SOL    HW2  448   0.378   0.531   0.198
  149SOL     OW  449   0.159   1.137   1.466
  149SOL    HW1  450   0.181   1.076   1.542
  149SOL    HW2  451   0.169   1.088   1.380
  150SOL     OW  452   1.347   1.059   1.234
  150SOL    HW1  453   1.371   0.996   1.160
  150SOL    HW2  454   1.257   1.099   1.216
  151SOL     OW  455   1.302   0.855   0.309
  151SOL    HW1  456   1.216   0.824   0.351
  151SOL    HW2  457   1.298   0.841   0.210
  152SOL     OW  458   1.759   1.747   1.154
  152SOL    HW1  459   1.820   1.777   1.081
  152SOL    HW2  460   1.721   1.658   1.132
  153SOL     OW  461   1.252   1.731   1.128
  153SOL    HW1  462   1.336   1.736   1.074
  153SOL    HW2  463   1.229   1.635   1.146
  154SOL     OW  464   0.083   1.258   1.022
  154SOL    HW1  465   0.078   1.257   1.122
  154SOL    HW2  466   0.000   1.217   0.984
  155SOL     OW  467   0.688   1.662   1.716
  155SOL    HW1  468   0.632   1.743   1.725
  155SOL    HW2  469   0.740   1.666   1.630
  156SOL     OW  470   0.903   0.086   0.133
  156SOL    HW1  471   0.954   0.087   0.047
  156SOL    HW2  472   0.959   0.044   0.204
  157SOL     OW  473   1.726   0.135   0.523
  157SOL    HW1  474   1.799   0.118   0.456
  157SOL    HW2  475   1.695   0.048   0.561
  158SOL     OW  476   1.388   1.573   0.477
  158SOL    HW1  477   1.455   1.585   0.403
  158SOL    HW2  478   1.348   1.662   0.500
  159SOL     OW  479   0.130   1.794   1.851
  159SOL    HW1  480   0.089   1.720   1.904
  159SOL    HW2  481   0.194   1.845   1.909
  160SOL     OW  482   1.280   0.927   0.672
  160SOL    HW1  483   1.340   0.846   0.674
  160SOL    HW2  484   1.320   0.996   0.612
  161SOL     OW  485   0.830   1.273   1.422
  161SOL    HW1  486   0.825   1.306   1.517
  161SOL    HW2  487   0.744   1.292   1.376
  162SOL     OW  488   0.672   1.616   0.154
  162SOL    HW1  489   0.681   1.626   0.055
  162SOL    HW2  490   0.632   1.527   0.175
  163SOL     OW  491   1.650   1.720   1.394
  163SOL    HW1  492   1.703   1.730   1.310
  163SOL    HW2  493   1.623   1.810   1.428
  164SOL     OW  494   1.841   0.175   0.963
  164SOL    HW1  495   1.880   0.090   0.927
  164SOL    HW2  496   1.743   0.177   0.944
  165SOL     OW  497   0.263   0.326   0.720
  165SOL    HW1  498   0.184   0.377   0.686
  165SOL    HW2  499   0.254   0.311   0.818
  166SOL     OW  500   1.194   1.612   0.031
  166SOL    HW1  501   1.200   1.519   0.068
  166SOL    HW2  502   1.135   1.612  -0.049
  167SOL     OW  503   0.822   1.002   1.372
  167SOL    HW1  504   0.862   1.001   1.280
  167SOL    HW2  505   0.832   1.094   1.412
  168SOL     OW  506   0.916   0.910   0.291
  168SOL    HW1  507   0.979   0.948   0.223
  168SOL    HW2  508   0.956   0.827   0.330
  169SOL     OW  509   1.504   1.607   0.044
  169SOL    HW1  510   1.412   1.644   0.051
  169SOL    HW2  511   1.542   1.627  -0.046
  170SOL     OW  512   0.372   1.288   1.490
  170SOL    HW1  513   0.359   1.381   1.456
  170SOL    HW2  514   0.288   1.236   1.477
  171SOL     OW  515   1.614   1.292   1.289
  171SOL    HW1  516   1.674   1.295   1.369
  171SOL    HW2  517   1.539   1.356   1.302
  172SOL     OW  518   1.039   1.098   0.696
  172SOL    HW1  519   0.969   1.051   0.750
  172SOL    HW2  520   1.098   1.030   0.653
  173SOL     OW  521   1.014   0.236   0.971
  173SOL    HW1  522   1.006   0.200   0.878
  173SOL    HW2  523   1.012   0.160   1.036
  174SOL     OW  524   0.590   1.487   0.491
  174SOL    HW1  525   0.632   1.429   0.421
  174SOL    HW2  526   0.546   1.566   0.447
  175SOL     OW  527   1.709   0.385   1.381
  175SOL    HW1  528   1.782   0.454   1.385
  175SOL    HW2  529   1.737   0.310   1.322
  176SOL     OW  530   0.255   1.348   0.290
  176SOL    HW1  531   0.159   1.349   0.263
  176SOL    HW2  532   0.267   1.401   0.374
  177SOL     OW  533   0.105   1.013   1.726
  177SOL    HW1  534   0.028   0.980   1.780
  177SOL    HW2  535   0.190   0.983   1.768
  178SOL     OW  536   0.672   0.203   1.489
  178SOL    HW1  537   0.762   0.187   1.449
  178SOL    HW2  538   0.680   0.208   1.588
  179SOL     OW  539   0.075   0.345   0.033
  179SOL    HW1  540  -0.017   0.317   0.004
  179SOL    HW2  541   0.106   0.422  -0.023
  180SOL     OW  542   1.440   0.856   1.398
  180SOL    HW1  543   1.383   0.908   1.335
  180SOL    HW2  544   1.536   0.868   1.374
  181SOL     OW  545   0.072   0.166   0.318
  181SOL    HW1  546   0.055   0.249   0.264
  181SOL    HW2  547   0.162   0.129   0.296
  182SOL     OW  548   1.183   1.335   0.119
  182SOL    HW1  549   1.084   1.324   0.121
  182SOL    HW2  550   1.217   1.350   0.212
  183SOL     OW  551   0.613   0.842   1.431
  183SOL    HW1  552   0.669   0.923   1.414
  183SOL    HW2  553   0.672   0.762   1.434
  184SOL     OW  554   1.493   1.767   0.959
  184SOL    HW1  555   1.526   1.831   0.890
  184SOL    HW2  556   1.559   1.761   1.034
  185SOL     OW  557   0.716   0.565   1.708
  185SOL    HW1  558   0.735   0.630   1.782
  185SOL    HW2  559   0.776   0.485   1.717
  186SOL     OW  560   1.450   1.220   1.633
  186SOL    HW1  561   1.441   1.210   1.732
  186SOL    HW2  562   1.546   1.213   1.607
  187SOL     OW  563   0.390   1.741   1.560
  187SOL    HW1  564   0.299   1.782   1.558
  187SOL    HW2  565   0.383   1.647   1.592
  188SOL     OW  566   1.674   0.883   1.254
  188SOL    HW1  567   1.647   0.794   1.217
  188SOL    HW2  568   1.675   0.951   1.181
  189SOL     OW  569   1.225   0.325   0.449
  189SOL    HW1  570   1.290   0.251   0.438
  189SOL    HW2  571   1.245   0.375   0.533
  190SOL     OW  572   0.594   0.745   0.652
  190SOL    HW1  573   0.644   0.830   0.633
  190SOL    HW2  574   0.506   0.747   0.604
  191SOL     OW  575   1.777   0.342   1.642
  191SOL    HW1  576   1.760   0.373   1.548
  191SOL    HW2  577   1.693   0.305   1.680
  192SOL     OW  578   1.730   0.934   1.517
  192SOL    HW1  579   1.768   1.025   1.532
  192SOL    HW2  580   1.722   0.917   1.418
  193SOL     OW  581   0.859   1.374   0.016
  193SOL    HW1  582   0.813   1.389   0.104
  193SOL    HW2  583   0.903   1.459  -0.014
  194SOL     OW  584   0.661   1.790   0.953
  194SOL    HW1  585   0.615   1.878   0.940
  194SOL    HW2  586   0.760   1.802   0.946
  195SOL     OW  587   0.859   0.956   0.861
  195SOL    HW1  588   0.913   0.887   0.909
  195SOL    HW2  589   0.827   1.025   0.927
  196SOL     OW  590   1.083   0.984   0.087
  196SOL    HW1  591   1.060   1.037   0.005
  196SOL    HW2  592   1.164   0.928   0.068
  197SOL     OW  593   1.861   1.569   0.851
  197SOL    HW1  594   1.790   1.557   0.781
  197SOL    HW2  595   1.862   1.490   0.911
  198SOL     OW  596   0.221   1.314   1.844
  198SOL    HW1  597   0.156   1.241   1.823
  198SOL    HW2  598   0.225   1.328   1.942
  199SOL     OW  599   0.079   1.240   0.653
  199SOL    HW1  600   0.078   1.193   0.741
  199SOL    HW2  601   0.161   1.212   0.602
  200SOL     OW  602   0.672   1.391   1.624
  200SOL    HW1  603   0.594   1.341   1.662
  200SOL    HW2  604   0.669   1.486   1.655
  201SOL     OW  605   1.824   0.192   1.227
  201SOL    HW1  606   1.820   0.102   1.271
  201SOL    HW2  607   1.827   0.181   1.128
  202SOL     OW  608   0.428   0.424   0.520
  202SOL    HW1  609   0.458   0.352   0.458
  202SOL    HW2  610   0.389   0.384   0.603
  203SOL     OW  611   1.705   1.487   1.104
  203SOL    HW1  612   1.612   1.462   1.077
  203SOL    HW2  613   1.731   1.437   1.186
  204SOL     OW  614   0.317   0.547   1.280
  204SOL    HW1  615   0.355   0.488   1.352
  204SOL    HW2  616   0.357   0.521   1.192
  205SOL     OW  617   0.812   1.586   0.687
  205SOL    HW1  618   0.844   1.596   0.593
  205SOL    HW2  619   0.733   1.524   0.689
  206SOL     OW  620   1.424   0.214   1.112
  206SOL    HW1  621   1.476   0.149   1.167
  206SOL    HW2  622   1.375   0.277   1.173
  207SOL     OW  623   1.001   0.034   1.154
  207SOL    HW1  624   0.938  -0.038   1.123
  207SOL    HW2  625   1.094  -0.002   1.154
  208SOL     OW  626   0.770   1.330   0.301
  208SOL    HW1  627   0.724   1.243   0.318
  208SOL    HW2  628   0.861   1.327   0.342
  209SOL     OW  629   0.618   1.567   1.284
  209SOL    HW1  630   0.613   1.649   1.341
  209SOL    HW2  631   0.707   1.564   1.239
  210SOL     OW  632   1.352   0.052   0.168
  210SOL    HW1  633   1.387   0.011   0.084
  210SOL    HW2  634   1.262   0.014   0.188
  211SOL     OW  635   1.300   0.453   0.691
  211SOL    HW1  636   1.241   0.533   0.695
  211SOL    HW2  637   1.315   0.418   0.784
  212SOL     OW  638   1.593   0.221   0.882
  212SOL    HW1  639   1.509   0.220   0.936
  212SOL    HW2  640   1.595   0.304   0.826
  213SOL     OW  641   0.039   1.077   0.300
  213SOL    HW1  642   0.138   1.066   0.291
  213SOL    HW2  643  -0.001   0.991   0.332
  214SOL     OW  644   0.875   1.646   0.337
  214SOL    HW1  645   0.798   1.611   0.283
  214SOL    HW2  646   0.843   1.717   0.399
  215SOL     OW  647   0.230   0.628   1.975
  215SOL    HW1  648   0.137   0.626   2.012
  215SOL    HW2  649   0.231   0.589   1.883
  216SOL     OW  650   0.225   0.275   2.858
  216SOL    HW1  651   0.260   0.258   2.950
  216SOL    HW2  652   0.137   0.230   2.846
  217SOL     OW  653   0.019   0.368   2.509
  217SOL    HW1  654  -0.063   0.411   2.548
  217SOL    HW2  655  -0.009   0.295   2.446
  218SOL     OW  656   0.569   1.275   3.027
  218SOL    HW1  657   0.476   1.268   2.990
  218SOL    HW2  658   0.580   1.364   3.071
  219SOL     OW  659   1.555   1.511   2.565
  219SOL    HW1  660   1.498   1.495   2.646
  219SOL    HW2  661   1.496   1.521   2.485
  220SOL     OW  662   1.135   0.703   2.579
  220SOL    HW1  663   1.192   0.781   2.554
  220SOL    HW2  664   1.075   0.729   2.655
  221SOL     OW  665   1.755   0.607   2.093
  221SOL    HW1  666   1.743   0.594   1.994
  221SOL    HW2  667   1.725   0.526   2.142
  222SOL     OW  668   0.768   1.144   2.885
  222SOL    HW1  669   0.690   1.161   2.945
  222SOL    HW2  670   0.802   1.231   2.849
  223SOL     OW  671   0.850   0.798   3.685
  223SOL    HW1  672   0.846   0.874   3.750
  223SOL    HW2  673   0.872   0.834   3.594
  224SOL     OW  674   0.685   1.012   2.527
  224SOL    HW1  675   0.754   0.996   2.597
  224SOL    HW2  676   0.612   1.069   2.565
  225SOL     OW  677   0.686   1.161   3.665
  225SOL    HW1  678   0.746   1.240   3.679
  225SOL    HW2  679   0.600   1.192   3.624
  226SOL     OW  680   0.335   1.435   2.923
  226SOL    HW1  681   0.257   1.404   2.870
  226SOL    HW2  682   0.393   1.493   2.866
  227SOL     OW  683   1.460   1.505   3.201
  227SOL    HW1  684   1.484   1.599   3.227
  227SOL    HW2  685   1.444   1.451   3.283
  228SOL     OW  686   0.438   0.392   3.361
  228SOL    HW1  687   0.520   0.336   3.370
  228SOL    HW2  688   0.357   0.334   3.365
  229SOL     OW  689   1.603   0.447   2.599
  229SOL    HW1  690   1.529   0.493   2.549
  229SOL    HW2  691   1.654   0.515   2.652
  230SOL     OW  692   0.231   1.713   2.345
  230SOL    HW1  693   0.265   1.790   2.399
  230SOL    HW2  694   0.275   1.713   2.255
  231SOL     OW  695   1.127   1.341   3.552
  231SOL    HW1  696   1.174   1.341   3.640
  231SOL    HW2  697   1.079   1.254   3.541
  232SOL     OW  698   0.230   1.434   2.400
  232SOL    HW1  699   0.204   1.530   2.400
  232SOL    HW2  700   0.159   1.380   2.445
  233SOL     OW  701   0.240   1.091   2.748
  233SOL    HW1  702   0.254   1.007   2.800
  233SOL    HW2  703   0.185   1.155   2.803
  234SOL     OW  704   0.620   1.786   3.301
  234SOL    HW1  705   0.528   1.769   3.336
  234SOL    HW2  706   0.648   1.878   3.327
  235SOL     OW  707   0.606   0.964   1.985
  235SOL    HW1  708   0.613   1.048   1.931
  235SOL    HW2  709   0.652   0.977   2.073
  236SOL     OW  710   1.594   0.114   3.342
  236SOL    HW1  711   1.576   0.181   3.270
  236SOL    HW2  712   1.591   0.160   3.431
  237SOL     OW  713   0.122   0.643   2.425
  237SOL    HW1  714   0.077   0.555   2.442
  237SOL    HW2  715   0.121   0.697   2.509
  238SOL     OW  716   1.842   1.767   2.221
  238SOL    HW1  717   1.896   1.738   2.301
  238SOL    HW2  718   1.872   1.857   2.192
  239SOL     OW  719   0.027   1.596   1.979
  239SOL    HW1  720   0.008   1.500   2.000
  239SOL    HW2  721  -0.006   1.654   2.054
  240SOL     OW  722   1.689   0.922   2.474
  240SOL    HW1  723   1.784   0.893   2.482
  240SOL    HW2  724   1.681   0.987   2.399
  241SOL     OW  725   1.641   1.108   2.294
  241SOL    HW1  726   1.727   1.110   2.242
  241SOL    HW2  727   1.655   1.155   2.382
  242SOL     OW  728   0.113   0.737   3.459
  242SOL    HW1  729   0.201   0.724   3.504
  242SOL    HW2  730   0.100   0.834   3.437
  243SOL     OW  731   0.613   1.365   2.588
  243SOL    HW1  732   0.564   1.278   2.597
  243SOL    HW2  733   0.590   1.408   2.501
  244SOL     OW  734   1.293   1.228   3.285
  244SOL    HW1  735   1.330   1.155   3.227
  244SOL    HW2  736   1.345   1.233   3.370
  245SOL     OW  737   0.809   0.004   2.364
  245SOL    HW1  738   0.849   0.095   2.355
  245SOL    HW2  739   0.709   0.012   2.370
  246SOL     OW  740   0.197   0.976   3.126
  246SOL    HW1  741   0.286   0.931   3.112
  246SOL    HW2  742   0.124   0.911   3.107
  247SOL     OW  743   1.525   0.999   2.052
  247SOL    HW1  744   1.462   0.923   2.065
  247SOL    HW2  745   1.573   1.017   2.138
  248SOL     OW  746   1.187   1.792   3.478
  248SOL    HW1  747   1.211   1.852   3.402
  248SOL    HW2  748   1.194   1.697   3.448
  249SOL     OW  749   0.317   0.251   3.663
  249SOL    HW1  750   0.388   0.322   3.669
  249SOL    HW2  751   0.229   0.290   3.691
  250SOL     OW  752   1.466   1.417   2.815
  250SOL    HW1  753   1.407   1.423   2.895
  250SOL    HW2  754   1.451   1.329   2.769
  251SOL     OW  755   1.667   1.714   2.434
  251SOL    HW1  756   1.626   1.691   2.346
  251SOL    HW2  757   1.649   1.640   2.499
  252SOL     OW  758   0.598   0.729   2.132
  252SOL    HW1  759   0.622   0.798   2.064
  252SOL    HW2  760   0.520   0.762   2.186
  253SOL     OW  761   1.281   0.345   2.806
  253SOL    HW1  762   1.195   0.295   2.793
  253SOL    HW2  763   1.343   0.291   2.862
  254SOL     OW  764   1.576   1.662   2.169
  254SOL    HW1  765   1.665   1.708   2.172
  254SOL    HW2  766   1.555   1.638   2.074
  255SOL     OW  767   0.807   0.605   3.327
  255SOL    HW1  768   0.760   0.602   3.416
  255SOL    HW2  769   0.756   0.550   3.261
  256SOL     OW  770   1.394   0.469   3.536
  256SOL    HW1  771   1.374   0.512   3.624
  256SOL    HW2  772   1.472   0.407   3.545
  257SOL     OW  773   0.973   0.890   3.434
  257SOL    HW1  774   1.019   0.806   3.405
  257SOL    HW2  775   0.917   0.924   3.359
  258SOL     OW  776   0.991   0.410   3.104
  258SOL    HW1  777   0.914   0.444   3.158
  258SOL    HW2  778   0.957   0.359   3.025
  259SOL     OW  779   1.041   0.701   2.291
  259SOL    HW1  780   1.067   0.697   2.387
  259SOL    HW2  781   0.956   0.650   2.277
  260SOL     OW  782   0.076   0.811   2.651
  260SOL    HW1  783   0.175   0.799   2.660
  260SOL    HW2  784   0.052   0.906   2.672
  261SOL     OW  785   0.130   1.821   3.433
  261SOL    HW1  786   0.120   1.806   3.532
  261SOL    HW2  787   0.044   1.857   3.397
  262SOL     OW  788   0.865   0.348   2.057
  262SOL    HW1  789   0.924   0.411   2.008
  262SOL    HW2  790   0.884   0.254   2.028
  263SOL     OW  791   1.719   0.585   3.693
  263SOL    HW1  792   1.693   0.674   3.657
  263SOL    HW2  793   1.717   0.517   3.620
  264SOL     OW  794   1.362   1.144   2.407
  264SOL    HW1  795   1.445   1.115   2.359
  264SOL    HW2  796   1.313   1.211   2.351
  265SOL     OW  797   0.550   0.196   2.747
  265SOL    HW1  798   0.545   0.191   2.847
  265SOL    HW2  799   0.552   0.292   2.718
  266SOL     OW  800   1.008   1.456   2.339
  266SOL    HW1  801   0.962   1.528   2.287
  266SOL    HW2  802   1.004   1.476   2.437
  267SOL     OW  803   0.351   1.801   2.715
  267SOL    HW1  804   0.401   1.715   2.721
  267SOL    HW2  805   0.416   1.878   2.712
  268SOL     OW  806   1.795   1.066   2.735
  268SOL    HW1  807   1.733   1.051   2.659
  268SOL    HW2  808   1.743   1.077   2.820
  269SOL     OW  809   1.227   1.550   3.368
  269SOL    HW1  810   1.233   1.473   3.432
  269SOL    HW2  811   1.175   1.524   3.288
  270SOL     OW  812   0.321   0.943   2.104
  270SOL    HW1  813   0.403   0.982   2.062
  270SOL    HW2  814   0.294   0.861   2.055
  271SOL     OW  815   1.458   0.735   2.590
  271SOL    HW1  816   1.453   0.670   2.665
  271SOL    HW2  817   1.538   0.794   2.603
  272SOL     OW  818   0.461   1.266   3.589
  272SOL    HW1  819   0.411   1.267   3.503
  272SOL    HW2  820   0.398   1.248   3.665
  273SOL     OW  821   1.111   1.776   2.099
  273SOL    HW1  822   1.051   1.714   2.149
  273SOL    HW2  823   1.142   1.732   2.014
  274SOL     OW  824   0.202   0.285   3.360
  274SOL    HW1  825   0.122   0.345   3.347
  274SOL    HW2  826   0.192   0.236   3.446
  275SOL     OW  827   1.632   1.377   1.943
  275SOL    HW1  828   1.600   1.471   1.933
  275SOL    HW2  829   1.556   1.314   1.931
  276SOL     OW  830   0.464   1.743   2.185
  276SOL    HW1  831   0.497   1.782   2.271
  276SOL    HW2  832   0.540   1.736   2.120
  277SOL     OW  833   1.400   0.107   2.288
  277SOL    HW1  834   1.376   0.070   2.198
  277SOL    HW2  835   1.499   0.123   2.292
  278SOL     OW  836   0.249   1.785   3.103
  278SOL    HW1  837   0.306   1.720   3.153
  278SOL    HW2  838   0.233   1.752   3.010
  279SOL     OW  839   0.940   1.698   2.766
  279SOL    HW1  840   1.020   1.641   2.787
  279SOL    HW2  841   0.891   1.658   2.689
  280SOL     OW  842   0.382   0.700   2.342
  280SOL    HW1  843   0.427   0.610   2.339
  280SOL    HW2  844   0.288   0.689   2.375
  281SOL     OW  845   1.547   0.222   3.591
  281SOL    HW1  846   1.542   0.259   3.683
  281SOL    HW2  847   1.475   0.153   3.579
  282SOL     OW  848   0.614   0.122   1.979
  282SOL    HW1  849   0.712   0.100   1.986
  282SOL    HW2  850   0.583   0.105   1.886
  283SOL     OW  851   0.781   0.264   3.611
  283SOL    HW1  852   0.848   0.203   3.654
  283SOL    HW2  853   0.708   0.283   3.676
  284SOL     OW  854   0.888   1.514   3.057
  284SOL    HW1  855   0.865   1.489   2.963
  284SOL    HW2  856   0.949   1.445   3.096
  285SOL     OW  857   1.351   0.590   3.295
  285SOL    HW1  858   1.379   0.547   3.380
  285SOL    HW2  859   1.376   0.686   3.296
  286SOL     OW  860   0.803   1.402   2.786
  286SOL    HW1  861   0.893   1.416   2.744
  286SOL    HW2  862   0.732   1.404   2.715
  287SOL     OW  863   0.922   0.503   2.761
  287SOL    HW1  864   0.897   0.494   2.665
  287SOL    HW2  865   0.970   0.421   2.792
  288SOL     OW  866   0.539   0.064   2.374
  288SOL    HW1  867   0.458   0.065   2.432
  288SOL    HW2  868   0.542   0.147   2.319
  289SOL     OW  869   1.434   1.188   1.903
  289SOL    HW1  870   1.466   1.112   1.960
  289SOL    HW2  871   1.342   1.215   1.933
  290SOL     OW  872   0.297   0.035   2.033
  290SOL    HW1  873   0.346   0.119   2.012
  290SOL    HW2  874   0.359  -0.030   2.078
  291SOL     OW  875   0.935   0.236   2.342
  291SOL    HW1  876   0.887   0.277   2.264
  291SOL    HW2  877   1.034   0.234   2.323
  292SOL     OW  878   1.076   0.683   3.326
  292SOL    HW1  879   0.996   0.622   3.329
  292SOL    HW2  880   1.157   0.630   3.302
  293SOL     OW  881   1.227   1.570   2.655
  293SOL    HW1  882   1.248   1.644   2.590
  293SOL    HW2  883   1.295   1.570   2.728
  294SOL     OW  884   0.459   1.152   2.603
  294SOL    HW1  885   0.388   1.125   2.668
  294SOL    HW2  886   0.433   1.124   2.510
  295SOL     OW  887   1.271   1.797   2.453
  295SOL    HW1  888   1.315   1.861   2.389
  295SOL    HW2  889   1.221   1.849   2.523
  296SOL     OW  890   1.032   0.549   1.878
  296SOL    HW1  891   0.991   0.631   1.839
  296SOL    HW2  892   1.096   0.575   1.951
  297SOL     OW  893   0.078   0.556   3.248
  297SOL    HW1  894   0.170   0.555   3.207
  297SOL    HW2  895   0.072   0.630   3.315
  298SOL     OW  896   0.561   0.222   3.009
  298SOL    HW1  897   0.599   0.138   3.046
  298SOL    HW2  898   0.473   0.241   3.053
  299SOL     OW  899   0.866   0.454   2.504
  299SOL    HW1  900   0.834   0.526   2.442
  299SOL    HW2  901   0.890   0.373   2.451
  300SOL     OW  902   1.017   0.039   2.615
  300SOL    HW1  903   0.945   0.044   2.546
  300SOL    HW2  904   0.993  -0.030   2.684
  301SOL     OW  905   1.429   1.173   2.729
  301SOL    HW1  906   1.374   1.089   2.722
  301SOL    HW2  907   1.455   1.202   2.637
  302SOL     OW  908   1.466   0.590   2.854
  302SOL    HW1  909   1.436   0.495   2.861
  302SOL    HW2  910   1.539   0.606   2.920
  303SOL     OW  911   1.857   0.833   2.239
  303SOL    HW1  912   1.899   0.769   2.303
  303SOL    HW2  913   1.819   0.782   2.161
  304SOL     OW  914   0.488   1.385   2.036
  304SOL    HW1  915   0.401   1.370   2.083
  304SOL    HW2  916   0.471   1.411   1.941
  305SOL     OW  917   1.664   1.280   2.519
  305SOL    HW1  918   1.763   1.288   2.533
  305SOL    HW2  919   1.619   1.364   2.550
  306SOL     OW  920   1.390   0.575   1.940
  306SOL    HW1  921   1.336   0.554   2.021
  306SOL    HW2  922   1.481   0.534   1.949
  307SOL     OW  923   0.527   0.256   2.190
  307SOL    HW1  924   0.554   0.197   2.115
  307SOL    HW2  925   0.527   0.351   2.159
  308SOL     OW  926   1.754   1.223   3.450
  308SOL    HW1  927   1.845   1.184   3.437
  308SOL    HW2  928   1.762   1.319   3.474
  309SOL     OW  929   1.064   1.347   3.202
  309SOL    HW1  930   0.984   1.324   3.257
  309SOL    HW2  931   1.147   1.321   3.251
  310SOL     OW  932   1.592   1.629   3.487
  310SOL    HW1  933   1.619   1.663   3.397
  310SOL    HW2  934   1.671   1.591   3.533
  311SOL     OW  935   1.111   1.195   2.962
  311SOL    HW1  936   1.071   1.239   3.043
  311SOL    HW2  937   1.070   1.232   2.879
  312SOL     OW  938   1.638   1.099   2.941
  312SOL    HW1  939   1.643   1.180   3.000
  312SOL    HW2  940   1.552   1.101   2.890
  313SOL     OW  941   0.915   0.089   3.264
  313SOL    HW1  942   0.940   0.069   3.169
  313SOL    HW2  943   0.987   0.145   3.306
  314SOL     OW  944   0.980   1.116   3.581
  314SOL    HW1  945   0.881   1.122   3.591
  314SOL    HW2  946   1.003   1.036   3.525
  315SOL     OW  947   0.705   1.050   2.230
  315SOL    HW1  948   0.691   1.057   2.329
  315SOL    HW2  949   0.789   0.999   2.212
  316SOL     OW  950   0.410   0.813   3.113
  316SOL    HW1  951   0.496   0.825   3.163
  316SOL    HW2  952   0.368   0.726   3.140
  317SOL     OW  953   1.274   0.386   3.124
  317SOL    HW1  954   1.295   0.460   3.188
  317SOL    HW2  955   1.185   0.403   3.081
  318SOL     OW  956   0.064   1.564   3.193
  318SOL    HW1  957   0.018   1.646   3.159
  318SOL    HW2  958   0.162   1.583   3.202
  319SOL     OW  959   0.367   1.100   2.363
  319SOL    HW1  960   0.360   1.183   2.307
  319SOL    HW2  961   0.371   1.020   2.303
  320SOL     OW  962   0.566   0.537   2.727
  320SOL    HW1  963   0.578   0.603   2.653
  320SOL    HW2  964   0.612   0.571   2.810
  321SOL     OW  965   1.252   1.348   2.250
  321SOL    HW1  966   1.302   1.425   2.290
  321SOL    HW2  967   1.157   1.350   2.282
  322SOL     OW  968   1.272   1.445   3.004
  322SOL    HW1  969   1.319   1.458   3.091
  322SOL    HW2  970   1.206   1.371   3.013
  323SOL     OW  971   1.582   0.639   2.334
  323SOL    HW1  972   1.551   0.700   2.407
  323SOL    HW2  973   1.632   0.691   2.265
  324SOL     OW  974   0.354   1.510   3.191
  324SOL    HW1  975   0.333   1.466   3.104
  324SOL    HW2  976   0.451   1.536   3.194
  325SOL     OW  977   0.402   0.751   3.460
  325SOL    HW1  978   0.470   0.806   3.413
  325SOL    HW2  979   0.442   0.663   3.487
  326SOL     OW  980   1.587   0.779   3.532
  326SOL    HW1  981   1.495   0.817   3.527
  326SOL    HW2  982   1.647   0.826   3.467
  327SOL     OW  983   1.013   0.105   3.632
  327SOL    HW1  984   1.019   0.190   3.580
  327SOL    HW2  985   1.045   0.029   3.575
  328SOL     OW  986   0.504   0.050   3.602
  328SOL    HW1  987   0.462  -0.007   3.532
  328SOL    HW2  988   0.438   0.119   3.634
  329SOL     OW  989   0.573   0.870   2.891
  329SOL    HW1  990   0.617   0.959   2.882
  329SOL    HW2  991   0.510   0.870   2.968
  330SOL     OW  992   1.360   0.862   2.907
  330SOL    HW1  993   1.285   0.862   2.841
  330SOL    HW2  994   1.397   0.770   2.916
  331SOL     OW  995   1.209   0.525   2.137
  331SOL    HW1  996   1.222   0.441   2.191
  331SOL    HW2  997   1.180   0.599   2.197
  332SOL     OW  998   0.307   0.213   3.093
  332SOL    HW1  999   0.284   0.250   3.183
  332SOL    HW2 1000   0.277   0.118   3.087
  333SOL     OW 1001   0.037   1.310   3.144
  333SOL    HW1 1002   0.090   1.261   3.212
  333SOL    HW2 1003   0.059   1.408   3.149
  334SOL     OW 1004   0.732   0.634   2.926
  334SOL    HW1 1005   0.791   0.608   2.850
  334SOL    HW2 1006   0.704   0.730   2.915
  335SOL     OW 1007   1.728   0.935   3.716
  335SOL    HW1 1008   1.682   0.928   3.627
  335SOL    HW2 1009   1.666   0.979   3.782
  336SOL     OW 1010   0.307   0.063   2.480
  336SOL    HW1 1011   0.296   0.157   2.513
  336SOL    HW2 1012   0.302   0.000   2.557
  337SOL     OW 1013   1.622   0.367   2.236
  337SOL    HW1 1014   1.624   0.291   2.300
  337SOL    HW2 1015   1.574   0.444   2.276
  338SOL     OW 1016   1.023   0.766   2.828
  338SOL    HW1 1017   1.038   0.787   2.924
  338SOL    HW2 1018   0.993   0.671   2.819
  339SOL     OW 1019   0.980   1.573   3.562
  339SOL    HW1 1020   0.960   1.617   3.474
  339SOL    HW2 1021   1.019   1.482   3.546
  340SOL     OW 1022   1.859   1.518   3.467
  340SOL    HW1 1023   1.873   1.545   3.372
  340SOL    HW2 1024   1.942   1.540   3.520
  341SOL     OW 1025   0.350   0.898   3.666
  341SOL    HW1 1026   0.426   0.942   3.714
  341SOL    HW2 1027   0.385   0.851   3.584
  342SOL     OW 1028   1.540   0.274   1.987
  342SOL    HW1 1029   1.479   0.199   2.010
  342SOL    HW2 1030   1.562   0.326   2.070
  343SOL     OW 1031   1.303   0.838   1.904
  343SOL    HW1 1032   1.337   0.745   1.919
  343SOL    HW2 1033   1.321   0.865   1.809
  344SOL     OW 1034   1.068   1.333   2.711
  344SOL    HW1 1035   1.075   1.249   2.656
  344SOL    HW2 1036   1.130   1.402   2.675
  345SOL     OW 1037   0.319   0.810   2.811
  345SOL    HW1 1038   0.412   0.846   2.816
  345SOL    HW2 1039   0.313   0.725   2.863
  346SOL     OW 1040   0.339   0.509   2.868
  346SOL    HW1 1041   0.287   0.426   2.851
  346SOL    HW2 1042   0.416   0.514   2.804
  347SOL     OW 1043   1.138   0.380   3.540
  347SOL    HW1 1044   1.093   0.443   3.604
  347SOL    HW2 1045   1.231   0.411   3.523
  348SOL     OW 1046   1.160   0.207   3.339
  348SOL    HW1 1047   1.160   0.271   3.416
  348SOL    HW2 1048   1.188   0.255   3.256
  349SOL     OW 1049   0.008   1.326   2.062
  349SOL    HW1 1050  -0.085   1.347   2.031
  349SOL    HW2 1051   0.018   1.227   2.075
  350SOL     OW 1052   0.088   1.801   2.789
  350SOL    HW1 1053   0.046   1.715   2.762
  350SOL    HW2 1054   0.182   1.804   2.755
  351SOL     OW 1055   0.504   1.568   2.772
  351SOL    HW1 1056   0.570   1.642   2.781
  351SOL    HW2 1057   0.548   1.489   2.730
  352SOL     OW 1058   1.002   0.796   3.100
  352SOL    HW1 1059   1.043   0.764   3.186
  352SOL    HW2 1060   0.906   0.769   3.097
  353SOL     OW 1061   0.040   0.544   2.976
  353SOL    HW1 1062   0.125   0.511   2.935
  353SOL    HW2 1063   0.053   0.559   3.074
  354SOL     OW 1064   0.189   0.520   3.584
  354SOL    HW1 1065   0.248   0.480   3.514
  354SOL    HW2 1066   0.131   0.591   3.543
  355SOL     OW 1067   1.369   0.950   3.522
  355SOL    HW1 1068   1.408   1.039   3.542
  355SOL    HW2 1069   1.379   0.930   3.425
  356SOL     OW 1070   0.815   0.572   2.187
  356SOL    HW1 1071   0.822   0.483   2.141
  356SOL    HW2 1072   0.721   0.606   2.179
  357SOL     OW 1073   1.657   0.604   3.068
  357SOL    HW1 1074   1.619   0.535   3.130
  357SOL    HW2 1075   1.739   0.568   3.024
  358SOL     OW 1076   0.252   1.564   3.606
  358SOL    HW1 1077   0.222   1.621   3.682
  358SOL    HW2 1078   0.245   1.467   3.632
  359SOL     OW 1079   0.671   0.464   3.131
  359SOL    HW1 1080   0.637   0.375   3.101
  359SOL    HW2 1081   0.697   0.518   3.051
  360SOL     OW 1082   0.930   1.678   3.327
  360SOL    HW1 1083   0.906   1.660   3.232
  360SOL    HW2 1084   0.960   1.772   3.337
  361SOL     OW 1085   0.473   0.500   2.053
  361SOL    HW1 1086   0.534   0.580   2.057
  361SOL    HW2 1087   0.378   0.531   2.060
  362SOL     OW 1088   0.159   1.137   3.328
  362SOL    HW1 1089   0.181   1.076   3.404
  362SOL    HW2 1090   0.169   1.088   3.242
  363SOL     OW 1091   1.347   1.059   3.096
  363SOL    HW1 1092   1.371   0.996   3.022
  363SOL    HW2 1093   1.257   1.099   3.078
  364SOL     OW 1094   1.302   0.855   2.171
  364SOL    HW1 1095   1.216   0.824   2.213
  364SOL    HW2 1096   1.298   0.841   2.072
  365SOL     OW 1097   1.759   1.747   3.016
  365SOL    HW1 1098   1.820   1.777   2.943
  365SOL    HW2 1099   1.721   1.658   2.994
  366SOL     OW 1100   1.252   1.731   2.990
  366SOL    HW1 1101   1.336   1.736   2.936
  366SOL    HW2 1102   1.229   1.635   3.008
  367SOL     OW 1103   0.083   1.258   2.884
  367SOL    HW1 1104   0.078   1.257   2.984
  367SOL    HW2 1105   0.000   1.217   2.846
  368SOL     OW 1106   0.688   1.662   3.578
  368SOL    HW1 1107   0.632   1.743   3.587
  368SOL    HW2 1108   0.740   1.666   3.492
  369SOL     OW 1109   1.726   0.135   2.385
  369SOL    HW1 1110   1.799   0.118   2.318
  369SOL    HW2 1111   1.695   0.048   2.423
  370SOL     OW 1112   1.388   1.573   2.339
  370SOL    HW1 1113   1.455   1.585   2.265
  370SOL    HW2 1114   1.348   1.662   2.362
  371SOL     OW 1115   0.130   1.794   3.713
  371SOL    HW1 1116   0.089   1.720   3.766
  371SOL    HW2 1117   0.194   1.845   3.771
  372SOL     OW 1118   1.280   0.927   2.534
  372SOL    HW1 1119   1.340   0.846   2.536
  372SOL    HW2 1120   1.320   0.996   2.474
  373SOL     OW 1121   0.830   1.273   3.284
  373SOL    HW1 1122   0.825   1.306   3.379
  373SOL    HW2 1123   0.744   1.292   3.238
  374SOL     OW 1124   0.672   1.616   2.016
  374SOL    HW1 1125   0.681   1.626   1.917
  374SOL    HW2 1126   0.632   1.527   2.037
  375SOL     OW 1127   1.650   1.720   3.256
  375SOL    HW1 1128   1.703   1.730   3.172
  375SOL    HW2 1129   1.623   1.810   3.290
  376SOL     OW 1130   1.841   0.175   2.825
  376SOL    HW1 1131   1.880   0.090   2.789
  376SOL    HW2 1132   1.743   0.177   2.806
  377SOL     OW 1133   0.263   0.326   2.582
  377SOL    HW1 1134   0.184   0.377   2.548
  377SOL    HW2 1135   0.254   0.311   2.680
  378SOL     OW 1136   1.194   1.612   1.893
  378SOL    HW1 1137   1.200   1.519   1.930
  378SOL    HW2 1138   1.135   1.612   1.813
  379SOL     OW 1139   0.822   1.002   3.234
  379SOL    HW1 1140   0.862   1.001   3.142
  379SOL    HW2 1141   0.832   1.094   3.274
  380SOL     OW 1142   0.916   0.910   2.153
  380SOL    HW1 1143   0.979   0.948   2.085
  380SOL    HW2 1144   0.956   0.827   2.192
  381SOL     OW 1145   1.504   1.607   1.906
  381SOL    HW1 1146   1.412   1.644   1.913
  381SOL    HW2 1147   1.542   1.627   1.816
  382SOL     OW 1148   0.372   1.288   3.352
  382SOL    HW1 1149   0.359   1.381   3.318
  382SOL    HW2 1150   0.288   1.236   3.339
  383SOL     OW 1151   1.614   1.292   3.151
  383SOL    HW1 1152   1.674   1.295   3.231
  383SOL    HW2 1153   1.539   1.356   3.164
  384SOL     OW 1154   1.039   1.098   2.558
  384SOL    HW1 1155   0.969   1.051   2.612
  384SOL    HW2 1156   1.098   1.030   2.515
  385SOL     OW 1157   1.014   0.236   2.833
  385SOL    HW1 1158   1.006   0.200   2.740
  385SOL    HW2 1159   1.012   0.160   2.898
  386SOL     OW 1160   0.590   1.487   2.353
  386SOL    HW1 1161   0.632   1.429   2.283
  386SOL    HW2 1162   0.546   1.566   2.309
  387SOL     OW 1163   1.709   0.385   3.243
  387SOL    HW1 1164   1.782   0.454   3.247
  387SOL    HW2 1165   1.737   0.310   3.184
  388SOL     OW 1166   0.255   1.348   2.152
  388SOL    HW1 1167   0.159   1.349   2.125
  388SOL    HW2 1168   0.267   1.401   2.236
  389SOL     OW 1169   0.105   1.013   3.588
  389SOL    HW1 1170   0.028   0.980   3.642
  389SOL    HW2 1171   0.190   0.983   3.630
  390SOL     OW 1172   0.672   0.203   3.351
  390SOL    HW1 1173   0.762   0.187   3.311
  390SOL    HW2 1174   0.680   0.208   3.450
  391SOL     OW 1175   0.075   0.345   1.895
  391SOL    HW1 1176  -0.017   0.317   1.866
  391SOL    HW2 1177   0.106   0.422   1.839
  392SOL     OW 1178   1.440   0.856   3.260
  392SOL    HW1 1179   1.383   0.908   3.197
  392SOL    HW2 1180   1.536   0.868   3.236
  393SOL     OW 1181   0.072   0.166   2.180
  393SOL    HW1 1182   0.055   0.249   2.126
  393SOL    HW2 1183   0.162   0.129   2.158
  394SOL     OW 1184   1.183   1.335   1.981
  394SOL    HW1 1185   1.084   1.324   1.983
  394SOL    HW2 1186   1.217   1.350   2.074
  395SOL     OW 1187   0.613   0.842   3.293
  395SOL    HW1 1188   0.669   0.923   3.276
  395SOL    HW2 1189   0.672   0.762   3.296
  396SOL     OW 1190   1.493   1.767   2.821
  396SOL    HW1 1191   1.526   1.831   2.752
  396SOL    HW2 1192   1.559   1.761   2.896
  397SOL     OW 1193   0.716   0.565   3.570
  397SOL    HW1 1194   0.735   0.630   3.644
  397SOL    HW2 1195   0.776   0.485   3.579
  398SOL     OW 1196   1.450   1.220   3.495
  398SOL    HW1 1197   1.441   1.210   3.594
  398SOL    HW2 1198   1.546   1.213   3.469
  399SOL     OW 1199   0.390   1.741   3.422
  399SOL    HW1 1200   0.299   1.782   3.420
  399SOL    HW2 1201   0.383   1.647   3.454
  400SOL     OW 1202   1.674   0.883   3.116
  400SOL    HW1 1203   1.647   0.794   3.079
  400SOL    HW2 1204   1.675   0.951   3.043
  401SOL     OW 1205   1.225   0.325   2.311
  401SOL    HW1 1206   1.290   0.251   2.300
  401SOL    HW2 1207   1.245   0.375   2.395
  402SOL     OW 1208   0.594   0.745   2.514
  402SOL    HW1 1209   0.644   0.830   2.495
  402SOL    HW2 1210   0.506   0.747   2.466
  403SOL     OW 1211   1.777   0.342   3.504
  403SOL    HW1 1212   1.760   0.373   3.410
  403SOL    HW2 1213   1.693   0.305   3.542
  404SOL     OW 1214   1.730   0.934   3.379
  404SOL    HW1 1215   1.768   1.025   3.394
  404SOL    HW2 1216   1.722   0.917   3.280
  405SOL     OW 1217   0.859   1.374   1.878
  405SOL    HW1 1218   0.813   1.389   1.966
  405SOL    HW2 1219   0.903   1.459   1.848
  406SOL     OW 1220   0.661   1.790   2.815
  406SOL    HW1 1221   0.615   1.878   2.802
  406SOL    HW2 1222   0.760   1.802   2.808
  407SOL     OW 1223   0.859   0.956   2.723
  407SOL    HW1 1224   0.913   0.887   2.771
  407SOL    HW2 1225   0.827   1.025   2.789
  408SOL     OW 1226   1.083   0.984   1.949
  408SOL    HW1 1227   1.060   1.037   1.867
  408SOL    HW2 1228   1.164   0.928   1.930
  409SOL     OW 1229   1.861   1.569   2.713
  409SOL    HW1 1230   1.790   1.557   2.643
  409SOL    HW2 1231   1.862   1.490   2.773
  410SOL     OW 1232   0.221   1.314   3.706
  410SOL    HW1 1233   0.156   1.241   3.685
  410SOL    HW2 1234   0.225   1.328   3.804
  411SOL     OW 1235   0.079   1.240   2.515
  411SOL    HW1 1236   0.078   1.193   2.603
  411SOL    HW2 1237   0.161   1.212   2.464
  412SOL     OW 1238   0.672   1.391   3.486
  412SOL    HW1 1239   0.594   1.341   3.524
  412SOL    HW2 1240   0.669   1.486   3.517
  413SOL     OW 1241   1.824   0.192   3.089
  413SOL    HW1 1242   1.820   0.102   3.133
  413SOL    HW2 1243   1.827   0.181   2.990
  414SOL     OW 1244   0.428   0.424   2.382
  414SOL    HW1 1245   0.458   0.352   2.320
  414SOL    HW2 1246   0.389   0.384   2.465
  415SOL     OW 1247   1.705   1.487   2.966
  415SOL    HW1 1248   1.612   1.462   2.939
  415SOL    HW2 1249   1.731   1.437   3.048
  416SOL     OW 1250   0.317   0.547   3.142
  416SOL    HW1 1251   0.355   0.488   3.214
  416SOL    HW2 1252   0.357   0.521   3.054
  417SOL     OW 1253   0.812   1.586   2.549
  417SOL    HW1 1254   0.844   1.596   2.455
  417SOL    HW2 1255   0.733   1.524   2.551
  418SOL     OW 1256   1.424   0.214   2.974
  418SOL    HW1 1257   1.476   0.149   3.029
  418SOL    HW2 1258   1.375   0.277   3.035
  419SOL     OW 1259   1.001   0.034   3.016
  419SOL    HW1 1260   0.938  -0.038   2.985
  419SOL    HW2 1261   1.094  -0.002   3.016
  420SOL     OW 1262   0.770   1.330   2.163
  420SOL    HW1 1263   0.724   1.243   2.180
  420SOL    HW2 1264   0.861   1.327   2.204
  421SOL     OW 1265   0.618   1.567   3.146
  421SOL    HW1 1266   0.613   1.649   3.203
  421SOL    HW2 1267   0.707   1.564   3.101
  422SOL     OW 1268   1.352   0.052   2.030
  422SOL    HW1 1269   1.387   0.011   1.946
  422SOL    HW2 1270   1.262   0.014   2.050
  423SOL     OW 1271   1.300   0.453   2.553
  423SOL    HW1 1272   1.241   0.533   2.557
  423SOL    HW2 1273   1.315   0.418   2.646
  424SOL     OW 1274   1.593   0.221   2.744
  424SOL    HW1 1275   1.509   0.220   2.798
  424SOL    HW2 1276   1.595   0.304   2.688
  425SOL     OW 1277   0.039   1.077   2.162
  425SOL    HW1 1278   0.138   1.066   2.153
  425SOL    HW2 1279  -0.001   0.991   2.194
  426SOL     OW 1280   0.875   1.646   2.199
  426SOL    HW1 1281   0.798   1.611   2.145
  426SOL    HW2 1282   0.843   1.717   2.261
  427SOL     OW 1283   0.230   0.628   3.837
  427SOL    HW1 1284   0.137   0.626   3.874
  427SOL    HW2 1285   0.231   0.589   3.745
  428SOL     OW 1286   1.755   0.607   3.955
  428SOL    HW1 1287   1.743   0.594   3.856
  428SOL    HW2 1288   1.725   0.526   4.004
  429SOL     OW 1289   0.231   1.713   4.207
  429SOL    HW1 1290   0.265   1.790   4.261
  429SOL    HW2 1291   0.275   1.713   4.117
  430SOL     OW 1292   0.230   1.434   4.262
  430SOL    HW1 1293   0.204   1.530   4.262
  430SOL    HW2 1294   0.159   1.380   4.307
  431SOL     OW 1295   0.606   0.964   3.847
  431SOL    HW1 1296   0.613   1.048   3.793
  431SOL    HW2 1297   0.652   0.977   3.935
  432SOL     OW 1298   1.842   1.767   4.083
  432SOL    HW1 1299   1.896   1.738   4.163
  432SOL    HW2 1300   1.872   1.857   4.054
  433SOL     OW 1301   0.027   1.596   3.841
  433SOL    HW1 1302   0.008   1.500   3.862
  433SOL    HW2 1303  -0.006   1.654   3.916
  434SOL     OW 1304   1.689   0.922   4.336
  434SOL    HW1 1305   1.784   0.893   4.344
  434SOL    HW2 1306   1.681   0.987   4.261
  435SOL     OW 1307   1.641   1.108   4.156
  435SOL    HW1 1308   1.727   1.110   4.104
  435SOL    HW2 1309   1.655   1.155   4.244
  436SOL     OW 1310   0.809   0.004   4.226
  436SOL    HW1 1311   0.849   0.095   4.217
  436SOL    HW2 1312   0.709   0.012   4.232
  437SOL     OW 1313   1.525   0.999   3.914
  437SOL    HW1 1314   1.462   0.923   3.927
  437SOL    HW2 1315   1.573   1.017   4.000
  438SOL     OW 1316   0.598   0.729   3.994
  438SOL    HW1 1317   0.622   0.798   3.926
  438SOL    HW2 1318   0.520   0.762   4.048
  439SOL     OW 1319   1.576   1.662   4.031
  439SOL    HW1 1320   1.665   1.708   4.034
  439SOL    HW2 1321   1.555   1.638   3.936
  440SOL     OW 1322   0.865   0.348   3.919
  440SOL    HW1 1323   0.924   0.411   3.870
  440SOL    HW2 1324   0.884   0.254   3.890
  441SOL     OW 1325   0.321   0.943   3.966
  441SOL    HW1 1326   0.403   0.982   3.924
  441SOL    HW2 1327   0.294   0.861   3.917
  442SOL     OW 1328   1.458   0.735   4.452
  442SOL    HW1 1329   1.453   0.670   4.527
  442SOL    HW2 1330   1.538   0.794   4.465
  443SOL     OW 1331   1.111   1.776   3.961
  443SOL    HW1 1332   1.051   1.714   4.011
  443SOL    HW2 1333   1.142   1.732   3.876
  444SOL     OW 1334   1.632   1.377   3.805
  444SOL    HW1 1335   1.600   1.471   3.795
  444SOL    HW2 1336   1.556   1.314   3.793
  445SOL     OW 1337   0.464   1.743   4.047
  445SOL    HW1 1338   0.497   1.782   4.133
  445SOL    HW2 1339   0.540   1.736   3.982
  446SOL     OW 1340   1.400   0.107   4.150
  446SOL    HW1 1341   1.376   0.070   4.060
  446SOL    HW2 1342   1.499   0.123   4.154
  447SOL     OW 1343   0.382   0.700   4.204
  447SOL    HW1 1344   0.427   0.610   4.201
  447SOL    HW2 1345   0.288   0.689   4.237
  448SOL     OW 1346   0.614   0.122   3.841
  448SOL    HW1 1347   0.712   0.100   3.848
  448SOL    HW2 1348   0.583   0.105   3.748
  449SOL     OW 1349   1.434   1.188   3.765
  449SOL    HW1 1350   1.466   1.112   3.822
  449SOL    HW2 1351   1.342   1.215   3.795
  450SOL     OW 1352   0.297   0.035   3.895
  450SOL    HW1 1353   0.346   0.119   3.874
  450SOL    HW2 1354   0.359  -0.030   3.940
  451SOL     OW 1355   0.935   0.236   4.204
  451SOL    HW1 1356   0.887   0.277   4.126
  451SOL    HW2 1357   1.034   0.234   4.185
  452SOL     OW 1358   0.459   1.152   4.465
  452SOL    HW1 1359   0.388   1.125   4.530
  452SOL    HW2 1360   0.433   1.124   4.372
  453SOL     OW 1361   1.271   1.797   4.315
  453SOL    HW1 1362   1.315   1.861   4.251
  453SOL    HW2 1363   1.221   1.849   4.385
  454SOL     OW 1364   1.032   0.549   3.740
  454SOL    HW1 1365   0.991   0.631   3.701
  454SOL    HW2 1366   1.096   0.575   3.813
  455SOL     OW 1367   1.429   1.173   4.591
  455SOL    HW1 1368   1.374   1.089   4.584
  455SOL    HW2 1369   1.455   1.202   4.499
  456SOL     OW 1370   1.857   0.833   4.101
  456SOL    HW1 1371   1.899   0.769   4.165
  456SOL    HW2 1372   1.819   0.782   4.023
  457SOL     OW 1373   0.488   1.385   3.898
  457SOL    HW1 1374   0.401   1.370   3.945
  457SOL    HW2 1375   0.471   1.411   3.803
  458SOL     OW 1376   1.390   0.575   3.802
  458SOL    HW1 1377   1.336   0.554   3.883
  458SOL    HW2 1378   1.481   0.534   3.811
  459SOL     OW 1379   0.527   0.256   4.052
  459SOL    HW1 1380   0.554   0.197   3.977
  459SOL    HW2 1381   0.527   0.351   4.021
  460SOL     OW 1382   0.705   1.050   4.092
  460SOL    HW1 1383   0.691   1.057   4.191
  460SOL    HW2 1384   0.789   0.999   4.074
  461SOL     OW 1385   0.367   1.100   4.225
  461SOL    HW1 1386   0.360   1.183   4.169
  461SOL    HW2 1387   0.371   1.020   4.165
  462SOL     OW 1388   1.252   1.348   4.112
  462SOL    HW1 1389   1.302   1.425   4.152
  462SOL    HW2 1390   1.157   1.350   4.144
  463SOL     OW 1391   1.582   0.639   4.196
  463SOL    HW1 1392   1.551   0.700   4.269
  463SOL    HW2 1393   1.632   0.691   4.127
  464SOL     OW 1394   1.209   0.525   3.999
  464SOL    HW1 1395   1.222   0.441   4.053
  464SOL    HW2 1396   1.180   0.599   4.059
  465SOL     OW 1397   1.622   0.367   4.098
  465SOL    HW1 1398   1.624   0.291   4.162
  465SOL    HW2 1399   1.574   0.444   4.138
  466SOL     OW 1400   1.540   0.274   3.849
  466SOL    HW1 1401   1.479   0.199   3.872
  466SOL    HW2 1402   1.562   0.326   3.932
  467SOL     OW 1403   1.303   0.838   3.766
  467SOL    HW1 1404   1.337   0.745   3.781
  467SOL    HW2 1405   1.321   0.865   3.671
  468SOL     OW 1406   0.008   1.326   3.924
  468SOL    HW1 1407  -0.085   1.347   3.893
  468SOL    HW2 1408   0.018   1.227   3.937
  469SOL     OW 1409   0.815   0.572   4.049
  469SOL    HW1 1410   0.822   0.483   4.003
  469SOL    HW2 1411   0.721   0.606   4.041
  470SOL     OW 1412   0.473   0.500   3.915
  470SOL    HW1 1413   0.534   0.580   3.919
  470SOL    HW2 1414   0.378   0.531   3.922
  471SOL     OW 1415   1.302   0.855   4.033
  471SOL    HW1 1416   1.216   0.824   4.075
  471SOL    HW2 1417   1.298   0.841   3.934
  472SOL     OW 1418   1.726   0.135   4.247
  472SOL    HW1 1419   1.799   0.118   4.180
  472SOL    HW2 1420   1.695   0.048   4.285
  473SOL     OW 1421   1.388   1.573   4.201
  473SOL    HW1 1422   1.455   1.585   4.127
  473SOL    HW2 1423   1.348   1.662   4.224
  474SOL     OW 1424   0.672   1.616   3.878
  474SOL    HW1 1425   0.681   1.626   3.779
  474SOL    HW2 1426   0.632   1.527   3.899
  475SOL     OW 1427   1.194   1.612   3.755
  475SOL    HW1 1428   1.200   1.519   3.792
  475SOL    HW2 1429   1.135   1.612   3.675
  476SOL     OW 1430   0.916   0.910   4.015
  476SOL    HW1 1431   0.979   0.948   3.947
  476SOL    HW2 1432   0.956   0.827   4.054
  477SOL     OW 1433   1.504   1.607   3.768
  477SOL    HW1 1434   1.412   1.644   3.775
  477SOL    HW2 1435   1.542   1.627   3.678
  478SOL     OW 1436   0.590   1.487   4.215
  478SOL    HW1 1437   0.632   1.429   4.145
  478SOL    HW2 1438   0.546   1.566   4.171
  479SOL     OW 1439   0.255   1.348   4.014
  479SOL    HW1 1440   0.159   1.349   3.987
  479SOL    HW2 1441   0.267   1.401   4.098
  480SOL     OW 1442   0.075   0.345   3.757
  480SOL    HW1 1443  -0.017   0.317   3.728
  480SOL    HW2 1444   0.106   0.422   3.701
  481SOL     OW 1445   0.072   0.166   4.042
  481SOL    HW1 1446   0.055   0.249   3.988
  481SOL    HW2 1447   0.162   0.129   4.020
  482SOL     OW 1448   1.183   1.335   3.843
  482SOL    HW1 1449   1.084   1.324   3.845
  482SOL    HW2 1450   1.217   1.350   3.936
  483SOL     OW 1451   1.225   0.325   4.173
  483SOL    HW1 1452   1.290   0.251   4.162
  483SOL    HW2 1453   1.245   0.375   4.257
  484SOL     OW 1454   0.859   1.374   3.740
  484SOL    HW1 1455   0.813   1.389   3.828
  484SOL    HW2 1456   0.903   1.459   3.710
  485SOL     OW 1457   1.083   0.984   3.811
  485SOL    HW1 1458   1.060   1.037   3.729
  485SOL    HW2 1459   1.164   0.928   3.792
  486SOL     OW 1460   0.428   0.424   4.244
  486SOL    HW1 1461   0.458   0.352   4.182
  486SOL    HW2 1462   0.389   0.384   4.327
  487SOL     OW 1463   0.770   1.330   4.025
  487SOL    HW1 1464   0.724   1.243   4.042
  487SOL    HW2 1465   0.861   1.327   4.066
  488SOL     OW 1466   1.352   0.052   3.892
  488SOL    HW1 1467   1.387   0.011   3.808
  488SOL    HW2 1468   1.262   0.014   3.912
  489SOL     OW 1469   0.039   1.077   4.024
  489SOL    HW1 1470   0.138   1.066   4.015
  489SOL    HW2 1471  -0.001   0.991   4.056
  490SOL     OW 1472   0.875   1.646   4.061
  490SOL    HW1 1473   0.798   1.611   4.007
  490SOL    HW2 1474   0.843   1.717   4.123
  491SOL     OW 1475   0.230   2.490   0.113
  491SOL    HW1 1476   0.137   2.488   0.150
  491SOL    HW2 1477   0.231   2.451   0.021
  492SOL     OW 1478   0.225   2.137   0.996
  492SOL    HW1 1479   0.260   2.120   1.088
  492SOL    HW2 1480   0.137   2.092   0.984
  493SOL     OW 1481   0.019   2.230   0.647
  493SOL    HW1 1482  -0.063   2.273   0.686
  493SOL    HW2 1483  -0.009   2.157   0.584
  494SOL     OW 1484   0.569   3.137   1.165
  494SOL    HW1 1485   0.476   3.130   1.128
  494SOL    HW2 1486   0.580   3.226   1.209
  495SOL     OW 1487   1.555   3.373   0.703
  495SOL    HW1 1488   1.498   3.357   0.784
  495SOL    HW2 1489   1.496   3.383   0.623
  496SOL     OW 1490   1.135   2.565   0.717
  496SOL    HW1 1491   1.192   2.643   0.692
  496SOL    HW2 1492   1.075   2.591   0.793
  497SOL     OW 1493   1.755   2.469   0.231
  497SOL    HW1 1494   1.743   2.456   0.132
  497SOL    HW2 1495   1.725   2.388   0.280
  498SOL     OW 1496   0.768   3.006   1.023
  498SOL    HW1 1497   0.690   3.023   1.083
  498SOL    HW2 1498   0.802   3.093   0.987
  499SOL     OW 1499   0.850   2.660   1.823
  499SOL    HW1 1500   0.846   2.736   1.888
  499SOL    HW2 1501   0.872   2.696   1.732
  500SOL     OW 1502   0.685   2.874   0.665
  500SOL    HW1 1503   0.754   2.858   0.735
  500SOL    HW2 1504   0.612   2.931   0.703
  501SOL     OW 1505   0.686   3.023   1.803
  501SOL    HW1 1506   0.746   3.102   1.817
  501SOL    HW2 1507   0.600   3.054   1.762
  502SOL     OW 1508   0.335   3.297   1.061
  502SOL    HW1 1509   0.257   3.266   1.008
  502SOL    HW2 1510   0.393   3.355   1.004
  503SOL     OW 1511   1.460   3.367   1.339
  503SOL    HW1 1512   1.484   3.461   1.365
  503SOL    HW2 1513   1.444   3.313   1.421
  504SOL     OW 1514   0.438   2.254   1.499
  504SOL    HW1 1515   0.520   2.198   1.508
  504SOL    HW2 1516   0.357   2.196   1.503
  505SOL     OW 1517   1.603   2.309   0.737
  505SOL    HW1 1518   1.529   2.355   0.687
  505SOL    HW2 1519   1.654   2.377   0.790
  506SOL     OW 1520   0.231   3.575   0.483
  506SOL    HW1 1521   0.265   3.652   0.537
  506SOL    HW2 1522   0.275   3.575   0.393
  507SOL     OW 1523   1.127   3.203   1.690
  507SOL    HW1 1524   1.174   3.203   1.778
  507SOL    HW2 1525   1.079   3.116   1.679
  508SOL     OW 1526   0.230   3.296   0.538
  508SOL    HW1 1527   0.204   3.392   0.538
  508SOL    HW2 1528   0.159   3.242   0.583
  509SOL     OW 1529   0.240   2.953   0.886
  509SOL    HW1 1530   0.254   2.869   0.938
  509SOL    HW2 1531   0.185   3.017   0.941
  510SOL     OW 1532   0.620   3.648   1.439
  510SOL    HW1 1533   0.528   3.631   1.474
  510SOL    HW2 1534   0.648   3.740   1.465
  511SOL     OW 1535   0.606   2.826   0.123
  511SOL    HW1 1536   0.613   2.910   0.069
  511SOL    HW2 1537   0.652   2.839   0.211
  512SOL     OW 1538   1.594   1.976   1.480
  512SOL    HW1 1539   1.576   2.043   1.408
  512SOL    HW2 1540   1.591   2.022   1.569
  513SOL     OW 1541   0.122   2.505   0.563
  513SOL    HW1 1542   0.077   2.417   0.580
  513SOL    HW2 1543   0.121   2.559   0.647
  514SOL     OW 1544   1.842   3.629   0.359
  514SOL    HW1 1545   1.896   3.600   0.439
  514SOL    HW2 1546   1.872   3.719   0.330
  515SOL     OW 1547   0.027   3.458   0.117
  515SOL    HW1 1548   0.008   3.362   0.138
  515SOL    HW2 1549  -0.006   3.516   0.192
  516SOL     OW 1550   1.689   2.784   0.612
  516SOL    HW1 1551   1.784   2.755   0.620
  516SOL    HW2 1552   1.681   2.849   0.537
  517SOL     OW 1553   1.641   2.970   0.432
  517SOL    HW1 1554   1.727   2.972   0.380
  517SOL    HW2 1555   1.655   3.017   0.520
  518SOL     OW 1556   0.113   2.599   1.597
  518SOL    HW1 1557   0.201   2.586   1.642
  518SOL    HW2 1558   0.100   2.696   1.575
  519SOL     OW 1559   0.613   3.227   0.726
  519SOL    HW1 1560   0.564   3.140   0.735
  519SOL    HW2 1561   0.590   3.270   0.639
  520SOL     OW 1562   1.293   3.090   1.423
  520SOL    HW1 1563   1.330   3.017   1.365
  520SOL    HW2 1564   1.345   3.095   1.508
  521SOL     OW 1565   0.809   1.866   0.502
  521SOL    HW1 1566   0.849   1.957   0.493
  521SOL    HW2 1567   0.709   1.874   0.508
  522SOL     OW 1568   0.197   2.838   1.264
  522SOL    HW1 1569   0.286   2.793   1.250
  522SOL    HW2 1570   0.124   2.773   1.245
  523SOL     OW 1571   1.525   2.861   0.190
  523SOL    HW1 1572   1.462   2.785   0.203
  523SOL    HW2 1573   1.573   2.879   0.276
  524SOL     OW 1574   1.187   3.654   1.616
  524SOL    HW1 1575   1.211   3.714   1.540
  524SOL    HW2 1576   1.194   3.559   1.586
  525SOL     OW 1577   0.317   2.113   1.801
  525SOL    HW1 1578   0.388   2.184   1.807
  525SOL    HW2 1579   0.229   2.152   1.829
  526SOL     OW 1580   1.466   3.279   0.953
  526SOL    HW1 1581   1.407   3.285   1.033
  526SOL    HW2 1582   1.451   3.191   0.907
  527SOL     OW 1583   1.667   3.576   0.572
  527SOL    HW1 1584   1.626   3.553   0.484
  527SOL    HW2 1585   1.649   3.502   0.637
  528SOL     OW 1586   0.598   2.591   0.270
  528SOL    HW1 1587   0.622   2.660   0.202
  528SOL    HW2 1588   0.520   2.624   0.324
  529SOL     OW 1589   1.281   2.207   0.944
  529SOL    HW1 1590   1.195   2.157   0.931
  529SOL    HW2 1591   1.343   2.153   1.000
  530SOL     OW 1592   1.576   3.524   0.307
  530SOL    HW1 1593   1.665   3.570   0.310
  530SOL    HW2 1594   1.555   3.500   0.212
  531SOL     OW 1595   0.807   2.467   1.465
  531SOL    HW1 1596   0.760   2.464   1.554
  531SOL    HW2 1597   0.756   2.412   1.399
  532SOL     OW 1598   1.394   2.331   1.674
  532SOL    HW1 1599   1.374   2.374   1.762
  532SOL    HW2 1600   1.472   2.269   1.683
  533SOL     OW 1601   0.973   2.752   1.572
  533SOL    HW1 1602   1.019   2.668   1.543
  533SOL    HW2 1603   0.917   2.786   1.497
  534SOL     OW 1604   0.991   2.272   1.242
  534SOL    HW1 1605   0.914   2.306   1.296
  534SOL    HW2 1606   0.957   2.221   1.163
  535SOL     OW 1607   1.041   2.563   0.429
  535SOL    HW1 1608   1.067   2.559   0.525
  535SOL    HW2 1609   0.956   2.512   0.415
  536SOL     OW 1610   0.076   2.673   0.789
  536SOL    HW1 1611   0.175   2.661   0.798
  536SOL    HW2 1612   0.052   2.768   0.810
  537SOL     OW 1613   0.130   3.683   1.571
  537SOL    HW1 1614   0.120   3.668   1.670
  537SOL    HW2 1615   0.044   3.719   1.535
  538SOL     OW 1616   0.865   2.210   0.195
  538SOL    HW1 1617   0.924   2.273   0.146
  538SOL    HW2 1618   0.884   2.116   0.166
  539SOL     OW 1619   1.719   2.447   1.831
  539SOL    HW1 1620   1.693   2.536   1.795
  539SOL    HW2 1621   1.717   2.379   1.758
  540SOL     OW 1622   1.362   3.006   0.545
  540SOL    HW1 1623   1.445   2.977   0.497
  540SOL    HW2 1624   1.313   3.073   0.489
  541SOL     OW 1625   0.550   2.058   0.885
  541SOL    HW1 1626   0.545   2.053   0.985
  541SOL    HW2 1627   0.552   2.154   0.856
  542SOL     OW 1628   1.008   3.318   0.477
  542SOL    HW1 1629   0.962   3.390   0.425
  542SOL    HW2 1630   1.004   3.338   0.575
  543SOL     OW 1631   0.351   3.663   0.853
  543SOL    HW1 1632   0.401   3.577   0.859
  543SOL    HW2 1633   0.416   3.740   0.850
  544SOL     OW 1634   1.795   2.928   0.873
  544SOL    HW1 1635   1.733   2.913   0.797
  544SOL    HW2 1636   1.743   2.939   0.958
  545SOL     OW 1637   1.227   3.412   1.506
  545SOL    HW1 1638   1.233   3.335   1.570
  545SOL    HW2 1639   1.175   3.386   1.426
  546SOL     OW 1640   0.321   2.805   0.242
  546SOL    HW1 1641   0.403   2.844   0.200
  546SOL    HW2 1642   0.294   2.723   0.193
  547SOL     OW 1643   1.458   2.597   0.728
  547SOL    HW1 1644   1.453   2.532   0.803
  547SOL    HW2 1645   1.538   2.656   0.741
  548SOL     OW 1646   0.461   3.128   1.727
  548SOL    HW1 1647   0.411   3.129   1.641
  548SOL    HW2 1648   0.398   3.110   1.803
  549SOL     OW 1649   1.111   3.638   0.237
  549SOL    HW1 1650   1.051   3.576   0.287
  549SOL    HW2 1651   1.142   3.594   0.152
  550SOL     OW 1652   0.202   2.147   1.498
  550SOL    HW1 1653   0.122   2.207   1.485
  550SOL    HW2 1654   0.192   2.098   1.584
  551SOL     OW 1655   1.632   3.239   0.081
  551SOL    HW1 1656   1.600   3.333   0.071
  551SOL    HW2 1657   1.556   3.176   0.069
  552SOL     OW 1658   0.464   3.605   0.323
  552SOL    HW1 1659   0.497   3.644   0.409
  552SOL    HW2 1660   0.540   3.598   0.258
  553SOL     OW 1661   1.400   1.969   0.426
  553SOL    HW1 1662   1.376   1.932   0.336
  553SOL    HW2 1663   1.499   1.985   0.430
  554SOL     OW 1664   0.249   3.647   1.241
  554SOL    HW1 1665   0.306   3.582   1.291
  554SOL    HW2 1666   0.233   3.614   1.148
  555SOL     OW 1667   0.940   3.560   0.904
  555SOL    HW1 1668   1.020   3.503   0.925
  555SOL    HW2 1669   0.891   3.520   0.827
  556SOL     OW 1670   0.382   2.562   0.480
  556SOL    HW1 1671   0.427   2.472   0.477
  556SOL    HW2 1672   0.288   2.551   0.513
  557SOL     OW 1673   1.547   2.084   1.729
  557SOL    HW1 1674   1.542   2.121   1.821
  557SOL    HW2 1675   1.475   2.015   1.717
  558SOL     OW 1676   0.614   1.984   0.117
  558SOL    HW1 1677   0.712   1.962   0.124
  558SOL    HW2 1678   0.583   1.967   0.024
  559SOL     OW 1679   0.781   2.126   1.749
  559SOL    HW1 1680   0.848   2.065   1.792
  559SOL    HW2 1681   0.708   2.145   1.814
  560SOL     OW 1682   0.888   3.376   1.195
  560SOL    HW1 1683   0.865   3.351   1.101
  560SOL    HW2 1684   0.949   3.307   1.234
  561SOL     OW 1685   1.351   2.452   1.433
  561SOL    HW1 1686   1.379   2.409   1.518
  561SOL    HW2 1687   1.376   2.548   1.434
  562SOL     OW 1688   0.803   3.264   0.924
  562SOL    HW1 1689   0.893   3.278   0.882
  562SOL    HW2 1690   0.732   3.266   0.853
  563SOL     OW 1691   0.922   2.365   0.899
  563SOL    HW1 1692   0.897   2.356   0.803
  563SOL    HW2 1693   0.970   2.283   0.930
  564SOL     OW 1694   0.539   1.926   0.512
  564SOL    HW1 1695   0.458   1.927   0.570
  564SOL    HW2 1696   0.542   2.009   0.457
  565SOL     OW 1697   1.434   3.050   0.041
  565SOL    HW1 1698   1.466   2.974   0.098
  565SOL    HW2 1699   1.342   3.077   0.071
  566SOL     OW 1700   0.297   1.897   0.171
  566SOL    HW1 1701   0.346   1.981   0.150
  566SOL    HW2 1702   0.359   1.832   0.216
  567SOL     OW 1703   0.935   2.098   0.480
  567SOL    HW1 1704   0.887   2.139   0.402
  567SOL    HW2 1705   1.034   2.096   0.461
  568SOL     OW 1706   1.076   2.545   1.464
  568SOL    HW1 1707   0.996   2.484   1.467
  568SOL    HW2 1708   1.157   2.492   1.440
  569SOL     OW 1709   1.227   3.432   0.793
  569SOL    HW1 1710   1.248   3.506   0.728
  569SOL    HW2 1711   1.295   3.432   0.866
  570SOL     OW 1712   0.459   3.014   0.741
  570SOL    HW1 1713   0.388   2.987   0.806
  570SOL    HW2 1714   0.433   2.986   0.648
  571SOL     OW 1715   1.271   3.659   0.591
  571SOL    HW1 1716   1.315   3.723   0.527
  571SOL    HW2 1717   1.221   3.711   0.661
  572SOL     OW 1718   1.032   2.411   0.016
  572SOL    HW1 1719   0.991   2.493  -0.023
  572SOL    HW2 1720   1.096   2.437   0.089
  573SOL     OW 1721   0.078   2.418   1.386
  573SOL    HW1 1722   0.170   2.417   1.345
  573SOL    HW2 1723   0.072   2.492   1.453
  574SOL     OW 1724   0.561   2.084   1.147
  574SOL    HW1 1725   0.599   2.000   1.184
  574SOL    HW2 1726   0.473   2.103   1.191
  575SOL     OW 1727   0.866   2.316   0.642
  575SOL    HW1 1728   0.834   2.388   0.580
  575SOL    HW2 1729   0.890   2.235   0.589
  576SOL     OW 1730   1.017   1.901   0.753
  576SOL    HW1 1731   0.945   1.906   0.684
  576SOL    HW2 1732   0.993   1.832   0.822
  577SOL     OW 1733   1.429   3.035   0.867
  577SOL    HW1 1734   1.374   2.951   0.860
  577SOL    HW2 1735   1.455   3.064   0.775
  578SOL     OW 1736   1.466   2.452   0.992
  578SOL    HW1 1737   1.436   2.357   0.999
  578SOL    HW2 1738   1.539   2.468   1.058
  579SOL     OW 1739   1.857   2.695   0.377
  579SOL    HW1 1740   1.899   2.631   0.441
  579SOL    HW2 1741   1.819   2.644   0.299
  580SOL     OW 1742   0.488   3.247   0.174
  580SOL    HW1 1743   0.401   3.232   0.221
  580SOL    HW2 1744   0.471   3.273   0.079
  581SOL     OW 1745   1.664   3.142   0.657
  581SOL    HW1 1746   1.763   3.150   0.671
  581SOL    HW2 1747   1.619   3.226   0.688
  582SOL     OW 1748   1.390   2.437   0.078
  582SOL    HW1 1749   1.336   2.416   0.159
  582SOL    HW2 1750   1.481   2.396   0.087
  583SOL     OW 1751   0.527   2.118   0.328
  583SOL    HW1 1752   0.554   2.059   0.253
  583SOL    HW2 1753   0.527   2.213   0.297
  584SOL     OW 1754   1.754   3.085   1.588
  584SOL    HW1 1755   1.845   3.046   1.575
  584SOL    HW2 1756   1.762   3.181   1.612
  585SOL     OW 1757   1.064   3.209   1.340
  585SOL    HW1 1758   0.984   3.186   1.395
  585SOL    HW2 1759   1.147   3.183   1.389
  586SOL     OW 1760   1.592   3.491   1.625
  586SOL    HW1 1761   1.619   3.525   1.535
  586SOL    HW2 1762   1.671   3.453   1.671
  587SOL     OW 1763   1.111   3.057   1.100
  587SOL    HW1 1764   1.071   3.101   1.181
  587SOL    HW2 1765   1.070   3.094   1.017
  588SOL     OW 1766   1.638   2.961   1.079
  588SOL    HW1 1767   1.643   3.042   1.138
  588SOL    HW2 1768   1.552   2.963   1.028
  589SOL     OW 1769   0.915   1.951   1.402
  589SOL    HW1 1770   0.940   1.931   1.307
  589SOL    HW2 1771   0.987   2.007   1.444
  590SOL     OW 1772   0.980   2.978   1.719
  590SOL    HW1 1773   0.881   2.984   1.729
  590SOL    HW2 1774   1.003   2.898   1.663
  591SOL     OW 1775   0.705   2.912   0.368
  591SOL    HW1 1776   0.691   2.919   0.467
  591SOL    HW2 1777   0.789   2.861   0.350
  592SOL     OW 1778   0.410   2.675   1.251
  592SOL    HW1 1779   0.496   2.687   1.301
  592SOL    HW2 1780   0.368   2.588   1.278
  593SOL     OW 1781   1.274   2.248   1.262
  593SOL    HW1 1782   1.295   2.322   1.326
  593SOL    HW2 1783   1.185   2.265   1.219
  594SOL     OW 1784   0.064   3.426   1.331
  594SOL    HW1 1785   0.018   3.508   1.297
  594SOL    HW2 1786   0.162   3.445   1.340
  595SOL     OW 1787   0.367   2.962   0.501
  595SOL    HW1 1788   0.360   3.045   0.445
  595SOL    HW2 1789   0.371   2.882   0.441
  596SOL     OW 1790   0.566   2.399   0.865
  596SOL    HW1 1791   0.578   2.465   0.791
  596SOL    HW2 1792   0.612   2.433   0.948
  597SOL     OW 1793   1.252   3.210   0.388
  597SOL    HW1 1794   1.302   3.287   0.428
  597SOL    HW2 1795   1.157   3.212   0.420
  598SOL     OW 1796   1.272   3.307   1.142
  598SOL    HW1 1797   1.319   3.320   1.229
  598SOL    HW2 1798   1.206   3.233   1.151
  599SOL     OW 1799   1.582   2.501   0.472
  599SOL    HW1 1800   1.551   2.562   0.545
  599SOL    HW2 1801   1.632   2.553   0.403
  600SOL     OW 1802   0.354   3.372   1.329
  600SOL    HW1 1803   0.333   3.328   1.242
  600SOL    HW2 1804   0.451   3.398   1.332
  601SOL     OW 1805   0.402   2.613   1.598
  601SOL    HW1 1806   0.470   2.668   1.551
  601SOL    HW2 1807   0.442   2.525   1.625
  602SOL     OW 1808   1.587   2.641   1.670
  602SOL    HW1 1809   1.495   2.679   1.665
  602SOL    HW2 1810   1.647   2.688   1.605
  603SOL     OW 1811   1.013   1.967   1.770
  603SOL    HW1 1812   1.019   2.052   1.718
  603SOL    HW2 1813   1.045   1.891   1.713
  604SOL     OW 1814   0.504   1.912   1.740
  604SOL    HW1 1815   0.462   1.855   1.670
  604SOL    HW2 1816   0.438   1.981   1.772
  605SOL     OW 1817   0.573   2.732   1.029
  605SOL    HW1 1818   0.617   2.821   1.020
  605SOL    HW2 1819   0.510   2.732   1.106
  606SOL     OW 1820   1.360   2.724   1.045
  606SOL    HW1 1821   1.285   2.724   0.979
  606SOL    HW2 1822   1.397   2.632   1.054
  607SOL     OW 1823   1.209   2.387   0.275
  607SOL    HW1 1824   1.222   2.303   0.329
  607SOL    HW2 1825   1.180   2.461   0.335
  608SOL     OW 1826   0.307   2.075   1.231
  608SOL    HW1 1827   0.284   2.112   1.321
  608SOL    HW2 1828   0.277   1.980   1.225
  609SOL     OW 1829   0.037   3.172   1.282
  609SOL    HW1 1830   0.090   3.123   1.350
  609SOL    HW2 1831   0.059   3.270   1.287
  610SOL     OW 1832   0.732   2.496   1.064
  610SOL    HW1 1833   0.791   2.470   0.988
  610SOL    HW2 1834   0.704   2.592   1.053
  611SOL     OW 1835   1.728   2.797   1.854
  611SOL    HW1 1836   1.682   2.790   1.765
  611SOL    HW2 1837   1.666   2.841   1.920
  612SOL     OW 1838   0.307   1.925   0.618
  612SOL    HW1 1839   0.296   2.019   0.651
  612SOL    HW2 1840   0.302   1.862   0.695
  613SOL     OW 1841   1.622   2.229   0.374
  613SOL    HW1 1842   1.624   2.153   0.438
  613SOL    HW2 1843   1.574   2.306   0.414
  614SOL     OW 1844   1.023   2.628   0.966
  614SOL    HW1 1845   1.038   2.649   1.062
  614SOL    HW2 1846   0.993   2.533   0.957
  615SOL     OW 1847   0.980   3.435   1.700
  615SOL    HW1 1848   0.960   3.479   1.612
  615SOL    HW2 1849   1.019   3.344   1.684
  616SOL     OW 1850   1.859   3.380   1.605
  616SOL    HW1 1851   1.873   3.407   1.510
  616SOL    HW2 1852   1.942   3.402   1.658
  617SOL     OW 1853   0.350   2.760   1.804
  617SOL    HW1 1854   0.426   2.804   1.852
  617SOL    HW2 1855   0.385   2.713   1.722
  618SOL     OW 1856   1.540   2.136   0.125
  618SOL    HW1 1857   1.479   2.061   0.148
  618SOL    HW2 1858   1.562   2.188   0.208
  619SOL     OW 1859   1.303   2.700   0.042
  619SOL    HW1 1860   1.337   2.607   0.057
  619SOL    HW2 1861   1.321   2.727  -0.053
  620SOL     OW 1862   1.068   3.195   0.849
  620SOL    HW1 1863   1.075   3.111   0.794
  620SOL    HW2 1864   1.130   3.264   0.813
  621SOL     OW 1865   0.319   2.672   0.949
  621SOL    HW1 1866   0.412   2.708   0.954
  621SOL    HW2 1867   0.313   2.587   1.001
  622SOL     OW 1868   0.339   2.371   1.006
  622SOL    HW1 1869   0.287   2.288   0.989
  622SOL    HW2 1870   0.416   2.376   0.942
  623SOL     OW 1871   1.138   2.242   1.678
  623SOL    HW1 1872   1.093   2.305   1.742
  623SOL    HW2 1873   1.231   2.273   1.661
  624SOL     OW 1874   1.160   2.069   1.477
  624SOL    HW1 1875   1.160   2.133   1.554
  624SOL    HW2 1876   1.188   2.117   1.394
  625SOL     OW 1877   0.008   3.188   0.200
  625SOL    HW1 1878  -0.085   3.209   0.169
  625SOL    HW2 1879   0.018   3.089   0.213
  626SOL     OW 1880   0.088   3.663   0.927
  626SOL    HW1 1881   0.046   3.577   0.900
  626SOL    HW2 1882   0.182   3.666   0.893
  627SOL     OW 1883   0.504   3.430   0.910
  627SOL    HW1 1884   0.570   3.504   0.919
  627SOL    HW2 1885   0.548   3.351   0.868
  628SOL     OW 1886   1.002   2.658   1.238
  628SOL    HW1 1887   1.043   2.626   1.324
  628SOL    HW2 1888   0.906   2.631   1.235
  629SOL     OW 1889   0.040   2.406   1.114
  629SOL    HW1 1890   0.125   2.373   1.073
  629SOL    HW2 1891   0.053   2.421   1.212
  630SOL     OW 1892   0.189   2.382   1.722
  630SOL    HW1 1893   0.248   2.342   1.652
  630SOL    HW2 1894   0.131   2.453   1.681
  631SOL     OW 1895   1.369   2.812   1.660
  631SOL    HW1 1896   1.408   2.901   1.680
  631SOL    HW2 1897   1.379   2.792   1.563
  632SOL     OW 1898   0.815   2.434   0.325
  632SOL    HW1 1899   0.822   2.345   0.279
  632SOL    HW2 1900   0.721   2.468   0.317
  633SOL     OW 1901   1.657   2.466   1.206
  633SOL    HW1 1902   1.619   2.397   1.268
  633SOL    HW2 1903   1.739   2.430   1.162
  634SOL     OW 1904   0.252   3.426   1.744
  634SOL    HW1 1905   0.222   3.483   1.820
  634SOL    HW2 1906   0.245   3.329   1.770
  635SOL     OW 1907   0.671   2.326   1.269
  635SOL    HW1 1908   0.637   2.237   1.239
  635SOL    HW2 1909   0.697   2.380   1.189
  636SOL     OW 1910   0.930   3.540   1.465
  636SOL    HW1 1911   0.906   3.522   1.370
  636SOL    HW2 1912   0.960   3.634   1.475
  637SOL     OW 1913   0.473   2.362   0.191
  637SOL    HW1 1914   0.534   2.442   0.195
  637SOL    HW2 1915   0.378   2.393   0.198
  638SOL     OW 1916   0.159   2.999   1.466
  638SOL    HW1 1917   0.181   2.938   1.542
  638SOL    HW2 1918   0.169   2.950   1.380
  639SOL     OW 1919   1.347   2.921   1.234
  639SOL    HW1 1920   1.371   2.858   1.160
  639SOL    HW2 1921   1.257   2.961   1.216
  640SOL     OW 1922   1.302   2.717   0.309
  640SOL    HW1 1923   1.216   2.686   0.351
  640SOL    HW2 1924   1.298   2.703   0.210
  641SOL     OW 1925   1.759   3.609   1.154
  641SOL    HW1 1926   1.820   3.639   1.081
  641SOL    HW2 1927   1.721   3.520   1.132
  642SOL     OW 1928   1.252   3.593   1.128
  642SOL    HW1 1929   1.336   3.598   1.074
  642SOL    HW2 1930   1.229   3.497   1.146
  643SOL     OW 1931   0.083   3.120   1.022
  643SOL    HW1 1932   0.078   3.119   1.122
  643SOL    HW2 1933   0.000   3.079   0.984
  644SOL     OW 1934   0.688   3.524   1.716
  644SOL    HW1 1935   0.632   3.605   1.725
  644SOL    HW2 1936   0.740   3.528   1.630
  645SOL     OW 1937   0.903   1.948   0.133
  645SOL    HW1 1938   0.954   1.949   0.047
  645SOL    HW2 1939   0.959   1.906   0.204
  646SOL     OW 1940   1.726   1.997   0.523
  646SOL    HW1 1941   1.799   1.980   0.456
  646SOL    HW2 1942   1.695   1.910   0.561
  647SOL     OW 1943   1.388   3.435   0.477
  647SOL    HW1 1944   1.455   3.447   0.403
  647SOL    HW2 1945   1.348   3.524   0.500
  648SOL     OW 1946   0.130   3.656   1.851
  648SOL    HW1 1947   0.089   3.582   1.904
  648SOL    HW2 1948   0.194   3.707   1.909
  649SOL     OW 1949   1.280   2.789   0.672
  649SOL    HW1 1950   1.340   2.708   0.674
  649SOL    HW2 1951   1.320   2.858   0.612
  650SOL     OW 1952   0.830   3.135   1.422
  650SOL    HW1 1953   0.825   3.168   1.517
  650SOL    HW2 1954   0.744   3.154   1.376
  651SOL     OW 1955   0.672   3.478   0.154
  651SOL    HW1 1956   0.681   3.488   0.055
  651SOL    HW2 1957   0.632   3.389   0.175
  652SOL     OW 1958   1.650   3.582   1.394
  652SOL    HW1 1959   1.703   3.592   1.310
  652SOL    HW2 1960   1.623   3.672   1.428
  653SOL     OW 1961   1.841   2.037   0.963
  653SOL    HW1 1962   1.880   1.952   0.927
  653SOL    HW2 1963   1.743   2.039   0.944
  654SOL     OW 1964   0.263   2.188   0.720
  654SOL    HW1 1965   0.184   2.239   0.686
  654SOL    HW2 1966   0.254   2.173   0.818
  655SOL     OW 1967   1.194   3.474   0.031
  655SOL    HW1 1968   1.200   3.381   0.068
  655SOL    HW2 1969   1.135   3.474  -0.049
  656SOL     OW 1970   0.822   2.864   1.372
  656SOL    HW1 1971   0.862   2.863   1.280
  656SOL    HW2 1972   0.832   2.956   1.412
  657SOL     OW 1973   0.916   2.772   0.291
  657SOL    HW1 1974   0.979   2.810   0.223
  657SOL    HW2 1975   0.956   2.689   0.330
  658SOL     OW 1976   1.504   3.469   0.044
  658SOL    HW1 1977   1.412   3.506   0.051
  658SOL    HW2 1978   1.542   3.489  -0.046
  659SOL     OW 1979   0.372   3.150   1.490
  659SOL    HW1 1980   0.359   3.243   1.456
  659SOL    HW2 1981   0.288   3.098   1.477
  660SOL     OW 1982   1.614   3.154   1.289
  660SOL    HW1 1983   1.674   3.157   1.369
  660SOL    HW2 1984   1.539   3.218   1.302
  661SOL     OW 1985   1.039   2.960   0.696
  661SOL    HW1 1986   0.969   2.913   0.750
  661SOL    HW2 1987   1.098   2.892   0.653
  662SOL     OW 1988   1.014   2.098   0.971
  662SOL    HW1 1989   1.006   2.062   0.878
  662SOL    HW2 1990   1.012   2.022   1.036
  663SOL     OW 1991   0.590   3.349   0.491
  663SOL    HW1 1992   0.632   3.291   0.421
  663SOL    HW2 1993   0.546   3.428   0.447
  664SOL     OW 1994   1.709   2.247   1.381
  664SOL    HW1 1995   1.782   2.316   1.385
  664SOL    HW2 1996   1.737   2.172   1.322
  665SOL     OW 1997   0.255   3.210   0.290
  665SOL    HW1 1998   0.159   3.211   0.263
  665SOL    HW2 1999   0.267   3.263   0.374
  666SOL     OW 2000   0.105   2.875   1.726
  666SOL    HW1 2001   0.028   2.842   1.780
  666SOL    HW2 2002   0.190   2.845   1.768
  667SOL     OW 2003   0.672   2.065   1.489
  667SOL    HW1 2004   0.762   2.049   1.449
  667SOL    HW2 2005   0.680   2.070   1.588
  668SOL     OW 2006   0.075   2.207   0.033
  668SOL    HW1 2007  -0.017   2.179   0.004
  668SOL    HW2 2008   0.106   2.284  -0.023
  669SOL     OW 2009   1.440   2.718   1.398
  669SOL    HW1 2010   1.383   2.770   1.335
  669SOL    HW2 2011   1.536   2.730   1.374
  670SOL     OW 2012   0.072   2.028   0.318
  670SOL    HW1 2013   0.055   2.111   0.264
  670SOL    HW2 2014   0.162   1.991   0.296
  671SOL     OW 2015   1.183   3.197   0.119
  671SOL    HW1 2016   1.084   3.186   0.121
  671SOL    HW2 2017   1.217   3.212   0.212
  672SOL     OW 2018   0.613   2.704   1.431
  672SOL    HW1 2019   0.669   2.785   1.414
  672SOL    HW2 2020   0.672   2.624   1.434
  673SOL     OW 2021   1.493   3.629   0.959
  673SOL    HW1 2022   1.526   3.693   0.890
  673SOL    HW2 2023   1.559   3.623   1.034
  674SOL     OW 2024   0.716   2.427   1.708
  674SOL    HW1 2025   0.735   2.492   1.782
  674SOL    HW2 2026   0.776   2.347   1.717
  675SOL     OW 2027   1.450   3.082   1.633
  675SOL    HW1 2028   1.441   3.072   1.732
  675SOL    HW2 2029   1.546   3.075   1.607
  676SOL     OW 2030   0.390   3.603   1.560
  676SOL    HW1 2031   0.299   3.644   1.558
  676SOL    HW2 2032   0.383   3.509   1.592
  677SOL     OW 2033   1.674   2.745   1.254
  677SOL    HW1 2034   1.647   2.656   1.217
  677SOL    HW2 2035   1.675   2.813   1.181
  678SOL     OW 2036   1.225   2.187   0.449
  678SOL    HW1 2037   1.290   2.113   0.438
  678SOL    HW2 2038   1.245   2.237   0.533
  679SOL     OW 2039   0.594   2.607   0.652
  679SOL    HW1 2040   0.644   2.692   0.633
  679SOL    HW2 2041   0.506   2.609   0.604
  680SOL     OW 2042   1.777   2.204   1.642
  680SOL    HW1 2043   1.760   2.235   1.548
  680SOL    HW2 2044   1.693   2.167   1.680
  681SOL     OW 2045   1.730   2.796   1.517
  681SOL    HW1 2046   1.768   2.887   1.532
  681SOL    HW2 2047   1.722   2.779   1.418
  682SOL     OW 2048   0.859   3.236   0.016
  682SOL    HW1 2049   0.813   3.251   0.104
  682SOL    HW2 2050   0.903   3.321  -0.014
  683SOL     OW 2051   0.661   3.652   0.953
  683SOL    HW1 2052   0.615   3.740   0.940
  683SOL    HW2 2053   0.760   3.664   0.946
  684SOL     OW 2054   0.859   2.818   0.861
  684SOL    HW1 2055   0.913   2.749   0.909
  684SOL    HW2 2056   0.827   2.887   0.927
  685SOL     OW 2057   1.083   2.846   0.087
  685SOL    HW1 2058   1.060   2.899   0.005
  685SOL    HW2 2059   1.164   2.790   0.068
  686SOL     OW 2060   1.861   3.431   0.851
  686SOL    HW1 2061   1.790   3.419   0.781
  686SOL    HW2 2062   1.862   3.352   0.911
  687SOL     OW 2063   0.221   3.176   1.844
  687SOL    HW1 2064   0.156   3.103   1.823
  687SOL    HW2 2065   0.225   3.190   1.942
  688SOL     OW 2066   0.079   3.102   0.653
  688SOL    HW1 2067   0.078   3.055   0.741
  688SOL    HW2 2068   0.161   3.074   0.602
  689SOL     OW 2069   0.672   3.253   1.624
  689SOL    HW1 2070   0.594   3.203   1.662
  689SOL    HW2 2071   0.669   3.348   1.655
  690SOL     OW 2072   1.824   2.054   1.227
  690SOL    HW1 2073   1.820   1.964   1.271
  690SOL    HW2 2074   1.827   2.043   1.128
  691SOL     OW 2075   0.428   2.286   0.520
  691SOL    HW1 2076   0.458   2.214   0.458
  691SOL    HW2 2077   0.389   2.246   0.603
  692SOL     OW 2078   1.705   3.349   1.104
  692SOL    HW1 2079   1.612   3.324   1.077
  692SOL    HW2 2080   1.731   3.299   1.186
  693SOL     OW 2081   0.317   2.409   1.280
  693SOL    HW1 2082   0.355   2.350   1.352
  693SOL    HW2 2083   0.357   2.383   1.192
  694SOL     OW 2084   0.812   3.448   0.687
  694SOL    HW1 2085   0.844   3.458   0.593
  694SOL    HW2 2086   0.733   3.386   0.689
  695SOL     OW 2087   1.424   2.076   1.112
  695SOL    HW1 2088   1.476   2.011   1.167
  695SOL    HW2 2089   1.375   2.139   1.173
  696SOL     OW 2090   1.001   1.896   1.154
  696SOL    HW1 2091   0.938   1.824   1.123
  696SOL    HW2 2092   1.094   1.860   1.154
  697SOL     OW 2093   0.770   3.192   0.301
  697SOL    HW1 2094   0.724   3.105   0.318
  697SOL    HW2 2095   0.861   3.189   0.342
  698SOL     OW 2096   0.618   3.429   1.284
  698SOL    HW1 2097   0.613   3.511   1.341
  698SOL    HW2 2098   0.707   3.426   1.239
  699SOL     OW 2099   1.300   2.315   0.691
  699SOL    HW1 2100   1.241   2.395   0.695
  699SOL    HW2 2101   1.315   2.280   0.784
  700SOL     OW 2102   1.593   2.083   0.882
  700SOL    HW1 2103   1.509   2.082   0.936
  700SOL    HW2 2104   1.595   2.166   0.826
  701SOL     OW 2105   0.039   2.939   0.300
  701SOL    HW1 2106   0.138   2.928   0.291
  701SOL    HW2 2107  -0.001   2.853   0.332
  702SOL     OW 2108   0.875   3.508   0.337
  702SOL    HW1 2109   0.798   3.473   0.283
  702SOL    HW2 2110   0.843   3.579   0.399
  703SOL     OW 2111   0.230   2.490   1.975
  703SOL    HW1 2112   0.137   2.488   2.012
  703SOL    HW2 2113   0.231   2.451   1.883
  704SOL     OW 2114   0.225   2.137   2.858
  704SOL    HW1 2115   0.260   2.120   2.950
  704SOL    HW2 2116   0.137   2.092   2.846
  705SOL     OW 2117   0.019   2.230   2.509
  705SOL    HW1 2118  -0.063   2.273   2.548
  705SOL    HW2 2119  -0.009   2.157   2.446
  706SOL     OW 2120   0.569   3.137   3.027
  706SOL    HW1 2121   0.476   3.130   2.990
  706SOL    HW2 2122   0.580   3.226   3.071
  707SOL     OW 2123   1.555   3.373   2.565
  707SOL    HW1 2124   1.498   3.357   2.646
  707SOL    HW2 2125   1.496   3.383   2.485
  708SOL     OW 2126   1.135   2.565   2.579
  708SOL    HW1 2127   1.192   2.643   2.554
  708SOL    HW2 2128   1.075   2.591   2.655
  709SOL     OW 2129   1.755   2.469   2.093
  709SOL    HW1 2130   1.743   2.456   1.994
  709SOL    HW2 2131   1.725   2.388   2.142
  710SOL     OW 2132   0.768   3.006   2.885
  710SOL    HW1 2133   0.690   3.023   2.945
  710SOL    HW2 2134   0.802   3.093   2.849
  711SOL     OW 2135   0.850   2.660   3.685
  711SOL    HW1 2136   0.846   2.736   3.750
  711SOL    HW2 2137   0.872   2.696   3.594
  712SOL     OW 2138   0.685   2.874   2.527
  712SOL    HW1 2139   0.754   2.858   2.597
  712SOL    HW2 2140   0.612   2.931   2.565
  713SOL     OW 2141   0.686   3.023   3.665
  713SOL    HW1 2142   0.746   3.102   3.679
  713SOL    HW2 2143   0.600   3.054   3.624
  714SOL     OW 2144   0.335   3.297   2.923
  714SOL    HW1 2145   0.257   3.266   2.870
  714SOL    HW2 2146   0.393   3.355   2.866
  715SOL     OW 2147   1.460   3.367   3.201
  715SOL    HW1 2148   1.484   3.461   3.227
  715SOL    HW2 2149   1.444   3.313   3.283
  716SOL     OW 2150   0.438   2.254   3.361
  716SOL    HW1 2151   0.520   2.198   3.370
  716SOL    HW2 2152   0.357   2.196   3.365
  717SOL     OW 2153   1.603   2.309   2.599
  717SOL    HW1 2154   1.529   2.355   2.549
  717SOL    HW2 2155   1.654   2.377   2.652
  718SOL     OW 2156   0.231   3.575   2.345
  718SOL    HW1 2157   0.265   3.652   2.399
  718SOL    HW2 2158   0.275   3.575   2.255
  719SOL     OW 2159   1.127   3.203   3.552
  719SOL    HW1 2160   1.174   3.203   3.640
  719SOL    HW2 2161   1.079   3.116   3.541
  720SOL     OW 2162   0.230   3.296   2.400
  720SOL    HW1 2163   0.204   3.392   2.400
  720SOL    HW2 2164   0.159   3.242   2.445
  721SOL     OW 2165   0.240   2.953   2.748
  721SOL    HW1 2166   0.254   2.869   2.800
  721SOL    HW2 2167   0.185   3.017   2.803
  722SOL     OW 2168   0.620   3.648   3.301
  722SOL    HW1 2169   0.528   3.631   3.336
  722SOL    HW2 2170   0.648   3.740   3.327
  723SOL     OW 2171   0.606   2.826   1.985
  723SOL    HW1 2172   0.613   2.910   1.931
  723SOL    HW2 2173   0.652   2.839   2.073
  724SOL     OW 2174   1.594   1.976   3.342
  724SOL    HW1 2175   1.576   2.043   3.270
  724SOL    HW2 2176   1.591   2.022   3.431
  725SOL     OW 2177   0.122   2.505   2.425
  725SOL    HW1 2178   0.077   2.417   2.442
  725SOL    HW2 2179   0.121   2.559   2.509
  726SOL     OW 2180   1.842   3.629   2.221
  726SOL    HW1 2181   1.896   3.600   2.301
  726SOL    HW2 2182   1.872   3.719   2.192
  727SOL     OW 2183   0.027   3.458   1.979
  727SOL    HW1 2184   0.008   3.362   2.000
  727SOL    HW2 2185  -0.006   3.516   2.054
  728SOL     OW 2186   1.689   2.784   2.474
  728SOL    HW1 2187   1.784   2.755   2.482
  728SOL    HW2 2188   1.681   2.849   2.399
  729SOL     OW 2189   1.641   2.970   2.294
  729SOL    HW1 2190   1.727   2.972   2.242
  729SOL    HW2 2191   1.655   3.017   2.382
  730SOL     OW 2192   0.113   2.599   3.459
  730SOL    HW1 2193   0.201   2.586   3.504
  730SOL    HW2 2194   0.100   2.696   3.437
  731SOL     OW 2195   0.613   3.227   2.588
  731SOL    HW1 2196   0.564   3.140   2.597
  731SOL    HW2 2197   0.590   3.270   2.501
  732SOL     OW 2198   1.293   3.090   3.285
  732SOL    HW1 2199   1.330   3.017   3.227
  732SOL    HW2 2200   1.345   3.095   3.370
  733SOL     OW 2201   0.809   1.866   2.364
  733SOL    HW1 2202   0.849   1.957   2.355
  733SOL    HW2 2203   0.709   1.874   2.370
  734SOL     OW 2204   0.197   2.838   3.126
  734SOL    HW1 2205   0.286   2.793   3.112
  734SOL    HW2 2206   0.124   2.773   3.107
  735SOL     OW 2207   1.525   2.861   2.052
  735SOL    HW1 2208   1.462   2.785   2.065
  735SOL    HW2 2209   1.573   2.879   2.138
  736SOL     OW 2210   1.187   3.654   3.478
  736SOL    HW1 2211   1.211   3.714   3.402
  736SOL    HW2 2212   1.194   3.559   3.448
  737SOL     OW 2213   0.317   2.113   3.663
  737SOL    HW1 2214   0.388   2.184   3.669
  737SOL    HW2 2215   0.229   2.152   3.691
  738SOL     OW 2216   1.466   3.279   2.815
  738SOL    HW1 2217   1.407   3.285   2.895
  738SOL    HW2 2218   1.451   3.191   2.769
  739SOL     OW 2219   1.667   3.576   2.434
  739SOL    HW1 2220   1.626   3.553   2.346
  739SOL    HW2 2221   1.649   3.502   2.499
  740SOL     OW 2222   0.598   2.591   2.132
  740SOL    HW1 2223   0.622   2.660   2.064
  740SOL    HW2 2224   0.520   2.624   2.186
  741SOL     OW 2225   1.281   2.207   2.806
  741SOL    HW1 2226   1.195   2.157   2.793
  741SOL    HW2 2227   1.343   2.153   2.862
  742SOL     OW 2228   1.576   3.524   2.169
  742SOL    HW1 2229   1.665   3.570   2.172
  742SOL    HW2 2230   1.555   3.500   2.074
  743SOL     OW 2231   0.807   2.467   3.327
  743SOL    HW1 2232   0.760   2.464   3.416
  743SOL    HW2 2233   0.756   2.412   3.261
  744SOL     OW 2234   1.394   2.331   3.536
  744SOL    HW1 2235   1.374   2.374   3.624
  744SOL    HW2 2236   1.472   2.269   3.545
  745SOL     OW 2237   0.973   2.752   3.434
  745SOL    HW1 2238   1.019   2.668   3.405
  745SOL    HW2 2239   0.917   2.786   3.359
  746SOL     OW 2240   0.991   2.272   3.104
  746SOL    HW1 2241   0.914   2.306   3.158
  746SOL    HW2 2242   0.957   2.221   3.025
  747SOL     OW 2243   1.041   2.563   2.291
  747SOL    HW1 2244   1.067   2.559   2.387
  747SOL    HW2 2245   0.956   2.512   2.277
  748SOL     OW 2246   0.076   2.673   2.651
  748SOL    HW1 2247   0.175   2.661   2.660
  748SOL    HW2 2248   0.052   2.768   2.672
  749SOL     OW 2249   0.130   3.683   3.433
  749SOL    HW1 2250   0.120   3.668   3.532
  749SOL    HW2 2251   0.044   3.719   3.397
  750SOL     OW 2252   0.865   2.210   2.057
  750SOL    HW1 2253   0.924   2.273   2.008
  750SOL    HW2 2254   0.884   2.116   2.028
  751SOL     OW 2255   1.719   2.447   3.693
  751SOL    HW1 2256   1.693   2.536   3.657
  751SOL    HW2 2257   1.717   2.379   3.620
  752SOL     OW 2258   1.362   3.006   2.407
  752SOL    HW1 2259   1.445   2.977   2.359
  752SOL    HW2 2260   1.313   3.073   2.351
  753SOL     OW 2261   0.550   2.058   2.747
  753SOL    HW1 2262   0.545   2.053   2.847
  753SOL    HW2 2263   0.552   2.154   2.718
  754SOL     OW 2264   1.008   3.318   2.339
  754SOL    HW1 2265   0.962   3.390   2.287
  754SOL    HW2 2266   1.004   3.338   2.437
  755SOL     OW 2267   0.351   3.663   2.715
  755SOL    HW1 2268   0.401   3.577   2.721
  755SOL    HW2 2269   0.416   3.740   2.712
  756SOL     OW 2270   1.795   2.928   2.735
  756SOL    HW1 2271   1.733   2.913   2.659
  756SOL    HW2 2272   1.743   2.939   2.820
  757SOL     OW 2273   1.227   3.412   3.368
  757SOL    HW1 2274   1.233   3.335   3.432
  757SOL    HW2 2275   1.175   3.386   3.288
  758SOL     OW 2276   0.321   2.805   2.104
  758SOL    HW1 2277   0.403   2.844   2.062
  758SOL    HW2 2278   0.294   2.723   2.055
  759SOL     OW 2279   1.458   2.597   2.590
  759SOL    HW1 2280   1.453   2.532   2.665
  759SOL    HW2 2281   1.538   2.656   2.603
  760SOL     OW 2282   0.461   3.128   3.589
  760SOL    HW1 2283   0.411   3.129   3.503
  760SOL    HW2 2284   0.398   3.110   3.665
  761SOL     OW 2285   1.111   3.638   2.099
  761SOL    HW1 2286   1.051   3.576   2.149
  761SOL    HW2 2287   1.142   3.594   2.014
  762SOL     OW 2288   0.202   2.147   3.360
  762SOL    HW1 2289   0.122   2.207   3.347
  762SOL    HW2 2290   0.192   2.098   3.446
  763SOL     OW 2291   1.632   3.239   1.943
  763SOL    HW1 2292   1.600   3.333   1.933
  763SOL    HW2 2293   1.556   3.176   1.931
  764SOL     OW 2294   0.464   3.605   2.185
  764SOL    HW1 2295   0.497   3.644   2.271
  764SOL    HW2 2296   0.540   3.598   2.120
  765SOL     OW 2297   1.400   1.969   2.288
  765SOL    HW1 2298   1.376   1.932   2.198
  765SOL    HW2 2299   1.499   1.985   2.292
  766SOL     OW 2300   0.249   3.647   3.103
  766SOL    HW1 2301   0.306   3.582   3.153
  766SOL    HW2 2302   0.233   3.614   3.010
  767SOL     OW 2303   0.940   3.560   2.766
  767SOL    HW1 2304   1.020   3.503   2.787
  767SOL    HW2 2305   0.891   3.520   2.689
  768SOL     OW 2306   0.382   2.562   2.342
  768SOL    HW1 2307   0.427   2.472   2.339
  768SOL    HW2 2308   0.288   2.551   2.375
  769SOL     OW 2309   1.547   2.084   3.591
  769SOL    HW1 2310   1.542   2.121   3.683
  769SOL    HW2 2311   1.475   2.015   3.579
  770SOL     OW 2312   0.614   1.984   1.979
  770SOL    HW1 2313   0.712   1.962   1.986
  770SOL    HW2 2314   0.583   1.967   1.886
  771SOL     OW 2315   0.781   2.126   3.611
  771SOL    HW1 2316   0.848   2.065   3.654
  771SOL    HW2 2317   0.708   2.145   3.676
  772SOL     OW 2318   0.888   3.376   3.057
  772SOL    HW1 2319   0.865   3.351   2.963
  772SOL    HW2 2320   0.949   3.307   3.096
  773SOL     OW 2321   1.351   2.452   3.295
  773SOL    HW1 2322   1.379   2.409   3.380
  773SOL    HW2 2323   1.376   2.548   3.296
  774SOL     OW 2324   0.803   3.264   2.786
  774SOL    HW1 2325   0.893   3.278   2.744
  774SOL    HW2 2326   0.732   3.266   2.715
  775SOL     OW 2327   0.922   2.365   2.761
  775SOL    HW1 2328   0.897   2.356   2.665
  775SOL    HW2 2329   0.970   2.283   2.792
  776SOL     OW 2330   0.539   1.926   2.374
  776SOL    HW1 2331   0.458   1.927   2.432
  776SOL    HW2 2332   0.542   2.009   2.319
  777SOL     OW 2333   1.434   3.050   1.903
  777SOL    HW1 2334   1.466   2.974   1.960
  777SOL    HW2 2335   1.342   3.077   1.933
  778SOL     OW 2336   0.297   1.897   2.033
  778SOL    HW1 2337   0.346   1.981   2.012
  778SOL    HW2 2338   0.359   1.832   2.078
  779SOL     OW 2339   0.935   2.098   2.342
  779SOL    HW1 2340   0.887   2.139   2.264
  779SOL    HW2 2341   1.034   2.096   2.323
  780SOL     OW 2342   1.076   2.545   3.326
  780SOL    HW1 2343   0.996   2.484   3.329
  780SOL    HW2 2344   1.157   2.492   3.302
  781SOL     OW 2345   1.227   3.432   2.655
  781SOL    HW1 2346   1.248   3.506   2.590
  781SOL    HW2 2347   1.295   3.432   2.728
  782SOL     OW 2348   0.459   3.014   2.603
  782SOL    HW1 2349   0.388   2.987   2.668
  782SOL    HW2 2350   0.433   2.986   2.510
  783SOL     OW 2351   1.271   3.659   2.453
  783SOL    HW1 2352   1.315   3.723   2.389
  783SOL    HW2 2353   1.221   3.711   2.523
  784SOL     OW 2354   1.032   2.411   1.878
  784SOL    HW1 2355   0.991   2.493   1.839
  784SOL    HW2 2356   1.096   2.437   1.951
  785SOL     OW 2357   0.078   2.418   3.248
  785SOL    HW1 2358   0.170   2.417   3.207
  785SOL    HW2 2359   0.072   2.492   3.315
  786SOL     OW 2360   0.561   2.084   3.009
  786SOL    HW1 2361   0.599   2.000   3.046
  786SOL    HW2 2362   0.473   2.103   3.053
  787SOL     OW 2363   0.866   2.316   2.504
  787SOL    HW1 2364   0.834   2.388   2.442
  787SOL    HW2 2365   0.890   2.235   2.451
  788SOL     OW 2366   1.017   1.901   2.615
  788SOL    HW1 2367   0.945   1.906   2.546
  788SOL    HW2 2368   0.993   1.832   2.684
  789SOL     OW 2369   1.429   3.035   2.729
  789SOL    HW1 2370   1.374   2.951   2.722
  789SOL    HW2 2371   1.455   3.064   2.637
  790SOL     OW 2372   1.466   2.452   2.854
  790SOL    HW1 2373   1.436   2.357   2.861
  790SOL    HW2 2374   1.539   2.468   2.920
  791SOL     OW 2375   1.857   2.695   2.239
  791SOL    HW1 2376   1.899   2.631   2.303
  791SOL    HW2 2377   1.819   2.644   2.161
  792SOL     OW 2378   0.488   3.247   2.036
  792SOL    HW1 2379   0.401   3.232   2.083
  792SOL    HW2 2380   0.471   3.273   1.941
  793SOL     OW 2381   1.664   3.142   2.519
  793SOL    HW1 2382   1.763   3.150   2.533
  793SOL    HW2 2383   1.619   3.226   2.550
  794SOL     OW 2384   1.390   2.437   1.940
  794SOL    HW1 2385   1.336   2.416   2.021
  794SOL    HW2 2386   1.481   2.396   1.949
  795SOL     OW 2387   0.527   2.118   2.190
  795SOL    HW1 2388   0.554   2.059   2.115
  795SOL    HW2 2389   0.527   2.213   2.159
  796SOL     OW 2390   1.754   3.085   3.450
  796SOL    HW1 2391   1.845   3.046   3.437
  796SOL    HW2 2392   1.762   3.181   3.474
  797SOL     OW 2393   1.064   3.209   3.202
  797SOL    HW1 2394   0.984   3.186   3.257
  797SOL    HW2 2395   1.147   3.183   3.251
  798SOL     OW 2396   1.592   3.491   3.487
  798SOL    HW1 2397   1.619   3.525   3.397
  798SOL    HW2 2398   1.671   3.453   3.533
  799SOL     OW 2399   1.111   3.057   2.962
  799SOL    HW1 2400   1.071   3.101   3.043
  799SOL    HW2 2401   1.070   3.094   2.879
  800SOL     OW 2402   1.638   2.961   2.941
  800SOL    HW1 2403   1.643   3.042   3.000
  800SOL    HW2 2404   1.552   2.963   2.890
  801SOL     OW 2405   0.915   1.951   3.264
  801SOL    HW1 2406   0.940   1.931   3.169
  801SOL    HW2 2407   0.987   2.007   3.306
  802SOL     OW 2408   0.980   2.978   3.581
  802SOL    HW1 2409   0.881   2.984   3.591
  802SOL    HW2 2410   1.003   2.898   3.525
  803SOL     OW 2411   0.705   2.912   2.230
  803SOL    HW1 2412   0.691   2.919   2.329
  803SOL    HW2 2413   0.789   2.861   2.212
  804SOL     OW 2414   0.410   2.675   3.113
  804SOL    HW1 2415   0.496   2.687   3.163
  804SOL    HW2 2416   0.368   2.588   3.140
  805SOL     OW 2417   1.274   2.248   3.124
  805SOL    HW1 2418   1.295   2.322   3.188
  805SOL    HW2 2419   1.185   2.265   3.081
  806SOL     OW 2420   0.064   3.426   3.193
  806SOL    HW1 2421   0.018   3.508   3.159
  806SOL    HW2 2422   0.162   3.445   3.202
  807SOL     OW 2423   0.367   2.962   2.363
  807SOL    HW1 2424   0.360   3.045   2.307
  807SOL    HW2 2425   0.371   2.882   2.303
  808SOL     OW 2426   0.566   2.399   2.727
  808SOL    HW1 2427   0.578   2.465   2.653
  808SOL    HW2 2428   0.612   2.433   2.810
  809SOL     OW 2429   1.252   3.210   2.250
  809SOL    HW1 2430   1.302   3.287   2.290
  809SOL    HW2 2431   1.157   3.212   2.282
  810SOL     OW 2432   1.272   3.307   3.004
  810SOL    HW1 2433   1.319   3.320   3.091
  810SOL    HW2 2434   1.206   3.233   3.013
  811SOL     OW 2435   1.582   2.501   2.334
  811SOL    HW1 2436   1.551   2.562   2.407
  811SOL    HW2 2437   1.632   2.553   2.265
  812SOL     OW 2438   0.354   3.372   3.191
  812SOL    HW1 2439   0.333   3.328   3.104
  812SOL    HW2 2440   0.451   3.398   3.194
  813SOL     OW 2441   0.402   2.613   3.460
  813SOL    HW1 2442   0.470   2.668   3.413
  813SOL    HW2 2443   0.442   2.525   3.487
  814SOL     OW 2444   1.587   2.641   3.532
  814SOL    HW1 2445   1.495   2.679   3.527
  814SOL    HW2 2446   1.647   2.688   3.467
  815SOL     OW 2447   1.013   1.967   3.632
  815SOL    HW1 2448   1.019   2.052   3.580
  815SOL    HW2 2449   1.045   1.891   3.575
  816SOL     OW 2450   0.504   1.912   3.602
  816SOL    HW1 2451   0.462   1.855   3.532
  816SOL    HW2 2452   0.438   1.981   3.634
  817SOL     OW 2453   0.573   2.732   2.891
  817SOL    HW1 2454   0.617   2.821   2.882
  817SOL    HW2 2455   0.510   2.732   2.968
  818SOL     OW 2456   1.360   2.724   2.907
  818SOL    HW1 2457   1.285   2.724   2.841
  818SOL    HW2 2458   1.397   2.632   2.916
  819SOL     OW 2459   1.209   2.387   2.137
  819SOL    HW1 2460   1.222   2.303   2.191
  819SOL    HW2 2461   1.180   2.461   2.197
  820SOL     OW 2462   0.307   2.075   3.093
  820SOL    HW1 2463   0.284   2.112   3.183
  820SOL    HW2 2464   0.277   1.980   3.087
  821SOL     OW 2465   0.037   3.172   3.144
  821SOL    HW1 2466   0.090   3.123   3.212
  821SOL    HW2 2467   0.059   3.270   3.149
  822SOL     OW 2468   0.732   2.496   2.926
  822SOL    HW1 2469   0.791   2.470   2.850
  822SOL    HW2 2470   0.704   2.592   2.915
  823SOL     OW 2471   1.728   2.797   3.716
  823SOL    HW1 2472   1.682   2.790   3.627
  823SOL    HW2 2473   1.666   2.841   3.782
  824SOL     OW 2474   0.307   1.925   2.480
  824SOL    HW1 2475   0.296   2.019   2.513
  824SOL    HW2 2476   0.302   1.862   2.557
  825SOL     OW 2477   1.622   2.229   2.236
  825SOL    HW1 2478   1.624   2.153   2.300
  825SOL    HW2 2479   1.574   2.306   2.276
  826SOL     OW 2480   1.023   2.628   2.828
  826SOL    HW1 2481   1.038   2.649   2.924
  826SOL    HW2 2482   0.993   2.533   2.819
  827SOL     OW 2483   0.980   3.435   3.562
  827SOL    HW1 2484   0.960   3.479   3.474
  827SOL    HW2 2485   1.019   3.344   3.546
  828SOL     OW 2486   1.859   3.380   3.467
  828SOL    HW1 2487   1.873   3.407   3.372
  828SOL    HW2 2488   1.942   3.402   3.520
  829SOL     OW 2489   0.350   2.760   3.666
  829SOL    HW1 2490   0.426   2.804   3.714
  829SOL    HW2 2491   0.385   2.713   3.584
  830SOL     OW 2492   1.540   2.136   1.987
  830SOL    HW1 2493   1.479   2.061   2.010
  830SOL    HW2 2494   1.562   2.188   2.070
  831SOL     OW 2495   1.303   2.700   1.904
  831SOL    HW1 2496   1.337   2.607   1.919
  831SOL    HW2 2497   1.321   2.727   1.809
  832SOL     OW 2498   1.068   3.195   2.711
  832SOL    HW1 2499   1.075   3.111   2.656
  832SOL    HW2 2500   1.130   3.264   2.675
  833SOL     OW 2501   0.319   2.672   2.811
  833SOL    HW1 2502   0.412   2.708   2.816
  833SOL    HW2 2503   0.313   2.587   2.863
  834SOL     OW 2504   0.339   2.371   2.868
  834SOL    HW1 2505   0.287   2.288   2.851
  834SOL    HW2 2506   0.416   2.376   2.804
  835SOL     OW 2507   1.138   2.242   3.540
  835SOL    HW1 2508   1.093   2.305   3.604
  835SOL    HW2 2509   1.231   2.273   3.523
  836SOL     OW 2510   1.160   2.069   3.339
  836SOL    HW1 2511   1.160   2.133   3.416
  836SOL    HW2 2512   1.188   2.117   3.256
  837SOL     OW 2513   0.008   3.188   2.062
  837SOL    HW1 2514  -0.085   3.209   2.031
  837SOL    HW2 2515   0.018   3.089   2.075
  838SOL     OW 2516   0.088   3.663   2.789
  838SOL    HW1 2517   0.046   3.577   2.762
  838SOL    HW2 2518   0.182   3.666   2.755
  839SOL     OW 2519   0.504   3.430   2.772
  839SOL    HW1 2520   0.570   3.504   2.781
  839SOL    HW2 2521   0.548   3.351   2.730
  840SOL     OW 2522   1.002   2.658   3.100
  840SOL    HW1 2523   1.043   2.626   3.186
  840SOL    HW2 2524   0.906   2.631   3.097
  841SOL     OW 2525   0.040   2.406   2.976
  841SOL    HW1 2526   0.125   2.373   2.935
  841SOL    HW2 2527   0.053   2.421   3.074
  842SOL     OW 2528   0.189   2.382   3.584
  842SOL    HW1 2529   0.248   2.342   3.514
  842SOL    HW2 2530   0.131   2.453   3.543
  843SOL     OW 2531   1.369   2.812   3.522
  843SOL    HW1 2532   1.408   2.901   3.542
  843SOL    HW2 2533   1.379   2.792   3.425
  844SOL     OW 2534   0.815   2.434   2.187
  844SOL    HW1 2535   0.822   2.345   2.141
  844SOL    HW2 2536   0.721   2.468   2.179
  845SOL     OW 2537   1.657   2.466   3.068
  845SOL    HW1 2538   1.619   2.397   3.130
  845SOL    HW2 2539   1.739   2.430   3.024
  846SOL     OW 2540   0.252   3.426   3.606
  846SOL    HW1 2541   0.222   3.483   3.682
  846SOL    HW2 2542   0.245   3.329   3.632
  847SOL     OW 2543   0.671   2.326   3.131
  847SOL    HW1 2544   0.637   2.237   3.101
  847SOL    HW2 2545   0.697   2.380   3.051
  848SOL     OW 2546   0.930   3.540   3.327
  848SOL    HW1 2547   0.906   3.522   3.232
  848SOL    HW2 2548   0.960   3.634   3.337
  849SOL     OW 2549   0.473   2.362   2.053
  849SOL    HW1 2550   0.534   2.442   2.057
  849SOL    HW2 2551   0.378   2.393   2.060
  850SOL     OW 2552   0.159   2.999   3.328
  850SOL    HW1 2553   0.181   2.938   3.404
  850SOL    HW2 2554   0.169   2.950   3.242
  851SOL     OW 2555   1.347   2.921   3.096
  851SOL    HW1 2556   1.371   2.858   3.022
  851SOL    HW2 2557   1.257   2.961   3.078
  852SOL     OW 2558   1.302   2.717   2.171
  852SOL    HW1 2559   1.216   2.686   2.213
  852SOL    HW2 2560   1.298   2.703   2.072
  853SOL     OW 2561   1.759   3.609   3.016
  853SOL    HW1 2562   1.820   3.639   2.943
  853SOL    HW2 2563   1.721   3.520   2.994
  854SOL     OW 2564   1.252   3.593   2.990
  854SOL    HW1 2565   1.336   3.598   2.936
  854SOL    HW2 2566   1.229   3.497   3.008
  855SOL     OW 2567   0.083   3.120   2.884
  855SOL    HW1 2568   0.078   3.119   2.984
  855SOL    HW2 2569   0.000   3.079   2.846
  856SOL     OW 2570   0.688   3.524   3.578
  856SOL    HW1 2571   0.632   3.605   3.587
  856SOL    HW2 2572   0.740   3.528   3.492
  857SOL     OW 2573   1.726   1.997   2.385
  857SOL    HW1 2574   1.799   1.980   2.318
  857SOL    HW2 2575   1.695   1.910   2.423
  858SOL     OW 2576   1.388   3.435   2.339
  858SOL    HW1 2577   1.455   3.447   2.265
  858SOL    HW2 2578   1.348   3.524   2.362
  859SOL     OW 2579   0.130   3.656   3.713
  859SOL    HW1 2580   0.089   3.582   3.766
  859SOL    HW2 2581   0.194   3.707   3.771
  860SOL     OW 2582   1.280   2.789   2.534
  860SOL    HW1 2583   1.340   2.708   2.536
  860SOL    HW2 2584   1.320   2.858   2.474
  861SOL     OW 2585   0.830   3.135   3.284
  861SOL    HW1 2586   0.825   3.168   3.379
  861SOL    HW2 2587   0.744   3.154   3.238
  862SOL     OW 2588   0.672   3.478   2.016
  862SOL    HW1 2589   0.681   3.488   1.917
  862SOL    HW2 2590   0.632   3.389   2.037
  863SOL     OW 2591   1.650   3.582   3.256
  863SOL    HW1 2592   1.703   3.592   3.172
  863SOL    HW2 2593   1.623   3.672   3.290
  864SOL     OW 2594   1.841   2.037   2.825
  864SOL    HW1 2595   1.880   1.952   2.789
  864SOL    HW2 2596   1.743   2.039   2.806
  865SOL     OW 2597   0.263   2.188   2.582
  865SOL    HW1 2598   0.184   2.239   2.548
  865SOL    HW2 2599   0.254   2.173   2.680
  866SOL     OW 2600   1.194   3.474   1.893
  866SOL    HW1 2601   1.200   3.381   1.930
  866SOL    HW2 2602   1.135   3.474   1.813
  867SOL     OW 2603   0.822   2.864   3.234
  867SOL    HW1 2604   0.862   2.863   3.142
  867SOL    HW2 2605   0.832   2.956   3.274
  868SOL     OW 2606   0.916   2.772   2.153
  868SOL    HW1 2607   0.979   2.810   2.085
  868SOL    HW2 2608   0.956   2.689   2.192
  869SOL     OW 2609   1.504   3.469   1.906
  869SOL    HW1 2610   1.412   3.506   1.913
  869SOL    HW2 2611   1.542   3.489   1.816
  870SOL     OW 2612   0.372   3.150   3.352
  870SOL    HW1 2613   0.359   3.243   3.318
  870SOL    HW2 2614   0.288   3.098   3.339
  871SOL     OW 2615   1.614   3.154   3.151
  871SOL    HW1 2616   1.674   3.157   3.231
  871SOL    HW2 2617   1.539   3.218   3.164
  872SOL     OW 2618   1.039   2.960   2.558
  872SOL    HW1 2619   0.969   2.913   2.612
  872SOL    HW2 2620   1.098   2.892   2.515
  873SOL     OW 2621   1.014   2.098   2.833
  873SOL    HW1 2622   1.006   2.062   2.740
  873SOL    HW2 2623   1.012   2.022   2.898
  874SOL     OW 2624   0.590   3.349   2.353
  874SOL    HW1 2625   0.632   3.291   2.283
  874SOL    HW2 2626   0.546   3.428   2.309
  875SOL     OW 2627   1.709   2.247   3.243
  875SOL    HW1 2628   1.782   2.316   3.247
  875SOL    HW2 2629   1.737   2.172   3.184
  876SOL     OW 2630   0.255   3.210   2.152
  876SOL    HW1 2631   0.159   3.211   2.125
  876SOL    HW2 2632   0.267   3.263   2.236
  877SOL     OW 2633   0.105   2.875   3.588
  877SOL    HW1 2634   0.028   2.842   3.642
  877SOL    HW2 2635   0.190   2.845   3.630
  878SOL     OW 2636   0.672   2.065   3.351
  878SOL    HW1 2637   0.762   2.049   3.311
  878SOL    HW2 2638   0.680   2.070   3.450
  879SOL     OW 2639   0.075   2.207   1.895
  879SOL    HW1 2640  -0.017   2.179   1.866
  879SOL    HW2 2641   0.106   2.284   1.839
  880SOL     OW 2642   1.440   2.718   3.260
  880SOL    HW1 2643   1.383   2.770   3.197
  880SOL    HW2 2644   1.536   2.730   3.236
  881SOL     OW 2645   0.072   2.028   2.180
  881SOL    HW1 2646   0.055   2.111   2.126
  881SOL    HW2 2647   0.162   1.991   2.158
  882SOL     OW 2648   1.183   3.197   1.981
  882SOL    HW1 2649   1.084   3.186   1.983
  882SOL    HW2 2650   1.217   3.212   2.074
  883SOL     OW 2651   0.613   2.704   3.293
  883SOL    HW1 2652   0.669   2.785   3.276
  883SOL    HW2 2653   0.672   2.624   3.296
  884SOL     OW 2654   1.493   3.629   2.821
  884SOL    HW1 2655   1.526   3.693   2.752
  884SOL    HW2 2656   1.559   3.623   2.896
  885SOL     OW 2657   0.716   2.427   3.570
  885SOL    HW1 2658   0.735   2.492   3.644
  885SOL    HW2 2659   0.776   2.347   3.579
  886SOL     OW 2660   1.450   3.082   3.495
  886SOL    HW1 2661   1.441   3.072   3.594
  886SOL    HW2 2662   1.546   3.075   3.469
  887SOL     OW 2663   0.390   3.603   3.422
  887SOL    HW1 2664   0.299   3.644   3.420
  887SOL    HW2 2665   0.383   3.509   3.454
  888SOL     OW 2666   1.674   2.745   3.116
  888SOL    HW1 2667   1.647   2.656   3.079
  888SOL    HW2 2668   1.675   2.813   3.043
  889SOL     OW 2669   1.225   2.187   2.311
  889SOL    HW1 2670   1.290   2.113   2.300
  889SOL    HW2 2671   1.245   2.237   2.395
  890SOL     OW 2672   0.594   2.607   2.514
  890SOL    HW1 2673   0.644   2.692   2.495
  890SOL    HW2 2674   0.506   2.609   2.466
  891SOL     OW 2675   1.777   2.204   3.504
  891SOL    HW1 2676   1.760   2.235   3.410
  891SOL    HW2 2677   1.693   2.167   3.542
  892SOL     OW 2678   1.730   2.796   3.379
  892SOL    HW1 2679   1.768   2.887   3.394
  892SOL    HW2 2680   1.722   2.779   3.280
  893SOL     OW 2681   0.859   3.236   1.878
  893SOL    HW1 2682   0.813   3.251   1.966
  893SOL    HW2 2683   0.903   3.321   1.848
  894SOL     OW 2684   0.661   3.652   2.815
  894SOL    HW1 2685   0.615   3.740   2.802
  894SOL    HW2 2686   0.760   3.664   2.808
  895SOL     OW 2687   0.859   2.818   2.723
  895SOL    HW1 2688   0.913   2.749   2.771
  895SOL    HW2 2689   0.827   2.887   2.789
  896SOL     OW 2690   1.083   2.846   1.949
  896SOL    HW1 2691   1.060   2.899   1.867
  896SOL    HW2 2692   1.164   2.790   1.930
  897SOL     OW 2693   1.861   3.431   2.713
  897SOL    HW1 2694   1.790   3.419   2.643
  897SOL    HW2 2695   1.862   3.352   2.773
  898SOL     OW 2696   0.221   3.176   3.706
  898SOL    HW1 2697   0.156   3.103   3.685
  898SOL    HW2 2698   0.225   3.190   3.804
  899SOL     OW 2699   0.079   3.102   2.515
  899SOL    HW1 2700   0.078   3.055   2.603
  899SOL    HW2 2701   0.161   3.074   2.464
  900SOL     OW 2702   0.672   3.253   3.486
  900SOL    HW1 2703   0.594   3.203   3.524
  900SOL    HW2 2704   0.669   3.348   3.517
  901SOL     OW 2705   1.824   2.054   3.089
  901SOL    HW1 2706   1.820   1.964   3.133
  901SOL    HW2 2707   1.827   2.043   2.990
  902SOL     OW 2708   0.428   2.286   2.382
  902SOL    HW1 2709   0.458   2.214   2.320
  902SOL    HW2 2710   0.389   2.246   2.465
  903SOL     OW 2711   1.705   3.349   2.966
  903SOL    HW1 2712   1.612   3.324   2.939
  903SOL    HW2 2713   1.731   3.299   3.048
  904SOL     OW 2714   0.317   2.409   3.142
  904SOL    HW1 2715   0.355   2.350   3.214
  904SOL    HW2 2716   0.357   2.383   3.054
  905SOL     OW 2717   0.812   3.448   2.549
  905SOL    HW1 2718   0.844   3.458   2.455
  905SOL    HW2 2719   0.733   3.386   2.551
  906SOL     OW 2720   1.424   2.076   2.974
  906SOL    HW1 2721   1.476   2.011   3.029
  906SOL    HW2 2722   1.375   2.139   3.035
  907SOL     OW 2723   1.001   1.896   3.016
  907SOL    HW1 2724   0.938   1.824   2.985
  907SOL    HW2 2725   1.094   1.860   3.016
  908SOL     OW 2726   0.770   3.192   2.163
  908SOL    HW1 2727   0.724   3.105   2.180
  908SOL    HW2 2728   0.861   3.189   2.204
  909SOL     OW 2729   0.618   3.429   3.146
  909SOL    HW1 2730   0.613   3.511   3.203
  909SOL    HW2 2731   0.707   3.426   3.101
  910SOL     OW 2732   1.352   1.914   2.030
  910SOL    HW1 2733   1.387   1.873   1.946
  910SOL    HW2 2734   1.262   1.876   2.050
  911SOL     OW 2735   1.300   2.315   2.553
  911SOL    HW1 2736   1.241   2.395   2.557
  911SOL    HW2 2737   1.315   2.280   2.646
  912SOL     OW 2738   1.593   2.083   2.744
  912SOL    HW1 2739   1.509   2.082   2.798
  912SOL    HW2 2740   1.595   2.166   2.688
  913SOL     OW 2741   0.039   2.939   2.162
  913SOL    HW1 2742   0.138   2.928   2.153
  913SOL    HW2 2743  -0.001   2.853   2.194
  914SOL     OW 2744   0.875   3.508   2.199
  914SOL    HW1 2745   0.798   3.473   2.145
  914SOL    HW2 2746   0.843   3.579   2.261
  915SOL     OW 2747   0.230   2.490   3.837
  915SOL    HW1 2748   0.137   2.488   3.874
  915SOL    HW2 2749   0.231   2.451   3.745
  916SOL     OW 2750   1.755   2.469   3.955
  916SOL    HW1 2751   1.743   2.456   3.856
  916SOL    HW2 2752   1.725   2.388   4.004
  917SOL     OW 2753   0.231   3.575   4.207
  917SOL    HW1 2754   0.265   3.652   4.261
  917SOL    HW2 2755   0.275   3.575   4.117
  918SOL     OW 2756   0.230   3.296   4.262
  918SOL    HW1 2757   0.204   3.392   4.262
  918SOL    HW2 2758   0.159   3.242   4.307
  919SOL     OW 2759   0.606   2.826   3.847
  919SOL    HW1 2760   0.613   2.910   3.793
  919SOL    HW2 2761   0.652   2.839   3.935
  920SOL     OW 2762   1.842   3.629   4.083
  920SOL    HW1 2763   1.896   3.600   4.163
  920SOL    HW2 2764   1.872   3.719   4.054
  921SOL     OW 2765   0.027   3.458   3.841
  921SOL    HW1 2766   0.008   3.362   3.862
  921SOL    HW2 2767  -0.006   3.516   3.916
  922SOL     OW 2768   1.689   2.784   4.336
  922SOL    HW1 2769   1.784   2.755   4.344
  922SOL    HW2 2770   1.681   2.849   4.261
  923SOL     OW 2771   1.641   2.970   4.156
  923SOL    HW1 2772   1.727   2.972   4.104
  923SOL    HW2 2773   1.655   3.017   4.244
  924SOL     OW 2774   0.809   1.866   4.226
  924SOL    HW1 2775   0.849   1.957   4.217
  924SOL    HW2 2776   0.709   1.874   4.232
  925SOL     OW 2777   1.525   2.861   3.914
  925SOL    HW1 2778   1.462   2.785   3.927
  925SOL    HW2 2779   1.573   2.879   4.000
  926SOL     OW 2780   0.598   2.591   3.994
  926SOL    HW1 2781   0.622   2.660   3.926
  926SOL    HW2 2782   0.520   2.624   4.048
  927SOL     OW 2783   1.576   3.524   4.031
  927SOL    HW1 2784   1.665   3.570   4.034
  927SOL    HW2 2785   1.555   3.500   3.936
  928SOL     OW 2786   0.865   2.210   3.919
  928SOL    HW1 2787   0.924   2.273   3.870
  928SOL    HW2 2788   0.884   2.116   3.890
  929SOL     OW 2789   0.321   2.805   3.966
  929SOL    HW1 2790   0.403   2.844   3.924
  929SOL    HW2 2791   0.294   2.723   3.917
  930SOL     OW 2792   1.458   2.597   4.452
  930SOL    HW1 2793   1.453   2.532   4.527
  930SOL    HW2 2794   1.538   2.656   4.465
  931SOL     OW 2795   1.111   3.638   3.961
  931SOL    HW1 2796   1.051   3.576   4.011
  931SOL    HW2 2797   1.142   3.594   3.876
  932SOL     OW 2798   1.632   3.239   3.805
  932SOL    HW1 2799   1.600   3.333   3.795
  932SOL    HW2 2800   1.556   3.176   3.793
  933SOL     OW 2801   0.464   3.605   4.047
  933SOL    HW1 2802   0.497   3.644   4.133
  933SOL    HW2 2803   0.540   3.598   3.982
  934SOL     OW 2804   1.400   1.969   4.150
  934SOL    HW1 2805   1.376   1.932   4.060
  934SOL    HW2 2806   1.499   1.985   4.154
  935SOL     OW 2807   0.382   2.562   4.204
  935SOL    HW1 2808   0.427   2.472   4.201
  935SOL    HW2 2809   0.288   2.551   4.237
  936SOL     OW 2810   0.614   1.984   3.841
  936SOL    HW1 2811   0.712   1.962   3.848
  936SOL    HW2 2812   0.583   1.967   3.748
  937SOL     OW 2813   1.434   3.050   3.765
  937SOL    HW1 2814   1.466   2.974   3.822
  937SOL    HW2 2815   1.342   3.077   3.795
  938SOL     OW 2816   0.297   1.897   3.895
  938SOL    HW1 2817   0.346   1.981   3.874
  938SOL    HW2 2818   0.359   1.832   3.940
  939SOL     OW 2819   0.935   2.098   4.204
  939SOL    HW1 2820   0.887   2.139   4.126
  939SOL    HW2 2821   1.034   2.096   4.185
  940SOL     OW 2822   0.459   3.014   4.465
  940SOL    HW1 2823   0.388   2.987   4.530
  940SOL    HW2 2824   0.433   2.986   4.372
  941SOL     OW 2825   1.271   3.659   4.315
  941SOL    HW1 2826   1.315   3.723   4.251
  941SOL    HW2 2827   1.221   3.711   4.385
  942SOL     OW 2828   1.032   2.411   3.740
  942SOL    HW1 2829   0.991   2.493   3.701
  942SOL    HW2 2830   1.096   2.437   3.813
  943SOL     OW 2831   1.429   3.035   4.591
  943SOL    HW1 2832   1.374   2.951   4.584
  943SOL    HW2 2833   1.455   3.064   4.499
  944SOL     OW 2834   1.857   2.695   4.101
  944SOL    HW1 2835   1.899   2.631   4.165
  944SOL    HW2 2836   1.819   2.644   4.023
  945SOL     OW 2837   0.488   3.247   3.898
  945SOL    HW1 2838   0.401   3.232   3.945
  945SOL    HW2 2839   0.471   3.273   3.803
  946SOL     OW 2840   1.390   2.437   3.802
  946SOL    HW1 2841   1.336   2.416   3.883
  946SOL    HW2 2842   1.481   2.396   3.811
  947SOL     OW 2843   0.527   2.118   4.052
  947SOL    HW1 2844   0.554   2.059   3.977
  947SOL    HW2 2845   0.527   2.213   4.021
  948SOL     OW 2846   0.705   2.912   4.092
  948SOL    HW1 2847   0.691   2.919   4.191
  948SOL    HW2 2848   0.789   2.861   4.074
  949SOL     OW 2849   0.367   2.962   4.225
  949SOL    HW1 2850   0.360   3.045   4.169
  949SOL    HW2 2851   0.371   2.882   4.165
  950SOL     OW 2852   1.252   3.210   4.112
  950SOL    HW1 2853   1.302   3.287   4.152
  950SOL    HW2 2854   1.157   3.212   4.144
  951SOL     OW 2855   1.582   2.501   4.196
  951SOL    HW1 2856   1.551   2.562   4.269
  951SOL    HW2 2857   1.632   2.553   4.127
  952SOL     OW 2858   1.209   2.387   3.999
  952SOL    HW1 2859   1.222   2.303   4.053
  952SOL    HW2 2860   1.180   2.461   4.059
  953SOL     OW 2861   1.622   2.229   4.098
  953SOL    HW1 2862   1.624   2.153   4.162
  953SOL    HW2 2863   1.574   2.306   4.138
  954SOL     OW 2864   1.540   2.136   3.849
  954SOL    HW1 2865   1.479   2.061   3.872
  954SOL    HW2 2866   1.562   2.188   3.932
  955SOL     OW 2867   1.303   2.700   3.766
  955SOL    HW1 2868   1.337   2.607   3.781
  955SOL    HW2 2869   1.321   2.727   3.671
  956SOL     OW 2870   0.008   3.188   3.924
  956SOL    HW1 2871  -0.085   3.209   3.893
  956SOL    HW2 2872   0.018   3.089   3.937
  957SOL     OW 2873   0.815   2.434   4.049
  957SOL    HW1 2874   0.822   2.345   4.003
  957SOL    HW2 2875   0.721   2.468   4.041
  958SOL     OW 2876   0.473   2.362   3.915
  958SOL    HW1 2877   0.534   2.442   3.919
  958SOL    HW2 2878   0.378   2.393   3.922
  959SOL     OW 2879   1.302   2.717   4.033
  959SOL    HW1 2880   1.216   2.686   4.075
  959SOL    HW2 2881   1.298   2.703   3.934
  960SOL     OW 2882   1.726   1.997   4.247
  960SOL    HW1 2883   1.799   1.980   4.180
  960SOL    HW2 2884   1.695   1.910   4.285
  961SOL     OW 2885   1.388   3.435   4.201
  961SOL    HW1 2886   1.455   3.447   4.127
  961SOL    HW2 2887   1.348   3.524   4.224
  962SOL     OW 2888   0.672   3.478   3.878
  962SOL    HW1 2889   0.681   3.488   3.779
  962SOL    HW2 2890   0.632   3.389   3.899
  963SOL     OW 2891   1.194   3.474   3.755
  963SOL    HW1 2892   1.200   3.381   3.792
  963SOL    HW2 2893   1.135   3.474   3.675
  964SOL     OW 2894   0.916   2.772   4.015
  964SOL    HW1 2895   0.979   2.810   3.947
  964SOL    HW2 2896   0.956   2.689   4.054
  965SOL     OW 2897   1.504   3.469   3.768
  965SOL    HW1 2898   1.412   3.506   3.775
  965SOL    HW2 2899   1.542   3.489   3.678
  966SOL     OW 2900   0.590   3.349   4.215
  966SOL    HW1 2901   0.632   3.291   4.145
  966SOL    HW2 2902   0.546   3.428   4.171
  967SOL     OW 2903   0.255   3.210   4.014
  967SOL    HW1 2904   0.159   3.211   3.987
  967SOL    HW2 2905   0.267   3.263   4.098
  968SOL     OW 2906   0.075   2.207   3.757
  968SOL    HW1 2907  -0.017   2.179   3.728
  968SOL    HW2 2908   0.106   2.284   3.701
  969SOL     OW 2909   0.072   2.028   4.042
  969SOL    HW1 2910   0.055   2.111   3.988
  969SOL    HW2 2911   0.162   1.991   4.020
  970SOL     OW 2912   1.183   3.197   3.843
  970SOL    HW1 2913   1.084   3.186   3.845
  970SOL    HW2 2914   1.217   3.212   3.936
  971SOL     OW 2915   1.225   2.187   4.173
  971SOL    HW1 2916   1.290   2.113   4.162
  971SOL    HW2 2917   1.245   2.237   4.257
  972SOL     OW 2918   0.859   3.236   3.740
  972SOL    HW1 2919   0.813   3.251   3.828
  972SOL    HW2 2920   0.903   3.321   3.710
  973SOL     OW 2921   1.083   2.846   3.811
  973SOL    HW1 2922   1.060   2.899   3.729
  973SOL    HW2 2923   1.164   2.790   3.792
  974SOL     OW 2924   0.428   2.286   4.244
  974SOL    HW1 2925   0.458   2.214   4.182
  974SOL    HW2 2926   0.389   2.246   4.327
  975SOL     OW 2927   0.770   3.192   4.025
  975SOL    HW1 2928   0.724   3.105   4.042
  975SOL    HW2 2929   0.861   3.189   4.066
  976SOL     OW 2930   1.352   1.914   3.892
  976SOL    HW1 2931   1.387   1.873   3.808
  976SOL    HW2 2932   1.262   1.876   3.912
  977SOL     OW 2933   0.039   2.939   4.024
  977SOL    HW1 2934   0.138   2.928   4.015
  977SOL    HW2 2935  -0.001   2.853   4.056
  978SOL     OW 2936   0.875   3.508   4.061
  978SOL    HW1 2937   0.798   3.473   4.007
  978SOL    HW2 2938   0.843   3.579   4.123
  979SOL     OW 2939   0.225   3.999   0.996
  979SOL    HW1 2940   0.260   3.982   1.088
  979SOL    HW2 2941   0.137   3.954   0.984
  980SOL     OW 2942   0.019   4.092   0.647
  980SOL    HW1 2943  -0.063   4.135   0.686
  980SOL    HW2 2944  -0.009   4.019   0.584
  981SOL     OW 2945   1.755   4.331   0.231
  981SOL    HW1 2946   1.743   4.318   0.132
  981SOL    HW2 2947   1.725   4.250   0.280
  982SOL     OW 2948   0.438   4.116   1.499
  982SOL    HW1 2949   0.520   4.060   1.508
  982SOL    HW2 2950   0.357   4.058   1.503
  983SOL     OW 2951   1.603   4.171   0.737
  983SOL    HW1 2952   1.529   4.217   0.687
  983SOL    HW2 2953   1.654   4.239   0.790
  984SOL     OW 2954   1.594   3.838   1.480
  984SOL    HW1 2955   1.576   3.905   1.408
  984SOL    HW2 2956   1.591   3.884   1.569
  985SOL     OW 2957   0.122   4.367   0.563
  985SOL    HW1 2958   0.077   4.279   0.580
  985SOL    HW2 2959   0.121   4.421   0.647
  986SOL     OW 2960   0.809   3.728   0.502
  986SOL    HW1 2961   0.849   3.819   0.493
  986SOL    HW2 2962   0.709   3.736   0.508
  987SOL     OW 2963   0.317   3.975   1.801
  987SOL    HW1 2964   0.388   4.046   1.807
  987SOL    HW2 2965   0.229   4.014   1.829
  988SOL     OW 2966   1.281   4.069   0.944
  988SOL    HW1 2967   1.195   4.019   0.931
  988SOL    HW2 2968   1.343   4.015   1.000
  989SOL     OW 2969   1.394   4.193   1.674
  989SOL    HW1 2970   1.374   4.236   1.762
  989SOL    HW2 2971   1.472   4.131   1.683
  990SOL     OW 2972   0.973   4.614   1.572
  990SOL    HW1 2973   1.019   4.530   1.543
  990SOL    HW2 2974   0.917   4.648   1.497
  991SOL     OW 2975   0.991   4.134   1.242
  991SOL    HW1 2976   0.914   4.168   1.296
  991SOL    HW2 2977   0.957   4.083   1.163
  992SOL     OW 2978   0.865   4.072   0.195
  992SOL    HW1 2979   0.924   4.135   0.146
  992SOL    HW2 2980   0.884   3.978   0.166
  993SOL     OW 2981   1.719   4.309   1.831
  993SOL    HW1 2982   1.693   4.398   1.795
  993SOL    HW2 2983   1.717   4.241   1.758
  994SOL     OW 2984   0.550   3.920   0.885
  994SOL    HW1 2985   0.545   3.915   0.985
  994SOL    HW2 2986   0.552   4.016   0.856
  995SOL     OW 2987   0.202   4.009   1.498
  995SOL    HW1 2988   0.122   4.069   1.485
  995SOL    HW2 2989   0.192   3.960   1.584
  996SOL     OW 2990   1.400   3.831   0.426
  996SOL    HW1 2991   1.376   3.794   0.336
  996SOL    HW2 2992   1.499   3.847   0.430
  997SOL     OW 2993   1.547   3.946   1.729
  997SOL    HW1 2994   1.542   3.983   1.821
  997SOL    HW2 2995   1.475   3.877   1.717
  998SOL     OW 2996   0.614   3.846   0.117
  998SOL    HW1 2997   0.712   3.824   0.124
  998SOL    HW2 2998   0.583   3.829   0.024
  999SOL     OW 2999   0.781   3.988   1.749
  999SOL    HW1 3000   0.848   3.927   1.792
  999SOL    HW2 3001   0.708   4.007   1.814
 1000SOL     OW 3002   1.351   4.314   1.433
 1000SOL    HW1 3003   1.379   4.271   1.518
 1000SOL    HW2 3004   1.376   4.410   1.434
 1001SOL     OW 3005   0.539   3.788   0.512
 1001SOL    HW1 3006   0.458   3.789   0.570
 1001SOL    HW2 3007   0.542   3.871   0.457
 1002SOL     OW 3008   0.297   3.759   0.171
 1002SOL    HW1 3009   0.346   3.843   0.150
 1002SOL    HW2 3010   0.359   3.694   0.216
 1003SOL     OW 3011   0.935   3.960   0.480
 1003SOL    HW1 3012   0.887   4.001   0.402
 1003SOL    HW2 3013   1.034   3.958   0.461
 1004SOL     OW 3014   0.078   4.280   1.386
 1004SOL    HW1 3015   0.170   4.279   1.345
 1004SOL    HW2 3016   0.072   4.354   1.453
 1005SOL     OW 3017   0.561   3.946   1.147
 1005SOL    HW1 3018   0.599   3.862   1.184
 1005SOL    HW2 3019   0.473   3.965   1.191
 1006SOL     OW 3020   1.017   3.763   0.753
 1006SOL    HW1 3021   0.945   3.768   0.684
 1006SOL    HW2 3022   0.993   3.694   0.822
 1007SOL     OW 3023   1.466   4.314   0.992
 1007SOL    HW1 3024   1.436   4.219   0.999
 1007SOL    HW2 3025   1.539   4.330   1.058
 1008SOL     OW 3026   0.527   3.980   0.328
 1008SOL    HW1 3027   0.554   3.921   0.253
 1008SOL    HW2 3028   0.527   4.075   0.297
 1009SOL     OW 3029   0.915   3.813   1.402
 1009SOL    HW1 3030   0.940   3.793   1.307
 1009SOL    HW2 3031   0.987   3.869   1.444
 1010SOL     OW 3032   1.274   4.110   1.262
 1010SOL    HW1 3033   1.295   4.184   1.326
 1010SOL    HW2 3034   1.185   4.127   1.219
 1011SOL     OW 3035   0.566   4.261   0.865
 1011SOL    HW1 3036   0.578   4.327   0.791
 1011SOL    HW2 3037   0.612   4.295   0.948
 1012SOL     OW 3038   1.013   3.829   1.770
 1012SOL    HW1 3039   1.019   3.914   1.718
 1012SOL    HW2 3040   1.045   3.753   1.713
 1013SOL     OW 3041   0.504   3.774   1.740
 1013SOL    HW1 3042   0.462   3.717   1.670
 1013SOL    HW2 3043   0.438   3.843   1.772
 1014SOL     OW 3044   0.307   3.937   1.231
 1014SOL    HW1 3045   0.284   3.974   1.321
 1014SOL    HW2 3046   0.277   3.842   1.225
 1015SOL     OW 3047   0.732   4.358   1.064
 1015SOL    HW1 3048   0.791   4.332   0.988
 1015SOL    HW2 3049   0.704   4.454   1.053
 1016SOL     OW 3050   0.307   3.787   0.618
 1016SOL    HW1 3051   0.296   3.881   0.651
 1016SOL    HW2 3052   0.302   3.724   0.695
 1017SOL     OW 3053   1.622   4.091   0.374
 1017SOL    HW1 3054   1.624   4.015   0.438
 1017SOL    HW2 3055   1.574   4.168   0.414
 1018SOL     OW 3056   1.540   3.998   0.125
 1018SOL    HW1 3057   1.479   3.923   0.148
 1018SOL    HW2 3058   1.562   4.050   0.208
 1019SOL     OW 3059   0.339   4.233   1.006
 1019SOL    HW1 3060   0.287   4.150   0.989
 1019SOL    HW2 3061   0.416   4.238   0.942
 1020SOL     OW 3062   1.138   4.104   1.678
 1020SOL    HW1 3063   1.093   4.167   1.742
 1020SOL    HW2 3064   1.231   4.135   1.661
 1021SOL     OW 3065   1.160   3.931   1.477
 1021SOL    HW1 3066   1.160   3.995   1.554
 1021SOL    HW2 3067   1.188   3.979   1.394
 1022SOL     OW 3068   1.002   4.520   1.238
 1022SOL    HW1 3069   1.043   4.488   1.324
 1022SOL    HW2 3070   0.906   4.493   1.235
 1023SOL     OW 3071   0.040   4.268   1.114
 1023SOL    HW1 3072   0.125   4.235   1.073
 1023SOL    HW2 3073   0.053   4.283   1.212
 1024SOL     OW 3074   0.189   4.244   1.722
 1024SOL    HW1 3075   0.248   4.204   1.652
 1024SOL    HW2 3076   0.131   4.315   1.681
 1025SOL     OW 3077   0.815   4.296   0.325
 1025SOL    HW1 3078   0.822   4.207   0.279
 1025SOL    HW2 3079   0.721   4.330   0.317
 1026SOL     OW 3080   1.657   4.328   1.206
 1026SOL    HW1 3081   1.619   4.259   1.268
 1026SOL    HW2 3082   1.739   4.292   1.162
 1027SOL     OW 3083   0.671   4.188   1.269
 1027SOL    HW1 3084   0.637   4.099   1.239
 1027SOL    HW2 3085   0.697   4.242   1.189
 1028SOL     OW 3086   0.903   3.810   0.133
 1028SOL    HW1 3087   0.954   3.811   0.047
 1028SOL    HW2 3088   0.959   3.768   0.204
 1029SOL     OW 3089   1.726   3.859   0.523
 1029SOL    HW1 3090   1.799   3.842   0.456
 1029SOL    HW2 3091   1.695   3.772   0.561
 1030SOL     OW 3092   1.841   3.899   0.963
 1030SOL    HW1 3093   1.880   3.814   0.927
 1030SOL    HW2 3094   1.743   3.901   0.944
 1031SOL     OW 3095   0.263   4.050   0.720
 1031SOL    HW1 3096   0.184   4.101   0.686
 1031SOL    HW2 3097   0.254   4.035   0.818
 1032SOL     OW 3098   1.014   3.960   0.971
 1032SOL    HW1 3099   1.006   3.924   0.878
 1032SOL    HW2 3100   1.012   3.884   1.036
 1033SOL     OW 3101   1.709   4.109   1.381
 1033SOL    HW1 3102   1.782   4.178   1.385
 1033SOL    HW2 3103   1.737   4.034   1.322
 1034SOL     OW 3104   0.672   3.927   1.489
 1034SOL    HW1 3105   0.762   3.911   1.449
 1034SOL    HW2 3106   0.680   3.932   1.588
 1035SOL     OW 3107   0.075   4.069   0.033
 1035SOL    HW1 3108  -0.017   4.041   0.004
 1035SOL    HW2 3109   0.106   4.146  -0.023
 1036SOL     OW 3110   0.072   3.890   0.318
 1036SOL    HW1 3111   0.055   3.973   0.264
 1036SOL    HW2 3112   0.162   3.853   0.296
 1037SOL     OW 3113   0.716   4.289   1.708
 1037SOL    HW1 3114   0.735   4.354   1.782
 1037SOL    HW2 3115   0.776   4.209   1.717
 1038SOL     OW 3116   1.225   4.049   0.449
 1038SOL    HW1 3117   1.290   3.975   0.438
 1038SOL    HW2 3118   1.245   4.099   0.533
 1039SOL     OW 3119   1.777   4.066   1.642
 1039SOL    HW1 3120   1.760   4.097   1.548
 1039SOL    HW2 3121   1.693   4.029   1.680
 1040SOL     OW 3122   1.824   3.916   1.227
 1040SOL    HW1 3123   1.820   3.826   1.271
 1040SOL    HW2 3124   1.827   3.905   1.128
 1041SOL     OW 3125   0.428   4.148   0.520
 1041SOL    HW1 3126   0.458   4.076   0.458
 1041SOL    HW2 3127   0.389   4.108   0.603
 1042SOL     OW 3128   0.317   4.271   1.280
 1042SOL    HW1 3129   0.355   4.212   1.352
 1042SOL    HW2 3130   0.357   4.245   1.192
 1043SOL     OW 3131   1.424   3.938   1.112
 1043SOL    HW1 3132   1.476   3.873   1.167
 1043SOL    HW2 3133   1.375   4.001   1.173
 1044SOL     OW 3134   1.001   3.758   1.154
 1044SOL    HW1 3135   0.938   3.686   1.123
 1044SOL    HW2 3136   1.094   3.722   1.154
 1045SOL     OW 3137   1.300   4.177   0.691
 1045SOL    HW1 3138   1.241   4.257   0.695
 1045SOL    HW2 3139   1.315   4.142   0.784
 1046SOL     OW 3140   1.593   3.945   0.882
 1046SOL    HW1 3141   1.509   3.944   0.936
 1046SOL    HW2 3142   1.595   4.028   0.826
 1047SOL     OW 3143   0.225   3.999   2.858
 1047SOL    HW1 3144   0.260   3.982   2.950
 1047SOL    HW2 3145   0.137   3.954   2.846
 1048SOL     OW 3146   0.019   4.092   2.509
 1048SOL    HW1 3147  -0.063   4.135   2.548
 1048SOL    HW2 3148  -0.009   4.019   2.446
 1049SOL     OW 3149   1.755   4.331   2.093
 1049SOL    HW1 3150   1.743   4.318   1.994
 1049SOL    HW2 3151   1.725   4.250   2.142
 1050SOL     OW 3152   0.438   4.116   3.361
 1050SOL    HW1 3153   0.520   4.060   3.370
 1050SOL    HW2 3154   0.357   4.058   3.365
 1051SOL     OW 3155   1.603   4.171   2.599
 1051SOL    HW1 3156   1.529   4.217   2.549
 1051SOL    HW2 3157   1.654   4.239   2.652
 1052SOL     OW 3158   1.594   3.838   3.342
 1052SOL    HW1 3159   1.576   3.905   3.270
 1052SOL    HW2 3160   1.591   3.884   3.431
 1053SOL     OW 3161   0.122   4.367   2.425
 1053SOL    HW1 3162   0.077   4.279   2.442
 1053SOL    HW2 3163   0.121   4.421   2.509
 1054SOL     OW 3164   0.809   3.728   2.364
 1054SOL    HW1 3165   0.849   3.819   2.355
 1054SOL    HW2 3166   0.709   3.736   2.370
 1055SOL     OW 3167   0.317   3.975   3.663
 1055SOL    HW1 3168   0.388   4.046   3.669
 1055SOL    HW2 3169   0.229   4.014   3.691
 1056SOL     OW 3170   1.281   4.069   2.806
 1056SOL    HW1 3171   1.195   4.019   2.793
 1056SOL    HW2 3172   1.343   4.015   2.862
 1057SOL     OW 3173   1.394   4.193   3.536
 1057SOL    HW1 3174   1.374   4.236   3.624
 1057SOL    HW2 3175   1.472   4.131   3.545
 1058SOL     OW 3176   0.973   4.614   3.434
 1058SOL    HW1 3177   1.019   4.530   3.405
 1058SOL    HW2 3178   0.917   4.648   3.359
 1059SOL     OW 3179   0.991   4.134   3.104
 1059SOL    HW1 3180   0.914   4.168   3.158
 1059SOL    HW2 3181   0.957   4.083   3.025
 1060SOL     OW 3182   0.865   4.072   2.057
 1060SOL    HW1 3183   0.924   4.135   2.008
 1060SOL    HW2 3184   0.884   3.978   2.028
 1061SOL     OW 3185   1.719   4.309   3.693
 1061SOL    HW1 3186   1.693   4.398   3.657
 1061SOL    HW2 3187   1.717   4.241   3.620
 1062SOL     OW 3188   0.550   3.920   2.747
 1062SOL    HW1 3189   0.545   3.915   2.847
 1062SOL    HW2 3190   0.552   4.016   2.718
 1063SOL     OW 3191   0.202   4.009   3.360
 1063SOL    HW1 3192   0.122   4.069   3.347
 1063SOL    HW2 3193   0.192   3.960   3.446
 1064SOL     OW 3194   1.400   3.831   2.288
 1064SOL    HW1 3195   1.376   3.794   2.198
 1064SOL    HW2 3196   1.499   3.847   2.292
 1065SOL     OW 3197   1.547   3.946   3.591
 1065SOL    HW1 3198   1.542   3.983   3.683
 1065SOL    HW2 3199   1.475   3.877   3.579
 1066SOL     OW 3200   0.614   3.846   1.979
 1066SOL    HW1 3201   0.712   3.824   1.986
 1066SOL    HW2 3202   0.583   3.829   1.886
 1067SOL     OW 3203   0.781   3.988   3.611
 1067SOL    HW1 3204   0.848   3.927   3.654
 1067SOL    HW2 3205   0.708   4.007   3.676
 1068SOL     OW 3206   1.351   4.314   3.295
 1068SOL    HW1 3207   1.379   4.271   3.380
 1068SOL    HW2 3208   1.376   4.410   3.296
 1069SOL     OW 3209   0.539   3.788   2.374
 1069SOL    HW1 3210   0.458   3.789   2.432
 1069SOL    HW2 3211   0.542   3.871   2.319
 1070SOL     OW 3212   0.297   3.759   2.033
 1070SOL    HW1 3213   0.346   3.843   2.012
 1070SOL    HW2 3214   0.359   3.694   2.078
 1071SOL     OW 3215   0.935   3.960   2.342
 1071SOL    HW1 3216   0.887   4.001   2.264
 1071SOL    HW2 3217   1.034   3.958   2.323
 1072SOL     OW 3218   0.078   4.280   3.248
 1072SOL    HW1 3219   0.170   4.279   3.207
 1072SOL    HW2 3220   0.072   4.354   3.315
 1073SOL     OW 3221   0.561   3.946   3.009
 1073SOL    HW1 3222   0.599   3.862   3.046
 1073SOL    HW2 3223   0.473   3.965   3.053
 1074SOL     OW 3224   1.017   3.763   2.615
 1074SOL    HW1 3225   0.945   3.768   2.546
 1074SOL    HW2 3226   0.993   3.694   2.684
 1075SOL     OW 3227   1.466   4.314   2.854
 1075SOL    HW1 3228   1.436   4.219   2.861
 1075SOL    HW2 3229   1.539   4.330   2.920
 1076SOL     OW 3230   0.527   3.980   2.190
 1076SOL    HW1 3231   0.554   3.921   2.115
 1076SOL    HW2 3232   0.527   4.075   2.159
 1077SOL     OW 3233   0.915   3.813   3.264
 1077SOL    HW1 3234   0.940   3.793   3.169
 1077SOL    HW2 3235   0.987   3.869   3.306
 1078SOL     OW 3236   1.274   4.110   3.124
 1078SOL    HW1 3237   1.295   4.184   3.188
 1078SOL    HW2 3238   1.185   4.127   3.081
 1079SOL     OW 3239   0.566   4.261   2.727
 1079SOL    HW1 3240   0.578   4.327   2.653
 1079SOL    HW2 3241   0.612   4.295   2.810
 1080SOL     OW 3242   1.013   3.829   3.632
 1080SOL    HW1 3243   1.019   3.914   3.580
 1080SOL    HW2 3244   1.045   3.753   3.575
 1081SOL     OW 3245   0.504   3.774   3.602
 1081SOL    HW1 3246   0.462   3.717   3.532
 1081SOL    HW2 3247   0.438   3.843   3.634
 1082SOL     OW 3248   0.307   3.937   3.093
 1082SOL    HW1 3249   0.284   3.974   3.183
 1082SOL    HW2 3250   0.277   3.842   3.087
 1083SOL     OW 3251   0.732   4.358   2.926
 1083SOL    HW1 3252   0.791   4.332   2.850
 1083SOL    HW2 3253   0.704   4.454   2.915
 1084SOL     OW 3254   0.307   3.787   2.480
 1084SOL    HW1 3255   0.296   3.881   2.513
 1084SOL    HW2 3256   0.302   3.724   2.557
 1085SOL     OW 3257   1.622   4.091   2.236
 1085SOL    HW1 3258   1.624   4.015   2.300
 1085SOL    HW2 3259   1.574   4.168   2.276
 1086SOL     OW 3260   1.540   3.998   1.987
 1086SOL    HW1 3261   1.479   3.923   2.010
 1086SOL    HW2 3262   1.562   4.050   2.070
 1087SOL     OW 3263   1.303   4.562   1.904
 1087SOL    HW1 3264   1.337   4.469   1.919
 1087SOL    HW2 3265   1.321   4.589   1.809
 1088SOL     OW 3266   0.339   4.233   2.868
 1088SOL    HW1 3267   0.287   4.150   2.851
 1088SOL    HW2 3268   0.416   4.238   2.804
 1089SOL     OW 3269   1.138   4.104   3.540
 1089SOL    HW1 3270   1.093   4.167   3.604
 1089SOL    HW2 3271   1.231   4.135   3.523
 1090SOL     OW 3272   1.160   3.931   3.339
 1090SOL    HW1 3273   1.160   3.995   3.416
 1090SOL    HW2 3274   1.188   3.979   3.256
 1091SOL     OW 3275   1.002   4.520   3.100
 1091SOL    HW1 3276   1.043   4.488   3.186
 1091SOL    HW2 3277   0.906   4.493   3.097
 1092SOL     OW 3278   0.040   4.268   2.976
 1092SOL    HW1 3279   0.125   4.235   2.935
 1092SOL    HW2 3280   0.053   4.283   3.074
 1093SOL     OW 3281   0.189   4.244   3.584
 1093SOL    HW1 3282   0.248   4.204   3.514
 1093SOL    HW2 3283   0.131   4.315   3.543
 1094SOL     OW 3284   0.815   4.296   2.187
 1094SOL    HW1 3285   0.822   4.207   2.141
 1094SOL    HW2 3286   0.721   4.330   2.179
 1095SOL     OW 3287   1.657   4.328   3.068
 1095SOL    HW1 3288   1.619   4.259   3.130
 1095SOL    HW2 3289   1.739   4.292   3.024
 1096SOL     OW 3290   0.671   4.188   3.131
 1096SOL    HW1 3291   0.637   4.099   3.101
 1096SOL    HW2 3292   0.697   4.242   3.051
 1097SOL     OW 3293   1.726   3.859   2.385
 1097SOL    HW1 3294   1.799   3.842   2.318
 1097SOL    HW2 3295   1.695   3.772   2.423
 1098SOL     OW 3296   1.841   3.899   2.825
 1098SOL    HW1 3297   1.880   3.814   2.789
 1098SOL    HW2 3298   1.743   3.901   2.806
 1099SOL     OW 3299   0.263   4.050   2.582
 1099SOL    HW1 3300   0.184   4.101   2.548
 1099SOL    HW2 3301   0.254   4.035   2.680
 1100SOL     OW 3302   1.014   3.960   2.833
 1100SOL    HW1 3303   1.006   3.924   2.740
 1100SOL    HW2 3304   1.012   3.884   2.898
 1101SOL     OW 3305   1.709   4.109   3.243
 1101SOL    HW1 3306   1.782   4.178   3.247
 1101SOL    HW2 3307   1.737   4.034   3.184
 1102SOL     OW 3308   0.672   3.927   3.351
 1102SOL    HW1 3309   0.762   3.911   3.311
 1102SOL    HW2 3310   0.680   3.932   3.450
 1103SOL     OW 3311   0.075   4.069   1.895
 1103SOL    HW1 3312  -0.017   4.041   1.866
 1103SOL    HW2 3313   0.106   4.146   1.839
 1104SOL     OW 3314   0.072   3.890   2.180
 1104SOL    HW1 3315   0.055   3.973   2.126
 1104SOL    HW2 3316   0.162   3.853   2.158
 1105SOL     OW 3317   0.716   4.289   3.570
 1105SOL    HW1 3318   0.735   4.354   3.644
 1105SOL    HW2 3319   0.776   4.209   3.579
 1106SOL     OW 3320   1.225   4.049   2.311
 1106SOL    HW1 3321   1.290   3.975   2.300
 1106SOL    HW2 3322   1.245   4.099   2.395
 1107SOL     OW 3323   1.777   4.066   3.504
 1107SOL    HW1 3324   1.760   4.097   3.410
 1107SOL    HW2 3325   1.693   4.029   3.542
 1108SOL     OW 3326   1.824   3.916   3.089
 1108SOL    HW1 3327   1.820   3.826   3.133
 1108SOL    HW2 3328   1.827   3.905   2.990
 1109SOL     OW 3329   0.428   4.148   2.382
 1109SOL    HW1 3330   0.458   4.076   2.320
 1109SOL    HW2 3331   0.389   4.108   2.465
 1110SOL     OW 3332   0.317   4.271   3.142
 1110SOL    HW1 3333   0.355   4.212   3.214
 1110SOL    HW2 3334   0.357   4.245   3.054
 1111SOL     OW 3335   1.424   3.938   2.974
 1111SOL    HW1 3336   1.476   3.873   3.029
 1111SOL    HW2 3337   1.375   4.001   3.035
 1112SOL     OW 3338   1.001   3.758   3.016
 1112SOL    HW1 3339   0.938   3.686   2.985
 1112SOL    HW2 3340   1.094   3.722   3.016
 1113SOL     OW 3341   1.352   3.776   2.030
 1113SOL    HW1 3342   1.387   3.735   1.946
 1113SOL    HW2 3343   1.262   3.738   2.050
 1114SOL     OW 3344   1.300   4.177   2.553
 1114SOL    HW1 3345   1.241   4.257   2.557
 1114SOL    HW2 3346   1.315   4.142   2.646
 1115SOL     OW 3347   1.593   3.945   2.744
 1115SOL    HW1 3348   1.509   3.944   2.798
 1115SOL    HW2 3349   1.595   4.028   2.688
 1116SOL     OW 3350   1.135   4.427   4.441
 1116SOL    HW1 3351   1.192   4.505   4.416
 1116SOL    HW2 3352   1.075   4.453   4.517
 1117SOL     OW 3353   1.755   4.331   3.955
 1117SOL    HW1 3354   1.743   4.318   3.856
 1117SOL    HW2 3355   1.725   4.250   4.004
 1118SOL     OW 3356   0.122   4.367   4.287
 1118SOL    HW1 3357   0.077   4.279   4.304
 1118SOL    HW2 3358   0.121   4.421   4.371
 1119SOL     OW 3359   0.809   3.728   4.226
 1119SOL    HW1 3360   0.849   3.819   4.217
 1119SOL    HW2 3361   0.709   3.736   4.232
 1120SOL     OW 3362   0.865   4.072   3.919
 1120SOL    HW1 3363   0.924   4.135   3.870
 1120SOL    HW2 3364   0.884   3.978   3.890
 1121SOL     OW 3365   1.400   3.831   4.150
 1121SOL    HW1 3366   1.376   3.794   4.060
 1121SOL    HW2 3367   1.499   3.847   4.154
 1122SOL     OW 3368   0.382   4.424   4.204
 1122SOL    HW1 3369   0.427   4.334   4.201
 1122SOL    HW2 3370   0.288   4.413   4.237
 1123SOL     OW 3371   0.614   3.846   3.841
 1123SOL    HW1 3372   0.712   3.824   3.848
 1123SOL    HW2 3373   0.583   3.829   3.748
 1124SOL     OW 3374   0.297   3.759   3.895
 1124SOL    HW1 3375   0.346   3.843   3.874
 1124SOL    HW2 3376   0.359   3.694   3.940
 1125SOL     OW 3377   0.935   3.960   4.204
 1125SOL    HW1 3378   0.887   4.001   4.126
 1125SOL    HW2 3379   1.034   3.958   4.185
 1126SOL     OW 3380   0.527   3.980   4.052
 1126SOL    HW1 3381   0.554   3.921   3.977
 1126SOL    HW2 3382   0.527   4.075   4.021
 1127SOL     OW 3383   1.622   4.091   4.098
 1127SOL    HW1 3384   1.624   4.015   4.162
 1127SOL    HW2 3385   1.574   4.168   4.138
 1128SOL     OW 3386   1.540   3.998   3.849
 1128SOL    HW1 3387   1.479   3.923   3.872
 1128SOL    HW2 3388   1.562   4.050   3.932
 1129SOL     OW 3389   1.303   4.562   3.766
 1129SOL    HW1 3390   1.337   4.469   3.781
 1129SOL    HW2 3391   1.321   4.589   3.671
 1130SOL     OW 3392   0.815   4.296   4.049
 1130SOL    HW1 3393   0.822   4.207   4.003
 1130SOL    HW2 3394   0.721   4.330   4.041
 1131SOL     OW 3395   1.726   3.859   4.247
 1131SOL    HW1 3396   1.799   3.842   4.180
 1131SOL    HW2 3397   1.695   3.772   4.285
 1132SOL     OW 3398   0.075   4.069   3.757
 1132SOL    HW1 3399  -0.017   4.041   3.728
 1132SOL    HW2 3400   0.106   4.146   3.701
 1133SOL     OW 3401   0.072   3.890   4.042
 1133SOL    HW1 3402   0.055   3.973   3.988
 1133SOL    HW2 3403   0.162   3.853   4.020
 1134SOL     OW 3404   1.225   4.049   4.173
 1134SOL    HW1 3405   1.290   3.975   4.162
 1134SOL    HW2 3406   1.245   4.099   4.257
 1135SOL     OW 3407   0.428   4.148   4.244
 1135SOL    HW1 3408   0.458   4.076   4.182
 1135SOL    HW2 3409   0.389   4.108   4.327
 1136SOL     OW 3410   1.352   3.776   3.892
 1136SOL    HW1 3411   1.387   3.735   3.808
 1136SOL    HW2 3412   1.262   3.738   3.912
 1137SOL     OW 3413   2.092   0.628   0.113
 1137SOL    HW1 3414   1.999   0.626   0.150
 1137SOL    HW2 3415   2.093   0.589   0.021
 1138SOL     OW 3416   2.087   0.275   0.996
 1138SOL    HW1 3417   2.122   0.258   1.088
 1138SOL    HW2 3418   1.999   0.230   0.984
 1139SOL     OW 3419   1.881   0.368   0.647
 1139SOL    HW1 3420   1.799   0.411   0.686
 1139SOL    HW2 3421   1.853   0.295   0.584
 1140SOL     OW 3422   2.431   1.275   1.165
 1140SOL    HW1 3423   2.338   1.268   1.128
 1140SOL    HW2 3424   2.442   1.364   1.209
 1141SOL     OW 3425   3.417   1.511   0.703
 1141SOL    HW1 3426   3.360   1.495   0.784
 1141SOL    HW2 3427   3.358   1.521   0.623
 1142SOL     OW 3428   2.997   0.703   0.717
 1142SOL    HW1 3429   3.054   0.781   0.692
 1142SOL    HW2 3430   2.937   0.729   0.793
 1143SOL     OW 3431   3.617   0.607   0.231
 1143SOL    HW1 3432   3.605   0.594   0.132
 1143SOL    HW2 3433   3.587   0.526   0.280
 1144SOL     OW 3434   2.630   1.144   1.023
 1144SOL    HW1 3435   2.552   1.161   1.083
 1144SOL    HW2 3436   2.664   1.231   0.987
 1145SOL     OW 3437   2.712   0.798   1.823
 1145SOL    HW1 3438   2.708   0.874   1.888
 1145SOL    HW2 3439   2.734   0.834   1.732
 1146SOL     OW 3440   2.547   1.012   0.665
 1146SOL    HW1 3441   2.616   0.996   0.735
 1146SOL    HW2 3442   2.474   1.069   0.703
 1147SOL     OW 3443   2.548   1.161   1.803
 1147SOL    HW1 3444   2.608   1.240   1.817
 1147SOL    HW2 3445   2.462   1.192   1.762
 1148SOL     OW 3446   2.197   1.435   1.061
 1148SOL    HW1 3447   2.119   1.404   1.008
 1148SOL    HW2 3448   2.255   1.493   1.004
 1149SOL     OW 3449   3.322   1.505   1.339
 1149SOL    HW1 3450   3.346   1.599   1.365
 1149SOL    HW2 3451   3.306   1.451   1.421
 1150SOL     OW 3452   2.300   0.392   1.499
 1150SOL    HW1 3453   2.382   0.336   1.508
 1150SOL    HW2 3454   2.219   0.334   1.503
 1151SOL     OW 3455   3.465   0.447   0.737
 1151SOL    HW1 3456   3.391   0.493   0.687
 1151SOL    HW2 3457   3.516   0.515   0.790
 1152SOL     OW 3458   2.093   1.713   0.483
 1152SOL    HW1 3459   2.127   1.790   0.537
 1152SOL    HW2 3460   2.137   1.713   0.393
 1153SOL     OW 3461   2.989   1.341   1.690
 1153SOL    HW1 3462   3.036   1.341   1.778
 1153SOL    HW2 3463   2.941   1.254   1.679
 1154SOL     OW 3464   2.092   1.434   0.538
 1154SOL    HW1 3465   2.066   1.530   0.538
 1154SOL    HW2 3466   2.021   1.380   0.583
 1155SOL     OW 3467   2.102   1.091   0.886
 1155SOL    HW1 3468   2.116   1.007   0.938
 1155SOL    HW2 3469   2.047   1.155   0.941
 1156SOL     OW 3470   2.482   1.786   1.439
 1156SOL    HW1 3471   2.390   1.769   1.474
 1156SOL    HW2 3472   2.510   1.878   1.465
 1157SOL     OW 3473   2.468   0.964   0.123
 1157SOL    HW1 3474   2.475   1.048   0.069
 1157SOL    HW2 3475   2.514   0.977   0.211
 1158SOL     OW 3476   3.456   0.114   1.480
 1158SOL    HW1 3477   3.438   0.181   1.408
 1158SOL    HW2 3478   3.453   0.160   1.569
 1159SOL     OW 3479   1.984   0.643   0.563
 1159SOL    HW1 3480   1.939   0.555   0.580
 1159SOL    HW2 3481   1.983   0.697   0.647
 1160SOL     OW 3482   3.704   1.767   0.359
 1160SOL    HW1 3483   3.758   1.738   0.439
 1160SOL    HW2 3484   3.734   1.857   0.330
 1161SOL     OW 3485   1.889   1.596   0.117
 1161SOL    HW1 3486   1.870   1.500   0.138
 1161SOL    HW2 3487   1.856   1.654   0.192
 1162SOL     OW 3488   3.551   0.922   0.612
 1162SOL    HW1 3489   3.646   0.893   0.620
 1162SOL    HW2 3490   3.543   0.987   0.537
 1163SOL     OW 3491   3.503   1.108   0.432
 1163SOL    HW1 3492   3.589   1.110   0.380
 1163SOL    HW2 3493   3.517   1.155   0.520
 1164SOL     OW 3494   1.975   0.737   1.597
 1164SOL    HW1 3495   2.063   0.724   1.642
 1164SOL    HW2 3496   1.962   0.834   1.575
 1165SOL     OW 3497   2.475   1.365   0.726
 1165SOL    HW1 3498   2.426   1.278   0.735
 1165SOL    HW2 3499   2.452   1.408   0.639
 1166SOL     OW 3500   3.155   1.228   1.423
 1166SOL    HW1 3501   3.192   1.155   1.365
 1166SOL    HW2 3502   3.207   1.233   1.508
 1167SOL     OW 3503   2.671   0.004   0.502
 1167SOL    HW1 3504   2.711   0.095   0.493
 1167SOL    HW2 3505   2.571   0.012   0.508
 1168SOL     OW 3506   2.059   0.976   1.264
 1168SOL    HW1 3507   2.148   0.931   1.250
 1168SOL    HW2 3508   1.986   0.911   1.245
 1169SOL     OW 3509   3.387   0.999   0.190
 1169SOL    HW1 3510   3.324   0.923   0.203
 1169SOL    HW2 3511   3.435   1.017   0.276
 1170SOL     OW 3512   3.049   1.792   1.616
 1170SOL    HW1 3513   3.073   1.852   1.540
 1170SOL    HW2 3514   3.056   1.697   1.586
 1171SOL     OW 3515   2.179   0.251   1.801
 1171SOL    HW1 3516   2.250   0.322   1.807
 1171SOL    HW2 3517   2.091   0.290   1.829
 1172SOL     OW 3518   3.328   1.417   0.953
 1172SOL    HW1 3519   3.269   1.423   1.033
 1172SOL    HW2 3520   3.313   1.329   0.907
 1173SOL     OW 3521   3.529   1.714   0.572
 1173SOL    HW1 3522   3.488   1.691   0.484
 1173SOL    HW2 3523   3.511   1.640   0.637
 1174SOL     OW 3524   2.460   0.729   0.270
 1174SOL    HW1 3525   2.484   0.798   0.202
 1174SOL    HW2 3526   2.382   0.762   0.324
 1175SOL     OW 3527   3.143   0.345   0.944
 1175SOL    HW1 3528   3.057   0.295   0.931
 1175SOL    HW2 3529   3.205   0.291   1.000
 1176SOL     OW 3530   3.438   1.662   0.307
 1176SOL    HW1 3531   3.527   1.708   0.310
 1176SOL    HW2 3532   3.417   1.638   0.212
 1177SOL     OW 3533   2.669   0.605   1.465
 1177SOL    HW1 3534   2.622   0.602   1.554
 1177SOL    HW2 3535   2.618   0.550   1.399
 1178SOL     OW 3536   3.256   0.469   1.674
 1178SOL    HW1 3537   3.236   0.512   1.762
 1178SOL    HW2 3538   3.334   0.407   1.683
 1179SOL     OW 3539   2.835   0.890   1.572
 1179SOL    HW1 3540   2.881   0.806   1.543
 1179SOL    HW2 3541   2.779   0.924   1.497
 1180SOL     OW 3542   2.853   0.410   1.242
 1180SOL    HW1 3543   2.776   0.444   1.296
 1180SOL    HW2 3544   2.819   0.359   1.163
 1181SOL     OW 3545   2.903   0.701   0.429
 1181SOL    HW1 3546   2.929   0.697   0.525
 1181SOL    HW2 3547   2.818   0.650   0.415
 1182SOL     OW 3548   1.938   0.811   0.789
 1182SOL    HW1 3549   2.037   0.799   0.798
 1182SOL    HW2 3550   1.914   0.906   0.810
 1183SOL     OW 3551   1.992   1.821   1.571
 1183SOL    HW1 3552   1.982   1.806   1.670
 1183SOL    HW2 3553   1.906   1.857   1.535
 1184SOL     OW 3554   2.727   0.348   0.195
 1184SOL    HW1 3555   2.786   0.411   0.146
 1184SOL    HW2 3556   2.746   0.254   0.166
 1185SOL     OW 3557   3.581   0.585   1.831
 1185SOL    HW1 3558   3.555   0.674   1.795
 1185SOL    HW2 3559   3.579   0.517   1.758
 1186SOL     OW 3560   3.224   1.144   0.545
 1186SOL    HW1 3561   3.307   1.115   0.497
 1186SOL    HW2 3562   3.175   1.211   0.489
 1187SOL     OW 3563   2.412   0.196   0.885
 1187SOL    HW1 3564   2.407   0.191   0.985
 1187SOL    HW2 3565   2.414   0.292   0.856
 1188SOL     OW 3566   2.870   1.456   0.477
 1188SOL    HW1 3567   2.824   1.528   0.425
 1188SOL    HW2 3568   2.866   1.476   0.575
 1189SOL     OW 3569   2.213   1.801   0.853
 1189SOL    HW1 3570   2.263   1.715   0.859
 1189SOL    HW2 3571   2.278   1.878   0.850
 1190SOL     OW 3572   3.657   1.066   0.873
 1190SOL    HW1 3573   3.595   1.051   0.797
 1190SOL    HW2 3574   3.605   1.077   0.958
 1191SOL     OW 3575   3.089   1.550   1.506
 1191SOL    HW1 3576   3.095   1.473   1.570
 1191SOL    HW2 3577   3.037   1.524   1.426
 1192SOL     OW 3578   2.183   0.943   0.242
 1192SOL    HW1 3579   2.265   0.982   0.200
 1192SOL    HW2 3580   2.156   0.861   0.193
 1193SOL     OW 3581   3.320   0.735   0.728
 1193SOL    HW1 3582   3.315   0.670   0.803
 1193SOL    HW2 3583   3.400   0.794   0.741
 1194SOL     OW 3584   2.323   1.266   1.727
 1194SOL    HW1 3585   2.273   1.267   1.641
 1194SOL    HW2 3586   2.260   1.248   1.803
 1195SOL     OW 3587   2.973   1.776   0.237
 1195SOL    HW1 3588   2.913   1.714   0.287
 1195SOL    HW2 3589   3.004   1.732   0.152
 1196SOL     OW 3590   2.064   0.285   1.498
 1196SOL    HW1 3591   1.984   0.345   1.485
 1196SOL    HW2 3592   2.054   0.236   1.584
 1197SOL     OW 3593   3.494   1.377   0.081
 1197SOL    HW1 3594   3.462   1.471   0.071
 1197SOL    HW2 3595   3.418   1.314   0.069
 1198SOL     OW 3596   2.326   1.743   0.323
 1198SOL    HW1 3597   2.359   1.782   0.409
 1198SOL    HW2 3598   2.402   1.736   0.258
 1199SOL     OW 3599   3.262   0.107   0.426
 1199SOL    HW1 3600   3.238   0.070   0.336
 1199SOL    HW2 3601   3.361   0.123   0.430
 1200SOL     OW 3602   2.111   1.785   1.241
 1200SOL    HW1 3603   2.168   1.720   1.291
 1200SOL    HW2 3604   2.095   1.752   1.148
 1201SOL     OW 3605   2.802   1.698   0.904
 1201SOL    HW1 3606   2.882   1.641   0.925
 1201SOL    HW2 3607   2.753   1.658   0.827
 1202SOL     OW 3608   2.244   0.700   0.480
 1202SOL    HW1 3609   2.289   0.610   0.477
 1202SOL    HW2 3610   2.150   0.689   0.513
 1203SOL     OW 3611   3.409   0.222   1.729
 1203SOL    HW1 3612   3.404   0.259   1.821
 1203SOL    HW2 3613   3.337   0.153   1.717
 1204SOL     OW 3614   2.476   0.122   0.117
 1204SOL    HW1 3615   2.574   0.100   0.124
 1204SOL    HW2 3616   2.445   0.105   0.024
 1205SOL     OW 3617   2.643   0.264   1.749
 1205SOL    HW1 3618   2.710   0.203   1.792
 1205SOL    HW2 3619   2.570   0.283   1.814
 1206SOL     OW 3620   2.750   1.514   1.195
 1206SOL    HW1 3621   2.727   1.489   1.101
 1206SOL    HW2 3622   2.811   1.445   1.234
 1207SOL     OW 3623   3.213   0.590   1.433
 1207SOL    HW1 3624   3.241   0.547   1.518
 1207SOL    HW2 3625   3.238   0.686   1.434
 1208SOL     OW 3626   2.665   1.402   0.924
 1208SOL    HW1 3627   2.755   1.416   0.882
 1208SOL    HW2 3628   2.594   1.404   0.853
 1209SOL     OW 3629   2.784   0.503   0.899
 1209SOL    HW1 3630   2.759   0.494   0.803
 1209SOL    HW2 3631   2.832   0.421   0.930
 1210SOL     OW 3632   2.401   0.064   0.512
 1210SOL    HW1 3633   2.320   0.065   0.570
 1210SOL    HW2 3634   2.404   0.147   0.457
 1211SOL     OW 3635   3.296   1.188   0.041
 1211SOL    HW1 3636   3.328   1.112   0.098
 1211SOL    HW2 3637   3.204   1.215   0.071
 1212SOL     OW 3638   2.159   0.035   0.171
 1212SOL    HW1 3639   2.208   0.119   0.150
 1212SOL    HW2 3640   2.221  -0.030   0.216
 1213SOL     OW 3641   2.797   0.236   0.480
 1213SOL    HW1 3642   2.749   0.277   0.402
 1213SOL    HW2 3643   2.896   0.234   0.461
 1214SOL     OW 3644   2.938   0.683   1.464
 1214SOL    HW1 3645   2.858   0.622   1.467
 1214SOL    HW2 3646   3.019   0.630   1.440
 1215SOL     OW 3647   3.089   1.570   0.793
 1215SOL    HW1 3648   3.110   1.644   0.728
 1215SOL    HW2 3649   3.157   1.570   0.866
 1216SOL     OW 3650   2.321   1.152   0.741
 1216SOL    HW1 3651   2.250   1.125   0.806
 1216SOL    HW2 3652   2.295   1.124   0.648
 1217SOL     OW 3653   3.133   1.797   0.591
 1217SOL    HW1 3654   3.177   1.861   0.527
 1217SOL    HW2 3655   3.083   1.849   0.661
 1218SOL     OW 3656   2.894   0.549   0.016
 1218SOL    HW1 3657   2.853   0.631  -0.023
 1218SOL    HW2 3658   2.958   0.575   0.089
 1219SOL     OW 3659   1.940   0.556   1.386
 1219SOL    HW1 3660   2.032   0.555   1.345
 1219SOL    HW2 3661   1.934   0.630   1.453
 1220SOL     OW 3662   2.423   0.222   1.147
 1220SOL    HW1 3663   2.461   0.138   1.184
 1220SOL    HW2 3664   2.335   0.241   1.191
 1221SOL     OW 3665   2.728   0.454   0.642
 1221SOL    HW1 3666   2.696   0.526   0.580
 1221SOL    HW2 3667   2.752   0.373   0.589
 1222SOL     OW 3668   2.879   0.039   0.753
 1222SOL    HW1 3669   2.807   0.044   0.684
 1222SOL    HW2 3670   2.855  -0.030   0.822
 1223SOL     OW 3671   3.291   1.173   0.867
 1223SOL    HW1 3672   3.236   1.089   0.860
 1223SOL    HW2 3673   3.317   1.202   0.775
 1224SOL     OW 3674   3.328   0.590   0.992
 1224SOL    HW1 3675   3.298   0.495   0.999
 1224SOL    HW2 3676   3.401   0.606   1.058
 1225SOL     OW 3677   3.719   0.833   0.377
 1225SOL    HW1 3678   3.761   0.769   0.441
 1225SOL    HW2 3679   3.681   0.782   0.299
 1226SOL     OW 3680   2.350   1.385   0.174
 1226SOL    HW1 3681   2.263   1.370   0.221
 1226SOL    HW2 3682   2.333   1.411   0.079
 1227SOL     OW 3683   3.526   1.280   0.657
 1227SOL    HW1 3684   3.625   1.288   0.671
 1227SOL    HW2 3685   3.481   1.364   0.688
 1228SOL     OW 3686   3.252   0.575   0.078
 1228SOL    HW1 3687   3.198   0.554   0.159
 1228SOL    HW2 3688   3.343   0.534   0.087
 1229SOL     OW 3689   2.389   0.256   0.328
 1229SOL    HW1 3690   2.416   0.197   0.253
 1229SOL    HW2 3691   2.389   0.351   0.297
 1230SOL     OW 3692   3.616   1.223   1.588
 1230SOL    HW1 3693   3.707   1.184   1.575
 1230SOL    HW2 3694   3.624   1.319   1.612
 1231SOL     OW 3695   2.926   1.347   1.340
 1231SOL    HW1 3696   2.846   1.324   1.395
 1231SOL    HW2 3697   3.009   1.321   1.389
 1232SOL     OW 3698   3.454   1.629   1.625
 1232SOL    HW1 3699   3.481   1.663   1.535
 1232SOL    HW2 3700   3.533   1.591   1.671
 1233SOL     OW 3701   2.973   1.195   1.100
 1233SOL    HW1 3702   2.933   1.239   1.181
 1233SOL    HW2 3703   2.932   1.232   1.017
 1234SOL     OW 3704   3.500   1.099   1.079
 1234SOL    HW1 3705   3.505   1.180   1.138
 1234SOL    HW2 3706   3.414   1.101   1.028
 1235SOL     OW 3707   2.777   0.089   1.402
 1235SOL    HW1 3708   2.802   0.069   1.307
 1235SOL    HW2 3709   2.849   0.145   1.444
 1236SOL     OW 3710   2.842   1.116   1.719
 1236SOL    HW1 3711   2.743   1.122   1.729
 1236SOL    HW2 3712   2.865   1.036   1.663
 1237SOL     OW 3713   2.567   1.050   0.368
 1237SOL    HW1 3714   2.553   1.057   0.467
 1237SOL    HW2 3715   2.651   0.999   0.350
 1238SOL     OW 3716   2.272   0.813   1.251
 1238SOL    HW1 3717   2.358   0.825   1.301
 1238SOL    HW2 3718   2.230   0.726   1.278
 1239SOL     OW 3719   3.136   0.386   1.262
 1239SOL    HW1 3720   3.157   0.460   1.326
 1239SOL    HW2 3721   3.047   0.403   1.219
 1240SOL     OW 3722   1.926   1.564   1.331
 1240SOL    HW1 3723   1.880   1.646   1.297
 1240SOL    HW2 3724   2.024   1.583   1.340
 1241SOL     OW 3725   2.229   1.100   0.501
 1241SOL    HW1 3726   2.222   1.183   0.445
 1241SOL    HW2 3727   2.233   1.020   0.441
 1242SOL     OW 3728   2.428   0.537   0.865
 1242SOL    HW1 3729   2.440   0.603   0.791
 1242SOL    HW2 3730   2.474   0.571   0.948
 1243SOL     OW 3731   3.114   1.348   0.388
 1243SOL    HW1 3732   3.164   1.425   0.428
 1243SOL    HW2 3733   3.019   1.350   0.420
 1244SOL     OW 3734   3.134   1.445   1.142
 1244SOL    HW1 3735   3.181   1.458   1.229
 1244SOL    HW2 3736   3.068   1.371   1.151
 1245SOL     OW 3737   3.444   0.639   0.472
 1245SOL    HW1 3738   3.413   0.700   0.545
 1245SOL    HW2 3739   3.494   0.691   0.403
 1246SOL     OW 3740   2.216   1.510   1.329
 1246SOL    HW1 3741   2.195   1.466   1.242
 1246SOL    HW2 3742   2.313   1.536   1.332
 1247SOL     OW 3743   2.264   0.751   1.598
 1247SOL    HW1 3744   2.332   0.806   1.551
 1247SOL    HW2 3745   2.304   0.663   1.625
 1248SOL     OW 3746   3.449   0.779   1.670
 1248SOL    HW1 3747   3.357   0.817   1.665
 1248SOL    HW2 3748   3.509   0.826   1.605
 1249SOL     OW 3749   2.875   0.105   1.770
 1249SOL    HW1 3750   2.881   0.190   1.718
 1249SOL    HW2 3751   2.907   0.029   1.713
 1250SOL     OW 3752   2.366   0.050   1.740
 1250SOL    HW1 3753   2.324  -0.007   1.670
 1250SOL    HW2 3754   2.300   0.119   1.772
 1251SOL     OW 3755   2.435   0.870   1.029
 1251SOL    HW1 3756   2.479   0.959   1.020
 1251SOL    HW2 3757   2.372   0.870   1.106
 1252SOL     OW 3758   3.222   0.862   1.045
 1252SOL    HW1 3759   3.147   0.862   0.979
 1252SOL    HW2 3760   3.259   0.770   1.054
 1253SOL     OW 3761   3.071   0.525   0.275
 1253SOL    HW1 3762   3.084   0.441   0.329
 1253SOL    HW2 3763   3.042   0.599   0.335
 1254SOL     OW 3764   2.169   0.213   1.231
 1254SOL    HW1 3765   2.146   0.250   1.321
 1254SOL    HW2 3766   2.139   0.118   1.225
 1255SOL     OW 3767   1.899   1.310   1.282
 1255SOL    HW1 3768   1.952   1.261   1.350
 1255SOL    HW2 3769   1.921   1.408   1.287
 1256SOL     OW 3770   2.594   0.634   1.064
 1256SOL    HW1 3771   2.653   0.608   0.988
 1256SOL    HW2 3772   2.566   0.730   1.053
 1257SOL     OW 3773   3.590   0.935   1.854
 1257SOL    HW1 3774   3.544   0.928   1.765
 1257SOL    HW2 3775   3.528   0.979   1.920
 1258SOL     OW 3776   2.169   0.063   0.618
 1258SOL    HW1 3777   2.158   0.157   0.651
 1258SOL    HW2 3778   2.164   0.000   0.695
 1259SOL     OW 3779   3.484   0.367   0.374
 1259SOL    HW1 3780   3.486   0.291   0.438
 1259SOL    HW2 3781   3.436   0.444   0.414
 1260SOL     OW 3782   2.885   0.766   0.966
 1260SOL    HW1 3783   2.900   0.787   1.062
 1260SOL    HW2 3784   2.855   0.671   0.957
 1261SOL     OW 3785   2.842   1.573   1.700
 1261SOL    HW1 3786   2.822   1.617   1.612
 1261SOL    HW2 3787   2.881   1.482   1.684
 1262SOL     OW 3788   3.721   1.518   1.605
 1262SOL    HW1 3789   3.735   1.545   1.510
 1262SOL    HW2 3790   3.804   1.540   1.658
 1263SOL     OW 3791   2.212   0.898   1.804
 1263SOL    HW1 3792   2.288   0.942   1.852
 1263SOL    HW2 3793   2.247   0.851   1.722
 1264SOL     OW 3794   3.402   0.274   0.125
 1264SOL    HW1 3795   3.341   0.199   0.148
 1264SOL    HW2 3796   3.424   0.326   0.208
 1265SOL     OW 3797   3.165   0.838   0.042
 1265SOL    HW1 3798   3.199   0.745   0.057
 1265SOL    HW2 3799   3.183   0.865  -0.053
 1266SOL     OW 3800   2.930   1.333   0.849
 1266SOL    HW1 3801   2.937   1.249   0.794
 1266SOL    HW2 3802   2.992   1.402   0.813
 1267SOL     OW 3803   2.181   0.810   0.949
 1267SOL    HW1 3804   2.274   0.846   0.954
 1267SOL    HW2 3805   2.175   0.725   1.001
 1268SOL     OW 3806   2.201   0.509   1.006
 1268SOL    HW1 3807   2.149   0.426   0.989
 1268SOL    HW2 3808   2.278   0.514   0.942
 1269SOL     OW 3809   3.000   0.380   1.678
 1269SOL    HW1 3810   2.955   0.443   1.742
 1269SOL    HW2 3811   3.093   0.411   1.661
 1270SOL     OW 3812   3.022   0.207   1.477
 1270SOL    HW1 3813   3.022   0.271   1.554
 1270SOL    HW2 3814   3.050   0.255   1.394
 1271SOL     OW 3815   1.870   1.326   0.200
 1271SOL    HW1 3816   1.777   1.347   0.169
 1271SOL    HW2 3817   1.880   1.227   0.213
 1272SOL     OW 3818   1.950   1.801   0.927
 1272SOL    HW1 3819   1.908   1.715   0.900
 1272SOL    HW2 3820   2.044   1.804   0.893
 1273SOL     OW 3821   2.366   1.568   0.910
 1273SOL    HW1 3822   2.432   1.642   0.919
 1273SOL    HW2 3823   2.410   1.489   0.868
 1274SOL     OW 3824   2.864   0.796   1.238
 1274SOL    HW1 3825   2.905   0.764   1.324
 1274SOL    HW2 3826   2.768   0.769   1.235
 1275SOL     OW 3827   1.902   0.544   1.114
 1275SOL    HW1 3828   1.987   0.511   1.073
 1275SOL    HW2 3829   1.915   0.559   1.212
 1276SOL     OW 3830   2.051   0.520   1.722
 1276SOL    HW1 3831   2.110   0.480   1.652
 1276SOL    HW2 3832   1.993   0.591   1.681
 1277SOL     OW 3833   3.231   0.950   1.660
 1277SOL    HW1 3834   3.270   1.039   1.680
 1277SOL    HW2 3835   3.241   0.930   1.563
 1278SOL     OW 3836   2.677   0.572   0.325
 1278SOL    HW1 3837   2.684   0.483   0.279
 1278SOL    HW2 3838   2.583   0.606   0.317
 1279SOL     OW 3839   3.519   0.604   1.206
 1279SOL    HW1 3840   3.481   0.535   1.268
 1279SOL    HW2 3841   3.601   0.568   1.162
 1280SOL     OW 3842   2.114   1.564   1.744
 1280SOL    HW1 3843   2.084   1.621   1.820
 1280SOL    HW2 3844   2.107   1.467   1.770
 1281SOL     OW 3845   2.533   0.464   1.269
 1281SOL    HW1 3846   2.499   0.375   1.239
 1281SOL    HW2 3847   2.559   0.518   1.189
 1282SOL     OW 3848   2.792   1.678   1.465
 1282SOL    HW1 3849   2.768   1.660   1.370
 1282SOL    HW2 3850   2.822   1.772   1.475
 1283SOL     OW 3851   2.335   0.500   0.191
 1283SOL    HW1 3852   2.396   0.580   0.195
 1283SOL    HW2 3853   2.240   0.531   0.198
 1284SOL     OW 3854   2.021   1.137   1.466
 1284SOL    HW1 3855   2.043   1.076   1.542
 1284SOL    HW2 3856   2.031   1.088   1.380
 1285SOL     OW 3857   3.209   1.059   1.234
 1285SOL    HW1 3858   3.233   0.996   1.160
 1285SOL    HW2 3859   3.119   1.099   1.216
 1286SOL     OW 3860   3.164   0.855   0.309
 1286SOL    HW1 3861   3.078   0.824   0.351
 1286SOL    HW2 3862   3.160   0.841   0.210
 1287SOL     OW 3863   3.621   1.747   1.154
 1287SOL    HW1 3864   3.682   1.777   1.081
 1287SOL    HW2 3865   3.583   1.658   1.132
 1288SOL     OW 3866   3.114   1.731   1.128
 1288SOL    HW1 3867   3.198   1.736   1.074
 1288SOL    HW2 3868   3.091   1.635   1.146
 1289SOL     OW 3869   1.945   1.258   1.022
 1289SOL    HW1 3870   1.940   1.257   1.122
 1289SOL    HW2 3871   1.862   1.217   0.984
 1290SOL     OW 3872   2.550   1.662   1.716
 1290SOL    HW1 3873   2.494   1.743   1.725
 1290SOL    HW2 3874   2.602   1.666   1.630
 1291SOL     OW 3875   2.765   0.086   0.133
 1291SOL    HW1 3876   2.816   0.087   0.047
 1291SOL    HW2 3877   2.821   0.044   0.204
 1292SOL     OW 3878   3.588   0.135   0.523
 1292SOL    HW1 3879   3.661   0.118   0.456
 1292SOL    HW2 3880   3.557   0.048   0.561
 1293SOL     OW 3881   3.250   1.573   0.477
 1293SOL    HW1 3882   3.317   1.585   0.403
 1293SOL    HW2 3883   3.210   1.662   0.500
 1294SOL     OW 3884   1.992   1.794   1.851
 1294SOL    HW1 3885   1.951   1.720   1.904
 1294SOL    HW2 3886   2.056   1.845   1.909
 1295SOL     OW 3887   3.142   0.927   0.672
 1295SOL    HW1 3888   3.202   0.846   0.674
 1295SOL    HW2 3889   3.182   0.996   0.612
 1296SOL     OW 3890   2.692   1.273   1.422
 1296SOL    HW1 3891   2.687   1.306   1.517
 1296SOL    HW2 3892   2.606   1.292   1.376
 1297SOL     OW 3893   2.534   1.616   0.154
 1297SOL    HW1 3894   2.543   1.626   0.055
 1297SOL    HW2 3895   2.494   1.527   0.175
 1298SOL     OW 3896   3.512   1.720   1.394
 1298SOL    HW1 3897   3.565   1.730   1.310
 1298SOL    HW2 3898   3.485   1.810   1.428
 1299SOL     OW 3899   3.703   0.175   0.963
 1299SOL    HW1 3900   3.742   0.090   0.927
 1299SOL    HW2 3901   3.605   0.177   0.944
 1300SOL     OW 3902   2.125   0.326   0.720
 1300SOL    HW1 3903   2.046   0.377   0.686
 1300SOL    HW2 3904   2.116   0.311   0.818
 1301SOL     OW 3905   3.056   1.612   0.031
 1301SOL    HW1 3906   3.062   1.519   0.068
 1301SOL    HW2 3907   2.997   1.612  -0.049
 1302SOL     OW 3908   2.684   1.002   1.372
 1302SOL    HW1 3909   2.724   1.001   1.280
 1302SOL    HW2 3910   2.694   1.094   1.412
 1303SOL     OW 3911   2.778   0.910   0.291
 1303SOL    HW1 3912   2.841   0.948   0.223
 1303SOL    HW2 3913   2.818   0.827   0.330
 1304SOL     OW 3914   3.366   1.607   0.044
 1304SOL    HW1 3915   3.274   1.644   0.051
 1304SOL    HW2 3916   3.404   1.627  -0.046
 1305SOL     OW 3917   2.234   1.288   1.490
 1305SOL    HW1 3918   2.221   1.381   1.456
 1305SOL    HW2 3919   2.150   1.236   1.477
 1306SOL     OW 3920   3.476   1.292   1.289
 1306SOL    HW1 3921   3.536   1.295   1.369
 1306SOL    HW2 3922   3.401   1.356   1.302
 1307SOL     OW 3923   2.901   1.098   0.696
 1307SOL    HW1 3924   2.831   1.051   0.750
 1307SOL    HW2 3925   2.960   1.030   0.653
 1308SOL     OW 3926   2.876   0.236   0.971
 1308SOL    HW1 3927   2.868   0.200   0.878
 1308SOL    HW2 3928   2.874   0.160   1.036
 1309SOL     OW 3929   2.452   1.487   0.491
 1309SOL    HW1 3930   2.494   1.429   0.421
 1309SOL    HW2 3931   2.408   1.566   0.447
 1310SOL     OW 3932   3.571   0.385   1.381
 1310SOL    HW1 3933   3.644   0.454   1.385
 1310SOL    HW2 3934   3.599   0.310   1.322
 1311SOL     OW 3935   2.117   1.348   0.290
 1311SOL    HW1 3936   2.021   1.349   0.263
 1311SOL    HW2 3937   2.129   1.401   0.374
 1312SOL     OW 3938   1.967   1.013   1.726
 1312SOL    HW1 3939   1.890   0.980   1.780
 1312SOL    HW2 3940   2.052   0.983   1.768
 1313SOL     OW 3941   2.534   0.203   1.489
 1313SOL    HW1 3942   2.624   0.187   1.449
 1313SOL    HW2 3943   2.542   0.208   1.588
 1314SOL     OW 3944   1.937   0.345   0.033
 1314SOL    HW1 3945   1.845   0.317   0.004
 1314SOL    HW2 3946   1.968   0.422  -0.023
 1315SOL     OW 3947   3.302   0.856   1.398
 1315SOL    HW1 3948   3.245   0.908   1.335
 1315SOL    HW2 3949   3.398   0.868   1.374
 1316SOL     OW 3950   1.934   0.166   0.318
 1316SOL    HW1 3951   1.917   0.249   0.264
 1316SOL    HW2 3952   2.024   0.129   0.296
 1317SOL     OW 3953   3.045   1.335   0.119
 1317SOL    HW1 3954   2.946   1.324   0.121
 1317SOL    HW2 3955   3.079   1.350   0.212
 1318SOL     OW 3956   2.475   0.842   1.431
 1318SOL    HW1 3957   2.531   0.923   1.414
 1318SOL    HW2 3958   2.534   0.762   1.434
 1319SOL     OW 3959   3.355   1.767   0.959
 1319SOL    HW1 3960   3.388   1.831   0.890
 1319SOL    HW2 3961   3.421   1.761   1.034
 1320SOL     OW 3962   2.578   0.565   1.708
 1320SOL    HW1 3963   2.597   0.630   1.782
 1320SOL    HW2 3964   2.638   0.485   1.717
 1321SOL     OW 3965   3.312   1.220   1.633
 1321SOL    HW1 3966   3.303   1.210   1.732
 1321SOL    HW2 3967   3.408   1.213   1.607
 1322SOL     OW 3968   2.252   1.741   1.560
 1322SOL    HW1 3969   2.161   1.782   1.558
 1322SOL    HW2 3970   2.245   1.647   1.592
 1323SOL     OW 3971   3.536   0.883   1.254
 1323SOL    HW1 3972   3.509   0.794   1.217
 1323SOL    HW2 3973   3.537   0.951   1.181
 1324SOL     OW 3974   3.087   0.325   0.449
 1324SOL    HW1 3975   3.152   0.251   0.438
 1324SOL    HW2 3976   3.107   0.375   0.533
 1325SOL     OW 3977   2.456   0.745   0.652
 1325SOL    HW1 3978   2.506   0.830   0.633
 1325SOL    HW2 3979   2.368   0.747   0.604
 1326SOL     OW 3980   3.639   0.342   1.642
 1326SOL    HW1 3981   3.622   0.373   1.548
 1326SOL    HW2 3982   3.555   0.305   1.680
 1327SOL     OW 3983   3.592   0.934   1.517
 1327SOL    HW1 3984   3.630   1.025   1.532
 1327SOL    HW2 3985   3.584   0.917   1.418
 1328SOL     OW 3986   2.721   1.374   0.016
 1328SOL    HW1 3987   2.675   1.389   0.104
 1328SOL    HW2 3988   2.765   1.459  -0.014
 1329SOL     OW 3989   2.523   1.790   0.953
 1329SOL    HW1 3990   2.477   1.878   0.940
 1329SOL    HW2 3991   2.622   1.802   0.946
 1330SOL     OW 3992   2.721   0.956   0.861
 1330SOL    HW1 3993   2.775   0.887   0.909
 1330SOL    HW2 3994   2.689   1.025   0.927
 1331SOL     OW 3995   2.945   0.984   0.087
 1331SOL    HW1 3996   2.922   1.037   0.005
 1331SOL    HW2 3997   3.026   0.928   0.068
 1332SOL     OW 3998   3.723   1.569   0.851
 1332SOL    HW1 3999   3.652   1.557   0.781
 1332SOL    HW2 4000   3.724   1.490   0.911
 1333SOL     OW 4001   2.083   1.314   1.844
 1333SOL    HW1 4002   2.018   1.241   1.823
 1333SOL    HW2 4003   2.087   1.328   1.942
 1334SOL     OW 4004   1.941   1.240   0.653
 1334SOL    HW1 4005   1.940   1.193   0.741
 1334SOL    HW2 4006   2.023   1.212   0.602
 1335SOL     OW 4007   2.534   1.391   1.624
 1335SOL    HW1 4008   2.456   1.341   1.662
 1335SOL    HW2 4009   2.531   1.486   1.655
 1336SOL     OW 4010   3.686   0.192   1.227
 1336SOL    HW1 4011   3.682   0.102   1.271
 1336SOL    HW2 4012   3.689   0.181   1.128
 1337SOL     OW 4013   2.290   0.424   0.520
 1337SOL    HW1 4014   2.320   0.352   0.458
 1337SOL    HW2 4015   2.251   0.384   0.603
 1338SOL     OW 4016   3.567   1.487   1.104
 1338SOL    HW1 4017   3.474   1.462   1.077
 1338SOL    HW2 4018   3.593   1.437   1.186
 1339SOL     OW 4019   2.179   0.547   1.280
 1339SOL    HW1 4020   2.217   0.488   1.352
 1339SOL    HW2 4021   2.219   0.521   1.192
 1340SOL     OW 4022   2.674   1.586   0.687
 1340SOL    HW1 4023   2.706   1.596   0.593
 1340SOL    HW2 4024   2.595   1.524   0.689
 1341SOL     OW 4025   3.286   0.214   1.112
 1341SOL    HW1 4026   3.338   0.149   1.167
 1341SOL    HW2 4027   3.237   0.277   1.173
 1342SOL     OW 4028   2.863   0.034   1.154
 1342SOL    HW1 4029   2.800  -0.038   1.123
 1342SOL    HW2 4030   2.956  -0.002   1.154
 1343SOL     OW 4031   2.632   1.330   0.301
 1343SOL    HW1 4032   2.586   1.243   0.318
 1343SOL    HW2 4033   2.723   1.327   0.342
 1344SOL     OW 4034   2.480   1.567   1.284
 1344SOL    HW1 4035   2.475   1.649   1.341
 1344SOL    HW2 4036   2.569   1.564   1.239
 1345SOL     OW 4037   3.214   0.052   0.168
 1345SOL    HW1 4038   3.249   0.011   0.084
 1345SOL    HW2 4039   3.124   0.014   0.188
 1346SOL     OW 4040   3.162   0.453   0.691
 1346SOL    HW1 4041   3.103   0.533   0.695
 1346SOL    HW2 4042   3.177   0.418   0.784
 1347SOL     OW 4043   3.455   0.221   0.882
 1347SOL    HW1 4044   3.371   0.220   0.936
 1347SOL    HW2 4045   3.457   0.304   0.826
 1348SOL     OW 4046   1.901   1.077   0.300
 1348SOL    HW1 4047   2.000   1.066   0.291
 1348SOL    HW2 4048   1.861   0.991   0.332
 1349SOL     OW 4049   2.737   1.646   0.337
 1349SOL    HW1 4050   2.660   1.611   0.283
 1349SOL    HW2 4051   2.705   1.717   0.399
 1350SOL     OW 4052   2.092   0.628   1.975
 1350SOL    HW1 4053   1.999   0.626   2.012
 1350SOL    HW2 4054   2.093   0.589   1.883
 1351SOL     OW 4055   2.087   0.275   2.858
 1351SOL    HW1 4056   2.122   0.258   2.950
 1351SOL    HW2 4057   1.999   0.230   2.846
 1352SOL     OW 4058   1.881   0.368   2.509
 1352SOL    HW1 4059   1.799   0.411   2.548
 1352SOL    HW2 4060   1.853   0.295   2.446
 1353SOL     OW 4061   2.431   1.275   3.027
 1353SOL    HW1 4062   2.338   1.268   2.990
 1353SOL    HW2 4063   2.442   1.364   3.071
 1354SOL     OW 4064   3.417   1.511   2.565
 1354SOL    HW1 4065   3.360   1.495   2.646
 1354SOL    HW2 4066   3.358   1.521   2.485
 1355SOL     OW 4067   2.997   0.703   2.579
 1355SOL    HW1 4068   3.054   0.781   2.554
 1355SOL    HW2 4069   2.937   0.729   2.655
 1356SOL     OW 4070   3.617   0.607   2.093
 1356SOL    HW1 4071   3.605   0.594   1.994
 1356SOL    HW2 4072   3.587   0.526   2.142
 1357SOL     OW 4073   2.630   1.144   2.885
 1357SOL    HW1 4074   2.552   1.161   2.945
 1357SOL    HW2 4075   2.664   1.231   2.849
 1358SOL     OW 4076   2.712   0.798   3.685
 1358SOL    HW1 4077   2.708   0.874   3.750
 1358SOL    HW2 4078   2.734   0.834   3.594
 1359SOL     OW 4079   2.547   1.012   2.527
 1359SOL    HW1 4080   2.616   0.996   2.597
 1359SOL    HW2 4081   2.474   1.069   2.565
 1360SOL     OW 4082   2.548   1.161   3.665
 1360SOL    HW1 4083   2.608   1.240   3.679
 1360SOL    HW2 4084   2.462   1.192   3.624
 1361SOL     OW 4085   2.197   1.435   2.923
 1361SOL    HW1 4086   2.119   1.404   2.870
 1361SOL    HW2 4087   2.255   1.493   2.866
 1362SOL     OW 4088   3.322   1.505   3.201
 1362SOL    HW1 4089   3.346   1.599   3.227
 1362SOL    HW2 4090   3.306   1.451   3.283
 1363SOL     OW 4091   2.300   0.392   3.361
 1363SOL    HW1 4092   2.382   0.336   3.370
 1363SOL    HW2 4093   2.219   0.334   3.365
 1364SOL     OW 4094   3.465   0.447   2.599
 1364SOL    HW1 4095   3.391   0.493   2.549
 1364SOL    HW2 4096   3.516   0.515   2.652
 1365SOL     OW 4097   2.093   1.713   2.345
 1365SOL    HW1 4098   2.127   1.790   2.399
 1365SOL    HW2 4099   2.137   1.713   2.255
 1366SOL     OW 4100   2.989   1.341   3.552
 1366SOL    HW1 4101   3.036   1.341   3.640
 1366SOL    HW2 4102   2.941   1.254   3.541
 1367SOL     OW 4103   2.092   1.434   2.400
 1367SOL    HW1 4104   2.066   1.530   2.400
 1367SOL    HW2 4105   2.021   1.380   2.445
 1368SOL     OW 4106   2.102   1.091   2.748
 1368SOL    HW1 4107   2.116   1.007   2.800
 1368SOL    HW2 4108   2.047   1.155   2.803
 1369SOL     OW 4109   2.482   1.786   3.301
 1369SOL    HW1 4110   2.390   1.769   3.336
 1369SOL    HW2 4111   2.510   1.878   3.327
 1370SOL     OW 4112   2.468   0.964   1.985
 1370SOL    HW1 4113   2.475   1.048   1.931
 1370SOL    HW2 4114   2.514   0.977   2.073
 1371SOL     OW 4115   3.456   0.114   3.342
 1371SOL    HW1 4116   3.438   0.181   3.270
 1371SOL    HW2 4117   3.453   0.160   3.431
 1372SOL     OW 4118   1.984   0.643   2.425
 1372SOL    HW1 4119   1.939   0.555   2.442
 1372SOL    HW2 4120   1.983   0.697   2.509
 1373SOL     OW 4121   3.704   1.767   2.221
 1373SOL    HW1 4122   3.758   1.738   2.301
 1373SOL    HW2 4123   3.734   1.857   2.192
 1374SOL     OW 4124   1.889   1.596   1.979
 1374SOL    HW1 4125   1.870   1.500   2.000
 1374SOL    HW2 4126   1.856   1.654   2.054
 1375SOL     OW 4127   3.551   0.922   2.474
 1375SOL    HW1 4128   3.646   0.893   2.482
 1375SOL    HW2 4129   3.543   0.987   2.399
 1376SOL     OW 4130   3.503   1.108   2.294
 1376SOL    HW1 4131   3.589   1.110   2.242
 1376SOL    HW2 4132   3.517   1.155   2.382
 1377SOL     OW 4133   1.975   0.737   3.459
 1377SOL    HW1 4134   2.063   0.724   3.504
 1377SOL    HW2 4135   1.962   0.834   3.437
 1378SOL     OW 4136   2.475   1.365   2.588
 1378SOL    HW1 4137   2.426   1.278   2.597
 1378SOL    HW2 4138   2.452   1.408   2.501
 1379SOL     OW 4139   3.155   1.228   3.285
 1379SOL    HW1 4140   3.192   1.155   3.227
 1379SOL    HW2 4141   3.207   1.233   3.370
 1380SOL     OW 4142   2.671   0.004   2.364
 1380SOL    HW1 4143   2.711   0.095   2.355
 1380SOL    HW2 4144   2.571   0.012   2.370
 1381SOL     OW 4145   2.059   0.976   3.126
 1381SOL    HW1 4146   2.148   0.931   3.112
 1381SOL    HW2 4147   1.986   0.911   3.107
 1382SOL     OW 4148   3.387   0.999   2.052
 1382SOL    HW1 4149   3.324   0.923   2.065
 1382SOL    HW2 4150   3.435   1.017   2.138
 1383SOL     OW 4151   3.049   1.792   3.478
 1383SOL    HW1 4152   3.073   1.852   3.402
 1383SOL    HW2 4153   3.056   1.697   3.448
 1384SOL     OW 4154   2.179   0.251   3.663
 1384SOL    HW1 4155   2.250   0.322   3.669
 1384SOL    HW2 4156   2.091   0.290   3.691
 1385SOL     OW 4157   3.328   1.417   2.815
 1385SOL    HW1 4158   3.269   1.423   2.895
 1385SOL    HW2 4159   3.313   1.329   2.769
 1386SOL     OW 4160   3.529   1.714   2.434
 1386SOL    HW1 4161   3.488   1.691   2.346
 1386SOL    HW2 4162   3.511   1.640   2.499
 1387SOL     OW 4163   2.460   0.729   2.132
 1387SOL    HW1 4164   2.484   0.798   2.064
 1387SOL    HW2 4165   2.382   0.762   2.186
 1388SOL     OW 4166   3.143   0.345   2.806
 1388SOL    HW1 4167   3.057   0.295   2.793
 1388SOL    HW2 4168   3.205   0.291   2.862
 1389SOL     OW 4169   3.438   1.662   2.169
 1389SOL    HW1 4170   3.527   1.708   2.172
 1389SOL    HW2 4171   3.417   1.638   2.074
 1390SOL     OW 4172   2.669   0.605   3.327
 1390SOL    HW1 4173   2.622   0.602   3.416
 1390SOL    HW2 4174   2.618   0.550   3.261
 1391SOL     OW 4175   3.256   0.469   3.536
 1391SOL    HW1 4176   3.236   0.512   3.624
 1391SOL    HW2 4177   3.334   0.407   3.545
 1392SOL     OW 4178   2.835   0.890   3.434
 1392SOL    HW1 4179   2.881   0.806   3.405
 1392SOL    HW2 4180   2.779   0.924   3.359
 1393SOL     OW 4181   2.853   0.410   3.104
 1393SOL    HW1 4182   2.776   0.444   3.158
 1393SOL    HW2 4183   2.819   0.359   3.025
 1394SOL     OW 4184   2.903   0.701   2.291
 1394SOL    HW1 4185   2.929   0.697   2.387
 1394SOL    HW2 4186   2.818   0.650   2.277
 1395SOL     OW 4187   1.938   0.811   2.651
 1395SOL    HW1 4188   2.037   0.799   2.660
 1395SOL    HW2 4189   1.914   0.906   2.672
 1396SOL     OW 4190   1.992   1.821   3.433
 1396SOL    HW1 4191   1.982   1.806   3.532
 1396SOL    HW2 4192   1.906   1.857   3.397
 1397SOL     OW 4193   2.727   0.348   2.057
 1397SOL    HW1 4194   2.786   0.411   2.008
 1397SOL    HW2 4195   2.746   0.254   2.028
 1398SOL     OW 4196   3.581   0.585   3.693
 1398SOL    HW1 4197   3.555   0.674   3.657
 1398SOL    HW2 4198   3.579   0.517   3.620
 1399SOL     OW 4199   3.224   1.144   2.407
 1399SOL    HW1 4200   3.307   1.115   2.359
 1399SOL    HW2 4201   3.175   1.211   2.351
 1400SOL     OW 4202   2.412   0.196   2.747
 1400SOL    HW1 4203   2.407   0.191   2.847
 1400SOL    HW2 4204   2.414   0.292   2.718
 1401SOL     OW 4205   2.870   1.456   2.339
 1401SOL    HW1 4206   2.824   1.528   2.287
 1401SOL    HW2 4207   2.866   1.476   2.437
 1402SOL     OW 4208   2.213   1.801   2.715
 1402SOL    HW1 4209   2.263   1.715   2.721
 1402SOL    HW2 4210   2.278   1.878   2.712
 1403SOL     OW 4211   3.657   1.066   2.735
 1403SOL    HW1 4212   3.595   1.051   2.659
 1403SOL    HW2 4213   3.605   1.077   2.820
 1404SOL     OW 4214   3.089   1.550   3.368
 1404SOL    HW1 4215   3.095   1.473   3.432
 1404SOL    HW2 4216   3.037   1.524   3.288
 1405SOL     OW 4217   2.183   0.943   2.104
 1405SOL    HW1 4218   2.265   0.982   2.062
 1405SOL    HW2 4219   2.156   0.861   2.055
 1406SOL     OW 4220   3.320   0.735   2.590
 1406SOL    HW1 4221   3.315   0.670   2.665
 1406SOL    HW2 4222   3.400   0.794   2.603
 1407SOL     OW 4223   2.323   1.266   3.589
 1407SOL    HW1 4224   2.273   1.267   3.503
 1407SOL    HW2 4225   2.260   1.248   3.665
 1408SOL     OW 4226   2.973   1.776   2.099
 1408SOL    HW1 4227   2.913   1.714   2.149
 1408SOL    HW2 4228   3.004   1.732   2.014
 1409SOL     OW 4229   2.064   0.285   3.360
 1409SOL    HW1 4230   1.984   0.345   3.347
 1409SOL    HW2 4231   2.054   0.236   3.446
 1410SOL     OW 4232   3.494   1.377   1.943
 1410SOL    HW1 4233   3.462   1.471   1.933
 1410SOL    HW2 4234   3.418   1.314   1.931
 1411SOL     OW 4235   2.326   1.743   2.185
 1411SOL    HW1 4236   2.359   1.782   2.271
 1411SOL    HW2 4237   2.402   1.736   2.120
 1412SOL     OW 4238   3.262   0.107   2.288
 1412SOL    HW1 4239   3.238   0.070   2.198
 1412SOL    HW2 4240   3.361   0.123   2.292
 1413SOL     OW 4241   2.111   1.785   3.103
 1413SOL    HW1 4242   2.168   1.720   3.153
 1413SOL    HW2 4243   2.095   1.752   3.010
 1414SOL     OW 4244   2.802   1.698   2.766
 1414SOL    HW1 4245   2.882   1.641   2.787
 1414SOL    HW2 4246   2.753   1.658   2.689
 1415SOL     OW 4247   2.244   0.700   2.342
 1415SOL    HW1 4248   2.289   0.610   2.339
 1415SOL    HW2 4249   2.150   0.689   2.375
 1416SOL     OW 4250   3.409   0.222   3.591
 1416SOL    HW1 4251   3.404   0.259   3.683
 1416SOL    HW2 4252   3.337   0.153   3.579
 1417SOL     OW 4253   2.476   0.122   1.979
 1417SOL    HW1 4254   2.574   0.100   1.986
 1417SOL    HW2 4255   2.445   0.105   1.886
 1418SOL     OW 4256   2.643   0.264   3.611
 1418SOL    HW1 4257   2.710   0.203   3.654
 1418SOL    HW2 4258   2.570   0.283   3.676
 1419SOL     OW 4259   2.750   1.514   3.057
 1419SOL    HW1 4260   2.727   1.489   2.963
 1419SOL    HW2 4261   2.811   1.445   3.096
 1420SOL     OW 4262   3.213   0.590   3.295
 1420SOL    HW1 4263   3.241   0.547   3.380
 1420SOL    HW2 4264   3.238   0.686   3.296
 1421SOL     OW 4265   2.665   1.402   2.786
 1421SOL    HW1 4266   2.755   1.416   2.744
 1421SOL    HW2 4267   2.594   1.404   2.715
 1422SOL     OW 4268   2.784   0.503   2.761
 1422SOL    HW1 4269   2.759   0.494   2.665
 1422SOL    HW2 4270   2.832   0.421   2.792
 1423SOL     OW 4271   2.401   0.064   2.374
 1423SOL    HW1 4272   2.320   0.065   2.432
 1423SOL    HW2 4273   2.404   0.147   2.319
 1424SOL     OW 4274   3.296   1.188   1.903
 1424SOL    HW1 4275   3.328   1.112   1.960
 1424SOL    HW2 4276   3.204   1.215   1.933
 1425SOL     OW 4277   2.159   0.035   2.033
 1425SOL    HW1 4278   2.208   0.119   2.012
 1425SOL    HW2 4279   2.221  -0.030   2.078
 1426SOL     OW 4280   2.797   0.236   2.342
 1426SOL    HW1 4281   2.749   0.277   2.264
 1426SOL    HW2 4282   2.896   0.234   2.323
 1427SOL     OW 4283   2.938   0.683   3.326
 1427SOL    HW1 4284   2.858   0.622   3.329
 1427SOL    HW2 4285   3.019   0.630   3.302
 1428SOL     OW 4286   3.089   1.570   2.655
 1428SOL    HW1 4287   3.110   1.644   2.590
 1428SOL    HW2 4288   3.157   1.570   2.728
 1429SOL     OW 4289   2.321   1.152   2.603
 1429SOL    HW1 4290   2.250   1.125   2.668
 1429SOL    HW2 4291   2.295   1.124   2.510
 1430SOL     OW 4292   3.133   1.797   2.453
 1430SOL    HW1 4293   3.177   1.861   2.389
 1430SOL    HW2 4294   3.083   1.849   2.523
 1431SOL     OW 4295   2.894   0.549   1.878
 1431SOL    HW1 4296   2.853   0.631   1.839
 1431SOL    HW2 4297   2.958   0.575   1.951
 1432SOL     OW 4298   1.940   0.556   3.248
 1432SOL    HW1 4299   2.032   0.555   3.207
 1432SOL    HW2 4300   1.934   0.630   3.315
 1433SOL     OW 4301   2.423   0.222   3.009
 1433SOL    HW1 4302   2.461   0.138   3.046
 1433SOL    HW2 4303   2.335   0.241   3.053
 1434SOL     OW 4304   2.728   0.454   2.504
 1434SOL    HW1 4305   2.696   0.526   2.442
 1434SOL    HW2 4306   2.752   0.373   2.451
 1435SOL     OW 4307   2.879   0.039   2.615
 1435SOL    HW1 4308   2.807   0.044   2.546
 1435SOL    HW2 4309   2.855  -0.030   2.684
 1436SOL     OW 4310   3.291   1.173   2.729
 1436SOL    HW1 4311   3.236   1.089   2.722
 1436SOL    HW2 4312   3.317   1.202   2.637
 1437SOL     OW 4313   3.328   0.590   2.854
 1437SOL    HW1 4314   3.298   0.495   2.861
 1437SOL    HW2 4315   3.401   0.606   2.920
 1438SOL     OW 4316   3.719   0.833   2.239
 1438SOL    HW1 4317   3.761   0.769   2.303
 1438SOL    HW2 4318   3.681   0.782   2.161
 1439SOL     OW 4319   2.350   1.385   2.036
 1439SOL    HW1 4320   2.263   1.370   2.083
 1439SOL    HW2 4321   2.333   1.411   1.941
 1440SOL     OW 4322   3.526   1.280   2.519
 1440SOL    HW1 4323   3.625   1.288   2.533
 1440SOL    HW2 4324   3.481   1.364   2.550
 1441SOL     OW 4325   3.252   0.575   1.940
 1441SOL    HW1 4326   3.198   0.554   2.021
 1441SOL    HW2 4327   3.343   0.534   1.949
 1442SOL     OW 4328   2.389   0.256   2.190
 1442SOL    HW1 4329   2.416   0.197   2.115
 1442SOL    HW2 4330   2.389   0.351   2.159
 1443SOL     OW 4331   3.616   1.223   3.450
 1443SOL    HW1 4332   3.707   1.184   3.437
 1443SOL    HW2 4333   3.624   1.319   3.474
 1444SOL     OW 4334   2.926   1.347   3.202
 1444SOL    HW1 4335   2.846   1.324   3.257
 1444SOL    HW2 4336   3.009   1.321   3.251
 1445SOL     OW 4337   3.454   1.629   3.487
 1445SOL    HW1 4338   3.481   1.663   3.397
 1445SOL    HW2 4339   3.533   1.591   3.533
 1446SOL     OW 4340   2.973   1.195   2.962
 1446SOL    HW1 4341   2.933   1.239   3.043
 1446SOL    HW2 4342   2.932   1.232   2.879
 1447SOL     OW 4343   3.500   1.099   2.941
 1447SOL    HW1 4344   3.505   1.180   3.000
 1447SOL    HW2 4345   3.414   1.101   2.890
 1448SOL     OW 4346   2.777   0.089   3.264
 1448SOL    HW1 4347   2.802   0.069   3.169
 1448SOL    HW2 4348   2.849   0.145   3.306
 1449SOL     OW 4349   2.842   1.116   3.581
 1449SOL    HW1 4350   2.743   1.122   3.591
 1449SOL    HW2 4351   2.865   1.036   3.525
 1450SOL     OW 4352   2.567   1.050   2.230
 1450SOL    HW1 4353   2.553   1.057   2.329
 1450SOL    HW2 4354   2.651   0.999   2.212
 1451SOL     OW 4355   2.272   0.813   3.113
 1451SOL    HW1 4356   2.358   0.825   3.163
 1451SOL    HW2 4357   2.230   0.726   3.140
 1452SOL     OW 4358   3.136   0.386   3.124
 1452SOL    HW1 4359   3.157   0.460   3.188
 1452SOL    HW2 4360   3.047   0.403   3.081
 1453SOL     OW 4361   1.926   1.564   3.193
 1453SOL    HW1 4362   1.880   1.646   3.159
 1453SOL    HW2 4363   2.024   1.583   3.202
 1454SOL     OW 4364   2.229   1.100   2.363
 1454SOL    HW1 4365   2.222   1.183   2.307
 1454SOL    HW2 4366   2.233   1.020   2.303
 1455SOL     OW 4367   2.428   0.537   2.727
 1455SOL    HW1 4368   2.440   0.603   2.653
 1455SOL    HW2 4369   2.474   0.571   2.810
 1456SOL     OW 4370   3.114   1.348   2.250
 1456SOL    HW1 4371   3.164   1.425   2.290
 1456SOL    HW2 4372   3.019   1.350   2.282
 1457SOL     OW 4373   3.134   1.445   3.004
 1457SOL    HW1 4374   3.181   1.458   3.091
 1457SOL    HW2 4375   3.068   1.371   3.013
 1458SOL     OW 4376   3.444   0.639   2.334
 1458SOL    HW1 4377   3.413   0.700   2.407
 1458SOL    HW2 4378   3.494   0.691   2.265
 1459SOL     OW 4379   2.216   1.510   3.191
 1459SOL    HW1 4380   2.195   1.466   3.104
 1459SOL    HW2 4381   2.313   1.536   3.194
 1460SOL     OW 4382   2.264   0.751   3.460
 1460SOL    HW1 4383   2.332   0.806   3.413
 1460SOL    HW2 4384   2.304   0.663   3.487
 1461SOL     OW 4385   3.449   0.779   3.532
 1461SOL    HW1 4386   3.357   0.817   3.527
 1461SOL    HW2 4387   3.509   0.826   3.467
 1462SOL     OW 4388   2.875   0.105   3.632
 1462SOL    HW1 4389   2.881   0.190   3.580
 1462SOL    HW2 4390   2.907   0.029   3.575
 1463SOL     OW 4391   2.366   0.050   3.602
 1463SOL    HW1 4392   2.324  -0.007   3.532
 1463SOL    HW2 4393   2.300   0.119   3.634
 1464SOL     OW 4394   2.435   0.870   2.891
 1464SOL    HW1 4395   2.479   0.959   2.882
 1464SOL    HW2 4396   2.372   0.870   2.968
 1465SOL     OW 4397   3.222   0.862   2.907
 1465SOL    HW1 4398   3.147   0.862   2.841
 1465SOL    HW2 4399   3.259   0.770   2.916
 1466SOL     OW 4400   3.071   0.525   2.137
 1466SOL    HW1 4401   3.084   0.441   2.191
 1466SOL    HW2 4402   3.042   0.599   2.197
 1467SOL     OW 4403   2.169   0.213   3.093
 1467SOL    HW1 4404   2.146   0.250   3.183
 1467SOL    HW2 4405   2.139   0.118   3.087
 1468SOL     OW 4406   1.899   1.310   3.144
 1468SOL    HW1 4407   1.952   1.261   3.212
 1468SOL    HW2 4408   1.921   1.408   3.149
 1469SOL     OW 4409   2.594   0.634   2.926
 1469SOL    HW1 4410   2.653   0.608   2.850
 1469SOL    HW2 4411   2.566   0.730   2.915
 1470SOL     OW 4412   3.590   0.935   3.716
 1470SOL    HW1 4413   3.544   0.928   3.627
 1470SOL    HW2 4414   3.528   0.979   3.782
 1471SOL     OW 4415   2.169   0.063   2.480
 1471SOL    HW1 4416   2.158   0.157   2.513
 1471SOL    HW2 4417   2.164   0.000   2.557
 1472SOL     OW 4418   3.484   0.367   2.236
 1472SOL    HW1 4419   3.486   0.291   2.300
 1472SOL    HW2 4420   3.436   0.444   2.276
 1473SOL     OW 4421   2.885   0.766   2.828
 1473SOL    HW1 4422   2.900   0.787   2.924
 1473SOL    HW2 4423   2.855   0.671   2.819
 1474SOL     OW 4424   2.842   1.573   3.562
 1474SOL    HW1 4425   2.822   1.617   3.474
 1474SOL    HW2 4426   2.881   1.482   3.546
 1475SOL     OW 4427   3.721   1.518   3.467
 1475SOL    HW1 4428   3.735   1.545   3.372
 1475SOL    HW2 4429   3.804   1.540   3.520
 1476SOL     OW 4430   2.212   0.898   3.666
 1476SOL    HW1 4431   2.288   0.942   3.714
 1476SOL    HW2 4432   2.247   0.851   3.584
 1477SOL     OW 4433   3.402   0.274   1.987
 1477SOL    HW1 4434   3.341   0.199   2.010
 1477SOL    HW2 4435   3.424   0.326   2.070
 1478SOL     OW 4436   3.165   0.838   1.904
 1478SOL    HW1 4437   3.199   0.745   1.919
 1478SOL    HW2 4438   3.183   0.865   1.809
 1479SOL     OW 4439   2.930   1.333   2.711
 1479SOL    HW1 4440   2.937   1.249   2.656
 1479SOL    HW2 4441   2.992   1.402   2.675
 1480SOL     OW 4442   2.181   0.810   2.811
 1480SOL    HW1 4443   2.274   0.846   2.816
 1480SOL    HW2 4444   2.175   0.725   2.863
 1481SOL     OW 4445   2.201   0.509   2.868
 1481SOL    HW1 4446   2.149   0.426   2.851
 1481SOL    HW2 4447   2.278   0.514   2.804
 1482SOL     OW 4448   3.000   0.380   3.540
 1482SOL    HW1 4449   2.955   0.443   3.604
 1482SOL    HW2 4450   3.093   0.411   3.523
 1483SOL     OW 4451   3.022   0.207   3.339
 1483SOL    HW1 4452   3.022   0.271   3.416
 1483SOL    HW2 4453   3.050   0.255   3.256
 1484SOL     OW 4454   1.870   1.326   2.062
 1484SOL    HW1 4455   1.777   1.347   2.031
 1484SOL    HW2 4456   1.880   1.227   2.075
 1485SOL     OW 4457   1.950   1.801   2.789
 1485SOL    HW1 4458   1.908   1.715   2.762
 1485SOL    HW2 4459   2.044   1.804   2.755
 1486SOL     OW 4460   2.366   1.568   2.772
 1486SOL    HW1 4461   2.432   1.642   2.781
 1486SOL    HW2 4462   2.410   1.489   2.730
 1487SOL     OW 4463   2.864   0.796   3.100
 1487SOL    HW1 4464   2.905   0.764   3.186
 1487SOL    HW2 4465   2.768   0.769   3.097
 1488SOL     OW 4466   1.902   0.544   2.976
 1488SOL    HW1 4467   1.987   0.511   2.935
 1488SOL    HW2 4468   1.915   0.559   3.074
 1489SOL     OW 4469   2.051   0.520   3.584
 1489SOL    HW1 4470   2.110   0.480   3.514
 1489SOL    HW2 4471   1.993   0.591   3.543
 1490SOL     OW 4472   3.231   0.950   3.522
 1490SOL    HW1 4473   3.270   1.039   3.542
 1490SOL    HW2 4474   3.241   0.930   3.425
 1491SOL     OW 4475   2.677   0.572   2.187
 1491SOL    HW1 4476   2.684   0.483   2.141
 1491SOL    HW2 4477   2.583   0.606   2.179
 1492SOL     OW 4478   3.519   0.604   3.068
 1492SOL    HW1 4479   3.481   0.535   3.130
 1492SOL    HW2 4480   3.601   0.568   3.024
 1493SOL     OW 4481   2.114   1.564   3.606
 1493SOL    HW1 4482   2.084   1.621   3.682
 1493SOL    HW2 4483   2.107   1.467   3.632
 1494SOL     OW 4484   2.533   0.464   3.131
 1494SOL    HW1 4485   2.499   0.375   3.101
 1494SOL    HW2 4486   2.559   0.518   3.051
 1495SOL     OW 4487   2.792   1.678   3.327
 1495SOL    HW1 4488   2.768   1.660   3.232
 1495SOL    HW2 4489   2.822   1.772   3.337
 1496SOL     OW 4490   2.335   0.500   2.053
 1496SOL    HW1 4491   2.396   0.580   2.057
 1496SOL    HW2 4492   2.240   0.531   2.060
 1497SOL     OW 4493   2.021   1.137   3.328
 1497SOL    HW1 4494   2.043   1.076   3.404
 1497SOL    HW2 4495   2.031   1.088   3.242
 1498SOL     OW 4496   3.209   1.059   3.096
 1498SOL    HW1 4497   3.233   0.996   3.022
 1498SOL    HW2 4498   3.119   1.099   3.078
 1499SOL     OW 4499   3.164   0.855   2.171
 1499SOL    HW1 4500   3.078   0.824   2.213
 1499SOL    HW2 4501   3.160   0.841   2.072
 1500SOL     OW 4502   3.621   1.747   3.016
 1500SOL    HW1 4503   3.682   1.777   2.943
 1500SOL    HW2 4504   3.583   1.658   2.994
 1501SOL     OW 4505   3.114   1.731   2.990
 1501SOL    HW1 4506   3.198   1.736   2.936
 1501SOL    HW2 4507   3.091   1.635   3.008
 1502SOL     OW 4508   1.945   1.258   2.884
 1502SOL    HW1 4509   1.940   1.257   2.984
 1502SOL    HW2 4510   1.862   1.217   2.846
 1503SOL     OW 4511   2.550   1.662   3.578
 1503SOL    HW1 4512   2.494   1.743   3.587
 1503SOL    HW2 4513   2.602   1.666   3.492
 1504SOL     OW 4514   3.588   0.135   2.385
 1504SOL    HW1 4515   3.661   0.118   2.318
 1504SOL    HW2 4516   3.557   0.048   2.423
 1505SOL     OW 4517   3.250   1.573   2.339
 1505SOL    HW1 4518   3.317   1.585   2.265
 1505SOL    HW2 4519   3.210   1.662   2.362
 1506SOL     OW 4520   1.992   1.794   3.713
 1506SOL    HW1 4521   1.951   1.720   3.766
 1506SOL    HW2 4522   2.056   1.845   3.771
 1507SOL     OW 4523   3.142   0.927   2.534
 1507SOL    HW1 4524   3.202   0.846   2.536
 1507SOL    HW2 4525   3.182   0.996   2.474
 1508SOL     OW 4526   2.692   1.273   3.284
 1508SOL    HW1 4527   2.687   1.306   3.379
 1508SOL    HW2 4528   2.606   1.292   3.238
 1509SOL     OW 4529   2.534   1.616   2.016
 1509SOL    HW1 4530   2.543   1.626   1.917
 1509SOL    HW2 4531   2.494   1.527   2.037
 1510SOL     OW 4532   3.512   1.720   3.256
 1510SOL    HW1 4533   3.565   1.730   3.172
 1510SOL    HW2 4534   3.485   1.810   3.290
 1511SOL     OW 4535   3.703   0.175   2.825
 1511SOL    HW1 4536   3.742   0.090   2.789
 1511SOL    HW2 4537   3.605   0.177   2.806
 1512SOL     OW 4538   2.125   0.326   2.582
 1512SOL    HW1 4539   2.046   0.377   2.548
 1512SOL    HW2 4540   2.116   0.311   2.680
 1513SOL     OW 4541   3.056   1.612   1.893
 1513SOL    HW1 4542   3.062   1.519   1.930
 1513SOL    HW2 4543   2.997   1.612   1.813
 1514SOL     OW 4544   2.684   1.002   3.234
 1514SOL    HW1 4545   2.724   1.001   3.142
 1514SOL    HW2 4546   2.694   1.094   3.274
 1515SOL     OW 4547   2.778   0.910   2.153
 1515SOL    HW1 4548   2.841   0.948   2.085
 1515SOL    HW2 4549   2.818   0.827   2.192
 1516SOL     OW 4550   3.366   1.607   1.906
 1516SOL    HW1 4551   3.274   1.644   1.913
 1516SOL    HW2 4552   3.404   1.627   1.816
 1517SOL     OW 4553   2.234   1.288   3.352
 1517SOL    HW1 4554   2.221   1.381   3.318
 1517SOL    HW2 4555   2.150   1.236   3.339
 1518SOL     OW 4556   3.476   1.292   3.151
 1518SOL    HW1 4557   3.536   1.295   3.231
 1518SOL    HW2 4558   3.401   1.356   3.164
 1519SOL     OW 4559   2.901   1.098   2.558
 1519SOL    HW1 4560   2.831   1.051   2.612
 1519SOL    HW2 4561   2.960   1.030   2.515
 1520SOL     OW 4562   2.876   0.236   2.833
 1520SOL    HW1 4563   2.868   0.200   2.740
 1520SOL    HW2 4564   2.874   0.160   2.898
 1521SOL     OW 4565   2.452   1.487   2.353
 1521SOL    HW1 4566   2.494   1.429   2.283
 1521SOL    HW2 4567   2.408   1.566   2.309
 1522SOL     OW 4568   3.571   0.385   3.243
 1522SOL    HW1 4569   3.644   0.454   3.247
 1522SOL    HW2 4570   3.599   0.310   3.184
 1523SOL     OW 4571   2.117   1.348   2.152
 1523SOL    HW1 4572   2.021   1.349   2.125
 1523SOL    HW2 4573   2.129   1.401   2.236
 1524SOL     OW 4574   1.967   1.013   3.588
 1524SOL    HW1 4575   1.890   0.980   3.642
 1524SOL    HW2 4576   2.052   0.983   3.630
 1525SOL     OW 4577   2.534   0.203   3.351
 1525SOL    HW1 4578   2.624   0.187   3.311
 1525SOL    HW2 4579   2.542   0.208   3.450
 1526SOL     OW 4580   1.937   0.345   1.895
 1526SOL    HW1 4581   1.845   0.317   1.866
 1526SOL    HW2 4582   1.968   0.422   1.839
 1527SOL     OW 4583   3.302   0.856   3.260
 1527SOL    HW1 4584   3.245   0.908   3.197
 1527SOL    HW2 4585   3.398   0.868   3.236
 1528SOL     OW 4586   1.934   0.166   2.180
 1528SOL    HW1 4587   1.917   0.249   2.126
 1528SOL    HW2 4588   2.024   0.129   2.158
 1529SOL     OW 4589   3.045   1.335   1.981
 1529SOL    HW1 4590   2.946   1.324   1.983
 1529SOL    HW2 4591   3.079   1.350   2.074
 1530SOL     OW 4592   2.475   0.842   3.293
 1530SOL    HW1 4593   2.531   0.923   3.276
 1530SOL    HW2 4594   2.534   0.762   3.296
 1531SOL     OW 4595   3.355   1.767   2.821
 1531SOL    HW1 4596   3.388   1.831   2.752
 1531SOL    HW2 4597   3.421   1.761   2.896
 1532SOL     OW 4598   2.578   0.565   3.570
 1532SOL    HW1 4599   2.597   0.630   3.644
 1532SOL    HW2 4600   2.638   0.485   3.579
 1533SOL     OW 4601   3.312   1.220   3.495
 1533SOL    HW1 4602   3.303   1.210   3.594
 1533SOL    HW2 4603   3.408   1.213   3.469
 1534SOL     OW 4604   2.252   1.741   3.422
 1534SOL    HW1 4605   2.161   1.782   3.420
 1534SOL    HW2 4606   2.245   1.647   3.454
 1535SOL     OW 4607   3.536   0.883   3.116
 1535SOL    HW1 4608   3.509   0.794   3.079
 1535SOL    HW2 4609   3.537   0.951   3.043
 1536SOL     OW 4610   3.087   0.325   2.311
 1536SOL    HW1 4611   3.152   0.251   2.300
 1536SOL    HW2 4612   3.107   0.375   2.395
 1537SOL     OW 4613   2.456   0.745   2.514
 1537SOL    HW1 4614   2.506   0.830   2.495
 1537SOL    HW2 4615   2.368   0.747   2.466
 1538SOL     OW 4616   3.639   0.342   3.504
 1538SOL    HW1 4617   3.622   0.373   3.410
 1538SOL    HW2 4618   3.555   0.305   3.542
 1539SOL     OW 4619   3.592   0.934   3.379
 1539SOL    HW1 4620   3.630   1.025   3.394
 1539SOL    HW2 4621   3.584   0.917   3.280
 1540SOL     OW 4622   2.721   1.374   1.878
 1540SOL    HW1 4623   2.675   1.389   1.966
 1540SOL    HW2 4624   2.765   1.459   1.848
 1541SOL     OW 4625   2.523   1.790   2.815
 1541SOL    HW1 4626   2.477   1.878   2.802
 1541SOL    HW2 4627   2.622   1.802   2.808
 1542SOL     OW 4628   2.721   0.956   2.723
 1542SOL    HW1 4629   2.775   0.887   2.771
 1542SOL    HW2 4630   2.689   1.025   2.789
 1543SOL     OW 4631   2.945   0.984   1.949
 1543SOL    HW1 4632   2.922   1.037   1.867
 1543SOL    HW2 4633   3.026   0.928   1.930
 1544SOL     OW 4634   3.723   1.569   2.713
 1544SOL    HW1 4635   3.652   1.557   2.643
 1544SOL    HW2 4636   3.724   1.490   2.773
 1545SOL     OW 4637   2.083   1.314   3.706
 1545SOL    HW1 4638   2.018   1.241   3.685
 1545SOL    HW2 4639   2.087   1.328   3.804
 1546SOL     OW 4640   1.941   1.240   2.515
 1546SOL    HW1 4641   1.940   1.193   2.603
 1546SOL    HW2 4642   2.023   1.212   2.464
 1547SOL     OW 4643   2.534   1.391   3.486
 1547SOL    HW1 4644   2.456   1.341   3.524
 1547SOL    HW2 4645   2.531   1.486   3.517
 1548SOL     OW 4646   3.686   0.192   3.089
 1548SOL    HW1 4647   3.682   0.102   3.133
 1548SOL    HW2 4648   3.689   0.181   2.990
 1549SOL     OW 4649   2.290   0.424   2.382
 1549SOL    HW1 4650   2.320   0.352   2.320
 1549SOL    HW2 4651   2.251   0.384   2.465
 1550SOL     OW 4652   3.567   1.487   2.966
 1550SOL    HW1 4653   3.474   1.462   2.939
 1550SOL    HW2 4654   3.593   1.437   3.048
 1551SOL     OW 4655   2.179   0.547   3.142
 1551SOL    HW1 4656   2.217   0.488   3.214
 1551SOL    HW2 4657   2.219   0.521   3.054
 1552SOL     OW 4658   2.674   1.586   2.549
 1552SOL    HW1 4659   2.706   1.596   2.455
 1552SOL    HW2 4660   2.595   1.524   2.551
 1553SOL     OW 4661   3.286   0.214   2.974
 1553SOL    HW1 4662   3.338   0.149   3.029
 1553SOL    HW2 4663   3.237   0.277   3.035
 1554SOL     OW 4664   2.863   0.034   3.016
 1554SOL    HW1 4665   2.800  -0.038   2.985
 1554SOL    HW2 4666   2.956  -0.002   3.016
 1555SOL     OW 4667   2.632   1.330   2.163
 1555SOL    HW1 4668   2.586   1.243   2.180
 1555SOL    HW2 4669   2.723   1.327   2.204
 1556SOL     OW 4670   2.480   1.567   3.146
 1556SOL    HW1 4671   2.475   1.649   3.203
 1556SOL    HW2 4672   2.569   1.564   3.101
 1557SOL     OW 4673   3.214   0.052   2.030
 1557SOL    HW1 4674   3.249   0.011   1.946
 1557SOL    HW2 4675   3.124   0.014   2.050
 1558SOL     OW 4676   3.162   0.453   2.553
 1558SOL    HW1 4677   3.103   0.533   2.557
 1558SOL    HW2 4678   3.177   0.418   2.646
 1559SOL     OW 4679   3.455   0.221   2.744
 1559SOL    HW1 4680   3.371   0.220   2.798
 1559SOL    HW2 4681   3.457   0.304   2.688
 1560SOL     OW 4682   1.901   1.077   2.162
 1560SOL    HW1 4683   2.000   1.066   2.153
 1560SOL    HW2 4684   1.861   0.991   2.194
 1561SOL     OW 4685   2.737   1.646   2.199
 1561SOL    HW1 4686   2.660   1.611   2.145
 1561SOL    HW2 4687   2.705   1.717   2.261
 1562SOL     OW 4688   2.092   0.628   3.837
 1562SOL    HW1 4689   1.999   0.626   3.874
 1562SOL    HW2 4690   2.093   0.589   3.745
 1563SOL     OW 4691   3.617   0.607   3.955
 1563SOL    HW1 4692   3.605   0.594   3.856
 1563SOL    HW2 4693   3.587   0.526   4.004
 1564SOL     OW 4694   2.093   1.713   4.207
 1564SOL    HW1 4695   2.127   1.790   4.261
 1564SOL    HW2 4696   2.137   1.713   4.117
 1565SOL     OW 4697   2.092   1.434   4.262
 1565SOL    HW1 4698   2.066   1.530   4.262
 1565SOL    HW2 4699   2.021   1.380   4.307
 1566SOL     OW 4700   2.468   0.964   3.847
 1566SOL    HW1 4701   2.475   1.048   3.793
 1566SOL    HW2 4702   2.514   0.977   3.935
 1567SOL     OW 4703   3.704   1.767   4.083
 1567SOL    HW1 4704   3.758   1.738   4.163
 1567SOL    HW2 4705   3.734   1.857   4.054
 1568SOL     OW 4706   1.889   1.596   3.841
 1568SOL    HW1 4707   1.870   1.500   3.862
 1568SOL    HW2 4708   1.856   1.654   3.916
 1569SOL     OW 4709   3.551   0.922   4.336
 1569SOL    HW1 4710   3.646   0.893   4.344
 1569SOL    HW2 4711   3.543   0.987   4.261
 1570SOL     OW 4712   3.503   1.108   4.156
 1570SOL    HW1 4713   3.589   1.110   4.104
 1570SOL    HW2 4714   3.517   1.155   4.244
 1571SOL     OW 4715   2.671   0.004   4.226
 1571SOL    HW1 4716   2.711   0.095   4.217
 1571SOL    HW2 4717   2.571   0.012   4.232
 1572SOL     OW 4718   3.387   0.999   3.914
 1572SOL    HW1 4719   3.324   0.923   3.927
 1572SOL    HW2 4720   3.435   1.017   4.000
 1573SOL     OW 4721   2.460   0.729   3.994
 1573SOL    HW1 4722   2.484   0.798   3.926
 1573SOL    HW2 4723   2.382   0.762   4.048
 1574SOL     OW 4724   3.438   1.662   4.031
 1574SOL    HW1 4725   3.527   1.708   4.034
 1574SOL    HW2 4726   3.417   1.638   3.936
 1575SOL     OW 4727   2.727   0.348   3.919
 1575SOL    HW1 4728   2.786   0.411   3.870
 1575SOL    HW2 4729   2.746   0.254   3.890
 1576SOL     OW 4730   2.183   0.943   3.966
 1576SOL    HW1 4731   2.265   0.982   3.924
 1576SOL    HW2 4732   2.156   0.861   3.917
 1577SOL     OW 4733   3.320   0.735   4.452
 1577SOL    HW1 4734   3.315   0.670   4.527
 1577SOL    HW2 4735   3.400   0.794   4.465
 1578SOL     OW 4736   2.973   1.776   3.961
 1578SOL    HW1 4737   2.913   1.714   4.011
 1578SOL    HW2 4738   3.004   1.732   3.876
 1579SOL     OW 4739   3.494   1.377   3.805
 1579SOL    HW1 4740   3.462   1.471   3.795
 1579SOL    HW2 4741   3.418   1.314   3.793
 1580SOL     OW 4742   2.326   1.743   4.047
 1580SOL    HW1 4743   2.359   1.782   4.133
 1580SOL    HW2 4744   2.402   1.736   3.982
 1581SOL     OW 4745   3.262   0.107   4.150
 1581SOL    HW1 4746   3.238   0.070   4.060
 1581SOL    HW2 4747   3.361   0.123   4.154
 1582SOL     OW 4748   2.244   0.700   4.204
 1582SOL    HW1 4749   2.289   0.610   4.201
 1582SOL    HW2 4750   2.150   0.689   4.237
 1583SOL     OW 4751   2.476   0.122   3.841
 1583SOL    HW1 4752   2.574   0.100   3.848
 1583SOL    HW2 4753   2.445   0.105   3.748
 1584SOL     OW 4754   3.296   1.188   3.765
 1584SOL    HW1 4755   3.328   1.112   3.822
 1584SOL    HW2 4756   3.204   1.215   3.795
 1585SOL     OW 4757   2.159   0.035   3.895
 1585SOL    HW1 4758   2.208   0.119   3.874
 1585SOL    HW2 4759   2.221  -0.030   3.940
 1586SOL     OW 4760   2.797   0.236   4.204
 1586SOL    HW1 4761   2.749   0.277   4.126
 1586SOL    HW2 4762   2.896   0.234   4.185
 1587SOL     OW 4763   2.321   1.152   4.465
 1587SOL    HW1 4764   2.250   1.125   4.530
 1587SOL    HW2 4765   2.295   1.124   4.372
 1588SOL     OW 4766   3.133   1.797   4.315
 1588SOL    HW1 4767   3.177   1.861   4.251
 1588SOL    HW2 4768   3.083   1.849   4.385
 1589SOL     OW 4769   2.894   0.549   3.740
 1589SOL    HW1 4770   2.853   0.631   3.701
 1589SOL    HW2 4771   2.958   0.575   3.813
 1590SOL     OW 4772   3.291   1.173   4.591
 1590SOL    HW1 4773   3.236   1.089   4.584
 1590SOL    HW2 4774   3.317   1.202   4.499
 1591SOL     OW 4775   3.719   0.833   4.101
 1591SOL    HW1 4776   3.761   0.769   4.165
 1591SOL    HW2 4777   3.681   0.782   4.023
 1592SOL     OW 4778   2.350   1.385   3.898
 1592SOL    HW1 4779   2.263   1.370   3.945
 1592SOL    HW2 4780   2.333   1.411   3.803
 1593SOL     OW 4781   3.252   0.575   3.802
 1593SOL    HW1 4782   3.198   0.554   3.883
 1593SOL    HW2 4783   3.343   0.534   3.811
 1594SOL     OW 4784   2.389   0.256   4.052
 1594SOL    HW1 4785   2.416   0.197   3.977
 1594SOL    HW2 4786   2.389   0.351   4.021
 1595SOL     OW 4787   2.567   1.050   4.092
 1595SOL    HW1 4788   2.553   1.057   4.191
 1595SOL    HW2 4789   2.651   0.999   4.074
 1596SOL     OW 4790   2.229   1.100   4.225
 1596SOL    HW1 4791   2.222   1.183   4.169
 1596SOL    HW2 4792   2.233   1.020   4.165
 1597SOL     OW 4793   3.114   1.348   4.112
 1597SOL    HW1 4794   3.164   1.425   4.152
 1597SOL    HW2 4795   3.019   1.350   4.144
 1598SOL     OW 4796   3.444   0.639   4.196
 1598SOL    HW1 4797   3.413   0.700   4.269
 1598SOL    HW2 4798   3.494   0.691   4.127
 1599SOL     OW 4799   3.071   0.525   3.999
 1599SOL    HW1 4800   3.084   0.441   4.053
 1599SOL    HW2 4801   3.042   0.599   4.059
 1600SOL     OW 4802   3.484   0.367   4.098
 1600SOL    HW1 4803   3.486   0.291   4.162
 1600SOL    HW2 4804   3.436   0.444   4.138
 1601SOL     OW 4805   3.402   0.274   3.849
 1601SOL    HW1 4806   3.341   0.199   3.872
 1601SOL    HW2 4807   3.424   0.326   3.932
 1602SOL     OW 4808   3.165   0.838   3.766
 1602SOL    HW1 4809   3.199   0.745   3.781
 1602SOL    HW2 4810   3.183   0.865   3.671
 1603SOL     OW 4811   1.870   1.326   3.924
 1603SOL    HW1 4812   1.777   1.347   3.893
 1603SOL    HW2 4813   1.880   1.227   3.937
 1604SOL     OW 4814   2.677   0.572   4.049
 1604SOL    HW1 4815   2.684   0.483   4.003
 1604SOL    HW2 4816   2.583   0.606   4.041
 1605SOL     OW 4817   2.335   0.500   3.915
 1605SOL    HW1 4818   2.396   0.580   3.919
 1605SOL    HW2 4819   2.240   0.531   3.922
 1606SOL     OW 4820   3.164   0.855   4.033
 1606SOL    HW1 4821   3.078   0.824   4.075
 1606SOL    HW2 4822   3.160   0.841   3.934
 1607SOL     OW 4823   3.588   0.135   4.247
 1607SOL    HW1 4824   3.661   0.118   4.180
 1607SOL    HW2 4825   3.557   0.048   4.285
 1608SOL     OW 4826   3.250   1.573   4.201
 1608SOL    HW1 4827   3.317   1.585   4.127
 1608SOL    HW2 4828   3.210   1.662   4.224
 1609SOL     OW 4829   2.534   1.616   3.878
 1609SOL    HW1 4830   2.543   1.626   3.779
 1609SOL    HW2 4831   2.494   1.527   3.899
 1610SOL     OW 4832   3.056   1.612   3.755
 1610SOL    HW1 4833   3.062   1.519   3.792
 1610SOL    HW2 4834   2.997   1.612   3.675
 1611SOL     OW 4835   2.778   0.910   4.015
 1611SOL    HW1 4836   2.841   0.948   3.947
 1611SOL    HW2 4837   2.818   0.827   4.054
 1612SOL     OW 4838   3.366   1.607   3.768
 1612SOL    HW1 4839   3.274   1.644   3.775
 1612SOL    HW2 4840   3.404   1.627   3.678
 1613SOL     OW 4841   2.452   1.487   4.215
 1613SOL    HW1 4842   2.494   1.429   4.145
 1613SOL    HW2 4843   2.408   1.566   4.171
 1614SOL     OW 4844   2.117   1.348   4.014
 1614SOL    HW1 4845   2.021   1.349   3.987
 1614SOL    HW2 4846   2.129   1.401   4.098
 1615SOL     OW 4847   1.937   0.345   3.757
 1615SOL    HW1 4848   1.845   0.317   3.728
 1615SOL    HW2 4849   1.968   0.422   3.701
 1616SOL     OW 4850   1.934   0.166   4.042
 1616SOL    HW1 4851   1.917   0.249   3.988
 1616SOL    HW2 4852   2.024   0.129   4.020
 1617SOL     OW 4853   3.045   1.335   3.843
 1617SOL    HW1 4854   2.946   1.324   3.845
 1617SOL    HW2 4855   3.079   1.350   3.936
 1618SOL     OW 4856   3.087   0.325   4.173
 1618SOL    HW1 4857   3.152   0.251   4.162
 1618SOL    HW2 4858   3.107   0.375   4.257
 1619SOL     OW 4859   2.721   1.374   3.740
 1619SOL    HW1 4860   2.675   1.389   3.828
 1619SOL    HW2 4861   2.765   1.459   3.710
 1620SOL     OW 4862   2.945   0.984   3.811
 1620SOL    HW1 4863   2.922   1.037   3.729
 1620SOL    HW2 4864   3.026   0.928   3.792
 1621SOL     OW 4865   2.290   0.424   4.244
 1621SOL    HW1 4866   2.320   0.352   4.182
 1621SOL    HW2 4867   2.251   0.384   4.327
 1622SOL     OW 4868   2.632   1.330   4.025
 1622SOL    HW1 4869   2.586   1.243   4.042
 1622SOL    HW2 4870   2.723   1.327   4.066
 1623SOL     OW 4871   3.214   0.052   3.892
 1623SOL    HW1 4872   3.249   0.011   3.808
 1623SOL    HW2 4873   3.124   0.014   3.912
 1624SOL     OW 4874   1.901   1.077   4.024
 1624SOL    HW1 4875   2.000   1.066   4.015
 1624SOL    HW2 4876   1.861   0.991   4.056
 1625SOL     OW 4877   2.737   1.646   4.061
 1625SOL    HW1 4878   2.660   1.611   4.007
 1625SOL    HW2 4879   2.705   1.717   4.123
 1626SOL     OW 4880   2.092   2.490   0.113
 1626SOL    HW1 4881   1.999   2.488   0.150
 1626SOL    HW2 4882   2.093   2.451   0.021
 1627SOL     OW 4883   2.087   2.137   0.996
 1627SOL    HW1 4884   2.122   2.120   1.088
 1627SOL    HW2 4885   1.999   2.092   0.984
 1628SOL     OW 4886   1.881   2.230   0.647
 1628SOL    HW1 4887   1.799   2.273   0.686
 1628SOL    HW2 4888   1.853   2.157   0.584
 1629SOL     OW 4889   2.431   3.137   1.165
 1629SOL    HW1 4890   2.338   3.130   1.128
 1629SOL    HW2 4891   2.442   3.226   1.209
 1630SOL     OW 4892   3.417   3.373   0.703
 1630SOL    HW1 4893   3.360   3.357   0.784
 1630SOL    HW2 4894   3.358   3.383   0.623
 1631SOL     OW 4895   2.997   2.565   0.717
 1631SOL    HW1 4896   3.054   2.643   0.692
 1631SOL    HW2 4897   2.937   2.591   0.793
 1632SOL     OW 4898   3.617   2.469   0.231
 1632SOL    HW1 4899   3.605   2.456   0.132
 1632SOL    HW2 4900   3.587   2.388   0.280
 1633SOL     OW 4901   2.630   3.006   1.023
 1633SOL    HW1 4902   2.552   3.023   1.083
 1633SOL    HW2 4903   2.664   3.093   0.987
 1634SOL     OW 4904   2.712   2.660   1.823
 1634SOL    HW1 4905   2.708   2.736   1.888
 1634SOL    HW2 4906   2.734   2.696   1.732
 1635SOL     OW 4907   2.547   2.874   0.665
 1635SOL    HW1 4908   2.616   2.858   0.735
 1635SOL    HW2 4909   2.474   2.931   0.703
 1636SOL     OW 4910   2.548   3.023   1.803
 1636SOL    HW1 4911   2.608   3.102   1.817
 1636SOL    HW2 4912   2.462   3.054   1.762
 1637SOL     OW 4913   2.197   3.297   1.061
 1637SOL    HW1 4914   2.119   3.266   1.008
 1637SOL    HW2 4915   2.255   3.355   1.004
 1638SOL     OW 4916   3.322   3.367   1.339
 1638SOL    HW1 4917   3.346   3.461   1.365
 1638SOL    HW2 4918   3.306   3.313   1.421
 1639SOL     OW 4919   2.300   2.254   1.499
 1639SOL    HW1 4920   2.382   2.198   1.508
 1639SOL    HW2 4921   2.219   2.196   1.503
 1640SOL     OW 4922   3.465   2.309   0.737
 1640SOL    HW1 4923   3.391   2.355   0.687
 1640SOL    HW2 4924   3.516   2.377   0.790
 1641SOL     OW 4925   2.093   3.575   0.483
 1641SOL    HW1 4926   2.127   3.652   0.537
 1641SOL    HW2 4927   2.137   3.575   0.393
 1642SOL     OW 4928   2.989   3.203   1.690
 1642SOL    HW1 4929   3.036   3.203   1.778
 1642SOL    HW2 4930   2.941   3.116   1.679
 1643SOL     OW 4931   2.092   3.296   0.538
 1643SOL    HW1 4932   2.066   3.392   0.538
 1643SOL    HW2 4933   2.021   3.242   0.583
 1644SOL     OW 4934   2.102   2.953   0.886
 1644SOL    HW1 4935   2.116   2.869   0.938
 1644SOL    HW2 4936   2.047   3.017   0.941
 1645SOL     OW 4937   2.482   3.648   1.439
 1645SOL    HW1 4938   2.390   3.631   1.474
 1645SOL    HW2 4939   2.510   3.740   1.465
 1646SOL     OW 4940   2.468   2.826   0.123
 1646SOL    HW1 4941   2.475   2.910   0.069
 1646SOL    HW2 4942   2.514   2.839   0.211
 1647SOL     OW 4943   3.456   1.976   1.480
 1647SOL    HW1 4944   3.438   2.043   1.408
 1647SOL    HW2 4945   3.453   2.022   1.569
 1648SOL     OW 4946   1.984   2.505   0.563
 1648SOL    HW1 4947   1.939   2.417   0.580
 1648SOL    HW2 4948   1.983   2.559   0.647
 1649SOL     OW 4949   3.704   3.629   0.359
 1649SOL    HW1 4950   3.758   3.600   0.439
 1649SOL    HW2 4951   3.734   3.719   0.330
 1650SOL     OW 4952   1.889   3.458   0.117
 1650SOL    HW1 4953   1.870   3.362   0.138
 1650SOL    HW2 4954   1.856   3.516   0.192
 1651SOL     OW 4955   3.551   2.784   0.612
 1651SOL    HW1 4956   3.646   2.755   0.620
 1651SOL    HW2 4957   3.543   2.849   0.537
 1652SOL     OW 4958   3.503   2.970   0.432
 1652SOL    HW1 4959   3.589   2.972   0.380
 1652SOL    HW2 4960   3.517   3.017   0.520
 1653SOL     OW 4961   1.975   2.599   1.597
 1653SOL    HW1 4962   2.063   2.586   1.642
 1653SOL    HW2 4963   1.962   2.696   1.575
 1654SOL     OW 4964   2.475   3.227   0.726
 1654SOL    HW1 4965   2.426   3.140   0.735
 1654SOL    HW2 4966   2.452   3.270   0.639
 1655SOL     OW 4967   3.155   3.090   1.423
 1655SOL    HW1 4968   3.192   3.017   1.365
 1655SOL    HW2 4969   3.207   3.095   1.508
 1656SOL     OW 4970   2.671   1.866   0.502
 1656SOL    HW1 4971   2.711   1.957   0.493
 1656SOL    HW2 4972   2.571   1.874   0.508
 1657SOL     OW 4973   2.059   2.838   1.264
 1657SOL    HW1 4974   2.148   2.793   1.250
 1657SOL    HW2 4975   1.986   2.773   1.245
 1658SOL     OW 4976   3.387   2.861   0.190
 1658SOL    HW1 4977   3.324   2.785   0.203
 1658SOL    HW2 4978   3.435   2.879   0.276
 1659SOL     OW 4979   3.049   3.654   1.616
 1659SOL    HW1 4980   3.073   3.714   1.540
 1659SOL    HW2 4981   3.056   3.559   1.586
 1660SOL     OW 4982   2.179   2.113   1.801
 1660SOL    HW1 4983   2.250   2.184   1.807
 1660SOL    HW2 4984   2.091   2.152   1.829
 1661SOL     OW 4985   3.328   3.279   0.953
 1661SOL    HW1 4986   3.269   3.285   1.033
 1661SOL    HW2 4987   3.313   3.191   0.907
 1662SOL     OW 4988   3.529   3.576   0.572
 1662SOL    HW1 4989   3.488   3.553   0.484
 1662SOL    HW2 4990   3.511   3.502   0.637
 1663SOL     OW 4991   2.460   2.591   0.270
 1663SOL    HW1 4992   2.484   2.660   0.202
 1663SOL    HW2 4993   2.382   2.624   0.324
 1664SOL     OW 4994   3.143   2.207   0.944
 1664SOL    HW1 4995   3.057   2.157   0.931
 1664SOL    HW2 4996   3.205   2.153   1.000
 1665SOL     OW 4997   3.438   3.524   0.307
 1665SOL    HW1 4998   3.527   3.570   0.310
 1665SOL    HW2 4999   3.417   3.500   0.212
 1666SOL     OW 5000   2.669   2.467   1.465
 1666SOL    HW1 5001   2.622   2.464   1.554
 1666SOL    HW2 5002   2.618   2.412   1.399
 1667SOL     OW 5003   3.256   2.331   1.674
 1667SOL    HW1 5004   3.236   2.374   1.762
 1667SOL    HW2 5005   3.334   2.269   1.683
 1668SOL     OW 5006   2.835   2.752   1.572
 1668SOL    HW1 5007   2.881   2.668   1.543
 1668SOL    HW2 5008   2.779   2.786   1.497
 1669SOL     OW 5009   2.853   2.272   1.242
 1669SOL    HW1 5010   2.776   2.306   1.296
 1669SOL    HW2 5011   2.819   2.221   1.163
 1670SOL     OW 5012   2.903   2.563   0.429
 1670SOL    HW1 5013   2.929   2.559   0.525
 1670SOL    HW2 5014   2.818   2.512   0.415
 1671SOL     OW 5015   1.938   2.673   0.789
 1671SOL    HW1 5016   2.037   2.661   0.798
 1671SOL    HW2 5017   1.914   2.768   0.810
 1672SOL     OW 5018   1.992   3.683   1.571
 1672SOL    HW1 5019   1.982   3.668   1.670
 1672SOL    HW2 5020   1.906   3.719   1.535
 1673SOL     OW 5021   2.727   2.210   0.195
 1673SOL    HW1 5022   2.786   2.273   0.146
 1673SOL    HW2 5023   2.746   2.116   0.166
 1674SOL     OW 5024   3.581   2.447   1.831
 1674SOL    HW1 5025   3.555   2.536   1.795
 1674SOL    HW2 5026   3.579   2.379   1.758
 1675SOL     OW 5027   3.224   3.006   0.545
 1675SOL    HW1 5028   3.307   2.977   0.497
 1675SOL    HW2 5029   3.175   3.073   0.489
 1676SOL     OW 5030   2.412   2.058   0.885
 1676SOL    HW1 5031   2.407   2.053   0.985
 1676SOL    HW2 5032   2.414   2.154   0.856
 1677SOL     OW 5033   2.870   3.318   0.477
 1677SOL    HW1 5034   2.824   3.390   0.425
 1677SOL    HW2 5035   2.866   3.338   0.575
 1678SOL     OW 5036   2.213   3.663   0.853
 1678SOL    HW1 5037   2.263   3.577   0.859
 1678SOL    HW2 5038   2.278   3.740   0.850
 1679SOL     OW 5039   3.657   2.928   0.873
 1679SOL    HW1 5040   3.595   2.913   0.797
 1679SOL    HW2 5041   3.605   2.939   0.958
 1680SOL     OW 5042   3.089   3.412   1.506
 1680SOL    HW1 5043   3.095   3.335   1.570
 1680SOL    HW2 5044   3.037   3.386   1.426
 1681SOL     OW 5045   2.183   2.805   0.242
 1681SOL    HW1 5046   2.265   2.844   0.200
 1681SOL    HW2 5047   2.156   2.723   0.193
 1682SOL     OW 5048   3.320   2.597   0.728
 1682SOL    HW1 5049   3.315   2.532   0.803
 1682SOL    HW2 5050   3.400   2.656   0.741
 1683SOL     OW 5051   2.323   3.128   1.727
 1683SOL    HW1 5052   2.273   3.129   1.641
 1683SOL    HW2 5053   2.260   3.110   1.803
 1684SOL     OW 5054   2.973   3.638   0.237
 1684SOL    HW1 5055   2.913   3.576   0.287
 1684SOL    HW2 5056   3.004   3.594   0.152
 1685SOL     OW 5057   2.064   2.147   1.498
 1685SOL    HW1 5058   1.984   2.207   1.485
 1685SOL    HW2 5059   2.054   2.098   1.584
 1686SOL     OW 5060   3.494   3.239   0.081
 1686SOL    HW1 5061   3.462   3.333   0.071
 1686SOL    HW2 5062   3.418   3.176   0.069
 1687SOL     OW 5063   2.326   3.605   0.323
 1687SOL    HW1 5064   2.359   3.644   0.409
 1687SOL    HW2 5065   2.402   3.598   0.258
 1688SOL     OW 5066   3.262   1.969   0.426
 1688SOL    HW1 5067   3.238   1.932   0.336
 1688SOL    HW2 5068   3.361   1.985   0.430
 1689SOL     OW 5069   2.111   3.647   1.241
 1689SOL    HW1 5070   2.168   3.582   1.291
 1689SOL    HW2 5071   2.095   3.614   1.148
 1690SOL     OW 5072   2.802   3.560   0.904
 1690SOL    HW1 5073   2.882   3.503   0.925
 1690SOL    HW2 5074   2.753   3.520   0.827
 1691SOL     OW 5075   2.244   2.562   0.480
 1691SOL    HW1 5076   2.289   2.472   0.477
 1691SOL    HW2 5077   2.150   2.551   0.513
 1692SOL     OW 5078   3.409   2.084   1.729
 1692SOL    HW1 5079   3.404   2.121   1.821
 1692SOL    HW2 5080   3.337   2.015   1.717
 1693SOL     OW 5081   2.476   1.984   0.117
 1693SOL    HW1 5082   2.574   1.962   0.124
 1693SOL    HW2 5083   2.445   1.967   0.024
 1694SOL     OW 5084   2.643   2.126   1.749
 1694SOL    HW1 5085   2.710   2.065   1.792
 1694SOL    HW2 5086   2.570   2.145   1.814
 1695SOL     OW 5087   2.750   3.376   1.195
 1695SOL    HW1 5088   2.727   3.351   1.101
 1695SOL    HW2 5089   2.811   3.307   1.234
 1696SOL     OW 5090   3.213   2.452   1.433
 1696SOL    HW1 5091   3.241   2.409   1.518
 1696SOL    HW2 5092   3.238   2.548   1.434
 1697SOL     OW 5093   2.665   3.264   0.924
 1697SOL    HW1 5094   2.755   3.278   0.882
 1697SOL    HW2 5095   2.594   3.266   0.853
 1698SOL     OW 5096   2.784   2.365   0.899
 1698SOL    HW1 5097   2.759   2.356   0.803
 1698SOL    HW2 5098   2.832   2.283   0.930
 1699SOL     OW 5099   2.401   1.926   0.512
 1699SOL    HW1 5100   2.320   1.927   0.570
 1699SOL    HW2 5101   2.404   2.009   0.457
 1700SOL     OW 5102   3.296   3.050   0.041
 1700SOL    HW1 5103   3.328   2.974   0.098
 1700SOL    HW2 5104   3.204   3.077   0.071
 1701SOL     OW 5105   2.159   1.897   0.171
 1701SOL    HW1 5106   2.208   1.981   0.150
 1701SOL    HW2 5107   2.221   1.832   0.216
 1702SOL     OW 5108   2.797   2.098   0.480
 1702SOL    HW1 5109   2.749   2.139   0.402
 1702SOL    HW2 5110   2.896   2.096   0.461
 1703SOL     OW 5111   2.938   2.545   1.464
 1703SOL    HW1 5112   2.858   2.484   1.467
 1703SOL    HW2 5113   3.019   2.492   1.440
 1704SOL     OW 5114   3.089   3.432   0.793
 1704SOL    HW1 5115   3.110   3.506   0.728
 1704SOL    HW2 5116   3.157   3.432   0.866
 1705SOL     OW 5117   2.321   3.014   0.741
 1705SOL    HW1 5118   2.250   2.987   0.806
 1705SOL    HW2 5119   2.295   2.986   0.648
 1706SOL     OW 5120   3.133   3.659   0.591
 1706SOL    HW1 5121   3.177   3.723   0.527
 1706SOL    HW2 5122   3.083   3.711   0.661
 1707SOL     OW 5123   2.894   2.411   0.016
 1707SOL    HW1 5124   2.853   2.493  -0.023
 1707SOL    HW2 5125   2.958   2.437   0.089
 1708SOL     OW 5126   1.940   2.418   1.386
 1708SOL    HW1 5127   2.032   2.417   1.345
 1708SOL    HW2 5128   1.934   2.492   1.453
 1709SOL     OW 5129   2.423   2.084   1.147
 1709SOL    HW1 5130   2.461   2.000   1.184
 1709SOL    HW2 5131   2.335   2.103   1.191
 1710SOL     OW 5132   2.728   2.316   0.642
 1710SOL    HW1 5133   2.696   2.388   0.580
 1710SOL    HW2 5134   2.752   2.235   0.589
 1711SOL     OW 5135   2.879   1.901   0.753
 1711SOL    HW1 5136   2.807   1.906   0.684
 1711SOL    HW2 5137   2.855   1.832   0.822
 1712SOL     OW 5138   3.291   3.035   0.867
 1712SOL    HW1 5139   3.236   2.951   0.860
 1712SOL    HW2 5140   3.317   3.064   0.775
 1713SOL     OW 5141   3.328   2.452   0.992
 1713SOL    HW1 5142   3.298   2.357   0.999
 1713SOL    HW2 5143   3.401   2.468   1.058
 1714SOL     OW 5144   3.719   2.695   0.377
 1714SOL    HW1 5145   3.761   2.631   0.441
 1714SOL    HW2 5146   3.681   2.644   0.299
 1715SOL     OW 5147   2.350   3.247   0.174
 1715SOL    HW1 5148   2.263   3.232   0.221
 1715SOL    HW2 5149   2.333   3.273   0.079
 1716SOL     OW 5150   3.526   3.142   0.657
 1716SOL    HW1 5151   3.625   3.150   0.671
 1716SOL    HW2 5152   3.481   3.226   0.688
 1717SOL     OW 5153   3.252   2.437   0.078
 1717SOL    HW1 5154   3.198   2.416   0.159
 1717SOL    HW2 5155   3.343   2.396   0.087
 1718SOL     OW 5156   2.389   2.118   0.328
 1718SOL    HW1 5157   2.416   2.059   0.253
 1718SOL    HW2 5158   2.389   2.213   0.297
 1719SOL     OW 5159   3.616   3.085   1.588
 1719SOL    HW1 5160   3.707   3.046   1.575
 1719SOL    HW2 5161   3.624   3.181   1.612
 1720SOL     OW 5162   2.926   3.209   1.340
 1720SOL    HW1 5163   2.846   3.186   1.395
 1720SOL    HW2 5164   3.009   3.183   1.389
 1721SOL     OW 5165   3.454   3.491   1.625
 1721SOL    HW1 5166   3.481   3.525   1.535
 1721SOL    HW2 5167   3.533   3.453   1.671
 1722SOL     OW 5168   2.973   3.057   1.100
 1722SOL    HW1 5169   2.933   3.101   1.181
 1722SOL    HW2 5170   2.932   3.094   1.017
 1723SOL     OW 5171   3.500   2.961   1.079
 1723SOL    HW1 5172   3.505   3.042   1.138
 1723SOL    HW2 5173   3.414   2.963   1.028
 1724SOL     OW 5174   2.777   1.951   1.402
 1724SOL    HW1 5175   2.802   1.931   1.307
 1724SOL    HW2 5176   2.849   2.007   1.444
 1725SOL     OW 5177   2.842   2.978   1.719
 1725SOL    HW1 5178   2.743   2.984   1.729
 1725SOL    HW2 5179   2.865   2.898   1.663
 1726SOL     OW 5180   2.567   2.912   0.368
 1726SOL    HW1 5181   2.553   2.919   0.467
 1726SOL    HW2 5182   2.651   2.861   0.350
 1727SOL     OW 5183   2.272   2.675   1.251
 1727SOL    HW1 5184   2.358   2.687   1.301
 1727SOL    HW2 5185   2.230   2.588   1.278
 1728SOL     OW 5186   3.136   2.248   1.262
 1728SOL    HW1 5187   3.157   2.322   1.326
 1728SOL    HW2 5188   3.047   2.265   1.219
 1729SOL     OW 5189   1.926   3.426   1.331
 1729SOL    HW1 5190   1.880   3.508   1.297
 1729SOL    HW2 5191   2.024   3.445   1.340
 1730SOL     OW 5192   2.229   2.962   0.501
 1730SOL    HW1 5193   2.222   3.045   0.445
 1730SOL    HW2 5194   2.233   2.882   0.441
 1731SOL     OW 5195   2.428   2.399   0.865
 1731SOL    HW1 5196   2.440   2.465   0.791
 1731SOL    HW2 5197   2.474   2.433   0.948
 1732SOL     OW 5198   3.114   3.210   0.388
 1732SOL    HW1 5199   3.164   3.287   0.428
 1732SOL    HW2 5200   3.019   3.212   0.420
 1733SOL     OW 5201   3.134   3.307   1.142
 1733SOL    HW1 5202   3.181   3.320   1.229
 1733SOL    HW2 5203   3.068   3.233   1.151
 1734SOL     OW 5204   3.444   2.501   0.472
 1734SOL    HW1 5205   3.413   2.562   0.545
 1734SOL    HW2 5206   3.494   2.553   0.403
 1735SOL     OW 5207   2.216   3.372   1.329
 1735SOL    HW1 5208   2.195   3.328   1.242
 1735SOL    HW2 5209   2.313   3.398   1.332
 1736SOL     OW 5210   2.264   2.613   1.598
 1736SOL    HW1 5211   2.332   2.668   1.551
 1736SOL    HW2 5212   2.304   2.525   1.625
 1737SOL     OW 5213   3.449   2.641   1.670
 1737SOL    HW1 5214   3.357   2.679   1.665
 1737SOL    HW2 5215   3.509   2.688   1.605
 1738SOL     OW 5216   2.875   1.967   1.770
 1738SOL    HW1 5217   2.881   2.052   1.718
 1738SOL    HW2 5218   2.907   1.891   1.713
 1739SOL     OW 5219   2.366   1.912   1.740
 1739SOL    HW1 5220   2.324   1.855   1.670
 1739SOL    HW2 5221   2.300   1.981   1.772
 1740SOL     OW 5222   2.435   2.732   1.029
 1740SOL    HW1 5223   2.479   2.821   1.020
 1740SOL    HW2 5224   2.372   2.732   1.106
 1741SOL     OW 5225   3.222   2.724   1.045
 1741SOL    HW1 5226   3.147   2.724   0.979
 1741SOL    HW2 5227   3.259   2.632   1.054
 1742SOL     OW 5228   3.071   2.387   0.275
 1742SOL    HW1 5229   3.084   2.303   0.329
 1742SOL    HW2 5230   3.042   2.461   0.335
 1743SOL     OW 5231   2.169   2.075   1.231
 1743SOL    HW1 5232   2.146   2.112   1.321
 1743SOL    HW2 5233   2.139   1.980   1.225
 1744SOL     OW 5234   1.899   3.172   1.282
 1744SOL    HW1 5235   1.952   3.123   1.350
 1744SOL    HW2 5236   1.921   3.270   1.287
 1745SOL     OW 5237   2.594   2.496   1.064
 1745SOL    HW1 5238   2.653   2.470   0.988
 1745SOL    HW2 5239   2.566   2.592   1.053
 1746SOL     OW 5240   3.590   2.797   1.854
 1746SOL    HW1 5241   3.544   2.790   1.765
 1746SOL    HW2 5242   3.528   2.841   1.920
 1747SOL     OW 5243   2.169   1.925   0.618
 1747SOL    HW1 5244   2.158   2.019   0.651
 1747SOL    HW2 5245   2.164   1.862   0.695
 1748SOL     OW 5246   3.484   2.229   0.374
 1748SOL    HW1 5247   3.486   2.153   0.438
 1748SOL    HW2 5248   3.436   2.306   0.414
 1749SOL     OW 5249   2.885   2.628   0.966
 1749SOL    HW1 5250   2.900   2.649   1.062
 1749SOL    HW2 5251   2.855   2.533   0.957
 1750SOL     OW 5252   2.842   3.435   1.700
 1750SOL    HW1 5253   2.822   3.479   1.612
 1750SOL    HW2 5254   2.881   3.344   1.684
 1751SOL     OW 5255   3.721   3.380   1.605
 1751SOL    HW1 5256   3.735   3.407   1.510
 1751SOL    HW2 5257   3.804   3.402   1.658
 1752SOL     OW 5258   2.212   2.760   1.804
 1752SOL    HW1 5259   2.288   2.804   1.852
 1752SOL    HW2 5260   2.247   2.713   1.722
 1753SOL     OW 5261   3.402   2.136   0.125
 1753SOL    HW1 5262   3.341   2.061   0.148
 1753SOL    HW2 5263   3.424   2.188   0.208
 1754SOL     OW 5264   3.165   2.700   0.042
 1754SOL    HW1 5265   3.199   2.607   0.057
 1754SOL    HW2 5266   3.183   2.727  -0.053
 1755SOL     OW 5267   2.930   3.195   0.849
 1755SOL    HW1 5268   2.937   3.111   0.794
 1755SOL    HW2 5269   2.992   3.264   0.813
 1756SOL     OW 5270   2.181   2.672   0.949
 1756SOL    HW1 5271   2.274   2.708   0.954
 1756SOL    HW2 5272   2.175   2.587   1.001
 1757SOL     OW 5273   2.201   2.371   1.006
 1757SOL    HW1 5274   2.149   2.288   0.989
 1757SOL    HW2 5275   2.278   2.376   0.942
 1758SOL     OW 5276   3.000   2.242   1.678
 1758SOL    HW1 5277   2.955   2.305   1.742
 1758SOL    HW2 5278   3.093   2.273   1.661
 1759SOL     OW 5279   3.022   2.069   1.477
 1759SOL    HW1 5280   3.022   2.133   1.554
 1759SOL    HW2 5281   3.050   2.117   1.394
 1760SOL     OW 5282   1.870   3.188   0.200
 1760SOL    HW1 5283   1.777   3.209   0.169
 1760SOL    HW2 5284   1.880   3.089   0.213
 1761SOL     OW 5285   1.950   3.663   0.927
 1761SOL    HW1 5286   1.908   3.577   0.900
 1761SOL    HW2 5287   2.044   3.666   0.893
 1762SOL     OW 5288   2.366   3.430   0.910
 1762SOL    HW1 5289   2.432   3.504   0.919
 1762SOL    HW2 5290   2.410   3.351   0.868
 1763SOL     OW 5291   2.864   2.658   1.238
 1763SOL    HW1 5292   2.905   2.626   1.324
 1763SOL    HW2 5293   2.768   2.631   1.235
 1764SOL     OW 5294   1.902   2.406   1.114
 1764SOL    HW1 5295   1.987   2.373   1.073
 1764SOL    HW2 5296   1.915   2.421   1.212
 1765SOL     OW 5297   2.051   2.382   1.722
 1765SOL    HW1 5298   2.110   2.342   1.652
 1765SOL    HW2 5299   1.993   2.453   1.681
 1766SOL     OW 5300   3.231   2.812   1.660
 1766SOL    HW1 5301   3.270   2.901   1.680
 1766SOL    HW2 5302   3.241   2.792   1.563
 1767SOL     OW 5303   2.677   2.434   0.325
 1767SOL    HW1 5304   2.684   2.345   0.279
 1767SOL    HW2 5305   2.583   2.468   0.317
 1768SOL     OW 5306   3.519   2.466   1.206
 1768SOL    HW1 5307   3.481   2.397   1.268
 1768SOL    HW2 5308   3.601   2.430   1.162
 1769SOL     OW 5309   2.114   3.426   1.744
 1769SOL    HW1 5310   2.084   3.483   1.820
 1769SOL    HW2 5311   2.107   3.329   1.770
 1770SOL     OW 5312   2.533   2.326   1.269
 1770SOL    HW1 5313   2.499   2.237   1.239
 1770SOL    HW2 5314   2.559   2.380   1.189
 1771SOL     OW 5315   2.792   3.540   1.465
 1771SOL    HW1 5316   2.768   3.522   1.370
 1771SOL    HW2 5317   2.822   3.634   1.475
 1772SOL     OW 5318   2.335   2.362   0.191
 1772SOL    HW1 5319   2.396   2.442   0.195
 1772SOL    HW2 5320   2.240   2.393   0.198
 1773SOL     OW 5321   2.021   2.999   1.466
 1773SOL    HW1 5322   2.043   2.938   1.542
 1773SOL    HW2 5323   2.031   2.950   1.380
 1774SOL     OW 5324   3.209   2.921   1.234
 1774SOL    HW1 5325   3.233   2.858   1.160
 1774SOL    HW2 5326   3.119   2.961   1.216
 1775SOL     OW 5327   3.164   2.717   0.309
 1775SOL    HW1 5328   3.078   2.686   0.351
 1775SOL    HW2 5329   3.160   2.703   0.210
 1776SOL     OW 5330   3.621   3.609   1.154
 1776SOL    HW1 5331   3.682   3.639   1.081
 1776SOL    HW2 5332   3.583   3.520   1.132
 1777SOL     OW 5333   3.114   3.593   1.128
 1777SOL    HW1 5334   3.198   3.598   1.074
 1777SOL    HW2 5335   3.091   3.497   1.146
 1778SOL     OW 5336   1.945   3.120   1.022
 1778SOL    HW1 5337   1.940   3.119   1.122
 1778SOL    HW2 5338   1.862   3.079   0.984
 1779SOL     OW 5339   2.550   3.524   1.716
 1779SOL    HW1 5340   2.494   3.605   1.725
 1779SOL    HW2 5341   2.602   3.528   1.630
 1780SOL     OW 5342   2.765   1.948   0.133
 1780SOL    HW1 5343   2.816   1.949   0.047
 1780SOL    HW2 5344   2.821   1.906   0.204
 1781SOL     OW 5345   3.588   1.997   0.523
 1781SOL    HW1 5346   3.661   1.980   0.456
 1781SOL    HW2 5347   3.557   1.910   0.561
 1782SOL     OW 5348   3.250   3.435   0.477
 1782SOL    HW1 5349   3.317   3.447   0.403
 1782SOL    HW2 5350   3.210   3.524   0.500
 1783SOL     OW 5351   1.992   3.656   1.851
 1783SOL    HW1 5352   1.951   3.582   1.904
 1783SOL    HW2 5353   2.056   3.707   1.909
 1784SOL     OW 5354   3.142   2.789   0.672
 1784SOL    HW1 5355   3.202   2.708   0.674
 1784SOL    HW2 5356   3.182   2.858   0.612
 1785SOL     OW 5357   2.692   3.135   1.422
 1785SOL    HW1 5358   2.687   3.168   1.517
 1785SOL    HW2 5359   2.606   3.154   1.376
 1786SOL     OW 5360   2.534   3.478   0.154
 1786SOL    HW1 5361   2.543   3.488   0.055
 1786SOL    HW2 5362   2.494   3.389   0.175
 1787SOL     OW 5363   3.512   3.582   1.394
 1787SOL    HW1 5364   3.565   3.592   1.310
 1787SOL    HW2 5365   3.485   3.672   1.428
 1788SOL     OW 5366   3.703   2.037   0.963
 1788SOL    HW1 5367   3.742   1.952   0.927
 1788SOL    HW2 5368   3.605   2.039   0.944
 1789SOL     OW 5369   2.125   2.188   0.720
 1789SOL    HW1 5370   2.046   2.239   0.686
 1789SOL    HW2 5371   2.116   2.173   0.818
 1790SOL     OW 5372   3.056   3.474   0.031
 1790SOL    HW1 5373   3.062   3.381   0.068
 1790SOL    HW2 5374   2.997   3.474  -0.049
 1791SOL     OW 5375   2.684   2.864   1.372
 1791SOL    HW1 5376   2.724   2.863   1.280
 1791SOL    HW2 5377   2.694   2.956   1.412
 1792SOL     OW 5378   2.778   2.772   0.291
 1792SOL    HW1 5379   2.841   2.810   0.223
 1792SOL    HW2 5380   2.818   2.689   0.330
 1793SOL     OW 5381   3.366   3.469   0.044
 1793SOL    HW1 5382   3.274   3.506   0.051
 1793SOL    HW2 5383   3.404   3.489  -0.046
 1794SOL     OW 5384   2.234   3.150   1.490
 1794SOL    HW1 5385   2.221   3.243   1.456
 1794SOL    HW2 5386   2.150   3.098   1.477
 1795SOL     OW 5387   3.476   3.154   1.289
 1795SOL    HW1 5388   3.536   3.157   1.369
 1795SOL    HW2 5389   3.401   3.218   1.302
 1796SOL     OW 5390   2.901   2.960   0.696
 1796SOL    HW1 5391   2.831   2.913   0.750
 1796SOL    HW2 5392   2.960   2.892   0.653
 1797SOL     OW 5393   2.876   2.098   0.971
 1797SOL    HW1 5394   2.868   2.062   0.878
 1797SOL    HW2 5395   2.874   2.022   1.036
 1798SOL     OW 5396   2.452   3.349   0.491
 1798SOL    HW1 5397   2.494   3.291   0.421
 1798SOL    HW2 5398   2.408   3.428   0.447
 1799SOL     OW 5399   3.571   2.247   1.381
 1799SOL    HW1 5400   3.644   2.316   1.385
 1799SOL    HW2 5401   3.599   2.172   1.322
 1800SOL     OW 5402   2.117   3.210   0.290
 1800SOL    HW1 5403   2.021   3.211   0.263
 1800SOL    HW2 5404   2.129   3.263   0.374
 1801SOL     OW 5405   1.967   2.875   1.726
 1801SOL    HW1 5406   1.890   2.842   1.780
 1801SOL    HW2 5407   2.052   2.845   1.768
 1802SOL     OW 5408   2.534   2.065   1.489
 1802SOL    HW1 5409   2.624   2.049   1.449
 1802SOL    HW2 5410   2.542   2.070   1.588
 1803SOL     OW 5411   1.937   2.207   0.033
 1803SOL    HW1 5412   1.845   2.179   0.004
 1803SOL    HW2 5413   1.968   2.284  -0.023
 1804SOL     OW 5414   3.302   2.718   1.398
 1804SOL    HW1 5415   3.245   2.770   1.335
 1804SOL    HW2 5416   3.398   2.730   1.374
 1805SOL     OW 5417   1.934   2.028   0.318
 1805SOL    HW1 5418   1.917   2.111   0.264
 1805SOL    HW2 5419   2.024   1.991   0.296
 1806SOL     OW 5420   3.045   3.197   0.119
 1806SOL    HW1 5421   2.946   3.186   0.121
 1806SOL    HW2 5422   3.079   3.212   0.212
 1807SOL     OW 5423   2.475   2.704   1.431
 1807SOL    HW1 5424   2.531   2.785   1.414
 1807SOL    HW2 5425   2.534   2.624   1.434
 1808SOL     OW 5426   3.355   3.629   0.959
 1808SOL    HW1 5427   3.388   3.693   0.890
 1808SOL    HW2 5428   3.421   3.623   1.034
 1809SOL     OW 5429   2.578   2.427   1.708
 1809SOL    HW1 5430   2.597   2.492   1.782
 1809SOL    HW2 5431   2.638   2.347   1.717
 1810SOL     OW 5432   3.312   3.082   1.633
 1810SOL    HW1 5433   3.303   3.072   1.732
 1810SOL    HW2 5434   3.408   3.075   1.607
 1811SOL     OW 5435   2.252   3.603   1.560
 1811SOL    HW1 5436   2.161   3.644   1.558
 1811SOL    HW2 5437   2.245   3.509   1.592
 1812SOL     OW 5438   3.536   2.745   1.254
 1812SOL    HW1 5439   3.509   2.656   1.217
 1812SOL    HW2 5440   3.537   2.813   1.181
 1813SOL     OW 5441   3.087   2.187   0.449
 1813SOL    HW1 5442   3.152   2.113   0.438
 1813SOL    HW2 5443   3.107   2.237   0.533
 1814SOL     OW 5444   2.456   2.607   0.652
 1814SOL    HW1 5445   2.506   2.692   0.633
 1814SOL    HW2 5446   2.368   2.609   0.604
 1815SOL     OW 5447   3.639   2.204   1.642
 1815SOL    HW1 5448   3.622   2.235   1.548
 1815SOL    HW2 5449   3.555   2.167   1.680
 1816SOL     OW 5450   3.592   2.796   1.517
 1816SOL    HW1 5451   3.630   2.887   1.532
 1816SOL    HW2 5452   3.584   2.779   1.418
 1817SOL     OW 5453   2.721   3.236   0.016
 1817SOL    HW1 5454   2.675   3.251   0.104
 1817SOL    HW2 5455   2.765   3.321  -0.014
 1818SOL     OW 5456   2.523   3.652   0.953
 1818SOL    HW1 5457   2.477   3.740   0.940
 1818SOL    HW2 5458   2.622   3.664   0.946
 1819SOL     OW 5459   2.721   2.818   0.861
 1819SOL    HW1 5460   2.775   2.749   0.909
 1819SOL    HW2 5461   2.689   2.887   0.927
 1820SOL     OW 5462   2.945   2.846   0.087
 1820SOL    HW1 5463   2.922   2.899   0.005
 1820SOL    HW2 5464   3.026   2.790   0.068
 1821SOL     OW 5465   3.723   3.431   0.851
 1821SOL    HW1 5466   3.652   3.419   0.781
 1821SOL    HW2 5467   3.724   3.352   0.911
 1822SOL     OW 5468   2.083   3.176   1.844
 1822SOL    HW1 5469   2.018   3.103   1.823
 1822SOL    HW2 5470   2.087   3.190   1.942
 1823SOL     OW 5471   1.941   3.102   0.653
 1823SOL    HW1 5472   1.940   3.055   0.741
 1823SOL    HW2 5473   2.023   3.074   0.602
 1824SOL     OW 5474   2.534   3.253   1.624
 1824SOL    HW1 5475   2.456   3.203   1.662
 1824SOL    HW2 5476   2.531   3.348   1.655
 1825SOL     OW 5477   3.686   2.054   1.227
 1825SOL    HW1 5478   3.682   1.964   1.271
 1825SOL    HW2 5479   3.689   2.043   1.128
 1826SOL     OW 5480   2.290   2.286   0.520
 1826SOL    HW1 5481   2.320   2.214   0.458
 1826SOL    HW2 5482   2.251   2.246   0.603
 1827SOL     OW 5483   3.567   3.349   1.104
 1827SOL    HW1 5484   3.474   3.324   1.077
 1827SOL    HW2 5485   3.593   3.299   1.186
 1828SOL     OW 5486   2.179   2.409   1.280
 1828SOL    HW1 5487   2.217   2.350   1.352
 1828SOL    HW2 5488   2.219   2.383   1.192
 1829SOL     OW 5489   2.674   3.448   0.687
 1829SOL    HW1 5490   2.706   3.458   0.593
 1829SOL    HW2 5491   2.595   3.386   0.689
 1830SOL     OW 5492   3.286   2.076   1.112
 1830SOL    HW1 5493   3.338   2.011   1.167
 1830SOL    HW2 5494   3.237   2.139   1.173
 1831SOL     OW 5495   2.863   1.896   1.154
 1831SOL    HW1 5496   2.800   1.824   1.123
 1831SOL    HW2 5497   2.956   1.860   1.154
 1832SOL     OW 5498   2.632   3.192   0.301
 1832SOL    HW1 5499   2.586   3.105   0.318
 1832SOL    HW2 5500   2.723   3.189   0.342
 1833SOL     OW 5501   2.480   3.429   1.284
 1833SOL    HW1 5502   2.475   3.511   1.341
 1833SOL    HW2 5503   2.569   3.426   1.239
 1834SOL     OW 5504   3.162   2.315   0.691
 1834SOL    HW1 5505   3.103   2.395   0.695
 1834SOL    HW2 5506   3.177   2.280   0.784
 1835SOL     OW 5507   3.455   2.083   0.882
 1835SOL    HW1 5508   3.371   2.082   0.936
 1835SOL    HW2 5509   3.457   2.166   0.826
 1836SOL     OW 5510   1.901   2.939   0.300
 1836SOL    HW1 5511   2.000   2.928   0.291
 1836SOL    HW2 5512   1.861   2.853   0.332
 1837SOL     OW 5513   2.737   3.508   0.337
 1837SOL    HW1 5514   2.660   3.473   0.283
 1837SOL    HW2 5515   2.705   3.579   0.399
 1838SOL     OW 5516   2.092   2.490   1.975
 1838SOL    HW1 5517   1.999   2.488   2.012
 1838SOL    HW2 5518   2.093   2.451   1.883
 1839SOL     OW 5519   2.087   2.137   2.858
 1839SOL    HW1 5520   2.122   2.120   2.950
 1839SOL    HW2 5521   1.999   2.092   2.846
 1840SOL     OW 5522   1.881   2.230   2.509
 1840SOL    HW1 5523   1.799   2.273   2.548
 1840SOL    HW2 5524   1.853   2.157   2.446
 1841SOL     OW 5525   2.431   3.137   3.027
 1841SOL    HW1 5526   2.338   3.130   2.990
 1841SOL    HW2 5527   2.442   3.226   3.071
 1842SOL     OW 5528   3.417   3.373   2.565
 1842SOL    HW1 5529   3.360   3.357   2.646
 1842SOL    HW2 5530   3.358   3.383   2.485
 1843SOL     OW 5531   2.997   2.565   2.579
 1843SOL    HW1 5532   3.054   2.643   2.554
 1843SOL    HW2 5533   2.937   2.591   2.655
 1844SOL     OW 5534   3.617   2.469   2.093
 1844SOL    HW1 5535   3.605   2.456   1.994
 1844SOL    HW2 5536   3.587   2.388   2.142
 1845SOL     OW 5537   2.630   3.006   2.885
 1845SOL    HW1 5538   2.552   3.023   2.945
 1845SOL    HW2 5539   2.664   3.093   2.849
 1846SOL     OW 5540   2.712   2.660   3.685
 1846SOL    HW1 5541   2.708   2.736   3.750
 1846SOL    HW2 5542   2.734   2.696   3.594
 1847SOL     OW 5543   2.547   2.874   2.527
 1847SOL    HW1 5544   2.616   2.858   2.597
 1847SOL    HW2 5545   2.474   2.931   2.565
 1848SOL     OW 5546   2.548   3.023   3.665
 1848SOL    HW1 5547   2.608   3.102   3.679
 1848SOL    HW2 5548   2.462   3.054   3.624
 1849SOL     OW 5549   2.197   3.297   2.923
 1849SOL    HW1 5550   2.119   3.266   2.870
 1849SOL    HW2 5551   2.255   3.355   2.866
 1850SOL     OW 5552   3.322   3.367   3.201
 1850SOL    HW1 5553   3.346   3.461   3.227
 1850SOL    HW2 5554   3.306   3.313   3.283
 1851SOL     OW 5555   2.300   2.254   3.361
 1851SOL    HW1 5556   2.382   2.198   3.370
 1851SOL    HW2 5557   2.219   2.196   3.365
 1852SOL     OW 5558   3.465   2.309   2.599
 1852SOL    HW1 5559   3.391   2.355   2.549
 1852SOL    HW2 5560   3.516   2.377   2.652
 1853SOL     OW 5561   2.093   3.575   2.345
 1853SOL    HW1 5562   2.127   3.652   2.399
 1853SOL    HW2 5563   2.137   3.575   2.255
 1854SOL     OW 5564   2.989   3.203   3.552
 1854SOL    HW1 5565   3.036   3.203   3.640
 1854SOL    HW2 5566   2.941   3.116   3.541
 1855SOL     OW 5567   2.092   3.296   2.400
 1855SOL    HW1 5568   2.066   3.392   2.400
 1855SOL    HW2 5569   2.021   3.242   2.445
 1856SOL     OW 5570   2.102   2.953   2.748
 1856SOL    HW1 5571   2.116   2.869   2.800
 1856SOL    HW2 5572   2.047   3.017   2.803
 1857SOL     OW 5573   2.482   3.648   3.301
 1857SOL    HW1 5574   2.390   3.631   3.336
 1857SOL    HW2 5575   2.510   3.740   3.327
 1858SOL     OW 5576   2.468   2.826   1.985
 1858SOL    HW1 5577   2.475   2.910   1.931
 1858SOL    HW2 5578   2.514   2.839   2.073
 1859SOL     OW 5579   3.456   1.976   3.342
 1859SOL    HW1 5580   3.438   2.043   3.270
 1859SOL    HW2 5581   3.453   2.022   3.431
 1860SOL     OW 5582   1.984   2.505   2.425
 1860SOL    HW1 5583   1.939   2.417   2.442
 1860SOL    HW2 5584   1.983   2.559   2.509
 1861SOL     OW 5585   3.704   3.629   2.221
 1861SOL    HW1 5586   3.758   3.600   2.301
 1861SOL    HW2 5587   3.734   3.719   2.192
 1862SOL     OW 5588   1.889   3.458   1.979
 1862SOL    HW1 5589   1.870   3.362   2.000
 1862SOL    HW2 5590   1.856   3.516   2.054
 1863SOL     OW 5591   3.551   2.784   2.474
 1863SOL    HW1 5592   3.646   2.755   2.482
 1863SOL    HW2 5593   3.543   2.849   2.399
 1864SOL     OW 5594   3.503   2.970   2.294
 1864SOL    HW1 5595   3.589   2.972   2.242
 1864SOL    HW2 5596   3.517   3.017   2.382
 1865SOL     OW 5597   1.975   2.599   3.459
 1865SOL    HW1 5598   2.063   2.586   3.504
 1865SOL    HW2 5599   1.962   2.696   3.437
 1866SOL     OW 5600   2.475   3.227   2.588
 1866SOL    HW1 5601   2.426   3.140   2.597
 1866SOL    HW2 5602   2.452   3.270   2.501
 1867SOL     OW 5603   3.155   3.090   3.285
 1867SOL    HW1 5604   3.192   3.017   3.227
 1867SOL    HW2 5605   3.207   3.095   3.370
 1868SOL     OW 5606   2.671   1.866   2.364
 1868SOL    HW1 5607   2.711   1.957   2.355
 1868SOL    HW2 5608   2.571   1.874   2.370
 1869SOL     OW 5609   2.059   2.838   3.126
 1869SOL    HW1 5610   2.148   2.793   3.112
 1869SOL    HW2 5611   1.986   2.773   3.107
 1870SOL     OW 5612   3.387   2.861   2.052
 1870SOL    HW1 5613   3.324   2.785   2.065
 1870SOL    HW2 5614   3.435   2.879   2.138
 1871SOL     OW 5615   3.049   3.654   3.478
 1871SOL    HW1 5616   3.073   3.714   3.402
 1871SOL    HW2 5617   3.056   3.559   3.448
 1872SOL     OW 5618   2.179   2.113   3.663
 1872SOL    HW1 5619   2.250   2.184   3.669
 1872SOL    HW2 5620   2.091   2.152   3.691
 1873SOL     OW 5621   3.328   3.279   2.815
 1873SOL    HW1 5622   3.269   3.285   2.895
 1873SOL    HW2 5623   3.313   3.191   2.769
 1874SOL     OW 5624   3.529   3.576   2.434
 1874SOL    HW1 5625   3.488   3.553   2.346
 1874SOL    HW2 5626   3.511   3.502   2.499
 1875SOL     OW 5627   2.460   2.591   2.132
 1875SOL    HW1 5628   2.484   2.660   2.064
 1875SOL    HW2 5629   2.382   2.624   2.186
 1876SOL     OW 5630   3.143   2.207   2.806
 1876SOL    HW1 5631   3.057   2.157   2.793
 1876SOL    HW2 5632   3.205   2.153   2.862
 1877SOL     OW 5633   3.438   3.524   2.169
 1877SOL    HW1 5634   3.527   3.570   2.172
 1877SOL    HW2 5635   3.417   3.500   2.074
 1878SOL     OW 5636   2.669   2.467   3.327
 1878SOL    HW1 5637   2.622   2.464   3.416
 1878SOL    HW2 5638   2.618   2.412   3.261
 1879SOL     OW 5639   3.256   2.331   3.536
 1879SOL    HW1 5640   3.236   2.374   3.624
 1879SOL    HW2 5641   3.334   2.269   3.545
 1880SOL     OW 5642   2.835   2.752   3.434
 1880SOL    HW1 5643   2.881   2.668   3.405
 1880SOL    HW2 5644   2.779   2.786   3.359
 1881SOL     OW 5645   2.853   2.272   3.104
 1881SOL    HW1 5646   2.776   2.306   3.158
 1881SOL    HW2 5647   2.819   2.221   3.025
 1882SOL     OW 5648   2.903   2.563   2.291
 1882SOL    HW1 5649   2.929   2.559   2.387
 1882SOL    HW2 5650   2.818   2.512   2.277
 1883SOL     OW 5651   1.938   2.673   2.651
 1883SOL    HW1 5652   2.037   2.661   2.660
 1883SOL    HW2 5653   1.914   2.768   2.672
 1884SOL     OW 5654   1.992   3.683   3.433
 1884SOL    HW1 5655   1.982   3.668   3.532
 1884SOL    HW2 5656   1.906   3.719   3.397
 1885SOL     OW 5657   2.727   2.210   2.057
 1885SOL    HW1 5658   2.786   2.273   2.008
 1885SOL    HW2 5659   2.746   2.116   2.028
 1886SOL     OW 5660   3.581   2.447   3.693
 1886SOL    HW1 5661   3.555   2.536   3.657
 1886SOL    HW2 5662   3.579   2.379   3.620
 1887SOL     OW 5663   3.224   3.006   2.407
 1887SOL    HW1 5664   3.307   2.977   2.359
 1887SOL    HW2 5665   3.175   3.073   2.351
 1888SOL     OW 5666   2.412   2.058   2.747
 1888SOL    HW1 5667   2.407   2.053   2.847
 1888SOL    HW2 5668   2.414   2.154   2.718
 1889SOL     OW 5669   2.870   3.318   2.339
 1889SOL    HW1 5670   2.824   3.390   2.287
 1889SOL    HW2 5671   2.866   3.338   2.437
 1890SOL     OW 5672   2.213   3.663   2.715
 1890SOL    HW1 5673   2.263   3.577   2.721
 1890SOL    HW2 5674   2.278   3.740   2.712
 1891SOL     OW 5675   3.657   2.928   2.735
 1891SOL    HW1 5676   3.595   2.913   2.659
 1891SOL    HW2 5677   3.605   2.939   2.820
 1892SOL     OW 5678   3.089   3.412   3.368
 1892SOL    HW1 5679   3.095   3.335   3.432
 1892SOL    HW2 5680   3.037   3.386   3.288
 1893SOL     OW 5681   2.183   2.805   2.104
 1893SOL    HW1 5682   2.265   2.844   2.062
 1893SOL    HW2 5683   2.156   2.723   2.055
 1894SOL     OW 5684   3.320   2.597   2.590
 1894SOL    HW1 5685   3.315   2.532   2.665
 1894SOL    HW2 5686   3.400   2.656   2.603
 1895SOL     OW 5687   2.323   3.128   3.589
 1895SOL    HW1 5688   2.273   3.129   3.503
 1895SOL    HW2 5689   2.260   3.110   3.665
 1896SOL     OW 5690   2.973   3.638   2.099
 1896SOL    HW1 5691   2.913   3.576   2.149
 1896SOL    HW2 5692   3.004   3.594   2.014
 1897SOL     OW 5693   2.064   2.147   3.360
 1897SOL    HW1 5694   1.984   2.207   3.347
 1897SOL    HW2 5695   2.054   2.098   3.446
 1898SOL     OW 5696   3.494   3.239   1.943
 1898SOL    HW1 5697   3.462   3.333   1.933
 1898SOL    HW2 5698   3.418   3.176   1.931
 1899SOL     OW 5699   2.326   3.605   2.185
 1899SOL    HW1 5700   2.359   3.644   2.271
 1899SOL    HW2 5701   2.402   3.598   2.120
 1900SOL     OW 5702   3.262   1.969   2.288
 1900SOL    HW1 5703   3.238   1.932   2.198
 1900SOL    HW2 5704   3.361   1.985   2.292
 1901SOL     OW 5705   2.111   3.647   3.103
 1901SOL    HW1 5706   2.168   3.582   3.153
 1901SOL    HW2 5707   2.095   3.614   3.010
 1902SOL     OW 5708   2.802   3.560   2.766
 1902SOL    HW1 5709   2.882   3.503   2.787
 1902SOL    HW2 5710   2.753   3.520   2.689
 1903SOL     OW 5711   2.244   2.562   2.342
 1903SOL    HW1 5712   2.289   2.472   2.339
 1903SOL    HW2 5713   2.150   2.551   2.375
 1904SOL     OW 5714   3.409   2.084   3.591
 1904SOL    HW1 5715   3.404   2.121   3.683
 1904SOL    HW2 5716   3.337   2.015   3.579
 1905SOL     OW 5717   2.476   1.984   1.979
 1905SOL    HW1 5718   2.574   1.962   1.986
 1905SOL    HW2 5719   2.445   1.967   1.886
 1906SOL     OW 5720   2.643   2.126   3.611
 1906SOL    HW1 5721   2.710   2.065   3.654
 1906SOL    HW2 5722   2.570   2.145   3.676
 1907SOL     OW 5723   2.750   3.376   3.057
 1907SOL    HW1 5724   2.727   3.351   2.963
 1907SOL    HW2 5725   2.811   3.307   3.096
 1908SOL     OW 5726   3.213   2.452   3.295
 1908SOL    HW1 5727   3.241   2.409   3.380
 1908SOL    HW2 5728   3.238   2.548   3.296
 1909SOL     OW 5729   2.665   3.264   2.786
 1909SOL    HW1 5730   2.755   3.278   2.744
 1909SOL    HW2 5731   2.594   3.266   2.715
 1910SOL     OW 5732   2.784   2.365   2.761
 1910SOL    HW1 5733   2.759   2.356   2.665
 1910SOL    HW2 5734   2.832   2.283   2.792
 1911SOL     OW 5735   2.401   1.926   2.374
 1911SOL    HW1 5736   2.320   1.927   2.432
 1911SOL    HW2 5737   2.404   2.009   2.319
 1912SOL     OW 5738   3.296   3.050   1.903
 1912SOL    HW1 5739   3.328   2.974   1.960
 1912SOL    HW2 5740   3.204   3.077   1.933
 1913SOL     OW 5741   2.159   1.897   2.033
 1913SOL    HW1 5742   2.208   1.981   2.012
 1913SOL    HW2 5743   2.221   1.832   2.078
 1914SOL     OW 5744   2.797   2.098   2.342
 1914SOL    HW1 5745   2.749   2.139   2.264
 1914SOL    HW2 5746   2.896   2.096   2.323
 1915SOL     OW 5747   2.938   2.545   3.326
 1915SOL    HW1 5748   2.858   2.484   3.329
 1915SOL    HW2 5749   3.019   2.492   3.302
 1916SOL     OW 5750   3.089   3.432   2.655
 1916SOL    HW1 5751   3.110   3.506   2.590
 1916SOL    HW2 5752   3.157   3.432   2.728
 1917SOL     OW 5753   2.321   3.014   2.603
 1917SOL    HW1 5754   2.250   2.987   2.668
 1917SOL    HW2 5755   2.295   2.986   2.510
 1918SOL     OW 5756   3.133   3.659   2.453
 1918SOL    HW1 5757   3.177   3.723   2.389
 1918SOL    HW2 5758   3.083   3.711   2.523
 1919SOL     OW 5759   2.894   2.411   1.878
 1919SOL    HW1 5760   2.853   2.493   1.839
 1919SOL    HW2 5761   2.958   2.437   1.951
 1920SOL     OW 5762   1.940   2.418   3.248
 1920SOL    HW1 5763   2.032   2.417   3.207
 1920SOL    HW2 5764   1.934   2.492   3.315
 1921SOL     OW 5765   2.423   2.084   3.009
 1921SOL    HW1 5766   2.461   2.000   3.046
 1921SOL    HW2 5767   2.335   2.103   3.053
 1922SOL     OW 5768   2.728   2.316   2.504
 1922SOL    HW1 5769   2.696   2.388   2.442
 1922SOL    HW2 5770   2.752   2.235   2.451
 1923SOL     OW 5771   2.879   1.901   2.615
 1923SOL    HW1 5772   2.807   1.906   2.546
 1923SOL    HW2 5773   2.855   1.832   2.684
 1924SOL     OW 5774   3.291   3.035   2.729
 1924SOL    HW1 5775   3.236   2.951   2.722
 1924SOL    HW2 5776   3.317   3.064   2.637
 1925SOL     OW 5777   3.328   2.452   2.854
 1925SOL    HW1 5778   3.298   2.357   2.861
 1925SOL    HW2 5779   3.401   2.468   2.920
 1926SOL     OW 5780   3.719   2.695   2.239
 1926SOL    HW1 5781   3.761   2.631   2.303
 1926SOL    HW2 5782   3.681   2.644   2.161
 1927SOL     OW 5783   2.350   3.247   2.036
 1927SOL    HW1 5784   2.263   3.232   2.083
 1927SOL    HW2 5785   2.333   3.273   1.941
 1928SOL     OW 5786   3.526   3.142   2.519
 1928SOL    HW1 5787   3.625   3.150   2.533
 1928SOL    HW2 5788   3.481   3.226   2.550
 1929SOL     OW 5789   3.252   2.437   1.940
 1929SOL    HW1 5790   3.198   2.416   2.021
 1929SOL    HW2 5791   3.343   2.396   1.949
 1930SOL     OW 5792   3.616   3.085   3.450
 1930SOL    HW1 5793   3.707   3.046   3.437
 1930SOL    HW2 5794   3.624   3.181   3.474
 1931SOL     OW 5795   2.926   3.209   3.202
 1931SOL    HW1 5796   2.846   3.186   3.257
 1931SOL    HW2 5797   3.009   3.183   3.251
 1932SOL     OW 5798   3.454   3.491   3.487
 1932SOL    HW1 5799   3.481   3.525   3.397
 1932SOL    HW2 5800   3.533   3.453   3.533
 1933SOL     OW 5801   2.973   3.057   2.962
 1933SOL    HW1 5802   2.933   3.101   3.043
 1933SOL    HW2 5803   2.932   3.094   2.879
 1934SOL     OW 5804   3.500   2.961   2.941
 1934SOL    HW1 5805   3.505   3.042   3.000
 1934SOL    HW2 5806   3.414   2.963   2.890
 1935SOL     OW 5807   2.777   1.951   3.264
 1935SOL    HW1 5808   2.802   1.931   3.169
 1935SOL    HW2 5809   2.849   2.007   3.306
 1936SOL     OW 5810   2.842   2.978   3.581
 1936SOL    HW1 5811   2.743   2.984   3.591
 1936SOL    HW2 5812   2.865   2.898   3.525
 1937SOL     OW 5813   2.567   2.912   2.230
 1937SOL    HW1 5814   2.553   2.919   2.329
 1937SOL    HW2 5815   2.651   2.861   2.212
 1938SOL     OW 5816   2.272   2.675   3.113
 1938SOL    HW1 5817   2.358   2.687   3.163
 1938SOL    HW2 5818   2.230   2.588   3.140
 1939SOL     OW 5819   3.136   2.248   3.124
 1939SOL    HW1 5820   3.157   2.322   3.188
 1939SOL    HW2 5821   3.047   2.265   3.081
 1940SOL     OW 5822   1.926   3.426   3.193
 1940SOL    HW1 5823   1.880   3.508   3.159
 1940SOL    HW2 5824   2.024   3.445   3.202
 1941SOL     OW 5825   2.229   2.962   2.363
 1941SOL    HW1 5826   2.222   3.045   2.307
 1941SOL    HW2 5827   2.233   2.882   2.303
 1942SOL     OW 5828   2.428   2.399   2.727
 1942SOL    HW1 5829   2.440   2.465   2.653
 1942SOL    HW2 5830   2.474   2.433   2.810
 1943SOL     OW 5831   3.114   3.210   2.250
 1943SOL    HW1 5832   3.164   3.287   2.290
 1943SOL    HW2 5833   3.019   3.212   2.282
 1944SOL     OW 5834   3.134   3.307   3.004
 1944SOL    HW1 5835   3.181   3.320   3.091
 1944SOL    HW2 5836   3.068   3.233   3.013
 1945SOL     OW 5837   3.444   2.501   2.334
 1945SOL    HW1 5838   3.413   2.562   2.407
 1945SOL    HW2 5839   3.494   2.553   2.265
 1946SOL     OW 5840   2.216   3.372   3.191
 1946SOL    HW1 5841   2.195   3.328   3.104
 1946SOL    HW2 5842   2.313   3.398   3.194
 1947SOL     OW 5843   2.264   2.613   3.460
 1947SOL    HW1 5844   2.332   2.668   3.413
 1947SOL    HW2 5845   2.304   2.525   3.487
 1948SOL     OW 5846   3.449   2.641   3.532
 1948SOL    HW1 5847   3.357   2.679   3.527
 1948SOL    HW2 5848   3.509   2.688   3.467
 1949SOL     OW 5849   2.875   1.967   3.632
 1949SOL    HW1 5850   2.881   2.052   3.580
 1949SOL    HW2 5851   2.907   1.891   3.575
 1950SOL     OW 5852   2.366   1.912   3.602
 1950SOL    HW1 5853   2.324   1.855   3.532
 1950SOL    HW2 5854   2.300   1.981   3.634
 1951SOL     OW 5855   2.435   2.732   2.891
 1951SOL    HW1 5856   2.479   2.821   2.882
 1951SOL    HW2 5857   2.372   2.732   2.968
 1952SOL     OW 5858   3.222   2.724   2.907
 1952SOL    HW1 5859   3.147   2.724   2.841
 1952SOL    HW2 5860   3.259   2.632   2.916
 1953SOL     OW 5861   3.071   2.387   2.137
 1953SOL    HW1 5862   3.084   2.303   2.191
 1953SOL    HW2 5863   3.042   2.461   2.197
 1954SOL     OW 5864   2.169   2.075   3.093
 1954SOL    HW1 5865   2.146   2.112   3.183
 1954SOL    HW2 5866   2.139   1.980   3.087
 1955SOL     OW 5867   1.899   3.172   3.144
 1955SOL    HW1 5868   1.952   3.123   3.212
 1955SOL    HW2 5869   1.921   3.270   3.149
 1956SOL     OW 5870   2.594   2.496   2.926
 1956SOL    HW1 5871   2.653   2.470   2.850
 1956SOL    HW2 5872   2.566   2.592   2.915
 1957SOL     OW 5873   3.590   2.797   3.716
 1957SOL    HW1 5874   3.544   2.790   3.627
 1957SOL    HW2 5875   3.528   2.841   3.782
 1958SOL     OW 5876   2.169   1.925   2.480
 1958SOL    HW1 5877   2.158   2.019   2.513
 1958SOL    HW2 5878   2.164   1.862   2.557
 1959SOL     OW 5879   3.484   2.229   2.236
 1959SOL    HW1 5880   3.486   2.153   2.300
 1959SOL    HW2 5881   3.436   2.306   2.276
 1960SOL     OW 5882   2.885   2.628   2.828
 1960SOL    HW1 5883   2.900   2.649   2.924
 1960SOL    HW2 5884   2.855   2.533   2.819
 1961SOL     OW 5885   2.842   3.435   3.562
 1961SOL    HW1 5886   2.822   3.479   3.474
 1961SOL    HW2 5887   2.881   3.344   3.546
 1962SOL     OW 5888   3.721   3.380   3.467
 1962SOL    HW1 5889   3.735   3.407   3.372
 1962SOL    HW2 5890   3.804   3.402   3.520
 1963SOL     OW 5891   2.212   2.760   3.666
 1963SOL    HW1 5892   2.288   2.804   3.714
 1963SOL    HW2 5893   2.247   2.713   3.584
 1964SOL     OW 5894   3.402   2.136   1.987
 1964SOL    HW1 5895   3.341   2.061   2.010
 1964SOL    HW2 5896   3.424   2.188   2.070
 1965SOL     OW 5897   3.165   2.700   1.904
 1965SOL    HW1 5898   3.199   2.607   1.919
 1965SOL    HW2 5899   3.183   2.727   1.809
 1966SOL     OW 5900   2.930   3.195   2.711
 1966SOL    HW1 5901   2.937   3.111   2.656
 1966SOL    HW2 5902   2.992   3.264   2.675
 1967SOL     OW 5903   2.181   2.672   2.811
 1967SOL    HW1 5904   2.274   2.708   2.816
 1967SOL    HW2 5905   2.175   2.587   2.863
 1968SOL     OW 5906   2.201   2.371   2.868
 1968SOL    HW1 5907   2.149   2.288   2.851
 1968SOL    HW2 5908   2.278   2.376   2.804
 1969SOL     OW 5909   3.000   2.242   3.540
 1969SOL    HW1 5910   2.955   2.305   3.604
 1969SOL    HW2 5911   3.093   2.273   3.523
 1970SOL     OW 5912   3.022   2.069   3.339
 1970SOL    HW1 5913   3.022   2.133   3.416
 1970SOL    HW2 5914   3.050   2.117   3.256
 1971SOL     OW 5915   1.870   3.188   2.062
 1971SOL    HW1 5916   1.777   3.209   2.031
 1971SOL    HW2 5917   1.880   3.089   2.075
 1972SOL     OW 5918   1.950   3.663   2.789
 1972SOL    HW1 5919   1.908   3.577   2.762
 1972SOL    HW2 5920   2.044   3.666   2.755
 1973SOL     OW 5921   2.366   3.430   2.772
 1973SOL    HW1 5922   2.432   3.504   2.781
 1973SOL    HW2 5923   2.410   3.351   2.730
 1974SOL     OW 5924   2.864   2.658   3.100
 1974SOL    HW1 5925   2.905   2.626   3.186
 1974SOL    HW2 5926   2.768   2.631   3.097
 1975SOL     OW 5927   1.902   2.406   2.976
 1975SOL    HW1 5928   1.987   2.373   2.935
 1975SOL    HW2 5929   1.915   2.421   3.074
 1976SOL     OW 5930   2.051   2.382   3.584
 1976SOL    HW1 5931   2.110   2.342   3.514
 1976SOL    HW2 5932   1.993   2.453   3.543
 1977SOL     OW 5933   3.231   2.812   3.522
 1977SOL    HW1 5934   3.270   2.901   3.542
 1977SOL    HW2 5935   3.241   2.792   3.425
 1978SOL     OW 5936   2.677   2.434   2.187
 1978SOL    HW1 5937   2.684   2.345   2.141
 1978SOL    HW2 5938   2.583   2.468   2.179
 1979SOL     OW 5939   3.519   2.466   3.068
 1979SOL    HW1 5940   3.481   2.397   3.130
 1979SOL    HW2 5941   3.601   2.430   3.024
 1980SOL     OW 5942   2.114   3.426   3.606
 1980SOL    HW1 5943   2.084   3.483   3.682
 1980SOL    HW2 5944   2.107   3.329   3.632
 1981SOL     OW 5945   2.533   2.326   3.131
 1981SOL    HW1 5946   2.499   2.237   3.101
 1981SOL    HW2 5947   2.559   2.380   3.051
 1982SOL     OW 5948   2.792   3.540   3.327
 1982SOL    HW1 5949   2.768   3.522   3.232
 1982SOL    HW2 5950   2.822   3.634   3.337
 1983SOL     OW 5951   2.335   2.362   2.053
 1983SOL    HW1 5952   2.396   2.442   2.057
 1983SOL    HW2 5953   2.240   2.393   2.060
 1984SOL     OW 5954   2.021   2.999   3.328
 1984SOL    HW1 5955   2.043   2.938   3.404
 1984SOL    HW2 5956   2.031   2.950   3.242
 1985SOL     OW 5957   3.209   2.921   3.096
 1985SOL    HW1 5958   3.233   2.858   3.022
 1985SOL    HW2 5959   3.119   2.961   3.078
 1986SOL     OW 5960   3.164   2.717   2.171
 1986SOL    HW1 5961   3.078   2.686   2.213
 1986SOL    HW2 5962   3.160   2.703   2.072
 1987SOL     OW 5963   3.621   3.609   3.016
 1987SOL    HW1 5964   3.682   3.639   2.943
 1987SOL    HW2 5965   3.583   3.520   2.994
 1988SOL     OW 5966   3.114   3.593   2.990
 1988SOL    HW1 5967   3.198   3.598   2.936
 1988SOL    HW2 5968   3.091   3.497   3.008
 1989SOL     OW 5969   1.945   3.120   2.884
 1989SOL    HW1 5970   1.940   3.119   2.984
 1989SOL    HW2 5971   1.862   3.079   2.846
 1990SOL     OW 5972   2.550   3.524   3.578
 1990SOL    HW1 5973   2.494   3.605   3.587
 1990SOL    HW2 5974   2.602   3.528   3.492
 1991SOL     OW 5975   3.588   1.997   2.385
 1991SOL    HW1 5976   3.661   1.980   2.318
 1991SOL    HW2 5977   3.557   1.910   2.423
 1992SOL     OW 5978   3.250   3.435   2.339
 1992SOL    HW1 5979   3.317   3.447   2.265
 1992SOL    HW2 5980   3.210   3.524   2.362
 1993SOL     OW 5981   1.992   3.656   3.713
 1993SOL    HW1 5982   1.951   3.582   3.766
 1993SOL    HW2 5983   2.056   3.707   3.771
 1994SOL     OW 5984   3.142   2.789   2.534
 1994SOL    HW1 5985   3.202   2.708   2.536
 1994SOL    HW2 5986   3.182   2.858   2.474
 1995SOL     OW 5987   2.692   3.135   3.284
 1995SOL    HW1 5988   2.687   3.168   3.379
 1995SOL    HW2 5989   2.606   3.154   3.238
 1996SOL     OW 5990   2.534   3.478   2.016
 1996SOL    HW1 5991   2.543   3.488   1.917
 1996SOL    HW2 5992   2.494   3.389   2.037
 1997SOL     OW 5993   3.512   3.582   3.256
 1997SOL    HW1 5994   3.565   3.592   3.172
 1997SOL    HW2 5995   3.485   3.672   3.290
 1998SOL     OW 5996   3.703   2.037   2.825
 1998SOL    HW1 5997   3.742   1.952   2.789
 1998SOL    HW2 5998   3.605   2.039   2.806
 1999SOL     OW 5999   2.125   2.188   2.582
 1999SOL    HW1 6000   2.046   2.239   2.548
 1999SOL    HW2 6001   2.116   2.173   2.680
 2000SOL     OW 6002   3.056   3.474   1.893
 2000SOL    HW1 6003   3.062   3.381   1.930
 2000SOL    HW2 6004   2.997   3.474   1.813
 2001SOL     OW 6005   2.684   2.864   3.234
 2001SOL    HW1 6006   2.724   2.863   3.142
 2001SOL    HW2 6007   2.694   2.956   3.274
 2002SOL     OW 6008   2.778   2.772   2.153
 2002SOL    HW1 6009   2.841   2.810   2.085
 2002SOL    HW2 6010   2.818   2.689   2.192
 2003SOL     OW 6011   3.366   3.469   1.906
 2003SOL    HW1 6012   3.274   3.506   1.913
 2003SOL    HW2 6013   3.404   3.489   1.816
 2004SOL     OW 6014   2.234   3.150   3.352
 2004SOL    HW1 6015   2.221   3.243   3.318
 2004SOL    HW2 6016   2.150   3.098   3.339
 2005SOL     OW 6017   3.476   3.154   3.151
 2005SOL    HW1 6018   3.536   3.157   3.231
 2005SOL    HW2 6019   3.401   3.218   3.164
 2006SOL     OW 6020   2.901   2.960   2.558
 2006SOL    HW1 6021   2.831   2.913   2.612
 2006SOL    HW2 6022   2.960   2.892   2.515
 2007SOL     OW 6023   2.876   2.098   2.833
 2007SOL    HW1 6024   2.868   2.062   2.740
 2007SOL    HW2 6025   2.874   2.022   2.898
 2008SOL     OW 6026   2.452   3.349   2.353
 2008SOL    HW1 6027   2.494   3.291   2.283
 2008SOL    HW2 6028   2.408   3.428   2.309
 2009SOL     OW 6029   3.571   2.247   3.243
 2009SOL    HW1 6030   3.644   2.316   3.247
 2009SOL    HW2 6031   3.599   2.172   3.184
 2010SOL     OW 6032   2.117   3.210   2.152
 2010SOL    HW1 6033   2.021   3.211   2.125
 2010SOL    HW2 6034   2.129   3.263   2.236
 2011SOL     OW 6035   1.967   2.875   3.588
 2011SOL    HW1 6036   1.890   2.842   3.642
 2011SOL    HW2 6037   2.052   2.845   3.630
 2012SOL     OW 6038   2.534   2.065   3.351
 2012SOL    HW1 6039   2.624   2.049   3.311
 2012SOL    HW2 6040   2.542   2.070   3.450
 2013SOL     OW 6041   1.937   2.207   1.895
 2013SOL    HW1 6042   1.845   2.179   1.866
 2013SOL    HW2 6043   1.968   2.284   1.839
 2014SOL     OW 6044   3.302   2.718   3.260
 2014SOL    HW1 6045   3.245   2.770   3.197
 2014SOL    HW2 6046   3.398   2.730   3.236
 2015SOL     OW 6047   3.045   3.197   1.981
 2015SOL    HW1 6048   2.946   3.186   1.983
 2015SOL    HW2 6049   3.079   3.212   2.074
 2016SOL     OW 6050   2.475   2.704   3.293
 2016SOL    HW1 6051   2.531   2.785   3.276
 2016SOL    HW2 6052   2.534   2.624   3.296
 2017SOL     OW 6053   3.355   3.629   2.821
 2017SOL    HW1 6054   3.388   3.693   2.752
 2017SOL    HW2 6055   3.421   3.623   2.896
 2018SOL     OW 6056   2.578   2.427   3.570
 2018SOL    HW1 6057   2.597   2.492   3.644
 2018SOL    HW2 6058   2.638   2.347   3.579
 2019SOL     OW 6059   3.312   3.082   3.495
 2019SOL    HW1 6060   3.303   3.072   3.594
 2019SOL    HW2 6061   3.408   3.075   3.469
 2020SOL     OW 6062   2.252   3.603   3.422
 2020SOL    HW1 6063   2.161   3.644   3.420
 2020SOL    HW2 6064   2.245   3.509   3.454
 2021SOL     OW 6065   3.536   2.745   3.116
 2021SOL    HW1 6066   3.509   2.656   3.079
 2021SOL    HW2 6067   3.537   2.813   3.043
 2022SOL     OW 6068   3.087   2.187   2.311
 2022SOL    HW1 6069   3.152   2.113   2.300
 2022SOL    HW2 6070   3.107   2.237   2.395
 2023SOL     OW 6071   2.456   2.607   2.514
 2023SOL    HW1 6072   2.506   2.692   2.495
 2023SOL    HW2 6073   2.368   2.609   2.466
 2024SOL     OW 6074   3.639   2.204   3.504
 2024SOL    HW1 6075   3.622   2.235   3.410
 2024SOL    HW2 6076   3.555   2.167   3.542
 2025SOL     OW 6077   3.592   2.796   3.379
 2025SOL    HW1 6078   3.630   2.887   3.394
 2025SOL    HW2 6079   3.584   2.779   3.280
 2026SOL     OW 6080   2.721   3.236   1.878
 2026SOL    HW1 6081   2.675   3.251   1.966
 2026SOL    HW2 6082   2.765   3.321   1.848
 2027SOL     OW 6083   2.523   3.652   2.815
 2027SOL    HW1 6084   2.477   3.740   2.802
 2027SOL    HW2 6085   2.622   3.664   2.808
 2028SOL     OW 6086   2.721   2.818   2.723
 2028SOL    HW1 6087   2.775   2.749   2.771
 2028SOL    HW2 6088   2.689   2.887   2.789
 2029SOL     OW 6089   2.945   2.846   1.949
 2029SOL    HW1 6090   2.922   2.899   1.867
 2029SOL    HW2 6091   3.026   2.790   1.930
 2030SOL     OW 6092   3.723   3.431   2.713
 2030SOL    HW1 6093   3.652   3.419   2.643
 2030SOL    HW2 6094   3.724   3.352   2.773
 2031SOL     OW 6095   2.083   3.176   3.706
 2031SOL    HW1 6096   2.018   3.103   3.685
 2031SOL    HW2 6097   2.087   3.190   3.804
 2032SOL     OW 6098   1.941   3.102   2.515
 2032SOL    HW1 6099   1.940   3.055   2.603
 2032SOL    HW2 6100   2.023   3.074   2.464
 2033SOL     OW 6101   2.534   3.253   3.486
 2033SOL    HW1 6102   2.456   3.203   3.524
 2033SOL    HW2 6103   2.531   3.348   3.517
 2034SOL     OW 6104   3.686   2.054   3.089
 2034SOL    HW1 6105   3.682   1.964   3.133
 2034SOL    HW2 6106   3.689   2.043   2.990
 2035SOL     OW 6107   2.290   2.286   2.382
 2035SOL    HW1 6108   2.320   2.214   2.320
 2035SOL    HW2 6109   2.251   2.246   2.465
 2036SOL     OW 6110   3.567   3.349   2.966
 2036SOL    HW1 6111   3.474   3.324   2.939
 2036SOL    HW2 6112   3.593   3.299   3.048
 2037SOL     OW 6113   2.179   2.409   3.142
 2037SOL    HW1 6114   2.217   2.350   3.214
 2037SOL    HW2 6115   2.219   2.383   3.054
 2038SOL     OW 6116   2.674   3.448   2.549
 2038SOL    HW1 6117   2.706   3.458   2.455
 2038SOL    HW2 6118   2.595   3.386   2.551
 2039SOL     OW 6119   3.286   2.076   2.974
 2039SOL    HW1 6120   3.338   2.011   3.029
 2039SOL    HW2 6121   3.237   2.139   3.035
 2040SOL     OW 6122   2.863   1.896   3.016
 2040SOL    HW1 6123   2.800   1.824   2.985
 2040SOL    HW2 6124   2.956   1.860   3.016
 2041SOL     OW 6125   2.632   3.192   2.163
 2041SOL    HW1 6126   2.586   3.105   2.180
 2041SOL    HW2 6127   2.723   3.189   2.204
 2042SOL     OW 6128   2.480   3.429   3.146
 2042SOL    HW1 6129   2.475   3.511   3.203
 2042SOL    HW2 6130   2.569   3.426   3.101
 2043SOL     OW 6131   3.214   1.914   2.030
 2043SOL    HW1 6132   3.249   1.873   1.946
 2043SOL    HW2 6133   3.124   1.876   2.050
 2044SOL     OW 6134   3.162   2.315   2.553
 2044SOL    HW1 6135   3.103   2.395   2.557
 2044SOL    HW2 6136   3.177   2.280   2.646
 2045SOL     OW 6137   3.455   2.083   2.744
 2045SOL    HW1 6138   3.371   2.082   2.798
 2045SOL    HW2 6139   3.457   2.166   2.688
 2046SOL     OW 6140   1.901   2.939   2.162
 2046SOL    HW1 6141   2.000   2.928   2.153
 2046SOL    HW2 6142   1.861   2.853   2.194
 2047SOL     OW 6143   2.737   3.508   2.199
 2047SOL    HW1 6144   2.660   3.473   2.145
 2047SOL    HW2 6145   2.705   3.579   2.261
 2048SOL     OW 6146   2.092   2.490   3.837
 2048SOL    HW1 6147   1.999   2.488   3.874
 2048SOL    HW2 6148   2.093   2.451   3.745
 2049SOL     OW 6149   3.617   2.469   3.955
 2049SOL    HW1 6150   3.605   2.456   3.856
 2049SOL    HW2 6151   3.587   2.388   4.004
 2050SOL     OW 6152   2.093   3.575   4.207
 2050SOL    HW1 6153   2.127   3.652   4.261
 2050SOL    HW2 6154   2.137   3.575   4.117
 2051SOL     OW 6155   2.092   3.296   4.262
 2051SOL    HW1 6156   2.066   3.392   4.262
 2051SOL    HW2 6157   2.021   3.242   4.307
 2052SOL     OW 6158   2.468   2.826   3.847
 2052SOL    HW1 6159   2.475   2.910   3.793
 2052SOL    HW2 6160   2.514   2.839   3.935
 2053SOL     OW 6161   3.704   3.629   4.083
 2053SOL    HW1 6162   3.758   3.600   4.163
 2053SOL    HW2 6163   3.734   3.719   4.054
 2054SOL     OW 6164   1.889   3.458   3.841
 2054SOL    HW1 6165   1.870   3.362   3.862
 2054SOL    HW2 6166   1.856   3.516   3.916
 2055SOL     OW 6167   3.551   2.784   4.336
 2055SOL    HW1 6168   3.646   2.755   4.344
 2055SOL    HW2 6169   3.543   2.849   4.261
 2056SOL     OW 6170   3.503   2.970   4.156
 2056SOL    HW1 6171   3.589   2.972   4.104
 2056SOL    HW2 6172   3.517   3.017   4.244
 2057SOL     OW 6173   2.671   1.866   4.226
 2057SOL    HW1 6174   2.711   1.957   4.217
 2057SOL    HW2 6175   2.571   1.874   4.232
 2058SOL     OW 6176   3.387   2.861   3.914
 2058SOL    HW1 6177   3.324   2.785   3.927
 2058SOL    HW2 6178   3.435   2.879   4.000
 2059SOL     OW 6179   2.460   2.591   3.994
 2059SOL    HW1 6180   2.484   2.660   3.926
 2059SOL    HW2 6181   2.382   2.624   4.048
 2060SOL     OW 6182   3.438   3.524   4.031
 2060SOL    HW1 6183   3.527   3.570   4.034
 2060SOL    HW2 6184   3.417   3.500   3.936
 2061SOL     OW 6185   2.727   2.210   3.919
 2061SOL    HW1 6186   2.786   2.273   3.870
 2061SOL    HW2 6187   2.746   2.116   3.890
 2062SOL     OW 6188   2.183   2.805   3.966
 2062SOL    HW1 6189   2.265   2.844   3.924
 2062SOL    HW2 6190   2.156   2.723   3.917
 2063SOL     OW 6191   3.320   2.597   4.452
 2063SOL    HW1 6192   3.315   2.532   4.527
 2063SOL    HW2 6193   3.400   2.656   4.465
 2064SOL     OW 6194   2.973   3.638   3.961
 2064SOL    HW1 6195   2.913   3.576   4.011
 2064SOL    HW2 6196   3.004   3.594   3.876
 2065SOL     OW 6197   3.494   3.239   3.805
 2065SOL    HW1 6198   3.462   3.333   3.795
 2065SOL    HW2 6199   3.418   3.176   3.793
 2066SOL     OW 6200   2.326   3.605   4.047
 2066SOL    HW1 6201   2.359   3.644   4.133
 2066SOL    HW2 6202   2.402   3.598   3.982
 2067SOL     OW 6203   3.262   1.969   4.150
 2067SOL    HW1 6204   3.238   1.932   4.060
 2067SOL    HW2 6205   3.361   1.985   4.154
 2068SOL     OW 6206   2.244   2.562   4.204
 2068SOL    HW1 6207   2.289   2.472   4.201
 2068SOL    HW2 6208   2.150   2.551   4.237
 2069SOL     OW 6209   2.476   1.984   3.841
 2069SOL    HW1 6210   2.574   1.962   3.848
 2069SOL    HW2 6211   2.445   1.967   3.748
 2070SOL     OW 6212   3.296   3.050   3.765
 2070SOL    HW1 6213   3.328   2.974   3.822
 2070SOL    HW2 6214   3.204   3.077   3.795
 2071SOL     OW 6215   2.159   1.897   3.895
 2071SOL    HW1 6216   2.208   1.981   3.874
 2071SOL    HW2 6217   2.221   1.832   3.940
 2072SOL     OW 6218   2.797   2.098   4.204
 2072SOL    HW1 6219   2.749   2.139   4.126
 2072SOL    HW2 6220   2.896   2.096   4.185
 2073SOL     OW 6221   2.321   3.014   4.465
 2073SOL    HW1 6222   2.250   2.987   4.530
 2073SOL    HW2 6223   2.295   2.986   4.372
 2074SOL     OW 6224   3.133   3.659   4.315
 2074SOL    HW1 6225   3.177   3.723   4.251
 2074SOL    HW2 6226   3.083   3.711   4.385
 2075SOL     OW 6227   2.894   2.411   3.740
 2075SOL    HW1 6228   2.853   2.493   3.701
 2075SOL    HW2 6229   2.958   2.437   3.813
 2076SOL     OW 6230   3.291   3.035   4.591
 2076SOL    HW1 6231   3.236   2.951   4.584
 2076SOL    HW2 6232   3.317   3.064   4.499
 2077SOL     OW 6233   3.719   2.695   4.101
 2077SOL    HW1 6234   3.761   2.631   4.165
 2077SOL    HW2 6235   3.681   2.644   4.023
 2078SOL     OW 6236   2.350   3.247   3.898
 2078SOL    HW1 6237   2.263   3.232   3.945
 2078SOL    HW2 6238   2.333   3.273   3.803
 2079SOL     OW 6239   3.252   2.437   3.802
 2079SOL    HW1 6240   3.198   2.416   3.883
 2079SOL    HW2 6241   3.343   2.396   3.811
 2080SOL     OW 6242   2.389   2.118   4.052
 2080SOL    HW1 6243   2.416   2.059   3.977
 2080SOL    HW2 6244   2.389   2.213   4.021
 2081SOL     OW 6245   2.567   2.912   4.092
 2081SOL    HW1 6246   2.553   2.919   4.191
 2081SOL    HW2 6247   2.651   2.861   4.074
 2082SOL     OW 6248   2.229   2.962   4.225
 2082SOL    HW1 6249   2.222   3.045   4.169
 2082SOL    HW2 6250   2.233   2.882   4.165
 2083SOL     OW 6251   3.114   3.210   4.112
 2083SOL    HW1 6252   3.164   3.287   4.152
 2083SOL    HW2 6253   3.019   3.212   4.144
 2084SOL     OW 6254   3.444   2.501   4.196
 2084SOL    HW1 6255   3.413   2.562   4.269
 2084SOL    HW2 6256   3.494   2.553   4.127
 2085SOL     OW 6257   3.071   2.387   3.999
 2085SOL    HW1 6258   3.084   2.303   4.053
 2085SOL    HW2 6259   3.042   2.461   4.059
 2086SOL     OW 6260   3.484   2.229   4.098
 2086SOL    HW1 6261   3.486   2.153   4.162
 2086SOL    HW2 6262   3.436   2.306   4.138
 2087SOL     OW 6263   3.402   2.136   3.849
 2087SOL    HW1 6264   3.341   2.061   3.872
 2087SOL    HW2 6265   3.424   2.188   3.932
 2088SOL     OW 6266   3.165   2.700   3.766
 2088SOL    HW1 6267   3.199   2.607   3.781
 2088SOL    HW2 6268   3.183   2.727   3.671
 2089SOL     OW 6269   1.870   3.188   3.924
 2089SOL    HW1 6270   1.777   3.209   3.893
 2089SOL    HW2 6271   1.880   3.089   3.937
 2090SOL     OW 6272   2.677   2.434   4.049
 2090SOL    HW1 6273   2.684   2.345   4.003
 2090SOL    HW2 6274   2.583   2.468   4.041
 2091SOL     OW 6275   2.335   2.362   3.915
 2091SOL    HW1 6276   2.396   2.442   3.919
 2091SOL    HW2 6277   2.240   2.393   3.922
 2092SOL     OW 6278   3.164   2.717   4.033
 2092SOL    HW1 6279   3.078   2.686   4.075
 2092SOL    HW2 6280   3.160   2.703   3.934
 2093SOL     OW 6281   3.588   1.997   4.247
 2093SOL    HW1 6282   3.661   1.980   4.180
 2093SOL    HW2 6283   3.557   1.910   4.285
 2094SOL     OW 6284   3.250   3.435   4.201
 2094SOL    HW1 6285   3.317   3.447   4.127
 2094SOL    HW2 6286   3.210   3.524   4.224
 2095SOL     OW 6287   2.534   3.478   3.878
 2095SOL    HW1 6288   2.543   3.488   3.779
 2095SOL    HW2 6289   2.494   3.389   3.899
 2096SOL     OW 6290   3.056   3.474   3.755
 2096SOL    HW1 6291   3.062   3.381   3.792
 2096SOL    HW2 6292   2.997   3.474   3.675
 2097SOL     OW 6293   2.778   2.772   4.015
 2097SOL    HW1 6294   2.841   2.810   3.947
 2097SOL    HW2 6295   2.818   2.689   4.054
 2098SOL     OW 6296   3.366   3.469   3.768
 2098SOL    HW1 6297   3.274   3.506   3.775
 2098SOL    HW2 6298   3.404   3.489   3.678
 2099SOL     OW 6299   2.452   3.349   4.215
 2099SOL    HW1 6300   2.494   3.291   4.145
 2099SOL    HW2 6301   2.408   3.428   4.171
 2100SOL     OW 6302   2.117   3.210   4.014
 2100SOL    HW1 6303   2.021   3.211   3.987
 2100SOL    HW2 6304   2.129   3.263   4.098
 2101SOL     OW 6305   1.937   2.207   3.757
 2101SOL    HW1 6306   1.845   2.179   3.728
 2101SOL    HW2 6307   1.968   2.284   3.701
 2102SOL     OW 6308   1.934   2.028   4.042
 2102SOL    HW1 6309   1.917   2.111   3.988
 2102SOL    HW2 6310   2.024   1.991   4.020
 2103SOL     OW 6311   3.045   3.197   3.843
 2103SOL    HW1 6312   2.946   3.186   3.845
 2103SOL    HW2 6313   3.079   3.212   3.936
 2104SOL     OW 6314   3.087   2.187   4.173
 2104SOL    HW1 6315   3.152   2.113   4.162
 2104SOL    HW2 6316   3.107   2.237   4.257
 2105SOL     OW 6317   2.721   3.236   3.740
 2105SOL    HW1 6318   2.675   3.251   3.828
 2105SOL    HW2 6319   2.765   3.321   3.710
 2106SOL     OW 6320   2.945   2.846   3.811
 2106SOL    HW1 6321   2.922   2.899   3.729
 2106SOL    HW2 6322   3.026   2.790   3.792
 2107SOL     OW 6323   2.290   2.286   4.244
 2107SOL    HW1 6324   2.320   2.214   4.182
 2107SOL    HW2 6325   2.251   2.246   4.327
 2108SOL     OW 6326   2.632   3.192   4.025
 2108SOL    HW1 6327   2.586   3.105   4.042
 2108SOL    HW2 6328   2.723   3.189   4.066
 2109SOL     OW 6329   3.214   1.914   3.892
 2109SOL    HW1 6330   3.249   1.873   3.808
 2109SOL    HW2 6331   3.124   1.876   3.912
 2110SOL     OW 6332   1.901   2.939   4.024
 2110SOL    HW1 6333   2.000   2.928   4.015
 2110SOL    HW2 6334   1.861   2.853   4.056
 2111SOL     OW 6335   2.737   3.508   4.061
 2111SOL    HW1 6336   2.660   3.473   4.007
 2111SOL    HW2 6337   2.705   3.579   4.123
 2112SOL     OW 6338   2.087   3.999   0.996
 2112SOL    HW1 6339   2.122   3.982   1.088
 2112SOL    HW2 6340   1.999   3.954   0.984
 2113SOL     OW 6341   1.881   4.092   0.647
 2113SOL    HW1 6342   1.799   4.135   0.686
 2113SOL    HW2 6343   1.853   4.019   0.584
 2114SOL     OW 6344   3.617   4.331   0.231
 2114SOL    HW1 6345   3.605   4.318   0.132
 2114SOL    HW2 6346   3.587   4.250   0.280
 2115SOL     OW 6347   2.300   4.116   1.499
 2115SOL    HW1 6348   2.382   4.060   1.508
 2115SOL    HW2 6349   2.219   4.058   1.503
 2116SOL     OW 6350   3.465   4.171   0.737
 2116SOL    HW1 6351   3.391   4.217   0.687
 2116SOL    HW2 6352   3.516   4.239   0.790
 2117SOL     OW 6353   3.456   3.838   1.480
 2117SOL    HW1 6354   3.438   3.905   1.408
 2117SOL    HW2 6355   3.453   3.884   1.569
 2118SOL     OW 6356   1.984   4.367   0.563
 2118SOL    HW1 6357   1.939   4.279   0.580
 2118SOL    HW2 6358   1.983   4.421   0.647
 2119SOL     OW 6359   2.671   3.728   0.502
 2119SOL    HW1 6360   2.711   3.819   0.493
 2119SOL    HW2 6361   2.571   3.736   0.508
 2120SOL     OW 6362   2.179   3.975   1.801
 2120SOL    HW1 6363   2.250   4.046   1.807
 2120SOL    HW2 6364   2.091   4.014   1.829
 2121SOL     OW 6365   3.143   4.069   0.944
 2121SOL    HW1 6366   3.057   4.019   0.931
 2121SOL    HW2 6367   3.205   4.015   1.000
 2122SOL     OW 6368   3.256   4.193   1.674
 2122SOL    HW1 6369   3.236   4.236   1.762
 2122SOL    HW2 6370   3.334   4.131   1.683
 2123SOL     OW 6371   2.835   4.614   1.572
 2123SOL    HW1 6372   2.881   4.530   1.543
 2123SOL    HW2 6373   2.779   4.648   1.497
 2124SOL     OW 6374   2.853   4.134   1.242
 2124SOL    HW1 6375   2.776   4.168   1.296
 2124SOL    HW2 6376   2.819   4.083   1.163
 2125SOL     OW 6377   2.727   4.072   0.195
 2125SOL    HW1 6378   2.786   4.135   0.146
 2125SOL    HW2 6379   2.746   3.978   0.166
 2126SOL     OW 6380   3.581   4.309   1.831
 2126SOL    HW1 6381   3.555   4.398   1.795
 2126SOL    HW2 6382   3.579   4.241   1.758
 2127SOL     OW 6383   2.412   3.920   0.885
 2127SOL    HW1 6384   2.407   3.915   0.985
 2127SOL    HW2 6385   2.414   4.016   0.856
 2128SOL     OW 6386   2.064   4.009   1.498
 2128SOL    HW1 6387   1.984   4.069   1.485
 2128SOL    HW2 6388   2.054   3.960   1.584
 2129SOL     OW 6389   3.262   3.831   0.426
 2129SOL    HW1 6390   3.238   3.794   0.336
 2129SOL    HW2 6391   3.361   3.847   0.430
 2130SOL     OW 6392   3.409   3.946   1.729
 2130SOL    HW1 6393   3.404   3.983   1.821
 2130SOL    HW2 6394   3.337   3.877   1.717
 2131SOL     OW 6395   2.476   3.846   0.117
 2131SOL    HW1 6396   2.574   3.824   0.124
 2131SOL    HW2 6397   2.445   3.829   0.024
 2132SOL     OW 6398   2.643   3.988   1.749
 2132SOL    HW1 6399   2.710   3.927   1.792
 2132SOL    HW2 6400   2.570   4.007   1.814
 2133SOL     OW 6401   3.213   4.314   1.433
 2133SOL    HW1 6402   3.241   4.271   1.518
 2133SOL    HW2 6403   3.238   4.410   1.434
 2134SOL     OW 6404   2.401   3.788   0.512
 2134SOL    HW1 6405   2.320   3.789   0.570
 2134SOL    HW2 6406   2.404   3.871   0.457
 2135SOL     OW 6407   2.159   3.759   0.171
 2135SOL    HW1 6408   2.208   3.843   0.150
 2135SOL    HW2 6409   2.221   3.694   0.216
 2136SOL     OW 6410   2.797   3.960   0.480
 2136SOL    HW1 6411   2.749   4.001   0.402
 2136SOL    HW2 6412   2.896   3.958   0.461
 2137SOL     OW 6413   1.940   4.280   1.386
 2137SOL    HW1 6414   2.032   4.279   1.345
 2137SOL    HW2 6415   1.934   4.354   1.453
 2138SOL     OW 6416   2.423   3.946   1.147
 2138SOL    HW1 6417   2.461   3.862   1.184
 2138SOL    HW2 6418   2.335   3.965   1.191
 2139SOL     OW 6419   2.879   3.763   0.753
 2139SOL    HW1 6420   2.807   3.768   0.684
 2139SOL    HW2 6421   2.855   3.694   0.822
 2140SOL     OW 6422   3.328   4.314   0.992
 2140SOL    HW1 6423   3.298   4.219   0.999
 2140SOL    HW2 6424   3.401   4.330   1.058
 2141SOL     OW 6425   2.389   3.980   0.328
 2141SOL    HW1 6426   2.416   3.921   0.253
 2141SOL    HW2 6427   2.389   4.075   0.297
 2142SOL     OW 6428   2.777   3.813   1.402
 2142SOL    HW1 6429   2.802   3.793   1.307
 2142SOL    HW2 6430   2.849   3.869   1.444
 2143SOL     OW 6431   3.136   4.110   1.262
 2143SOL    HW1 6432   3.157   4.184   1.326
 2143SOL    HW2 6433   3.047   4.127   1.219
 2144SOL     OW 6434   2.428   4.261   0.865
 2144SOL    HW1 6435   2.440   4.327   0.791
 2144SOL    HW2 6436   2.474   4.295   0.948
 2145SOL     OW 6437   2.875   3.829   1.770
 2145SOL    HW1 6438   2.881   3.914   1.718
 2145SOL    HW2 6439   2.907   3.753   1.713
 2146SOL     OW 6440   2.366   3.774   1.740
 2146SOL    HW1 6441   2.324   3.717   1.670
 2146SOL    HW2 6442   2.300   3.843   1.772
 2147SOL     OW 6443   2.169   3.937   1.231
 2147SOL    HW1 6444   2.146   3.974   1.321
 2147SOL    HW2 6445   2.139   3.842   1.225
 2148SOL     OW 6446   2.594   4.358   1.064
 2148SOL    HW1 6447   2.653   4.332   0.988
 2148SOL    HW2 6448   2.566   4.454   1.053
 2149SOL     OW 6449   2.169   3.787   0.618
 2149SOL    HW1 6450   2.158   3.881   0.651
 2149SOL    HW2 6451   2.164   3.724   0.695
 2150SOL     OW 6452   3.484   4.091   0.374
 2150SOL    HW1 6453   3.486   4.015   0.438
 2150SOL    HW2 6454   3.436   4.168   0.414
 2151SOL     OW 6455   3.402   3.998   0.125
 2151SOL    HW1 6456   3.341   3.923   0.148
 2151SOL    HW2 6457   3.424   4.050   0.208
 2152SOL     OW 6458   2.201   4.233   1.006
 2152SOL    HW1 6459   2.149   4.150   0.989
 2152SOL    HW2 6460   2.278   4.238   0.942
 2153SOL     OW 6461   3.000   4.104   1.678
 2153SOL    HW1 6462   2.955   4.167   1.742
 2153SOL    HW2 6463   3.093   4.135   1.661
 2154SOL     OW 6464   3.022   3.931   1.477
 2154SOL    HW1 6465   3.022   3.995   1.554
 2154SOL    HW2 6466   3.050   3.979   1.394
 2155SOL     OW 6467   2.864   4.520   1.238
 2155SOL    HW1 6468   2.905   4.488   1.324
 2155SOL    HW2 6469   2.768   4.493   1.235
 2156SOL     OW 6470   1.902   4.268   1.114
 2156SOL    HW1 6471   1.987   4.235   1.073
 2156SOL    HW2 6472   1.915   4.283   1.212
 2157SOL     OW 6473   2.051   4.244   1.722
 2157SOL    HW1 6474   2.110   4.204   1.652
 2157SOL    HW2 6475   1.993   4.315   1.681
 2158SOL     OW 6476   2.677   4.296   0.325
 2158SOL    HW1 6477   2.684   4.207   0.279
 2158SOL    HW2 6478   2.583   4.330   0.317
 2159SOL     OW 6479   3.519   4.328   1.206
 2159SOL    HW1 6480   3.481   4.259   1.268
 2159SOL    HW2 6481   3.601   4.292   1.162
 2160SOL     OW 6482   2.533   4.188   1.269
 2160SOL    HW1 6483   2.499   4.099   1.239
 2160SOL    HW2 6484   2.559   4.242   1.189
 2161SOL     OW 6485   2.765   3.810   0.133
 2161SOL    HW1 6486   2.816   3.811   0.047
 2161SOL    HW2 6487   2.821   3.768   0.204
 2162SOL     OW 6488   3.588   3.859   0.523
 2162SOL    HW1 6489   3.661   3.842   0.456
 2162SOL    HW2 6490   3.557   3.772   0.561
 2163SOL     OW 6491   3.703   3.899   0.963
 2163SOL    HW1 6492   3.742   3.814   0.927
 2163SOL    HW2 6493   3.605   3.901   0.944
 2164SOL     OW 6494   2.125   4.050   0.720
 2164SOL    HW1 6495   2.046   4.101   0.686
 2164SOL    HW2 6496   2.116   4.035   0.818
 2165SOL     OW 6497   2.876   3.960   0.971
 2165SOL    HW1 6498   2.868   3.924   0.878
 2165SOL    HW2 6499   2.874   3.884   1.036
 2166SOL     OW 6500   3.571   4.109   1.381
 2166SOL    HW1 6501   3.644   4.178   1.385
 2166SOL    HW2 6502   3.599   4.034   1.322
 2167SOL     OW 6503   2.534   3.927   1.489
 2167SOL    HW1 6504   2.624   3.911   1.449
 2167SOL    HW2 6505   2.542   3.932   1.588
 2168SOL     OW 6506   1.937   4.069   0.033
 2168SOL    HW1 6507   1.845   4.041   0.004
 2168SOL    HW2 6508   1.968   4.146  -0.023
 2169SOL     OW 6509   1.934   3.890   0.318
 2169SOL    HW1 6510   1.917   3.973   0.264
 2169SOL    HW2 6511   2.024   3.853   0.296
 2170SOL     OW 6512   2.578   4.289   1.708
 2170SOL    HW1 6513   2.597   4.354   1.782
 2170SOL    HW2 6514   2.638   4.209   1.717
 2171SOL     OW 6515   3.087   4.049   0.449
 2171SOL    HW1 6516   3.152   3.975   0.438
 2171SOL    HW2 6517   3.107   4.099   0.533
 2172SOL     OW 6518   3.639   4.066   1.642
 2172SOL    HW1 6519   3.622   4.097   1.548
 2172SOL    HW2 6520   3.555   4.029   1.680
 2173SOL     OW 6521   3.686   3.916   1.227
 2173SOL    HW1 6522   3.682   3.826   1.271
 2173SOL    HW2 6523   3.689   3.905   1.128
 2174SOL     OW 6524   2.290   4.148   0.520
 2174SOL    HW1 6525   2.320   4.076   0.458
 2174SOL    HW2 6526   2.251   4.108   0.603
 2175SOL     OW 6527   2.179   4.271   1.280
 2175SOL    HW1 6528   2.217   4.212   1.352
 2175SOL    HW2 6529   2.219   4.245   1.192
 2176SOL     OW 6530   3.286   3.938   1.112
 2176SOL    HW1 6531   3.338   3.873   1.167
 2176SOL    HW2 6532   3.237   4.001   1.173
 2177SOL     OW 6533   2.863   3.758   1.154
 2177SOL    HW1 6534   2.800   3.686   1.123
 2177SOL    HW2 6535   2.956   3.722   1.154
 2178SOL     OW 6536   3.162   4.177   0.691
 2178SOL    HW1 6537   3.103   4.257   0.695
 2178SOL    HW2 6538   3.177   4.142   0.784
 2179SOL     OW 6539   3.455   3.945   0.882
 2179SOL    HW1 6540   3.371   3.944   0.936
 2179SOL    HW2 6541   3.457   4.028   0.826
 2180SOL     OW 6542   2.087   3.999   2.858
 2180SOL    HW1 6543   2.122   3.982   2.950
 2180SOL    HW2 6544   1.999   3.954   2.846
 2181SOL     OW 6545   1.881   4.092   2.509
 2181SOL    HW1 6546   1.799   4.135   2.548
 2181SOL    HW2 6547   1.853   4.019   2.446
 2182SOL     OW 6548   3.617   4.331   2.093
 2182SOL    HW1 6549   3.605   4.318   1.994
 2182SOL    HW2 6550   3.587   4.250   2.142
 2183SOL     OW 6551   2.300   4.116   3.361
 2183SOL    HW1 6552   2.382   4.060   3.370
 2183SOL    HW2 6553   2.219   4.058   3.365
 2184SOL     OW 6554   3.465   4.171   2.599
 2184SOL    HW1 6555   3.391   4.217   2.549
 2184SOL    HW2 6556   3.516   4.239   2.652
 2185SOL     OW 6557   3.456   3.838   3.342
 2185SOL    HW1 6558   3.438   3.905   3.270
 2185SOL    HW2 6559   3.453   3.884   3.431
 2186SOL     OW 6560   1.984   4.367   2.425
 2186SOL    HW1 6561   1.939   4.279   2.442
 2186SOL    HW2 6562   1.983   4.421   2.509
 2187SOL     OW 6563   2.671   3.728   2.364
 2187SOL    HW1 6564   2.711   3.819   2.355
 2187SOL    HW2 6565   2.571   3.736   2.370
 2188SOL     OW 6566   2.179   3.975   3.663
 2188SOL    HW1 6567   2.250   4.046   3.669
 2188SOL    HW2 6568   2.091   4.014   3.691
 2189SOL     OW 6569   3.143   4.069   2.806
 2189SOL    HW1 6570   3.057   4.019   2.793
 2189SOL    HW2 6571   3.205   4.015   2.862
 2190SOL     OW 6572   3.256   4.193   3.536
 2190SOL    HW1 6573   3.236   4.236   3.624
 2190SOL    HW2 6574   3.334   4.131   3.545
 2191SOL     OW 6575   2.835   4.614   3.434
 2191SOL    HW1 6576   2.881   4.530   3.405
 2191SOL    HW2 6577   2.779   4.648   3.359
 2192SOL     OW 6578   2.853   4.134   3.104
 2192SOL    HW1 6579   2.776   4.168   3.158
 2192SOL    HW2 6580   2.819   4.083   3.025
 2193SOL     OW 6581   2.727   4.072   2.057
 2193SOL    HW1 6582   2.786   4.135   2.008
 2193SOL    HW2 6583   2.746   3.978   2.028
 2194SOL     OW 6584   3.581   4.309   3.693
 2194SOL    HW1 6585   3.555   4.398   3.657
 2194SOL    HW2 6586   3.579   4.241   3.620
 2195SOL     OW 6587   2.412   3.920   2.747
 2195SOL    HW1 6588   2.407   3.915   2.847
 2195SOL    HW2 6589   2.414   4.016   2.718
 2196SOL     OW 6590   2.064   4.009   3.360
 2196SOL    HW1 6591   1.984   4.069   3.347
 2196SOL    HW2 6592   2.054   3.960   3.446
 2197SOL     OW 6593   3.262   3.831   2.288
 2197SOL    HW1 6594   3.238   3.794   2.198
 2197SOL    HW2 6595   3.361   3.847   2.292
 2198SOL     OW 6596   3.409   3.946   3.591
 2198SOL    HW1 6597   3.404   3.983   3.683
 2198SOL    HW2 6598   3.337   3.877   3.579
 2199SOL     OW 6599   2.476   3.846   1.979
 2199SOL    HW1 6600   2.574   3.824   1.986
 2199SOL    HW2 6601   2.445   3.829   1.886
 2200SOL     OW 6602   2.643   3.988   3.611
 2200SOL    HW1 6603   2.710   3.927   3.654
 2200SOL    HW2 6604   2.570   4.007   3.676
 2201SOL     OW 6605   3.213   4.314   3.295
 2201SOL    HW1 6606   3.241   4.271   3.380
 2201SOL    HW2 6607   3.238   4.410   3.296
 2202SOL     OW 6608   2.401   3.788   2.374
 2202SOL    HW1 6609   2.320   3.789   2.432
 2202SOL    HW2 6610   2.404   3.871   2.319
 2203SOL     OW 6611   2.159   3.759   2.033
 2203SOL    HW1 6612   2.208   3.843   2.012
 2203SOL    HW2 6613   2.221   3.694   2.078
 2204SOL     OW 6614   2.797   3.960   2.342
 2204SOL    HW1 6615   2.749   4.001   2.264
 2204SOL    HW2 6616   2.896   3.958   2.323
 2205SOL     OW 6617   1.940   4.280   3.248
 2205SOL    HW1 6618   2.032   4.279   3.207
 2205SOL    HW2 6619   1.934   4.354   3.315
 2206SOL     OW 6620   2.423   3.946   3.009
 2206SOL    HW1 6621   2.461   3.862   3.046
 2206SOL    HW2 6622   2.335   3.965   3.053
 2207SOL     OW 6623   2.879   3.763   2.615
 2207SOL    HW1 6624   2.807   3.768   2.546
 2207SOL    HW2 6625   2.855   3.694   2.684
 2208SOL     OW 6626   3.328   4.314   2.854
 2208SOL    HW1 6627   3.298   4.219   2.861
 2208SOL    HW2 6628   3.401   4.330   2.920
 2209SOL     OW 6629   2.389   3.980   2.190
 2209SOL    HW1 6630   2.416   3.921   2.115
 2209SOL    HW2 6631   2.389   4.075   2.159
 2210SOL     OW 6632   2.777   3.813   3.264
 2210SOL    HW1 6633   2.802   3.793   3.169
 2210SOL    HW2 6634   2.849   3.869   3.306
 2211SOL     OW 6635   3.136   4.110   3.124
 2211SOL    HW1 6636   3.157   4.184   3.188
 2211SOL    HW2 6637   3.047   4.127   3.081
 2212SOL     OW 6638   2.428   4.261   2.727
 2212SOL    HW1 6639   2.440   4.327   2.653
 2212SOL    HW2 6640   2.474   4.295   2.810
 2213SOL     OW 6641   2.875   3.829   3.632
 2213SOL    HW1 6642   2.881   3.914   3.580
 2213SOL    HW2 6643   2.907   3.753   3.575
 2214SOL     OW 6644   2.366   3.774   3.602
 2214SOL    HW1 6645   2.324   3.717   3.532
 2214SOL    HW2 6646   2.300   3.843   3.634
 2215SOL     OW 6647   2.169   3.937   3.093
 2215SOL    HW1 6648   2.146   3.974   3.183
 2215SOL    HW2 6649   2.139   3.842   3.087
 2216SOL     OW 6650   2.594   4.358   2.926
 2216SOL    HW1 6651   2.653   4.332   2.850
 2216SOL    HW2 6652   2.566   4.454   2.915
 2217SOL     OW 6653   2.169   3.787   2.480
 2217SOL    HW1 6654   2.158   3.881   2.513
 2217SOL    HW2 6655   2.164   3.724   2.557
 2218SOL     OW 6656   3.484   4.091   2.236
 2218SOL    HW1 6657   3.486   4.015   2.300
 2218SOL    HW2 6658   3.436   4.168   2.276
 2219SOL     OW 6659   3.402   3.998   1.987
 2219SOL    HW1 6660   3.341   3.923   2.010
 2219SOL    HW2 6661   3.424   4.050   2.070
 2220SOL     OW 6662   3.165   4.562   1.904
 2220SOL    HW1 6663   3.199   4.469   1.919
 2220SOL    HW2 6664   3.183   4.589   1.809
 2221SOL     OW 6665   2.201   4.233   2.868
 2221SOL    HW1 6666   2.149   4.150   2.851
 2221SOL    HW2 6667   2.278   4.238   2.804
 2222SOL     OW 6668   3.000   4.104   3.540
 2222SOL    HW1 6669   2.955   4.167   3.604
 2222SOL    HW2 6670   3.093   4.135   3.523
 2223SOL     OW 6671   3.022   3.931   3.339
 2223SOL    HW1 6672   3.022   3.995   3.416
 2223SOL    HW2 6673   3.050   3.979   3.256
 2224SOL     OW 6674   2.864   4.520   3.100
 2224SOL    HW1 6675   2.905   4.488   3.186
 2224SOL    HW2 6676   2.768   4.493   3.097
 2225SOL     OW 6677   1.902   4.268   2.976
 2225SOL    HW1 6678   1.987   4.235   2.935
 2225SOL    HW2 6679   1.915   4.283   3.074
 2226SOL     OW 6680   2.051   4.244   3.584
 2226SOL    HW1 6681   2.110   4.204   3.514
 2226SOL    HW2 6682   1.993   4.315   3.543
 2227SOL     OW 6683   2.677   4.296   2.187
 2227SOL    HW1 6684   2.684   4.207   2.141
 2227SOL    HW2 6685   2.583   4.330   2.179
 2228SOL     OW 6686   3.519   4.328   3.068
 2228SOL    HW1 6687   3.481   4.259   3.130
 2228SOL    HW2 6688   3.601   4.292   3.024
 2229SOL     OW 6689   2.533   4.188   3.131
 2229SOL    HW1 6690   2.499   4.099   3.101
 2229SOL    HW2 6691   2.559   4.242   3.051
 2230SOL     OW 6692   3.588   3.859   2.385
 2230SOL    HW1 6693   3.661   3.842   2.318
 2230SOL    HW2 6694   3.557   3.772   2.423
 2231SOL     OW 6695   3.703   3.899   2.825
 2231SOL    HW1 6696   3.742   3.814   2.789
 2231SOL    HW2 6697   3.605   3.901   2.806
 2232SOL     OW 6698   2.125   4.050   2.582
 2232SOL    HW1 6699   2.046   4.101   2.548
 2232SOL    HW2 6700   2.116   4.035   2.680
 2233SOL     OW 6701   2.876   3.960   2.833
 2233SOL    HW1 6702   2.868   3.924   2.740
 2233SOL    HW2 6703   2.874   3.884   2.898
 2234SOL     OW 6704   3.571   4.109   3.243
 2234SOL    HW1 6705   3.644   4.178   3.247
 2234SOL    HW2 6706   3.599   4.034   3.184
 2235SOL     OW 6707   2.534   3.927   3.351
 2235SOL    HW1 6708   2.624   3.911   3.311
 2235SOL    HW2 6709   2.542   3.932   3.450
 2236SOL     OW 6710   1.937   4.069   1.895
 2236SOL    HW1 6711   1.845   4.041   1.866
 2236SOL    HW2 6712   1.968   4.146   1.839
 2237SOL     OW 6713   1.934   3.890   2.180
 2237SOL    HW1 6714   1.917   3.973   2.126
 2237SOL    HW2 6715   2.024   3.853   2.158
 2238SOL     OW 6716   2.578   4.289   3.570
 2238SOL    HW1 6717   2.597   4.354   3.644
 2238SOL    HW2 6718   2.638   4.209   3.579
 2239SOL     OW 6719   3.087   4.049   2.311
 2239SOL    HW1 6720   3.152   3.975   2.300
 2239SOL    HW2 6721   3.107   4.099   2.395
 2240SOL     OW 6722   3.639   4.066   3.504
 2240SOL    HW1 6723   3.622   4.097   3.410
 2240SOL    HW2 6724   3.555   4.029   3.542
 2241SOL     OW 6725   3.686   3.916   3.089
 2241SOL    HW1 6726   3.682   3.826   3.133
 2241SOL    HW2 6727   3.689   3.905   2.990
 2242SOL     OW 6728   2.290   4.148   2.382
 2242SOL    HW1 6729   2.320   4.076   2.320
 2242SOL    HW2 6730   2.251   4.108   2.465
 2243SOL     OW 6731   2.179   4.271   3.142
 2243SOL    HW1 6732   2.217   4.212   3.214
 2243SOL    HW2 6733   2.219   4.245   3.054
 2244SOL     OW 6734   3.286   3.938   2.974
 2244SOL    HW1 6735   3.338   3.873   3.029
 2244SOL    HW2 6736   3.237   4.001   3.035
 2245SOL     OW 6737   2.863   3.758   3.016
 2245SOL    HW1 6738   2.800   3.686   2.985
 2245SOL    HW2 6739   2.956   3.722   3.016
 2246SOL     OW 6740   3.214   3.776   2.030
 2246SOL    HW1 6741   3.249   3.735   1.946
 2246SOL    HW2 6742   3.124   3.738   2.050
 2247SOL     OW 6743   3.162   4.177   2.553
 2247SOL    HW1 6744   3.103   4.257   2.557
 2247SOL    HW2 6745   3.177   4.142   2.646
 2248SOL     OW 6746   3.455   3.945   2.744
 2248SOL    HW1 6747   3.371   3.944   2.798
 2248SOL    HW2 6748   3.457   4.028   2.688
 2249SOL     OW 6749   2.997   4.427   4.441
 2249SOL    HW1 6750   3.054   4.505   4.416
 2249SOL    HW2 6751   2.937   4.453   4.517
 2250SOL     OW 6752   3.617   4.331   3.955
 2250SOL    HW1 6753   3.605   4.318   3.856
 2250SOL    HW2 6754   3.587   4.250   4.004
 2251SOL     OW 6755   1.984   4.367   4.287
 2251SOL    HW1 6756   1.939   4.279   4.304
 2251SOL    HW2 6757   1.983   4.421   4.371
 2252SOL     OW 6758   2.671   3.728   4.226
 2252SOL    HW1 6759   2.711   3.819   4.217
 2252SOL    HW2 6760   2.571   3.736   4.232
 2253SOL     OW 6761   2.727   4.072   3.919
 2253SOL    HW1 6762   2.786   4.135   3.870
 2253SOL    HW2 6763   2.746   3.978   3.890
 2254SOL     OW 6764   3.262   3.831   4.150
 2254SOL    HW1 6765   3.238   3.794   4.060
 2254SOL    HW2 6766   3.361   3.847   4.154
 2255SOL     OW 6767   2.244   4.424   4.204
 2255SOL    HW1 6768   2.289   4.334   4.201
 2255SOL    HW2 6769   2.150   4.413   4.237
 2256SOL     OW 6770   2.476   3.846   3.841
 2256SOL    HW1 6771   2.574   3.824   3.848
 2256SOL    HW2 6772   2.445   3.829   3.748
 2257SOL     OW 6773   2.159   3.759   3.895
 2257SOL    HW1 6774   2.208   3.843   3.874
 2257SOL    HW2 6775   2.221   3.694   3.940
 2258SOL     OW 6776   2.797   3.960   4.204
 2258SOL    HW1 6777   2.749   4.001   4.126
 2258SOL    HW2 6778   2.896   3.958   4.185
 2259SOL     OW 6779   2.389   3.980   4.052
 2259SOL    HW1 6780   2.416   3.921   3.977
 2259SOL    HW2 6781   2.389   4.075   4.021
 2260SOL     OW 6782   3.484   4.091   4.098
 2260SOL    HW1 6783   3.486   4.015   4.162
 2260SOL    HW2 6784   3.436   4.168   4.138
 2261SOL     OW 6785   3.402   3.998   3.849
 2261SOL    HW1 6786   3.341   3.923   3.872
 2261SOL    HW2 6787   3.424   4.050   3.932
 2262SOL     OW 6788   3.165   4.562   3.766
 2262SOL    HW1 6789   3.199   4.469   3.781
 2262SOL    HW2 6790   3.183   4.589   3.671
 2263SOL     OW 6791   2.677   4.296   4.049
 2263SOL    HW1 6792   2.684   4.207   4.003
 2263SOL    HW2 6793   2.583   4.330   4.041
 2264SOL     OW 6794   3.588   3.859   4.247
 2264SOL    HW1 6795   3.661   3.842   4.180
 2264SOL    HW2 6796   3.557   3.772   4.285
 2265SOL     OW 6797   1.937   4.069   3.757
 2265SOL    HW1 6798   1.845   4.041   3.728
 2265SOL    HW2 6799   1.968   4.146   3.701
 2266SOL     OW 6800   1.934   3.890   4.042
 2266SOL    HW1 6801   1.917   3.973   3.988
 2266SOL    HW2 6802   2.024   3.853   4.020
 2267SOL     OW 6803   3.087   4.049   4.173
 2267SOL    HW1 6804   3.152   3.975   4.162
 2267SOL    HW2 6805   3.107   4.099   4.257
 2268SOL     OW 6806   2.290   4.148   4.244
 2268SOL    HW1 6807   2.320   4.076   4.182
 2268SOL    HW2 6808   2.251   4.108   4.327
 2269SOL     OW 6809   3.214   3.776   3.892
 2269SOL    HW1 6810   3.249   3.735   3.808
 2269SOL    HW2 6811   3.124   3.738   3.912
 2270SOL     OW 6812   3.954   0.628   0.113
 2270SOL    HW1 6813   3.861   0.626   0.150
 2270SOL    HW2 6814   3.955   0.589   0.021
 2271SOL     OW 6815   3.949   0.275   0.996
 2271SOL    HW1 6816   3.984   0.258   1.088
 2271SOL    HW2 6817   3.861   0.230   0.984
 2272SOL     OW 6818   3.743   0.368   0.647
 2272SOL    HW1 6819   3.661   0.411   0.686
 2272SOL    HW2 6820   3.715   0.295   0.584
 2273SOL     OW 6821   4.059   1.435   1.061
 2273SOL    HW1 6822   3.981   1.404   1.008
 2273SOL    HW2 6823   4.117   1.493   1.004
 2274SOL     OW 6824   4.162   0.392   1.499
 2274SOL    HW1 6825   4.244   0.336   1.508
 2274SOL    HW2 6826   4.081   0.334   1.503
 2275SOL     OW 6827   3.955   1.713   0.483
 2275SOL    HW1 6828   3.989   1.790   0.537
 2275SOL    HW2 6829   3.999   1.713   0.393
 2276SOL     OW 6830   3.954   1.434   0.538
 2276SOL    HW1 6831   3.928   1.530   0.538
 2276SOL    HW2 6832   3.883   1.380   0.583
 2277SOL     OW 6833   3.964   1.091   0.886
 2277SOL    HW1 6834   3.978   1.007   0.938
 2277SOL    HW2 6835   3.909   1.155   0.941
 2278SOL     OW 6836   3.846   0.643   0.563
 2278SOL    HW1 6837   3.801   0.555   0.580
 2278SOL    HW2 6838   3.845   0.697   0.647
 2279SOL     OW 6839   3.751   1.596   0.117
 2279SOL    HW1 6840   3.732   1.500   0.138
 2279SOL    HW2 6841   3.718   1.654   0.192
 2280SOL     OW 6842   3.837   0.737   1.597
 2280SOL    HW1 6843   3.925   0.724   1.642
 2280SOL    HW2 6844   3.824   0.834   1.575
 2281SOL     OW 6845   3.921   0.976   1.264
 2281SOL    HW1 6846   4.010   0.931   1.250
 2281SOL    HW2 6847   3.848   0.911   1.245
 2282SOL     OW 6848   4.041   0.251   1.801
 2282SOL    HW1 6849   4.112   0.322   1.807
 2282SOL    HW2 6850   3.953   0.290   1.829
 2283SOL     OW 6851   4.322   0.729   0.270
 2283SOL    HW1 6852   4.346   0.798   0.202
 2283SOL    HW2 6853   4.244   0.762   0.324
 2284SOL     OW 6854   3.800   0.811   0.789
 2284SOL    HW1 6855   3.899   0.799   0.798
 2284SOL    HW2 6856   3.776   0.906   0.810
 2285SOL     OW 6857   3.854   1.821   1.571
 2285SOL    HW1 6858   3.844   1.806   1.670
 2285SOL    HW2 6859   3.768   1.857   1.535
 2286SOL     OW 6860   4.274   0.196   0.885
 2286SOL    HW1 6861   4.269   0.191   0.985
 2286SOL    HW2 6862   4.276   0.292   0.856
 2287SOL     OW 6863   4.075   1.801   0.853
 2287SOL    HW1 6864   4.125   1.715   0.859
 2287SOL    HW2 6865   4.140   1.878   0.850
 2288SOL     OW 6866   4.045   0.943   0.242
 2288SOL    HW1 6867   4.127   0.982   0.200
 2288SOL    HW2 6868   4.018   0.861   0.193
 2289SOL     OW 6869   4.185   1.266   1.727
 2289SOL    HW1 6870   4.135   1.267   1.641
 2289SOL    HW2 6871   4.122   1.248   1.803
 2290SOL     OW 6872   3.926   0.285   1.498
 2290SOL    HW1 6873   3.846   0.345   1.485
 2290SOL    HW2 6874   3.916   0.236   1.584
 2291SOL     OW 6875   3.973   1.785   1.241
 2291SOL    HW1 6876   4.030   1.720   1.291
 2291SOL    HW2 6877   3.957   1.752   1.148
 2292SOL     OW 6878   4.106   0.700   0.480
 2292SOL    HW1 6879   4.151   0.610   0.477
 2292SOL    HW2 6880   4.012   0.689   0.513
 2293SOL     OW 6881   4.021   0.035   0.171
 2293SOL    HW1 6882   4.070   0.119   0.150
 2293SOL    HW2 6883   4.083  -0.030   0.216
 2294SOL     OW 6884   4.183   1.152   0.741
 2294SOL    HW1 6885   4.112   1.125   0.806
 2294SOL    HW2 6886   4.157   1.124   0.648
 2295SOL     OW 6887   3.802   0.556   1.386
 2295SOL    HW1 6888   3.894   0.555   1.345
 2295SOL    HW2 6889   3.796   0.630   1.453
 2296SOL     OW 6890   4.285   0.222   1.147
 2296SOL    HW1 6891   4.323   0.138   1.184
 2296SOL    HW2 6892   4.197   0.241   1.191
 2297SOL     OW 6893   4.134   0.813   1.251
 2297SOL    HW1 6894   4.220   0.825   1.301
 2297SOL    HW2 6895   4.092   0.726   1.278
 2298SOL     OW 6896   3.788   1.564   1.331
 2298SOL    HW1 6897   3.742   1.646   1.297
 2298SOL    HW2 6898   3.886   1.583   1.340
 2299SOL     OW 6899   4.091   1.100   0.501
 2299SOL    HW1 6900   4.084   1.183   0.445
 2299SOL    HW2 6901   4.095   1.020   0.441
 2300SOL     OW 6902   4.290   0.537   0.865
 2300SOL    HW1 6903   4.302   0.603   0.791
 2300SOL    HW2 6904   4.336   0.571   0.948
 2301SOL     OW 6905   4.078   1.510   1.329
 2301SOL    HW1 6906   4.057   1.466   1.242
 2301SOL    HW2 6907   4.175   1.536   1.332
 2302SOL     OW 6908   4.126   0.751   1.598
 2302SOL    HW1 6909   4.194   0.806   1.551
 2302SOL    HW2 6910   4.166   0.663   1.625
 2303SOL     OW 6911   4.228   0.050   1.740
 2303SOL    HW1 6912   4.186  -0.007   1.670
 2303SOL    HW2 6913   4.162   0.119   1.772
 2304SOL     OW 6914   4.297   0.870   1.029
 2304SOL    HW1 6915   4.341   0.959   1.020
 2304SOL    HW2 6916   4.234   0.870   1.106
 2305SOL     OW 6917   4.031   0.213   1.231
 2305SOL    HW1 6918   4.008   0.250   1.321
 2305SOL    HW2 6919   4.001   0.118   1.225
 2306SOL     OW 6920   3.761   1.310   1.282
 2306SOL    HW1 6921   3.814   1.261   1.350
 2306SOL    HW2 6922   3.783   1.408   1.287
 2307SOL     OW 6923   4.031   0.063   0.618
 2307SOL    HW1 6924   4.020   0.157   0.651
 2307SOL    HW2 6925   4.026   0.000   0.695
 2308SOL     OW 6926   4.074   0.898   1.804
 2308SOL    HW1 6927   4.150   0.942   1.852
 2308SOL    HW2 6928   4.109   0.851   1.722
 2309SOL     OW 6929   4.043   0.810   0.949
 2309SOL    HW1 6930   4.136   0.846   0.954
 2309SOL    HW2 6931   4.037   0.725   1.001
 2310SOL     OW 6932   4.063   0.509   1.006
 2310SOL    HW1 6933   4.011   0.426   0.989
 2310SOL    HW2 6934   4.140   0.514   0.942
 2311SOL     OW 6935   3.732   1.326   0.200
 2311SOL    HW1 6936   3.639   1.347   0.169
 2311SOL    HW2 6937   3.742   1.227   0.213
 2312SOL     OW 6938   3.812   1.801   0.927
 2312SOL    HW1 6939   3.770   1.715   0.900
 2312SOL    HW2 6940   3.906   1.804   0.893
 2313SOL     OW 6941   3.764   0.544   1.114
 2313SOL    HW1 6942   3.849   0.511   1.073
 2313SOL    HW2 6943   3.777   0.559   1.212
 2314SOL     OW 6944   3.913   0.520   1.722
 2314SOL    HW1 6945   3.972   0.480   1.652
 2314SOL    HW2 6946   3.855   0.591   1.681
 2315SOL     OW 6947   4.539   0.572   0.325
 2315SOL    HW1 6948   4.546   0.483   0.279
 2315SOL    HW2 6949   4.445   0.606   0.317
 2316SOL     OW 6950   3.976   1.564   1.744
 2316SOL    HW1 6951   3.946   1.621   1.820
 2316SOL    HW2 6952   3.969   1.467   1.770
 2317SOL     OW 6953   4.197   0.500   0.191
 2317SOL    HW1 6954   4.258   0.580   0.195
 2317SOL    HW2 6955   4.102   0.531   0.198
 2318SOL     OW 6956   3.883   1.137   1.466
 2318SOL    HW1 6957   3.905   1.076   1.542
 2318SOL    HW2 6958   3.893   1.088   1.380
 2319SOL     OW 6959   3.807   1.258   1.022
 2319SOL    HW1 6960   3.802   1.257   1.122
 2319SOL    HW2 6961   3.724   1.217   0.984
 2320SOL     OW 6962   3.854   1.794   1.851
 2320SOL    HW1 6963   3.813   1.720   1.904
 2320SOL    HW2 6964   3.918   1.845   1.909
 2321SOL     OW 6965   3.987   0.326   0.720
 2321SOL    HW1 6966   3.908   0.377   0.686
 2321SOL    HW2 6967   3.978   0.311   0.818
 2322SOL     OW 6968   4.096   1.288   1.490
 2322SOL    HW1 6969   4.083   1.381   1.456
 2322SOL    HW2 6970   4.012   1.236   1.477
 2323SOL     OW 6971   4.314   1.487   0.491
 2323SOL    HW1 6972   4.356   1.429   0.421
 2323SOL    HW2 6973   4.270   1.566   0.447
 2324SOL     OW 6974   3.979   1.348   0.290
 2324SOL    HW1 6975   3.883   1.349   0.263
 2324SOL    HW2 6976   3.991   1.401   0.374
 2325SOL     OW 6977   3.829   1.013   1.726
 2325SOL    HW1 6978   3.752   0.980   1.780
 2325SOL    HW2 6979   3.914   0.983   1.768
 2326SOL     OW 6980   3.799   0.345   0.033
 2326SOL    HW1 6981   3.707   0.317   0.004
 2326SOL    HW2 6982   3.830   0.422  -0.023
 2327SOL     OW 6983   3.796   0.166   0.318
 2327SOL    HW1 6984   3.779   0.249   0.264
 2327SOL    HW2 6985   3.886   0.129   0.296
 2328SOL     OW 6986   4.114   1.741   1.560
 2328SOL    HW1 6987   4.023   1.782   1.558
 2328SOL    HW2 6988   4.107   1.647   1.592
 2329SOL     OW 6989   3.945   1.314   1.844
 2329SOL    HW1 6990   3.880   1.241   1.823
 2329SOL    HW2 6991   3.949   1.328   1.942
 2330SOL     OW 6992   3.803   1.240   0.653
 2330SOL    HW1 6993   3.802   1.193   0.741
 2330SOL    HW2 6994   3.885   1.212   0.602
 2331SOL     OW 6995   4.396   1.391   1.624
 2331SOL    HW1 6996   4.318   1.341   1.662
 2331SOL    HW2 6997   4.393   1.486   1.655
 2332SOL     OW 6998   4.152   0.424   0.520
 2332SOL    HW1 6999   4.182   0.352   0.458
 2332SOL    HW2 7000   4.113   0.384   0.603
 2333SOL     OW 7001   4.041   0.547   1.280
 2333SOL    HW1 7002   4.079   0.488   1.352
 2333SOL    HW2 7003   4.081   0.521   1.192
 2334SOL     OW 7004   3.763   1.077   0.300
 2334SOL    HW1 7005   3.862   1.066   0.291
 2334SOL    HW2 7006   3.723   0.991   0.332
 2335SOL     OW 7007   3.954   0.628   1.975
 2335SOL    HW1 7008   3.861   0.626   2.012
 2335SOL    HW2 7009   3.955   0.589   1.883
 2336SOL     OW 7010   3.949   0.275   2.858
 2336SOL    HW1 7011   3.984   0.258   2.950
 2336SOL    HW2 7012   3.861   0.230   2.846
 2337SOL     OW 7013   3.743   0.368   2.509
 2337SOL    HW1 7014   3.661   0.411   2.548
 2337SOL    HW2 7015   3.715   0.295   2.446
 2338SOL     OW 7016   4.059   1.435   2.923
 2338SOL    HW1 7017   3.981   1.404   2.870
 2338SOL    HW2 7018   4.117   1.493   2.866
 2339SOL     OW 7019   4.162   0.392   3.361
 2339SOL    HW1 7020   4.244   0.336   3.370
 2339SOL    HW2 7021   4.081   0.334   3.365
 2340SOL     OW 7022   3.955   1.713   2.345
 2340SOL    HW1 7023   3.989   1.790   2.399
 2340SOL    HW2 7024   3.999   1.713   2.255
 2341SOL     OW 7025   3.954   1.434   2.400
 2341SOL    HW1 7026   3.928   1.530   2.400
 2341SOL    HW2 7027   3.883   1.380   2.445
 2342SOL     OW 7028   3.964   1.091   2.748
 2342SOL    HW1 7029   3.978   1.007   2.800
 2342SOL    HW2 7030   3.909   1.155   2.803
 2343SOL     OW 7031   3.846   0.643   2.425
 2343SOL    HW1 7032   3.801   0.555   2.442
 2343SOL    HW2 7033   3.845   0.697   2.509
 2344SOL     OW 7034   3.751   1.596   1.979
 2344SOL    HW1 7035   3.732   1.500   2.000
 2344SOL    HW2 7036   3.718   1.654   2.054
 2345SOL     OW 7037   3.837   0.737   3.459
 2345SOL    HW1 7038   3.925   0.724   3.504
 2345SOL    HW2 7039   3.824   0.834   3.437
 2346SOL     OW 7040   3.921   0.976   3.126
 2346SOL    HW1 7041   4.010   0.931   3.112
 2346SOL    HW2 7042   3.848   0.911   3.107
 2347SOL     OW 7043   4.041   0.251   3.663
 2347SOL    HW1 7044   4.112   0.322   3.669
 2347SOL    HW2 7045   3.953   0.290   3.691
 2348SOL     OW 7046   4.322   0.729   2.132
 2348SOL    HW1 7047   4.346   0.798   2.064
 2348SOL    HW2 7048   4.244   0.762   2.186
 2349SOL     OW 7049   3.800   0.811   2.651
 2349SOL    HW1 7050   3.899   0.799   2.660
 2349SOL    HW2 7051   3.776   0.906   2.672
 2350SOL     OW 7052   3.854   1.821   3.433
 2350SOL    HW1 7053   3.844   1.806   3.532
 2350SOL    HW2 7054   3.768   1.857   3.397
 2351SOL     OW 7055   4.274   0.196   2.747
 2351SOL    HW1 7056   4.269   0.191   2.847
 2351SOL    HW2 7057   4.276   0.292   2.718
 2352SOL     OW 7058   4.075   1.801   2.715
 2352SOL    HW1 7059   4.125   1.715   2.721
 2352SOL    HW2 7060   4.140   1.878   2.712
 2353SOL     OW 7061   4.045   0.943   2.104
 2353SOL    HW1 7062   4.127   0.982   2.062
 2353SOL    HW2 7063   4.018   0.861   2.055
 2354SOL     OW 7064   4.185   1.266   3.589
 2354SOL    HW1 7065   4.135   1.267   3.503
 2354SOL    HW2 7066   4.122   1.248   3.665
 2355SOL     OW 7067   3.926   0.285   3.360
 2355SOL    HW1 7068   3.846   0.345   3.347
 2355SOL    HW2 7069   3.916   0.236   3.446
 2356SOL     OW 7070   3.973   1.785   3.103
 2356SOL    HW1 7071   4.030   1.720   3.153
 2356SOL    HW2 7072   3.957   1.752   3.010
 2357SOL     OW 7073   4.106   0.700   2.342
 2357SOL    HW1 7074   4.151   0.610   2.339
 2357SOL    HW2 7075   4.012   0.689   2.375
 2358SOL     OW 7076   4.338   0.122   1.979
 2358SOL    HW1 7077   4.436   0.100   1.986
 2358SOL    HW2 7078   4.307   0.105   1.886
 2359SOL     OW 7079   4.021   0.035   2.033
 2359SOL    HW1 7080   4.070   0.119   2.012
 2359SOL    HW2 7081   4.083  -0.030   2.078
 2360SOL     OW 7082   4.183   1.152   2.603
 2360SOL    HW1 7083   4.112   1.125   2.668
 2360SOL    HW2 7084   4.157   1.124   2.510
 2361SOL     OW 7085   3.802   0.556   3.248
 2361SOL    HW1 7086   3.894   0.555   3.207
 2361SOL    HW2 7087   3.796   0.630   3.315
 2362SOL     OW 7088   4.285   0.222   3.009
 2362SOL    HW1 7089   4.323   0.138   3.046
 2362SOL    HW2 7090   4.197   0.241   3.053
 2363SOL     OW 7091   4.134   0.813   3.113
 2363SOL    HW1 7092   4.220   0.825   3.163
 2363SOL    HW2 7093   4.092   0.726   3.140
 2364SOL     OW 7094   3.788   1.564   3.193
 2364SOL    HW1 7095   3.742   1.646   3.159
 2364SOL    HW2 7096   3.886   1.583   3.202
 2365SOL     OW 7097   4.091   1.100   2.363
 2365SOL    HW1 7098   4.084   1.183   2.307
 2365SOL    HW2 7099   4.095   1.020   2.303
 2366SOL     OW 7100   4.290   0.537   2.727
 2366SOL    HW1 7101   4.302   0.603   2.653
 2366SOL    HW2 7102   4.336   0.571   2.810
 2367SOL     OW 7103   4.078   1.510   3.191
 2367SOL    HW1 7104   4.057   1.466   3.104
 2367SOL    HW2 7105   4.175   1.536   3.194
 2368SOL     OW 7106   4.126   0.751   3.460
 2368SOL    HW1 7107   4.194   0.806   3.413
 2368SOL    HW2 7108   4.166   0.663   3.487
 2369SOL     OW 7109   4.228   0.050   3.602
 2369SOL    HW1 7110   4.186  -0.007   3.532
 2369SOL    HW2 7111   4.162   0.119   3.634
 2370SOL     OW 7112   4.297   0.870   2.891
 2370SOL    HW1 7113   4.341   0.959   2.882
 2370SOL    HW2 7114   4.234   0.870   2.968
 2371SOL     OW 7115   4.031   0.213   3.093
 2371SOL    HW1 7116   4.008   0.250   3.183
 2371SOL    HW2 7117   4.001   0.118   3.087
 2372SOL     OW 7118   3.761   1.310   3.144
 2372SOL    HW1 7119   3.814   1.261   3.212
 2372SOL    HW2 7120   3.783   1.408   3.149
 2373SOL     OW 7121   4.031   0.063   2.480
 2373SOL    HW1 7122   4.020   0.157   2.513
 2373SOL    HW2 7123   4.026   0.000   2.557
 2374SOL     OW 7124   4.074   0.898   3.666
 2374SOL    HW1 7125   4.150   0.942   3.714
 2374SOL    HW2 7126   4.109   0.851   3.584
 2375SOL     OW 7127   4.043   0.810   2.811
 2375SOL    HW1 7128   4.136   0.846   2.816
 2375SOL    HW2 7129   4.037   0.725   2.863
 2376SOL     OW 7130   4.063   0.509   2.868
 2376SOL    HW1 7131   4.011   0.426   2.851
 2376SOL    HW2 7132   4.140   0.514   2.804
 2377SOL     OW 7133   3.732   1.326   2.062
 2377SOL    HW1 7134   3.639   1.347   2.031
 2377SOL    HW2 7135   3.742   1.227   2.075
 2378SOL     OW 7136   3.812   1.801   2.789
 2378SOL    HW1 7137   3.770   1.715   2.762
 2378SOL    HW2 7138   3.906   1.804   2.755
 2379SOL     OW 7139   3.764   0.544   2.976
 2379SOL    HW1 7140   3.849   0.511   2.935
 2379SOL    HW2 7141   3.777   0.559   3.074
 2380SOL     OW 7142   3.913   0.520   3.584
 2380SOL    HW1 7143   3.972   0.480   3.514
 2380SOL    HW2 7144   3.855   0.591   3.543
 2381SOL     OW 7145   4.539   0.572   2.187
 2381SOL    HW1 7146   4.546   0.483   2.141
 2381SOL    HW2 7147   4.445   0.606   2.179
 2382SOL     OW 7148   3.976   1.564   3.606
 2382SOL    HW1 7149   3.946   1.621   3.682
 2382SOL    HW2 7150   3.969   1.467   3.632
 2383SOL     OW 7151   4.197   0.500   2.053
 2383SOL    HW1 7152   4.258   0.580   2.057
 2383SOL    HW2 7153   4.102   0.531   2.060
 2384SOL     OW 7154   3.883   1.137   3.328
 2384SOL    HW1 7155   3.905   1.076   3.404
 2384SOL    HW2 7156   3.893   1.088   3.242
 2385SOL     OW 7157   3.807   1.258   2.884
 2385SOL    HW1 7158   3.802   1.257   2.984
 2385SOL    HW2 7159   3.724   1.217   2.846
 2386SOL     OW 7160   3.854   1.794   3.713
 2386SOL    HW1 7161   3.813   1.720   3.766
 2386SOL    HW2 7162   3.918   1.845   3.771
 2387SOL     OW 7163   3.987   0.326   2.582
 2387SOL    HW1 7164   3.908   0.377   2.548
 2387SOL    HW2 7165   3.978   0.311   2.680
 2388SOL     OW 7166   4.096   1.288   3.352
 2388SOL    HW1 7167   4.083   1.381   3.318
 2388SOL    HW2 7168   4.012   1.236   3.339
 2389SOL     OW 7169   4.314   1.487   2.353
 2389SOL    HW1 7170   4.356   1.429   2.283
 2389SOL    HW2 7171   4.270   1.566   2.309
 2390SOL     OW 7172   3.979   1.348   2.152
 2390SOL    HW1 7173   3.883   1.349   2.125
 2390SOL    HW2 7174   3.991   1.401   2.236
 2391SOL     OW 7175   3.829   1.013   3.588
 2391SOL    HW1 7176   3.752   0.980   3.642
 2391SOL    HW2 7177   3.914   0.983   3.630
 2392SOL     OW 7178   3.799   0.345   1.895
 2392SOL    HW1 7179   3.707   0.317   1.866
 2392SOL    HW2 7180   3.830   0.422   1.839
 2393SOL     OW 7181   3.796   0.166   2.180
 2393SOL    HW1 7182   3.779   0.249   2.126
 2393SOL    HW2 7183   3.886   0.129   2.158
 2394SOL     OW 7184   4.114   1.741   3.422
 2394SOL    HW1 7185   4.023   1.782   3.420
 2394SOL    HW2 7186   4.107   1.647   3.454
 2395SOL     OW 7187   3.945   1.314   3.706
 2395SOL    HW1 7188   3.880   1.241   3.685
 2395SOL    HW2 7189   3.949   1.328   3.804
 2396SOL     OW 7190   3.803   1.240   2.515
 2396SOL    HW1 7191   3.802   1.193   2.603
 2396SOL    HW2 7192   3.885   1.212   2.464
 2397SOL     OW 7193   4.396   1.391   3.486
 2397SOL    HW1 7194   4.318   1.341   3.524
 2397SOL    HW2 7195   4.393   1.486   3.517
 2398SOL     OW 7196   4.152   0.424   2.382
 2398SOL    HW1 7197   4.182   0.352   2.320
 2398SOL    HW2 7198   4.113   0.384   2.465
 2399SOL     OW 7199   4.041   0.547   3.142
 2399SOL    HW1 7200   4.079   0.488   3.214
 2399SOL    HW2 7201   4.081   0.521   3.054
 2400SOL     OW 7202   3.763   1.077   2.162
 2400SOL    HW1 7203   3.862   1.066   2.153
 2400SOL    HW2 7204   3.723   0.991   2.194
 2401SOL     OW 7205   3.954   0.628   3.837
 2401SOL    HW1 7206   3.861   0.626   3.874
 2401SOL    HW2 7207   3.955   0.589   3.745
 2402SOL     OW 7208   4.409   1.012   4.389
 2402SOL    HW1 7209   4.478   0.996   4.459
 2402SOL    HW2 7210   4.336   1.069   4.427
 2403SOL     OW 7211   3.955   1.713   4.207
 2403SOL    HW1 7212   3.989   1.790   4.261
 2403SOL    HW2 7213   3.999   1.713   4.117
 2404SOL     OW 7214   3.954   1.434   4.262
 2404SOL    HW1 7215   3.928   1.530   4.262
 2404SOL    HW2 7216   3.883   1.380   4.307
 2405SOL     OW 7217   3.751   1.596   3.841
 2405SOL    HW1 7218   3.732   1.500   3.862
 2405SOL    HW2 7219   3.718   1.654   3.916
 2406SOL     OW 7220   4.322   0.729   3.994
 2406SOL    HW1 7221   4.346   0.798   3.926
 2406SOL    HW2 7222   4.244   0.762   4.048
 2407SOL     OW 7223   4.045   0.943   3.966
 2407SOL    HW1 7224   4.127   0.982   3.924
 2407SOL    HW2 7225   4.018   0.861   3.917
 2408SOL     OW 7226   4.106   0.700   4.204
 2408SOL    HW1 7227   4.151   0.610   4.201
 2408SOL    HW2 7228   4.012   0.689   4.237
 2409SOL     OW 7229   4.338   0.122   3.841
 2409SOL    HW1 7230   4.436   0.100   3.848
 2409SOL    HW2 7231   4.307   0.105   3.748
 2410SOL     OW 7232   4.021   0.035   3.895
 2410SOL    HW1 7233   4.070   0.119   3.874
 2410SOL    HW2 7234   4.083  -0.030   3.940
 2411SOL     OW 7235   4.183   1.152   4.465
 2411SOL    HW1 7236   4.112   1.125   4.530
 2411SOL    HW2 7237   4.157   1.124   4.372
 2412SOL     OW 7238   4.091   1.100   4.225
 2412SOL    HW1 7239   4.084   1.183   4.169
 2412SOL    HW2 7240   4.095   1.020   4.165
 2413SOL     OW 7241   3.732   1.326   3.924
 2413SOL    HW1 7242   3.639   1.347   3.893
 2413SOL    HW2 7243   3.742   1.227   3.937
 2414SOL     OW 7244   4.539   0.572   4.049
 2414SOL    HW1 7245   4.546   0.483   4.003
 2414SOL    HW2 7246   4.445   0.606   4.041
 2415SOL     OW 7247   4.197   0.500   3.915
 2415SOL    HW1 7248   4.258   0.580   3.919
 2415SOL    HW2 7249   4.102   0.531   3.922
 2416SOL     OW 7250   4.314   1.487   4.215
 2416SOL    HW1 7251   4.356   1.429   4.145
 2416SOL    HW2 7252   4.270   1.566   4.171
 2417SOL     OW 7253   3.979   1.348   4.014
 2417SOL    HW1 7254   3.883   1.349   3.987
 2417SOL    HW2 7255   3.991   1.401   4.098
 2418SOL     OW 7256   3.799   0.345   3.757
 2418SOL    HW1 7257   3.707   0.317   3.728
 2418SOL    HW2 7258   3.830   0.422   3.701
 2419SOL     OW 7259   3.796   0.166   4.042
 2419SOL    HW1 7260   3.779   0.249   3.988
 2419SOL    HW2 7261   3.886   0.129   4.020
 2420SOL     OW 7262   4.152   0.424   4.244
 2420SOL    HW1 7263   4.182   0.352   4.182
 2420SOL    HW2 7264   4.113   0.384   4.327
 2421SOL     OW 7265   3.763   1.077   4.024
 2421SOL    HW1 7266   3.862   1.066   4.015
 2421SOL    HW2 7267   3.723   0.991   4.056
 2422SOL     OW 7268   3.954   2.490   0.113
 2422SOL    HW1 7269   3.861   2.488   0.150
 2422SOL    HW2 7270   3.955   2.451   0.021
 2423SOL     OW 7271   3.949   2.137   0.996
 2423SOL    HW1 7272   3.984   2.120   1.088
 2423SOL    HW2 7273   3.861   2.092   0.984
 2424SOL     OW 7274   3.743   2.230   0.647
 2424SOL    HW1 7275   3.661   2.273   0.686
 2424SOL    HW2 7276   3.715   2.157   0.584
 2425SOL     OW 7277   4.059   3.297   1.061
 2425SOL    HW1 7278   3.981   3.266   1.008
 2425SOL    HW2 7279   4.117   3.355   1.004
 2426SOL     OW 7280   4.162   2.254   1.499
 2426SOL    HW1 7281   4.244   2.198   1.508
 2426SOL    HW2 7282   4.081   2.196   1.503
 2427SOL     OW 7283   3.955   3.575   0.483
 2427SOL    HW1 7284   3.989   3.652   0.537
 2427SOL    HW2 7285   3.999   3.575   0.393
 2428SOL     OW 7286   3.954   3.296   0.538
 2428SOL    HW1 7287   3.928   3.392   0.538
 2428SOL    HW2 7288   3.883   3.242   0.583
 2429SOL     OW 7289   3.964   2.953   0.886
 2429SOL    HW1 7290   3.978   2.869   0.938
 2429SOL    HW2 7291   3.909   3.017   0.941
 2430SOL     OW 7292   3.846   2.505   0.563
 2430SOL    HW1 7293   3.801   2.417   0.580
 2430SOL    HW2 7294   3.845   2.559   0.647
 2431SOL     OW 7295   3.751   3.458   0.117
 2431SOL    HW1 7296   3.732   3.362   0.138
 2431SOL    HW2 7297   3.718   3.516   0.192
 2432SOL     OW 7298   3.837   2.599   1.597
 2432SOL    HW1 7299   3.925   2.586   1.642
 2432SOL    HW2 7300   3.824   2.696   1.575
 2433SOL     OW 7301   3.921   2.838   1.264
 2433SOL    HW1 7302   4.010   2.793   1.250
 2433SOL    HW2 7303   3.848   2.773   1.245
 2434SOL     OW 7304   4.041   2.113   1.801
 2434SOL    HW1 7305   4.112   2.184   1.807
 2434SOL    HW2 7306   3.953   2.152   1.829
 2435SOL     OW 7307   4.322   2.591   0.270
 2435SOL    HW1 7308   4.346   2.660   0.202
 2435SOL    HW2 7309   4.244   2.624   0.324
 2436SOL     OW 7310   3.800   2.673   0.789
 2436SOL    HW1 7311   3.899   2.661   0.798
 2436SOL    HW2 7312   3.776   2.768   0.810
 2437SOL     OW 7313   3.854   3.683   1.571
 2437SOL    HW1 7314   3.844   3.668   1.670
 2437SOL    HW2 7315   3.768   3.719   1.535
 2438SOL     OW 7316   4.274   2.058   0.885
 2438SOL    HW1 7317   4.269   2.053   0.985
 2438SOL    HW2 7318   4.276   2.154   0.856
 2439SOL     OW 7319   4.075   3.663   0.853
 2439SOL    HW1 7320   4.125   3.577   0.859
 2439SOL    HW2 7321   4.140   3.740   0.850
 2440SOL     OW 7322   4.045   2.805   0.242
 2440SOL    HW1 7323   4.127   2.844   0.200
 2440SOL    HW2 7324   4.018   2.723   0.193
 2441SOL     OW 7325   4.185   3.128   1.727
 2441SOL    HW1 7326   4.135   3.129   1.641
 2441SOL    HW2 7327   4.122   3.110   1.803
 2442SOL     OW 7328   3.926   2.147   1.498
 2442SOL    HW1 7329   3.846   2.207   1.485
 2442SOL    HW2 7330   3.916   2.098   1.584
 2443SOL     OW 7331   3.973   3.647   1.241
 2443SOL    HW1 7332   4.030   3.582   1.291
 2443SOL    HW2 7333   3.957   3.614   1.148
 2444SOL     OW 7334   4.106   2.562   0.480
 2444SOL    HW1 7335   4.151   2.472   0.477
 2444SOL    HW2 7336   4.012   2.551   0.513
 2445SOL     OW 7337   4.338   1.984   0.117
 2445SOL    HW1 7338   4.436   1.962   0.124
 2445SOL    HW2 7339   4.307   1.967   0.024
 2446SOL     OW 7340   4.263   1.926   0.512
 2446SOL    HW1 7341   4.182   1.927   0.570
 2446SOL    HW2 7342   4.266   2.009   0.457
 2447SOL     OW 7343   4.021   1.897   0.171
 2447SOL    HW1 7344   4.070   1.981   0.150
 2447SOL    HW2 7345   4.083   1.832   0.216
 2448SOL     OW 7346   4.183   3.014   0.741
 2448SOL    HW1 7347   4.112   2.987   0.806
 2448SOL    HW2 7348   4.157   2.986   0.648
 2449SOL     OW 7349   3.802   2.418   1.386
 2449SOL    HW1 7350   3.894   2.417   1.345
 2449SOL    HW2 7351   3.796   2.492   1.453
 2450SOL     OW 7352   4.285   2.084   1.147
 2450SOL    HW1 7353   4.323   2.000   1.184
 2450SOL    HW2 7354   4.197   2.103   1.191
 2451SOL     OW 7355   4.134   2.675   1.251
 2451SOL    HW1 7356   4.220   2.687   1.301
 2451SOL    HW2 7357   4.092   2.588   1.278
 2452SOL     OW 7358   3.788   3.426   1.331
 2452SOL    HW1 7359   3.742   3.508   1.297
 2452SOL    HW2 7360   3.886   3.445   1.340
 2453SOL     OW 7361   4.091   2.962   0.501
 2453SOL    HW1 7362   4.084   3.045   0.445
 2453SOL    HW2 7363   4.095   2.882   0.441
 2454SOL     OW 7364   4.290   2.399   0.865
 2454SOL    HW1 7365   4.302   2.465   0.791
 2454SOL    HW2 7366   4.336   2.433   0.948
 2455SOL     OW 7367   4.078   3.372   1.329
 2455SOL    HW1 7368   4.057   3.328   1.242
 2455SOL    HW2 7369   4.175   3.398   1.332
 2456SOL     OW 7370   4.126   2.613   1.598
 2456SOL    HW1 7371   4.194   2.668   1.551
 2456SOL    HW2 7372   4.166   2.525   1.625
 2457SOL     OW 7373   4.228   1.912   1.740
 2457SOL    HW1 7374   4.186   1.855   1.670
 2457SOL    HW2 7375   4.162   1.981   1.772
 2458SOL     OW 7376   4.297   2.732   1.029
 2458SOL    HW1 7377   4.341   2.821   1.020
 2458SOL    HW2 7378   4.234   2.732   1.106
 2459SOL     OW 7379   4.031   2.075   1.231
 2459SOL    HW1 7380   4.008   2.112   1.321
 2459SOL    HW2 7381   4.001   1.980   1.225
 2460SOL     OW 7382   3.761   3.172   1.282
 2460SOL    HW1 7383   3.814   3.123   1.350
 2460SOL    HW2 7384   3.783   3.270   1.287
 2461SOL     OW 7385   4.031   1.925   0.618
 2461SOL    HW1 7386   4.020   2.019   0.651
 2461SOL    HW2 7387   4.026   1.862   0.695
 2462SOL     OW 7388   4.074   2.760   1.804
 2462SOL    HW1 7389   4.150   2.804   1.852
 2462SOL    HW2 7390   4.109   2.713   1.722
 2463SOL     OW 7391   4.043   2.672   0.949
 2463SOL    HW1 7392   4.136   2.708   0.954
 2463SOL    HW2 7393   4.037   2.587   1.001
 2464SOL     OW 7394   4.063   2.371   1.006
 2464SOL    HW1 7395   4.011   2.288   0.989
 2464SOL    HW2 7396   4.140   2.376   0.942
 2465SOL     OW 7397   3.732   3.188   0.200
 2465SOL    HW1 7398   3.639   3.209   0.169
 2465SOL    HW2 7399   3.742   3.089   0.213
 2466SOL     OW 7400   3.812   3.663   0.927
 2466SOL    HW1 7401   3.770   3.577   0.900
 2466SOL    HW2 7402   3.906   3.666   0.893
 2467SOL     OW 7403   3.764   2.406   1.114
 2467SOL    HW1 7404   3.849   2.373   1.073
 2467SOL    HW2 7405   3.777   2.421   1.212
 2468SOL     OW 7406   3.913   2.382   1.722
 2468SOL    HW1 7407   3.972   2.342   1.652
 2468SOL    HW2 7408   3.855   2.453   1.681
 2469SOL     OW 7409   4.539   2.434   0.325
 2469SOL    HW1 7410   4.546   2.345   0.279
 2469SOL    HW2 7411   4.445   2.468   0.317
 2470SOL     OW 7412   3.976   3.426   1.744
 2470SOL    HW1 7413   3.946   3.483   1.820
 2470SOL    HW2 7414   3.969   3.329   1.770
 2471SOL     OW 7415   4.197   2.362   0.191
 2471SOL    HW1 7416   4.258   2.442   0.195
 2471SOL    HW2 7417   4.102   2.393   0.198
 2472SOL     OW 7418   3.883   2.999   1.466
 2472SOL    HW1 7419   3.905   2.938   1.542
 2472SOL    HW2 7420   3.893   2.950   1.380
 2473SOL     OW 7421   3.807   3.120   1.022
 2473SOL    HW1 7422   3.802   3.119   1.122
 2473SOL    HW2 7423   3.724   3.079   0.984
 2474SOL     OW 7424   3.854   3.656   1.851
 2474SOL    HW1 7425   3.813   3.582   1.904
 2474SOL    HW2 7426   3.918   3.707   1.909
 2475SOL     OW 7427   3.987   2.188   0.720
 2475SOL    HW1 7428   3.908   2.239   0.686
 2475SOL    HW2 7429   3.978   2.173   0.818
 2476SOL     OW 7430   4.096   3.150   1.490
 2476SOL    HW1 7431   4.083   3.243   1.456
 2476SOL    HW2 7432   4.012   3.098   1.477
 2477SOL     OW 7433   4.314   3.349   0.491
 2477SOL    HW1 7434   4.356   3.291   0.421
 2477SOL    HW2 7435   4.270   3.428   0.447
 2478SOL     OW 7436   3.979   3.210   0.290
 2478SOL    HW1 7437   3.883   3.211   0.263
 2478SOL    HW2 7438   3.991   3.263   0.374
 2479SOL     OW 7439   3.829   2.875   1.726
 2479SOL    HW1 7440   3.752   2.842   1.780
 2479SOL    HW2 7441   3.914   2.845   1.768
 2480SOL     OW 7442   3.799   2.207   0.033
 2480SOL    HW1 7443   3.707   2.179   0.004
 2480SOL    HW2 7444   3.830   2.284  -0.023
 2481SOL     OW 7445   3.796   2.028   0.318
 2481SOL    HW1 7446   3.779   2.111   0.264
 2481SOL    HW2 7447   3.886   1.991   0.296
 2482SOL     OW 7448   4.114   3.603   1.560
 2482SOL    HW1 7449   4.023   3.644   1.558
 2482SOL    HW2 7450   4.107   3.509   1.592
 2483SOL     OW 7451   3.945   3.176   1.844
 2483SOL    HW1 7452   3.880   3.103   1.823
 2483SOL    HW2 7453   3.949   3.190   1.942
 2484SOL     OW 7454   3.803   3.102   0.653
 2484SOL    HW1 7455   3.802   3.055   0.741
 2484SOL    HW2 7456   3.885   3.074   0.602
 2485SOL     OW 7457   4.396   3.253   1.624
 2485SOL    HW1 7458   4.318   3.203   1.662
 2485SOL    HW2 7459   4.393   3.348   1.655
 2486SOL     OW 7460   4.152   2.286   0.520
 2486SOL    HW1 7461   4.182   2.214   0.458
 2486SOL    HW2 7462   4.113   2.246   0.603
 2487SOL     OW 7463   4.041   2.409   1.280
 2487SOL    HW1 7464   4.079   2.350   1.352
 2487SOL    HW2 7465   4.081   2.383   1.192
 2488SOL     OW 7466   3.763   2.939   0.300
 2488SOL    HW1 7467   3.862   2.928   0.291
 2488SOL    HW2 7468   3.723   2.853   0.332
 2489SOL     OW 7469   3.954   2.490   1.975
 2489SOL    HW1 7470   3.861   2.488   2.012
 2489SOL    HW2 7471   3.955   2.451   1.883
 2490SOL     OW 7472   3.949   2.137   2.858
 2490SOL    HW1 7473   3.984   2.120   2.950
 2490SOL    HW2 7474   3.861   2.092   2.846
 2491SOL     OW 7475   3.743   2.230   2.509
 2491SOL    HW1 7476   3.661   2.273   2.548
 2491SOL    HW2 7477   3.715   2.157   2.446
 2492SOL     OW 7478   4.059   3.297   2.923
 2492SOL    HW1 7479   3.981   3.266   2.870
 2492SOL    HW2 7480   4.117   3.355   2.866
 2493SOL     OW 7481   4.162   2.254   3.361
 2493SOL    HW1 7482   4.244   2.198   3.370
 2493SOL    HW2 7483   4.081   2.196   3.365
 2494SOL     OW 7484   3.955   3.575   2.345
 2494SOL    HW1 7485   3.989   3.652   2.399
 2494SOL    HW2 7486   3.999   3.575   2.255
 2495SOL     OW 7487   3.954   3.296   2.400
 2495SOL    HW1 7488   3.928   3.392   2.400
 2495SOL    HW2 7489   3.883   3.242   2.445
 2496SOL     OW 7490   3.964   2.953   2.748
 2496SOL    HW1 7491   3.978   2.869   2.800
 2496SOL    HW2 7492   3.909   3.017   2.803
 2497SOL     OW 7493   3.846   2.505   2.425
 2497SOL    HW1 7494   3.801   2.417   2.442
 2497SOL    HW2 7495   3.845   2.559   2.509
 2498SOL     OW 7496   3.751   3.458   1.979
 2498SOL    HW1 7497   3.732   3.362   2.000
 2498SOL    HW2 7498   3.718   3.516   2.054
 2499SOL     OW 7499   3.837   2.599   3.459
 2499SOL    HW1 7500   3.925   2.586   3.504
 2499SOL    HW2 7501   3.824   2.696   3.437
 2500SOL     OW 7502   3.921   2.838   3.126
 2500SOL    HW1 7503   4.010   2.793   3.112
 2500SOL    HW2 7504   3.848   2.773   3.107
 2501SOL     OW 7505   4.041   2.113   3.663
 2501SOL    HW1 7506   4.112   2.184   3.669
 2501SOL    HW2 7507   3.953   2.152   3.691
 2502SOL     OW 7508   4.322   2.591   2.132
 2502SOL    HW1 7509   4.346   2.660   2.064
 2502SOL    HW2 7510   4.244   2.624   2.186
 2503SOL     OW 7511   3.800   2.673   2.651
 2503SOL    HW1 7512   3.899   2.661   2.660
 2503SOL    HW2 7513   3.776   2.768   2.672
 2504SOL     OW 7514   3.854   3.683   3.433
 2504SOL    HW1 7515   3.844   3.668   3.532
 2504SOL    HW2 7516   3.768   3.719   3.397
 2505SOL     OW 7517   4.274   2.058   2.747
 2505SOL    HW1 7518   4.269   2.053   2.847
 2505SOL    HW2 7519   4.276   2.154   2.718
 2506SOL     OW 7520   4.075   3.663   2.715
 2506SOL    HW1 7521   4.125   3.577   2.721
 2506SOL    HW2 7522   4.140   3.740   2.712
 2507SOL     OW 7523   4.045   2.805   2.104
 2507SOL    HW1 7524   4.127   2.844   2.062
 2507SOL    HW2 7525   4.018   2.723   2.055
 2508SOL     OW 7526   4.185   3.128   3.589
 2508SOL    HW1 7527   4.135   3.129   3.503
 2508SOL    HW2 7528   4.122   3.110   3.665
 2509SOL     OW 7529   3.926   2.147   3.360
 2509SOL    HW1 7530   3.846   2.207   3.347
 2509SOL    HW2 7531   3.916   2.098   3.446
 2510SOL     OW 7532   3.973   3.647   3.103
 2510SOL    HW1 7533   4.030   3.582   3.153
 2510SOL    HW2 7534   3.957   3.614   3.010
 2511SOL     OW 7535   4.106   2.562   2.342
 2511SOL    HW1 7536   4.151   2.472   2.339
 2511SOL    HW2 7537   4.012   2.551   2.375
 2512SOL     OW 7538   4.338   1.984   1.979
 2512SOL    HW1 7539   4.436   1.962   1.986
 2512SOL    HW2 7540   4.307   1.967   1.886
 2513SOL     OW 7541   4.263   1.926   2.374
 2513SOL    HW1 7542   4.182   1.927   2.432
 2513SOL    HW2 7543   4.266   2.009   2.319
 2514SOL     OW 7544   4.021   1.897   2.033
 2514SOL    HW1 7545   4.070   1.981   2.012
 2514SOL    HW2 7546   4.083   1.832   2.078
 2515SOL     OW 7547   4.183   3.014   2.603
 2515SOL    HW1 7548   4.112   2.987   2.668
 2515SOL    HW2 7549   4.157   2.986   2.510
 2516SOL     OW 7550   3.802   2.418   3.248
 2516SOL    HW1 7551   3.894   2.417   3.207
 2516SOL    HW2 7552   3.796   2.492   3.315
 2517SOL     OW 7553   4.285   2.084   3.009
 2517SOL    HW1 7554   4.323   2.000   3.046
 2517SOL    HW2 7555   4.197   2.103   3.053
 2518SOL     OW 7556   4.134   2.675   3.113
 2518SOL    HW1 7557   4.220   2.687   3.163
 2518SOL    HW2 7558   4.092   2.588   3.140
 2519SOL     OW 7559   3.788   3.426   3.193
 2519SOL    HW1 7560   3.742   3.508   3.159
 2519SOL    HW2 7561   3.886   3.445   3.202
 2520SOL     OW 7562   4.091   2.962   2.363
 2520SOL    HW1 7563   4.084   3.045   2.307
 2520SOL    HW2 7564   4.095   2.882   2.303
 2521SOL     OW 7565   4.290   2.399   2.727
 2521SOL    HW1 7566   4.302   2.465   2.653
 2521SOL    HW2 7567   4.336   2.433   2.810
 2522SOL     OW 7568   4.078   3.372   3.191
 2522SOL    HW1 7569   4.057   3.328   3.104
 2522SOL    HW2 7570   4.175   3.398   3.194
 2523SOL     OW 7571   4.126   2.613   3.460
 2523SOL    HW1 7572   4.194   2.668   3.413
 2523SOL    HW2 7573   4.166   2.525   3.487
 2524SOL     OW 7574   4.228   1.912   3.602
 2524SOL    HW1 7575   4.186   1.855   3.532
 2524SOL    HW2 7576   4.162   1.981   3.634
 2525SOL     OW 7577   4.297   2.732   2.891
 2525SOL    HW1 7578   4.341   2.821   2.882
 2525SOL    HW2 7579   4.234   2.732   2.968
 2526SOL     OW 7580   4.031   2.075   3.093
 2526SOL    HW1 7581   4.008   2.112   3.183
 2526SOL    HW2 7582   4.001   1.980   3.087
 2527SOL     OW 7583   3.761   3.172   3.144
 2527SOL    HW1 7584   3.814   3.123   3.212
 2527SOL    HW2 7585   3.783   3.270   3.149
 2528SOL     OW 7586   4.031   1.925   2.480
 2528SOL    HW1 7587   4.020   2.019   2.513
 2528SOL    HW2 7588   4.026   1.862   2.557
 2529SOL     OW 7589   4.074   2.760   3.666
 2529SOL    HW1 7590   4.150   2.804   3.714
 2529SOL    HW2 7591   4.109   2.713   3.584
 2530SOL     OW 7592   4.043   2.672   2.811
 2530SOL    HW1 7593   4.136   2.708   2.816
 2530SOL    HW2 7594   4.037   2.587   2.863
 2531SOL     OW 7595   4.063   2.371   2.868
 2531SOL    HW1 7596   4.011   2.288   2.851
 2531SOL    HW2 7597   4.140   2.376   2.804
 2532SOL     OW 7598   3.732   3.188   2.062
 2532SOL    HW1 7599   3.639   3.209   2.031
 2532SOL    HW2 7600   3.742   3.089   2.075
 2533SOL     OW 7601   3.812   3.663   2.789
 2533SOL    HW1 7602   3.770   3.577   2.762
 2533SOL    HW2 7603   3.906   3.666   2.755
 2534SOL     OW 7604   3.764   2.406   2.976
 2534SOL    HW1 7605   3.849   2.373   2.935
 2534SOL    HW2 7606   3.777   2.421   3.074
 2535SOL     OW 7607   3.913   2.382   3.584
 2535SOL    HW1 7608   3.972   2.342   3.514
 2535SOL    HW2 7609   3.855   2.453   3.543
 2536SOL     OW 7610   4.539   2.434   2.187
 2536SOL    HW1 7611   4.546   2.345   2.141
 2536SOL    HW2 7612   4.445   2.468   2.179
 2537SOL     OW 7613   3.976   3.426   3.606
 2537SOL    HW1 7614   3.946   3.483   3.682
 2537SOL    HW2 7615   3.969   3.329   3.632
 2538SOL     OW 7616   4.197   2.362   2.053
 2538SOL    HW1 7617   4.258   2.442   2.057
 2538SOL    HW2 7618   4.102   2.393   2.060
 2539SOL     OW 7619   3.883   2.999   3.328
 2539SOL    HW1 7620   3.905   2.938   3.404
 2539SOL    HW2 7621   3.893   2.950   3.242
 2540SOL     OW 7622   3.807   3.120   2.884
 2540SOL    HW1 7623   3.802   3.119   2.984
 2540SOL    HW2 7624   3.724   3.079   2.846
 2541SOL     OW 7625   3.854   3.656   3.713
 2541SOL    HW1 7626   3.813   3.582   3.766
 2541SOL    HW2 7627   3.918   3.707   3.771
 2542SOL     OW 7628   3.987   2.188   2.582
 2542SOL    HW1 7629   3.908   2.239   2.548
 2542SOL    HW2 7630   3.978   2.173   2.680
 2543SOL     OW 7631   4.096   3.150   3.352
 2543SOL    HW1 7632   4.083   3.243   3.318
 2543SOL    HW2 7633   4.012   3.098   3.339
 2544SOL     OW 7634   4.314   3.349   2.353
 2544SOL    HW1 7635   4.356   3.291   2.283
 2544SOL    HW2 7636   4.270   3.428   2.309
 2545SOL     OW 7637   3.979   3.210   2.152
 2545SOL    HW1 7638   3.883   3.211   2.125
 2545SOL    HW2 7639   3.991   3.263   2.236
 2546SOL     OW 7640   3.829   2.875   3.588
 2546SOL    HW1 7641   3.752   2.842   3.642
 2546SOL    HW2 7642   3.914   2.845   3.630
 2547SOL     OW 7643   3.799   2.207   1.895
 2547SOL    HW1 7644   3.707   2.179   1.866
 2547SOL    HW2 7645   3.830   2.284   1.839
 2548SOL     OW 7646   3.796   2.028   2.180
 2548SOL    HW1 7647   3.779   2.111   2.126
 2548SOL    HW2 7648   3.886   1.991   2.158
 2549SOL     OW 7649   4.114   3.603   3.422
 2549SOL    HW1 7650   4.023   3.644   3.420
 2549SOL    HW2 7651   4.107   3.509   3.454
 2550SOL     OW 7652   3.945   3.176   3.706
 2550SOL    HW1 7653   3.880   3.103   3.685
 2550SOL    HW2 7654   3.949   3.190   3.804
 2551SOL     OW 7655   3.803   3.102   2.515
 2551SOL    HW1 7656   3.802   3.055   2.603
 2551SOL    HW2 7657   3.885   3.074   2.464
 2552SOL     OW 7658   4.396   3.253   3.486
 2552SOL    HW1 7659   4.318   3.203   3.524
 2552SOL    HW2 7660   4.393   3.348   3.517
 2553SOL     OW 7661   4.152   2.286   2.382
 2553SOL    HW1 7662   4.182   2.214   2.320
 2553SOL    HW2 7663   4.113   2.246   2.465
 2554SOL     OW 7664   4.041   2.409   3.142
 2554SOL    HW1 7665   4.079   2.350   3.214
 2554SOL    HW2 7666   4.081   2.383   3.054
 2555SOL     OW 7667   3.763   2.939   2.162
 2555SOL    HW1 7668   3.862   2.928   2.153
 2555SOL    HW2 7669   3.723   2.853   2.194
 2556SOL     OW 7670   3.954   2.490   3.837
 2556SOL    HW1 7671   3.861   2.488   3.874
 2556SOL    HW2 7672   3.955   2.451   3.745
 2557SOL     OW 7673   4.409   2.874   4.389
 2557SOL    HW1 7674   4.478   2.858   4.459
 2557SOL    HW2 7675   4.336   2.931   4.427
 2558SOL     OW 7676   3.955   3.575   4.207
 2558SOL    HW1 7677   3.989   3.652   4.261
 2558SOL    HW2 7678   3.999   3.575   4.117
 2559SOL     OW 7679   3.954   3.296   4.262
 2559SOL    HW1 7680   3.928   3.392   4.262
 2559SOL    HW2 7681   3.883   3.242   4.307
 2560SOL     OW 7682   3.751   3.458   3.841
 2560SOL    HW1 7683   3.732   3.362   3.862
 2560SOL    HW2 7684   3.718   3.516   3.916
 2561SOL     OW 7685   4.322   2.591   3.994
 2561SOL    HW1 7686   4.346   2.660   3.926
 2561SOL    HW2 7687   4.244   2.624   4.048
 2562SOL     OW 7688   4.045   2.805   3.966
 2562SOL    HW1 7689   4.127   2.844   3.924
 2562SOL    HW2 7690   4.018   2.723   3.917
 2563SOL     OW 7691   4.106   2.562   4.204
 2563SOL    HW1 7692   4.151   2.472   4.201
 2563SOL    HW2 7693   4.012   2.551   4.237
 2564SOL     OW 7694   4.338   1.984   3.841
 2564SOL    HW1 7695   4.436   1.962   3.848
 2564SOL    HW2 7696   4.307   1.967   3.748
 2565SOL     OW 7697   4.021   1.897   3.895
 2565SOL    HW1 7698   4.070   1.981   3.874
 2565SOL    HW2 7699   4.083   1.832   3.940
 2566SOL     OW 7700   4.183   3.014   4.465
 2566SOL    HW1 7701   4.112   2.987   4.530
 2566SOL    HW2 7702   4.157   2.986   4.372
 2567SOL     OW 7703   4.091   2.962   4.225
 2567SOL    HW1 7704   4.084   3.045   4.169
 2567SOL    HW2 7705   4.095   2.882   4.165
 2568SOL     OW 7706   3.732   3.188   3.924
 2568SOL    HW1 7707   3.639   3.209   3.893
 2568SOL    HW2 7708   3.742   3.089   3.937
 2569SOL     OW 7709   4.539   2.434   4.049
 2569SOL    HW1 7710   4.546   2.345   4.003
 2569SOL    HW2 7711   4.445   2.468   4.041
 2570SOL     OW 7712   4.197   2.362   3.915
 2570SOL    HW1 7713   4.258   2.442   3.919
 2570SOL    HW2 7714   4.102   2.393   3.922
 2571SOL     OW 7715   4.314   3.349   4.215
 2571SOL    HW1 7716   4.356   3.291   4.145
 2571SOL    HW2 7717   4.270   3.428   4.171
 2572SOL     OW 7718   3.979   3.210   4.014
 2572SOL    HW1 7719   3.883   3.211   3.987
 2572SOL    HW2 7720   3.991   3.263   4.098
 2573SOL     OW 7721   3.799   2.207   3.757
 2573SOL    HW1 7722   3.707   2.179   3.728
 2573SOL    HW2 7723   3.830   2.284   3.701
 2574SOL     OW 7724   3.796   2.028   4.042
 2574SOL    HW1 7725   3.779   2.111   3.988
 2574SOL    HW2 7726   3.886   1.991   4.020
 2575SOL     OW 7727   4.152   2.286   4.244
 2575SOL    HW1 7728   4.182   2.214   4.182
 2575SOL    HW2 7729   4.113   2.246   4.327
 2576SOL     OW 7730   3.763   2.939   4.024
 2576SOL    HW1 7731   3.862   2.928   4.015
 2576SOL    HW2 7732   3.723   2.853   4.056
 2577SOL     OW 7733   3.949   3.999   0.996
 2577SOL    HW1 7734   3.984   3.982   1.088
 2577SOL    HW2 7735   3.861   3.954   0.984
 2578SOL     OW 7736   3.743   4.092   0.647
 2578SOL    HW1 7737   3.661   4.135   0.686
 2578SOL    HW2 7738   3.715   4.019   0.584
 2579SOL     OW 7739   4.162   4.116   1.499
 2579SOL    HW1 7740   4.244   4.060   1.508
 2579SOL    HW2 7741   4.081   4.058   1.503
 2580SOL     OW 7742   3.846   4.367   0.563
 2580SOL    HW1 7743   3.801   4.279   0.580
 2580SOL    HW2 7744   3.845   4.421   0.647
 2581SOL     OW 7745   4.041   3.975   1.801
 2581SOL    HW1 7746   4.112   4.046   1.807
 2581SOL    HW2 7747   3.953   4.014   1.829
 2582SOL     OW 7748   4.274   3.920   0.885
 2582SOL    HW1 7749   4.269   3.915   0.985
 2582SOL    HW2 7750   4.276   4.016   0.856
 2583SOL     OW 7751   3.926   4.009   1.498
 2583SOL    HW1 7752   3.846   4.069   1.485
 2583SOL    HW2 7753   3.916   3.960   1.584
 2584SOL     OW 7754   4.338   3.846   0.117
 2584SOL    HW1 7755   4.436   3.824   0.124
 2584SOL    HW2 7756   4.307   3.829   0.024
 2585SOL     OW 7757   4.263   3.788   0.512
 2585SOL    HW1 7758   4.182   3.789   0.570
 2585SOL    HW2 7759   4.266   3.871   0.457
 2586SOL     OW 7760   4.021   3.759   0.171
 2586SOL    HW1 7761   4.070   3.843   0.150
 2586SOL    HW2 7762   4.083   3.694   0.216
 2587SOL     OW 7763   3.802   4.280   1.386
 2587SOL    HW1 7764   3.894   4.279   1.345
 2587SOL    HW2 7765   3.796   4.354   1.453
 2588SOL     OW 7766   4.285   3.946   1.147
 2588SOL    HW1 7767   4.323   3.862   1.184
 2588SOL    HW2 7768   4.197   3.965   1.191
 2589SOL     OW 7769   4.290   4.261   0.865
 2589SOL    HW1 7770   4.302   4.327   0.791
 2589SOL    HW2 7771   4.336   4.295   0.948
 2590SOL     OW 7772   4.228   3.774   1.740
 2590SOL    HW1 7773   4.186   3.717   1.670
 2590SOL    HW2 7774   4.162   3.843   1.772
 2591SOL     OW 7775   4.031   3.937   1.231
 2591SOL    HW1 7776   4.008   3.974   1.321
 2591SOL    HW2 7777   4.001   3.842   1.225
 2592SOL     OW 7778   4.031   3.787   0.618
 2592SOL    HW1 7779   4.020   3.881   0.651
 2592SOL    HW2 7780   4.026   3.724   0.695
 2593SOL     OW 7781   4.063   4.233   1.006
 2593SOL    HW1 7782   4.011   4.150   0.989
 2593SOL    HW2 7783   4.140   4.238   0.942
 2594SOL     OW 7784   3.764   4.268   1.114
 2594SOL    HW1 7785   3.849   4.235   1.073
 2594SOL    HW2 7786   3.777   4.283   1.212
 2595SOL     OW 7787   3.913   4.244   1.722
 2595SOL    HW1 7788   3.972   4.204   1.652
 2595SOL    HW2 7789   3.855   4.315   1.681
 2596SOL     OW 7790   3.987   4.050   0.720
 2596SOL    HW1 7791   3.908   4.101   0.686
 2596SOL    HW2 7792   3.978   4.035   0.818
 2597SOL     OW 7793   3.799   4.069   0.033
 2597SOL    HW1 7794   3.707   4.041   0.004
 2597SOL    HW2 7795   3.830   4.146  -0.023
 2598SOL     OW 7796   3.796   3.890   0.318
 2598SOL    HW1 7797   3.779   3.973   0.264
 2598SOL    HW2 7798   3.886   3.853   0.296
 2599SOL     OW 7799   4.152   4.148   0.520
 2599SOL    HW1 7800   4.182   4.076   0.458
 2599SOL    HW2 7801   4.113   4.108   0.603
 2600SOL     OW 7802   4.041   4.271   1.280
 2600SOL    HW1 7803   4.079   4.212   1.352
 2600SOL    HW2 7804   4.081   4.245   1.192
 2601SOL     OW 7805   3.949   3.999   2.858
 2601SOL    HW1 7806   3.984   3.982   2.950
 2601SOL    HW2 7807   3.861   3.954   2.846
 2602SOL     OW 7808   3.743   4.092   2.509
 2602SOL    HW1 7809   3.661   4.135   2.548
 2602SOL    HW2 7810   3.715   4.019   2.446
 2603SOL     OW 7811   4.162   4.116   3.361
 2603SOL    HW1 7812   4.244   4.060   3.370
 2603SOL    HW2 7813   4.081   4.058   3.365
 2604SOL     OW 7814   3.846   4.367   2.425
 2604SOL    HW1 7815   3.801   4.279   2.442
 2604SOL    HW2 7816   3.845   4.421   2.509
 2605SOL     OW 7817   4.041   3.975   3.663
 2605SOL    HW1 7818   4.112   4.046   3.669
 2605SOL    HW2 7819   3.953   4.014   3.691
 2606SOL     OW 7820   4.274   3.920   2.747
 2606SOL    HW1 7821   4.269   3.915   2.847
 2606SOL    HW2 7822   4.276   4.016   2.718
 2607SOL     OW 7823   3.926   4.009   3.360
 2607SOL    HW1 7824   3.846   4.069   3.347
 2607SOL    HW2 7825   3.916   3.960   3.446
 2608SOL     OW 7826   4.338   3.846   1.979
 2608SOL    HW1 7827   4.436   3.824   1.986
 2608SOL    HW2 7828   4.307   3.829   1.886
 2609SOL     OW 7829   4.263   3.788   2.374
 2609SOL    HW1 7830   4.182   3.789   2.432
 2609SOL    HW2 7831   4.266   3.871   2.319
 2610SOL     OW 7832   4.021   3.759   2.033
 2610SOL    HW1 7833   4.070   3.843   2.012
 2610SOL    HW2 7834   4.083   3.694   2.078
 2611SOL     OW 7835   3.802   4.280   3.248
 2611SOL    HW1 7836   3.894   4.279   3.207
 2611SOL    HW2 7837   3.796   4.354   3.315
 2612SOL     OW 7838   4.285   3.946   3.009
 2612SOL    HW1 7839   4.323   3.862   3.046
 2612SOL    HW2 7840   4.197   3.965   3.053
 2613SOL     OW 7841   4.290   4.261   2.727
 2613SOL    HW1 7842   4.302   4.327   2.653
 2613SOL    HW2 7843   4.336   4.295   2.810
 2614SOL     OW 7844   4.228   3.774   3.602
 2614SOL    HW1 7845   4.186   3.717   3.532
 2614SOL    HW2 7846   4.162   3.843   3.634
 2615SOL     OW 7847   4.031   3.937   3.093
 2615SOL    HW1 7848   4.008   3.974   3.183
 2615SOL    HW2 7849   4.001   3.842   3.087
 2616SOL     OW 7850   4.031   3.787   2.480
 2616SOL    HW1 7851   4.020   3.881   2.513
 2616SOL    HW2 7852   4.026   3.724   2.557
 2617SOL     OW 7853   4.063   4.233   2.868
 2617SOL    HW1 7854   4.011   4.150   2.851
 2617SOL    HW2 7855   4.140   4.238   2.804
 2618SOL     OW 7856   3.764   4.268   2.976
 2618SOL    HW1 7857   3.849   4.235   2.935
 2618SOL    HW2 7858   3.777   4.283   3.074
 2619SOL     OW 7859   3.913   4.244   3.584
 2619SOL    HW1 7860   3.972   4.204   3.514
 2619SOL    HW2 7861   3.855   4.315   3.543
 2620SOL     OW 7862   3.987   4.050   2.582
 2620SOL    HW1 7863   3.908   4.101   2.548
 2620SOL    HW2 7864   3.978   4.035   2.680
 2621SOL     OW 7865   3.799   4.069   1.895
 2621SOL    HW1 7866   3.707   4.041   1.866
 2621SOL    HW2 7867   3.830   4.146   1.839
 2622SOL     OW 7868   3.796   3.890   2.180
 2622SOL    HW1 7869   3.779   3.973   2.126
 2622SOL    HW2 7870   3.886   3.853   2.158
 2623SOL     OW 7871   4.152   4.148   2.382
 2623SOL    HW1 7872   4.182   4.076   2.320
 2623SOL    HW2 7873   4.113   4.108   2.465
 2624SOL     OW 7874   4.041   4.271   3.142
 2624SOL    HW1 7875   4.079   4.212   3.214
 2624SOL    HW2 7876   4.081   4.245   3.054
 2625SOL     OW 7877   3.846   4.367   4.287
 2625SOL    HW1 7878   3.801   4.279   4.304
 2625SOL    HW2 7879   3.845   4.421   4.371
 2626SOL     OW 7880   4.106   4.424   4.204
 2626SOL    HW1 7881   4.151   4.334   4.201
 2626SOL    HW2 7882   4.012   4.413   4.237
 2627SOL     OW 7883   4.338   3.846   3.841
 2627SOL    HW1 7884   4.436   3.824   3.848
 2627SOL    HW2 7885   4.307   3.829   3.748
 2628SOL     OW 7886   4.021   3.759   3.895
 2628SOL    HW1 7887   4.070   3.843   3.874
 2628SOL    HW2 7888   4.083   3.694   3.940
 2629SOL     OW 7889   4.290   4.261   4.589
 2629SOL    HW1 7890   4.302   4.327   4.515
 2629SOL    HW2 7891   4.336   4.295   4.672
 2630SOL     OW 7892   3.799   4.069   3.757
 2630SOL    HW1 7893   3.707   4.041   3.728
 2630SOL    HW2 7894   3.830   4.146   3.701
 2631SOL     OW 7895   3.796   3.890   4.042
 2631SOL    HW1 7896   3.779   3.973   3.988
 2631SOL    HW2 7897   3.886   3.853   4.020
 2632SOL     OW 7898   4.152   4.148   4.244
 2632SOL    HW1 7899   4.182   4.076   4.182
 2632SOL    HW2 7900   4.113   4.108   4.327
   4.29463   4.29463   4.29463
