mobley_6714389_GMX.gro created by acpype (v: 2023.10.27) on Thu May 21 00:02:04 2026
    7
    1MOL     C1    1   2.198   2.146   2.174
    1MOL     N1    2   2.091   2.135   2.078
    1MOL     H1    3   2.161   2.184   2.270
    1MOL     H2    4   2.275   2.215   2.137
    1MOL     H3    5   2.245   2.049   2.191
    1MOL     H4    6   2.046   2.226   2.065
    1MOL     H5    7   2.018   2.073   2.114
   4.29463   4.29463   4.29463
