mobley_6714389_GMX.gro created by acpype (v: 2023.10.27) on Thu May 21 00:02:04 2026
 2428
    1MOL     C1    1   2.198   2.146   2.174
    1MOL     N1    2   2.091   2.135   2.078
    1MOL     H1    3   2.161   2.184   2.270
    1MOL     H2    4   2.275   2.215   2.137
    1MOL     H3    5   2.245   2.049   2.191
    1MOL     H4    6   2.046   2.226   2.065
    1MOL     H5    7   2.018   2.073   2.114
    6SOL     OW    8   1.555   1.511   0.703
    6SOL    HW1    9   1.498   1.495   0.784
    6SOL    HW2   10   1.496   1.521   0.623
   12SOL     OW   11   0.686   1.161   1.803
   12SOL    HW1   12   0.746   1.240   1.817
   12SOL    HW2   13   0.600   1.192   1.762
   14SOL     OW   14   1.460   1.505   1.339
   14SOL    HW1   15   1.484   1.599   1.365
   14SOL    HW2   16   1.444   1.451   1.421
   18SOL     OW   17   1.127   1.341   1.690
   18SOL    HW1   18   1.174   1.341   1.778
   18SOL    HW2   19   1.079   1.254   1.679
   21SOL     OW   20   0.620   1.786   1.439
   21SOL    HW1   21   0.528   1.769   1.474
   21SOL    HW2   22   0.648   1.878   1.465
   31SOL     OW   23   1.293   1.228   1.423
   31SOL    HW1   24   1.330   1.155   1.365
   31SOL    HW2   25   1.345   1.233   1.508
   35SOL     OW   26   1.187   1.792   1.616
   35SOL    HW1   27   1.211   1.852   1.540
   35SOL    HW2   28   1.194   1.697   1.586
   37SOL     OW   29   1.466   1.417   0.953
   37SOL    HW1   30   1.407   1.423   1.033
   37SOL    HW2   31   1.451   1.329   0.907
   38SOL     OW   32   1.667   1.714   0.572
   38SOL    HW1   33   1.626   1.691   0.484
   38SOL    HW2   34   1.649   1.640   0.637
   50SOL     OW   35   1.719   0.585   1.831
   50SOL    HW1   36   1.693   0.674   1.795
   50SOL    HW2   37   1.717   0.517   1.758
   55SOL     OW   38   1.795   1.066   0.873
   55SOL    HW1   39   1.733   1.051   0.797
   55SOL    HW2   40   1.743   1.077   0.958
   56SOL     OW   41   1.227   1.550   1.506
   56SOL    HW1   42   1.233   1.473   1.570
   56SOL    HW2   43   1.175   1.524   1.426
   66SOL     OW   44   0.940   1.698   0.904
   66SOL    HW1   45   1.020   1.641   0.925
   66SOL    HW2   46   0.891   1.658   0.827
   71SOL     OW   47   0.888   1.514   1.195
   71SOL    HW1   48   0.865   1.489   1.101
   71SOL    HW2   49   0.949   1.445   1.234
   80SOL     OW   50   1.227   1.570   0.793
   80SOL    HW1   51   1.248   1.644   0.728
   80SOL    HW2   52   1.295   1.570   0.866
   88SOL     OW   53   1.429   1.173   0.867
   88SOL    HW1   54   1.374   1.089   0.860
   88SOL    HW2   55   1.455   1.202   0.775
   92SOL     OW   56   1.664   1.280   0.657
   92SOL    HW1   57   1.763   1.288   0.671
   92SOL    HW2   58   1.619   1.364   0.688
   95SOL     OW   59   1.754   1.223   1.588
   95SOL    HW1   60   1.845   1.184   1.575
   95SOL    HW2   61   1.762   1.319   1.612
   96SOL     OW   62   1.064   1.347   1.340
   96SOL    HW1   63   0.984   1.324   1.395
   96SOL    HW2   64   1.147   1.321   1.389
   97SOL     OW   65   1.592   1.629   1.625
   97SOL    HW1   66   1.619   1.663   1.535
   97SOL    HW2   67   1.671   1.591   1.671
   98SOL     OW   68   1.111   1.195   1.100
   98SOL    HW1   69   1.071   1.239   1.181
   98SOL    HW2   70   1.070   1.232   1.017
   99SOL     OW   71   1.638   1.099   1.079
   99SOL    HW1   72   1.643   1.180   1.138
   99SOL    HW2   73   1.552   1.101   1.028
  101SOL     OW   74   0.980   1.116   1.719
  101SOL    HW1   75   0.881   1.122   1.729
  101SOL    HW2   76   1.003   1.036   1.663
  109SOL     OW   77   1.272   1.445   1.142
  109SOL    HW1   78   1.319   1.458   1.229
  109SOL    HW2   79   1.206   1.371   1.151
  113SOL     OW   80   1.587   0.779   1.670
  113SOL    HW1   81   1.495   0.817   1.665
  113SOL    HW2   82   1.647   0.826   1.605
  122SOL     OW   83   1.728   0.935   1.854
  122SOL    HW1   84   1.682   0.928   1.765
  122SOL    HW2   85   1.666   0.979   1.920
  126SOL     OW   86   0.980   1.573   1.700
  126SOL    HW1   87   0.960   1.617   1.612
  126SOL    HW2   88   1.019   1.482   1.684
  127SOL     OW   89   1.859   1.518   1.605
  127SOL    HW1   90   1.873   1.545   1.510
  127SOL    HW2   91   1.942   1.540   1.658
  142SOL     OW   92   1.369   0.950   1.660
  142SOL    HW1   93   1.408   1.039   1.680
  142SOL    HW2   94   1.379   0.930   1.563
  147SOL     OW   95   0.930   1.678   1.465
  147SOL    HW1   96   0.906   1.660   1.370
  147SOL    HW2   97   0.960   1.772   1.475
  150SOL     OW   98   1.347   1.059   1.234
  150SOL    HW1   99   1.371   0.996   1.160
  150SOL    HW2  100   1.257   1.099   1.216
  152SOL     OW  101   1.759   1.747   1.154
  152SOL    HW1  102   1.820   1.777   1.081
  152SOL    HW2  103   1.721   1.658   1.132
  153SOL     OW  104   1.252   1.731   1.128
  153SOL    HW1  105   1.336   1.736   1.074
  153SOL    HW2  106   1.229   1.635   1.146
  155SOL     OW  107   0.688   1.662   1.716
  155SOL    HW1  108   0.632   1.743   1.725
  155SOL    HW2  109   0.740   1.666   1.630
  161SOL     OW  110   0.830   1.273   1.422
  161SOL    HW1  111   0.825   1.306   1.517
  161SOL    HW2  112   0.744   1.292   1.376
  163SOL     OW  113   1.650   1.720   1.394
  163SOL    HW1  114   1.703   1.730   1.310
  163SOL    HW2  115   1.623   1.810   1.428
  171SOL     OW  116   1.614   1.292   1.289
  171SOL    HW1  117   1.674   1.295   1.369
  171SOL    HW2  118   1.539   1.356   1.302
  180SOL     OW  119   1.440   0.856   1.398
  180SOL    HW1  120   1.383   0.908   1.335
  180SOL    HW2  121   1.536   0.868   1.374
  184SOL     OW  122   1.493   1.767   0.959
  184SOL    HW1  123   1.526   1.831   0.890
  184SOL    HW2  124   1.559   1.761   1.034
  186SOL     OW  125   1.450   1.220   1.633
  186SOL    HW1  126   1.441   1.210   1.732
  186SOL    HW2  127   1.546   1.213   1.607
  188SOL     OW  128   1.674   0.883   1.254
  188SOL    HW1  129   1.647   0.794   1.217
  188SOL    HW2  130   1.675   0.951   1.181
  192SOL     OW  131   1.730   0.934   1.517
  192SOL    HW1  132   1.768   1.025   1.532
  192SOL    HW2  133   1.722   0.917   1.418
  197SOL     OW  134   1.861   1.569   0.851
  197SOL    HW1  135   1.790   1.557   0.781
  197SOL    HW2  136   1.862   1.490   0.911
  200SOL     OW  137   0.672   1.391   1.624
  200SOL    HW1  138   0.594   1.341   1.662
  200SOL    HW2  139   0.669   1.486   1.655
  203SOL     OW  140   1.705   1.487   1.104
  203SOL    HW1  141   1.612   1.462   1.077
  203SOL    HW2  142   1.731   1.437   1.186
  219SOL     OW  143   1.555   1.511   2.565
  219SOL    HW1  144   1.498   1.495   2.646
  219SOL    HW2  145   1.496   1.521   2.485
  221SOL     OW  146   1.755   0.607   2.093
  221SOL    HW1  147   1.743   0.594   1.994
  221SOL    HW2  148   1.725   0.526   2.142
  227SOL     OW  149   1.460   1.505   3.201
  227SOL    HW1  150   1.484   1.599   3.227
  227SOL    HW2  151   1.444   1.451   3.283
  238SOL     OW  152   1.842   1.767   2.221
  238SOL    HW1  153   1.896   1.738   2.301
  238SOL    HW2  154   1.872   1.857   2.192
  240SOL     OW  155   1.689   0.922   2.474
  240SOL    HW1  156   1.784   0.893   2.482
  240SOL    HW2  157   1.681   0.987   2.399
  241SOL     OW  158   1.641   1.108   2.294
  241SOL    HW1  159   1.727   1.110   2.242
  241SOL    HW2  160   1.655   1.155   2.382
  243SOL     OW  161   0.613   1.365   2.588
  243SOL    HW1  162   0.564   1.278   2.597
  243SOL    HW2  163   0.590   1.408   2.501
  244SOL     OW  164   1.293   1.228   3.285
  244SOL    HW1  165   1.330   1.155   3.227
  244SOL    HW2  166   1.345   1.233   3.370
  247SOL     OW  167   1.525   0.999   2.052
  247SOL    HW1  168   1.462   0.923   2.065
  247SOL    HW2  169   1.573   1.017   2.138
  248SOL     OW  170   1.187   1.792   3.478
  248SOL    HW1  171   1.211   1.852   3.402
  248SOL    HW2  172   1.194   1.697   3.448
  250SOL     OW  173   1.466   1.417   2.815
  250SOL    HW1  174   1.407   1.423   2.895
  250SOL    HW2  175   1.451   1.329   2.769
  251SOL     OW  176   1.667   1.714   2.434
  251SOL    HW1  177   1.626   1.691   2.346
  251SOL    HW2  178   1.649   1.640   2.499
  254SOL     OW  179   1.576   1.662   2.169
  254SOL    HW1  180   1.665   1.708   2.172
  254SOL    HW2  181   1.555   1.638   2.074
  264SOL     OW  182   1.362   1.144   2.407
  264SOL    HW1  183   1.445   1.115   2.359
  264SOL    HW2  184   1.313   1.211   2.351
  266SOL     OW  185   1.008   1.456   2.339
  266SOL    HW1  186   0.962   1.528   2.287
  266SOL    HW2  187   1.004   1.476   2.437
  268SOL     OW  188   1.795   1.066   2.735
  268SOL    HW1  189   1.733   1.051   2.659
  268SOL    HW2  190   1.743   1.077   2.820
  269SOL     OW  191   1.227   1.550   3.368
  269SOL    HW1  192   1.233   1.473   3.432
  269SOL    HW2  193   1.175   1.524   3.288
  271SOL     OW  194   1.458   0.735   2.590
  271SOL    HW1  195   1.453   0.670   2.665
  271SOL    HW2  196   1.538   0.794   2.603
  273SOL     OW  197   1.111   1.776   2.099
  273SOL    HW1  198   1.051   1.714   2.149
  273SOL    HW2  199   1.142   1.732   2.014
  275SOL     OW  200   1.632   1.377   1.943
  275SOL    HW1  201   1.600   1.471   1.933
  275SOL    HW2  202   1.556   1.314   1.931
  276SOL     OW  203   0.464   1.743   2.185
  276SOL    HW1  204   0.497   1.782   2.271
  276SOL    HW2  205   0.540   1.736   2.120
  279SOL     OW  206   0.940   1.698   2.766
  279SOL    HW1  207   1.020   1.641   2.787
  279SOL    HW2  208   0.891   1.658   2.689
  284SOL     OW  209   0.888   1.514   3.057
  284SOL    HW1  210   0.865   1.489   2.963
  284SOL    HW2  211   0.949   1.445   3.096
  286SOL     OW  212   0.803   1.402   2.786
  286SOL    HW1  213   0.893   1.416   2.744
  286SOL    HW2  214   0.732   1.404   2.715
  289SOL     OW  215   1.434   1.188   1.903
  289SOL    HW1  216   1.466   1.112   1.960
  289SOL    HW2  217   1.342   1.215   1.933
  293SOL     OW  218   1.227   1.570   2.655
  293SOL    HW1  219   1.248   1.644   2.590
  293SOL    HW2  220   1.295   1.570   2.728
  295SOL     OW  221   1.271   1.797   2.453
  295SOL    HW1  222   1.315   1.861   2.389
  295SOL    HW2  223   1.221   1.849   2.523
  301SOL     OW  224   1.429   1.173   2.729
  301SOL    HW1  225   1.374   1.089   2.722
  301SOL    HW2  226   1.455   1.202   2.637
  303SOL     OW  227   1.857   0.833   2.239
  303SOL    HW1  228   1.899   0.769   2.303
  303SOL    HW2  229   1.819   0.782   2.161
  305SOL     OW  230   1.664   1.280   2.519
  305SOL    HW1  231   1.763   1.288   2.533
  305SOL    HW2  232   1.619   1.364   2.550
  306SOL     OW  233   1.390   0.575   1.940
  306SOL    HW1  234   1.336   0.554   2.021
  306SOL    HW2  235   1.481   0.534   1.949
  308SOL     OW  236   1.754   1.223   3.450
  308SOL    HW1  237   1.845   1.184   3.437
  308SOL    HW2  238   1.762   1.319   3.474
  309SOL     OW  239   1.064   1.347   3.202
  309SOL    HW1  240   0.984   1.324   3.257
  309SOL    HW2  241   1.147   1.321   3.251
  310SOL     OW  242   1.592   1.629   3.487
  310SOL    HW1  243   1.619   1.663   3.397
  310SOL    HW2  244   1.671   1.591   3.533
  311SOL     OW  245   1.111   1.195   2.962
  311SOL    HW1  246   1.071   1.239   3.043
  311SOL    HW2  247   1.070   1.232   2.879
  312SOL     OW  248   1.638   1.099   2.941
  312SOL    HW1  249   1.643   1.180   3.000
  312SOL    HW2  250   1.552   1.101   2.890
  321SOL     OW  251   1.252   1.348   2.250
  321SOL    HW1  252   1.302   1.425   2.290
  321SOL    HW2  253   1.157   1.350   2.282
  322SOL     OW  254   1.272   1.445   3.004
  322SOL    HW1  255   1.319   1.458   3.091
  322SOL    HW2  256   1.206   1.371   3.013
  323SOL     OW  257   1.582   0.639   2.334
  323SOL    HW1  258   1.551   0.700   2.407
  323SOL    HW2  259   1.632   0.691   2.265
  330SOL     OW  260   1.360   0.862   2.907
  330SOL    HW1  261   1.285   0.862   2.841
  330SOL    HW2  262   1.397   0.770   2.916
  340SOL     OW  263   1.859   1.518   3.467
  340SOL    HW1  264   1.873   1.545   3.372
  340SOL    HW2  265   1.942   1.540   3.520
  343SOL     OW  266   1.303   0.838   1.904
  343SOL    HW1  267   1.337   0.745   1.919
  343SOL    HW2  268   1.321   0.865   1.809
  344SOL     OW  269   1.068   1.333   2.711
  344SOL    HW1  270   1.075   1.249   2.656
  344SOL    HW2  271   1.130   1.402   2.675
  360SOL     OW  272   0.930   1.678   3.327
  360SOL    HW1  273   0.906   1.660   3.232
  360SOL    HW2  274   0.960   1.772   3.337
  363SOL     OW  275   1.347   1.059   3.096
  363SOL    HW1  276   1.371   0.996   3.022
  363SOL    HW2  277   1.257   1.099   3.078
  364SOL     OW  278   1.302   0.855   2.171
  364SOL    HW1  279   1.216   0.824   2.213
  364SOL    HW2  280   1.298   0.841   2.072
  365SOL     OW  281   1.759   1.747   3.016
  365SOL    HW1  282   1.820   1.777   2.943
  365SOL    HW2  283   1.721   1.658   2.994
  366SOL     OW  284   1.252   1.731   2.990
  366SOL    HW1  285   1.336   1.736   2.936
  366SOL    HW2  286   1.229   1.635   3.008
  370SOL     OW  287   1.388   1.573   2.339
  370SOL    HW1  288   1.455   1.585   2.265
  370SOL    HW2  289   1.348   1.662   2.362
  372SOL     OW  290   1.280   0.927   2.534
  372SOL    HW1  291   1.340   0.846   2.536
  372SOL    HW2  292   1.320   0.996   2.474
  374SOL     OW  293   0.672   1.616   2.016
  374SOL    HW1  294   0.681   1.626   1.917
  374SOL    HW2  295   0.632   1.527   2.037
  375SOL     OW  296   1.650   1.720   3.256
  375SOL    HW1  297   1.703   1.730   3.172
  375SOL    HW2  298   1.623   1.810   3.290
  378SOL     OW  299   1.194   1.612   1.893
  378SOL    HW1  300   1.200   1.519   1.930
  378SOL    HW2  301   1.135   1.612   1.813
  380SOL     OW  302   0.916   0.910   2.153
  380SOL    HW1  303   0.979   0.948   2.085
  380SOL    HW2  304   0.956   0.827   2.192
  381SOL     OW  305   1.504   1.607   1.906
  381SOL    HW1  306   1.412   1.644   1.913
  381SOL    HW2  307   1.542   1.627   1.816
  383SOL     OW  308   1.614   1.292   3.151
  383SOL    HW1  309   1.674   1.295   3.231
  383SOL    HW2  310   1.539   1.356   3.164
  384SOL     OW  311   1.039   1.098   2.558
  384SOL    HW1  312   0.969   1.051   2.612
  384SOL    HW2  313   1.098   1.030   2.515
  386SOL     OW  314   0.590   1.487   2.353
  386SOL    HW1  315   0.632   1.429   2.283
  386SOL    HW2  316   0.546   1.566   2.309
  394SOL     OW  317   1.183   1.335   1.981
  394SOL    HW1  318   1.084   1.324   1.983
  394SOL    HW2  319   1.217   1.350   2.074
  396SOL     OW  320   1.493   1.767   2.821
  396SOL    HW1  321   1.526   1.831   2.752
  396SOL    HW2  322   1.559   1.761   2.896
  398SOL     OW  323   1.450   1.220   3.495
  398SOL    HW1  324   1.441   1.210   3.594
  398SOL    HW2  325   1.546   1.213   3.469
  400SOL     OW  326   1.674   0.883   3.116
  400SOL    HW1  327   1.647   0.794   3.079
  400SOL    HW2  328   1.675   0.951   3.043
  404SOL     OW  329   1.730   0.934   3.379
  404SOL    HW1  330   1.768   1.025   3.394
  404SOL    HW2  331   1.722   0.917   3.280
  405SOL     OW  332   0.859   1.374   1.878
  405SOL    HW1  333   0.813   1.389   1.966
  405SOL    HW2  334   0.903   1.459   1.848
  406SOL     OW  335   0.661   1.790   2.815
  406SOL    HW1  336   0.615   1.878   2.802
  406SOL    HW2  337   0.760   1.802   2.808
  408SOL     OW  338   1.083   0.984   1.949
  408SOL    HW1  339   1.060   1.037   1.867
  408SOL    HW2  340   1.164   0.928   1.930
  409SOL     OW  341   1.861   1.569   2.713
  409SOL    HW1  342   1.790   1.557   2.643
  409SOL    HW2  343   1.862   1.490   2.773
  415SOL     OW  344   1.705   1.487   2.966
  415SOL    HW1  345   1.612   1.462   2.939
  415SOL    HW2  346   1.731   1.437   3.048
  417SOL     OW  347   0.812   1.586   2.549
  417SOL    HW1  348   0.844   1.596   2.455
  417SOL    HW2  349   0.733   1.524   2.551
  420SOL     OW  350   0.770   1.330   2.163
  420SOL    HW1  351   0.724   1.243   2.180
  420SOL    HW2  352   0.861   1.327   2.204
  426SOL     OW  353   0.875   1.646   2.199
  426SOL    HW1  354   0.798   1.611   2.145
  426SOL    HW2  355   0.843   1.717   2.261
  499SOL     OW  356   0.850   2.660   1.823
  499SOL    HW1  357   0.846   2.736   1.888
  499SOL    HW2  358   0.872   2.696   1.732
  501SOL     OW  359   0.686   3.023   1.803
  501SOL    HW1  360   0.746   3.102   1.817
  501SOL    HW2  361   0.600   3.054   1.762
  503SOL     OW  362   1.460   3.367   1.339
  503SOL    HW1  363   1.484   3.461   1.365
  503SOL    HW2  364   1.444   3.313   1.421
  505SOL     OW  365   1.603   2.309   0.737
  505SOL    HW1  366   1.529   2.355   0.687
  505SOL    HW2  367   1.654   2.377   0.790
  507SOL     OW  368   1.127   3.203   1.690
  507SOL    HW1  369   1.174   3.203   1.778
  507SOL    HW2  370   1.079   3.116   1.679
  512SOL     OW  371   1.594   1.976   1.480
  512SOL    HW1  372   1.576   2.043   1.408
  512SOL    HW2  373   1.591   2.022   1.569
  516SOL     OW  374   1.689   2.784   0.612
  516SOL    HW1  375   1.784   2.755   0.620
  516SOL    HW2  376   1.681   2.849   0.537
  520SOL     OW  377   1.293   3.090   1.423
  520SOL    HW1  378   1.330   3.017   1.365
  520SOL    HW2  379   1.345   3.095   1.508
  526SOL     OW  380   1.466   3.279   0.953
  526SOL    HW1  381   1.407   3.285   1.033
  526SOL    HW2  382   1.451   3.191   0.907
  529SOL     OW  383   1.281   2.207   0.944
  529SOL    HW1  384   1.195   2.157   0.931
  529SOL    HW2  385   1.343   2.153   1.000
  531SOL     OW  386   0.807   2.467   1.465
  531SOL    HW1  387   0.760   2.464   1.554
  531SOL    HW2  388   0.756   2.412   1.399
  532SOL     OW  389   1.394   2.331   1.674
  532SOL    HW1  390   1.374   2.374   1.762
  532SOL    HW2  391   1.472   2.269   1.683
  533SOL     OW  392   0.973   2.752   1.572
  533SOL    HW1  393   1.019   2.668   1.543
  533SOL    HW2  394   0.917   2.786   1.497
  534SOL     OW  395   0.991   2.272   1.242
  534SOL    HW1  396   0.914   2.306   1.296
  534SOL    HW2  397   0.957   2.221   1.163
  539SOL     OW  398   1.719   2.447   1.831
  539SOL    HW1  399   1.693   2.536   1.795
  539SOL    HW2  400   1.717   2.379   1.758
  544SOL     OW  401   1.795   2.928   0.873
  544SOL    HW1  402   1.733   2.913   0.797
  544SOL    HW2  403   1.743   2.939   0.958
  545SOL     OW  404   1.227   3.412   1.506
  545SOL    HW1  405   1.233   3.335   1.570
  545SOL    HW2  406   1.175   3.386   1.426
  547SOL     OW  407   1.458   2.597   0.728
  547SOL    HW1  408   1.453   2.532   0.803
  547SOL    HW2  409   1.538   2.656   0.741
  557SOL     OW  410   1.547   2.084   1.729
  557SOL    HW1  411   1.542   2.121   1.821
  557SOL    HW2  412   1.475   2.015   1.717
  559SOL     OW  413   0.781   2.126   1.749
  559SOL    HW1  414   0.848   2.065   1.792
  559SOL    HW2  415   0.708   2.145   1.814
  561SOL     OW  416   1.351   2.452   1.433
  561SOL    HW1  417   1.379   2.409   1.518
  561SOL    HW2  418   1.376   2.548   1.434
  563SOL     OW  419   0.922   2.365   0.899
  563SOL    HW1  420   0.897   2.356   0.803
  563SOL    HW2  421   0.970   2.283   0.930
  568SOL     OW  422   1.076   2.545   1.464
  568SOL    HW1  423   0.996   2.484   1.467
  568SOL    HW2  424   1.157   2.492   1.440
  577SOL     OW  425   1.429   3.035   0.867
  577SOL    HW1  426   1.374   2.951   0.860
  577SOL    HW2  427   1.455   3.064   0.775
  578SOL     OW  428   1.466   2.452   0.992
  578SOL    HW1  429   1.436   2.357   0.999
  578SOL    HW2  430   1.539   2.468   1.058
  584SOL     OW  431   1.754   3.085   1.588
  584SOL    HW1  432   1.845   3.046   1.575
  584SOL    HW2  433   1.762   3.181   1.612
  585SOL     OW  434   1.064   3.209   1.340
  585SOL    HW1  435   0.984   3.186   1.395
  585SOL    HW2  436   1.147   3.183   1.389
  586SOL     OW  437   1.592   3.491   1.625
  586SOL    HW1  438   1.619   3.525   1.535
  586SOL    HW2  439   1.671   3.453   1.671
  587SOL     OW  440   1.111   3.057   1.100
  587SOL    HW1  441   1.071   3.101   1.181
  587SOL    HW2  442   1.070   3.094   1.017
  588SOL     OW  443   1.638   2.961   1.079
  588SOL    HW1  444   1.643   3.042   1.138
  588SOL    HW2  445   1.552   2.963   1.028
  589SOL     OW  446   0.915   1.951   1.402
  589SOL    HW1  447   0.940   1.931   1.307
  589SOL    HW2  448   0.987   2.007   1.444
  590SOL     OW  449   0.980   2.978   1.719
  590SOL    HW1  450   0.881   2.984   1.729
  590SOL    HW2  451   1.003   2.898   1.663
  593SOL     OW  452   1.274   2.248   1.262
  593SOL    HW1  453   1.295   2.322   1.326
  593SOL    HW2  454   1.185   2.265   1.219
  598SOL     OW  455   1.272   3.307   1.142
  598SOL    HW1  456   1.319   3.320   1.229
  598SOL    HW2  457   1.206   3.233   1.151
  602SOL     OW  458   1.587   2.641   1.670
  602SOL    HW1  459   1.495   2.679   1.665
  602SOL    HW2  460   1.647   2.688   1.605
  603SOL     OW  461   1.013   1.967   1.770
  603SOL    HW1  462   1.019   2.052   1.718
  603SOL    HW2  463   1.045   1.891   1.713
  604SOL     OW  464   0.504   1.912   1.740
  604SOL    HW1  465   0.462   1.855   1.670
  604SOL    HW2  466   0.438   1.981   1.772
  606SOL     OW  467   1.360   2.724   1.045
  606SOL    HW1  468   1.285   2.724   0.979
  606SOL    HW2  469   1.397   2.632   1.054
  611SOL     OW  470   1.728   2.797   1.854
  611SOL    HW1  471   1.682   2.790   1.765
  611SOL    HW2  472   1.666   2.841   1.920
  614SOL     OW  473   1.023   2.628   0.966
  614SOL    HW1  474   1.038   2.649   1.062
  614SOL    HW2  475   0.993   2.533   0.957
  615SOL     OW  476   0.980   3.435   1.700
  615SOL    HW1  477   0.960   3.479   1.612
  615SOL    HW2  478   1.019   3.344   1.684
  616SOL     OW  479   1.859   3.380   1.605
  616SOL    HW1  480   1.873   3.407   1.510
  616SOL    HW2  481   1.942   3.402   1.658
  623SOL     OW  482   1.138   2.242   1.678
  623SOL    HW1  483   1.093   2.305   1.742
  623SOL    HW2  484   1.231   2.273   1.661
  624SOL     OW  485   1.160   2.069   1.477
  624SOL    HW1  486   1.160   2.133   1.554
  624SOL    HW2  487   1.188   2.117   1.394
  628SOL     OW  488   1.002   2.658   1.238
  628SOL    HW1  489   1.043   2.626   1.324
  628SOL    HW2  490   0.906   2.631   1.235
  631SOL     OW  491   1.369   2.812   1.660
  631SOL    HW1  492   1.408   2.901   1.680
  631SOL    HW2  493   1.379   2.792   1.563
  633SOL     OW  494   1.657   2.466   1.206
  633SOL    HW1  495   1.619   2.397   1.268
  633SOL    HW2  496   1.739   2.430   1.162
  635SOL     OW  497   0.671   2.326   1.269
  635SOL    HW1  498   0.637   2.237   1.239
  635SOL    HW2  499   0.697   2.380   1.189
  639SOL     OW  500   1.347   2.921   1.234
  639SOL    HW1  501   1.371   2.858   1.160
  639SOL    HW2  502   1.257   2.961   1.216
  646SOL     OW  503   1.726   1.997   0.523
  646SOL    HW1  504   1.799   1.980   0.456
  646SOL    HW2  505   1.695   1.910   0.561
  650SOL     OW  506   0.830   3.135   1.422
  650SOL    HW1  507   0.825   3.168   1.517
  650SOL    HW2  508   0.744   3.154   1.376
  652SOL     OW  509   1.650   3.582   1.394
  652SOL    HW1  510   1.703   3.592   1.310
  652SOL    HW2  511   1.623   3.672   1.428
  653SOL     OW  512   1.841   2.037   0.963
  653SOL    HW1  513   1.880   1.952   0.927
  653SOL    HW2  514   1.743   2.039   0.944
  656SOL     OW  515   0.822   2.864   1.372
  656SOL    HW1  516   0.862   2.863   1.280
  656SOL    HW2  517   0.832   2.956   1.412
  660SOL     OW  518   1.614   3.154   1.289
  660SOL    HW1  519   1.674   3.157   1.369
  660SOL    HW2  520   1.539   3.218   1.302
  662SOL     OW  521   1.014   2.098   0.971
  662SOL    HW1  522   1.006   2.062   0.878
  662SOL    HW2  523   1.012   2.022   1.036
  664SOL     OW  524   1.709   2.247   1.381
  664SOL    HW1  525   1.782   2.316   1.385
  664SOL    HW2  526   1.737   2.172   1.322
  667SOL     OW  527   0.672   2.065   1.489
  667SOL    HW1  528   0.762   2.049   1.449
  667SOL    HW2  529   0.680   2.070   1.588
  669SOL     OW  530   1.440   2.718   1.398
  669SOL    HW1  531   1.383   2.770   1.335
  669SOL    HW2  532   1.536   2.730   1.374
  672SOL     OW  533   0.613   2.704   1.431
  672SOL    HW1  534   0.669   2.785   1.414
  672SOL    HW2  535   0.672   2.624   1.434
  674SOL     OW  536   0.716   2.427   1.708
  674SOL    HW1  537   0.735   2.492   1.782
  674SOL    HW2  538   0.776   2.347   1.717
  675SOL     OW  539   1.450   3.082   1.633
  675SOL    HW1  540   1.441   3.072   1.732
  675SOL    HW2  541   1.546   3.075   1.607
  677SOL     OW  542   1.674   2.745   1.254
  677SOL    HW1  543   1.647   2.656   1.217
  677SOL    HW2  544   1.675   2.813   1.181
  680SOL     OW  545   1.777   2.204   1.642
  680SOL    HW1  546   1.760   2.235   1.548
  680SOL    HW2  547   1.693   2.167   1.680
  681SOL     OW  548   1.730   2.796   1.517
  681SOL    HW1  549   1.768   2.887   1.532
  681SOL    HW2  550   1.722   2.779   1.418
  690SOL     OW  551   1.824   2.054   1.227
  690SOL    HW1  552   1.820   1.964   1.271
  690SOL    HW2  553   1.827   2.043   1.128
  692SOL     OW  554   1.705   3.349   1.104
  692SOL    HW1  555   1.612   3.324   1.077
  692SOL    HW2  556   1.731   3.299   1.186
  695SOL     OW  557   1.424   2.076   1.112
  695SOL    HW1  558   1.476   2.011   1.167
  695SOL    HW2  559   1.375   2.139   1.173
  696SOL     OW  560   1.001   1.896   1.154
  696SOL    HW1  561   0.938   1.824   1.123
  696SOL    HW2  562   1.094   1.860   1.154
  699SOL     OW  563   1.300   2.315   0.691
  699SOL    HW1  564   1.241   2.395   0.695
  699SOL    HW2  565   1.315   2.280   0.784
  700SOL     OW  566   1.593   2.083   0.882
  700SOL    HW1  567   1.509   2.082   0.936
  700SOL    HW2  568   1.595   2.166   0.826
  707SOL     OW  569   1.555   3.373   2.565
  707SOL    HW1  570   1.498   3.357   2.646
  707SOL    HW2  571   1.496   3.383   2.485
  708SOL     OW  572   1.135   2.565   2.579
  708SOL    HW1  573   1.192   2.643   2.554
  708SOL    HW2  574   1.075   2.591   2.655
  709SOL     OW  575   1.755   2.469   2.093
  709SOL    HW1  576   1.743   2.456   1.994
  709SOL    HW2  577   1.725   2.388   2.142
  710SOL     OW  578   0.768   3.006   2.885
  710SOL    HW1  579   0.690   3.023   2.945
  710SOL    HW2  580   0.802   3.093   2.849
  712SOL     OW  581   0.685   2.874   2.527
  712SOL    HW1  582   0.754   2.858   2.597
  712SOL    HW2  583   0.612   2.931   2.565
  715SOL     OW  584   1.460   3.367   3.201
  715SOL    HW1  585   1.484   3.461   3.227
  715SOL    HW2  586   1.444   3.313   3.283
  717SOL     OW  587   1.603   2.309   2.599
  717SOL    HW1  588   1.529   2.355   2.549
  717SOL    HW2  589   1.654   2.377   2.652
  723SOL     OW  590   0.606   2.826   1.985
  723SOL    HW1  591   0.613   2.910   1.931
  723SOL    HW2  592   0.652   2.839   2.073
  724SOL     OW  593   1.594   1.976   3.342
  724SOL    HW1  594   1.576   2.043   3.270
  724SOL    HW2  595   1.591   2.022   3.431
  726SOL     OW  596   1.842   3.629   2.221
  726SOL    HW1  597   1.896   3.600   2.301
  726SOL    HW2  598   1.872   3.719   2.192
  728SOL     OW  599   1.689   2.784   2.474
  728SOL    HW1  600   1.784   2.755   2.482
  728SOL    HW2  601   1.681   2.849   2.399
  729SOL     OW  602   1.641   2.970   2.294
  729SOL    HW1  603   1.727   2.972   2.242
  729SOL    HW2  604   1.655   3.017   2.382
  732SOL     OW  605   1.293   3.090   3.285
  732SOL    HW1  606   1.330   3.017   3.227
  732SOL    HW2  607   1.345   3.095   3.370
  733SOL     OW  608   0.809   1.866   2.364
  733SOL    HW1  609   0.849   1.957   2.355
  733SOL    HW2  610   0.709   1.874   2.370
  735SOL     OW  611   1.525   2.861   2.052
  735SOL    HW1  612   1.462   2.785   2.065
  735SOL    HW2  613   1.573   2.879   2.138
  738SOL     OW  614   1.466   3.279   2.815
  738SOL    HW1  615   1.407   3.285   2.895
  738SOL    HW2  616   1.451   3.191   2.769
  739SOL     OW  617   1.667   3.576   2.434
  739SOL    HW1  618   1.626   3.553   2.346
  739SOL    HW2  619   1.649   3.502   2.499
  740SOL     OW  620   0.598   2.591   2.132
  740SOL    HW1  621   0.622   2.660   2.064
  740SOL    HW2  622   0.520   2.624   2.186
  741SOL     OW  623   1.281   2.207   2.806
  741SOL    HW1  624   1.195   2.157   2.793
  741SOL    HW2  625   1.343   2.153   2.862
  742SOL     OW  626   1.576   3.524   2.169
  742SOL    HW1  627   1.665   3.570   2.172
  742SOL    HW2  628   1.555   3.500   2.074
  744SOL     OW  629   1.394   2.331   3.536
  744SOL    HW1  630   1.374   2.374   3.624
  744SOL    HW2  631   1.472   2.269   3.545
  746SOL     OW  632   0.991   2.272   3.104
  746SOL    HW1  633   0.914   2.306   3.158
  746SOL    HW2  634   0.957   2.221   3.025
  747SOL     OW  635   1.041   2.563   2.291
  747SOL    HW1  636   1.067   2.559   2.387
  747SOL    HW2  637   0.956   2.512   2.277
  750SOL     OW  638   0.865   2.210   2.057
  750SOL    HW1  639   0.924   2.273   2.008
  750SOL    HW2  640   0.884   2.116   2.028
  751SOL     OW  641   1.719   2.447   3.693
  751SOL    HW1  642   1.693   2.536   3.657
  751SOL    HW2  643   1.717   2.379   3.620
  752SOL     OW  644   1.362   3.006   2.407
  752SOL    HW1  645   1.445   2.977   2.359
  752SOL    HW2  646   1.313   3.073   2.351
  753SOL     OW  647   0.550   2.058   2.747
  753SOL    HW1  648   0.545   2.053   2.847
  753SOL    HW2  649   0.552   2.154   2.718
  754SOL     OW  650   1.008   3.318   2.339
  754SOL    HW1  651   0.962   3.390   2.287
  754SOL    HW2  652   1.004   3.338   2.437
  756SOL     OW  653   1.795   2.928   2.735
  756SOL    HW1  654   1.733   2.913   2.659
  756SOL    HW2  655   1.743   2.939   2.820
  759SOL     OW  656   1.458   2.597   2.590
  759SOL    HW1  657   1.453   2.532   2.665
  759SOL    HW2  658   1.538   2.656   2.603
  763SOL     OW  659   1.632   3.239   1.943
  763SOL    HW1  660   1.600   3.333   1.933
  763SOL    HW2  661   1.556   3.176   1.931
  765SOL     OW  662   1.400   1.969   2.288
  765SOL    HW1  663   1.376   1.932   2.198
  765SOL    HW2  664   1.499   1.985   2.292
  769SOL     OW  665   1.547   2.084   3.591
  769SOL    HW1  666   1.542   2.121   3.683
  769SOL    HW2  667   1.475   2.015   3.579
  770SOL     OW  668   0.614   1.984   1.979
  770SOL    HW1  669   0.712   1.962   1.986
  770SOL    HW2  670   0.583   1.967   1.886
  773SOL     OW  671   1.351   2.452   3.295
  773SOL    HW1  672   1.379   2.409   3.380
  773SOL    HW2  673   1.376   2.548   3.296
  775SOL     OW  674   0.922   2.365   2.761
  775SOL    HW1  675   0.897   2.356   2.665
  775SOL    HW2  676   0.970   2.283   2.792
  776SOL     OW  677   0.539   1.926   2.374
  776SOL    HW1  678   0.458   1.927   2.432
  776SOL    HW2  679   0.542   2.009   2.319
  777SOL     OW  680   1.434   3.050   1.903
  777SOL    HW1  681   1.466   2.974   1.960
  777SOL    HW2  682   1.342   3.077   1.933
  779SOL     OW  683   0.935   2.098   2.342
  779SOL    HW1  684   0.887   2.139   2.264
  779SOL    HW2  685   1.034   2.096   2.323
  780SOL     OW  686   1.076   2.545   3.326
  780SOL    HW1  687   0.996   2.484   3.329
  780SOL    HW2  688   1.157   2.492   3.302
  781SOL     OW  689   1.227   3.432   2.655
  781SOL    HW1  690   1.248   3.506   2.590
  781SOL    HW2  691   1.295   3.432   2.728
  783SOL     OW  692   1.271   3.659   2.453
  783SOL    HW1  693   1.315   3.723   2.389
  783SOL    HW2  694   1.221   3.711   2.523
  784SOL     OW  695   1.032   2.411   1.878
  784SOL    HW1  696   0.991   2.493   1.839
  784SOL    HW2  697   1.096   2.437   1.951
  787SOL     OW  698   0.866   2.316   2.504
  787SOL    HW1  699   0.834   2.388   2.442
  787SOL    HW2  700   0.890   2.235   2.451
  788SOL     OW  701   1.017   1.901   2.615
  788SOL    HW1  702   0.945   1.906   2.546
  788SOL    HW2  703   0.993   1.832   2.684
  789SOL     OW  704   1.429   3.035   2.729
  789SOL    HW1  705   1.374   2.951   2.722
  789SOL    HW2  706   1.455   3.064   2.637
  790SOL     OW  707   1.466   2.452   2.854
  790SOL    HW1  708   1.436   2.357   2.861
  790SOL    HW2  709   1.539   2.468   2.920
  791SOL     OW  710   1.857   2.695   2.239
  791SOL    HW1  711   1.899   2.631   2.303
  791SOL    HW2  712   1.819   2.644   2.161
  793SOL     OW  713   1.664   3.142   2.519
  793SOL    HW1  714   1.763   3.150   2.533
  793SOL    HW2  715   1.619   3.226   2.550
  794SOL     OW  716   1.390   2.437   1.940
  794SOL    HW1  717   1.336   2.416   2.021
  794SOL    HW2  718   1.481   2.396   1.949
  795SOL     OW  719   0.527   2.118   2.190
  795SOL    HW1  720   0.554   2.059   2.115
  795SOL    HW2  721   0.527   2.213   2.159
  796SOL     OW  722   1.754   3.085   3.450
  796SOL    HW1  723   1.845   3.046   3.437
  796SOL    HW2  724   1.762   3.181   3.474
  799SOL     OW  725   1.111   3.057   2.962
  799SOL    HW1  726   1.071   3.101   3.043
  799SOL    HW2  727   1.070   3.094   2.879
  800SOL     OW  728   1.638   2.961   2.941
  800SOL    HW1  729   1.643   3.042   3.000
  800SOL    HW2  730   1.552   2.963   2.890
  801SOL     OW  731   0.915   1.951   3.264
  801SOL    HW1  732   0.940   1.931   3.169
  801SOL    HW2  733   0.987   2.007   3.306
  803SOL     OW  734   0.705   2.912   2.230
  803SOL    HW1  735   0.691   2.919   2.329
  803SOL    HW2  736   0.789   2.861   2.212
  805SOL     OW  737   1.274   2.248   3.124
  805SOL    HW1  738   1.295   2.322   3.188
  805SOL    HW2  739   1.185   2.265   3.081
  808SOL     OW  740   0.566   2.399   2.727
  808SOL    HW1  741   0.578   2.465   2.653
  808SOL    HW2  742   0.612   2.433   2.810
  809SOL     OW  743   1.252   3.210   2.250
  809SOL    HW1  744   1.302   3.287   2.290
  809SOL    HW2  745   1.157   3.212   2.282
  810SOL     OW  746   1.272   3.307   3.004
  810SOL    HW1  747   1.319   3.320   3.091
  810SOL    HW2  748   1.206   3.233   3.013
  811SOL     OW  749   1.582   2.501   2.334
  811SOL    HW1  750   1.551   2.562   2.407
  811SOL    HW2  751   1.632   2.553   2.265
  814SOL     OW  752   1.587   2.641   3.532
  814SOL    HW1  753   1.495   2.679   3.527
  814SOL    HW2  754   1.647   2.688   3.467
  818SOL     OW  755   1.360   2.724   2.907
  818SOL    HW1  756   1.285   2.724   2.841
  818SOL    HW2  757   1.397   2.632   2.916
  819SOL     OW  758   1.209   2.387   2.137
  819SOL    HW1  759   1.222   2.303   2.191
  819SOL    HW2  760   1.180   2.461   2.197
  822SOL     OW  761   0.732   2.496   2.926
  822SOL    HW1  762   0.791   2.470   2.850
  822SOL    HW2  763   0.704   2.592   2.915
  823SOL     OW  764   1.728   2.797   3.716
  823SOL    HW1  765   1.682   2.790   3.627
  823SOL    HW2  766   1.666   2.841   3.782
  825SOL     OW  767   1.622   2.229   2.236
  825SOL    HW1  768   1.624   2.153   2.300
  825SOL    HW2  769   1.574   2.306   2.276
  826SOL     OW  770   1.023   2.628   2.828
  826SOL    HW1  771   1.038   2.649   2.924
  826SOL    HW2  772   0.993   2.533   2.819
  830SOL     OW  773   1.540   2.136   1.987
  830SOL    HW1  774   1.479   2.061   2.010
  830SOL    HW2  775   1.562   2.188   2.070
  831SOL     OW  776   1.303   2.700   1.904
  831SOL    HW1  777   1.337   2.607   1.919
  831SOL    HW2  778   1.321   2.727   1.809
  832SOL     OW  779   1.068   3.195   2.711
  832SOL    HW1  780   1.075   3.111   2.656
  832SOL    HW2  781   1.130   3.264   2.675
  835SOL     OW  782   1.138   2.242   3.540
  835SOL    HW1  783   1.093   2.305   3.604
  835SOL    HW2  784   1.231   2.273   3.523
  836SOL     OW  785   1.160   2.069   3.339
  836SOL    HW1  786   1.160   2.133   3.416
  836SOL    HW2  787   1.188   2.117   3.256
  840SOL     OW  788   1.002   2.658   3.100
  840SOL    HW1  789   1.043   2.626   3.186
  840SOL    HW2  790   0.906   2.631   3.097
  843SOL     OW  791   1.369   2.812   3.522
  843SOL    HW1  792   1.408   2.901   3.542
  843SOL    HW2  793   1.379   2.792   3.425
  844SOL     OW  794   0.815   2.434   2.187
  844SOL    HW1  795   0.822   2.345   2.141
  844SOL    HW2  796   0.721   2.468   2.179
  845SOL     OW  797   1.657   2.466   3.068
  845SOL    HW1  798   1.619   2.397   3.130
  845SOL    HW2  799   1.739   2.430   3.024
  847SOL     OW  800   0.671   2.326   3.131
  847SOL    HW1  801   0.637   2.237   3.101
  847SOL    HW2  802   0.697   2.380   3.051
  849SOL     OW  803   0.473   2.362   2.053
  849SOL    HW1  804   0.534   2.442   2.057
  849SOL    HW2  805   0.378   2.393   2.060
  851SOL     OW  806   1.347   2.921   3.096
  851SOL    HW1  807   1.371   2.858   3.022
  851SOL    HW2  808   1.257   2.961   3.078
  852SOL     OW  809   1.302   2.717   2.171
  852SOL    HW1  810   1.216   2.686   2.213
  852SOL    HW2  811   1.298   2.703   2.072
  853SOL     OW  812   1.759   3.609   3.016
  853SOL    HW1  813   1.820   3.639   2.943
  853SOL    HW2  814   1.721   3.520   2.994
  857SOL     OW  815   1.726   1.997   2.385
  857SOL    HW1  816   1.799   1.980   2.318
  857SOL    HW2  817   1.695   1.910   2.423
  858SOL     OW  818   1.388   3.435   2.339
  858SOL    HW1  819   1.455   3.447   2.265
  858SOL    HW2  820   1.348   3.524   2.362
  860SOL     OW  821   1.280   2.789   2.534
  860SOL    HW1  822   1.340   2.708   2.536
  860SOL    HW2  823   1.320   2.858   2.474
  864SOL     OW  824   1.841   2.037   2.825
  864SOL    HW1  825   1.880   1.952   2.789
  864SOL    HW2  826   1.743   2.039   2.806
  866SOL     OW  827   1.194   3.474   1.893
  866SOL    HW1  828   1.200   3.381   1.930
  866SOL    HW2  829   1.135   3.474   1.813
  868SOL     OW  830   0.916   2.772   2.153
  868SOL    HW1  831   0.979   2.810   2.085
  868SOL    HW2  832   0.956   2.689   2.192
  869SOL     OW  833   1.504   3.469   1.906
  869SOL    HW1  834   1.412   3.506   1.913
  869SOL    HW2  835   1.542   3.489   1.816
  871SOL     OW  836   1.614   3.154   3.151
  871SOL    HW1  837   1.674   3.157   3.231
  871SOL    HW2  838   1.539   3.218   3.164
  872SOL     OW  839   1.039   2.960   2.558
  872SOL    HW1  840   0.969   2.913   2.612
  872SOL    HW2  841   1.098   2.892   2.515
  873SOL     OW  842   1.014   2.098   2.833
  873SOL    HW1  843   1.006   2.062   2.740
  873SOL    HW2  844   1.012   2.022   2.898
  875SOL     OW  845   1.709   2.247   3.243
  875SOL    HW1  846   1.782   2.316   3.247
  875SOL    HW2  847   1.737   2.172   3.184
  880SOL     OW  848   1.440   2.718   3.260
  880SOL    HW1  849   1.383   2.770   3.197
  880SOL    HW2  850   1.536   2.730   3.236
  882SOL     OW  851   1.183   3.197   1.981
  882SOL    HW1  852   1.084   3.186   1.983
  882SOL    HW2  853   1.217   3.212   2.074
  884SOL     OW  854   1.493   3.629   2.821
  884SOL    HW1  855   1.526   3.693   2.752
  884SOL    HW2  856   1.559   3.623   2.896
  886SOL     OW  857   1.450   3.082   3.495
  886SOL    HW1  858   1.441   3.072   3.594
  886SOL    HW2  859   1.546   3.075   3.469
  888SOL     OW  860   1.674   2.745   3.116
  888SOL    HW1  861   1.647   2.656   3.079
  888SOL    HW2  862   1.675   2.813   3.043
  889SOL     OW  863   1.225   2.187   2.311
  889SOL    HW1  864   1.290   2.113   2.300
  889SOL    HW2  865   1.245   2.237   2.395
  890SOL     OW  866   0.594   2.607   2.514
  890SOL    HW1  867   0.644   2.692   2.495
  890SOL    HW2  868   0.506   2.609   2.466
  891SOL     OW  869   1.777   2.204   3.504
  891SOL    HW1  870   1.760   2.235   3.410
  891SOL    HW2  871   1.693   2.167   3.542
  892SOL     OW  872   1.730   2.796   3.379
  892SOL    HW1  873   1.768   2.887   3.394
  892SOL    HW2  874   1.722   2.779   3.280
  893SOL     OW  875   0.859   3.236   1.878
  893SOL    HW1  876   0.813   3.251   1.966
  893SOL    HW2  877   0.903   3.321   1.848
  895SOL     OW  878   0.859   2.818   2.723
  895SOL    HW1  879   0.913   2.749   2.771
  895SOL    HW2  880   0.827   2.887   2.789
  896SOL     OW  881   1.083   2.846   1.949
  896SOL    HW1  882   1.060   2.899   1.867
  896SOL    HW2  883   1.164   2.790   1.930
  897SOL     OW  884   1.861   3.431   2.713
  897SOL    HW1  885   1.790   3.419   2.643
  897SOL    HW2  886   1.862   3.352   2.773
  901SOL     OW  887   1.824   2.054   3.089
  901SOL    HW1  888   1.820   1.964   3.133
  901SOL    HW2  889   1.827   2.043   2.990
  902SOL     OW  890   0.428   2.286   2.382
  902SOL    HW1  891   0.458   2.214   2.320
  902SOL    HW2  892   0.389   2.246   2.465
  903SOL     OW  893   1.705   3.349   2.966
  903SOL    HW1  894   1.612   3.324   2.939
  903SOL    HW2  895   1.731   3.299   3.048
  906SOL     OW  896   1.424   2.076   2.974
  906SOL    HW1  897   1.476   2.011   3.029
  906SOL    HW2  898   1.375   2.139   3.035
  907SOL     OW  899   1.001   1.896   3.016
  907SOL    HW1  900   0.938   1.824   2.985
  907SOL    HW2  901   1.094   1.860   3.016
  908SOL     OW  902   0.770   3.192   2.163
  908SOL    HW1  903   0.724   3.105   2.180
  908SOL    HW2  904   0.861   3.189   2.204
  910SOL     OW  905   1.352   1.914   2.030
  910SOL    HW1  906   1.387   1.873   1.946
  910SOL    HW2  907   1.262   1.876   2.050
  911SOL     OW  908   1.300   2.315   2.553
  911SOL    HW1  909   1.241   2.395   2.557
  911SOL    HW2  910   1.315   2.280   2.646
  912SOL     OW  911   1.593   2.083   2.744
  912SOL    HW1  912   1.509   2.082   2.798
  912SOL    HW2  913   1.595   2.166   2.688
 1097SOL     OW  914   1.726   3.859   2.385
 1097SOL    HW1  915   1.799   3.842   2.318
 1097SOL    HW2  916   1.695   3.772   2.423
 1140SOL     OW  917   2.431   1.275   1.165
 1140SOL    HW1  918   2.338   1.268   1.128
 1140SOL    HW2  919   2.442   1.364   1.209
 1144SOL     OW  920   2.630   1.144   1.023
 1144SOL    HW1  921   2.552   1.161   1.083
 1144SOL    HW2  922   2.664   1.231   0.987
 1145SOL     OW  923   2.712   0.798   1.823
 1145SOL    HW1  924   2.708   0.874   1.888
 1145SOL    HW2  925   2.734   0.834   1.732
 1147SOL     OW  926   2.548   1.161   1.803
 1147SOL    HW1  927   2.608   1.240   1.817
 1147SOL    HW2  928   2.462   1.192   1.762
 1148SOL     OW  929   2.197   1.435   1.061
 1148SOL    HW1  930   2.119   1.404   1.008
 1148SOL    HW2  931   2.255   1.493   1.004
 1149SOL     OW  932   3.322   1.505   1.339
 1149SOL    HW1  933   3.346   1.599   1.365
 1149SOL    HW2  934   3.306   1.451   1.421
 1152SOL     OW  935   2.093   1.713   0.483
 1152SOL    HW1  936   2.127   1.790   0.537
 1152SOL    HW2  937   2.137   1.713   0.393
 1153SOL     OW  938   2.989   1.341   1.690
 1153SOL    HW1  939   3.036   1.341   1.778
 1153SOL    HW2  940   2.941   1.254   1.679
 1154SOL     OW  941   2.092   1.434   0.538
 1154SOL    HW1  942   2.066   1.530   0.538
 1154SOL    HW2  943   2.021   1.380   0.583
 1155SOL     OW  944   2.102   1.091   0.886
 1155SOL    HW1  945   2.116   1.007   0.938
 1155SOL    HW2  946   2.047   1.155   0.941
 1156SOL     OW  947   2.482   1.786   1.439
 1156SOL    HW1  948   2.390   1.769   1.474
 1156SOL    HW2  949   2.510   1.878   1.465
 1164SOL     OW  950   1.975   0.737   1.597
 1164SOL    HW1  951   2.063   0.724   1.642
 1164SOL    HW2  952   1.962   0.834   1.575
 1165SOL     OW  953   2.475   1.365   0.726
 1165SOL    HW1  954   2.426   1.278   0.735
 1165SOL    HW2  955   2.452   1.408   0.639
 1166SOL     OW  956   3.155   1.228   1.423
 1166SOL    HW1  957   3.192   1.155   1.365
 1166SOL    HW2  958   3.207   1.233   1.508
 1168SOL     OW  959   2.059   0.976   1.264
 1168SOL    HW1  960   2.148   0.931   1.250
 1168SOL    HW2  961   1.986   0.911   1.245
 1170SOL     OW  962   3.049   1.792   1.616
 1170SOL    HW1  963   3.073   1.852   1.540
 1170SOL    HW2  964   3.056   1.697   1.586
 1177SOL     OW  965   2.669   0.605   1.465
 1177SOL    HW1  966   2.622   0.602   1.554
 1177SOL    HW2  967   2.618   0.550   1.399
 1179SOL     OW  968   2.835   0.890   1.572
 1179SOL    HW1  969   2.881   0.806   1.543
 1179SOL    HW2  970   2.779   0.924   1.497
 1183SOL     OW  971   1.992   1.821   1.571
 1183SOL    HW1  972   1.982   1.806   1.670
 1183SOL    HW2  973   1.906   1.857   1.535
 1189SOL     OW  974   2.213   1.801   0.853
 1189SOL    HW1  975   2.263   1.715   0.859
 1189SOL    HW2  976   2.278   1.878   0.850
 1191SOL     OW  977   3.089   1.550   1.506
 1191SOL    HW1  978   3.095   1.473   1.570
 1191SOL    HW2  979   3.037   1.524   1.426
 1194SOL     OW  980   2.323   1.266   1.727
 1194SOL    HW1  981   2.273   1.267   1.641
 1194SOL    HW2  982   2.260   1.248   1.803
 1200SOL     OW  983   2.111   1.785   1.241
 1200SOL    HW1  984   2.168   1.720   1.291
 1200SOL    HW2  985   2.095   1.752   1.148
 1201SOL     OW  986   2.802   1.698   0.904
 1201SOL    HW1  987   2.882   1.641   0.925
 1201SOL    HW2  988   2.753   1.658   0.827
 1206SOL     OW  989   2.750   1.514   1.195
 1206SOL    HW1  990   2.727   1.489   1.101
 1206SOL    HW2  991   2.811   1.445   1.234
 1208SOL     OW  992   2.665   1.402   0.924
 1208SOL    HW1  993   2.755   1.416   0.882
 1208SOL    HW2  994   2.594   1.404   0.853
 1214SOL     OW  995   2.938   0.683   1.464
 1214SOL    HW1  996   2.858   0.622   1.467
 1214SOL    HW2  997   3.019   0.630   1.440
 1215SOL     OW  998   3.089   1.570   0.793
 1215SOL    HW1  999   3.110   1.644   0.728
 1215SOL    HW2 1000   3.157   1.570   0.866
 1216SOL     OW 1001   2.321   1.152   0.741
 1216SOL    HW1 1002   2.250   1.125   0.806
 1216SOL    HW2 1003   2.295   1.124   0.648
 1219SOL     OW 1004   1.940   0.556   1.386
 1219SOL    HW1 1005   2.032   0.555   1.345
 1219SOL    HW2 1006   1.934   0.630   1.453
 1231SOL     OW 1007   2.926   1.347   1.340
 1231SOL    HW1 1008   2.846   1.324   1.395
 1231SOL    HW2 1009   3.009   1.321   1.389
 1232SOL     OW 1010   3.454   1.629   1.625
 1232SOL    HW1 1011   3.481   1.663   1.535
 1232SOL    HW2 1012   3.533   1.591   1.671
 1233SOL     OW 1013   2.973   1.195   1.100
 1233SOL    HW1 1014   2.933   1.239   1.181
 1233SOL    HW2 1015   2.932   1.232   1.017
 1236SOL     OW 1016   2.842   1.116   1.719
 1236SOL    HW1 1017   2.743   1.122   1.729
 1236SOL    HW2 1018   2.865   1.036   1.663
 1238SOL     OW 1019   2.272   0.813   1.251
 1238SOL    HW1 1020   2.358   0.825   1.301
 1238SOL    HW2 1021   2.230   0.726   1.278
 1240SOL     OW 1022   1.926   1.564   1.331
 1240SOL    HW1 1023   1.880   1.646   1.297
 1240SOL    HW2 1024   2.024   1.583   1.340
 1244SOL     OW 1025   3.134   1.445   1.142
 1244SOL    HW1 1026   3.181   1.458   1.229
 1244SOL    HW2 1027   3.068   1.371   1.151
 1246SOL     OW 1028   2.216   1.510   1.329
 1246SOL    HW1 1029   2.195   1.466   1.242
 1246SOL    HW2 1030   2.313   1.536   1.332
 1247SOL     OW 1031   2.264   0.751   1.598
 1247SOL    HW1 1032   2.332   0.806   1.551
 1247SOL    HW2 1033   2.304   0.663   1.625
 1251SOL     OW 1034   2.435   0.870   1.029
 1251SOL    HW1 1035   2.479   0.959   1.020
 1251SOL    HW2 1036   2.372   0.870   1.106
 1255SOL     OW 1037   1.899   1.310   1.282
 1255SOL    HW1 1038   1.952   1.261   1.350
 1255SOL    HW2 1039   1.921   1.408   1.287
 1261SOL     OW 1040   2.842   1.573   1.700
 1261SOL    HW1 1041   2.822   1.617   1.612
 1261SOL    HW2 1042   2.881   1.482   1.684
 1262SOL     OW 1043   3.721   1.518   1.605
 1262SOL    HW1 1044   3.735   1.545   1.510
 1262SOL    HW2 1045   3.804   1.540   1.658
 1263SOL     OW 1046   2.212   0.898   1.804
 1263SOL    HW1 1047   2.288   0.942   1.852
 1263SOL    HW2 1048   2.247   0.851   1.722
 1266SOL     OW 1049   2.930   1.333   0.849
 1266SOL    HW1 1050   2.937   1.249   0.794
 1266SOL    HW2 1051   2.992   1.402   0.813
 1267SOL     OW 1052   2.181   0.810   0.949
 1267SOL    HW1 1053   2.274   0.846   0.954
 1267SOL    HW2 1054   2.175   0.725   1.001
 1272SOL     OW 1055   1.950   1.801   0.927
 1272SOL    HW1 1056   1.908   1.715   0.900
 1272SOL    HW2 1057   2.044   1.804   0.893
 1273SOL     OW 1058   2.366   1.568   0.910
 1273SOL    HW1 1059   2.432   1.642   0.919
 1273SOL    HW2 1060   2.410   1.489   0.868
 1274SOL     OW 1061   2.864   0.796   1.238
 1274SOL    HW1 1062   2.905   0.764   1.324
 1274SOL    HW2 1063   2.768   0.769   1.235
 1276SOL     OW 1064   2.051   0.520   1.722
 1276SOL    HW1 1065   2.110   0.480   1.652
 1276SOL    HW2 1066   1.993   0.591   1.681
 1277SOL     OW 1067   3.231   0.950   1.660
 1277SOL    HW1 1068   3.270   1.039   1.680
 1277SOL    HW2 1069   3.241   0.930   1.563
 1280SOL     OW 1070   2.114   1.564   1.744
 1280SOL    HW1 1071   2.084   1.621   1.820
 1280SOL    HW2 1072   2.107   1.467   1.770
 1282SOL     OW 1073   2.792   1.678   1.465
 1282SOL    HW1 1074   2.768   1.660   1.370
 1282SOL    HW2 1075   2.822   1.772   1.475
 1284SOL     OW 1076   2.021   1.137   1.466
 1284SOL    HW1 1077   2.043   1.076   1.542
 1284SOL    HW2 1078   2.031   1.088   1.380
 1285SOL     OW 1079   3.209   1.059   1.234
 1285SOL    HW1 1080   3.233   0.996   1.160
 1285SOL    HW2 1081   3.119   1.099   1.216
 1288SOL     OW 1082   3.114   1.731   1.128
 1288SOL    HW1 1083   3.198   1.736   1.074
 1288SOL    HW2 1084   3.091   1.635   1.146
 1289SOL     OW 1085   1.945   1.258   1.022
 1289SOL    HW1 1086   1.940   1.257   1.122
 1289SOL    HW2 1087   1.862   1.217   0.984
 1290SOL     OW 1088   2.550   1.662   1.716
 1290SOL    HW1 1089   2.494   1.743   1.725
 1290SOL    HW2 1090   2.602   1.666   1.630
 1294SOL     OW 1091   1.992   1.794   1.851
 1294SOL    HW1 1092   1.951   1.720   1.904
 1294SOL    HW2 1093   2.056   1.845   1.909
 1296SOL     OW 1094   2.692   1.273   1.422
 1296SOL    HW1 1095   2.687   1.306   1.517
 1296SOL    HW2 1096   2.606   1.292   1.376
 1298SOL     OW 1097   3.512   1.720   1.394
 1298SOL    HW1 1098   3.565   1.730   1.310
 1298SOL    HW2 1099   3.485   1.810   1.428
 1302SOL     OW 1100   2.684   1.002   1.372
 1302SOL    HW1 1101   2.724   1.001   1.280
 1302SOL    HW2 1102   2.694   1.094   1.412
 1305SOL     OW 1103   2.234   1.288   1.490
 1305SOL    HW1 1104   2.221   1.381   1.456
 1305SOL    HW2 1105   2.150   1.236   1.477
 1306SOL     OW 1106   3.476   1.292   1.289
 1306SOL    HW1 1107   3.536   1.295   1.369
 1306SOL    HW2 1108   3.401   1.356   1.302
 1312SOL     OW 1109   1.967   1.013   1.726
 1312SOL    HW1 1110   1.890   0.980   1.780
 1312SOL    HW2 1111   2.052   0.983   1.768
 1318SOL     OW 1112   2.475   0.842   1.431
 1318SOL    HW1 1113   2.531   0.923   1.414
 1318SOL    HW2 1114   2.534   0.762   1.434
 1319SOL     OW 1115   3.355   1.767   0.959
 1319SOL    HW1 1116   3.388   1.831   0.890
 1319SOL    HW2 1117   3.421   1.761   1.034
 1320SOL     OW 1118   2.578   0.565   1.708
 1320SOL    HW1 1119   2.597   0.630   1.782
 1320SOL    HW2 1120   2.638   0.485   1.717
 1321SOL     OW 1121   3.312   1.220   1.633
 1321SOL    HW1 1122   3.303   1.210   1.732
 1321SOL    HW2 1123   3.408   1.213   1.607
 1322SOL     OW 1124   2.252   1.741   1.560
 1322SOL    HW1 1125   2.161   1.782   1.558
 1322SOL    HW2 1126   2.245   1.647   1.592
 1329SOL     OW 1127   2.523   1.790   0.953
 1329SOL    HW1 1128   2.477   1.878   0.940
 1329SOL    HW2 1129   2.622   1.802   0.946
 1333SOL     OW 1130   2.083   1.314   1.844
 1333SOL    HW1 1131   2.018   1.241   1.823
 1333SOL    HW2 1132   2.087   1.328   1.942
 1334SOL     OW 1133   1.941   1.240   0.653
 1334SOL    HW1 1134   1.940   1.193   0.741
 1334SOL    HW2 1135   2.023   1.212   0.602
 1335SOL     OW 1136   2.534   1.391   1.624
 1335SOL    HW1 1137   2.456   1.341   1.662
 1335SOL    HW2 1138   2.531   1.486   1.655
 1340SOL     OW 1139   2.674   1.586   0.687
 1340SOL    HW1 1140   2.706   1.596   0.593
 1340SOL    HW2 1141   2.595   1.524   0.689
 1344SOL     OW 1142   2.480   1.567   1.284
 1344SOL    HW1 1143   2.475   1.649   1.341
 1344SOL    HW2 1144   2.569   1.564   1.239
 1350SOL     OW 1145   2.092   0.628   1.975
 1350SOL    HW1 1146   1.999   0.626   2.012
 1350SOL    HW2 1147   2.093   0.589   1.883
 1353SOL     OW 1148   2.431   1.275   3.027
 1353SOL    HW1 1149   2.338   1.268   2.990
 1353SOL    HW2 1150   2.442   1.364   3.071
 1354SOL     OW 1151   3.417   1.511   2.565
 1354SOL    HW1 1152   3.360   1.495   2.646
 1354SOL    HW2 1153   3.358   1.521   2.485
 1355SOL     OW 1154   2.997   0.703   2.579
 1355SOL    HW1 1155   3.054   0.781   2.554
 1355SOL    HW2 1156   2.937   0.729   2.655
 1357SOL     OW 1157   2.630   1.144   2.885
 1357SOL    HW1 1158   2.552   1.161   2.945
 1357SOL    HW2 1159   2.664   1.231   2.849
 1359SOL     OW 1160   2.547   1.012   2.527
 1359SOL    HW1 1161   2.616   0.996   2.597
 1359SOL    HW2 1162   2.474   1.069   2.565
 1361SOL     OW 1163   2.197   1.435   2.923
 1361SOL    HW1 1164   2.119   1.404   2.870
 1361SOL    HW2 1165   2.255   1.493   2.866
 1362SOL     OW 1166   3.322   1.505   3.201
 1362SOL    HW1 1167   3.346   1.599   3.227
 1362SOL    HW2 1168   3.306   1.451   3.283
 1365SOL     OW 1169   2.093   1.713   2.345
 1365SOL    HW1 1170   2.127   1.790   2.399
 1365SOL    HW2 1171   2.137   1.713   2.255
 1367SOL     OW 1172   2.092   1.434   2.400
 1367SOL    HW1 1173   2.066   1.530   2.400
 1367SOL    HW2 1174   2.021   1.380   2.445
 1368SOL     OW 1175   2.102   1.091   2.748
 1368SOL    HW1 1176   2.116   1.007   2.800
 1368SOL    HW2 1177   2.047   1.155   2.803
 1369SOL     OW 1178   2.482   1.786   3.301
 1369SOL    HW1 1179   2.390   1.769   3.336
 1369SOL    HW2 1180   2.510   1.878   3.327
 1370SOL     OW 1181   2.468   0.964   1.985
 1370SOL    HW1 1182   2.475   1.048   1.931
 1370SOL    HW2 1183   2.514   0.977   2.073
 1372SOL     OW 1184   1.984   0.643   2.425
 1372SOL    HW1 1185   1.939   0.555   2.442
 1372SOL    HW2 1186   1.983   0.697   2.509
 1373SOL     OW 1187   3.704   1.767   2.221
 1373SOL    HW1 1188   3.758   1.738   2.301
 1373SOL    HW2 1189   3.734   1.857   2.192
 1374SOL     OW 1190   1.889   1.596   1.979
 1374SOL    HW1 1191   1.870   1.500   2.000
 1374SOL    HW2 1192   1.856   1.654   2.054
 1376SOL     OW 1193   3.503   1.108   2.294
 1376SOL    HW1 1194   3.589   1.110   2.242
 1376SOL    HW2 1195   3.517   1.155   2.382
 1378SOL     OW 1196   2.475   1.365   2.588
 1378SOL    HW1 1197   2.426   1.278   2.597
 1378SOL    HW2 1198   2.452   1.408   2.501
 1379SOL     OW 1199   3.155   1.228   3.285
 1379SOL    HW1 1200   3.192   1.155   3.227
 1379SOL    HW2 1201   3.207   1.233   3.370
 1381SOL     OW 1202   2.059   0.976   3.126
 1381SOL    HW1 1203   2.148   0.931   3.112
 1381SOL    HW2 1204   1.986   0.911   3.107
 1382SOL     OW 1205   3.387   0.999   2.052
 1382SOL    HW1 1206   3.324   0.923   2.065
 1382SOL    HW2 1207   3.435   1.017   2.138
 1383SOL     OW 1208   3.049   1.792   3.478
 1383SOL    HW1 1209   3.073   1.852   3.402
 1383SOL    HW2 1210   3.056   1.697   3.448
 1385SOL     OW 1211   3.328   1.417   2.815
 1385SOL    HW1 1212   3.269   1.423   2.895
 1385SOL    HW2 1213   3.313   1.329   2.769
 1386SOL     OW 1214   3.529   1.714   2.434
 1386SOL    HW1 1215   3.488   1.691   2.346
 1386SOL    HW2 1216   3.511   1.640   2.499
 1387SOL     OW 1217   2.460   0.729   2.132
 1387SOL    HW1 1218   2.484   0.798   2.064
 1387SOL    HW2 1219   2.382   0.762   2.186
 1389SOL     OW 1220   3.438   1.662   2.169
 1389SOL    HW1 1221   3.527   1.708   2.172
 1389SOL    HW2 1222   3.417   1.638   2.074
 1394SOL     OW 1223   2.903   0.701   2.291
 1394SOL    HW1 1224   2.929   0.697   2.387
 1394SOL    HW2 1225   2.818   0.650   2.277
 1395SOL     OW 1226   1.938   0.811   2.651
 1395SOL    HW1 1227   2.037   0.799   2.660
 1395SOL    HW2 1228   1.914   0.906   2.672
 1396SOL     OW 1229   1.992   1.821   3.433
 1396SOL    HW1 1230   1.982   1.806   3.532
 1396SOL    HW2 1231   1.906   1.857   3.397
 1399SOL     OW 1232   3.224   1.144   2.407
 1399SOL    HW1 1233   3.307   1.115   2.359
 1399SOL    HW2 1234   3.175   1.211   2.351
 1401SOL     OW 1235   2.870   1.456   2.339
 1401SOL    HW1 1236   2.824   1.528   2.287
 1401SOL    HW2 1237   2.866   1.476   2.437
 1402SOL     OW 1238   2.213   1.801   2.715
 1402SOL    HW1 1239   2.263   1.715   2.721
 1402SOL    HW2 1240   2.278   1.878   2.712
 1404SOL     OW 1241   3.089   1.550   3.368
 1404SOL    HW1 1242   3.095   1.473   3.432
 1404SOL    HW2 1243   3.037   1.524   3.288
 1405SOL     OW 1244   2.183   0.943   2.104
 1405SOL    HW1 1245   2.265   0.982   2.062
 1405SOL    HW2 1246   2.156   0.861   2.055
 1407SOL     OW 1247   2.323   1.266   3.589
 1407SOL    HW1 1248   2.273   1.267   3.503
 1407SOL    HW2 1249   2.260   1.248   3.665
 1408SOL     OW 1250   2.973   1.776   2.099
 1408SOL    HW1 1251   2.913   1.714   2.149
 1408SOL    HW2 1252   3.004   1.732   2.014
 1410SOL     OW 1253   3.494   1.377   1.943
 1410SOL    HW1 1254   3.462   1.471   1.933
 1410SOL    HW2 1255   3.418   1.314   1.931
 1411SOL     OW 1256   2.326   1.743   2.185
 1411SOL    HW1 1257   2.359   1.782   2.271
 1411SOL    HW2 1258   2.402   1.736   2.120
 1413SOL     OW 1259   2.111   1.785   3.103
 1413SOL    HW1 1260   2.168   1.720   3.153
 1413SOL    HW2 1261   2.095   1.752   3.010
 1414SOL     OW 1262   2.802   1.698   2.766
 1414SOL    HW1 1263   2.882   1.641   2.787
 1414SOL    HW2 1264   2.753   1.658   2.689
 1415SOL     OW 1265   2.244   0.700   2.342
 1415SOL    HW1 1266   2.289   0.610   2.339
 1415SOL    HW2 1267   2.150   0.689   2.375
 1419SOL     OW 1268   2.750   1.514   3.057
 1419SOL    HW1 1269   2.727   1.489   2.963
 1419SOL    HW2 1270   2.811   1.445   3.096
 1421SOL     OW 1271   2.665   1.402   2.786
 1421SOL    HW1 1272   2.755   1.416   2.744
 1421SOL    HW2 1273   2.594   1.404   2.715
 1424SOL     OW 1274   3.296   1.188   1.903
 1424SOL    HW1 1275   3.328   1.112   1.960
 1424SOL    HW2 1276   3.204   1.215   1.933
 1428SOL     OW 1277   3.089   1.570   2.655
 1428SOL    HW1 1278   3.110   1.644   2.590
 1428SOL    HW2 1279   3.157   1.570   2.728
 1429SOL     OW 1280   2.321   1.152   2.603
 1429SOL    HW1 1281   2.250   1.125   2.668
 1429SOL    HW2 1282   2.295   1.124   2.510
 1430SOL     OW 1283   3.133   1.797   2.453
 1430SOL    HW1 1284   3.177   1.861   2.389
 1430SOL    HW2 1285   3.083   1.849   2.523
 1431SOL     OW 1286   2.894   0.549   1.878
 1431SOL    HW1 1287   2.853   0.631   1.839
 1431SOL    HW2 1288   2.958   0.575   1.951
 1436SOL     OW 1289   3.291   1.173   2.729
 1436SOL    HW1 1290   3.236   1.089   2.722
 1436SOL    HW2 1291   3.317   1.202   2.637
 1439SOL     OW 1292   2.350   1.385   2.036
 1439SOL    HW1 1293   2.263   1.370   2.083
 1439SOL    HW2 1294   2.333   1.411   1.941
 1440SOL     OW 1295   3.526   1.280   2.519
 1440SOL    HW1 1296   3.625   1.288   2.533
 1440SOL    HW2 1297   3.481   1.364   2.550
 1444SOL     OW 1298   2.926   1.347   3.202
 1444SOL    HW1 1299   2.846   1.324   3.257
 1444SOL    HW2 1300   3.009   1.321   3.251
 1446SOL     OW 1301   2.973   1.195   2.962
 1446SOL    HW1 1302   2.933   1.239   3.043
 1446SOL    HW2 1303   2.932   1.232   2.879
 1450SOL     OW 1304   2.567   1.050   2.230
 1450SOL    HW1 1305   2.553   1.057   2.329
 1450SOL    HW2 1306   2.651   0.999   2.212
 1451SOL     OW 1307   2.272   0.813   3.113
 1451SOL    HW1 1308   2.358   0.825   3.163
 1451SOL    HW2 1309   2.230   0.726   3.140
 1453SOL     OW 1310   1.926   1.564   3.193
 1453SOL    HW1 1311   1.880   1.646   3.159
 1453SOL    HW2 1312   2.024   1.583   3.202
 1454SOL     OW 1313   2.229   1.100   2.363
 1454SOL    HW1 1314   2.222   1.183   2.307
 1454SOL    HW2 1315   2.233   1.020   2.303
 1455SOL     OW 1316   2.428   0.537   2.727
 1455SOL    HW1 1317   2.440   0.603   2.653
 1455SOL    HW2 1318   2.474   0.571   2.810
 1456SOL     OW 1319   3.114   1.348   2.250
 1456SOL    HW1 1320   3.164   1.425   2.290
 1456SOL    HW2 1321   3.019   1.350   2.282
 1457SOL     OW 1322   3.134   1.445   3.004
 1457SOL    HW1 1323   3.181   1.458   3.091
 1457SOL    HW2 1324   3.068   1.371   3.013
 1459SOL     OW 1325   2.216   1.510   3.191
 1459SOL    HW1 1326   2.195   1.466   3.104
 1459SOL    HW2 1327   2.313   1.536   3.194
 1464SOL     OW 1328   2.435   0.870   2.891
 1464SOL    HW1 1329   2.479   0.959   2.882
 1464SOL    HW2 1330   2.372   0.870   2.968
 1468SOL     OW 1331   1.899   1.310   3.144
 1468SOL    HW1 1332   1.952   1.261   3.212
 1468SOL    HW2 1333   1.921   1.408   3.149
 1469SOL     OW 1334   2.594   0.634   2.926
 1469SOL    HW1 1335   2.653   0.608   2.850
 1469SOL    HW2 1336   2.566   0.730   2.915
 1473SOL     OW 1337   2.885   0.766   2.828
 1473SOL    HW1 1338   2.900   0.787   2.924
 1473SOL    HW2 1339   2.855   0.671   2.819
 1474SOL     OW 1340   2.842   1.573   3.562
 1474SOL    HW1 1341   2.822   1.617   3.474
 1474SOL    HW2 1342   2.881   1.482   3.546
 1478SOL     OW 1343   3.165   0.838   1.904
 1478SOL    HW1 1344   3.199   0.745   1.919
 1478SOL    HW2 1345   3.183   0.865   1.809
 1479SOL     OW 1346   2.930   1.333   2.711
 1479SOL    HW1 1347   2.937   1.249   2.656
 1479SOL    HW2 1348   2.992   1.402   2.675
 1480SOL     OW 1349   2.181   0.810   2.811
 1480SOL    HW1 1350   2.274   0.846   2.816
 1480SOL    HW2 1351   2.175   0.725   2.863
 1481SOL     OW 1352   2.201   0.509   2.868
 1481SOL    HW1 1353   2.149   0.426   2.851
 1481SOL    HW2 1354   2.278   0.514   2.804
 1484SOL     OW 1355   1.870   1.326   2.062
 1484SOL    HW1 1356   1.777   1.347   2.031
 1484SOL    HW2 1357   1.880   1.227   2.075
 1485SOL     OW 1358   1.950   1.801   2.789
 1485SOL    HW1 1359   1.908   1.715   2.762
 1485SOL    HW2 1360   2.044   1.804   2.755
 1486SOL     OW 1361   2.366   1.568   2.772
 1486SOL    HW1 1362   2.432   1.642   2.781
 1486SOL    HW2 1363   2.410   1.489   2.730
 1491SOL     OW 1364   2.677   0.572   2.187
 1491SOL    HW1 1365   2.684   0.483   2.141
 1491SOL    HW2 1366   2.583   0.606   2.179
 1493SOL     OW 1367   2.114   1.564   3.606
 1493SOL    HW1 1368   2.084   1.621   3.682
 1493SOL    HW2 1369   2.107   1.467   3.632
 1495SOL     OW 1370   2.792   1.678   3.327
 1495SOL    HW1 1371   2.768   1.660   3.232
 1495SOL    HW2 1372   2.822   1.772   3.337
 1496SOL     OW 1373   2.335   0.500   2.053
 1496SOL    HW1 1374   2.396   0.580   2.057
 1496SOL    HW2 1375   2.240   0.531   2.060
 1497SOL     OW 1376   2.021   1.137   3.328
 1497SOL    HW1 1377   2.043   1.076   3.404
 1497SOL    HW2 1378   2.031   1.088   3.242
 1498SOL     OW 1379   3.209   1.059   3.096
 1498SOL    HW1 1380   3.233   0.996   3.022
 1498SOL    HW2 1381   3.119   1.099   3.078
 1499SOL     OW 1382   3.164   0.855   2.171
 1499SOL    HW1 1383   3.078   0.824   2.213
 1499SOL    HW2 1384   3.160   0.841   2.072
 1500SOL     OW 1385   3.621   1.747   3.016
 1500SOL    HW1 1386   3.682   1.777   2.943
 1500SOL    HW2 1387   3.583   1.658   2.994
 1501SOL     OW 1388   3.114   1.731   2.990
 1501SOL    HW1 1389   3.198   1.736   2.936
 1501SOL    HW2 1390   3.091   1.635   3.008
 1502SOL     OW 1391   1.945   1.258   2.884
 1502SOL    HW1 1392   1.940   1.257   2.984
 1502SOL    HW2 1393   1.862   1.217   2.846
 1503SOL     OW 1394   2.550   1.662   3.578
 1503SOL    HW1 1395   2.494   1.743   3.587
 1503SOL    HW2 1396   2.602   1.666   3.492
 1505SOL     OW 1397   3.250   1.573   2.339
 1505SOL    HW1 1398   3.317   1.585   2.265
 1505SOL    HW2 1399   3.210   1.662   2.362
 1506SOL     OW 1400   1.992   1.794   3.713
 1506SOL    HW1 1401   1.951   1.720   3.766
 1506SOL    HW2 1402   2.056   1.845   3.771
 1507SOL     OW 1403   3.142   0.927   2.534
 1507SOL    HW1 1404   3.202   0.846   2.536
 1507SOL    HW2 1405   3.182   0.996   2.474
 1508SOL     OW 1406   2.692   1.273   3.284
 1508SOL    HW1 1407   2.687   1.306   3.379
 1508SOL    HW2 1408   2.606   1.292   3.238
 1509SOL     OW 1409   2.534   1.616   2.016
 1509SOL    HW1 1410   2.543   1.626   1.917
 1509SOL    HW2 1411   2.494   1.527   2.037
 1513SOL     OW 1412   3.056   1.612   1.893
 1513SOL    HW1 1413   3.062   1.519   1.930
 1513SOL    HW2 1414   2.997   1.612   1.813
 1514SOL     OW 1415   2.684   1.002   3.234
 1514SOL    HW1 1416   2.724   1.001   3.142
 1514SOL    HW2 1417   2.694   1.094   3.274
 1515SOL     OW 1418   2.778   0.910   2.153
 1515SOL    HW1 1419   2.841   0.948   2.085
 1515SOL    HW2 1420   2.818   0.827   2.192
 1516SOL     OW 1421   3.366   1.607   1.906
 1516SOL    HW1 1422   3.274   1.644   1.913
 1516SOL    HW2 1423   3.404   1.627   1.816
 1517SOL     OW 1424   2.234   1.288   3.352
 1517SOL    HW1 1425   2.221   1.381   3.318
 1517SOL    HW2 1426   2.150   1.236   3.339
 1519SOL     OW 1427   2.901   1.098   2.558
 1519SOL    HW1 1428   2.831   1.051   2.612
 1519SOL    HW2 1429   2.960   1.030   2.515
 1521SOL     OW 1430   2.452   1.487   2.353
 1521SOL    HW1 1431   2.494   1.429   2.283
 1521SOL    HW2 1432   2.408   1.566   2.309
 1523SOL     OW 1433   2.117   1.348   2.152
 1523SOL    HW1 1434   2.021   1.349   2.125
 1523SOL    HW2 1435   2.129   1.401   2.236
 1529SOL     OW 1436   3.045   1.335   1.981
 1529SOL    HW1 1437   2.946   1.324   1.983
 1529SOL    HW2 1438   3.079   1.350   2.074
 1530SOL     OW 1439   2.475   0.842   3.293
 1530SOL    HW1 1440   2.531   0.923   3.276
 1530SOL    HW2 1441   2.534   0.762   3.296
 1531SOL     OW 1442   3.355   1.767   2.821
 1531SOL    HW1 1443   3.388   1.831   2.752
 1531SOL    HW2 1444   3.421   1.761   2.896
 1534SOL     OW 1445   2.252   1.741   3.422
 1534SOL    HW1 1446   2.161   1.782   3.420
 1534SOL    HW2 1447   2.245   1.647   3.454
 1537SOL     OW 1448   2.456   0.745   2.514
 1537SOL    HW1 1449   2.506   0.830   2.495
 1537SOL    HW2 1450   2.368   0.747   2.466
 1540SOL     OW 1451   2.721   1.374   1.878
 1540SOL    HW1 1452   2.675   1.389   1.966
 1540SOL    HW2 1453   2.765   1.459   1.848
 1541SOL     OW 1454   2.523   1.790   2.815
 1541SOL    HW1 1455   2.477   1.878   2.802
 1541SOL    HW2 1456   2.622   1.802   2.808
 1542SOL     OW 1457   2.721   0.956   2.723
 1542SOL    HW1 1458   2.775   0.887   2.771
 1542SOL    HW2 1459   2.689   1.025   2.789
 1543SOL     OW 1460   2.945   0.984   1.949
 1543SOL    HW1 1461   2.922   1.037   1.867
 1543SOL    HW2 1462   3.026   0.928   1.930
 1544SOL     OW 1463   3.723   1.569   2.713
 1544SOL    HW1 1464   3.652   1.557   2.643
 1544SOL    HW2 1465   3.724   1.490   2.773
 1545SOL     OW 1466   2.083   1.314   3.706
 1545SOL    HW1 1467   2.018   1.241   3.685
 1545SOL    HW2 1468   2.087   1.328   3.804
 1546SOL     OW 1469   1.941   1.240   2.515
 1546SOL    HW1 1470   1.940   1.193   2.603
 1546SOL    HW2 1471   2.023   1.212   2.464
 1547SOL     OW 1472   2.534   1.391   3.486
 1547SOL    HW1 1473   2.456   1.341   3.524
 1547SOL    HW2 1474   2.531   1.486   3.517
 1549SOL     OW 1475   2.290   0.424   2.382
 1549SOL    HW1 1476   2.320   0.352   2.320
 1549SOL    HW2 1477   2.251   0.384   2.465
 1550SOL     OW 1478   3.567   1.487   2.966
 1550SOL    HW1 1479   3.474   1.462   2.939
 1550SOL    HW2 1480   3.593   1.437   3.048
 1552SOL     OW 1481   2.674   1.586   2.549
 1552SOL    HW1 1482   2.706   1.596   2.455
 1552SOL    HW2 1483   2.595   1.524   2.551
 1555SOL     OW 1484   2.632   1.330   2.163
 1555SOL    HW1 1485   2.586   1.243   2.180
 1555SOL    HW2 1486   2.723   1.327   2.204
 1556SOL     OW 1487   2.480   1.567   3.146
 1556SOL    HW1 1488   2.475   1.649   3.203
 1556SOL    HW2 1489   2.569   1.564   3.101
 1560SOL     OW 1490   1.901   1.077   2.162
 1560SOL    HW1 1491   2.000   1.066   2.153
 1560SOL    HW2 1492   1.861   0.991   2.194
 1561SOL     OW 1493   2.737   1.646   2.199
 1561SOL    HW1 1494   2.660   1.611   2.145
 1561SOL    HW2 1495   2.705   1.717   2.261
 1627SOL     OW 1496   2.087   2.137   0.996
 1627SOL    HW1 1497   2.122   2.120   1.088
 1627SOL    HW2 1498   1.999   2.092   0.984
 1628SOL     OW 1499   1.881   2.230   0.647
 1628SOL    HW1 1500   1.799   2.273   0.686
 1628SOL    HW2 1501   1.853   2.157   0.584
 1629SOL     OW 1502   2.431   3.137   1.165
 1629SOL    HW1 1503   2.338   3.130   1.128
 1629SOL    HW2 1504   2.442   3.226   1.209
 1631SOL     OW 1505   2.997   2.565   0.717
 1631SOL    HW1 1506   3.054   2.643   0.692
 1631SOL    HW2 1507   2.937   2.591   0.793
 1633SOL     OW 1508   2.630   3.006   1.023
 1633SOL    HW1 1509   2.552   3.023   1.083
 1633SOL    HW2 1510   2.664   3.093   0.987
 1634SOL     OW 1511   2.712   2.660   1.823
 1634SOL    HW1 1512   2.708   2.736   1.888
 1634SOL    HW2 1513   2.734   2.696   1.732
 1635SOL     OW 1514   2.547   2.874   0.665
 1635SOL    HW1 1515   2.616   2.858   0.735
 1635SOL    HW2 1516   2.474   2.931   0.703
 1636SOL     OW 1517   2.548   3.023   1.803
 1636SOL    HW1 1518   2.608   3.102   1.817
 1636SOL    HW2 1519   2.462   3.054   1.762
 1637SOL     OW 1520   2.197   3.297   1.061
 1637SOL    HW1 1521   2.119   3.266   1.008
 1637SOL    HW2 1522   2.255   3.355   1.004
 1639SOL     OW 1523   2.300   2.254   1.499
 1639SOL    HW1 1524   2.382   2.198   1.508
 1639SOL    HW2 1525   2.219   2.196   1.503
 1642SOL     OW 1526   2.989   3.203   1.690
 1642SOL    HW1 1527   3.036   3.203   1.778
 1642SOL    HW2 1528   2.941   3.116   1.679
 1644SOL     OW 1529   2.102   2.953   0.886
 1644SOL    HW1 1530   2.116   2.869   0.938
 1644SOL    HW2 1531   2.047   3.017   0.941
 1645SOL     OW 1532   2.482   3.648   1.439
 1645SOL    HW1 1533   2.390   3.631   1.474
 1645SOL    HW2 1534   2.510   3.740   1.465
 1647SOL     OW 1535   3.456   1.976   1.480
 1647SOL    HW1 1536   3.438   2.043   1.408
 1647SOL    HW2 1537   3.453   2.022   1.569
 1648SOL     OW 1538   1.984   2.505   0.563
 1648SOL    HW1 1539   1.939   2.417   0.580
 1648SOL    HW2 1540   1.983   2.559   0.647
 1653SOL     OW 1541   1.975   2.599   1.597
 1653SOL    HW1 1542   2.063   2.586   1.642
 1653SOL    HW2 1543   1.962   2.696   1.575
 1655SOL     OW 1544   3.155   3.090   1.423
 1655SOL    HW1 1545   3.192   3.017   1.365
 1655SOL    HW2 1546   3.207   3.095   1.508
 1656SOL     OW 1547   2.671   1.866   0.502
 1656SOL    HW1 1548   2.711   1.957   0.493
 1656SOL    HW2 1549   2.571   1.874   0.508
 1657SOL     OW 1550   2.059   2.838   1.264
 1657SOL    HW1 1551   2.148   2.793   1.250
 1657SOL    HW2 1552   1.986   2.773   1.245
 1660SOL     OW 1553   2.179   2.113   1.801
 1660SOL    HW1 1554   2.250   2.184   1.807
 1660SOL    HW2 1555   2.091   2.152   1.829
 1664SOL     OW 1556   3.143   2.207   0.944
 1664SOL    HW1 1557   3.057   2.157   0.931
 1664SOL    HW2 1558   3.205   2.153   1.000
 1666SOL     OW 1559   2.669   2.467   1.465
 1666SOL    HW1 1560   2.622   2.464   1.554
 1666SOL    HW2 1561   2.618   2.412   1.399
 1667SOL     OW 1562   3.256   2.331   1.674
 1667SOL    HW1 1563   3.236   2.374   1.762
 1667SOL    HW2 1564   3.334   2.269   1.683
 1668SOL     OW 1565   2.835   2.752   1.572
 1668SOL    HW1 1566   2.881   2.668   1.543
 1668SOL    HW2 1567   2.779   2.786   1.497
 1669SOL     OW 1568   2.853   2.272   1.242
 1669SOL    HW1 1569   2.776   2.306   1.296
 1669SOL    HW2 1570   2.819   2.221   1.163
 1671SOL     OW 1571   1.938   2.673   0.789
 1671SOL    HW1 1572   2.037   2.661   0.798
 1671SOL    HW2 1573   1.914   2.768   0.810
 1672SOL     OW 1574   1.992   3.683   1.571
 1672SOL    HW1 1575   1.982   3.668   1.670
 1672SOL    HW2 1576   1.906   3.719   1.535
 1674SOL     OW 1577   3.581   2.447   1.831
 1674SOL    HW1 1578   3.555   2.536   1.795
 1674SOL    HW2 1579   3.579   2.379   1.758
 1676SOL     OW 1580   2.412   2.058   0.885
 1676SOL    HW1 1581   2.407   2.053   0.985
 1676SOL    HW2 1582   2.414   2.154   0.856
 1680SOL     OW 1583   3.089   3.412   1.506
 1680SOL    HW1 1584   3.095   3.335   1.570
 1680SOL    HW2 1585   3.037   3.386   1.426
 1683SOL     OW 1586   2.323   3.128   1.727
 1683SOL    HW1 1587   2.273   3.129   1.641
 1683SOL    HW2 1588   2.260   3.110   1.803
 1685SOL     OW 1589   2.064   2.147   1.498
 1685SOL    HW1 1590   1.984   2.207   1.485
 1685SOL    HW2 1591   2.054   2.098   1.584
 1689SOL     OW 1592   2.111   3.647   1.241
 1689SOL    HW1 1593   2.168   3.582   1.291
 1689SOL    HW2 1594   2.095   3.614   1.148
 1691SOL     OW 1595   2.244   2.562   0.480
 1691SOL    HW1 1596   2.289   2.472   0.477
 1691SOL    HW2 1597   2.150   2.551   0.513
 1692SOL     OW 1598   3.409   2.084   1.729
 1692SOL    HW1 1599   3.404   2.121   1.821
 1692SOL    HW2 1600   3.337   2.015   1.717
 1694SOL     OW 1601   2.643   2.126   1.749
 1694SOL    HW1 1602   2.710   2.065   1.792
 1694SOL    HW2 1603   2.570   2.145   1.814
 1695SOL     OW 1604   2.750   3.376   1.195
 1695SOL    HW1 1605   2.727   3.351   1.101
 1695SOL    HW2 1606   2.811   3.307   1.234
 1696SOL     OW 1607   3.213   2.452   1.433
 1696SOL    HW1 1608   3.241   2.409   1.518
 1696SOL    HW2 1609   3.238   2.548   1.434
 1697SOL     OW 1610   2.665   3.264   0.924
 1697SOL    HW1 1611   2.755   3.278   0.882
 1697SOL    HW2 1612   2.594   3.266   0.853
 1698SOL     OW 1613   2.784   2.365   0.899
 1698SOL    HW1 1614   2.759   2.356   0.803
 1698SOL    HW2 1615   2.832   2.283   0.930
 1699SOL     OW 1616   2.401   1.926   0.512
 1699SOL    HW1 1617   2.320   1.927   0.570
 1699SOL    HW2 1618   2.404   2.009   0.457
 1702SOL     OW 1619   2.797   2.098   0.480
 1702SOL    HW1 1620   2.749   2.139   0.402
 1702SOL    HW2 1621   2.896   2.096   0.461
 1703SOL     OW 1622   2.938   2.545   1.464
 1703SOL    HW1 1623   2.858   2.484   1.467
 1703SOL    HW2 1624   3.019   2.492   1.440
 1705SOL     OW 1625   2.321   3.014   0.741
 1705SOL    HW1 1626   2.250   2.987   0.806
 1705SOL    HW2 1627   2.295   2.986   0.648
 1708SOL     OW 1628   1.940   2.418   1.386
 1708SOL    HW1 1629   2.032   2.417   1.345
 1708SOL    HW2 1630   1.934   2.492   1.453
 1709SOL     OW 1631   2.423   2.084   1.147
 1709SOL    HW1 1632   2.461   2.000   1.184
 1709SOL    HW2 1633   2.335   2.103   1.191
 1710SOL     OW 1634   2.728   2.316   0.642
 1710SOL    HW1 1635   2.696   2.388   0.580
 1710SOL    HW2 1636   2.752   2.235   0.589
 1711SOL     OW 1637   2.879   1.901   0.753
 1711SOL    HW1 1638   2.807   1.906   0.684
 1711SOL    HW2 1639   2.855   1.832   0.822
 1713SOL     OW 1640   3.328   2.452   0.992
 1713SOL    HW1 1641   3.298   2.357   0.999
 1713SOL    HW2 1642   3.401   2.468   1.058
 1720SOL     OW 1643   2.926   3.209   1.340
 1720SOL    HW1 1644   2.846   3.186   1.395
 1720SOL    HW2 1645   3.009   3.183   1.389
 1722SOL     OW 1646   2.973   3.057   1.100
 1722SOL    HW1 1647   2.933   3.101   1.181
 1722SOL    HW2 1648   2.932   3.094   1.017
 1724SOL     OW 1649   2.777   1.951   1.402
 1724SOL    HW1 1650   2.802   1.931   1.307
 1724SOL    HW2 1651   2.849   2.007   1.444
 1725SOL     OW 1652   2.842   2.978   1.719
 1725SOL    HW1 1653   2.743   2.984   1.729
 1725SOL    HW2 1654   2.865   2.898   1.663
 1727SOL     OW 1655   2.272   2.675   1.251
 1727SOL    HW1 1656   2.358   2.687   1.301
 1727SOL    HW2 1657   2.230   2.588   1.278
 1728SOL     OW 1658   3.136   2.248   1.262
 1728SOL    HW1 1659   3.157   2.322   1.326
 1728SOL    HW2 1660   3.047   2.265   1.219
 1729SOL     OW 1661   1.926   3.426   1.331
 1729SOL    HW1 1662   1.880   3.508   1.297
 1729SOL    HW2 1663   2.024   3.445   1.340
 1731SOL     OW 1664   2.428   2.399   0.865
 1731SOL    HW1 1665   2.440   2.465   0.791
 1731SOL    HW2 1666   2.474   2.433   0.948
 1735SOL     OW 1667   2.216   3.372   1.329
 1735SOL    HW1 1668   2.195   3.328   1.242
 1735SOL    HW2 1669   2.313   3.398   1.332
 1736SOL     OW 1670   2.264   2.613   1.598
 1736SOL    HW1 1671   2.332   2.668   1.551
 1736SOL    HW2 1672   2.304   2.525   1.625
 1737SOL     OW 1673   3.449   2.641   1.670
 1737SOL    HW1 1674   3.357   2.679   1.665
 1737SOL    HW2 1675   3.509   2.688   1.605
 1738SOL     OW 1676   2.875   1.967   1.770
 1738SOL    HW1 1677   2.881   2.052   1.718
 1738SOL    HW2 1678   2.907   1.891   1.713
 1739SOL     OW 1679   2.366   1.912   1.740
 1739SOL    HW1 1680   2.324   1.855   1.670
 1739SOL    HW2 1681   2.300   1.981   1.772
 1740SOL     OW 1682   2.435   2.732   1.029
 1740SOL    HW1 1683   2.479   2.821   1.020
 1740SOL    HW2 1684   2.372   2.732   1.106
 1741SOL     OW 1685   3.222   2.724   1.045
 1741SOL    HW1 1686   3.147   2.724   0.979
 1741SOL    HW2 1687   3.259   2.632   1.054
 1743SOL     OW 1688   2.169   2.075   1.231
 1743SOL    HW1 1689   2.146   2.112   1.321
 1743SOL    HW2 1690   2.139   1.980   1.225
 1744SOL     OW 1691   1.899   3.172   1.282
 1744SOL    HW1 1692   1.952   3.123   1.350
 1744SOL    HW2 1693   1.921   3.270   1.287
 1745SOL     OW 1694   2.594   2.496   1.064
 1745SOL    HW1 1695   2.653   2.470   0.988
 1745SOL    HW2 1696   2.566   2.592   1.053
 1746SOL     OW 1697   3.590   2.797   1.854
 1746SOL    HW1 1698   3.544   2.790   1.765
 1746SOL    HW2 1699   3.528   2.841   1.920
 1747SOL     OW 1700   2.169   1.925   0.618
 1747SOL    HW1 1701   2.158   2.019   0.651
 1747SOL    HW2 1702   2.164   1.862   0.695
 1749SOL     OW 1703   2.885   2.628   0.966
 1749SOL    HW1 1704   2.900   2.649   1.062
 1749SOL    HW2 1705   2.855   2.533   0.957
 1750SOL     OW 1706   2.842   3.435   1.700
 1750SOL    HW1 1707   2.822   3.479   1.612
 1750SOL    HW2 1708   2.881   3.344   1.684
 1752SOL     OW 1709   2.212   2.760   1.804
 1752SOL    HW1 1710   2.288   2.804   1.852
 1752SOL    HW2 1711   2.247   2.713   1.722
 1756SOL     OW 1712   2.181   2.672   0.949
 1756SOL    HW1 1713   2.274   2.708   0.954
 1756SOL    HW2 1714   2.175   2.587   1.001
 1757SOL     OW 1715   2.201   2.371   1.006
 1757SOL    HW1 1716   2.149   2.288   0.989
 1757SOL    HW2 1717   2.278   2.376   0.942
 1758SOL     OW 1718   3.000   2.242   1.678
 1758SOL    HW1 1719   2.955   2.305   1.742
 1758SOL    HW2 1720   3.093   2.273   1.661
 1759SOL     OW 1721   3.022   2.069   1.477
 1759SOL    HW1 1722   3.022   2.133   1.554
 1759SOL    HW2 1723   3.050   2.117   1.394
 1762SOL     OW 1724   2.366   3.430   0.910
 1762SOL    HW1 1725   2.432   3.504   0.919
 1762SOL    HW2 1726   2.410   3.351   0.868
 1763SOL     OW 1727   2.864   2.658   1.238
 1763SOL    HW1 1728   2.905   2.626   1.324
 1763SOL    HW2 1729   2.768   2.631   1.235
 1764SOL     OW 1730   1.902   2.406   1.114
 1764SOL    HW1 1731   1.987   2.373   1.073
 1764SOL    HW2 1732   1.915   2.421   1.212
 1765SOL     OW 1733   2.051   2.382   1.722
 1765SOL    HW1 1734   2.110   2.342   1.652
 1765SOL    HW2 1735   1.993   2.453   1.681
 1766SOL     OW 1736   3.231   2.812   1.660
 1766SOL    HW1 1737   3.270   2.901   1.680
 1766SOL    HW2 1738   3.241   2.792   1.563
 1768SOL     OW 1739   3.519   2.466   1.206
 1768SOL    HW1 1740   3.481   2.397   1.268
 1768SOL    HW2 1741   3.601   2.430   1.162
 1769SOL     OW 1742   2.114   3.426   1.744
 1769SOL    HW1 1743   2.084   3.483   1.820
 1769SOL    HW2 1744   2.107   3.329   1.770
 1770SOL     OW 1745   2.533   2.326   1.269
 1770SOL    HW1 1746   2.499   2.237   1.239
 1770SOL    HW2 1747   2.559   2.380   1.189
 1771SOL     OW 1748   2.792   3.540   1.465
 1771SOL    HW1 1749   2.768   3.522   1.370
 1771SOL    HW2 1750   2.822   3.634   1.475
 1773SOL     OW 1751   2.021   2.999   1.466
 1773SOL    HW1 1752   2.043   2.938   1.542
 1773SOL    HW2 1753   2.031   2.950   1.380
 1774SOL     OW 1754   3.209   2.921   1.234
 1774SOL    HW1 1755   3.233   2.858   1.160
 1774SOL    HW2 1756   3.119   2.961   1.216
 1778SOL     OW 1757   1.945   3.120   1.022
 1778SOL    HW1 1758   1.940   3.119   1.122
 1778SOL    HW2 1759   1.862   3.079   0.984
 1779SOL     OW 1760   2.550   3.524   1.716
 1779SOL    HW1 1761   2.494   3.605   1.725
 1779SOL    HW2 1762   2.602   3.528   1.630
 1783SOL     OW 1763   1.992   3.656   1.851
 1783SOL    HW1 1764   1.951   3.582   1.904
 1783SOL    HW2 1765   2.056   3.707   1.909
 1785SOL     OW 1766   2.692   3.135   1.422
 1785SOL    HW1 1767   2.687   3.168   1.517
 1785SOL    HW2 1768   2.606   3.154   1.376
 1789SOL     OW 1769   2.125   2.188   0.720
 1789SOL    HW1 1770   2.046   2.239   0.686
 1789SOL    HW2 1771   2.116   2.173   0.818
 1791SOL     OW 1772   2.684   2.864   1.372
 1791SOL    HW1 1773   2.724   2.863   1.280
 1791SOL    HW2 1774   2.694   2.956   1.412
 1794SOL     OW 1775   2.234   3.150   1.490
 1794SOL    HW1 1776   2.221   3.243   1.456
 1794SOL    HW2 1777   2.150   3.098   1.477
 1797SOL     OW 1778   2.876   2.098   0.971
 1797SOL    HW1 1779   2.868   2.062   0.878
 1797SOL    HW2 1780   2.874   2.022   1.036
 1799SOL     OW 1781   3.571   2.247   1.381
 1799SOL    HW1 1782   3.644   2.316   1.385
 1799SOL    HW2 1783   3.599   2.172   1.322
 1801SOL     OW 1784   1.967   2.875   1.726
 1801SOL    HW1 1785   1.890   2.842   1.780
 1801SOL    HW2 1786   2.052   2.845   1.768
 1802SOL     OW 1787   2.534   2.065   1.489
 1802SOL    HW1 1788   2.624   2.049   1.449
 1802SOL    HW2 1789   2.542   2.070   1.588
 1804SOL     OW 1790   3.302   2.718   1.398
 1804SOL    HW1 1791   3.245   2.770   1.335
 1804SOL    HW2 1792   3.398   2.730   1.374
 1807SOL     OW 1793   2.475   2.704   1.431
 1807SOL    HW1 1794   2.531   2.785   1.414
 1807SOL    HW2 1795   2.534   2.624   1.434
 1809SOL     OW 1796   2.578   2.427   1.708
 1809SOL    HW1 1797   2.597   2.492   1.782
 1809SOL    HW2 1798   2.638   2.347   1.717
 1810SOL     OW 1799   3.312   3.082   1.633
 1810SOL    HW1 1800   3.303   3.072   1.732
 1810SOL    HW2 1801   3.408   3.075   1.607
 1811SOL     OW 1802   2.252   3.603   1.560
 1811SOL    HW1 1803   2.161   3.644   1.558
 1811SOL    HW2 1804   2.245   3.509   1.592
 1812SOL     OW 1805   3.536   2.745   1.254
 1812SOL    HW1 1806   3.509   2.656   1.217
 1812SOL    HW2 1807   3.537   2.813   1.181
 1814SOL     OW 1808   2.456   2.607   0.652
 1814SOL    HW1 1809   2.506   2.692   0.633
 1814SOL    HW2 1810   2.368   2.609   0.604
 1815SOL     OW 1811   3.639   2.204   1.642
 1815SOL    HW1 1812   3.622   2.235   1.548
 1815SOL    HW2 1813   3.555   2.167   1.680
 1816SOL     OW 1814   3.592   2.796   1.517
 1816SOL    HW1 1815   3.630   2.887   1.532
 1816SOL    HW2 1816   3.584   2.779   1.418
 1819SOL     OW 1817   2.721   2.818   0.861
 1819SOL    HW1 1818   2.775   2.749   0.909
 1819SOL    HW2 1819   2.689   2.887   0.927
 1822SOL     OW 1820   2.083   3.176   1.844
 1822SOL    HW1 1821   2.018   3.103   1.823
 1822SOL    HW2 1822   2.087   3.190   1.942
 1823SOL     OW 1823   1.941   3.102   0.653
 1823SOL    HW1 1824   1.940   3.055   0.741
 1823SOL    HW2 1825   2.023   3.074   0.602
 1824SOL     OW 1826   2.534   3.253   1.624
 1824SOL    HW1 1827   2.456   3.203   1.662
 1824SOL    HW2 1828   2.531   3.348   1.655
 1825SOL     OW 1829   3.686   2.054   1.227
 1825SOL    HW1 1830   3.682   1.964   1.271
 1825SOL    HW2 1831   3.689   2.043   1.128
 1826SOL     OW 1832   2.290   2.286   0.520
 1826SOL    HW1 1833   2.320   2.214   0.458
 1826SOL    HW2 1834   2.251   2.246   0.603
 1828SOL     OW 1835   2.179   2.409   1.280
 1828SOL    HW1 1836   2.217   2.350   1.352
 1828SOL    HW2 1837   2.219   2.383   1.192
 1830SOL     OW 1838   3.286   2.076   1.112
 1830SOL    HW1 1839   3.338   2.011   1.167
 1830SOL    HW2 1840   3.237   2.139   1.173
 1831SOL     OW 1841   2.863   1.896   1.154
 1831SOL    HW1 1842   2.800   1.824   1.123
 1831SOL    HW2 1843   2.956   1.860   1.154
 1833SOL     OW 1844   2.480   3.429   1.284
 1833SOL    HW1 1845   2.475   3.511   1.341
 1833SOL    HW2 1846   2.569   3.426   1.239
 1834SOL     OW 1847   3.162   2.315   0.691
 1834SOL    HW1 1848   3.103   2.395   0.695
 1834SOL    HW2 1849   3.177   2.280   0.784
 1838SOL     OW 1850   2.092   2.490   1.975
 1838SOL    HW1 1851   1.999   2.488   2.012
 1838SOL    HW2 1852   2.093   2.451   1.883
 1839SOL     OW 1853   2.087   2.137   2.858
 1839SOL    HW1 1854   2.122   2.120   2.950
 1839SOL    HW2 1855   1.999   2.092   2.846
 1840SOL     OW 1856   1.881   2.230   2.509
 1840SOL    HW1 1857   1.799   2.273   2.548
 1840SOL    HW2 1858   1.853   2.157   2.446
 1841SOL     OW 1859   2.431   3.137   3.027
 1841SOL    HW1 1860   2.338   3.130   2.990
 1841SOL    HW2 1861   2.442   3.226   3.071
 1843SOL     OW 1862   2.997   2.565   2.579
 1843SOL    HW1 1863   3.054   2.643   2.554
 1843SOL    HW2 1864   2.937   2.591   2.655
 1844SOL     OW 1865   3.617   2.469   2.093
 1844SOL    HW1 1866   3.605   2.456   1.994
 1844SOL    HW2 1867   3.587   2.388   2.142
 1845SOL     OW 1868   2.630   3.006   2.885
 1845SOL    HW1 1869   2.552   3.023   2.945
 1845SOL    HW2 1870   2.664   3.093   2.849
 1846SOL     OW 1871   2.712   2.660   3.685
 1846SOL    HW1 1872   2.708   2.736   3.750
 1846SOL    HW2 1873   2.734   2.696   3.594
 1847SOL     OW 1874   2.547   2.874   2.527
 1847SOL    HW1 1875   2.616   2.858   2.597
 1847SOL    HW2 1876   2.474   2.931   2.565
 1848SOL     OW 1877   2.548   3.023   3.665
 1848SOL    HW1 1878   2.608   3.102   3.679
 1848SOL    HW2 1879   2.462   3.054   3.624
 1849SOL     OW 1880   2.197   3.297   2.923
 1849SOL    HW1 1881   2.119   3.266   2.870
 1849SOL    HW2 1882   2.255   3.355   2.866
 1851SOL     OW 1883   2.300   2.254   3.361
 1851SOL    HW1 1884   2.382   2.198   3.370
 1851SOL    HW2 1885   2.219   2.196   3.365
 1852SOL     OW 1886   3.465   2.309   2.599
 1852SOL    HW1 1887   3.391   2.355   2.549
 1852SOL    HW2 1888   3.516   2.377   2.652
 1853SOL     OW 1889   2.093   3.575   2.345
 1853SOL    HW1 1890   2.127   3.652   2.399
 1853SOL    HW2 1891   2.137   3.575   2.255
 1855SOL     OW 1892   2.092   3.296   2.400
 1855SOL    HW1 1893   2.066   3.392   2.400
 1855SOL    HW2 1894   2.021   3.242   2.445
 1856SOL     OW 1895   2.102   2.953   2.748
 1856SOL    HW1 1896   2.116   2.869   2.800
 1856SOL    HW2 1897   2.047   3.017   2.803
 1858SOL     OW 1898   2.468   2.826   1.985
 1858SOL    HW1 1899   2.475   2.910   1.931
 1858SOL    HW2 1900   2.514   2.839   2.073
 1859SOL     OW 1901   3.456   1.976   3.342
 1859SOL    HW1 1902   3.438   2.043   3.270
 1859SOL    HW2 1903   3.453   2.022   3.431
 1860SOL     OW 1904   1.984   2.505   2.425
 1860SOL    HW1 1905   1.939   2.417   2.442
 1860SOL    HW2 1906   1.983   2.559   2.509
 1862SOL     OW 1907   1.889   3.458   1.979
 1862SOL    HW1 1908   1.870   3.362   2.000
 1862SOL    HW2 1909   1.856   3.516   2.054
 1863SOL     OW 1910   3.551   2.784   2.474
 1863SOL    HW1 1911   3.646   2.755   2.482
 1863SOL    HW2 1912   3.543   2.849   2.399
 1864SOL     OW 1913   3.503   2.970   2.294
 1864SOL    HW1 1914   3.589   2.972   2.242
 1864SOL    HW2 1915   3.517   3.017   2.382
 1865SOL     OW 1916   1.975   2.599   3.459
 1865SOL    HW1 1917   2.063   2.586   3.504
 1865SOL    HW2 1918   1.962   2.696   3.437
 1866SOL     OW 1919   2.475   3.227   2.588
 1866SOL    HW1 1920   2.426   3.140   2.597
 1866SOL    HW2 1921   2.452   3.270   2.501
 1867SOL     OW 1922   3.155   3.090   3.285
 1867SOL    HW1 1923   3.192   3.017   3.227
 1867SOL    HW2 1924   3.207   3.095   3.370
 1868SOL     OW 1925   2.671   1.866   2.364
 1868SOL    HW1 1926   2.711   1.957   2.355
 1868SOL    HW2 1927   2.571   1.874   2.370
 1869SOL     OW 1928   2.059   2.838   3.126
 1869SOL    HW1 1929   2.148   2.793   3.112
 1869SOL    HW2 1930   1.986   2.773   3.107
 1870SOL     OW 1931   3.387   2.861   2.052
 1870SOL    HW1 1932   3.324   2.785   2.065
 1870SOL    HW2 1933   3.435   2.879   2.138
 1872SOL     OW 1934   2.179   2.113   3.663
 1872SOL    HW1 1935   2.250   2.184   3.669
 1872SOL    HW2 1936   2.091   2.152   3.691
 1873SOL     OW 1937   3.328   3.279   2.815
 1873SOL    HW1 1938   3.269   3.285   2.895
 1873SOL    HW2 1939   3.313   3.191   2.769
 1875SOL     OW 1940   2.460   2.591   2.132
 1875SOL    HW1 1941   2.484   2.660   2.064
 1875SOL    HW2 1942   2.382   2.624   2.186
 1876SOL     OW 1943   3.143   2.207   2.806
 1876SOL    HW1 1944   3.057   2.157   2.793
 1876SOL    HW2 1945   3.205   2.153   2.862
 1878SOL     OW 1946   2.669   2.467   3.327
 1878SOL    HW1 1947   2.622   2.464   3.416
 1878SOL    HW2 1948   2.618   2.412   3.261
 1879SOL     OW 1949   3.256   2.331   3.536
 1879SOL    HW1 1950   3.236   2.374   3.624
 1879SOL    HW2 1951   3.334   2.269   3.545
 1880SOL     OW 1952   2.835   2.752   3.434
 1880SOL    HW1 1953   2.881   2.668   3.405
 1880SOL    HW2 1954   2.779   2.786   3.359
 1881SOL     OW 1955   2.853   2.272   3.104
 1881SOL    HW1 1956   2.776   2.306   3.158
 1881SOL    HW2 1957   2.819   2.221   3.025
 1882SOL     OW 1958   2.903   2.563   2.291
 1882SOL    HW1 1959   2.929   2.559   2.387
 1882SOL    HW2 1960   2.818   2.512   2.277
 1883SOL     OW 1961   1.938   2.673   2.651
 1883SOL    HW1 1962   2.037   2.661   2.660
 1883SOL    HW2 1963   1.914   2.768   2.672
 1885SOL     OW 1964   2.727   2.210   2.057
 1885SOL    HW1 1965   2.786   2.273   2.008
 1885SOL    HW2 1966   2.746   2.116   2.028
 1887SOL     OW 1967   3.224   3.006   2.407
 1887SOL    HW1 1968   3.307   2.977   2.359
 1887SOL    HW2 1969   3.175   3.073   2.351
 1888SOL     OW 1970   2.412   2.058   2.747
 1888SOL    HW1 1971   2.407   2.053   2.847
 1888SOL    HW2 1972   2.414   2.154   2.718
 1889SOL     OW 1973   2.870   3.318   2.339
 1889SOL    HW1 1974   2.824   3.390   2.287
 1889SOL    HW2 1975   2.866   3.338   2.437
 1890SOL     OW 1976   2.213   3.663   2.715
 1890SOL    HW1 1977   2.263   3.577   2.721
 1890SOL    HW2 1978   2.278   3.740   2.712
 1891SOL     OW 1979   3.657   2.928   2.735
 1891SOL    HW1 1980   3.595   2.913   2.659
 1891SOL    HW2 1981   3.605   2.939   2.820
 1893SOL     OW 1982   2.183   2.805   2.104
 1893SOL    HW1 1983   2.265   2.844   2.062
 1893SOL    HW2 1984   2.156   2.723   2.055
 1894SOL     OW 1985   3.320   2.597   2.590
 1894SOL    HW1 1986   3.315   2.532   2.665
 1894SOL    HW2 1987   3.400   2.656   2.603
 1895SOL     OW 1988   2.323   3.128   3.589
 1895SOL    HW1 1989   2.273   3.129   3.503
 1895SOL    HW2 1990   2.260   3.110   3.665
 1896SOL     OW 1991   2.973   3.638   2.099
 1896SOL    HW1 1992   2.913   3.576   2.149
 1896SOL    HW2 1993   3.004   3.594   2.014
 1897SOL     OW 1994   2.064   2.147   3.360
 1897SOL    HW1 1995   1.984   2.207   3.347
 1897SOL    HW2 1996   2.054   2.098   3.446
 1898SOL     OW 1997   3.494   3.239   1.943
 1898SOL    HW1 1998   3.462   3.333   1.933
 1898SOL    HW2 1999   3.418   3.176   1.931
 1899SOL     OW 2000   2.326   3.605   2.185
 1899SOL    HW1 2001   2.359   3.644   2.271
 1899SOL    HW2 2002   2.402   3.598   2.120
 1900SOL     OW 2003   3.262   1.969   2.288
 1900SOL    HW1 2004   3.238   1.932   2.198
 1900SOL    HW2 2005   3.361   1.985   2.292
 1901SOL     OW 2006   2.111   3.647   3.103
 1901SOL    HW1 2007   2.168   3.582   3.153
 1901SOL    HW2 2008   2.095   3.614   3.010
 1902SOL     OW 2009   2.802   3.560   2.766
 1902SOL    HW1 2010   2.882   3.503   2.787
 1902SOL    HW2 2011   2.753   3.520   2.689
 1903SOL     OW 2012   2.244   2.562   2.342
 1903SOL    HW1 2013   2.289   2.472   2.339
 1903SOL    HW2 2014   2.150   2.551   2.375
 1905SOL     OW 2015   2.476   1.984   1.979
 1905SOL    HW1 2016   2.574   1.962   1.986
 1905SOL    HW2 2017   2.445   1.967   1.886
 1906SOL     OW 2018   2.643   2.126   3.611
 1906SOL    HW1 2019   2.710   2.065   3.654
 1906SOL    HW2 2020   2.570   2.145   3.676
 1907SOL     OW 2021   2.750   3.376   3.057
 1907SOL    HW1 2022   2.727   3.351   2.963
 1907SOL    HW2 2023   2.811   3.307   3.096
 1908SOL     OW 2024   3.213   2.452   3.295
 1908SOL    HW1 2025   3.241   2.409   3.380
 1908SOL    HW2 2026   3.238   2.548   3.296
 1909SOL     OW 2027   2.665   3.264   2.786
 1909SOL    HW1 2028   2.755   3.278   2.744
 1909SOL    HW2 2029   2.594   3.266   2.715
 1910SOL     OW 2030   2.784   2.365   2.761
 1910SOL    HW1 2031   2.759   2.356   2.665
 1910SOL    HW2 2032   2.832   2.283   2.792
 1911SOL     OW 2033   2.401   1.926   2.374
 1911SOL    HW1 2034   2.320   1.927   2.432
 1911SOL    HW2 2035   2.404   2.009   2.319
 1912SOL     OW 2036   3.296   3.050   1.903
 1912SOL    HW1 2037   3.328   2.974   1.960
 1912SOL    HW2 2038   3.204   3.077   1.933
 1913SOL     OW 2039   2.159   1.897   2.033
 1913SOL    HW1 2040   2.208   1.981   2.012
 1913SOL    HW2 2041   2.221   1.832   2.078
 1914SOL     OW 2042   2.797   2.098   2.342
 1914SOL    HW1 2043   2.749   2.139   2.264
 1914SOL    HW2 2044   2.896   2.096   2.323
 1915SOL     OW 2045   2.938   2.545   3.326
 1915SOL    HW1 2046   2.858   2.484   3.329
 1915SOL    HW2 2047   3.019   2.492   3.302
 1916SOL     OW 2048   3.089   3.432   2.655
 1916SOL    HW1 2049   3.110   3.506   2.590
 1916SOL    HW2 2050   3.157   3.432   2.728
 1917SOL     OW 2051   2.321   3.014   2.603
 1917SOL    HW1 2052   2.250   2.987   2.668
 1917SOL    HW2 2053   2.295   2.986   2.510
 1919SOL     OW 2054   2.894   2.411   1.878
 1919SOL    HW1 2055   2.853   2.493   1.839
 1919SOL    HW2 2056   2.958   2.437   1.951
 1920SOL     OW 2057   1.940   2.418   3.248
 1920SOL    HW1 2058   2.032   2.417   3.207
 1920SOL    HW2 2059   1.934   2.492   3.315
 1921SOL     OW 2060   2.423   2.084   3.009
 1921SOL    HW1 2061   2.461   2.000   3.046
 1921SOL    HW2 2062   2.335   2.103   3.053
 1922SOL     OW 2063   2.728   2.316   2.504
 1922SOL    HW1 2064   2.696   2.388   2.442
 1922SOL    HW2 2065   2.752   2.235   2.451
 1923SOL     OW 2066   2.879   1.901   2.615
 1923SOL    HW1 2067   2.807   1.906   2.546
 1923SOL    HW2 2068   2.855   1.832   2.684
 1924SOL     OW 2069   3.291   3.035   2.729
 1924SOL    HW1 2070   3.236   2.951   2.722
 1924SOL    HW2 2071   3.317   3.064   2.637
 1925SOL     OW 2072   3.328   2.452   2.854
 1925SOL    HW1 2073   3.298   2.357   2.861
 1925SOL    HW2 2074   3.401   2.468   2.920
 1926SOL     OW 2075   3.719   2.695   2.239
 1926SOL    HW1 2076   3.761   2.631   2.303
 1926SOL    HW2 2077   3.681   2.644   2.161
 1927SOL     OW 2078   2.350   3.247   2.036
 1927SOL    HW1 2079   2.263   3.232   2.083
 1927SOL    HW2 2080   2.333   3.273   1.941
 1928SOL     OW 2081   3.526   3.142   2.519
 1928SOL    HW1 2082   3.625   3.150   2.533
 1928SOL    HW2 2083   3.481   3.226   2.550
 1929SOL     OW 2084   3.252   2.437   1.940
 1929SOL    HW1 2085   3.198   2.416   2.021
 1929SOL    HW2 2086   3.343   2.396   1.949
 1931SOL     OW 2087   2.926   3.209   3.202
 1931SOL    HW1 2088   2.846   3.186   3.257
 1931SOL    HW2 2089   3.009   3.183   3.251
 1933SOL     OW 2090   2.973   3.057   2.962
 1933SOL    HW1 2091   2.933   3.101   3.043
 1933SOL    HW2 2092   2.932   3.094   2.879
 1934SOL     OW 2093   3.500   2.961   2.941
 1934SOL    HW1 2094   3.505   3.042   3.000
 1934SOL    HW2 2095   3.414   2.963   2.890
 1935SOL     OW 2096   2.777   1.951   3.264
 1935SOL    HW1 2097   2.802   1.931   3.169
 1935SOL    HW2 2098   2.849   2.007   3.306
 1936SOL     OW 2099   2.842   2.978   3.581
 1936SOL    HW1 2100   2.743   2.984   3.591
 1936SOL    HW2 2101   2.865   2.898   3.525
 1937SOL     OW 2102   2.567   2.912   2.230
 1937SOL    HW1 2103   2.553   2.919   2.329
 1937SOL    HW2 2104   2.651   2.861   2.212
 1938SOL     OW 2105   2.272   2.675   3.113
 1938SOL    HW1 2106   2.358   2.687   3.163
 1938SOL    HW2 2107   2.230   2.588   3.140
 1939SOL     OW 2108   3.136   2.248   3.124
 1939SOL    HW1 2109   3.157   2.322   3.188
 1939SOL    HW2 2110   3.047   2.265   3.081
 1940SOL     OW 2111   1.926   3.426   3.193
 1940SOL    HW1 2112   1.880   3.508   3.159
 1940SOL    HW2 2113   2.024   3.445   3.202
 1941SOL     OW 2114   2.229   2.962   2.363
 1941SOL    HW1 2115   2.222   3.045   2.307
 1941SOL    HW2 2116   2.233   2.882   2.303
 1942SOL     OW 2117   2.428   2.399   2.727
 1942SOL    HW1 2118   2.440   2.465   2.653
 1942SOL    HW2 2119   2.474   2.433   2.810
 1943SOL     OW 2120   3.114   3.210   2.250
 1943SOL    HW1 2121   3.164   3.287   2.290
 1943SOL    HW2 2122   3.019   3.212   2.282
 1944SOL     OW 2123   3.134   3.307   3.004
 1944SOL    HW1 2124   3.181   3.320   3.091
 1944SOL    HW2 2125   3.068   3.233   3.013
 1945SOL     OW 2126   3.444   2.501   2.334
 1945SOL    HW1 2127   3.413   2.562   2.407
 1945SOL    HW2 2128   3.494   2.553   2.265
 1946SOL     OW 2129   2.216   3.372   3.191
 1946SOL    HW1 2130   2.195   3.328   3.104
 1946SOL    HW2 2131   2.313   3.398   3.194
 1947SOL     OW 2132   2.264   2.613   3.460
 1947SOL    HW1 2133   2.332   2.668   3.413
 1947SOL    HW2 2134   2.304   2.525   3.487
 1949SOL     OW 2135   2.875   1.967   3.632
 1949SOL    HW1 2136   2.881   2.052   3.580
 1949SOL    HW2 2137   2.907   1.891   3.575
 1950SOL     OW 2138   2.366   1.912   3.602
 1950SOL    HW1 2139   2.324   1.855   3.532
 1950SOL    HW2 2140   2.300   1.981   3.634
 1951SOL     OW 2141   2.435   2.732   2.891
 1951SOL    HW1 2142   2.479   2.821   2.882
 1951SOL    HW2 2143   2.372   2.732   2.968
 1952SOL     OW 2144   3.222   2.724   2.907
 1952SOL    HW1 2145   3.147   2.724   2.841
 1952SOL    HW2 2146   3.259   2.632   2.916
 1953SOL     OW 2147   3.071   2.387   2.137
 1953SOL    HW1 2148   3.084   2.303   2.191
 1953SOL    HW2 2149   3.042   2.461   2.197
 1954SOL     OW 2150   2.169   2.075   3.093
 1954SOL    HW1 2151   2.146   2.112   3.183
 1954SOL    HW2 2152   2.139   1.980   3.087
 1955SOL     OW 2153   1.899   3.172   3.144
 1955SOL    HW1 2154   1.952   3.123   3.212
 1955SOL    HW2 2155   1.921   3.270   3.149
 1956SOL     OW 2156   2.594   2.496   2.926
 1956SOL    HW1 2157   2.653   2.470   2.850
 1956SOL    HW2 2158   2.566   2.592   2.915
 1958SOL     OW 2159   2.169   1.925   2.480
 1958SOL    HW1 2160   2.158   2.019   2.513
 1958SOL    HW2 2161   2.164   1.862   2.557
 1959SOL     OW 2162   3.484   2.229   2.236
 1959SOL    HW1 2163   3.486   2.153   2.300
 1959SOL    HW2 2164   3.436   2.306   2.276
 1960SOL     OW 2165   2.885   2.628   2.828
 1960SOL    HW1 2166   2.900   2.649   2.924
 1960SOL    HW2 2167   2.855   2.533   2.819
 1963SOL     OW 2168   2.212   2.760   3.666
 1963SOL    HW1 2169   2.288   2.804   3.714
 1963SOL    HW2 2170   2.247   2.713   3.584
 1964SOL     OW 2171   3.402   2.136   1.987
 1964SOL    HW1 2172   3.341   2.061   2.010
 1964SOL    HW2 2173   3.424   2.188   2.070
 1965SOL     OW 2174   3.165   2.700   1.904
 1965SOL    HW1 2175   3.199   2.607   1.919
 1965SOL    HW2 2176   3.183   2.727   1.809
 1966SOL     OW 2177   2.930   3.195   2.711
 1966SOL    HW1 2178   2.937   3.111   2.656
 1966SOL    HW2 2179   2.992   3.264   2.675
 1967SOL     OW 2180   2.181   2.672   2.811
 1967SOL    HW1 2181   2.274   2.708   2.816
 1967SOL    HW2 2182   2.175   2.587   2.863
 1968SOL     OW 2183   2.201   2.371   2.868
 1968SOL    HW1 2184   2.149   2.288   2.851
 1968SOL    HW2 2185   2.278   2.376   2.804
 1969SOL     OW 2186   3.000   2.242   3.540
 1969SOL    HW1 2187   2.955   2.305   3.604
 1969SOL    HW2 2188   3.093   2.273   3.523
 1970SOL     OW 2189   3.022   2.069   3.339
 1970SOL    HW1 2190   3.022   2.133   3.416
 1970SOL    HW2 2191   3.050   2.117   3.256
 1971SOL     OW 2192   1.870   3.188   2.062
 1971SOL    HW1 2193   1.777   3.209   2.031
 1971SOL    HW2 2194   1.880   3.089   2.075
 1972SOL     OW 2195   1.950   3.663   2.789
 1972SOL    HW1 2196   1.908   3.577   2.762
 1972SOL    HW2 2197   2.044   3.666   2.755
 1973SOL     OW 2198   2.366   3.430   2.772
 1973SOL    HW1 2199   2.432   3.504   2.781
 1973SOL    HW2 2200   2.410   3.351   2.730
 1974SOL     OW 2201   2.864   2.658   3.100
 1974SOL    HW1 2202   2.905   2.626   3.186
 1974SOL    HW2 2203   2.768   2.631   3.097
 1975SOL     OW 2204   1.902   2.406   2.976
 1975SOL    HW1 2205   1.987   2.373   2.935
 1975SOL    HW2 2206   1.915   2.421   3.074
 1976SOL     OW 2207   2.051   2.382   3.584
 1976SOL    HW1 2208   2.110   2.342   3.514
 1976SOL    HW2 2209   1.993   2.453   3.543
 1978SOL     OW 2210   2.677   2.434   2.187
 1978SOL    HW1 2211   2.684   2.345   2.141
 1978SOL    HW2 2212   2.583   2.468   2.179
 1979SOL     OW 2213   3.519   2.466   3.068
 1979SOL    HW1 2214   3.481   2.397   3.130
 1979SOL    HW2 2215   3.601   2.430   3.024
 1981SOL     OW 2216   2.533   2.326   3.131
 1981SOL    HW1 2217   2.499   2.237   3.101
 1981SOL    HW2 2218   2.559   2.380   3.051
 1983SOL     OW 2219   2.335   2.362   2.053
 1983SOL    HW1 2220   2.396   2.442   2.057
 1983SOL    HW2 2221   2.240   2.393   2.060
 1984SOL     OW 2222   2.021   2.999   3.328
 1984SOL    HW1 2223   2.043   2.938   3.404
 1984SOL    HW2 2224   2.031   2.950   3.242
 1985SOL     OW 2225   3.209   2.921   3.096
 1985SOL    HW1 2226   3.233   2.858   3.022
 1985SOL    HW2 2227   3.119   2.961   3.078
 1986SOL     OW 2228   3.164   2.717   2.171
 1986SOL    HW1 2229   3.078   2.686   2.213
 1986SOL    HW2 2230   3.160   2.703   2.072
 1989SOL     OW 2231   1.945   3.120   2.884
 1989SOL    HW1 2232   1.940   3.119   2.984
 1989SOL    HW2 2233   1.862   3.079   2.846
 1991SOL     OW 2234   3.588   1.997   2.385
 1991SOL    HW1 2235   3.661   1.980   2.318
 1991SOL    HW2 2236   3.557   1.910   2.423
 1992SOL     OW 2237   3.250   3.435   2.339
 1992SOL    HW1 2238   3.317   3.447   2.265
 1992SOL    HW2 2239   3.210   3.524   2.362
 1994SOL     OW 2240   3.142   2.789   2.534
 1994SOL    HW1 2241   3.202   2.708   2.536
 1994SOL    HW2 2242   3.182   2.858   2.474
 1995SOL     OW 2243   2.692   3.135   3.284
 1995SOL    HW1 2244   2.687   3.168   3.379
 1995SOL    HW2 2245   2.606   3.154   3.238
 1996SOL     OW 2246   2.534   3.478   2.016
 1996SOL    HW1 2247   2.543   3.488   1.917
 1996SOL    HW2 2248   2.494   3.389   2.037
 1998SOL     OW 2249   3.703   2.037   2.825
 1998SOL    HW1 2250   3.742   1.952   2.789
 1998SOL    HW2 2251   3.605   2.039   2.806
 1999SOL     OW 2252   2.125   2.188   2.582
 1999SOL    HW1 2253   2.046   2.239   2.548
 1999SOL    HW2 2254   2.116   2.173   2.680
 2000SOL     OW 2255   3.056   3.474   1.893
 2000SOL    HW1 2256   3.062   3.381   1.930
 2000SOL    HW2 2257   2.997   3.474   1.813
 2001SOL     OW 2258   2.684   2.864   3.234
 2001SOL    HW1 2259   2.724   2.863   3.142
 2001SOL    HW2 2260   2.694   2.956   3.274
 2002SOL     OW 2261   2.778   2.772   2.153
 2002SOL    HW1 2262   2.841   2.810   2.085
 2002SOL    HW2 2263   2.818   2.689   2.192
 2004SOL     OW 2264   2.234   3.150   3.352
 2004SOL    HW1 2265   2.221   3.243   3.318
 2004SOL    HW2 2266   2.150   3.098   3.339
 2006SOL     OW 2267   2.901   2.960   2.558
 2006SOL    HW1 2268   2.831   2.913   2.612
 2006SOL    HW2 2269   2.960   2.892   2.515
 2007SOL     OW 2270   2.876   2.098   2.833
 2007SOL    HW1 2271   2.868   2.062   2.740
 2007SOL    HW2 2272   2.874   2.022   2.898
 2008SOL     OW 2273   2.452   3.349   2.353
 2008SOL    HW1 2274   2.494   3.291   2.283
 2008SOL    HW2 2275   2.408   3.428   2.309
 2009SOL     OW 2276   3.571   2.247   3.243
 2009SOL    HW1 2277   3.644   2.316   3.247
 2009SOL    HW2 2278   3.599   2.172   3.184
 2010SOL     OW 2279   2.117   3.210   2.152
 2010SOL    HW1 2280   2.021   3.211   2.125
 2010SOL    HW2 2281   2.129   3.263   2.236
 2011SOL     OW 2282   1.967   2.875   3.588
 2011SOL    HW1 2283   1.890   2.842   3.642
 2011SOL    HW2 2284   2.052   2.845   3.630
 2012SOL     OW 2285   2.534   2.065   3.351
 2012SOL    HW1 2286   2.624   2.049   3.311
 2012SOL    HW2 2287   2.542   2.070   3.450
 2013SOL     OW 2288   1.937   2.207   1.895
 2013SOL    HW1 2289   1.845   2.179   1.866
 2013SOL    HW2 2290   1.968   2.284   1.839
 2014SOL     OW 2291   3.302   2.718   3.260
 2014SOL    HW1 2292   3.245   2.770   3.197
 2014SOL    HW2 2293   3.398   2.730   3.236
 2015SOL     OW 2294   3.045   3.197   1.981
 2015SOL    HW1 2295   2.946   3.186   1.983
 2015SOL    HW2 2296   3.079   3.212   2.074
 2016SOL     OW 2297   2.475   2.704   3.293
 2016SOL    HW1 2298   2.531   2.785   3.276
 2016SOL    HW2 2299   2.534   2.624   3.296
 2018SOL     OW 2300   2.578   2.427   3.570
 2018SOL    HW1 2301   2.597   2.492   3.644
 2018SOL    HW2 2302   2.638   2.347   3.579
 2021SOL     OW 2303   3.536   2.745   3.116
 2021SOL    HW1 2304   3.509   2.656   3.079
 2021SOL    HW2 2305   3.537   2.813   3.043
 2022SOL     OW 2306   3.087   2.187   2.311
 2022SOL    HW1 2307   3.152   2.113   2.300
 2022SOL    HW2 2308   3.107   2.237   2.395
 2023SOL     OW 2309   2.456   2.607   2.514
 2023SOL    HW1 2310   2.506   2.692   2.495
 2023SOL    HW2 2311   2.368   2.609   2.466
 2026SOL     OW 2312   2.721   3.236   1.878
 2026SOL    HW1 2313   2.675   3.251   1.966
 2026SOL    HW2 2314   2.765   3.321   1.848
 2027SOL     OW 2315   2.523   3.652   2.815
 2027SOL    HW1 2316   2.477   3.740   2.802
 2027SOL    HW2 2317   2.622   3.664   2.808
 2028SOL     OW 2318   2.721   2.818   2.723
 2028SOL    HW1 2319   2.775   2.749   2.771
 2028SOL    HW2 2320   2.689   2.887   2.789
 2029SOL     OW 2321   2.945   2.846   1.949
 2029SOL    HW1 2322   2.922   2.899   1.867
 2029SOL    HW2 2323   3.026   2.790   1.930
 2032SOL     OW 2324   1.941   3.102   2.515
 2032SOL    HW1 2325   1.940   3.055   2.603
 2032SOL    HW2 2326   2.023   3.074   2.464
 2033SOL     OW 2327   2.534   3.253   3.486
 2033SOL    HW1 2328   2.456   3.203   3.524
 2033SOL    HW2 2329   2.531   3.348   3.517
 2035SOL     OW 2330   2.290   2.286   2.382
 2035SOL    HW1 2331   2.320   2.214   2.320
 2035SOL    HW2 2332   2.251   2.246   2.465
 2037SOL     OW 2333   2.179   2.409   3.142
 2037SOL    HW1 2334   2.217   2.350   3.214
 2037SOL    HW2 2335   2.219   2.383   3.054
 2038SOL     OW 2336   2.674   3.448   2.549
 2038SOL    HW1 2337   2.706   3.458   2.455
 2038SOL    HW2 2338   2.595   3.386   2.551
 2039SOL     OW 2339   3.286   2.076   2.974
 2039SOL    HW1 2340   3.338   2.011   3.029
 2039SOL    HW2 2341   3.237   2.139   3.035
 2040SOL     OW 2342   2.863   1.896   3.016
 2040SOL    HW1 2343   2.800   1.824   2.985
 2040SOL    HW2 2344   2.956   1.860   3.016
 2041SOL     OW 2345   2.632   3.192   2.163
 2041SOL    HW1 2346   2.586   3.105   2.180
 2041SOL    HW2 2347   2.723   3.189   2.204
 2042SOL     OW 2348   2.480   3.429   3.146
 2042SOL    HW1 2349   2.475   3.511   3.203
 2042SOL    HW2 2350   2.569   3.426   3.101
 2043SOL     OW 2351   3.214   1.914   2.030
 2043SOL    HW1 2352   3.249   1.873   1.946
 2043SOL    HW2 2353   3.124   1.876   2.050
 2044SOL     OW 2354   3.162   2.315   2.553
 2044SOL    HW1 2355   3.103   2.395   2.557
 2044SOL    HW2 2356   3.177   2.280   2.646
 2045SOL     OW 2357   3.455   2.083   2.744
 2045SOL    HW1 2358   3.371   2.082   2.798
 2045SOL    HW2 2359   3.457   2.166   2.688
 2046SOL     OW 2360   1.901   2.939   2.162
 2046SOL    HW1 2361   2.000   2.928   2.153
 2046SOL    HW2 2362   1.861   2.853   2.194
 2047SOL     OW 2363   2.737   3.508   2.199
 2047SOL    HW1 2364   2.660   3.473   2.145
 2047SOL    HW2 2365   2.705   3.579   2.261
 2048SOL     OW 2366   2.092   2.490   3.837
 2048SOL    HW1 2367   1.999   2.488   3.874
 2048SOL    HW2 2368   2.093   2.451   3.745
 2069SOL     OW 2369   2.476   1.984   3.841
 2069SOL    HW1 2370   2.574   1.962   3.848
 2069SOL    HW2 2371   2.445   1.967   3.748
 2071SOL     OW 2372   2.159   1.897   3.895
 2071SOL    HW1 2373   2.208   1.981   3.874
 2071SOL    HW2 2374   2.221   1.832   3.940
 2075SOL     OW 2375   2.894   2.411   3.740
 2075SOL    HW1 2376   2.853   2.493   3.701
 2075SOL    HW2 2377   2.958   2.437   3.813
 2091SOL     OW 2378   2.335   2.362   3.915
 2091SOL    HW1 2379   2.396   2.442   3.919
 2091SOL    HW2 2380   2.240   2.393   3.922
 2101SOL     OW 2381   1.937   2.207   3.757
 2101SOL    HW1 2382   1.845   2.179   3.728
 2101SOL    HW2 2383   1.968   2.284   3.701
 2146SOL     OW 2384   2.366   3.774   1.740
 2146SOL    HW1 2385   2.324   3.717   1.670
 2146SOL    HW2 2386   2.300   3.843   1.772
 2187SOL     OW 2387   2.671   3.728   2.364
 2187SOL    HW1 2388   2.711   3.819   2.355
 2187SOL    HW2 2389   2.571   3.736   2.370
 2199SOL     OW 2390   2.476   3.846   1.979
 2199SOL    HW1 2391   2.574   3.824   1.986
 2199SOL    HW2 2392   2.445   3.829   1.886
 2202SOL     OW 2393   2.401   3.788   2.374
 2202SOL    HW1 2394   2.320   3.789   2.432
 2202SOL    HW2 2395   2.404   3.871   2.319
 2203SOL     OW 2396   2.159   3.759   2.033
 2203SOL    HW1 2397   2.208   3.843   2.012
 2203SOL    HW2 2398   2.221   3.694   2.078
 2217SOL     OW 2399   2.169   3.787   2.480
 2217SOL    HW1 2400   2.158   3.881   2.513
 2217SOL    HW2 2401   2.164   3.724   2.557
 2237SOL     OW 2402   1.934   3.890   2.180
 2237SOL    HW1 2403   1.917   3.973   2.126
 2237SOL    HW2 2404   2.024   3.853   2.158
 2320SOL     OW 2405   3.854   1.794   1.851
 2320SOL    HW1 2406   3.813   1.720   1.904
 2320SOL    HW2 2407   3.918   1.845   1.909
 2344SOL     OW 2408   3.751   1.596   1.979
 2344SOL    HW1 2409   3.732   1.500   2.000
 2344SOL    HW2 2410   3.718   1.654   2.054
 2377SOL     OW 2411   3.732   1.326   2.062
 2377SOL    HW1 2412   3.639   1.347   2.031
 2377SOL    HW2 2413   3.742   1.227   2.075
 2491SOL     OW 2414   3.743   2.230   2.509
 2491SOL    HW1 2415   3.661   2.273   2.548
 2491SOL    HW2 2416   3.715   2.157   2.446
 2497SOL     OW 2417   3.846   2.505   2.425
 2497SOL    HW1 2418   3.801   2.417   2.442
 2497SOL    HW2 2419   3.845   2.559   2.509
 2547SOL     OW 2420   3.799   2.207   1.895
 2547SOL    HW1 2421   3.707   2.179   1.866
 2547SOL    HW2 2422   3.830   2.284   1.839
 2548SOL     OW 2423   3.796   2.028   2.180
 2548SOL    HW1 2424   3.779   2.111   2.126
 2548SOL    HW2 2425   3.886   1.991   2.158
 2555SOL     OW 2426   3.763   2.939   2.162
 2555SOL    HW1 2427   3.862   2.928   2.153
 2555SOL    HW2 2428   3.723   2.853   2.194
   4.29463   4.29463   4.29463
