mobley_1923244_GMX.gro created by acpype (v: 2023.10.27) on Wed May 20 23:43:04 2026
   14
    1MOL     H3    1   2.437   2.352   2.443
    1MOL     C1    2   2.417   2.399   2.349
    1MOL     H2    3   2.511   2.436   2.306
    1MOL     H6    4   2.355   2.487   2.369
    1MOL     C3    5   2.346   2.306   2.252
    1MOL     H1    6   2.412   2.221   2.231
    1MOL     H7    7   2.329   2.355   2.157
    1MOL     C5    8   2.215   2.255   2.310
    1MOL    H10    9   2.235   2.204   2.404
    1MOL     C7   10   2.145   2.160   2.214
    1MOL     H8   11   2.206   2.074   2.194
    1MOL     H9   12   2.049   2.122   2.256
    1MOL     H4   13   2.123   2.208   2.117
    1MOL     H5   14   2.148   2.341   2.330
   4.56084   4.56084   4.56084
