mobley_7532833_GMX.gro created by acpype (v: 2023.10.27) on Wed May 20 23:48:22 2026
    6
    1MOL     C1    1   2.115   2.238   2.195
    1MOL     C2    2   2.181   2.119   2.141
    1MOL     N1    3   2.064   2.332   2.239
    1MOL     H1    4   2.287   2.138   2.124
    1MOL     H2    5   2.136   2.091   2.045
    1MOL     H3    6   2.171   2.035   2.209
   4.31765   4.31765   4.31765
