mobley_8260524_GMX.gro created by acpype (v: 2023.10.27) on Wed May 20 23:42:50 2026
    7
    1MOL     C1    1   2.221   2.382   2.200
    1MOL     C2    2   2.215   2.263   2.208
    1MOL     C3    3   2.209   2.117   2.219
    1MOL     H1    4   2.225   2.489   2.192
    1MOL     H2    5   2.280   2.080   2.293
    1MOL     H3    6   2.108   2.085   2.249
    1MOL     H4    7   2.232   2.070   2.123
   4.42486   4.42486   4.42486
