mobley_8260524_GMX.gro created by acpype (v: 2023.10.27) on Wed May 20 23:42:50 2026
 2395
    1MOL     C1    1   2.221   2.382   2.200
    1MOL     C2    2   2.215   2.263   2.208
    1MOL     C3    3   2.209   2.117   2.219
    1MOL     H1    4   2.225   2.489   2.192
    1MOL     H2    5   2.280   2.080   2.293
    1MOL     H3    6   2.108   2.085   2.249
    1MOL     H4    7   2.232   2.070   2.123
    6SOL     OW    8   1.555   1.511   0.703
    6SOL    HW1    9   1.498   1.495   0.784
    6SOL    HW2   10   1.496   1.521   0.623
   14SOL     OW   11   1.460   1.505   1.339
   14SOL    HW1   12   1.484   1.599   1.365
   14SOL    HW2   13   1.444   1.451   1.421
   18SOL     OW   14   1.127   1.341   1.690
   18SOL    HW1   15   1.174   1.341   1.778
   18SOL    HW2   16   1.079   1.254   1.679
   31SOL     OW   17   1.293   1.228   1.423
   31SOL    HW1   18   1.330   1.155   1.365
   31SOL    HW2   19   1.345   1.233   1.508
   35SOL     OW   20   1.187   1.792   1.616
   35SOL    HW1   21   1.211   1.852   1.540
   35SOL    HW2   22   1.194   1.697   1.586
   37SOL     OW   23   1.466   1.417   0.953
   37SOL    HW1   24   1.407   1.423   1.033
   37SOL    HW2   25   1.451   1.329   0.907
   38SOL     OW   26   1.667   1.714   0.572
   38SOL    HW1   27   1.626   1.691   0.484
   38SOL    HW2   28   1.649   1.640   0.637
   50SOL     OW   29   1.719   0.585   1.831
   50SOL    HW1   30   1.693   0.674   1.795
   50SOL    HW2   31   1.717   0.517   1.758
   56SOL     OW   32   1.227   1.550   1.506
   56SOL    HW1   33   1.233   1.473   1.570
   56SOL    HW2   34   1.175   1.524   1.426
   95SOL     OW   35   1.754   1.223   1.588
   95SOL    HW1   36   1.845   1.184   1.575
   95SOL    HW2   37   1.762   1.319   1.612
   96SOL     OW   38   1.064   1.347   1.340
   96SOL    HW1   39   0.984   1.324   1.395
   96SOL    HW2   40   1.147   1.321   1.389
   97SOL     OW   41   1.592   1.629   1.625
   97SOL    HW1   42   1.619   1.663   1.535
   97SOL    HW2   43   1.671   1.591   1.671
   99SOL     OW   44   1.638   1.099   1.079
   99SOL    HW1   45   1.643   1.180   1.138
   99SOL    HW2   46   1.552   1.101   1.028
  101SOL     OW   47   0.980   1.116   1.719
  101SOL    HW1   48   0.881   1.122   1.729
  101SOL    HW2   49   1.003   1.036   1.663
  109SOL     OW   50   1.272   1.445   1.142
  109SOL    HW1   51   1.319   1.458   1.229
  109SOL    HW2   52   1.206   1.371   1.151
  113SOL     OW   53   1.587   0.779   1.670
  113SOL    HW1   54   1.495   0.817   1.665
  113SOL    HW2   55   1.647   0.826   1.605
  122SOL     OW   56   1.728   0.935   1.854
  122SOL    HW1   57   1.682   0.928   1.765
  122SOL    HW2   58   1.666   0.979   1.920
  126SOL     OW   59   0.980   1.573   1.700
  126SOL    HW1   60   0.960   1.617   1.612
  126SOL    HW2   61   1.019   1.482   1.684
  127SOL     OW   62   1.859   1.518   1.605
  127SOL    HW1   63   1.873   1.545   1.510
  127SOL    HW2   64   1.942   1.540   1.658
  142SOL     OW   65   1.369   0.950   1.660
  142SOL    HW1   66   1.408   1.039   1.680
  142SOL    HW2   67   1.379   0.930   1.563
  147SOL     OW   68   0.930   1.678   1.465
  147SOL    HW1   69   0.906   1.660   1.370
  147SOL    HW2   70   0.960   1.772   1.475
  150SOL     OW   71   1.347   1.059   1.234
  150SOL    HW1   72   1.371   0.996   1.160
  150SOL    HW2   73   1.257   1.099   1.216
  152SOL     OW   74   1.759   1.747   1.154
  152SOL    HW1   75   1.820   1.777   1.081
  152SOL    HW2   76   1.721   1.658   1.132
  153SOL     OW   77   1.252   1.731   1.128
  153SOL    HW1   78   1.336   1.736   1.074
  153SOL    HW2   79   1.229   1.635   1.146
  155SOL     OW   80   0.688   1.662   1.716
  155SOL    HW1   81   0.632   1.743   1.725
  155SOL    HW2   82   0.740   1.666   1.630
  163SOL     OW   83   1.650   1.720   1.394
  163SOL    HW1   84   1.703   1.730   1.310
  163SOL    HW2   85   1.623   1.810   1.428
  171SOL     OW   86   1.614   1.292   1.289
  171SOL    HW1   87   1.674   1.295   1.369
  171SOL    HW2   88   1.539   1.356   1.302
  180SOL     OW   89   1.440   0.856   1.398
  180SOL    HW1   90   1.383   0.908   1.335
  180SOL    HW2   91   1.536   0.868   1.374
  184SOL     OW   92   1.493   1.767   0.959
  184SOL    HW1   93   1.526   1.831   0.890
  184SOL    HW2   94   1.559   1.761   1.034
  186SOL     OW   95   1.450   1.220   1.633
  186SOL    HW1   96   1.441   1.210   1.732
  186SOL    HW2   97   1.546   1.213   1.607
  188SOL     OW   98   1.674   0.883   1.254
  188SOL    HW1   99   1.647   0.794   1.217
  188SOL    HW2  100   1.675   0.951   1.181
  192SOL     OW  101   1.730   0.934   1.517
  192SOL    HW1  102   1.768   1.025   1.532
  192SOL    HW2  103   1.722   0.917   1.418
  197SOL     OW  104   1.861   1.569   0.851
  197SOL    HW1  105   1.790   1.557   0.781
  197SOL    HW2  106   1.862   1.490   0.911
  203SOL     OW  107   1.705   1.487   1.104
  203SOL    HW1  108   1.612   1.462   1.077
  203SOL    HW2  109   1.731   1.437   1.186
  219SOL     OW  110   1.555   1.511   2.565
  219SOL    HW1  111   1.498   1.495   2.646
  219SOL    HW2  112   1.496   1.521   2.485
  221SOL     OW  113   1.755   0.607   2.093
  221SOL    HW1  114   1.743   0.594   1.994
  221SOL    HW2  115   1.725   0.526   2.142
  227SOL     OW  116   1.460   1.505   3.201
  227SOL    HW1  117   1.484   1.599   3.227
  227SOL    HW2  118   1.444   1.451   3.283
  238SOL     OW  119   1.842   1.767   2.221
  238SOL    HW1  120   1.896   1.738   2.301
  238SOL    HW2  121   1.872   1.857   2.192
  240SOL     OW  122   1.689   0.922   2.474
  240SOL    HW1  123   1.784   0.893   2.482
  240SOL    HW2  124   1.681   0.987   2.399
  241SOL     OW  125   1.641   1.108   2.294
  241SOL    HW1  126   1.727   1.110   2.242
  241SOL    HW2  127   1.655   1.155   2.382
  244SOL     OW  128   1.293   1.228   3.285
  244SOL    HW1  129   1.330   1.155   3.227
  244SOL    HW2  130   1.345   1.233   3.370
  247SOL     OW  131   1.525   0.999   2.052
  247SOL    HW1  132   1.462   0.923   2.065
  247SOL    HW2  133   1.573   1.017   2.138
  248SOL     OW  134   1.187   1.792   3.478
  248SOL    HW1  135   1.211   1.852   3.402
  248SOL    HW2  136   1.194   1.697   3.448
  250SOL     OW  137   1.466   1.417   2.815
  250SOL    HW1  138   1.407   1.423   2.895
  250SOL    HW2  139   1.451   1.329   2.769
  251SOL     OW  140   1.667   1.714   2.434
  251SOL    HW1  141   1.626   1.691   2.346
  251SOL    HW2  142   1.649   1.640   2.499
  254SOL     OW  143   1.576   1.662   2.169
  254SOL    HW1  144   1.665   1.708   2.172
  254SOL    HW2  145   1.555   1.638   2.074
  264SOL     OW  146   1.362   1.144   2.407
  264SOL    HW1  147   1.445   1.115   2.359
  264SOL    HW2  148   1.313   1.211   2.351
  266SOL     OW  149   1.008   1.456   2.339
  266SOL    HW1  150   0.962   1.528   2.287
  266SOL    HW2  151   1.004   1.476   2.437
  268SOL     OW  152   1.795   1.066   2.735
  268SOL    HW1  153   1.733   1.051   2.659
  268SOL    HW2  154   1.743   1.077   2.820
  269SOL     OW  155   1.227   1.550   3.368
  269SOL    HW1  156   1.233   1.473   3.432
  269SOL    HW2  157   1.175   1.524   3.288
  271SOL     OW  158   1.458   0.735   2.590
  271SOL    HW1  159   1.453   0.670   2.665
  271SOL    HW2  160   1.538   0.794   2.603
  273SOL     OW  161   1.111   1.776   2.099
  273SOL    HW1  162   1.051   1.714   2.149
  273SOL    HW2  163   1.142   1.732   2.014
  275SOL     OW  164   1.632   1.377   1.943
  275SOL    HW1  165   1.600   1.471   1.933
  275SOL    HW2  166   1.556   1.314   1.931
  279SOL     OW  167   0.940   1.698   2.766
  279SOL    HW1  168   1.020   1.641   2.787
  279SOL    HW2  169   0.891   1.658   2.689
  284SOL     OW  170   0.888   1.514   3.057
  284SOL    HW1  171   0.865   1.489   2.963
  284SOL    HW2  172   0.949   1.445   3.096
  286SOL     OW  173   0.803   1.402   2.786
  286SOL    HW1  174   0.893   1.416   2.744
  286SOL    HW2  175   0.732   1.404   2.715
  289SOL     OW  176   1.434   1.188   1.903
  289SOL    HW1  177   1.466   1.112   1.960
  289SOL    HW2  178   1.342   1.215   1.933
  293SOL     OW  179   1.227   1.570   2.655
  293SOL    HW1  180   1.248   1.644   2.590
  293SOL    HW2  181   1.295   1.570   2.728
  295SOL     OW  182   1.271   1.797   2.453
  295SOL    HW1  183   1.315   1.861   2.389
  295SOL    HW2  184   1.221   1.849   2.523
  301SOL     OW  185   1.429   1.173   2.729
  301SOL    HW1  186   1.374   1.089   2.722
  301SOL    HW2  187   1.455   1.202   2.637
  303SOL     OW  188   1.857   0.833   2.239
  303SOL    HW1  189   1.899   0.769   2.303
  303SOL    HW2  190   1.819   0.782   2.161
  305SOL     OW  191   1.664   1.280   2.519
  305SOL    HW1  192   1.763   1.288   2.533
  305SOL    HW2  193   1.619   1.364   2.550
  308SOL     OW  194   1.754   1.223   3.450
  308SOL    HW1  195   1.845   1.184   3.437
  308SOL    HW2  196   1.762   1.319   3.474
  309SOL     OW  197   1.064   1.347   3.202
  309SOL    HW1  198   0.984   1.324   3.257
  309SOL    HW2  199   1.147   1.321   3.251
  310SOL     OW  200   1.592   1.629   3.487
  310SOL    HW1  201   1.619   1.663   3.397
  310SOL    HW2  202   1.671   1.591   3.533
  311SOL     OW  203   1.111   1.195   2.962
  311SOL    HW1  204   1.071   1.239   3.043
  311SOL    HW2  205   1.070   1.232   2.879
  312SOL     OW  206   1.638   1.099   2.941
  312SOL    HW1  207   1.643   1.180   3.000
  312SOL    HW2  208   1.552   1.101   2.890
  321SOL     OW  209   1.252   1.348   2.250
  321SOL    HW1  210   1.302   1.425   2.290
  321SOL    HW2  211   1.157   1.350   2.282
  322SOL     OW  212   1.272   1.445   3.004
  322SOL    HW1  213   1.319   1.458   3.091
  322SOL    HW2  214   1.206   1.371   3.013
  323SOL     OW  215   1.582   0.639   2.334
  323SOL    HW1  216   1.551   0.700   2.407
  323SOL    HW2  217   1.632   0.691   2.265
  330SOL     OW  218   1.360   0.862   2.907
  330SOL    HW1  219   1.285   0.862   2.841
  330SOL    HW2  220   1.397   0.770   2.916
  340SOL     OW  221   1.859   1.518   3.467
  340SOL    HW1  222   1.873   1.545   3.372
  340SOL    HW2  223   1.942   1.540   3.520
  343SOL     OW  224   1.303   0.838   1.904
  343SOL    HW1  225   1.337   0.745   1.919
  343SOL    HW2  226   1.321   0.865   1.809
  344SOL     OW  227   1.068   1.333   2.711
  344SOL    HW1  228   1.075   1.249   2.656
  344SOL    HW2  229   1.130   1.402   2.675
  360SOL     OW  230   0.930   1.678   3.327
  360SOL    HW1  231   0.906   1.660   3.232
  360SOL    HW2  232   0.960   1.772   3.337
  363SOL     OW  233   1.347   1.059   3.096
  363SOL    HW1  234   1.371   0.996   3.022
  363SOL    HW2  235   1.257   1.099   3.078
  364SOL     OW  236   1.302   0.855   2.171
  364SOL    HW1  237   1.216   0.824   2.213
  364SOL    HW2  238   1.298   0.841   2.072
  365SOL     OW  239   1.759   1.747   3.016
  365SOL    HW1  240   1.820   1.777   2.943
  365SOL    HW2  241   1.721   1.658   2.994
  366SOL     OW  242   1.252   1.731   2.990
  366SOL    HW1  243   1.336   1.736   2.936
  366SOL    HW2  244   1.229   1.635   3.008
  370SOL     OW  245   1.388   1.573   2.339
  370SOL    HW1  246   1.455   1.585   2.265
  370SOL    HW2  247   1.348   1.662   2.362
  372SOL     OW  248   1.280   0.927   2.534
  372SOL    HW1  249   1.340   0.846   2.536
  372SOL    HW2  250   1.320   0.996   2.474
  374SOL     OW  251   0.672   1.616   2.016
  374SOL    HW1  252   0.681   1.626   1.917
  374SOL    HW2  253   0.632   1.527   2.037
  375SOL     OW  254   1.650   1.720   3.256
  375SOL    HW1  255   1.703   1.730   3.172
  375SOL    HW2  256   1.623   1.810   3.290
  378SOL     OW  257   1.194   1.612   1.893
  378SOL    HW1  258   1.200   1.519   1.930
  378SOL    HW2  259   1.135   1.612   1.813
  381SOL     OW  260   1.504   1.607   1.906
  381SOL    HW1  261   1.412   1.644   1.913
  381SOL    HW2  262   1.542   1.627   1.816
  383SOL     OW  263   1.614   1.292   3.151
  383SOL    HW1  264   1.674   1.295   3.231
  383SOL    HW2  265   1.539   1.356   3.164
  384SOL     OW  266   1.039   1.098   2.558
  384SOL    HW1  267   0.969   1.051   2.612
  384SOL    HW2  268   1.098   1.030   2.515
  386SOL     OW  269   0.590   1.487   2.353
  386SOL    HW1  270   0.632   1.429   2.283
  386SOL    HW2  271   0.546   1.566   2.309
  394SOL     OW  272   1.183   1.335   1.981
  394SOL    HW1  273   1.084   1.324   1.983
  394SOL    HW2  274   1.217   1.350   2.074
  396SOL     OW  275   1.493   1.767   2.821
  396SOL    HW1  276   1.526   1.831   2.752
  396SOL    HW2  277   1.559   1.761   2.896
  398SOL     OW  278   1.450   1.220   3.495
  398SOL    HW1  279   1.441   1.210   3.594
  398SOL    HW2  280   1.546   1.213   3.469
  400SOL     OW  281   1.674   0.883   3.116
  400SOL    HW1  282   1.647   0.794   3.079
  400SOL    HW2  283   1.675   0.951   3.043
  404SOL     OW  284   1.730   0.934   3.379
  404SOL    HW1  285   1.768   1.025   3.394
  404SOL    HW2  286   1.722   0.917   3.280
  405SOL     OW  287   0.859   1.374   1.878
  405SOL    HW1  288   0.813   1.389   1.966
  405SOL    HW2  289   0.903   1.459   1.848
  406SOL     OW  290   0.661   1.790   2.815
  406SOL    HW1  291   0.615   1.878   2.802
  406SOL    HW2  292   0.760   1.802   2.808
  408SOL     OW  293   1.083   0.984   1.949
  408SOL    HW1  294   1.060   1.037   1.867
  408SOL    HW2  295   1.164   0.928   1.930
  409SOL     OW  296   1.861   1.569   2.713
  409SOL    HW1  297   1.790   1.557   2.643
  409SOL    HW2  298   1.862   1.490   2.773
  415SOL     OW  299   1.705   1.487   2.966
  415SOL    HW1  300   1.612   1.462   2.939
  415SOL    HW2  301   1.731   1.437   3.048
  417SOL     OW  302   0.812   1.586   2.549
  417SOL    HW1  303   0.844   1.596   2.455
  417SOL    HW2  304   0.733   1.524   2.551
  420SOL     OW  305   0.770   1.330   2.163
  420SOL    HW1  306   0.724   1.243   2.180
  420SOL    HW2  307   0.861   1.327   2.204
  426SOL     OW  308   0.875   1.646   2.199
  426SOL    HW1  309   0.798   1.611   2.145
  426SOL    HW2  310   0.843   1.717   2.261
  512SOL     OW  311   0.850   2.660   1.823
  512SOL    HW1  312   0.846   2.736   1.888
  512SOL    HW2  313   0.872   2.696   1.732
  514SOL     OW  314   0.686   3.023   1.803
  514SOL    HW1  315   0.746   3.102   1.817
  514SOL    HW2  316   0.600   3.054   1.762
  516SOL     OW  317   1.460   3.367   1.339
  516SOL    HW1  318   1.484   3.461   1.365
  516SOL    HW2  319   1.444   3.313   1.421
  518SOL     OW  320   1.603   2.309   0.737
  518SOL    HW1  321   1.529   2.355   0.687
  518SOL    HW2  322   1.654   2.377   0.790
  520SOL     OW  323   1.127   3.203   1.690
  520SOL    HW1  324   1.174   3.203   1.778
  520SOL    HW2  325   1.079   3.116   1.679
  525SOL     OW  326   1.594   1.976   1.480
  525SOL    HW1  327   1.576   2.043   1.408
  525SOL    HW2  328   1.591   2.022   1.569
  529SOL     OW  329   1.689   2.784   0.612
  529SOL    HW1  330   1.784   2.755   0.620
  529SOL    HW2  331   1.681   2.849   0.537
  533SOL     OW  332   1.293   3.090   1.423
  533SOL    HW1  333   1.330   3.017   1.365
  533SOL    HW2  334   1.345   3.095   1.508
  542SOL     OW  335   1.281   2.207   0.944
  542SOL    HW1  336   1.195   2.157   0.931
  542SOL    HW2  337   1.343   2.153   1.000
  544SOL     OW  338   0.807   2.467   1.465
  544SOL    HW1  339   0.760   2.464   1.554
  544SOL    HW2  340   0.756   2.412   1.399
  545SOL     OW  341   1.394   2.331   1.674
  545SOL    HW1  342   1.374   2.374   1.762
  545SOL    HW2  343   1.472   2.269   1.683
  546SOL     OW  344   0.973   2.752   1.572
  546SOL    HW1  345   1.019   2.668   1.543
  546SOL    HW2  346   0.917   2.786   1.497
  547SOL     OW  347   0.991   2.272   1.242
  547SOL    HW1  348   0.914   2.306   1.296
  547SOL    HW2  349   0.957   2.221   1.163
  552SOL     OW  350   1.719   2.447   1.831
  552SOL    HW1  351   1.693   2.536   1.795
  552SOL    HW2  352   1.717   2.379   1.758
  557SOL     OW  353   1.795   2.928   0.873
  557SOL    HW1  354   1.733   2.913   0.797
  557SOL    HW2  355   1.743   2.939   0.958
  558SOL     OW  356   1.227   3.412   1.506
  558SOL    HW1  357   1.233   3.335   1.570
  558SOL    HW2  358   1.175   3.386   1.426
  560SOL     OW  359   1.458   2.597   0.728
  560SOL    HW1  360   1.453   2.532   0.803
  560SOL    HW2  361   1.538   2.656   0.741
  570SOL     OW  362   1.547   2.084   1.729
  570SOL    HW1  363   1.542   2.121   1.821
  570SOL    HW2  364   1.475   2.015   1.717
  572SOL     OW  365   0.781   2.126   1.749
  572SOL    HW1  366   0.848   2.065   1.792
  572SOL    HW2  367   0.708   2.145   1.814
  574SOL     OW  368   1.351   2.452   1.433
  574SOL    HW1  369   1.379   2.409   1.518
  574SOL    HW2  370   1.376   2.548   1.434
  580SOL     OW  371   1.076   2.545   1.464
  580SOL    HW1  372   0.996   2.484   1.467
  580SOL    HW2  373   1.157   2.492   1.440
  589SOL     OW  374   1.429   3.035   0.867
  589SOL    HW1  375   1.374   2.951   0.860
  589SOL    HW2  376   1.455   3.064   0.775
  590SOL     OW  377   1.466   2.452   0.992
  590SOL    HW1  378   1.436   2.357   0.999
  590SOL    HW2  379   1.539   2.468   1.058
  596SOL     OW  380   1.754   3.085   1.588
  596SOL    HW1  381   1.845   3.046   1.575
  596SOL    HW2  382   1.762   3.181   1.612
  597SOL     OW  383   1.064   3.209   1.340
  597SOL    HW1  384   0.984   3.186   1.395
  597SOL    HW2  385   1.147   3.183   1.389
  598SOL     OW  386   1.592   3.491   1.625
  598SOL    HW1  387   1.619   3.525   1.535
  598SOL    HW2  388   1.671   3.453   1.671
  599SOL     OW  389   1.111   3.057   1.100
  599SOL    HW1  390   1.071   3.101   1.181
  599SOL    HW2  391   1.070   3.094   1.017
  600SOL     OW  392   1.638   2.961   1.079
  600SOL    HW1  393   1.643   3.042   1.138
  600SOL    HW2  394   1.552   2.963   1.028
  601SOL     OW  395   0.915   1.951   1.402
  601SOL    HW1  396   0.940   1.931   1.307
  601SOL    HW2  397   0.987   2.007   1.444
  602SOL     OW  398   0.980   2.978   1.719
  602SOL    HW1  399   0.881   2.984   1.729
  602SOL    HW2  400   1.003   2.898   1.663
  605SOL     OW  401   1.274   2.248   1.262
  605SOL    HW1  402   1.295   2.322   1.326
  605SOL    HW2  403   1.185   2.265   1.219
  610SOL     OW  404   1.272   3.307   1.142
  610SOL    HW1  405   1.319   3.320   1.229
  610SOL    HW2  406   1.206   3.233   1.151
  614SOL     OW  407   1.587   2.641   1.670
  614SOL    HW1  408   1.495   2.679   1.665
  614SOL    HW2  409   1.647   2.688   1.605
  615SOL     OW  410   1.013   1.967   1.770
  615SOL    HW1  411   1.019   2.052   1.718
  615SOL    HW2  412   1.045   1.891   1.713
  616SOL     OW  413   0.504   1.912   1.740
  616SOL    HW1  414   0.462   1.855   1.670
  616SOL    HW2  415   0.438   1.981   1.772
  618SOL     OW  416   1.360   2.724   1.045
  618SOL    HW1  417   1.285   2.724   0.979
  618SOL    HW2  418   1.397   2.632   1.054
  623SOL     OW  419   1.728   2.797   1.854
  623SOL    HW1  420   1.682   2.790   1.765
  623SOL    HW2  421   1.666   2.841   1.920
  626SOL     OW  422   1.023   2.628   0.966
  626SOL    HW1  423   1.038   2.649   1.062
  626SOL    HW2  424   0.993   2.533   0.957
  628SOL     OW  425   1.859   3.380   1.605
  628SOL    HW1  426   1.873   3.407   1.510
  628SOL    HW2  427   1.942   3.402   1.658
  635SOL     OW  428   1.138   2.242   1.678
  635SOL    HW1  429   1.093   2.305   1.742
  635SOL    HW2  430   1.231   2.273   1.661
  636SOL     OW  431   1.160   2.069   1.477
  636SOL    HW1  432   1.160   2.133   1.554
  636SOL    HW2  433   1.188   2.117   1.394
  640SOL     OW  434   1.002   2.658   1.238
  640SOL    HW1  435   1.043   2.626   1.324
  640SOL    HW2  436   0.906   2.631   1.235
  643SOL     OW  437   1.369   2.812   1.660
  643SOL    HW1  438   1.408   2.901   1.680
  643SOL    HW2  439   1.379   2.792   1.563
  645SOL     OW  440   1.657   2.466   1.206
  645SOL    HW1  441   1.619   2.397   1.268
  645SOL    HW2  442   1.739   2.430   1.162
  651SOL     OW  443   1.347   2.921   1.234
  651SOL    HW1  444   1.371   2.858   1.160
  651SOL    HW2  445   1.257   2.961   1.216
  658SOL     OW  446   1.726   1.997   0.523
  658SOL    HW1  447   1.799   1.980   0.456
  658SOL    HW2  448   1.695   1.910   0.561
  664SOL     OW  449   1.650   3.582   1.394
  664SOL    HW1  450   1.703   3.592   1.310
  664SOL    HW2  451   1.623   3.672   1.428
  665SOL     OW  452   1.841   2.037   0.963
  665SOL    HW1  453   1.880   1.952   0.927
  665SOL    HW2  454   1.743   2.039   0.944
  668SOL     OW  455   0.822   2.864   1.372
  668SOL    HW1  456   0.862   2.863   1.280
  668SOL    HW2  457   0.832   2.956   1.412
  672SOL     OW  458   1.614   3.154   1.289
  672SOL    HW1  459   1.674   3.157   1.369
  672SOL    HW2  460   1.539   3.218   1.302
  674SOL     OW  461   1.014   2.098   0.971
  674SOL    HW1  462   1.006   2.062   0.878
  674SOL    HW2  463   1.012   2.022   1.036
  676SOL     OW  464   1.709   2.247   1.381
  676SOL    HW1  465   1.782   2.316   1.385
  676SOL    HW2  466   1.737   2.172   1.322
  679SOL     OW  467   0.672   2.065   1.489
  679SOL    HW1  468   0.762   2.049   1.449
  679SOL    HW2  469   0.680   2.070   1.588
  681SOL     OW  470   1.440   2.718   1.398
  681SOL    HW1  471   1.383   2.770   1.335
  681SOL    HW2  472   1.536   2.730   1.374
  686SOL     OW  473   0.716   2.427   1.708
  686SOL    HW1  474   0.735   2.492   1.782
  686SOL    HW2  475   0.776   2.347   1.717
  687SOL     OW  476   1.450   3.082   1.633
  687SOL    HW1  477   1.441   3.072   1.732
  687SOL    HW2  478   1.546   3.075   1.607
  689SOL     OW  479   1.674   2.745   1.254
  689SOL    HW1  480   1.647   2.656   1.217
  689SOL    HW2  481   1.675   2.813   1.181
  692SOL     OW  482   1.777   2.204   1.642
  692SOL    HW1  483   1.760   2.235   1.548
  692SOL    HW2  484   1.693   2.167   1.680
  693SOL     OW  485   1.730   2.796   1.517
  693SOL    HW1  486   1.768   2.887   1.532
  693SOL    HW2  487   1.722   2.779   1.418
  702SOL     OW  488   1.824   2.054   1.227
  702SOL    HW1  489   1.820   1.964   1.271
  702SOL    HW2  490   1.827   2.043   1.128
  704SOL     OW  491   1.705   3.349   1.104
  704SOL    HW1  492   1.612   3.324   1.077
  704SOL    HW2  493   1.731   3.299   1.186
  707SOL     OW  494   1.424   2.076   1.112
  707SOL    HW1  495   1.476   2.011   1.167
  707SOL    HW2  496   1.375   2.139   1.173
  708SOL     OW  497   1.001   1.896   1.154
  708SOL    HW1  498   0.938   1.824   1.123
  708SOL    HW2  499   1.094   1.860   1.154
  712SOL     OW  500   1.300   2.315   0.691
  712SOL    HW1  501   1.241   2.395   0.695
  712SOL    HW2  502   1.315   2.280   0.784
  713SOL     OW  503   1.593   2.083   0.882
  713SOL    HW1  504   1.509   2.082   0.936
  713SOL    HW2  505   1.595   2.166   0.826
  720SOL     OW  506   1.555   3.373   2.565
  720SOL    HW1  507   1.498   3.357   2.646
  720SOL    HW2  508   1.496   3.383   2.485
  721SOL     OW  509   1.135   2.565   2.579
  721SOL    HW1  510   1.192   2.643   2.554
  721SOL    HW2  511   1.075   2.591   2.655
  722SOL     OW  512   1.755   2.469   2.093
  722SOL    HW1  513   1.743   2.456   1.994
  722SOL    HW2  514   1.725   2.388   2.142
  723SOL     OW  515   0.768   3.006   2.885
  723SOL    HW1  516   0.690   3.023   2.945
  723SOL    HW2  517   0.802   3.093   2.849
  725SOL     OW  518   0.685   2.874   2.527
  725SOL    HW1  519   0.754   2.858   2.597
  725SOL    HW2  520   0.612   2.931   2.565
  728SOL     OW  521   1.460   3.367   3.201
  728SOL    HW1  522   1.484   3.461   3.227
  728SOL    HW2  523   1.444   3.313   3.283
  730SOL     OW  524   1.603   2.309   2.599
  730SOL    HW1  525   1.529   2.355   2.549
  730SOL    HW2  526   1.654   2.377   2.652
  736SOL     OW  527   0.606   2.826   1.985
  736SOL    HW1  528   0.613   2.910   1.931
  736SOL    HW2  529   0.652   2.839   2.073
  737SOL     OW  530   1.594   1.976   3.342
  737SOL    HW1  531   1.576   2.043   3.270
  737SOL    HW2  532   1.591   2.022   3.431
  739SOL     OW  533   1.842   3.629   2.221
  739SOL    HW1  534   1.896   3.600   2.301
  739SOL    HW2  535   1.872   3.719   2.192
  741SOL     OW  536   1.689   2.784   2.474
  741SOL    HW1  537   1.784   2.755   2.482
  741SOL    HW2  538   1.681   2.849   2.399
  742SOL     OW  539   1.641   2.970   2.294
  742SOL    HW1  540   1.727   2.972   2.242
  742SOL    HW2  541   1.655   3.017   2.382
  745SOL     OW  542   1.293   3.090   3.285
  745SOL    HW1  543   1.330   3.017   3.227
  745SOL    HW2  544   1.345   3.095   3.370
  746SOL     OW  545   0.809   1.866   2.364
  746SOL    HW1  546   0.849   1.957   2.355
  746SOL    HW2  547   0.709   1.874   2.370
  748SOL     OW  548   1.525   2.861   2.052
  748SOL    HW1  549   1.462   2.785   2.065
  748SOL    HW2  550   1.573   2.879   2.138
  751SOL     OW  551   1.466   3.279   2.815
  751SOL    HW1  552   1.407   3.285   2.895
  751SOL    HW2  553   1.451   3.191   2.769
  752SOL     OW  554   1.667   3.576   2.434
  752SOL    HW1  555   1.626   3.553   2.346
  752SOL    HW2  556   1.649   3.502   2.499
  753SOL     OW  557   0.598   2.591   2.132
  753SOL    HW1  558   0.622   2.660   2.064
  753SOL    HW2  559   0.520   2.624   2.186
  754SOL     OW  560   1.281   2.207   2.806
  754SOL    HW1  561   1.195   2.157   2.793
  754SOL    HW2  562   1.343   2.153   2.862
  755SOL     OW  563   1.576   3.524   2.169
  755SOL    HW1  564   1.665   3.570   2.172
  755SOL    HW2  565   1.555   3.500   2.074
  757SOL     OW  566   1.394   2.331   3.536
  757SOL    HW1  567   1.374   2.374   3.624
  757SOL    HW2  568   1.472   2.269   3.545
  759SOL     OW  569   0.991   2.272   3.104
  759SOL    HW1  570   0.914   2.306   3.158
  759SOL    HW2  571   0.957   2.221   3.025
  760SOL     OW  572   1.041   2.563   2.291
  760SOL    HW1  573   1.067   2.559   2.387
  760SOL    HW2  574   0.956   2.512   2.277
  763SOL     OW  575   0.865   2.210   2.057
  763SOL    HW1  576   0.924   2.273   2.008
  763SOL    HW2  577   0.884   2.116   2.028
  764SOL     OW  578   1.719   2.447   3.693
  764SOL    HW1  579   1.693   2.536   3.657
  764SOL    HW2  580   1.717   2.379   3.620
  765SOL     OW  581   1.362   3.006   2.407
  765SOL    HW1  582   1.445   2.977   2.359
  765SOL    HW2  583   1.313   3.073   2.351
  766SOL     OW  584   0.550   2.058   2.747
  766SOL    HW1  585   0.545   2.053   2.847
  766SOL    HW2  586   0.552   2.154   2.718
  767SOL     OW  587   1.008   3.318   2.339
  767SOL    HW1  588   0.962   3.390   2.287
  767SOL    HW2  589   1.004   3.338   2.437
  769SOL     OW  590   1.795   2.928   2.735
  769SOL    HW1  591   1.733   2.913   2.659
  769SOL    HW2  592   1.743   2.939   2.820
  772SOL     OW  593   1.458   2.597   2.590
  772SOL    HW1  594   1.453   2.532   2.665
  772SOL    HW2  595   1.538   2.656   2.603
  776SOL     OW  596   1.632   3.239   1.943
  776SOL    HW1  597   1.600   3.333   1.933
  776SOL    HW2  598   1.556   3.176   1.931
  778SOL     OW  599   1.400   1.969   2.288
  778SOL    HW1  600   1.376   1.932   2.198
  778SOL    HW2  601   1.499   1.985   2.292
  782SOL     OW  602   1.547   2.084   3.591
  782SOL    HW1  603   1.542   2.121   3.683
  782SOL    HW2  604   1.475   2.015   3.579
  783SOL     OW  605   0.614   1.984   1.979
  783SOL    HW1  606   0.712   1.962   1.986
  783SOL    HW2  607   0.583   1.967   1.886
  786SOL     OW  608   1.351   2.452   3.295
  786SOL    HW1  609   1.379   2.409   3.380
  786SOL    HW2  610   1.376   2.548   3.296
  788SOL     OW  611   0.922   2.365   2.761
  788SOL    HW1  612   0.897   2.356   2.665
  788SOL    HW2  613   0.970   2.283   2.792
  789SOL     OW  614   0.539   1.926   2.374
  789SOL    HW1  615   0.458   1.927   2.432
  789SOL    HW2  616   0.542   2.009   2.319
  790SOL     OW  617   1.434   3.050   1.903
  790SOL    HW1  618   1.466   2.974   1.960
  790SOL    HW2  619   1.342   3.077   1.933
  792SOL     OW  620   0.935   2.098   2.342
  792SOL    HW1  621   0.887   2.139   2.264
  792SOL    HW2  622   1.034   2.096   2.323
  793SOL     OW  623   1.076   2.545   3.326
  793SOL    HW1  624   0.996   2.484   3.329
  793SOL    HW2  625   1.157   2.492   3.302
  794SOL     OW  626   1.227   3.432   2.655
  794SOL    HW1  627   1.248   3.506   2.590
  794SOL    HW2  628   1.295   3.432   2.728
  796SOL     OW  629   1.271   3.659   2.453
  796SOL    HW1  630   1.315   3.723   2.389
  796SOL    HW2  631   1.221   3.711   2.523
  797SOL     OW  632   1.032   2.411   1.878
  797SOL    HW1  633   0.991   2.493   1.839
  797SOL    HW2  634   1.096   2.437   1.951
  800SOL     OW  635   0.866   2.316   2.504
  800SOL    HW1  636   0.834   2.388   2.442
  800SOL    HW2  637   0.890   2.235   2.451
  801SOL     OW  638   1.017   1.901   2.615
  801SOL    HW1  639   0.945   1.906   2.546
  801SOL    HW2  640   0.993   1.832   2.684
  802SOL     OW  641   1.429   3.035   2.729
  802SOL    HW1  642   1.374   2.951   2.722
  802SOL    HW2  643   1.455   3.064   2.637
  803SOL     OW  644   1.466   2.452   2.854
  803SOL    HW1  645   1.436   2.357   2.861
  803SOL    HW2  646   1.539   2.468   2.920
  804SOL     OW  647   1.857   2.695   2.239
  804SOL    HW1  648   1.899   2.631   2.303
  804SOL    HW2  649   1.819   2.644   2.161
  806SOL     OW  650   1.664   3.142   2.519
  806SOL    HW1  651   1.763   3.150   2.533
  806SOL    HW2  652   1.619   3.226   2.550
  807SOL     OW  653   1.390   2.437   1.940
  807SOL    HW1  654   1.336   2.416   2.021
  807SOL    HW2  655   1.481   2.396   1.949
  808SOL     OW  656   0.527   2.118   2.190
  808SOL    HW1  657   0.554   2.059   2.115
  808SOL    HW2  658   0.527   2.213   2.159
  809SOL     OW  659   1.754   3.085   3.450
  809SOL    HW1  660   1.845   3.046   3.437
  809SOL    HW2  661   1.762   3.181   3.474
  812SOL     OW  662   1.111   3.057   2.962
  812SOL    HW1  663   1.071   3.101   3.043
  812SOL    HW2  664   1.070   3.094   2.879
  813SOL     OW  665   1.638   2.961   2.941
  813SOL    HW1  666   1.643   3.042   3.000
  813SOL    HW2  667   1.552   2.963   2.890
  814SOL     OW  668   0.915   1.951   3.264
  814SOL    HW1  669   0.940   1.931   3.169
  814SOL    HW2  670   0.987   2.007   3.306
  816SOL     OW  671   0.705   2.912   2.230
  816SOL    HW1  672   0.691   2.919   2.329
  816SOL    HW2  673   0.789   2.861   2.212
  818SOL     OW  674   1.274   2.248   3.124
  818SOL    HW1  675   1.295   2.322   3.188
  818SOL    HW2  676   1.185   2.265   3.081
  821SOL     OW  677   0.566   2.399   2.727
  821SOL    HW1  678   0.578   2.465   2.653
  821SOL    HW2  679   0.612   2.433   2.810
  822SOL     OW  680   1.252   3.210   2.250
  822SOL    HW1  681   1.302   3.287   2.290
  822SOL    HW2  682   1.157   3.212   2.282
  823SOL     OW  683   1.272   3.307   3.004
  823SOL    HW1  684   1.319   3.320   3.091
  823SOL    HW2  685   1.206   3.233   3.013
  824SOL     OW  686   1.582   2.501   2.334
  824SOL    HW1  687   1.551   2.562   2.407
  824SOL    HW2  688   1.632   2.553   2.265
  827SOL     OW  689   1.587   2.641   3.532
  827SOL    HW1  690   1.495   2.679   3.527
  827SOL    HW2  691   1.647   2.688   3.467
  831SOL     OW  692   1.360   2.724   2.907
  831SOL    HW1  693   1.285   2.724   2.841
  831SOL    HW2  694   1.397   2.632   2.916
  832SOL     OW  695   1.209   2.387   2.137
  832SOL    HW1  696   1.222   2.303   2.191
  832SOL    HW2  697   1.180   2.461   2.197
  835SOL     OW  698   0.732   2.496   2.926
  835SOL    HW1  699   0.791   2.470   2.850
  835SOL    HW2  700   0.704   2.592   2.915
  836SOL     OW  701   1.728   2.797   3.716
  836SOL    HW1  702   1.682   2.790   3.627
  836SOL    HW2  703   1.666   2.841   3.782
  838SOL     OW  704   1.622   2.229   2.236
  838SOL    HW1  705   1.624   2.153   2.300
  838SOL    HW2  706   1.574   2.306   2.276
  839SOL     OW  707   1.023   2.628   2.828
  839SOL    HW1  708   1.038   2.649   2.924
  839SOL    HW2  709   0.993   2.533   2.819
  841SOL     OW  710   1.859   3.380   3.467
  841SOL    HW1  711   1.873   3.407   3.372
  841SOL    HW2  712   1.942   3.402   3.520
  843SOL     OW  713   1.540   2.136   1.987
  843SOL    HW1  714   1.479   2.061   2.010
  843SOL    HW2  715   1.562   2.188   2.070
  844SOL     OW  716   1.303   2.700   1.904
  844SOL    HW1  717   1.337   2.607   1.919
  844SOL    HW2  718   1.321   2.727   1.809
  845SOL     OW  719   1.068   3.195   2.711
  845SOL    HW1  720   1.075   3.111   2.656
  845SOL    HW2  721   1.130   3.264   2.675
  848SOL     OW  722   1.138   2.242   3.540
  848SOL    HW1  723   1.093   2.305   3.604
  848SOL    HW2  724   1.231   2.273   3.523
  849SOL     OW  725   1.160   2.069   3.339
  849SOL    HW1  726   1.160   2.133   3.416
  849SOL    HW2  727   1.188   2.117   3.256
  853SOL     OW  728   1.002   2.658   3.100
  853SOL    HW1  729   1.043   2.626   3.186
  853SOL    HW2  730   0.906   2.631   3.097
  856SOL     OW  731   1.369   2.812   3.522
  856SOL    HW1  732   1.408   2.901   3.542
  856SOL    HW2  733   1.379   2.792   3.425
  857SOL     OW  734   0.815   2.434   2.187
  857SOL    HW1  735   0.822   2.345   2.141
  857SOL    HW2  736   0.721   2.468   2.179
  858SOL     OW  737   1.657   2.466   3.068
  858SOL    HW1  738   1.619   2.397   3.130
  858SOL    HW2  739   1.739   2.430   3.024
  860SOL     OW  740   0.671   2.326   3.131
  860SOL    HW1  741   0.637   2.237   3.101
  860SOL    HW2  742   0.697   2.380   3.051
  862SOL     OW  743   0.473   2.362   2.053
  862SOL    HW1  744   0.534   2.442   2.057
  862SOL    HW2  745   0.378   2.393   2.060
  864SOL     OW  746   1.347   2.921   3.096
  864SOL    HW1  747   1.371   2.858   3.022
  864SOL    HW2  748   1.257   2.961   3.078
  865SOL     OW  749   1.302   2.717   2.171
  865SOL    HW1  750   1.216   2.686   2.213
  865SOL    HW2  751   1.298   2.703   2.072
  866SOL     OW  752   1.759   3.609   3.016
  866SOL    HW1  753   1.820   3.639   2.943
  866SOL    HW2  754   1.721   3.520   2.994
  870SOL     OW  755   1.726   1.997   2.385
  870SOL    HW1  756   1.799   1.980   2.318
  870SOL    HW2  757   1.695   1.910   2.423
  871SOL     OW  758   1.388   3.435   2.339
  871SOL    HW1  759   1.455   3.447   2.265
  871SOL    HW2  760   1.348   3.524   2.362
  873SOL     OW  761   1.280   2.789   2.534
  873SOL    HW1  762   1.340   2.708   2.536
  873SOL    HW2  763   1.320   2.858   2.474
  877SOL     OW  764   1.841   2.037   2.825
  877SOL    HW1  765   1.880   1.952   2.789
  877SOL    HW2  766   1.743   2.039   2.806
  879SOL     OW  767   1.194   3.474   1.893
  879SOL    HW1  768   1.200   3.381   1.930
  879SOL    HW2  769   1.135   3.474   1.813
  881SOL     OW  770   0.916   2.772   2.153
  881SOL    HW1  771   0.979   2.810   2.085
  881SOL    HW2  772   0.956   2.689   2.192
  882SOL     OW  773   1.504   3.469   1.906
  882SOL    HW1  774   1.412   3.506   1.913
  882SOL    HW2  775   1.542   3.489   1.816
  884SOL     OW  776   1.614   3.154   3.151
  884SOL    HW1  777   1.674   3.157   3.231
  884SOL    HW2  778   1.539   3.218   3.164
  885SOL     OW  779   1.039   2.960   2.558
  885SOL    HW1  780   0.969   2.913   2.612
  885SOL    HW2  781   1.098   2.892   2.515
  886SOL     OW  782   1.014   2.098   2.833
  886SOL    HW1  783   1.006   2.062   2.740
  886SOL    HW2  784   1.012   2.022   2.898
  888SOL     OW  785   1.709   2.247   3.243
  888SOL    HW1  786   1.782   2.316   3.247
  888SOL    HW2  787   1.737   2.172   3.184
  893SOL     OW  788   1.440   2.718   3.260
  893SOL    HW1  789   1.383   2.770   3.197
  893SOL    HW2  790   1.536   2.730   3.236
  895SOL     OW  791   1.183   3.197   1.981
  895SOL    HW1  792   1.084   3.186   1.983
  895SOL    HW2  793   1.217   3.212   2.074
  897SOL     OW  794   1.493   3.629   2.821
  897SOL    HW1  795   1.526   3.693   2.752
  897SOL    HW2  796   1.559   3.623   2.896
  899SOL     OW  797   1.450   3.082   3.495
  899SOL    HW1  798   1.441   3.072   3.594
  899SOL    HW2  799   1.546   3.075   3.469
  901SOL     OW  800   1.674   2.745   3.116
  901SOL    HW1  801   1.647   2.656   3.079
  901SOL    HW2  802   1.675   2.813   3.043
  902SOL     OW  803   1.225   2.187   2.311
  902SOL    HW1  804   1.290   2.113   2.300
  902SOL    HW2  805   1.245   2.237   2.395
  903SOL     OW  806   0.594   2.607   2.514
  903SOL    HW1  807   0.644   2.692   2.495
  903SOL    HW2  808   0.506   2.609   2.466
  904SOL     OW  809   1.777   2.204   3.504
  904SOL    HW1  810   1.760   2.235   3.410
  904SOL    HW2  811   1.693   2.167   3.542
  905SOL     OW  812   1.730   2.796   3.379
  905SOL    HW1  813   1.768   2.887   3.394
  905SOL    HW2  814   1.722   2.779   3.280
  906SOL     OW  815   0.859   3.236   1.878
  906SOL    HW1  816   0.813   3.251   1.966
  906SOL    HW2  817   0.903   3.321   1.848
  908SOL     OW  818   0.859   2.818   2.723
  908SOL    HW1  819   0.913   2.749   2.771
  908SOL    HW2  820   0.827   2.887   2.789
  909SOL     OW  821   1.083   2.846   1.949
  909SOL    HW1  822   1.060   2.899   1.867
  909SOL    HW2  823   1.164   2.790   1.930
  910SOL     OW  824   1.861   3.431   2.713
  910SOL    HW1  825   1.790   3.419   2.643
  910SOL    HW2  826   1.862   3.352   2.773
  914SOL     OW  827   1.824   2.054   3.089
  914SOL    HW1  828   1.820   1.964   3.133
  914SOL    HW2  829   1.827   2.043   2.990
  915SOL     OW  830   0.428   2.286   2.382
  915SOL    HW1  831   0.458   2.214   2.320
  915SOL    HW2  832   0.389   2.246   2.465
  916SOL     OW  833   1.705   3.349   2.966
  916SOL    HW1  834   1.612   3.324   2.939
  916SOL    HW2  835   1.731   3.299   3.048
  919SOL     OW  836   1.424   2.076   2.974
  919SOL    HW1  837   1.476   2.011   3.029
  919SOL    HW2  838   1.375   2.139   3.035
  920SOL     OW  839   1.001   1.896   3.016
  920SOL    HW1  840   0.938   1.824   2.985
  920SOL    HW2  841   1.094   1.860   3.016
  921SOL     OW  842   0.770   3.192   2.163
  921SOL    HW1  843   0.724   3.105   2.180
  921SOL    HW2  844   0.861   3.189   2.204
  923SOL     OW  845   1.352   1.914   2.030
  923SOL    HW1  846   1.387   1.873   1.946
  923SOL    HW2  847   1.262   1.876   2.050
  924SOL     OW  848   1.300   2.315   2.553
  924SOL    HW1  849   1.241   2.395   2.557
  924SOL    HW2  850   1.315   2.280   2.646
  925SOL     OW  851   1.593   2.083   2.744
  925SOL    HW1  852   1.509   2.082   2.798
  925SOL    HW2  853   1.595   2.166   2.688
  976SOL     OW  854   1.540   2.136   3.849
  976SOL    HW1  855   1.479   2.061   3.872
  976SOL    HW2  856   1.562   2.188   3.932
 1145SOL     OW  857   1.726   3.859   2.385
 1145SOL    HW1  858   1.799   3.842   2.318
 1145SOL    HW2  859   1.695   3.772   2.423
 1162SOL     OW  860   1.352   3.776   2.030
 1162SOL    HW1  861   1.387   3.735   1.946
 1162SOL    HW2  862   1.262   3.738   2.050
 1198SOL     OW  863   2.431   1.275   1.165
 1198SOL    HW1  864   2.338   1.268   1.128
 1198SOL    HW2  865   2.442   1.364   1.209
 1202SOL     OW  866   2.630   1.144   1.023
 1202SOL    HW1  867   2.552   1.161   1.083
 1202SOL    HW2  868   2.664   1.231   0.987
 1203SOL     OW  869   2.712   0.798   1.823
 1203SOL    HW1  870   2.708   0.874   1.888
 1203SOL    HW2  871   2.734   0.834   1.732
 1205SOL     OW  872   2.548   1.161   1.803
 1205SOL    HW1  873   2.608   1.240   1.817
 1205SOL    HW2  874   2.462   1.192   1.762
 1206SOL     OW  875   2.197   1.435   1.061
 1206SOL    HW1  876   2.119   1.404   1.008
 1206SOL    HW2  877   2.255   1.493   1.004
 1207SOL     OW  878   3.322   1.505   1.339
 1207SOL    HW1  879   3.346   1.599   1.365
 1207SOL    HW2  880   3.306   1.451   1.421
 1211SOL     OW  881   2.989   1.341   1.690
 1211SOL    HW1  882   3.036   1.341   1.778
 1211SOL    HW2  883   2.941   1.254   1.679
 1213SOL     OW  884   2.102   1.091   0.886
 1213SOL    HW1  885   2.116   1.007   0.938
 1213SOL    HW2  886   2.047   1.155   0.941
 1214SOL     OW  887   2.482   1.786   1.439
 1214SOL    HW1  888   2.390   1.769   1.474
 1214SOL    HW2  889   2.510   1.878   1.465
 1222SOL     OW  890   1.975   0.737   1.597
 1222SOL    HW1  891   2.063   0.724   1.642
 1222SOL    HW2  892   1.962   0.834   1.575
 1223SOL     OW  893   2.475   1.365   0.726
 1223SOL    HW1  894   2.426   1.278   0.735
 1223SOL    HW2  895   2.452   1.408   0.639
 1224SOL     OW  896   3.155   1.228   1.423
 1224SOL    HW1  897   3.192   1.155   1.365
 1224SOL    HW2  898   3.207   1.233   1.508
 1226SOL     OW  899   2.059   0.976   1.264
 1226SOL    HW1  900   2.148   0.931   1.250
 1226SOL    HW2  901   1.986   0.911   1.245
 1228SOL     OW  902   3.049   1.792   1.616
 1228SOL    HW1  903   3.073   1.852   1.540
 1228SOL    HW2  904   3.056   1.697   1.586
 1237SOL     OW  905   2.835   0.890   1.572
 1237SOL    HW1  906   2.881   0.806   1.543
 1237SOL    HW2  907   2.779   0.924   1.497
 1241SOL     OW  908   1.992   1.821   1.571
 1241SOL    HW1  909   1.982   1.806   1.670
 1241SOL    HW2  910   1.906   1.857   1.535
 1247SOL     OW  911   2.213   1.801   0.853
 1247SOL    HW1  912   2.263   1.715   0.859
 1247SOL    HW2  913   2.278   1.878   0.850
 1249SOL     OW  914   3.089   1.550   1.506
 1249SOL    HW1  915   3.095   1.473   1.570
 1249SOL    HW2  916   3.037   1.524   1.426
 1252SOL     OW  917   2.323   1.266   1.727
 1252SOL    HW1  918   2.273   1.267   1.641
 1252SOL    HW2  919   2.260   1.248   1.803
 1258SOL     OW  920   2.111   1.785   1.241
 1258SOL    HW1  921   2.168   1.720   1.291
 1258SOL    HW2  922   2.095   1.752   1.148
 1259SOL     OW  923   2.802   1.698   0.904
 1259SOL    HW1  924   2.882   1.641   0.925
 1259SOL    HW2  925   2.753   1.658   0.827
 1264SOL     OW  926   2.750   1.514   1.195
 1264SOL    HW1  927   2.727   1.489   1.101
 1264SOL    HW2  928   2.811   1.445   1.234
 1266SOL     OW  929   2.665   1.402   0.924
 1266SOL    HW1  930   2.755   1.416   0.882
 1266SOL    HW2  931   2.594   1.404   0.853
 1273SOL     OW  932   3.089   1.570   0.793
 1273SOL    HW1  933   3.110   1.644   0.728
 1273SOL    HW2  934   3.157   1.570   0.866
 1289SOL     OW  935   2.926   1.347   1.340
 1289SOL    HW1  936   2.846   1.324   1.395
 1289SOL    HW2  937   3.009   1.321   1.389
 1290SOL     OW  938   3.454   1.629   1.625
 1290SOL    HW1  939   3.481   1.663   1.535
 1290SOL    HW2  940   3.533   1.591   1.671
 1291SOL     OW  941   2.973   1.195   1.100
 1291SOL    HW1  942   2.933   1.239   1.181
 1291SOL    HW2  943   2.932   1.232   1.017
 1294SOL     OW  944   2.842   1.116   1.719
 1294SOL    HW1  945   2.743   1.122   1.729
 1294SOL    HW2  946   2.865   1.036   1.663
 1296SOL     OW  947   2.272   0.813   1.251
 1296SOL    HW1  948   2.358   0.825   1.301
 1296SOL    HW2  949   2.230   0.726   1.278
 1298SOL     OW  950   1.926   1.564   1.331
 1298SOL    HW1  951   1.880   1.646   1.297
 1298SOL    HW2  952   2.024   1.583   1.340
 1302SOL     OW  953   3.134   1.445   1.142
 1302SOL    HW1  954   3.181   1.458   1.229
 1302SOL    HW2  955   3.068   1.371   1.151
 1304SOL     OW  956   2.216   1.510   1.329
 1304SOL    HW1  957   2.195   1.466   1.242
 1304SOL    HW2  958   2.313   1.536   1.332
 1305SOL     OW  959   2.264   0.751   1.598
 1305SOL    HW1  960   2.332   0.806   1.551
 1305SOL    HW2  961   2.304   0.663   1.625
 1313SOL     OW  962   1.899   1.310   1.282
 1313SOL    HW1  963   1.952   1.261   1.350
 1313SOL    HW2  964   1.921   1.408   1.287
 1319SOL     OW  965   2.842   1.573   1.700
 1319SOL    HW1  966   2.822   1.617   1.612
 1319SOL    HW2  967   2.881   1.482   1.684
 1320SOL     OW  968   3.721   1.518   1.605
 1320SOL    HW1  969   3.735   1.545   1.510
 1320SOL    HW2  970   3.804   1.540   1.658
 1321SOL     OW  971   2.212   0.898   1.804
 1321SOL    HW1  972   2.288   0.942   1.852
 1321SOL    HW2  973   2.247   0.851   1.722
 1324SOL     OW  974   2.930   1.333   0.849
 1324SOL    HW1  975   2.937   1.249   0.794
 1324SOL    HW2  976   2.992   1.402   0.813
 1330SOL     OW  977   1.950   1.801   0.927
 1330SOL    HW1  978   1.908   1.715   0.900
 1330SOL    HW2  979   2.044   1.804   0.893
 1331SOL     OW  980   2.366   1.568   0.910
 1331SOL    HW1  981   2.432   1.642   0.919
 1331SOL    HW2  982   2.410   1.489   0.868
 1334SOL     OW  983   2.051   0.520   1.722
 1334SOL    HW1  984   2.110   0.480   1.652
 1334SOL    HW2  985   1.993   0.591   1.681
 1335SOL     OW  986   3.231   0.950   1.660
 1335SOL    HW1  987   3.270   1.039   1.680
 1335SOL    HW2  988   3.241   0.930   1.563
 1338SOL     OW  989   2.114   1.564   1.744
 1338SOL    HW1  990   2.084   1.621   1.820
 1338SOL    HW2  991   2.107   1.467   1.770
 1340SOL     OW  992   2.792   1.678   1.465
 1340SOL    HW1  993   2.768   1.660   1.370
 1340SOL    HW2  994   2.822   1.772   1.475
 1342SOL     OW  995   2.021   1.137   1.466
 1342SOL    HW1  996   2.043   1.076   1.542
 1342SOL    HW2  997   2.031   1.088   1.380
 1346SOL     OW  998   3.114   1.731   1.128
 1346SOL    HW1  999   3.198   1.736   1.074
 1346SOL    HW2 1000   3.091   1.635   1.146
 1347SOL     OW 1001   1.945   1.258   1.022
 1347SOL    HW1 1002   1.940   1.257   1.122
 1347SOL    HW2 1003   1.862   1.217   0.984
 1348SOL     OW 1004   2.550   1.662   1.716
 1348SOL    HW1 1005   2.494   1.743   1.725
 1348SOL    HW2 1006   2.602   1.666   1.630
 1352SOL     OW 1007   1.992   1.794   1.851
 1352SOL    HW1 1008   1.951   1.720   1.904
 1352SOL    HW2 1009   2.056   1.845   1.909
 1354SOL     OW 1010   2.692   1.273   1.422
 1354SOL    HW1 1011   2.687   1.306   1.517
 1354SOL    HW2 1012   2.606   1.292   1.376
 1356SOL     OW 1013   3.512   1.720   1.394
 1356SOL    HW1 1014   3.565   1.730   1.310
 1356SOL    HW2 1015   3.485   1.810   1.428
 1360SOL     OW 1016   2.684   1.002   1.372
 1360SOL    HW1 1017   2.724   1.001   1.280
 1360SOL    HW2 1018   2.694   1.094   1.412
 1363SOL     OW 1019   2.234   1.288   1.490
 1363SOL    HW1 1020   2.221   1.381   1.456
 1363SOL    HW2 1021   2.150   1.236   1.477
 1370SOL     OW 1022   1.967   1.013   1.726
 1370SOL    HW1 1023   1.890   0.980   1.780
 1370SOL    HW2 1024   2.052   0.983   1.768
 1375SOL     OW 1025   2.475   0.842   1.431
 1375SOL    HW1 1026   2.531   0.923   1.414
 1375SOL    HW2 1027   2.534   0.762   1.434
 1376SOL     OW 1028   3.355   1.767   0.959
 1376SOL    HW1 1029   3.388   1.831   0.890
 1376SOL    HW2 1030   3.421   1.761   1.034
 1377SOL     OW 1031   2.578   0.565   1.708
 1377SOL    HW1 1032   2.597   0.630   1.782
 1377SOL    HW2 1033   2.638   0.485   1.717
 1378SOL     OW 1034   3.312   1.220   1.633
 1378SOL    HW1 1035   3.303   1.210   1.732
 1378SOL    HW2 1036   3.408   1.213   1.607
 1379SOL     OW 1037   2.252   1.741   1.560
 1379SOL    HW1 1038   2.161   1.782   1.558
 1379SOL    HW2 1039   2.245   1.647   1.592
 1386SOL     OW 1040   2.523   1.790   0.953
 1386SOL    HW1 1041   2.477   1.878   0.940
 1386SOL    HW2 1042   2.622   1.802   0.946
 1390SOL     OW 1043   2.083   1.314   1.844
 1390SOL    HW1 1044   2.018   1.241   1.823
 1390SOL    HW2 1045   2.087   1.328   1.942
 1392SOL     OW 1046   2.534   1.391   1.624
 1392SOL    HW1 1047   2.456   1.341   1.662
 1392SOL    HW2 1048   2.531   1.486   1.655
 1397SOL     OW 1049   2.674   1.586   0.687
 1397SOL    HW1 1050   2.706   1.596   0.593
 1397SOL    HW2 1051   2.595   1.524   0.689
 1401SOL     OW 1052   2.480   1.567   1.284
 1401SOL    HW1 1053   2.475   1.649   1.341
 1401SOL    HW2 1054   2.569   1.564   1.239
 1407SOL     OW 1055   2.092   0.628   1.975
 1407SOL    HW1 1056   1.999   0.626   2.012
 1407SOL    HW2 1057   2.093   0.589   1.883
 1410SOL     OW 1058   2.431   1.275   3.027
 1410SOL    HW1 1059   2.338   1.268   2.990
 1410SOL    HW2 1060   2.442   1.364   3.071
 1411SOL     OW 1061   3.417   1.511   2.565
 1411SOL    HW1 1062   3.360   1.495   2.646
 1411SOL    HW2 1063   3.358   1.521   2.485
 1412SOL     OW 1064   2.997   0.703   2.579
 1412SOL    HW1 1065   3.054   0.781   2.554
 1412SOL    HW2 1066   2.937   0.729   2.655
 1414SOL     OW 1067   2.630   1.144   2.885
 1414SOL    HW1 1068   2.552   1.161   2.945
 1414SOL    HW2 1069   2.664   1.231   2.849
 1416SOL     OW 1070   2.547   1.012   2.527
 1416SOL    HW1 1071   2.616   0.996   2.597
 1416SOL    HW2 1072   2.474   1.069   2.565
 1418SOL     OW 1073   2.197   1.435   2.923
 1418SOL    HW1 1074   2.119   1.404   2.870
 1418SOL    HW2 1075   2.255   1.493   2.866
 1419SOL     OW 1076   3.322   1.505   3.201
 1419SOL    HW1 1077   3.346   1.599   3.227
 1419SOL    HW2 1078   3.306   1.451   3.283
 1422SOL     OW 1079   2.093   1.713   2.345
 1422SOL    HW1 1080   2.127   1.790   2.399
 1422SOL    HW2 1081   2.137   1.713   2.255
 1423SOL     OW 1082   2.989   1.341   3.552
 1423SOL    HW1 1083   3.036   1.341   3.640
 1423SOL    HW2 1084   2.941   1.254   3.541
 1424SOL     OW 1085   2.092   1.434   2.400
 1424SOL    HW1 1086   2.066   1.530   2.400
 1424SOL    HW2 1087   2.021   1.380   2.445
 1425SOL     OW 1088   2.102   1.091   2.748
 1425SOL    HW1 1089   2.116   1.007   2.800
 1425SOL    HW2 1090   2.047   1.155   2.803
 1426SOL     OW 1091   2.482   1.786   3.301
 1426SOL    HW1 1092   2.390   1.769   3.336
 1426SOL    HW2 1093   2.510   1.878   3.327
 1427SOL     OW 1094   2.468   0.964   1.985
 1427SOL    HW1 1095   2.475   1.048   1.931
 1427SOL    HW2 1096   2.514   0.977   2.073
 1429SOL     OW 1097   1.984   0.643   2.425
 1429SOL    HW1 1098   1.939   0.555   2.442
 1429SOL    HW2 1099   1.983   0.697   2.509
 1430SOL     OW 1100   3.704   1.767   2.221
 1430SOL    HW1 1101   3.758   1.738   2.301
 1430SOL    HW2 1102   3.734   1.857   2.192
 1431SOL     OW 1103   1.889   1.596   1.979
 1431SOL    HW1 1104   1.870   1.500   2.000
 1431SOL    HW2 1105   1.856   1.654   2.054
 1433SOL     OW 1106   3.503   1.108   2.294
 1433SOL    HW1 1107   3.589   1.110   2.242
 1433SOL    HW2 1108   3.517   1.155   2.382
 1435SOL     OW 1109   2.475   1.365   2.588
 1435SOL    HW1 1110   2.426   1.278   2.597
 1435SOL    HW2 1111   2.452   1.408   2.501
 1436SOL     OW 1112   3.155   1.228   3.285
 1436SOL    HW1 1113   3.192   1.155   3.227
 1436SOL    HW2 1114   3.207   1.233   3.370
 1438SOL     OW 1115   2.059   0.976   3.126
 1438SOL    HW1 1116   2.148   0.931   3.112
 1438SOL    HW2 1117   1.986   0.911   3.107
 1439SOL     OW 1118   3.387   0.999   2.052
 1439SOL    HW1 1119   3.324   0.923   2.065
 1439SOL    HW2 1120   3.435   1.017   2.138
 1440SOL     OW 1121   3.049   1.792   3.478
 1440SOL    HW1 1122   3.073   1.852   3.402
 1440SOL    HW2 1123   3.056   1.697   3.448
 1442SOL     OW 1124   3.328   1.417   2.815
 1442SOL    HW1 1125   3.269   1.423   2.895
 1442SOL    HW2 1126   3.313   1.329   2.769
 1443SOL     OW 1127   3.529   1.714   2.434
 1443SOL    HW1 1128   3.488   1.691   2.346
 1443SOL    HW2 1129   3.511   1.640   2.499
 1444SOL     OW 1130   2.460   0.729   2.132
 1444SOL    HW1 1131   2.484   0.798   2.064
 1444SOL    HW2 1132   2.382   0.762   2.186
 1446SOL     OW 1133   3.438   1.662   2.169
 1446SOL    HW1 1134   3.527   1.708   2.172
 1446SOL    HW2 1135   3.417   1.638   2.074
 1451SOL     OW 1136   2.903   0.701   2.291
 1451SOL    HW1 1137   2.929   0.697   2.387
 1451SOL    HW2 1138   2.818   0.650   2.277
 1452SOL     OW 1139   1.938   0.811   2.651
 1452SOL    HW1 1140   2.037   0.799   2.660
 1452SOL    HW2 1141   1.914   0.906   2.672
 1453SOL     OW 1142   1.992   1.821   3.433
 1453SOL    HW1 1143   1.982   1.806   3.532
 1453SOL    HW2 1144   1.906   1.857   3.397
 1456SOL     OW 1145   3.224   1.144   2.407
 1456SOL    HW1 1146   3.307   1.115   2.359
 1456SOL    HW2 1147   3.175   1.211   2.351
 1458SOL     OW 1148   2.870   1.456   2.339
 1458SOL    HW1 1149   2.824   1.528   2.287
 1458SOL    HW2 1150   2.866   1.476   2.437
 1459SOL     OW 1151   2.213   1.801   2.715
 1459SOL    HW1 1152   2.263   1.715   2.721
 1459SOL    HW2 1153   2.278   1.878   2.712
 1461SOL     OW 1154   3.089   1.550   3.368
 1461SOL    HW1 1155   3.095   1.473   3.432
 1461SOL    HW2 1156   3.037   1.524   3.288
 1462SOL     OW 1157   2.183   0.943   2.104
 1462SOL    HW1 1158   2.265   0.982   2.062
 1462SOL    HW2 1159   2.156   0.861   2.055
 1464SOL     OW 1160   2.323   1.266   3.589
 1464SOL    HW1 1161   2.273   1.267   3.503
 1464SOL    HW2 1162   2.260   1.248   3.665
 1465SOL     OW 1163   2.973   1.776   2.099
 1465SOL    HW1 1164   2.913   1.714   2.149
 1465SOL    HW2 1165   3.004   1.732   2.014
 1467SOL     OW 1166   3.494   1.377   1.943
 1467SOL    HW1 1167   3.462   1.471   1.933
 1467SOL    HW2 1168   3.418   1.314   1.931
 1468SOL     OW 1169   2.326   1.743   2.185
 1468SOL    HW1 1170   2.359   1.782   2.271
 1468SOL    HW2 1171   2.402   1.736   2.120
 1470SOL     OW 1172   2.111   1.785   3.103
 1470SOL    HW1 1173   2.168   1.720   3.153
 1470SOL    HW2 1174   2.095   1.752   3.010
 1471SOL     OW 1175   2.802   1.698   2.766
 1471SOL    HW1 1176   2.882   1.641   2.787
 1471SOL    HW2 1177   2.753   1.658   2.689
 1472SOL     OW 1178   2.244   0.700   2.342
 1472SOL    HW1 1179   2.289   0.610   2.339
 1472SOL    HW2 1180   2.150   0.689   2.375
 1476SOL     OW 1181   2.750   1.514   3.057
 1476SOL    HW1 1182   2.727   1.489   2.963
 1476SOL    HW2 1183   2.811   1.445   3.096
 1478SOL     OW 1184   2.665   1.402   2.786
 1478SOL    HW1 1185   2.755   1.416   2.744
 1478SOL    HW2 1186   2.594   1.404   2.715
 1481SOL     OW 1187   3.296   1.188   1.903
 1481SOL    HW1 1188   3.328   1.112   1.960
 1481SOL    HW2 1189   3.204   1.215   1.933
 1485SOL     OW 1190   3.089   1.570   2.655
 1485SOL    HW1 1191   3.110   1.644   2.590
 1485SOL    HW2 1192   3.157   1.570   2.728
 1486SOL     OW 1193   2.321   1.152   2.603
 1486SOL    HW1 1194   2.250   1.125   2.668
 1486SOL    HW2 1195   2.295   1.124   2.510
 1487SOL     OW 1196   3.133   1.797   2.453
 1487SOL    HW1 1197   3.177   1.861   2.389
 1487SOL    HW2 1198   3.083   1.849   2.523
 1493SOL     OW 1199   3.291   1.173   2.729
 1493SOL    HW1 1200   3.236   1.089   2.722
 1493SOL    HW2 1201   3.317   1.202   2.637
 1496SOL     OW 1202   2.350   1.385   2.036
 1496SOL    HW1 1203   2.263   1.370   2.083
 1496SOL    HW2 1204   2.333   1.411   1.941
 1497SOL     OW 1205   3.526   1.280   2.519
 1497SOL    HW1 1206   3.625   1.288   2.533
 1497SOL    HW2 1207   3.481   1.364   2.550
 1501SOL     OW 1208   2.926   1.347   3.202
 1501SOL    HW1 1209   2.846   1.324   3.257
 1501SOL    HW2 1210   3.009   1.321   3.251
 1503SOL     OW 1211   2.973   1.195   2.962
 1503SOL    HW1 1212   2.933   1.239   3.043
 1503SOL    HW2 1213   2.932   1.232   2.879
 1507SOL     OW 1214   2.567   1.050   2.230
 1507SOL    HW1 1215   2.553   1.057   2.329
 1507SOL    HW2 1216   2.651   0.999   2.212
 1508SOL     OW 1217   2.272   0.813   3.113
 1508SOL    HW1 1218   2.358   0.825   3.163
 1508SOL    HW2 1219   2.230   0.726   3.140
 1510SOL     OW 1220   1.926   1.564   3.193
 1510SOL    HW1 1221   1.880   1.646   3.159
 1510SOL    HW2 1222   2.024   1.583   3.202
 1511SOL     OW 1223   2.229   1.100   2.363
 1511SOL    HW1 1224   2.222   1.183   2.307
 1511SOL    HW2 1225   2.233   1.020   2.303
 1512SOL     OW 1226   2.428   0.537   2.727
 1512SOL    HW1 1227   2.440   0.603   2.653
 1512SOL    HW2 1228   2.474   0.571   2.810
 1513SOL     OW 1229   3.114   1.348   2.250
 1513SOL    HW1 1230   3.164   1.425   2.290
 1513SOL    HW2 1231   3.019   1.350   2.282
 1514SOL     OW 1232   3.134   1.445   3.004
 1514SOL    HW1 1233   3.181   1.458   3.091
 1514SOL    HW2 1234   3.068   1.371   3.013
 1516SOL     OW 1235   2.216   1.510   3.191
 1516SOL    HW1 1236   2.195   1.466   3.104
 1516SOL    HW2 1237   2.313   1.536   3.194
 1521SOL     OW 1238   2.435   0.870   2.891
 1521SOL    HW1 1239   2.479   0.959   2.882
 1521SOL    HW2 1240   2.372   0.870   2.968
 1525SOL     OW 1241   1.899   1.310   3.144
 1525SOL    HW1 1242   1.952   1.261   3.212
 1525SOL    HW2 1243   1.921   1.408   3.149
 1526SOL     OW 1244   2.594   0.634   2.926
 1526SOL    HW1 1245   2.653   0.608   2.850
 1526SOL    HW2 1246   2.566   0.730   2.915
 1530SOL     OW 1247   2.885   0.766   2.828
 1530SOL    HW1 1248   2.900   0.787   2.924
 1530SOL    HW2 1249   2.855   0.671   2.819
 1531SOL     OW 1250   2.842   1.573   3.562
 1531SOL    HW1 1251   2.822   1.617   3.474
 1531SOL    HW2 1252   2.881   1.482   3.546
 1535SOL     OW 1253   3.165   0.838   1.904
 1535SOL    HW1 1254   3.199   0.745   1.919
 1535SOL    HW2 1255   3.183   0.865   1.809
 1536SOL     OW 1256   2.930   1.333   2.711
 1536SOL    HW1 1257   2.937   1.249   2.656
 1536SOL    HW2 1258   2.992   1.402   2.675
 1537SOL     OW 1259   2.181   0.810   2.811
 1537SOL    HW1 1260   2.274   0.846   2.816
 1537SOL    HW2 1261   2.175   0.725   2.863
 1541SOL     OW 1262   1.870   1.326   2.062
 1541SOL    HW1 1263   1.777   1.347   2.031
 1541SOL    HW2 1264   1.880   1.227   2.075
 1542SOL     OW 1265   1.950   1.801   2.789
 1542SOL    HW1 1266   1.908   1.715   2.762
 1542SOL    HW2 1267   2.044   1.804   2.755
 1543SOL     OW 1268   2.366   1.568   2.772
 1543SOL    HW1 1269   2.432   1.642   2.781
 1543SOL    HW2 1270   2.410   1.489   2.730
 1544SOL     OW 1271   2.864   0.796   3.100
 1544SOL    HW1 1272   2.905   0.764   3.186
 1544SOL    HW2 1273   2.768   0.769   3.097
 1548SOL     OW 1274   2.677   0.572   2.187
 1548SOL    HW1 1275   2.684   0.483   2.141
 1548SOL    HW2 1276   2.583   0.606   2.179
 1550SOL     OW 1277   2.114   1.564   3.606
 1550SOL    HW1 1278   2.084   1.621   3.682
 1550SOL    HW2 1279   2.107   1.467   3.632
 1552SOL     OW 1280   2.792   1.678   3.327
 1552SOL    HW1 1281   2.768   1.660   3.232
 1552SOL    HW2 1282   2.822   1.772   3.337
 1553SOL     OW 1283   2.335   0.500   2.053
 1553SOL    HW1 1284   2.396   0.580   2.057
 1553SOL    HW2 1285   2.240   0.531   2.060
 1554SOL     OW 1286   2.021   1.137   3.328
 1554SOL    HW1 1287   2.043   1.076   3.404
 1554SOL    HW2 1288   2.031   1.088   3.242
 1555SOL     OW 1289   3.209   1.059   3.096
 1555SOL    HW1 1290   3.233   0.996   3.022
 1555SOL    HW2 1291   3.119   1.099   3.078
 1556SOL     OW 1292   3.164   0.855   2.171
 1556SOL    HW1 1293   3.078   0.824   2.213
 1556SOL    HW2 1294   3.160   0.841   2.072
 1557SOL     OW 1295   3.621   1.747   3.016
 1557SOL    HW1 1296   3.682   1.777   2.943
 1557SOL    HW2 1297   3.583   1.658   2.994
 1558SOL     OW 1298   3.114   1.731   2.990
 1558SOL    HW1 1299   3.198   1.736   2.936
 1558SOL    HW2 1300   3.091   1.635   3.008
 1559SOL     OW 1301   1.945   1.258   2.884
 1559SOL    HW1 1302   1.940   1.257   2.984
 1559SOL    HW2 1303   1.862   1.217   2.846
 1560SOL     OW 1304   2.550   1.662   3.578
 1560SOL    HW1 1305   2.494   1.743   3.587
 1560SOL    HW2 1306   2.602   1.666   3.492
 1562SOL     OW 1307   3.250   1.573   2.339
 1562SOL    HW1 1308   3.317   1.585   2.265
 1562SOL    HW2 1309   3.210   1.662   2.362
 1563SOL     OW 1310   1.992   1.794   3.713
 1563SOL    HW1 1311   1.951   1.720   3.766
 1563SOL    HW2 1312   2.056   1.845   3.771
 1564SOL     OW 1313   3.142   0.927   2.534
 1564SOL    HW1 1314   3.202   0.846   2.536
 1564SOL    HW2 1315   3.182   0.996   2.474
 1565SOL     OW 1316   2.692   1.273   3.284
 1565SOL    HW1 1317   2.687   1.306   3.379
 1565SOL    HW2 1318   2.606   1.292   3.238
 1566SOL     OW 1319   2.534   1.616   2.016
 1566SOL    HW1 1320   2.543   1.626   1.917
 1566SOL    HW2 1321   2.494   1.527   2.037
 1567SOL     OW 1322   3.512   1.720   3.256
 1567SOL    HW1 1323   3.565   1.730   3.172
 1567SOL    HW2 1324   3.485   1.810   3.290
 1570SOL     OW 1325   3.056   1.612   1.893
 1570SOL    HW1 1326   3.062   1.519   1.930
 1570SOL    HW2 1327   2.997   1.612   1.813
 1571SOL     OW 1328   2.684   1.002   3.234
 1571SOL    HW1 1329   2.724   1.001   3.142
 1571SOL    HW2 1330   2.694   1.094   3.274
 1572SOL     OW 1331   2.778   0.910   2.153
 1572SOL    HW1 1332   2.841   0.948   2.085
 1572SOL    HW2 1333   2.818   0.827   2.192
 1573SOL     OW 1334   3.366   1.607   1.906
 1573SOL    HW1 1335   3.274   1.644   1.913
 1573SOL    HW2 1336   3.404   1.627   1.816
 1574SOL     OW 1337   2.234   1.288   3.352
 1574SOL    HW1 1338   2.221   1.381   3.318
 1574SOL    HW2 1339   2.150   1.236   3.339
 1576SOL     OW 1340   2.901   1.098   2.558
 1576SOL    HW1 1341   2.831   1.051   2.612
 1576SOL    HW2 1342   2.960   1.030   2.515
 1578SOL     OW 1343   2.452   1.487   2.353
 1578SOL    HW1 1344   2.494   1.429   2.283
 1578SOL    HW2 1345   2.408   1.566   2.309
 1580SOL     OW 1346   2.117   1.348   2.152
 1580SOL    HW1 1347   2.021   1.349   2.125
 1580SOL    HW2 1348   2.129   1.401   2.236
 1586SOL     OW 1349   3.045   1.335   1.981
 1586SOL    HW1 1350   2.946   1.324   1.983
 1586SOL    HW2 1351   3.079   1.350   2.074
 1587SOL     OW 1352   2.475   0.842   3.293
 1587SOL    HW1 1353   2.531   0.923   3.276
 1587SOL    HW2 1354   2.534   0.762   3.296
 1588SOL     OW 1355   3.355   1.767   2.821
 1588SOL    HW1 1356   3.388   1.831   2.752
 1588SOL    HW2 1357   3.421   1.761   2.896
 1591SOL     OW 1358   2.252   1.741   3.422
 1591SOL    HW1 1359   2.161   1.782   3.420
 1591SOL    HW2 1360   2.245   1.647   3.454
 1594SOL     OW 1361   2.456   0.745   2.514
 1594SOL    HW1 1362   2.506   0.830   2.495
 1594SOL    HW2 1363   2.368   0.747   2.466
 1597SOL     OW 1364   2.721   1.374   1.878
 1597SOL    HW1 1365   2.675   1.389   1.966
 1597SOL    HW2 1366   2.765   1.459   1.848
 1598SOL     OW 1367   2.523   1.790   2.815
 1598SOL    HW1 1368   2.477   1.878   2.802
 1598SOL    HW2 1369   2.622   1.802   2.808
 1599SOL     OW 1370   2.721   0.956   2.723
 1599SOL    HW1 1371   2.775   0.887   2.771
 1599SOL    HW2 1372   2.689   1.025   2.789
 1600SOL     OW 1373   2.945   0.984   1.949
 1600SOL    HW1 1374   2.922   1.037   1.867
 1600SOL    HW2 1375   3.026   0.928   1.930
 1601SOL     OW 1376   3.723   1.569   2.713
 1601SOL    HW1 1377   3.652   1.557   2.643
 1601SOL    HW2 1378   3.724   1.490   2.773
 1602SOL     OW 1379   2.083   1.314   3.706
 1602SOL    HW1 1380   2.018   1.241   3.685
 1602SOL    HW2 1381   2.087   1.328   3.804
 1603SOL     OW 1382   1.941   1.240   2.515
 1603SOL    HW1 1383   1.940   1.193   2.603
 1603SOL    HW2 1384   2.023   1.212   2.464
 1604SOL     OW 1385   2.534   1.391   3.486
 1604SOL    HW1 1386   2.456   1.341   3.524
 1604SOL    HW2 1387   2.531   1.486   3.517
 1606SOL     OW 1388   2.290   0.424   2.382
 1606SOL    HW1 1389   2.320   0.352   2.320
 1606SOL    HW2 1390   2.251   0.384   2.465
 1607SOL     OW 1391   3.567   1.487   2.966
 1607SOL    HW1 1392   3.474   1.462   2.939
 1607SOL    HW2 1393   3.593   1.437   3.048
 1609SOL     OW 1394   2.674   1.586   2.549
 1609SOL    HW1 1395   2.706   1.596   2.455
 1609SOL    HW2 1396   2.595   1.524   2.551
 1612SOL     OW 1397   2.632   1.330   2.163
 1612SOL    HW1 1398   2.586   1.243   2.180
 1612SOL    HW2 1399   2.723   1.327   2.204
 1613SOL     OW 1400   2.480   1.567   3.146
 1613SOL    HW1 1401   2.475   1.649   3.203
 1613SOL    HW2 1402   2.569   1.564   3.101
 1617SOL     OW 1403   1.901   1.077   2.162
 1617SOL    HW1 1404   2.000   1.066   2.153
 1617SOL    HW2 1405   1.861   0.991   2.194
 1618SOL     OW 1406   2.737   1.646   2.199
 1618SOL    HW1 1407   2.660   1.611   2.145
 1618SOL    HW2 1408   2.705   1.717   2.261
 1626SOL     OW 1409   1.889   1.596   3.841
 1626SOL    HW1 1410   1.870   1.500   3.862
 1626SOL    HW2 1411   1.856   1.654   3.916
 1675SOL     OW 1412   2.534   1.616   3.878
 1675SOL    HW1 1413   2.543   1.626   3.779
 1675SOL    HW2 1414   2.494   1.527   3.899
 1697SOL     OW 1415   2.087   2.137   0.996
 1697SOL    HW1 1416   2.122   2.120   1.088
 1697SOL    HW2 1417   1.999   2.092   0.984
 1698SOL     OW 1418   1.881   2.230   0.647
 1698SOL    HW1 1419   1.799   2.273   0.686
 1698SOL    HW2 1420   1.853   2.157   0.584
 1699SOL     OW 1421   2.431   3.137   1.165
 1699SOL    HW1 1422   2.338   3.130   1.128
 1699SOL    HW2 1423   2.442   3.226   1.209
 1701SOL     OW 1424   2.997   2.565   0.717
 1701SOL    HW1 1425   3.054   2.643   0.692
 1701SOL    HW2 1426   2.937   2.591   0.793
 1703SOL     OW 1427   2.630   3.006   1.023
 1703SOL    HW1 1428   2.552   3.023   1.083
 1703SOL    HW2 1429   2.664   3.093   0.987
 1704SOL     OW 1430   2.712   2.660   1.823
 1704SOL    HW1 1431   2.708   2.736   1.888
 1704SOL    HW2 1432   2.734   2.696   1.732
 1705SOL     OW 1433   2.547   2.874   0.665
 1705SOL    HW1 1434   2.616   2.858   0.735
 1705SOL    HW2 1435   2.474   2.931   0.703
 1706SOL     OW 1436   2.548   3.023   1.803
 1706SOL    HW1 1437   2.608   3.102   1.817
 1706SOL    HW2 1438   2.462   3.054   1.762
 1707SOL     OW 1439   2.197   3.297   1.061
 1707SOL    HW1 1440   2.119   3.266   1.008
 1707SOL    HW2 1441   2.255   3.355   1.004
 1709SOL     OW 1442   2.300   2.254   1.499
 1709SOL    HW1 1443   2.382   2.198   1.508
 1709SOL    HW2 1444   2.219   2.196   1.503
 1712SOL     OW 1445   2.989   3.203   1.690
 1712SOL    HW1 1446   3.036   3.203   1.778
 1712SOL    HW2 1447   2.941   3.116   1.679
 1714SOL     OW 1448   2.102   2.953   0.886
 1714SOL    HW1 1449   2.116   2.869   0.938
 1714SOL    HW2 1450   2.047   3.017   0.941
 1715SOL     OW 1451   2.482   3.648   1.439
 1715SOL    HW1 1452   2.390   3.631   1.474
 1715SOL    HW2 1453   2.510   3.740   1.465
 1717SOL     OW 1454   3.456   1.976   1.480
 1717SOL    HW1 1455   3.438   2.043   1.408
 1717SOL    HW2 1456   3.453   2.022   1.569
 1718SOL     OW 1457   1.984   2.505   0.563
 1718SOL    HW1 1458   1.939   2.417   0.580
 1718SOL    HW2 1459   1.983   2.559   0.647
 1723SOL     OW 1460   1.975   2.599   1.597
 1723SOL    HW1 1461   2.063   2.586   1.642
 1723SOL    HW2 1462   1.962   2.696   1.575
 1725SOL     OW 1463   3.155   3.090   1.423
 1725SOL    HW1 1464   3.192   3.017   1.365
 1725SOL    HW2 1465   3.207   3.095   1.508
 1727SOL     OW 1466   2.059   2.838   1.264
 1727SOL    HW1 1467   2.148   2.793   1.250
 1727SOL    HW2 1468   1.986   2.773   1.245
 1729SOL     OW 1469   3.049   3.654   1.616
 1729SOL    HW1 1470   3.073   3.714   1.540
 1729SOL    HW2 1471   3.056   3.559   1.586
 1730SOL     OW 1472   2.179   2.113   1.801
 1730SOL    HW1 1473   2.250   2.184   1.807
 1730SOL    HW2 1474   2.091   2.152   1.829
 1734SOL     OW 1475   3.143   2.207   0.944
 1734SOL    HW1 1476   3.057   2.157   0.931
 1734SOL    HW2 1477   3.205   2.153   1.000
 1736SOL     OW 1478   2.669   2.467   1.465
 1736SOL    HW1 1479   2.622   2.464   1.554
 1736SOL    HW2 1480   2.618   2.412   1.399
 1737SOL     OW 1481   3.256   2.331   1.674
 1737SOL    HW1 1482   3.236   2.374   1.762
 1737SOL    HW2 1483   3.334   2.269   1.683
 1738SOL     OW 1484   2.835   2.752   1.572
 1738SOL    HW1 1485   2.881   2.668   1.543
 1738SOL    HW2 1486   2.779   2.786   1.497
 1739SOL     OW 1487   2.853   2.272   1.242
 1739SOL    HW1 1488   2.776   2.306   1.296
 1739SOL    HW2 1489   2.819   2.221   1.163
 1741SOL     OW 1490   1.938   2.673   0.789
 1741SOL    HW1 1491   2.037   2.661   0.798
 1741SOL    HW2 1492   1.914   2.768   0.810
 1742SOL     OW 1493   1.992   3.683   1.571
 1742SOL    HW1 1494   1.982   3.668   1.670
 1742SOL    HW2 1495   1.906   3.719   1.535
 1744SOL     OW 1496   3.581   2.447   1.831
 1744SOL    HW1 1497   3.555   2.536   1.795
 1744SOL    HW2 1498   3.579   2.379   1.758
 1746SOL     OW 1499   2.412   2.058   0.885
 1746SOL    HW1 1500   2.407   2.053   0.985
 1746SOL    HW2 1501   2.414   2.154   0.856
 1750SOL     OW 1502   3.089   3.412   1.506
 1750SOL    HW1 1503   3.095   3.335   1.570
 1750SOL    HW2 1504   3.037   3.386   1.426
 1753SOL     OW 1505   2.323   3.128   1.727
 1753SOL    HW1 1506   2.273   3.129   1.641
 1753SOL    HW2 1507   2.260   3.110   1.803
 1755SOL     OW 1508   2.064   2.147   1.498
 1755SOL    HW1 1509   1.984   2.207   1.485
 1755SOL    HW2 1510   2.054   2.098   1.584
 1759SOL     OW 1511   2.111   3.647   1.241
 1759SOL    HW1 1512   2.168   3.582   1.291
 1759SOL    HW2 1513   2.095   3.614   1.148
 1761SOL     OW 1514   2.244   2.562   0.480
 1761SOL    HW1 1515   2.289   2.472   0.477
 1761SOL    HW2 1516   2.150   2.551   0.513
 1762SOL     OW 1517   3.409   2.084   1.729
 1762SOL    HW1 1518   3.404   2.121   1.821
 1762SOL    HW2 1519   3.337   2.015   1.717
 1764SOL     OW 1520   2.643   2.126   1.749
 1764SOL    HW1 1521   2.710   2.065   1.792
 1764SOL    HW2 1522   2.570   2.145   1.814
 1765SOL     OW 1523   2.750   3.376   1.195
 1765SOL    HW1 1524   2.727   3.351   1.101
 1765SOL    HW2 1525   2.811   3.307   1.234
 1766SOL     OW 1526   3.213   2.452   1.433
 1766SOL    HW1 1527   3.241   2.409   1.518
 1766SOL    HW2 1528   3.238   2.548   1.434
 1767SOL     OW 1529   2.665   3.264   0.924
 1767SOL    HW1 1530   2.755   3.278   0.882
 1767SOL    HW2 1531   2.594   3.266   0.853
 1768SOL     OW 1532   2.784   2.365   0.899
 1768SOL    HW1 1533   2.759   2.356   0.803
 1768SOL    HW2 1534   2.832   2.283   0.930
 1769SOL     OW 1535   2.401   1.926   0.512
 1769SOL    HW1 1536   2.320   1.927   0.570
 1769SOL    HW2 1537   2.404   2.009   0.457
 1772SOL     OW 1538   2.938   2.545   1.464
 1772SOL    HW1 1539   2.858   2.484   1.467
 1772SOL    HW2 1540   3.019   2.492   1.440
 1774SOL     OW 1541   2.321   3.014   0.741
 1774SOL    HW1 1542   2.250   2.987   0.806
 1774SOL    HW2 1543   2.295   2.986   0.648
 1777SOL     OW 1544   1.940   2.418   1.386
 1777SOL    HW1 1545   2.032   2.417   1.345
 1777SOL    HW2 1546   1.934   2.492   1.453
 1778SOL     OW 1547   2.423   2.084   1.147
 1778SOL    HW1 1548   2.461   2.000   1.184
 1778SOL    HW2 1549   2.335   2.103   1.191
 1779SOL     OW 1550   2.728   2.316   0.642
 1779SOL    HW1 1551   2.696   2.388   0.580
 1779SOL    HW2 1552   2.752   2.235   0.589
 1780SOL     OW 1553   2.879   1.901   0.753
 1780SOL    HW1 1554   2.807   1.906   0.684
 1780SOL    HW2 1555   2.855   1.832   0.822
 1782SOL     OW 1556   3.328   2.452   0.992
 1782SOL    HW1 1557   3.298   2.357   0.999
 1782SOL    HW2 1558   3.401   2.468   1.058
 1788SOL     OW 1559   3.616   3.085   1.588
 1788SOL    HW1 1560   3.707   3.046   1.575
 1788SOL    HW2 1561   3.624   3.181   1.612
 1789SOL     OW 1562   2.926   3.209   1.340
 1789SOL    HW1 1563   2.846   3.186   1.395
 1789SOL    HW2 1564   3.009   3.183   1.389
 1791SOL     OW 1565   2.973   3.057   1.100
 1791SOL    HW1 1566   2.933   3.101   1.181
 1791SOL    HW2 1567   2.932   3.094   1.017
 1793SOL     OW 1568   2.777   1.951   1.402
 1793SOL    HW1 1569   2.802   1.931   1.307
 1793SOL    HW2 1570   2.849   2.007   1.444
 1794SOL     OW 1571   2.842   2.978   1.719
 1794SOL    HW1 1572   2.743   2.984   1.729
 1794SOL    HW2 1573   2.865   2.898   1.663
 1796SOL     OW 1574   2.272   2.675   1.251
 1796SOL    HW1 1575   2.358   2.687   1.301
 1796SOL    HW2 1576   2.230   2.588   1.278
 1797SOL     OW 1577   3.136   2.248   1.262
 1797SOL    HW1 1578   3.157   2.322   1.326
 1797SOL    HW2 1579   3.047   2.265   1.219
 1798SOL     OW 1580   1.926   3.426   1.331
 1798SOL    HW1 1581   1.880   3.508   1.297
 1798SOL    HW2 1582   2.024   3.445   1.340
 1800SOL     OW 1583   2.428   2.399   0.865
 1800SOL    HW1 1584   2.440   2.465   0.791
 1800SOL    HW2 1585   2.474   2.433   0.948
 1802SOL     OW 1586   3.134   3.307   1.142
 1802SOL    HW1 1587   3.181   3.320   1.229
 1802SOL    HW2 1588   3.068   3.233   1.151
 1804SOL     OW 1589   2.216   3.372   1.329
 1804SOL    HW1 1590   2.195   3.328   1.242
 1804SOL    HW2 1591   2.313   3.398   1.332
 1805SOL     OW 1592   2.264   2.613   1.598
 1805SOL    HW1 1593   2.332   2.668   1.551
 1805SOL    HW2 1594   2.304   2.525   1.625
 1806SOL     OW 1595   3.449   2.641   1.670
 1806SOL    HW1 1596   3.357   2.679   1.665
 1806SOL    HW2 1597   3.509   2.688   1.605
 1807SOL     OW 1598   2.875   1.967   1.770
 1807SOL    HW1 1599   2.881   2.052   1.718
 1807SOL    HW2 1600   2.907   1.891   1.713
 1808SOL     OW 1601   2.366   1.912   1.740
 1808SOL    HW1 1602   2.324   1.855   1.670
 1808SOL    HW2 1603   2.300   1.981   1.772
 1809SOL     OW 1604   2.435   2.732   1.029
 1809SOL    HW1 1605   2.479   2.821   1.020
 1809SOL    HW2 1606   2.372   2.732   1.106
 1810SOL     OW 1607   3.222   2.724   1.045
 1810SOL    HW1 1608   3.147   2.724   0.979
 1810SOL    HW2 1609   3.259   2.632   1.054
 1812SOL     OW 1610   2.169   2.075   1.231
 1812SOL    HW1 1611   2.146   2.112   1.321
 1812SOL    HW2 1612   2.139   1.980   1.225
 1813SOL     OW 1613   1.899   3.172   1.282
 1813SOL    HW1 1614   1.952   3.123   1.350
 1813SOL    HW2 1615   1.921   3.270   1.287
 1814SOL     OW 1616   2.594   2.496   1.064
 1814SOL    HW1 1617   2.653   2.470   0.988
 1814SOL    HW2 1618   2.566   2.592   1.053
 1815SOL     OW 1619   3.590   2.797   1.854
 1815SOL    HW1 1620   3.544   2.790   1.765
 1815SOL    HW2 1621   3.528   2.841   1.920
 1816SOL     OW 1622   2.169   1.925   0.618
 1816SOL    HW1 1623   2.158   2.019   0.651
 1816SOL    HW2 1624   2.164   1.862   0.695
 1818SOL     OW 1625   2.885   2.628   0.966
 1818SOL    HW1 1626   2.900   2.649   1.062
 1818SOL    HW2 1627   2.855   2.533   0.957
 1819SOL     OW 1628   2.842   3.435   1.700
 1819SOL    HW1 1629   2.822   3.479   1.612
 1819SOL    HW2 1630   2.881   3.344   1.684
 1821SOL     OW 1631   2.212   2.760   1.804
 1821SOL    HW1 1632   2.288   2.804   1.852
 1821SOL    HW2 1633   2.247   2.713   1.722
 1825SOL     OW 1634   2.181   2.672   0.949
 1825SOL    HW1 1635   2.274   2.708   0.954
 1825SOL    HW2 1636   2.175   2.587   1.001
 1826SOL     OW 1637   2.201   2.371   1.006
 1826SOL    HW1 1638   2.149   2.288   0.989
 1826SOL    HW2 1639   2.278   2.376   0.942
 1827SOL     OW 1640   3.000   2.242   1.678
 1827SOL    HW1 1641   2.955   2.305   1.742
 1827SOL    HW2 1642   3.093   2.273   1.661
 1828SOL     OW 1643   3.022   2.069   1.477
 1828SOL    HW1 1644   3.022   2.133   1.554
 1828SOL    HW2 1645   3.050   2.117   1.394
 1831SOL     OW 1646   2.366   3.430   0.910
 1831SOL    HW1 1647   2.432   3.504   0.919
 1831SOL    HW2 1648   2.410   3.351   0.868
 1832SOL     OW 1649   2.864   2.658   1.238
 1832SOL    HW1 1650   2.905   2.626   1.324
 1832SOL    HW2 1651   2.768   2.631   1.235
 1833SOL     OW 1652   1.902   2.406   1.114
 1833SOL    HW1 1653   1.987   2.373   1.073
 1833SOL    HW2 1654   1.915   2.421   1.212
 1834SOL     OW 1655   2.051   2.382   1.722
 1834SOL    HW1 1656   2.110   2.342   1.652
 1834SOL    HW2 1657   1.993   2.453   1.681
 1835SOL     OW 1658   3.231   2.812   1.660
 1835SOL    HW1 1659   3.270   2.901   1.680
 1835SOL    HW2 1660   3.241   2.792   1.563
 1837SOL     OW 1661   3.519   2.466   1.206
 1837SOL    HW1 1662   3.481   2.397   1.268
 1837SOL    HW2 1663   3.601   2.430   1.162
 1838SOL     OW 1664   2.114   3.426   1.744
 1838SOL    HW1 1665   2.084   3.483   1.820
 1838SOL    HW2 1666   2.107   3.329   1.770
 1839SOL     OW 1667   2.533   2.326   1.269
 1839SOL    HW1 1668   2.499   2.237   1.239
 1839SOL    HW2 1669   2.559   2.380   1.189
 1840SOL     OW 1670   2.792   3.540   1.465
 1840SOL    HW1 1671   2.768   3.522   1.370
 1840SOL    HW2 1672   2.822   3.634   1.475
 1842SOL     OW 1673   2.021   2.999   1.466
 1842SOL    HW1 1674   2.043   2.938   1.542
 1842SOL    HW2 1675   2.031   2.950   1.380
 1843SOL     OW 1676   3.209   2.921   1.234
 1843SOL    HW1 1677   3.233   2.858   1.160
 1843SOL    HW2 1678   3.119   2.961   1.216
 1847SOL     OW 1679   1.945   3.120   1.022
 1847SOL    HW1 1680   1.940   3.119   1.122
 1847SOL    HW2 1681   1.862   3.079   0.984
 1848SOL     OW 1682   2.550   3.524   1.716
 1848SOL    HW1 1683   2.494   3.605   1.725
 1848SOL    HW2 1684   2.602   3.528   1.630
 1852SOL     OW 1685   1.992   3.656   1.851
 1852SOL    HW1 1686   1.951   3.582   1.904
 1852SOL    HW2 1687   2.056   3.707   1.909
 1854SOL     OW 1688   2.692   3.135   1.422
 1854SOL    HW1 1689   2.687   3.168   1.517
 1854SOL    HW2 1690   2.606   3.154   1.376
 1858SOL     OW 1691   2.125   2.188   0.720
 1858SOL    HW1 1692   2.046   2.239   0.686
 1858SOL    HW2 1693   2.116   2.173   0.818
 1860SOL     OW 1694   2.684   2.864   1.372
 1860SOL    HW1 1695   2.724   2.863   1.280
 1860SOL    HW2 1696   2.694   2.956   1.412
 1863SOL     OW 1697   2.234   3.150   1.490
 1863SOL    HW1 1698   2.221   3.243   1.456
 1863SOL    HW2 1699   2.150   3.098   1.477
 1866SOL     OW 1700   2.876   2.098   0.971
 1866SOL    HW1 1701   2.868   2.062   0.878
 1866SOL    HW2 1702   2.874   2.022   1.036
 1868SOL     OW 1703   3.571   2.247   1.381
 1868SOL    HW1 1704   3.644   2.316   1.385
 1868SOL    HW2 1705   3.599   2.172   1.322
 1870SOL     OW 1706   1.967   2.875   1.726
 1870SOL    HW1 1707   1.890   2.842   1.780
 1870SOL    HW2 1708   2.052   2.845   1.768
 1871SOL     OW 1709   2.534   2.065   1.489
 1871SOL    HW1 1710   2.624   2.049   1.449
 1871SOL    HW2 1711   2.542   2.070   1.588
 1873SOL     OW 1712   3.302   2.718   1.398
 1873SOL    HW1 1713   3.245   2.770   1.335
 1873SOL    HW2 1714   3.398   2.730   1.374
 1875SOL     OW 1715   2.475   2.704   1.431
 1875SOL    HW1 1716   2.531   2.785   1.414
 1875SOL    HW2 1717   2.534   2.624   1.434
 1877SOL     OW 1718   2.578   2.427   1.708
 1877SOL    HW1 1719   2.597   2.492   1.782
 1877SOL    HW2 1720   2.638   2.347   1.717
 1878SOL     OW 1721   3.312   3.082   1.633
 1878SOL    HW1 1722   3.303   3.072   1.732
 1878SOL    HW2 1723   3.408   3.075   1.607
 1879SOL     OW 1724   2.252   3.603   1.560
 1879SOL    HW1 1725   2.161   3.644   1.558
 1879SOL    HW2 1726   2.245   3.509   1.592
 1880SOL     OW 1727   3.536   2.745   1.254
 1880SOL    HW1 1728   3.509   2.656   1.217
 1880SOL    HW2 1729   3.537   2.813   1.181
 1882SOL     OW 1730   2.456   2.607   0.652
 1882SOL    HW1 1731   2.506   2.692   0.633
 1882SOL    HW2 1732   2.368   2.609   0.604
 1883SOL     OW 1733   3.639   2.204   1.642
 1883SOL    HW1 1734   3.622   2.235   1.548
 1883SOL    HW2 1735   3.555   2.167   1.680
 1884SOL     OW 1736   3.592   2.796   1.517
 1884SOL    HW1 1737   3.630   2.887   1.532
 1884SOL    HW2 1738   3.584   2.779   1.418
 1887SOL     OW 1739   2.721   2.818   0.861
 1887SOL    HW1 1740   2.775   2.749   0.909
 1887SOL    HW2 1741   2.689   2.887   0.927
 1890SOL     OW 1742   2.083   3.176   1.844
 1890SOL    HW1 1743   2.018   3.103   1.823
 1890SOL    HW2 1744   2.087   3.190   1.942
 1892SOL     OW 1745   2.534   3.253   1.624
 1892SOL    HW1 1746   2.456   3.203   1.662
 1892SOL    HW2 1747   2.531   3.348   1.655
 1893SOL     OW 1748   3.686   2.054   1.227
 1893SOL    HW1 1749   3.682   1.964   1.271
 1893SOL    HW2 1750   3.689   2.043   1.128
 1894SOL     OW 1751   2.290   2.286   0.520
 1894SOL    HW1 1752   2.320   2.214   0.458
 1894SOL    HW2 1753   2.251   2.246   0.603
 1896SOL     OW 1754   2.179   2.409   1.280
 1896SOL    HW1 1755   2.217   2.350   1.352
 1896SOL    HW2 1756   2.219   2.383   1.192
 1898SOL     OW 1757   3.286   2.076   1.112
 1898SOL    HW1 1758   3.338   2.011   1.167
 1898SOL    HW2 1759   3.237   2.139   1.173
 1899SOL     OW 1760   2.863   1.896   1.154
 1899SOL    HW1 1761   2.800   1.824   1.123
 1899SOL    HW2 1762   2.956   1.860   1.154
 1901SOL     OW 1763   2.480   3.429   1.284
 1901SOL    HW1 1764   2.475   3.511   1.341
 1901SOL    HW2 1765   2.569   3.426   1.239
 1903SOL     OW 1766   3.162   2.315   0.691
 1903SOL    HW1 1767   3.103   2.395   0.695
 1903SOL    HW2 1768   3.177   2.280   0.784
 1907SOL     OW 1769   2.092   2.490   1.975
 1907SOL    HW1 1770   1.999   2.488   2.012
 1907SOL    HW2 1771   2.093   2.451   1.883
 1908SOL     OW 1772   2.087   2.137   2.858
 1908SOL    HW1 1773   2.122   2.120   2.950
 1908SOL    HW2 1774   1.999   2.092   2.846
 1909SOL     OW 1775   1.881   2.230   2.509
 1909SOL    HW1 1776   1.799   2.273   2.548
 1909SOL    HW2 1777   1.853   2.157   2.446
 1910SOL     OW 1778   2.431   3.137   3.027
 1910SOL    HW1 1779   2.338   3.130   2.990
 1910SOL    HW2 1780   2.442   3.226   3.071
 1911SOL     OW 1781   3.417   3.373   2.565
 1911SOL    HW1 1782   3.360   3.357   2.646
 1911SOL    HW2 1783   3.358   3.383   2.485
 1912SOL     OW 1784   2.997   2.565   2.579
 1912SOL    HW1 1785   3.054   2.643   2.554
 1912SOL    HW2 1786   2.937   2.591   2.655
 1913SOL     OW 1787   3.617   2.469   2.093
 1913SOL    HW1 1788   3.605   2.456   1.994
 1913SOL    HW2 1789   3.587   2.388   2.142
 1914SOL     OW 1790   2.630   3.006   2.885
 1914SOL    HW1 1791   2.552   3.023   2.945
 1914SOL    HW2 1792   2.664   3.093   2.849
 1915SOL     OW 1793   2.712   2.660   3.685
 1915SOL    HW1 1794   2.708   2.736   3.750
 1915SOL    HW2 1795   2.734   2.696   3.594
 1916SOL     OW 1796   2.547   2.874   2.527
 1916SOL    HW1 1797   2.616   2.858   2.597
 1916SOL    HW2 1798   2.474   2.931   2.565
 1917SOL     OW 1799   2.548   3.023   3.665
 1917SOL    HW1 1800   2.608   3.102   3.679
 1917SOL    HW2 1801   2.462   3.054   3.624
 1918SOL     OW 1802   2.197   3.297   2.923
 1918SOL    HW1 1803   2.119   3.266   2.870
 1918SOL    HW2 1804   2.255   3.355   2.866
 1920SOL     OW 1805   2.300   2.254   3.361
 1920SOL    HW1 1806   2.382   2.198   3.370
 1920SOL    HW2 1807   2.219   2.196   3.365
 1921SOL     OW 1808   3.465   2.309   2.599
 1921SOL    HW1 1809   3.391   2.355   2.549
 1921SOL    HW2 1810   3.516   2.377   2.652
 1922SOL     OW 1811   2.093   3.575   2.345
 1922SOL    HW1 1812   2.127   3.652   2.399
 1922SOL    HW2 1813   2.137   3.575   2.255
 1924SOL     OW 1814   2.092   3.296   2.400
 1924SOL    HW1 1815   2.066   3.392   2.400
 1924SOL    HW2 1816   2.021   3.242   2.445
 1925SOL     OW 1817   2.102   2.953   2.748
 1925SOL    HW1 1818   2.116   2.869   2.800
 1925SOL    HW2 1819   2.047   3.017   2.803
 1927SOL     OW 1820   2.468   2.826   1.985
 1927SOL    HW1 1821   2.475   2.910   1.931
 1927SOL    HW2 1822   2.514   2.839   2.073
 1928SOL     OW 1823   3.456   1.976   3.342
 1928SOL    HW1 1824   3.438   2.043   3.270
 1928SOL    HW2 1825   3.453   2.022   3.431
 1929SOL     OW 1826   1.984   2.505   2.425
 1929SOL    HW1 1827   1.939   2.417   2.442
 1929SOL    HW2 1828   1.983   2.559   2.509
 1931SOL     OW 1829   1.889   3.458   1.979
 1931SOL    HW1 1830   1.870   3.362   2.000
 1931SOL    HW2 1831   1.856   3.516   2.054
 1932SOL     OW 1832   3.551   2.784   2.474
 1932SOL    HW1 1833   3.646   2.755   2.482
 1932SOL    HW2 1834   3.543   2.849   2.399
 1933SOL     OW 1835   3.503   2.970   2.294
 1933SOL    HW1 1836   3.589   2.972   2.242
 1933SOL    HW2 1837   3.517   3.017   2.382
 1934SOL     OW 1838   1.975   2.599   3.459
 1934SOL    HW1 1839   2.063   2.586   3.504
 1934SOL    HW2 1840   1.962   2.696   3.437
 1935SOL     OW 1841   2.475   3.227   2.588
 1935SOL    HW1 1842   2.426   3.140   2.597
 1935SOL    HW2 1843   2.452   3.270   2.501
 1936SOL     OW 1844   3.155   3.090   3.285
 1936SOL    HW1 1845   3.192   3.017   3.227
 1936SOL    HW2 1846   3.207   3.095   3.370
 1937SOL     OW 1847   2.671   1.866   2.364
 1937SOL    HW1 1848   2.711   1.957   2.355
 1937SOL    HW2 1849   2.571   1.874   2.370
 1938SOL     OW 1850   2.059   2.838   3.126
 1938SOL    HW1 1851   2.148   2.793   3.112
 1938SOL    HW2 1852   1.986   2.773   3.107
 1939SOL     OW 1853   3.387   2.861   2.052
 1939SOL    HW1 1854   3.324   2.785   2.065
 1939SOL    HW2 1855   3.435   2.879   2.138
 1941SOL     OW 1856   2.179   2.113   3.663
 1941SOL    HW1 1857   2.250   2.184   3.669
 1941SOL    HW2 1858   2.091   2.152   3.691
 1942SOL     OW 1859   3.328   3.279   2.815
 1942SOL    HW1 1860   3.269   3.285   2.895
 1942SOL    HW2 1861   3.313   3.191   2.769
 1944SOL     OW 1862   2.460   2.591   2.132
 1944SOL    HW1 1863   2.484   2.660   2.064
 1944SOL    HW2 1864   2.382   2.624   2.186
 1945SOL     OW 1865   3.143   2.207   2.806
 1945SOL    HW1 1866   3.057   2.157   2.793
 1945SOL    HW2 1867   3.205   2.153   2.862
 1946SOL     OW 1868   3.438   3.524   2.169
 1946SOL    HW1 1869   3.527   3.570   2.172
 1946SOL    HW2 1870   3.417   3.500   2.074
 1947SOL     OW 1871   2.669   2.467   3.327
 1947SOL    HW1 1872   2.622   2.464   3.416
 1947SOL    HW2 1873   2.618   2.412   3.261
 1948SOL     OW 1874   3.256   2.331   3.536
 1948SOL    HW1 1875   3.236   2.374   3.624
 1948SOL    HW2 1876   3.334   2.269   3.545
 1949SOL     OW 1877   2.835   2.752   3.434
 1949SOL    HW1 1878   2.881   2.668   3.405
 1949SOL    HW2 1879   2.779   2.786   3.359
 1950SOL     OW 1880   2.853   2.272   3.104
 1950SOL    HW1 1881   2.776   2.306   3.158
 1950SOL    HW2 1882   2.819   2.221   3.025
 1951SOL     OW 1883   2.903   2.563   2.291
 1951SOL    HW1 1884   2.929   2.559   2.387
 1951SOL    HW2 1885   2.818   2.512   2.277
 1952SOL     OW 1886   1.938   2.673   2.651
 1952SOL    HW1 1887   2.037   2.661   2.660
 1952SOL    HW2 1888   1.914   2.768   2.672
 1954SOL     OW 1889   2.727   2.210   2.057
 1954SOL    HW1 1890   2.786   2.273   2.008
 1954SOL    HW2 1891   2.746   2.116   2.028
 1956SOL     OW 1892   3.224   3.006   2.407
 1956SOL    HW1 1893   3.307   2.977   2.359
 1956SOL    HW2 1894   3.175   3.073   2.351
 1957SOL     OW 1895   2.412   2.058   2.747
 1957SOL    HW1 1896   2.407   2.053   2.847
 1957SOL    HW2 1897   2.414   2.154   2.718
 1958SOL     OW 1898   2.870   3.318   2.339
 1958SOL    HW1 1899   2.824   3.390   2.287
 1958SOL    HW2 1900   2.866   3.338   2.437
 1959SOL     OW 1901   2.213   3.663   2.715
 1959SOL    HW1 1902   2.263   3.577   2.721
 1959SOL    HW2 1903   2.278   3.740   2.712
 1960SOL     OW 1904   3.657   2.928   2.735
 1960SOL    HW1 1905   3.595   2.913   2.659
 1960SOL    HW2 1906   3.605   2.939   2.820
 1962SOL     OW 1907   2.183   2.805   2.104
 1962SOL    HW1 1908   2.265   2.844   2.062
 1962SOL    HW2 1909   2.156   2.723   2.055
 1963SOL     OW 1910   3.320   2.597   2.590
 1963SOL    HW1 1911   3.315   2.532   2.665
 1963SOL    HW2 1912   3.400   2.656   2.603
 1964SOL     OW 1913   2.323   3.128   3.589
 1964SOL    HW1 1914   2.273   3.129   3.503
 1964SOL    HW2 1915   2.260   3.110   3.665
 1965SOL     OW 1916   2.973   3.638   2.099
 1965SOL    HW1 1917   2.913   3.576   2.149
 1965SOL    HW2 1918   3.004   3.594   2.014
 1966SOL     OW 1919   2.064   2.147   3.360
 1966SOL    HW1 1920   1.984   2.207   3.347
 1966SOL    HW2 1921   2.054   2.098   3.446
 1967SOL     OW 1922   3.494   3.239   1.943
 1967SOL    HW1 1923   3.462   3.333   1.933
 1967SOL    HW2 1924   3.418   3.176   1.931
 1968SOL     OW 1925   2.326   3.605   2.185
 1968SOL    HW1 1926   2.359   3.644   2.271
 1968SOL    HW2 1927   2.402   3.598   2.120
 1969SOL     OW 1928   3.262   1.969   2.288
 1969SOL    HW1 1929   3.238   1.932   2.198
 1969SOL    HW2 1930   3.361   1.985   2.292
 1970SOL     OW 1931   2.111   3.647   3.103
 1970SOL    HW1 1932   2.168   3.582   3.153
 1970SOL    HW2 1933   2.095   3.614   3.010
 1971SOL     OW 1934   2.802   3.560   2.766
 1971SOL    HW1 1935   2.882   3.503   2.787
 1971SOL    HW2 1936   2.753   3.520   2.689
 1972SOL     OW 1937   2.244   2.562   2.342
 1972SOL    HW1 1938   2.289   2.472   2.339
 1972SOL    HW2 1939   2.150   2.551   2.375
 1974SOL     OW 1940   2.476   1.984   1.979
 1974SOL    HW1 1941   2.574   1.962   1.986
 1974SOL    HW2 1942   2.445   1.967   1.886
 1975SOL     OW 1943   2.643   2.126   3.611
 1975SOL    HW1 1944   2.710   2.065   3.654
 1975SOL    HW2 1945   2.570   2.145   3.676
 1976SOL     OW 1946   2.750   3.376   3.057
 1976SOL    HW1 1947   2.727   3.351   2.963
 1976SOL    HW2 1948   2.811   3.307   3.096
 1977SOL     OW 1949   3.213   2.452   3.295
 1977SOL    HW1 1950   3.241   2.409   3.380
 1977SOL    HW2 1951   3.238   2.548   3.296
 1978SOL     OW 1952   2.665   3.264   2.786
 1978SOL    HW1 1953   2.755   3.278   2.744
 1978SOL    HW2 1954   2.594   3.266   2.715
 1979SOL     OW 1955   2.784   2.365   2.761
 1979SOL    HW1 1956   2.759   2.356   2.665
 1979SOL    HW2 1957   2.832   2.283   2.792
 1980SOL     OW 1958   2.401   1.926   2.374
 1980SOL    HW1 1959   2.320   1.927   2.432
 1980SOL    HW2 1960   2.404   2.009   2.319
 1981SOL     OW 1961   3.296   3.050   1.903
 1981SOL    HW1 1962   3.328   2.974   1.960
 1981SOL    HW2 1963   3.204   3.077   1.933
 1982SOL     OW 1964   2.159   1.897   2.033
 1982SOL    HW1 1965   2.208   1.981   2.012
 1982SOL    HW2 1966   2.221   1.832   2.078
 1983SOL     OW 1967   2.797   2.098   2.342
 1983SOL    HW1 1968   2.749   2.139   2.264
 1983SOL    HW2 1969   2.896   2.096   2.323
 1984SOL     OW 1970   2.938   2.545   3.326
 1984SOL    HW1 1971   2.858   2.484   3.329
 1984SOL    HW2 1972   3.019   2.492   3.302
 1985SOL     OW 1973   3.089   3.432   2.655
 1985SOL    HW1 1974   3.110   3.506   2.590
 1985SOL    HW2 1975   3.157   3.432   2.728
 1986SOL     OW 1976   2.321   3.014   2.603
 1986SOL    HW1 1977   2.250   2.987   2.668
 1986SOL    HW2 1978   2.295   2.986   2.510
 1987SOL     OW 1979   3.133   3.659   2.453
 1987SOL    HW1 1980   3.177   3.723   2.389
 1987SOL    HW2 1981   3.083   3.711   2.523
 1988SOL     OW 1982   2.894   2.411   1.878
 1988SOL    HW1 1983   2.853   2.493   1.839
 1988SOL    HW2 1984   2.958   2.437   1.951
 1989SOL     OW 1985   1.940   2.418   3.248
 1989SOL    HW1 1986   2.032   2.417   3.207
 1989SOL    HW2 1987   1.934   2.492   3.315
 1990SOL     OW 1988   2.423   2.084   3.009
 1990SOL    HW1 1989   2.461   2.000   3.046
 1990SOL    HW2 1990   2.335   2.103   3.053
 1991SOL     OW 1991   2.728   2.316   2.504
 1991SOL    HW1 1992   2.696   2.388   2.442
 1991SOL    HW2 1993   2.752   2.235   2.451
 1992SOL     OW 1994   2.879   1.901   2.615
 1992SOL    HW1 1995   2.807   1.906   2.546
 1992SOL    HW2 1996   2.855   1.832   2.684
 1993SOL     OW 1997   3.291   3.035   2.729
 1993SOL    HW1 1998   3.236   2.951   2.722
 1993SOL    HW2 1999   3.317   3.064   2.637
 1994SOL     OW 2000   3.328   2.452   2.854
 1994SOL    HW1 2001   3.298   2.357   2.861
 1994SOL    HW2 2002   3.401   2.468   2.920
 1995SOL     OW 2003   3.719   2.695   2.239
 1995SOL    HW1 2004   3.761   2.631   2.303
 1995SOL    HW2 2005   3.681   2.644   2.161
 1996SOL     OW 2006   2.350   3.247   2.036
 1996SOL    HW1 2007   2.263   3.232   2.083
 1996SOL    HW2 2008   2.333   3.273   1.941
 1997SOL     OW 2009   3.526   3.142   2.519
 1997SOL    HW1 2010   3.625   3.150   2.533
 1997SOL    HW2 2011   3.481   3.226   2.550
 1998SOL     OW 2012   3.252   2.437   1.940
 1998SOL    HW1 2013   3.198   2.416   2.021
 1998SOL    HW2 2014   3.343   2.396   1.949
 2000SOL     OW 2015   2.926   3.209   3.202
 2000SOL    HW1 2016   2.846   3.186   3.257
 2000SOL    HW2 2017   3.009   3.183   3.251
 2002SOL     OW 2018   2.973   3.057   2.962
 2002SOL    HW1 2019   2.933   3.101   3.043
 2002SOL    HW2 2020   2.932   3.094   2.879
 2003SOL     OW 2021   3.500   2.961   2.941
 2003SOL    HW1 2022   3.505   3.042   3.000
 2003SOL    HW2 2023   3.414   2.963   2.890
 2004SOL     OW 2024   2.777   1.951   3.264
 2004SOL    HW1 2025   2.802   1.931   3.169
 2004SOL    HW2 2026   2.849   2.007   3.306
 2005SOL     OW 2027   2.842   2.978   3.581
 2005SOL    HW1 2028   2.743   2.984   3.591
 2005SOL    HW2 2029   2.865   2.898   3.525
 2006SOL     OW 2030   2.567   2.912   2.230
 2006SOL    HW1 2031   2.553   2.919   2.329
 2006SOL    HW2 2032   2.651   2.861   2.212
 2007SOL     OW 2033   2.272   2.675   3.113
 2007SOL    HW1 2034   2.358   2.687   3.163
 2007SOL    HW2 2035   2.230   2.588   3.140
 2008SOL     OW 2036   3.136   2.248   3.124
 2008SOL    HW1 2037   3.157   2.322   3.188
 2008SOL    HW2 2038   3.047   2.265   3.081
 2009SOL     OW 2039   1.926   3.426   3.193
 2009SOL    HW1 2040   1.880   3.508   3.159
 2009SOL    HW2 2041   2.024   3.445   3.202
 2010SOL     OW 2042   2.229   2.962   2.363
 2010SOL    HW1 2043   2.222   3.045   2.307
 2010SOL    HW2 2044   2.233   2.882   2.303
 2011SOL     OW 2045   2.428   2.399   2.727
 2011SOL    HW1 2046   2.440   2.465   2.653
 2011SOL    HW2 2047   2.474   2.433   2.810
 2012SOL     OW 2048   3.114   3.210   2.250
 2012SOL    HW1 2049   3.164   3.287   2.290
 2012SOL    HW2 2050   3.019   3.212   2.282
 2013SOL     OW 2051   3.134   3.307   3.004
 2013SOL    HW1 2052   3.181   3.320   3.091
 2013SOL    HW2 2053   3.068   3.233   3.013
 2014SOL     OW 2054   3.444   2.501   2.334
 2014SOL    HW1 2055   3.413   2.562   2.407
 2014SOL    HW2 2056   3.494   2.553   2.265
 2015SOL     OW 2057   2.216   3.372   3.191
 2015SOL    HW1 2058   2.195   3.328   3.104
 2015SOL    HW2 2059   2.313   3.398   3.194
 2016SOL     OW 2060   2.264   2.613   3.460
 2016SOL    HW1 2061   2.332   2.668   3.413
 2016SOL    HW2 2062   2.304   2.525   3.487
 2018SOL     OW 2063   2.875   1.967   3.632
 2018SOL    HW1 2064   2.881   2.052   3.580
 2018SOL    HW2 2065   2.907   1.891   3.575
 2019SOL     OW 2066   2.366   1.912   3.602
 2019SOL    HW1 2067   2.324   1.855   3.532
 2019SOL    HW2 2068   2.300   1.981   3.634
 2020SOL     OW 2069   2.435   2.732   2.891
 2020SOL    HW1 2070   2.479   2.821   2.882
 2020SOL    HW2 2071   2.372   2.732   2.968
 2021SOL     OW 2072   3.222   2.724   2.907
 2021SOL    HW1 2073   3.147   2.724   2.841
 2021SOL    HW2 2074   3.259   2.632   2.916
 2022SOL     OW 2075   3.071   2.387   2.137
 2022SOL    HW1 2076   3.084   2.303   2.191
 2022SOL    HW2 2077   3.042   2.461   2.197
 2023SOL     OW 2078   2.169   2.075   3.093
 2023SOL    HW1 2079   2.146   2.112   3.183
 2023SOL    HW2 2080   2.139   1.980   3.087
 2024SOL     OW 2081   1.899   3.172   3.144
 2024SOL    HW1 2082   1.952   3.123   3.212
 2024SOL    HW2 2083   1.921   3.270   3.149
 2025SOL     OW 2084   2.594   2.496   2.926
 2025SOL    HW1 2085   2.653   2.470   2.850
 2025SOL    HW2 2086   2.566   2.592   2.915
 2027SOL     OW 2087   2.169   1.925   2.480
 2027SOL    HW1 2088   2.158   2.019   2.513
 2027SOL    HW2 2089   2.164   1.862   2.557
 2028SOL     OW 2090   3.484   2.229   2.236
 2028SOL    HW1 2091   3.486   2.153   2.300
 2028SOL    HW2 2092   3.436   2.306   2.276
 2029SOL     OW 2093   2.885   2.628   2.828
 2029SOL    HW1 2094   2.900   2.649   2.924
 2029SOL    HW2 2095   2.855   2.533   2.819
 2032SOL     OW 2096   2.212   2.760   3.666
 2032SOL    HW1 2097   2.288   2.804   3.714
 2032SOL    HW2 2098   2.247   2.713   3.584
 2033SOL     OW 2099   3.402   2.136   1.987
 2033SOL    HW1 2100   3.341   2.061   2.010
 2033SOL    HW2 2101   3.424   2.188   2.070
 2034SOL     OW 2102   3.165   2.700   1.904
 2034SOL    HW1 2103   3.199   2.607   1.919
 2034SOL    HW2 2104   3.183   2.727   1.809
 2035SOL     OW 2105   2.930   3.195   2.711
 2035SOL    HW1 2106   2.937   3.111   2.656
 2035SOL    HW2 2107   2.992   3.264   2.675
 2036SOL     OW 2108   2.181   2.672   2.811
 2036SOL    HW1 2109   2.274   2.708   2.816
 2036SOL    HW2 2110   2.175   2.587   2.863
 2037SOL     OW 2111   2.201   2.371   2.868
 2037SOL    HW1 2112   2.149   2.288   2.851
 2037SOL    HW2 2113   2.278   2.376   2.804
 2038SOL     OW 2114   3.000   2.242   3.540
 2038SOL    HW1 2115   2.955   2.305   3.604
 2038SOL    HW2 2116   3.093   2.273   3.523
 2039SOL     OW 2117   3.022   2.069   3.339
 2039SOL    HW1 2118   3.022   2.133   3.416
 2039SOL    HW2 2119   3.050   2.117   3.256
 2040SOL     OW 2120   1.870   3.188   2.062
 2040SOL    HW1 2121   1.777   3.209   2.031
 2040SOL    HW2 2122   1.880   3.089   2.075
 2041SOL     OW 2123   1.950   3.663   2.789
 2041SOL    HW1 2124   1.908   3.577   2.762
 2041SOL    HW2 2125   2.044   3.666   2.755
 2042SOL     OW 2126   2.366   3.430   2.772
 2042SOL    HW1 2127   2.432   3.504   2.781
 2042SOL    HW2 2128   2.410   3.351   2.730
 2043SOL     OW 2129   2.864   2.658   3.100
 2043SOL    HW1 2130   2.905   2.626   3.186
 2043SOL    HW2 2131   2.768   2.631   3.097
 2044SOL     OW 2132   1.902   2.406   2.976
 2044SOL    HW1 2133   1.987   2.373   2.935
 2044SOL    HW2 2134   1.915   2.421   3.074
 2045SOL     OW 2135   2.051   2.382   3.584
 2045SOL    HW1 2136   2.110   2.342   3.514
 2045SOL    HW2 2137   1.993   2.453   3.543
 2046SOL     OW 2138   3.231   2.812   3.522
 2046SOL    HW1 2139   3.270   2.901   3.542
 2046SOL    HW2 2140   3.241   2.792   3.425
 2047SOL     OW 2141   2.677   2.434   2.187
 2047SOL    HW1 2142   2.684   2.345   2.141
 2047SOL    HW2 2143   2.583   2.468   2.179
 2048SOL     OW 2144   3.519   2.466   3.068
 2048SOL    HW1 2145   3.481   2.397   3.130
 2048SOL    HW2 2146   3.601   2.430   3.024
 2050SOL     OW 2147   2.533   2.326   3.131
 2050SOL    HW1 2148   2.499   2.237   3.101
 2050SOL    HW2 2149   2.559   2.380   3.051
 2052SOL     OW 2150   2.021   2.999   3.328
 2052SOL    HW1 2151   2.043   2.938   3.404
 2052SOL    HW2 2152   2.031   2.950   3.242
 2053SOL     OW 2153   3.209   2.921   3.096
 2053SOL    HW1 2154   3.233   2.858   3.022
 2053SOL    HW2 2155   3.119   2.961   3.078
 2054SOL     OW 2156   3.164   2.717   2.171
 2054SOL    HW1 2157   3.078   2.686   2.213
 2054SOL    HW2 2158   3.160   2.703   2.072
 2057SOL     OW 2159   1.945   3.120   2.884
 2057SOL    HW1 2160   1.940   3.119   2.984
 2057SOL    HW2 2161   1.862   3.079   2.846
 2059SOL     OW 2162   3.588   1.997   2.385
 2059SOL    HW1 2163   3.661   1.980   2.318
 2059SOL    HW2 2164   3.557   1.910   2.423
 2060SOL     OW 2165   3.250   3.435   2.339
 2060SOL    HW1 2166   3.317   3.447   2.265
 2060SOL    HW2 2167   3.210   3.524   2.362
 2062SOL     OW 2168   3.142   2.789   2.534
 2062SOL    HW1 2169   3.202   2.708   2.536
 2062SOL    HW2 2170   3.182   2.858   2.474
 2063SOL     OW 2171   2.692   3.135   3.284
 2063SOL    HW1 2172   2.687   3.168   3.379
 2063SOL    HW2 2173   2.606   3.154   3.238
 2064SOL     OW 2174   2.534   3.478   2.016
 2064SOL    HW1 2175   2.543   3.488   1.917
 2064SOL    HW2 2176   2.494   3.389   2.037
 2066SOL     OW 2177   3.703   2.037   2.825
 2066SOL    HW1 2178   3.742   1.952   2.789
 2066SOL    HW2 2179   3.605   2.039   2.806
 2067SOL     OW 2180   2.125   2.188   2.582
 2067SOL    HW1 2181   2.046   2.239   2.548
 2067SOL    HW2 2182   2.116   2.173   2.680
 2068SOL     OW 2183   3.056   3.474   1.893
 2068SOL    HW1 2184   3.062   3.381   1.930
 2068SOL    HW2 2185   2.997   3.474   1.813
 2069SOL     OW 2186   2.684   2.864   3.234
 2069SOL    HW1 2187   2.724   2.863   3.142
 2069SOL    HW2 2188   2.694   2.956   3.274
 2070SOL     OW 2189   2.778   2.772   2.153
 2070SOL    HW1 2190   2.841   2.810   2.085
 2070SOL    HW2 2191   2.818   2.689   2.192
 2071SOL     OW 2192   3.366   3.469   1.906
 2071SOL    HW1 2193   3.274   3.506   1.913
 2071SOL    HW2 2194   3.404   3.489   1.816
 2072SOL     OW 2195   2.234   3.150   3.352
 2072SOL    HW1 2196   2.221   3.243   3.318
 2072SOL    HW2 2197   2.150   3.098   3.339
 2074SOL     OW 2198   2.901   2.960   2.558
 2074SOL    HW1 2199   2.831   2.913   2.612
 2074SOL    HW2 2200   2.960   2.892   2.515
 2075SOL     OW 2201   2.876   2.098   2.833
 2075SOL    HW1 2202   2.868   2.062   2.740
 2075SOL    HW2 2203   2.874   2.022   2.898
 2076SOL     OW 2204   2.452   3.349   2.353
 2076SOL    HW1 2205   2.494   3.291   2.283
 2076SOL    HW2 2206   2.408   3.428   2.309
 2077SOL     OW 2207   3.571   2.247   3.243
 2077SOL    HW1 2208   3.644   2.316   3.247
 2077SOL    HW2 2209   3.599   2.172   3.184
 2078SOL     OW 2210   2.117   3.210   2.152
 2078SOL    HW1 2211   2.021   3.211   2.125
 2078SOL    HW2 2212   2.129   3.263   2.236
 2079SOL     OW 2213   1.967   2.875   3.588
 2079SOL    HW1 2214   1.890   2.842   3.642
 2079SOL    HW2 2215   2.052   2.845   3.630
 2080SOL     OW 2216   2.534   2.065   3.351
 2080SOL    HW1 2217   2.624   2.049   3.311
 2080SOL    HW2 2218   2.542   2.070   3.450
 2081SOL     OW 2219   1.937   2.207   1.895
 2081SOL    HW1 2220   1.845   2.179   1.866
 2081SOL    HW2 2221   1.968   2.284   1.839
 2082SOL     OW 2222   3.302   2.718   3.260
 2082SOL    HW1 2223   3.245   2.770   3.197
 2082SOL    HW2 2224   3.398   2.730   3.236
 2083SOL     OW 2225   1.934   2.028   2.180
 2083SOL    HW1 2226   1.917   2.111   2.126
 2083SOL    HW2 2227   2.024   1.991   2.158
 2084SOL     OW 2228   3.045   3.197   1.981
 2084SOL    HW1 2229   2.946   3.186   1.983
 2084SOL    HW2 2230   3.079   3.212   2.074
 2085SOL     OW 2231   2.475   2.704   3.293
 2085SOL    HW1 2232   2.531   2.785   3.276
 2085SOL    HW2 2233   2.534   2.624   3.296
 2087SOL     OW 2234   2.578   2.427   3.570
 2087SOL    HW1 2235   2.597   2.492   3.644
 2087SOL    HW2 2236   2.638   2.347   3.579
 2090SOL     OW 2237   3.536   2.745   3.116
 2090SOL    HW1 2238   3.509   2.656   3.079
 2090SOL    HW2 2239   3.537   2.813   3.043
 2091SOL     OW 2240   3.087   2.187   2.311
 2091SOL    HW1 2241   3.152   2.113   2.300
 2091SOL    HW2 2242   3.107   2.237   2.395
 2092SOL     OW 2243   2.456   2.607   2.514
 2092SOL    HW1 2244   2.506   2.692   2.495
 2092SOL    HW2 2245   2.368   2.609   2.466
 2095SOL     OW 2246   2.721   3.236   1.878
 2095SOL    HW1 2247   2.675   3.251   1.966
 2095SOL    HW2 2248   2.765   3.321   1.848
 2096SOL     OW 2249   2.523   3.652   2.815
 2096SOL    HW1 2250   2.477   3.740   2.802
 2096SOL    HW2 2251   2.622   3.664   2.808
 2097SOL     OW 2252   2.721   2.818   2.723
 2097SOL    HW1 2253   2.775   2.749   2.771
 2097SOL    HW2 2254   2.689   2.887   2.789
 2098SOL     OW 2255   2.945   2.846   1.949
 2098SOL    HW1 2256   2.922   2.899   1.867
 2098SOL    HW2 2257   3.026   2.790   1.930
 2100SOL     OW 2258   2.083   3.176   3.706
 2100SOL    HW1 2259   2.018   3.103   3.685
 2100SOL    HW2 2260   2.087   3.190   3.804
 2101SOL     OW 2261   1.941   3.102   2.515
 2101SOL    HW1 2262   1.940   3.055   2.603
 2101SOL    HW2 2263   2.023   3.074   2.464
 2102SOL     OW 2264   2.534   3.253   3.486
 2102SOL    HW1 2265   2.456   3.203   3.524
 2102SOL    HW2 2266   2.531   3.348   3.517
 2103SOL     OW 2267   3.686   2.054   3.089
 2103SOL    HW1 2268   3.682   1.964   3.133
 2103SOL    HW2 2269   3.689   2.043   2.990
 2105SOL     OW 2270   2.179   2.409   3.142
 2105SOL    HW1 2271   2.217   2.350   3.214
 2105SOL    HW2 2272   2.219   2.383   3.054
 2106SOL     OW 2273   2.674   3.448   2.549
 2106SOL    HW1 2274   2.706   3.458   2.455
 2106SOL    HW2 2275   2.595   3.386   2.551
 2107SOL     OW 2276   3.286   2.076   2.974
 2107SOL    HW1 2277   3.338   2.011   3.029
 2107SOL    HW2 2278   3.237   2.139   3.035
 2108SOL     OW 2279   2.863   1.896   3.016
 2108SOL    HW1 2280   2.800   1.824   2.985
 2108SOL    HW2 2281   2.956   1.860   3.016
 2109SOL     OW 2282   2.632   3.192   2.163
 2109SOL    HW1 2283   2.586   3.105   2.180
 2109SOL    HW2 2284   2.723   3.189   2.204
 2110SOL     OW 2285   2.480   3.429   3.146
 2110SOL    HW1 2286   2.475   3.511   3.203
 2110SOL    HW2 2287   2.569   3.426   3.101
 2111SOL     OW 2288   3.214   1.914   2.030
 2111SOL    HW1 2289   3.249   1.873   1.946
 2111SOL    HW2 2290   3.124   1.876   2.050
 2112SOL     OW 2291   3.162   2.315   2.553
 2112SOL    HW1 2292   3.103   2.395   2.557
 2112SOL    HW2 2293   3.177   2.280   2.646
 2113SOL     OW 2294   3.455   2.083   2.744
 2113SOL    HW1 2295   3.371   2.082   2.798
 2113SOL    HW2 2296   3.457   2.166   2.688
 2114SOL     OW 2297   1.901   2.939   2.162
 2114SOL    HW1 2298   2.000   2.928   2.153
 2114SOL    HW2 2299   1.861   2.853   2.194
 2115SOL     OW 2300   2.737   3.508   2.199
 2115SOL    HW1 2301   2.660   3.473   2.145
 2115SOL    HW2 2302   2.705   3.579   2.261
 2116SOL     OW 2303   2.092   2.490   3.837
 2116SOL    HW1 2304   1.999   2.488   3.874
 2116SOL    HW2 2305   2.093   2.451   3.745
 2120SOL     OW 2306   2.468   2.826   3.847
 2120SOL    HW1 2307   2.475   2.910   3.793
 2120SOL    HW2 2308   2.514   2.839   3.935
 2134SOL     OW 2309   2.727   2.210   3.919
 2134SOL    HW1 2310   2.786   2.273   3.870
 2134SOL    HW2 2311   2.746   2.116   3.890
 2144SOL     OW 2312   2.476   1.984   3.841
 2144SOL    HW1 2313   2.574   1.962   3.848
 2144SOL    HW2 2314   2.445   1.967   3.748
 2147SOL     OW 2315   2.159   1.897   3.895
 2147SOL    HW1 2316   2.208   1.981   3.874
 2147SOL    HW2 2317   2.221   1.832   3.940
 2151SOL     OW 2318   2.894   2.411   3.740
 2151SOL    HW1 2319   2.853   2.493   3.701
 2151SOL    HW2 2320   2.958   2.437   3.813
 2168SOL     OW 2321   2.335   2.362   3.915
 2168SOL    HW1 2322   2.396   2.442   3.919
 2168SOL    HW2 2323   2.240   2.393   3.922
 2179SOL     OW 2324   1.937   2.207   3.757
 2179SOL    HW1 2325   1.845   2.179   3.728
 2179SOL    HW2 2326   1.968   2.284   3.701
 2234SOL     OW 2327   2.366   3.774   1.740
 2234SOL    HW1 2328   2.324   3.717   1.670
 2234SOL    HW2 2329   2.300   3.843   1.772
 2279SOL     OW 2330   2.671   3.728   2.364
 2279SOL    HW1 2331   2.711   3.819   2.355
 2279SOL    HW2 2332   2.571   3.736   2.370
 2293SOL     OW 2333   2.476   3.846   1.979
 2293SOL    HW1 2334   2.574   3.824   1.986
 2293SOL    HW2 2335   2.445   3.829   1.886
 2297SOL     OW 2336   2.401   3.788   2.374
 2297SOL    HW1 2337   2.320   3.789   2.432
 2297SOL    HW2 2338   2.404   3.871   2.319
 2298SOL     OW 2339   2.159   3.759   2.033
 2298SOL    HW1 2340   2.208   3.843   2.012
 2298SOL    HW2 2341   2.221   3.694   2.078
 2305SOL     OW 2342   2.879   3.763   2.615
 2305SOL    HW1 2343   2.807   3.768   2.546
 2305SOL    HW2 2344   2.855   3.694   2.684
 2307SOL     OW 2345   2.389   3.980   2.190
 2307SOL    HW1 2346   2.416   3.921   2.115
 2307SOL    HW2 2347   2.389   4.075   2.159
 2317SOL     OW 2348   2.169   3.787   2.480
 2317SOL    HW1 2349   2.158   3.881   2.513
 2317SOL    HW2 2350   2.164   3.724   2.557
 2337SOL     OW 2351   1.934   3.890   2.180
 2337SOL    HW1 2352   1.917   3.973   2.126
 2337SOL    HW2 2353   2.024   3.853   2.158
 2440SOL     OW 2354   3.854   1.794   1.851
 2440SOL    HW1 2355   3.813   1.720   1.904
 2440SOL    HW2 2356   3.918   1.845   1.909
 2468SOL     OW 2357   3.751   1.596   1.979
 2468SOL    HW1 2358   3.732   1.500   2.000
 2468SOL    HW2 2359   3.718   1.654   2.054
 2508SOL     OW 2360   3.732   1.326   2.062
 2508SOL    HW1 2361   3.639   1.347   2.031
 2508SOL    HW2 2362   3.742   1.227   2.075
 2509SOL     OW 2363   3.812   1.801   2.789
 2509SOL    HW1 2364   3.770   1.715   2.762
 2509SOL    HW2 2365   3.906   1.804   2.755
 2580SOL     OW 2366   3.837   2.599   1.597
 2580SOL    HW1 2367   3.925   2.586   1.642
 2580SOL    HW2 2368   3.824   2.696   1.575
 2623SOL     OW 2369   3.913   2.382   1.722
 2623SOL    HW1 2370   3.972   2.342   1.652
 2623SOL    HW2 2371   3.855   2.453   1.681
 2647SOL     OW 2372   3.954   2.490   1.975
 2647SOL    HW1 2373   3.861   2.488   2.012
 2647SOL    HW2 2374   3.955   2.451   1.883
 2649SOL     OW 2375   3.743   2.230   2.509
 2649SOL    HW1 2376   3.661   2.273   2.548
 2649SOL    HW2 2377   3.715   2.157   2.446
 2657SOL     OW 2378   3.846   2.505   2.425
 2657SOL    HW1 2379   3.801   2.417   2.442
 2657SOL    HW2 2380   3.845   2.559   2.509
 2665SOL     OW 2381   3.800   2.673   2.651
 2665SOL    HW1 2382   3.899   2.661   2.660
 2665SOL    HW2 2383   3.776   2.768   2.672
 2702SOL     OW 2384   3.764   2.406   2.976
 2702SOL    HW1 2385   3.849   2.373   2.935
 2702SOL    HW2 2386   3.777   2.421   3.074
 2717SOL     OW 2387   3.799   2.207   1.895
 2717SOL    HW1 2388   3.707   2.179   1.866
 2717SOL    HW2 2389   3.830   2.284   1.839
 2718SOL     OW 2390   3.796   2.028   2.180
 2718SOL    HW1 2391   3.779   2.111   2.126
 2718SOL    HW2 2392   3.886   1.991   2.158
 2727SOL     OW 2393   3.763   2.939   2.162
 2727SOL    HW1 2394   3.862   2.928   2.153
 2727SOL    HW2 2395   3.723   2.853   2.194
   4.42486   4.42486   4.42486
