N_methylmorpholine
    18
   0.3520000   0.2580000  -1.0070000  -1.2150000  -1.2330000  -2.0650000
  -0.4560000   1.4390000  -1.5390000  -1.9850000  -0.0170000  -2.5730000
   0.9620000  -2.0410000  -1.4120000   0.2060000  -0.8930000  -1.9090000
  -1.8310000   1.0800000  -1.6720000   1.4070000   0.5490000  -0.9350000
   0.0020000  -0.0030000  -0.0000000  -1.6330000  -1.5570000  -1.1030000
  -1.3310000  -2.0560000  -2.7790000  -0.3960000   2.2770000  -0.8380000
  -0.0730000   1.7870000  -2.5060000  -1.6550000   0.2810000  -3.5750000
  -3.0530000  -0.2510000  -2.6320000   0.8070000  -2.1670000  -0.3370000
   2.0300000  -1.8980000  -1.5970000   0.6430000  -2.9530000  -1.9230000
