; mobley_8558116_GMX_OPLS.itp created by acpype (v: 2023.10.27) on Wed May 20 23:58:03 2026

; For OPLS atomtypes manual fine tuning
; AC_at:OPLS_at:OPLScode: Possible_Alternatives (see ffoplsaa.atp and ffoplsaanb.itp)
; c6:x:opls_x: []
; c3:CT:opls_135: ['136', '137', '149', '157', '158', '206', '209', '210', '223B', '224B', '245', '246', '274', '283', '284', '285', '292', '292B', '293B', '296', '307', '308', '505']
; n3:x:opls_x: []
; os:x:opls_x: []
; h1:HC:opls_140: []

[ moleculetype ]
;name            nrexcl
 mobley_8558116   3

[ atoms ]
;   nr  type  resi  res  atom  cgnr     charge      mass       ; qtot   bond_type
     1 opls_x     1   MOL    C1    1     0.131800      0.00000 ; qtot  0.132  x   
     2 opls_x     1   MOL    C2    2     0.131800      0.00000 ; qtot  0.264  x   
     3 opls_x     1   MOL    C3    3     0.126400      0.00000 ; qtot  0.390  x   
     4 opls_x     1   MOL    C4    4     0.126400      0.00000 ; qtot  0.516  x   
     5 opls_135     1   MOL    C5    5     0.157100     12.01100 ; qtot  0.673  CT  
     6 opls_x     1   MOL    N1    6    -0.727599      0.00000 ; qtot -0.054  x   
     7 opls_x     1   MOL    O1    7    -0.416600      0.00000 ; qtot -0.471  x   
     8 opls_140     1   MOL    H1    8     0.039700      1.00800 ; qtot -0.431  HC  
     9 opls_140     1   MOL    H2    9     0.039700      1.00800 ; qtot -0.391  HC  
    10 opls_140     1   MOL    H3   10     0.039700      1.00800 ; qtot -0.352  HC  
    11 opls_140     1   MOL    H4   11     0.039700      1.00800 ; qtot -0.312  HC  
    12 opls_140     1   MOL    H5   12     0.053200      1.00800 ; qtot -0.259  HC  
    13 opls_140     1   MOL    H6   13     0.053200      1.00800 ; qtot -0.205  HC  
    14 opls_140     1   MOL    H7   14     0.053200      1.00800 ; qtot -0.152  HC  
    15 opls_140     1   MOL    H8   15     0.053200      1.00800 ; qtot -0.099  HC  
    16 opls_140     1   MOL    H9   16     0.033033      1.00800 ; qtot -0.066  HC  
    17 opls_140     1   MOL   H10   17     0.033033      1.00800 ; qtot -0.033  HC  
    18 opls_140     1   MOL   H11   18     0.033033      1.00800 ; qtot  0.000  HC  

[ bonds ]
;   ai     aj funct   r             k
     1      3   1 ;    1.5384e-01    1.8979e+05 ;     C1 - C3          x - x     
     1      6   1 ;    1.4657e-01    2.1199e+05 ;     C1 - N1          x - x     
     1      8   1 ;    1.0984e-01    2.8620e+05 ;     C1 - H1          x - HC    
     1      9   1 ;    1.0984e-01    2.8620e+05 ;     C1 - H2          x - HC    
     2      4   1 ;    1.5384e-01    1.8979e+05 ;     C2 - C4          x - x     
     2      6   1 ;    1.4657e-01    2.1199e+05 ;     C2 - N1          x - x     
     2     10   1 ;    1.0984e-01    2.8620e+05 ;     C2 - H3          x - HC    
     2     11   1 ;    1.0984e-01    2.8620e+05 ;     C2 - H4          x - HC    
     3      7   1 ;    1.4300e-01    2.3412e+05 ;     C3 - O1          x - x     
     3     12   1 ;    1.0984e-01    2.8620e+05 ;     C3 - H5          x - HC    
     3     13   1 ;    1.0984e-01    2.8620e+05 ;     C3 - H6          x - HC    
     4      7   1 ;    1.4300e-01    2.3412e+05 ;     C4 - O1          x - x     
     4     14   1 ;    1.0984e-01    2.8620e+05 ;     C4 - H7          x - HC    
     4     15   1 ;    1.0984e-01    2.8620e+05 ;     C4 - H8          x - HC    
     5      6   1 ;    1.4626e-01    2.1410e+05 ;     C5 - N1         CT - x     
     5     16   1 ;    1.0969e-01    2.8804e+05 ;     C5 - H9         CT - HC    
     5     17   1 ;    1.0969e-01    2.8804e+05 ;     C5 - H10        CT - HC    
     5     18   1 ;    1.0969e-01    2.8804e+05 ;     C5 - H11        CT - HC    

[ pairs ]
;   ai     aj    funct
     1      4      1 ;     C1 - C4    
     1     10      1 ;     C1 - H3    
     1     11      1 ;     C1 - H4    
     1     16      1 ;     C1 - H9    
     1     17      1 ;     C1 - H10   
     1     18      1 ;     C1 - H11   
     2      3      1 ;     C2 - C3    
     2     16      1 ;     C2 - H9    
     2     17      1 ;     C2 - H10   
     2     18      1 ;     C2 - H11   
     3      5      1 ;     C3 - C5    
     3     14      1 ;     C3 - H7    
     3     15      1 ;     C3 - H8    
     4      5      1 ;     C4 - C5    
     4     12      1 ;     C4 - H5    
     4     13      1 ;     C4 - H6    
     5     10      1 ;     C5 - H3    
     5     11      1 ;     C5 - H4    
     6      7      1 ;     N1 - O1    
     6     12      1 ;     N1 - H5    
     6     13      1 ;     N1 - H6    
     6     14      1 ;     N1 - H7    
     6     15      1 ;     N1 - H8    
     7     10      1 ;     O1 - H3    
     7     11      1 ;     O1 - H4    
     8      2      1 ;     H1 - C2    
     8      5      1 ;     H1 - C5    
     8      7      1 ;     H1 - O1    
     8     12      1 ;     H1 - H5    
     8     13      1 ;     H1 - H6    
     9      2      1 ;     H2 - C2    
     9      5      1 ;     H2 - C5    
     9      7      1 ;     H2 - O1    
     9     12      1 ;     H2 - H5    
     9     13      1 ;     H2 - H6    
    10     14      1 ;     H3 - H7    
    10     15      1 ;     H3 - H8    
    11     14      1 ;     H4 - H7    
    11     15      1 ;     H4 - H8    

[ angles ]
;   ai     aj     ak    funct   theta         cth
     1      3      7      1 ;    1.1009e+02    6.3948e+02 ;     C1 - C3   - O1        x -    x - x   
     1      3     12      1 ;    1.0918e+02    3.6217e+02 ;     C1 - C3   - H5        x -    x - HC  
     1      3     13      1 ;    1.0918e+02    3.6217e+02 ;     C1 - C3   - H6        x -    x - HC  
     1      6      2      1 ;    1.1070e+02    6.5429e+02 ;     C1 - N1   - C2        x -    x - x   
     1      6      5      1 ;    1.1238e+02    6.5003e+02 ;     C1 - N1   - C5        x -    x - CT  
     2      4      7      1 ;    1.1009e+02    6.3948e+02 ;     C2 - C4   - O1        x -    x - x   
     2      4     14      1 ;    1.0918e+02    3.6217e+02 ;     C2 - C4   - H7        x -    x - HC  
     2      4     15      1 ;    1.0918e+02    3.6217e+02 ;     C2 - C4   - H8        x -    x - HC  
     2      6      5      1 ;    1.1238e+02    6.5003e+02 ;     C2 - N1   - C5        x -    x - CT  
     3      1      6      1 ;    1.1084e+02    5.4743e+02 ;     C3 - C1   - N1        x -    x - x   
     3      1      8      1 ;    1.0918e+02    3.6217e+02 ;     C3 - C1   - H1        x -    x - HC  
     3      1      9      1 ;    1.0918e+02    3.6217e+02 ;     C3 - C1   - H2        x -    x - HC  
     3      7      4      1 ;    1.1330e+02    7.3873e+02 ;     C3 - O1   - C4        x -    x - x   
     4      2      6      1 ;    1.1084e+02    5.4743e+02 ;     C4 - C2   - N1        x -    x - x   
     4      2     10      1 ;    1.0918e+02    3.6217e+02 ;     C4 - C2   - H3        x -    x - HC  
     4      2     11      1 ;    1.0918e+02    3.6217e+02 ;     C4 - C2   - H4        x -    x - HC  
     6      1      8      1 ;    1.0963e+02    4.0041e+02 ;     N1 - C1   - H1        x -    x - HC  
     6      1      9      1 ;    1.0963e+02    4.0041e+02 ;     N1 - C1   - H2        x -    x - HC  
     6      2     10      1 ;    1.0963e+02    4.0041e+02 ;     N1 - C2   - H3        x -    x - HC  
     6      2     11      1 ;    1.0963e+02    4.0041e+02 ;     N1 - C2   - H4        x -    x - HC  
     6      5     16      1 ;    1.1009e+02    4.0033e+02 ;     N1 - C5   - H9        x -   CT - HC  
     6      5     17      1 ;    1.1009e+02    4.0033e+02 ;     N1 - C5   - H10       x -   CT - HC  
     6      5     18      1 ;    1.1009e+02    4.0033e+02 ;     N1 - C5   - H11       x -   CT - HC  
     7      3     12      1 ;    1.0808e+02    4.7430e+02 ;     O1 - C3   - H5        x -    x - HC  
     7      3     13      1 ;    1.0808e+02    4.7430e+02 ;     O1 - C3   - H6        x -    x - HC  
     7      4     14      1 ;    1.0808e+02    4.7430e+02 ;     O1 - C4   - H7        x -    x - HC  
     7      4     15      1 ;    1.0808e+02    4.7430e+02 ;     O1 - C4   - H8        x -    x - HC  
     8      1      9      1 ;    1.0750e+02    2.9932e+02 ;     H1 - C1   - H2       HC -    x - HC  
    10      2     11      1 ;    1.0750e+02    2.9932e+02 ;     H3 - C2   - H4       HC -    x - HC  
    12      3     13      1 ;    1.0750e+02    2.9932e+02 ;     H5 - C3   - H6       HC -    x - HC  
    14      4     15      1 ;    1.0750e+02    2.9932e+02 ;     H7 - C4   - H8       HC -    x - HC  
    16      5     17      1 ;    1.0855e+02    2.9824e+02 ;     H9 - C5   - H10      HC -   CT - HC  
    16      5     18      1 ;    1.0855e+02    2.9824e+02 ;     H9 - C5   - H11      HC -   CT - HC  
    17      5     18      1 ;    1.0855e+02    2.9824e+02 ;    H10 - C5   - H11      HC -   CT - HC  

[ dihedrals ] ; propers
; for gromacs 4.5 or higher, using funct 9
;    i      j      k      l   func   phase     kd      pn
     1      3      7      4      9 ;     0.00   4.85344   3 ;     C1-    C3-    O1-    C4
     1      3      7      4      9 ;     0.00   5.77392   2 ;     C1-    C3-    O1-    C4
     1      3      7      4      9 ;   180.00   1.46440   1 ;     C1-    C3-    O1-    C4
     1      6      2      4      9 ;     0.00   3.05432   3 ;     C1-    N1-    C2-    C4
     1      6      2     10      9 ;     0.00   0.94140   3 ;     C1-    N1-    C2-    H3
     1      6      2     11      9 ;     0.00   0.94140   3 ;     C1-    N1-    C2-    H4
     1      6      5     16      9 ;     0.00   0.94140   3 ;     C1-    N1-    C5-    H9
     1      6      5     17      9 ;     0.00   0.94140   3 ;     C1-    N1-    C5-   H10
     1      6      5     18      9 ;     0.00   0.94140   3 ;     C1-    N1-    C5-   H11
     2      4      7      3      9 ;     0.00   4.85344   3 ;     C2-    C4-    O1-    C3
     2      4      7      3      9 ;     0.00   5.77392   2 ;     C2-    C4-    O1-    C3
     2      4      7      3      9 ;   180.00   1.46440   1 ;     C2-    C4-    O1-    C3
     2      6      5     16      9 ;     0.00   0.94140   3 ;     C2-    N1-    C5-    H9
     2      6      5     17      9 ;     0.00   0.94140   3 ;     C2-    N1-    C5-   H10
     2      6      5     18      9 ;     0.00   0.94140   3 ;     C2-    N1-    C5-   H11
     3      1      6      2      9 ;     0.00   3.05432   3 ;     C3-    C1-    N1-    C2
     3      1      6      5      9 ;     0.00   3.05432   3 ;     C3-    C1-    N1-    C5
     3      7      4     14      9 ;     0.00   1.41001   3 ;     C3-    O1-    C4-    H7
     3      7      4     15      9 ;     0.00   1.41001   3 ;     C3-    O1-    C4-    H8
     4      2      6      5      9 ;     0.00   3.05432   3 ;     C4-    C2-    N1-    C5
     4      7      3     12      9 ;     0.00   1.41001   3 ;     C4-    O1-    C3-    H5
     4      7      3     13      9 ;     0.00   1.41001   3 ;     C4-    O1-    C3-    H6
     5      6      2     10      9 ;     0.00   0.94140   3 ;     C5-    N1-    C2-    H3
     5      6      2     11      9 ;     0.00   0.94140   3 ;     C5-    N1-    C2-    H4
     6      1      3      7      9 ;     0.00   0.65084   3 ;     N1-    C1-    C3-    O1
     6      1      3     12      9 ;     0.00   0.65084   3 ;     N1-    C1-    C3-    H5
     6      1      3     13      9 ;     0.00   0.65084   3 ;     N1-    C1-    C3-    H6
     6      2      4      7      9 ;     0.00   0.65084   3 ;     N1-    C2-    C4-    O1
     6      2      4     14      9 ;     0.00   0.65084   3 ;     N1-    C2-    C4-    H7
     6      2      4     15      9 ;     0.00   0.65084   3 ;     N1-    C2-    C4-    H8
     7      4      2     10      9 ;     0.00   0.00000   0 ;     O1-    C4-    C2-    H3
     7      4      2     10      9 ;     0.00   1.04600   1 ;     O1-    C4-    C2-    H3
     7      4      2     11      9 ;     0.00   0.00000   0 ;     O1-    C4-    C2-    H4
     7      4      2     11      9 ;     0.00   1.04600   1 ;     O1-    C4-    C2-    H4
     8      1      3      7      9 ;     0.00   0.00000   0 ;     H1-    C1-    C3-    O1
     8      1      3      7      9 ;     0.00   1.04600   1 ;     H1-    C1-    C3-    O1
     8      1      3     12      9 ;     0.00   0.65084   3 ;     H1-    C1-    C3-    H5
     8      1      3     13      9 ;     0.00   0.65084   3 ;     H1-    C1-    C3-    H6
     8      1      6      2      9 ;     0.00   0.94140   3 ;     H1-    C1-    N1-    C2
     8      1      6      5      9 ;     0.00   0.94140   3 ;     H1-    C1-    N1-    C5
     9      1      3      7      9 ;     0.00   0.00000   0 ;     H2-    C1-    C3-    O1
     9      1      3      7      9 ;     0.00   1.04600   1 ;     H2-    C1-    C3-    O1
     9      1      3     12      9 ;     0.00   0.65084   3 ;     H2-    C1-    C3-    H5
     9      1      3     13      9 ;     0.00   0.65084   3 ;     H2-    C1-    C3-    H6
     9      1      6      2      9 ;     0.00   0.94140   3 ;     H2-    C1-    N1-    C2
     9      1      6      5      9 ;     0.00   0.94140   3 ;     H2-    C1-    N1-    C5
    10      2      4     14      9 ;     0.00   0.65084   3 ;     H3-    C2-    C4-    H7
    10      2      4     15      9 ;     0.00   0.65084   3 ;     H3-    C2-    C4-    H8
    11      2      4     14      9 ;     0.00   0.65084   3 ;     H4-    C2-    C4-    H7
    11      2      4     15      9 ;     0.00   0.65084   3 ;     H4-    C2-    C4-    H8
