; mobley_8558116_GMX_OPLS.top created by acpype (v: 2023.10.27) on Wed May 20 23:58:03 2026

; Include forcefield parameters
#include "ffoplsaa.itp"

; Include mobley_8558116_GMX.itp topology
#include "mobley_8558116_GMX.itp"

; Ligand position restraints
#ifdef POSRES_LIG
#include "posre_mobley_8558116.itp"
#endif

[ system ]
 mobley_8558116

[ molecules ]
; Compound        nmols
 mobley_8558116   1     
