mobley_8558116_GMX.gro created by acpype (v: 2023.10.27) on Wed May 20 23:58:03 2026
 18
    1  MOL   C1    1   0.035   0.026  -0.101
    1  MOL   C2    2  -0.122  -0.123  -0.207
    1  MOL   C3    3  -0.046   0.144  -0.154
    1  MOL   C4    4  -0.199  -0.002  -0.257
    1  MOL   C5    5   0.096  -0.204  -0.141
    1  MOL   N1    6   0.021  -0.089  -0.191
    1  MOL   O1    7  -0.183   0.108  -0.167
    1  MOL   H1    8   0.141   0.055  -0.094
    1  MOL   H2    9   0.000  -0.000  -0.000
    1  MOL   H3   10  -0.163  -0.156  -0.110
    1  MOL   H4   11  -0.133  -0.206  -0.278
    1  MOL   H5   12  -0.040   0.228  -0.084
    1  MOL   H6   13  -0.007   0.179  -0.251
    1  MOL   H7   14  -0.166   0.028  -0.358
    1  MOL   H8   15  -0.305  -0.025  -0.263
    1  MOL   H9   16   0.081  -0.217  -0.034
    1  MOL  H10   17   0.203  -0.190  -0.160
    1  MOL  H11   18   0.064  -0.295  -0.192
   10.16600    10.46000     7.15000
