%VERSION  VERSION_STAMP = V0001.000  DATE = 05/20/26  23:58:03                  
%FLAG TITLE                                                                     
%FORMAT(20a4)                                                                   
N_methylmorpholine                                                              
%FLAG POINTERS                                                                  
%FORMAT(10I8)                                                                   
      18       4      11       7      26       8      38      12       0       0
      94       1       7       8      12       6      11       9       5       0
       0       0       0       0       0       0       0       0      18       0
       0
%FLAG ATOM_NAME                                                                 
%FORMAT(20a4)                                                                   
C1  C2  C3  C4  C5  N1  O1  H1  H2  H3  H4  H5  H6  H7  H8  H9  H10 H11 
%FLAG CHARGE                                                                    
%FORMAT(5E16.8)                                                                 
  2.40169914E+00  2.40169914E+00  2.30329872E+00  2.30329872E+00  2.86272333E+00
 -1.32767678E+01 -7.59141018E+00  7.23425310E-01  7.23425310E-01  7.23425310E-01
  7.23425310E-01  9.69426360E-01  9.69426360E-01  9.69426360E-01  9.69426360E-01
  6.01937236E-01  6.01937236E-01  6.01937236E-01
%FLAG ATOMIC_NUMBER                                                             
%FORMAT(10I8)                                                                   
       6       6       6       6       6       7       8       1       1       1
       1       1       1       1       1       1       1       1
%FLAG MASS                                                                      
%FORMAT(5E16.8)                                                                 
  1.20100000E+01  1.20100000E+01  1.20100000E+01  1.20100000E+01  1.20100000E+01
  1.40100000E+01  1.60000000E+01  1.00800000E+00  1.00800000E+00  1.00800000E+00
  1.00800000E+00  1.00800000E+00  1.00800000E+00  1.00800000E+00  1.00800000E+00
  1.00800000E+00  1.00800000E+00  1.00800000E+00
%FLAG ATOM_TYPE_INDEX                                                           
%FORMAT(10I8)                                                                   
       1       1       1       1       1       2       3       4       4       4
       4       4       4       4       4       4       4       4
%FLAG NUMBER_EXCLUDED_ATOMS                                                     
%FORMAT(10I8)                                                                   
      15      14      10       9       8      12       8       3       2       3
       2       1       1       1       1       2       1       1
%FLAG NONBONDED_PARM_INDEX                                                      
%FORMAT(10I8)                                                                   
       1       2       4       7       2       3       5       8       4       5
       6       9       7       8       9      10
%FLAG RESIDUE_LABEL                                                             
%FORMAT(20a4)                                                                   
MOL 
%FLAG RESIDUE_POINTER                                                           
%FORMAT(10I8)                                                                   
       1
%FLAG BOND_FORCE_CONSTANT                                                       
%FORMAT(5E16.8)                                                                 
  2.26810000E+02  2.53330000E+02  3.42020000E+02  2.79780000E+02  2.55850000E+02
  3.44220000E+02
%FLAG BOND_EQUIL_VALUE                                                          
%FORMAT(5E16.8)                                                                 
  1.53840000E+00  1.46570000E+00  1.09840000E+00  1.43000000E+00  1.46260000E+00
  1.09690000E+00
%FLAG ANGLE_FORCE_CONSTANT                                                      
%FORMAT(5E16.8)                                                                 
  7.64200000E+01  4.32800000E+01  7.81900000E+01  7.76800000E+01  6.54200000E+01
  8.82800000E+01  4.78500000E+01  4.78400000E+01  5.66800000E+01  3.57700000E+01
  3.56400000E+01
%FLAG ANGLE_EQUIL_VALUE                                                         
%FORMAT(5E16.8)                                                                 
  1.92143380E+00  1.90555129E+00  1.93208031E+00  1.96140185E+00  1.93452377E+00
  1.97745889E+00  1.91340528E+00  1.92143380E+00  1.88635266E+00  1.87622975E+00
  1.89455572E+00
%FLAG DIHEDRAL_FORCE_CONSTANT                                                   
%FORMAT(5E16.8)                                                                 
  3.50000000E-01  1.38000000E+00  1.16000000E+00  7.30000000E-01  2.25000000E-01
  3.37000000E-01  1.55555556E-01  2.50000000E-01  0.00000000E+00
%FLAG DIHEDRAL_PERIODICITY                                                      
%FORMAT(5E16.8)                                                                 
  1.00000000E+00  2.00000000E+00  3.00000000E+00  3.00000000E+00  3.00000000E+00
  3.00000000E+00  3.00000000E+00  1.00000000E+00  3.00000000E+00
%FLAG DIHEDRAL_PHASE                                                            
%FORMAT(5E16.8)                                                                 
  3.14159400E+00  0.00000000E+00  0.00000000E+00  0.00000000E+00  0.00000000E+00
  0.00000000E+00  0.00000000E+00  0.00000000E+00  0.00000000E+00
%FLAG SCEE_SCALE_FACTOR                                                         
%FORMAT(5E16.8)                                                                 
  1.20000000E+00  1.20000000E+00  1.20000000E+00  1.20000000E+00  1.20000000E+00
  1.20000000E+00  1.20000000E+00  1.20000000E+00  1.20000000E+00
%FLAG SCNB_SCALE_FACTOR                                                         
%FORMAT(5E16.8)                                                                 
  2.00000000E+00  2.00000000E+00  2.00000000E+00  2.00000000E+00  2.00000000E+00
  2.00000000E+00  2.00000000E+00  2.00000000E+00  2.00000000E+00
%FLAG SOLTY                                                                     
%FORMAT(5E16.8)                                                                 
  0.00000000E+00  0.00000000E+00  0.00000000E+00  0.00000000E+00  0.00000000E+00
%FLAG LENNARD_JONES_ACOEF                                                       
%FORMAT(5E16.8)                                                                 
  1.02073671E+06  8.59569453E+05  7.23647490E+05  5.42502534E+05  4.55871651E+05
  2.83662575E+05  6.97998263E+04  5.82112737E+04  3.44374471E+04  3.39005767E+03
%FLAG LENNARD_JONES_BCOEF                                                       
%FORMAT(5E16.8)                                                                 
  6.63431737E+02  5.75038595E+02  4.98353106E+02  4.38146883E+02  3.79365004E+02
  2.87011518E+02  1.14981426E+02  9.91793374E+01  7.31636661E+01  1.67944276E+01
%FLAG BONDS_INC_HYDROGEN                                                        
%FORMAT(10I8)                                                                   
       0      21       3       0      24       3       3      27       3       3
      30       3       6      33       3       6      36       3       9      39
       3       9      42       3      12      45       6      12      48       6
      12      51       6
%FLAG BONDS_WITHOUT_HYDROGEN                                                    
%FORMAT(10I8)                                                                   
       0       6       1       0      15       2       3       9       1       3
      15       2       6      18       4       9      18       4      12      15
       5
%FLAG ANGLES_INC_HYDROGEN                                                       
%FORMAT(10I8)                                                                   
       0       6      33       2       0       6      36       2       3       9
      39       2       3       9      42       2       6       0      21       2
       6       0      24       2       9       3      27       2       9       3
      30       2      15       0      21       7      15       0      24       7
      15       3      27       7      15       3      30       7      15      12
      45       8      15      12      48       8      15      12      51       8
      18       6      33       9      18       6      36       9      18       9
      39       9      18       9      42       9      21       0      24      10
      27       3      30      10      33       6      36      10      39       9
      42      10      45      12      48      11      45      12      51      11
      48      12      51      11
%FLAG ANGLES_WITHOUT_HYDROGEN                                                   
%FORMAT(10I8)                                                                   
       0       6      18       1       0      15       3       3       0      15
      12       4       3       9      18       1       3      15      12       4
       6       0      15       5       6      18       9       6       9       3
      15       5
%FLAG DIHEDRALS_INC_HYDROGEN                                                    
%FORMAT(10I8)                                                                   
       0      15       3      27       5       0      15       3      30       5
       0      15      12      45       5       0      15      12      48       5
       0      15      12      51       5      21       0      15       3       5
      24       0      15       3       5       3      15      12      45       5
       3      15      12      48       5       3      15      12      51       5
       6      18       9      39       6       6      18       9      42       6
       9      18       6      33       6       9      18       6      36       6
      21       0      15      12       5      24       0      15      12       5
      12      15       3      27       5      12      15       3      30       5
      15       0       6      33       7      15       0       6      36       7
      15       3       9      39       7      15       3       9      42       7
      21       0       6      18       8      21       0      -6      18       9
      24       0       6      18       8      24       0      -6      18       9
      18       9       3      27       8      18       9      -3      27       9
      18       9       3      30       8      18       9      -3      30       9
      21       0       6      33       7      21       0       6      36       7
      24       0       6      33       7      24       0       6      36       7
      27       3       9      39       7      27       3       9      42       7
      30       3       9      39       7      30       3       9      42       7
%FLAG DIHEDRALS_WITHOUT_HYDROGEN                                                
%FORMAT(10I8)                                                                   
       0       6      18       9       1       0       6     -18       9       2
       0       6     -18       9       3       0      15      -3       9       4
       3       9      18       6       1       3       9     -18       6       2
       3       9     -18       6       3       6       0     -15       3       4
       6       0      15      12       4       9       3      15      12       4
      15       0       6      18       7      15       3      -9      18       7
%FLAG EXCLUDED_ATOMS_LIST                                                       
%FORMAT(10I8)                                                                   
       2       3       4       5       6       7       8       9      10      11
      12      13      16      17      18       3       4       5       6       7
       8       9      10      11      14      15      16      17      18       4
       5       6       7       8       9      12      13      14      15       5
       6       7      10      11      12      13      14      15       6       8
       9      10      11      16      17      18       7       8       9      10
      11      12      13      14      15      16      17      18       8       9
      10      11      12      13      14      15       9      12      13      12
      13      11      14      15      14      15      13       0      15       0
      17      18      18       0
%FLAG HBOND_ACOEF                                                               
%FORMAT(5E16.8)                                                                 

%FLAG HBOND_BCOEF                                                               
%FORMAT(5E16.8)                                                                 

%FLAG HBCUT                                                                     
%FORMAT(5E16.8)                                                                 

%FLAG AMBER_ATOM_TYPE                                                           
%FORMAT(20a4)                                                                   
c6  c6  c6  c6  c3  n3  os  h1  h1  h1  h1  h1  h1  h1  h1  h1  h1  h1  
%FLAG TREE_CHAIN_CLASSIFICATION                                                 
%FORMAT(20a4)                                                                   
BLA BLA BLA BLA BLA BLA BLA BLA BLA BLA BLA BLA BLA BLA BLA BLA BLA BLA 
%FLAG JOIN_ARRAY                                                                
%FORMAT(10I8)                                                                   
       0       0       0       0       0       0       0       0       0       0
       0       0       0       0       0       0       0       0
%FLAG IROTAT                                                                    
%FORMAT(10I8)                                                                   
       0       0       0       0       0       0       0       0       0       0
       0       0       0       0       0       0       0       0
%FLAG RADIUS_SET                                                                
%FORMAT(1a80)                                                                   
modified Bondi radii (mbondi)                                                   
%FLAG RADII                                                                     
%FORMAT(5E16.8)                                                                 
  1.70000000E+00  1.70000000E+00  1.70000000E+00  1.70000000E+00  1.70000000E+00
  1.55000000E+00  1.50000000E+00  1.30000000E+00  1.30000000E+00  1.30000000E+00
  1.30000000E+00  1.30000000E+00  1.30000000E+00  1.30000000E+00  1.30000000E+00
  1.30000000E+00  1.30000000E+00  1.30000000E+00
%FLAG SCREEN                                                                    
%FORMAT(5E16.8)                                                                 
  7.20000000E-01  7.20000000E-01  7.20000000E-01  7.20000000E-01  7.20000000E-01
  7.90000000E-01  8.50000000E-01  8.50000000E-01  8.50000000E-01  8.50000000E-01
  8.50000000E-01  8.50000000E-01  8.50000000E-01  8.50000000E-01  8.50000000E-01
  8.50000000E-01  8.50000000E-01  8.50000000E-01
%FLAG IPOL                                                                      
%FORMAT(1I8)                                                                    
       0
