%VERSION  VERSION_STAMP = V0001.000  DATE = 05/20/26  23:45:00                  
%FLAG TITLE                                                                     
%FORMAT(20a4)                                                                   
SAMPL4_001                                                                      
%FLAG POINTERS                                                                  
%FORMAT(10I8)                                                                   
      26       4      14      11      28      14      59      21       0       0
     136       1      11      14      21       4       6       9       4       0
       0       0       0       0       0       0       0       0      26       0
       0
%FLAG ATOM_NAME                                                                 
%FORMAT(20a4)                                                                   
C1  C2  C3  C4  C5  C6  O1  O2  O3  O4  O5  O6  H1  H2  H3  H4  H5  H6  H7  H8  
H9  H10 H11 H12 H13 H14 
%FLAG CHARGE                                                                    
%FORMAT(5E16.8)                                                                 
  2.11196457E+00  2.11196457E+00  1.45049508E+00  1.45049508E+00  2.48916618E+00
  2.48916618E+00 -1.10208470E+01 -1.10208470E+01 -1.11484031E+01 -1.11484031E+01
 -1.06928456E+01 -1.06928456E+01  9.60315210E-01  9.60315210E-01  9.60315210E-01
  9.60315210E-01  1.05142671E+00  1.05142671E+00  1.06964901E+00  1.06964901E+00
  7.53492105E+00  7.53492105E+00  7.63514370E+00  7.63514370E+00  7.60781025E+00
  7.60781025E+00
%FLAG ATOMIC_NUMBER                                                             
%FORMAT(10I8)                                                                   
       6       6       6       6       6       6       8       8       8       8
       8       8       1       1       1       1       1       1       1       1
       1       1       1       1       1       1
%FLAG MASS                                                                      
%FORMAT(5E16.8)                                                                 
  1.20100000E+01  1.20100000E+01  1.20100000E+01  1.20100000E+01  1.20100000E+01
  1.20100000E+01  1.60000000E+01  1.60000000E+01  1.60000000E+01  1.60000000E+01
  1.60000000E+01  1.60000000E+01  1.00800000E+00  1.00800000E+00  1.00800000E+00
  1.00800000E+00  1.00800000E+00  1.00800000E+00  1.00800000E+00  1.00800000E+00
  1.00800000E+00  1.00800000E+00  1.00800000E+00  1.00800000E+00  1.00800000E+00
  1.00800000E+00
%FLAG ATOM_TYPE_INDEX                                                           
%FORMAT(10I8)                                                                   
       1       1       1       1       1       1       2       2       2       2
       2       2       3       3       3       3       3       3       3       3
       4       4       4       4       4       4
%FLAG NUMBER_EXCLUDED_ATOMS                                                     
%FORMAT(10I8)                                                                   
      12      12      15      14      15      14       5       5       6       6
       5       4       3       2       3       2       2       2       2       1
       1       1       1       1       1       1
%FLAG NONBONDED_PARM_INDEX                                                      
%FORMAT(10I8)                                                                   
       1       2       4       7       2       3       5       8       4       5
       6       9       7       8       9      10
%FLAG RESIDUE_LABEL                                                             
%FORMAT(20a4)                                                                   
MOL 
%FLAG RESIDUE_POINTER                                                           
%FORMAT(10I8)                                                                   
       1
%FLAG BOND_FORCE_CONSTANT                                                       
%FORMAT(5E16.8)                                                                 
  2.28890000E+02  2.85150000E+02  3.44220000E+02  5.35510000E+02
%FLAG BOND_EQUIL_VALUE                                                          
%FORMAT(5E16.8)                                                                 
  1.53540000E+00  1.42420000E+00  1.09690000E+00  9.72500000E-01
%FLAG ANGLE_FORCE_CONSTANT                                                      
%FORMAT(5E16.8)                                                                 
  5.98700000E+01  7.67900000E+01  4.32800000E+01  6.51300000E+01  5.62900000E+01
  3.56400000E+01
%FLAG ANGLE_EQUIL_VALUE                                                         
%FORMAT(5E16.8)                                                                 
  1.96576518E+00  1.91392888E+00  1.91270715E+00  1.87430989E+00  1.92649525E+00
  1.89455572E+00
%FLAG DIHEDRAL_FORCE_CONSTANT                                                   
%FORMAT(5E16.8)                                                                 
  5.20000000E-01  1.80000000E-01  1.55555556E-01  6.00000000E-02  1.00000000E+00
  1.44000000E+00  2.50000000E-01  0.00000000E+00  1.23000000E-01
%FLAG DIHEDRAL_PERIODICITY                                                      
%FORMAT(5E16.8)                                                                 
  3.00000000E+00  3.00000000E+00  3.00000000E+00  3.00000000E+00  1.00000000E+00
  3.00000000E+00  1.00000000E+00  3.00000000E+00  3.00000000E+00
%FLAG DIHEDRAL_PHASE                                                            
%FORMAT(5E16.8)                                                                 
  0.00000000E+00  0.00000000E+00  0.00000000E+00  0.00000000E+00  0.00000000E+00
  0.00000000E+00  0.00000000E+00  0.00000000E+00  0.00000000E+00
%FLAG SCEE_SCALE_FACTOR                                                         
%FORMAT(5E16.8)                                                                 
  1.20000000E+00  1.20000000E+00  1.20000000E+00  1.20000000E+00  1.20000000E+00
  1.20000000E+00  1.20000000E+00  1.20000000E+00  1.20000000E+00
%FLAG SCNB_SCALE_FACTOR                                                         
%FORMAT(5E16.8)                                                                 
  2.00000000E+00  2.00000000E+00  2.00000000E+00  2.00000000E+00  2.00000000E+00
  2.00000000E+00  2.00000000E+00  2.00000000E+00  2.00000000E+00
%FLAG SOLTY                                                                     
%FORMAT(5E16.8)                                                                 
  0.00000000E+00  0.00000000E+00  0.00000000E+00  0.00000000E+00
%FLAG LENNARD_JONES_ACOEF                                                       
%FORMAT(5E16.8)                                                                 
  1.02073671E+06  7.18991463E+05  5.03152404E+05  6.97998263E+04  4.69084694E+04
  3.39005767E+03  3.03553352E+02  1.74176419E+02  4.36660257E+00  1.10360882E-05
%FLAG LENNARD_JONES_BCOEF                                                       
%FORMAT(5E16.8)                                                                 
  6.63431737E+02  5.36620538E+02  4.32634597E+02  1.14981426E+02  9.08431526E+01
  1.67944276E+01  5.22789272E+00  3.81654050E+00  4.15568027E-01  4.55498033E-04
%FLAG BONDS_INC_HYDROGEN                                                        
%FORMAT(10I8)                                                                   
       0      36       3       0      39       3       3      42       3       3
      45       3       6      48       3       9      51       3      12      54
       3      15      57       3      18      60       4      21      63       4
      24      66       4      27      69       4      30      72       4      33
      75       4
%FLAG BONDS_WITHOUT_HYDROGEN                                                    
%FORMAT(10I8)                                                                   
       0       6       1       0      18       2       3       9       1       3
      21       2       6      12       1       6      24       2       9      15
       1       9      27       2      12      15       1      12      30       2
      15      33       2
%FLAG ANGLES_INC_HYDROGEN                                                       
%FORMAT(10I8)                                                                   
       0       6      48       3       0      18      60       4       3       9
      51       3       3      21      63       4       6       0      36       3
       6       0      39       3       6      12      54       3       6      24
      66       4       9       3      42       3       9       3      45       3
       9      15      57       3       9      27      69       4      12       6
      48       3      12      15      57       3      12      30      72       4
      15       9      51       3      15      12      54       3      15      33
      75       4      18       0      36       5      18       0      39       5
      21       3      42       5      21       3      45       5      24       6
      48       5      27       9      51       5      30      12      54       5
      33      15      57       5      36       0      39       6      42       3
      45       6
%FLAG ANGLES_WITHOUT_HYDROGEN                                                   
%FORMAT(10I8)                                                                   
       0       6      12       1       0       6      24       2       3       9
      15       1       3       9      27       2       6       0      18       2
       6      12      15       1       6      12      30       2       9       3
      21       2       9      15      12       1       9      15      33       2
      12       6      24       2      12      15      33       2      15       9
      27       2      15      12      30       2
%FLAG DIHEDRALS_INC_HYDROGEN                                                    
%FORMAT(10I8)                                                                   
       0       6      12      54       3       0       6      24      66       4
       3       9      15      57       3       3       9      27      69       4
       6       0      18      60       4       6      12      15      57       3
       6      12      30      72       4       9       3      21      63       4
       9      15      12      54       3       9      15      33      75       4
      36       0       6      12       3      39       0       6      12       3
      12       6      24      66       4      12      15       9      51       3
      12      15      33      75       4      15       9       3      42       3
      15       9       3      45       3      15       9      27      69       4
      15      12       6      48       3      15      12      30      72       4
      18       0       6      48       7      18       0      -6      48       8
      21       3       9      51       7      21       3      -9      51       8
      36       0       6      24       7      36       0      -6      24       8
      39       0       6      24       7      39       0      -6      24       8
      24       6      12      54       7      24       6     -12      54       8
      27       9       3      42       7      27       9      -3      42       8
      27       9       3      45       7      27       9      -3      45       8
      27       9      15      57       7      27       9     -15      57       8
      30      12       6      48       7      30      12      -6      48       8
      30      12      15      57       7      30      12     -15      57       8
      33      15       9      51       7      33      15      -9      51       8
      33      15      12      54       7      33      15     -12      54       8
      36       0       6      48       3      36       0      18      60       9
      39       0       6      48       3      39       0      18      60       9
      42       3       9      51       3      42       3      21      63       9
      45       3       9      51       3      45       3      21      63       9
      48       6      12      54       3      48       6      24      66       9
      51       9      15      57       3      51       9      27      69       9
      54      12      15      57       3      54      12      30      72       9
      57      15      33      75       9
%FLAG DIHEDRALS_WITHOUT_HYDROGEN                                                
%FORMAT(10I8)                                                                   
       0       6      12      15       1       0       6      12      30       2
       3       9      15      12       1       3       9      15      33       2
       6      12      15       9       1       6      12      15      33       2
       9      15      12      30       2      18       0       6      12       2
      12      15       9      27       2      15       9       3      21       2
      15      12       6      24       2      18       0       6      24       5
      18       0      -6      24       6      21       3       9      27       5
      21       3      -9      27       6      24       6      12      30       5
      24       6     -12      30       6      27       9      15      33       5
      27       9     -15      33       6      30      12      15      33       5
      30      12     -15      33       6
%FLAG EXCLUDED_ATOMS_LIST                                                       
%FORMAT(10I8)                                                                   
       3       5       6       7       9      11      13      14      17      19
      21      23       4       5       6       8      10      12      15      16
      18      20      22      24       4       5       6       7       9      11
      12      13      14      17      19      20      21      23      25       5
       6       8      10      11      12      15      16      18      19      20
      22      24      26       6       7       9      10      11      12      13
      14      17      18      19      20      23      25      26       8       9
      10      11      12      15      16      17      18      19      20      24
      25      26       9      13      14      17      21      10      15      16
      18      22      11      13      14      17      19      23      12      15
      16      18      20      24      12      17      19      20      25      18
      19      20      26      14      17      21      17      21      16      18
      22      18      22      19      23      20      24      20      25      26
       0       0       0       0       0       0
%FLAG HBOND_ACOEF                                                               
%FORMAT(5E16.8)                                                                 

%FLAG HBOND_BCOEF                                                               
%FORMAT(5E16.8)                                                                 

%FLAG HBCUT                                                                     
%FORMAT(5E16.8)                                                                 

%FLAG AMBER_ATOM_TYPE                                                           
%FORMAT(20a4)                                                                   
c3  c3  c3  c3  c3  c3  oh  oh  oh  oh  oh  oh  h1  h1  h1  h1  h1  h1  h1  h1  
ho  ho  ho  ho  ho  ho  
%FLAG TREE_CHAIN_CLASSIFICATION                                                 
%FORMAT(20a4)                                                                   
BLA BLA BLA BLA BLA BLA BLA BLA BLA BLA BLA BLA BLA BLA BLA BLA BLA BLA BLA BLA 
BLA BLA BLA BLA BLA BLA 
%FLAG JOIN_ARRAY                                                                
%FORMAT(10I8)                                                                   
       0       0       0       0       0       0       0       0       0       0
       0       0       0       0       0       0       0       0       0       0
       0       0       0       0       0       0
%FLAG IROTAT                                                                    
%FORMAT(10I8)                                                                   
       0       0       0       0       0       0       0       0       0       0
       0       0       0       0       0       0       0       0       0       0
       0       0       0       0       0       0
%FLAG RADIUS_SET                                                                
%FORMAT(1a80)                                                                   
modified Bondi radii (mbondi)                                                   
%FLAG RADII                                                                     
%FORMAT(5E16.8)                                                                 
  1.70000000E+00  1.70000000E+00  1.70000000E+00  1.70000000E+00  1.70000000E+00
  1.70000000E+00  1.50000000E+00  1.50000000E+00  1.50000000E+00  1.50000000E+00
  1.50000000E+00  1.50000000E+00  1.30000000E+00  1.30000000E+00  1.30000000E+00
  1.30000000E+00  1.30000000E+00  1.30000000E+00  1.30000000E+00  1.30000000E+00
  8.00000000E-01  8.00000000E-01  8.00000000E-01  8.00000000E-01  8.00000000E-01
  8.00000000E-01
%FLAG SCREEN                                                                    
%FORMAT(5E16.8)                                                                 
  7.20000000E-01  7.20000000E-01  7.20000000E-01  7.20000000E-01  7.20000000E-01
  7.20000000E-01  8.50000000E-01  8.50000000E-01  8.50000000E-01  8.50000000E-01
  8.50000000E-01  8.50000000E-01  8.50000000E-01  8.50000000E-01  8.50000000E-01
  8.50000000E-01  8.50000000E-01  8.50000000E-01  8.50000000E-01  8.50000000E-01
  8.50000000E-01  8.50000000E-01  8.50000000E-01  8.50000000E-01  8.50000000E-01
  8.50000000E-01
%FLAG IPOL                                                                      
%FORMAT(1I8)                                                                    
       0
