mobley_4587267_GMX.gro created by acpype (v: 2023.10.27) on Wed May 20 23:44:57 2026
 26
    1  MOL   C1    1   0.028  -0.087   0.149
    1  MOL   C2    2   0.123  -0.155  -0.313
    1  MOL   C3    3   0.116  -0.175   0.060
    1  MOL   C4    4   0.016  -0.092  -0.224
    1  MOL   C5    5   0.038  -0.267  -0.036
    1  MOL   C6    6  -0.056  -0.191  -0.131
    1  MOL   O1    7   0.111  -0.010   0.234
    1  MOL   O2    8   0.180  -0.056  -0.397
    1  MOL   O3    9   0.195  -0.257   0.147
    1  MOL   O4   10  -0.081  -0.033  -0.311
    1  MOL   O5   11  -0.038  -0.361   0.039
    1  MOL   O6   12  -0.128  -0.286  -0.210
    1  MOL   H1   13  -0.038  -0.148   0.212
    1  MOL   H2   14  -0.032  -0.018   0.089
    1  MOL   H3   15   0.080  -0.232  -0.378
    1  MOL   H4   16   0.204  -0.200  -0.255
    1  MOL   H5   17   0.187  -0.112   0.004
    1  MOL   H6   18   0.059  -0.009  -0.166
    1  MOL   H7   19   0.111  -0.324  -0.095
    1  MOL   H8   20  -0.130  -0.135  -0.073
    1  MOL   H9   21   0.052   0.044   0.289
    1  MOL  H10   22   0.247  -0.101  -0.451
    1  MOL  H11   23   0.247  -0.196   0.201
    1  MOL  H12   24  -0.148   0.007  -0.254
    1  MOL  H13   25   0.025  -0.412   0.092
    1  MOL  H14   26  -0.192  -0.236  -0.262
    8.78800     9.11400    14.80400
