SAMPL4_001
    26
   0.2790000  -0.8740000   1.4860000   1.2290000  -1.5520000  -3.1280000
   1.1630000  -1.7450000   0.5960000   0.1590000  -0.9170000  -2.2410000
   0.3820000  -2.6670000  -0.3630000  -0.5630000  -1.9130000  -1.3130000
   1.1140000  -0.0980000   2.3410000   1.8050000  -0.5580000  -3.9730000
   1.9500000  -2.5690000   1.4650000  -0.8140000  -0.3300000  -3.1140000
  -0.3830000  -3.6070000   0.3910000  -1.2830000  -2.8640000  -2.0960000
  -0.3750000  -1.4760000   2.1210000  -0.3240000  -0.1790000   0.8930000
   0.8020000  -2.3180000  -3.7830000   2.0390000  -1.9980000  -2.5460000
   1.8700000  -1.1170000   0.0430000   0.5920000  -0.0920000  -1.6640000
   1.1120000  -3.2400000  -0.9460000  -1.3020000  -1.3530000  -0.7280000
   0.5230000   0.4410000   2.8890000   2.4730000  -1.0080000  -4.5130000
   2.4680000  -1.9620000   2.0130000  -1.4840000   0.0680000  -2.5400000
   0.2510000  -4.1160000   0.9200000  -1.9210000  -2.3590000  -2.6230000
