; mobley_4587267_GMX_OPLS.top created by acpype (v: 2023.10.27) on Wed May 20 23:44:57 2026

; Include forcefield parameters
#include "ffoplsaa.itp"

; Include mobley_4587267_GMX.itp topology
#include "mobley_4587267_GMX.itp"

; Ligand position restraints
#ifdef POSRES_LIG
#include "posre_mobley_4587267.itp"
#endif

[ system ]
 mobley_4587267

[ molecules ]
; Compound        nmols
 mobley_4587267   1     
