mobley_7608435_GMX.gro created by acpype (v: 2023.10.27) on Wed May 20 23:52:37 2026
14447
    1MOL     C1    1   2.755   2.300   2.621
    1MOL     C2    2   2.479   3.144   2.669
    1MOL     C3    3   2.839   2.081   2.648
    1MOL     C4    4   2.722   2.426   2.699
    1MOL     C5    5   2.511   3.019   2.590
    1MOL     C6    6   2.673   2.540   2.610
    1MOL     C7    7   2.566   2.908   2.679
    1MOL     C8    8   2.647   2.669   2.690
    1MOL     C9    9   2.595   2.781   2.600
    1MOL     O1   10   2.746   2.288   2.499
    1MOL     O2   11   2.801   2.205   2.707
    1MOL     H1   12   2.568   3.183   2.718
    1MOL     H2   13   2.403   3.123   2.746
    1MOL     H3   14   2.440   3.222   2.603
    1MOL     H4   15   2.869   2.011   2.726
    1MOL     H5   16   2.922   2.098   2.578
    1MOL     H6   17   2.754   2.040   2.593
    1MOL     H7   18   2.814   2.457   2.750
    1MOL     H8   19   2.647   2.402   2.774
    1MOL     H9   20   2.421   2.984   2.539
    1MOL    H10   21   2.584   3.043   2.512
    1MOL    H11   22   2.582   2.511   2.557
    1MOL    H12   23   2.750   2.561   2.534
    1MOL    H13   24   2.658   2.942   2.728
    1MOL    H14   25   2.494   2.886   2.759
    1MOL    H15   26   2.740   2.701   2.739
    1MOL    H16   27   2.574   2.650   2.770
    1MOL    H17   28   2.670   2.802   2.522
    1MOL    H18   29   2.504   2.747   2.549
    2SOL     OW   30   0.230   0.628   0.113
    2SOL    HW1   31   0.137   0.626   0.150
    2SOL    HW2   32   0.231   0.589   0.021
    3SOL     OW   33   0.225   0.275   0.996
    3SOL    HW1   34   0.260   0.258   1.088
    3SOL    HW2   35   0.137   0.230   0.984
    4SOL     OW   36   0.019   0.368   0.647
    4SOL    HW1   37  -0.063   0.411   0.686
    4SOL    HW2   38  -0.009   0.295   0.584
    5SOL     OW   39   0.569   1.275   1.165
    5SOL    HW1   40   0.476   1.268   1.128
    5SOL    HW2   41   0.580   1.364   1.209
    6SOL     OW   42   1.555   1.511   0.703
    6SOL    HW1   43   1.498   1.495   0.784
    6SOL    HW2   44   1.496   1.521   0.623
    7SOL     OW   45   1.135   0.703   0.717
    7SOL    HW1   46   1.192   0.781   0.692
    7SOL    HW2   47   1.075   0.729   0.793
    8SOL     OW   48   1.755   0.607   0.231
    8SOL    HW1   49   1.743   0.594   0.132
    8SOL    HW2   50   1.725   0.526   0.280
    9SOL     OW   51   0.768   1.144   1.023
    9SOL    HW1   52   0.690   1.161   1.083
    9SOL    HW2   53   0.802   1.231   0.987
   10SOL     OW   54   0.850   0.798   1.823
   10SOL    HW1   55   0.846   0.874   1.888
   10SOL    HW2   56   0.872   0.834   1.732
   11SOL     OW   57   0.685   1.012   0.665
   11SOL    HW1   58   0.754   0.996   0.735
   11SOL    HW2   59   0.612   1.069   0.703
   12SOL     OW   60   0.686   1.161   1.803
   12SOL    HW1   61   0.746   1.240   1.817
   12SOL    HW2   62   0.600   1.192   1.762
   13SOL     OW   63   0.335   1.435   1.061
   13SOL    HW1   64   0.257   1.404   1.008
   13SOL    HW2   65   0.393   1.493   1.004
   14SOL     OW   66   1.460   1.505   1.339
   14SOL    HW1   67   1.484   1.599   1.365
   14SOL    HW2   68   1.444   1.451   1.421
   15SOL     OW   69   0.438   0.392   1.499
   15SOL    HW1   70   0.520   0.336   1.508
   15SOL    HW2   71   0.357   0.334   1.503
   16SOL     OW   72   1.603   0.447   0.737
   16SOL    HW1   73   1.529   0.493   0.687
   16SOL    HW2   74   1.654   0.515   0.790
   17SOL     OW   75   0.231   1.713   0.483
   17SOL    HW1   76   0.265   1.790   0.537
   17SOL    HW2   77   0.275   1.713   0.393
   18SOL     OW   78   1.127   1.341   1.690
   18SOL    HW1   79   1.174   1.341   1.778
   18SOL    HW2   80   1.079   1.254   1.679
   19SOL     OW   81   0.230   1.434   0.538
   19SOL    HW1   82   0.204   1.530   0.538
   19SOL    HW2   83   0.159   1.380   0.583
   20SOL     OW   84   0.240   1.091   0.886
   20SOL    HW1   85   0.254   1.007   0.938
   20SOL    HW2   86   0.185   1.155   0.941
   21SOL     OW   87   0.620   1.786   1.439
   21SOL    HW1   88   0.528   1.769   1.474
   21SOL    HW2   89   0.648   1.878   1.465
   22SOL     OW   90   0.606   0.964   0.123
   22SOL    HW1   91   0.613   1.048   0.069
   22SOL    HW2   92   0.652   0.977   0.211
   23SOL     OW   93   1.594   0.114   1.480
   23SOL    HW1   94   1.576   0.181   1.408
   23SOL    HW2   95   1.591   0.160   1.569
   24SOL     OW   96   0.122   0.643   0.563
   24SOL    HW1   97   0.077   0.555   0.580
   24SOL    HW2   98   0.121   0.697   0.647
   25SOL     OW   99   1.842   1.767   0.359
   25SOL    HW1  100   1.896   1.738   0.439
   25SOL    HW2  101   1.872   1.857   0.330
   26SOL     OW  102   0.027   1.596   0.117
   26SOL    HW1  103   0.008   1.500   0.138
   26SOL    HW2  104  -0.006   1.654   0.192
   27SOL     OW  105   1.689   0.922   0.612
   27SOL    HW1  106   1.784   0.893   0.620
   27SOL    HW2  107   1.681   0.987   0.537
   28SOL     OW  108   1.641   1.108   0.432
   28SOL    HW1  109   1.727   1.110   0.380
   28SOL    HW2  110   1.655   1.155   0.520
   29SOL     OW  111   0.113   0.737   1.597
   29SOL    HW1  112   0.201   0.724   1.642
   29SOL    HW2  113   0.100   0.834   1.575
   30SOL     OW  114   0.613   1.365   0.726
   30SOL    HW1  115   0.564   1.278   0.735
   30SOL    HW2  116   0.590   1.408   0.639
   31SOL     OW  117   1.293   1.228   1.423
   31SOL    HW1  118   1.330   1.155   1.365
   31SOL    HW2  119   1.345   1.233   1.508
   32SOL     OW  120   0.809   0.004   0.502
   32SOL    HW1  121   0.849   0.095   0.493
   32SOL    HW2  122   0.709   0.012   0.508
   33SOL     OW  123   0.197   0.976   1.264
   33SOL    HW1  124   0.286   0.931   1.250
   33SOL    HW2  125   0.124   0.911   1.245
   34SOL     OW  126   1.525   0.999   0.190
   34SOL    HW1  127   1.462   0.923   0.203
   34SOL    HW2  128   1.573   1.017   0.276
   35SOL     OW  129   1.187   1.792   1.616
   35SOL    HW1  130   1.211   1.852   1.540
   35SOL    HW2  131   1.194   1.697   1.586
   36SOL     OW  132   0.317   0.251   1.801
   36SOL    HW1  133   0.388   0.322   1.807
   36SOL    HW2  134   0.229   0.290   1.829
   37SOL     OW  135   1.466   1.417   0.953
   37SOL    HW1  136   1.407   1.423   1.033
   37SOL    HW2  137   1.451   1.329   0.907
   38SOL     OW  138   1.667   1.714   0.572
   38SOL    HW1  139   1.626   1.691   0.484
   38SOL    HW2  140   1.649   1.640   0.637
   39SOL     OW  141   0.598   0.729   0.270
   39SOL    HW1  142   0.622   0.798   0.202
   39SOL    HW2  143   0.520   0.762   0.324
   40SOL     OW  144   1.281   0.345   0.944
   40SOL    HW1  145   1.195   0.295   0.931
   40SOL    HW2  146   1.343   0.291   1.000
   41SOL     OW  147   1.576   1.662   0.307
   41SOL    HW1  148   1.665   1.708   0.310
   41SOL    HW2  149   1.555   1.638   0.212
   42SOL     OW  150   0.807   0.605   1.465
   42SOL    HW1  151   0.760   0.602   1.554
   42SOL    HW2  152   0.756   0.550   1.399
   43SOL     OW  153   1.394   0.469   1.674
   43SOL    HW1  154   1.374   0.512   1.762
   43SOL    HW2  155   1.472   0.407   1.683
   44SOL     OW  156   0.973   0.890   1.572
   44SOL    HW1  157   1.019   0.806   1.543
   44SOL    HW2  158   0.917   0.924   1.497
   45SOL     OW  159   0.991   0.410   1.242
   45SOL    HW1  160   0.914   0.444   1.296
   45SOL    HW2  161   0.957   0.359   1.163
   46SOL     OW  162   1.041   0.701   0.429
   46SOL    HW1  163   1.067   0.697   0.525
   46SOL    HW2  164   0.956   0.650   0.415
   47SOL     OW  165   0.076   0.811   0.789
   47SOL    HW1  166   0.175   0.799   0.798
   47SOL    HW2  167   0.052   0.906   0.810
   48SOL     OW  168   0.130   1.821   1.571
   48SOL    HW1  169   0.120   1.806   1.670
   48SOL    HW2  170   0.044   1.857   1.535
   49SOL     OW  171   0.865   0.348   0.195
   49SOL    HW1  172   0.924   0.411   0.146
   49SOL    HW2  173   0.884   0.254   0.166
   50SOL     OW  174   1.719   0.585   1.831
   50SOL    HW1  175   1.693   0.674   1.795
   50SOL    HW2  176   1.717   0.517   1.758
   51SOL     OW  177   1.362   1.144   0.545
   51SOL    HW1  178   1.445   1.115   0.497
   51SOL    HW2  179   1.313   1.211   0.489
   52SOL     OW  180   0.550   0.196   0.885
   52SOL    HW1  181   0.545   0.191   0.985
   52SOL    HW2  182   0.552   0.292   0.856
   53SOL     OW  183   1.008   1.456   0.477
   53SOL    HW1  184   0.962   1.528   0.425
   53SOL    HW2  185   1.004   1.476   0.575
   54SOL     OW  186   0.351   1.801   0.853
   54SOL    HW1  187   0.401   1.715   0.859
   54SOL    HW2  188   0.416   1.878   0.850
   55SOL     OW  189   1.795   1.066   0.873
   55SOL    HW1  190   1.733   1.051   0.797
   55SOL    HW2  191   1.743   1.077   0.958
   56SOL     OW  192   1.227   1.550   1.506
   56SOL    HW1  193   1.233   1.473   1.570
   56SOL    HW2  194   1.175   1.524   1.426
   57SOL     OW  195   0.321   0.943   0.242
   57SOL    HW1  196   0.403   0.982   0.200
   57SOL    HW2  197   0.294   0.861   0.193
   58SOL     OW  198   1.458   0.735   0.728
   58SOL    HW1  199   1.453   0.670   0.803
   58SOL    HW2  200   1.538   0.794   0.741
   59SOL     OW  201   0.461   1.266   1.727
   59SOL    HW1  202   0.411   1.267   1.641
   59SOL    HW2  203   0.398   1.248   1.803
   60SOL     OW  204   1.111   1.776   0.237
   60SOL    HW1  205   1.051   1.714   0.287
   60SOL    HW2  206   1.142   1.732   0.152
   61SOL     OW  207   0.202   0.285   1.498
   61SOL    HW1  208   0.122   0.345   1.485
   61SOL    HW2  209   0.192   0.236   1.584
   62SOL     OW  210   1.632   1.377   0.081
   62SOL    HW1  211   1.600   1.471   0.071
   62SOL    HW2  212   1.556   1.314   0.069
   63SOL     OW  213   0.464   1.743   0.323
   63SOL    HW1  214   0.497   1.782   0.409
   63SOL    HW2  215   0.540   1.736   0.258
   64SOL     OW  216   1.400   0.107   0.426
   64SOL    HW1  217   1.376   0.070   0.336
   64SOL    HW2  218   1.499   0.123   0.430
   65SOL     OW  219   0.249   1.785   1.241
   65SOL    HW1  220   0.306   1.720   1.291
   65SOL    HW2  221   0.233   1.752   1.148
   66SOL     OW  222   0.940   1.698   0.904
   66SOL    HW1  223   1.020   1.641   0.925
   66SOL    HW2  224   0.891   1.658   0.827
   67SOL     OW  225   0.382   0.700   0.480
   67SOL    HW1  226   0.427   0.610   0.477
   67SOL    HW2  227   0.288   0.689   0.513
   68SOL     OW  228   1.547   0.222   1.729
   68SOL    HW1  229   1.542   0.259   1.821
   68SOL    HW2  230   1.475   0.153   1.717
   69SOL     OW  231   0.614   0.122   0.117
   69SOL    HW1  232   0.712   0.100   0.124
   69SOL    HW2  233   0.583   0.105   0.024
   70SOL     OW  234   0.781   0.264   1.749
   70SOL    HW1  235   0.848   0.203   1.792
   70SOL    HW2  236   0.708   0.283   1.814
   71SOL     OW  237   0.888   1.514   1.195
   71SOL    HW1  238   0.865   1.489   1.101
   71SOL    HW2  239   0.949   1.445   1.234
   72SOL     OW  240   1.351   0.590   1.433
   72SOL    HW1  241   1.379   0.547   1.518
   72SOL    HW2  242   1.376   0.686   1.434
   73SOL     OW  243   0.803   1.402   0.924
   73SOL    HW1  244   0.893   1.416   0.882
   73SOL    HW2  245   0.732   1.404   0.853
   74SOL     OW  246   0.922   0.503   0.899
   74SOL    HW1  247   0.897   0.494   0.803
   74SOL    HW2  248   0.970   0.421   0.930
   75SOL     OW  249   0.539   0.064   0.512
   75SOL    HW1  250   0.458   0.065   0.570
   75SOL    HW2  251   0.542   0.147   0.457
   76SOL     OW  252   1.434   1.188   0.041
   76SOL    HW1  253   1.466   1.112   0.098
   76SOL    HW2  254   1.342   1.215   0.071
   77SOL     OW  255   0.297   0.035   0.171
   77SOL    HW1  256   0.346   0.119   0.150
   77SOL    HW2  257   0.359  -0.030   0.216
   78SOL     OW  258   0.935   0.236   0.480
   78SOL    HW1  259   0.887   0.277   0.402
   78SOL    HW2  260   1.034   0.234   0.461
   79SOL     OW  261   1.076   0.683   1.464
   79SOL    HW1  262   0.996   0.622   1.467
   79SOL    HW2  263   1.157   0.630   1.440
   80SOL     OW  264   1.227   1.570   0.793
   80SOL    HW1  265   1.248   1.644   0.728
   80SOL    HW2  266   1.295   1.570   0.866
   81SOL     OW  267   0.459   1.152   0.741
   81SOL    HW1  268   0.388   1.125   0.806
   81SOL    HW2  269   0.433   1.124   0.648
   82SOL     OW  270   1.271   1.797   0.591
   82SOL    HW1  271   1.315   1.861   0.527
   82SOL    HW2  272   1.221   1.849   0.661
   83SOL     OW  273   1.032   0.549   0.016
   83SOL    HW1  274   0.991   0.631  -0.023
   83SOL    HW2  275   1.096   0.575   0.089
   84SOL     OW  276   0.078   0.556   1.386
   84SOL    HW1  277   0.170   0.555   1.345
   84SOL    HW2  278   0.072   0.630   1.453
   85SOL     OW  279   0.561   0.222   1.147
   85SOL    HW1  280   0.599   0.138   1.184
   85SOL    HW2  281   0.473   0.241   1.191
   86SOL     OW  282   0.866   0.454   0.642
   86SOL    HW1  283   0.834   0.526   0.580
   86SOL    HW2  284   0.890   0.373   0.589
   87SOL     OW  285   1.017   0.039   0.753
   87SOL    HW1  286   0.945   0.044   0.684
   87SOL    HW2  287   0.993  -0.030   0.822
   88SOL     OW  288   1.429   1.173   0.867
   88SOL    HW1  289   1.374   1.089   0.860
   88SOL    HW2  290   1.455   1.202   0.775
   89SOL     OW  291   1.466   0.590   0.992
   89SOL    HW1  292   1.436   0.495   0.999
   89SOL    HW2  293   1.539   0.606   1.058
   90SOL     OW  294   1.857   0.833   0.377
   90SOL    HW1  295   1.899   0.769   0.441
   90SOL    HW2  296   1.819   0.782   0.299
   91SOL     OW  297   0.488   1.385   0.174
   91SOL    HW1  298   0.401   1.370   0.221
   91SOL    HW2  299   0.471   1.411   0.079
   92SOL     OW  300   1.664   1.280   0.657
   92SOL    HW1  301   1.763   1.288   0.671
   92SOL    HW2  302   1.619   1.364   0.688
   93SOL     OW  303   1.390   0.575   0.078
   93SOL    HW1  304   1.336   0.554   0.159
   93SOL    HW2  305   1.481   0.534   0.087
   94SOL     OW  306   0.527   0.256   0.328
   94SOL    HW1  307   0.554   0.197   0.253
   94SOL    HW2  308   0.527   0.351   0.297
   95SOL     OW  309   1.754   1.223   1.588
   95SOL    HW1  310   1.845   1.184   1.575
   95SOL    HW2  311   1.762   1.319   1.612
   96SOL     OW  312   1.064   1.347   1.340
   96SOL    HW1  313   0.984   1.324   1.395
   96SOL    HW2  314   1.147   1.321   1.389
   97SOL     OW  315   1.592   1.629   1.625
   97SOL    HW1  316   1.619   1.663   1.535
   97SOL    HW2  317   1.671   1.591   1.671
   98SOL     OW  318   1.111   1.195   1.100
   98SOL    HW1  319   1.071   1.239   1.181
   98SOL    HW2  320   1.070   1.232   1.017
   99SOL     OW  321   1.638   1.099   1.079
   99SOL    HW1  322   1.643   1.180   1.138
   99SOL    HW2  323   1.552   1.101   1.028
  100SOL     OW  324   0.915   0.089   1.402
  100SOL    HW1  325   0.940   0.069   1.307
  100SOL    HW2  326   0.987   0.145   1.444
  101SOL     OW  327   0.980   1.116   1.719
  101SOL    HW1  328   0.881   1.122   1.729
  101SOL    HW2  329   1.003   1.036   1.663
  102SOL     OW  330   0.705   1.050   0.368
  102SOL    HW1  331   0.691   1.057   0.467
  102SOL    HW2  332   0.789   0.999   0.350
  103SOL     OW  333   0.410   0.813   1.251
  103SOL    HW1  334   0.496   0.825   1.301
  103SOL    HW2  335   0.368   0.726   1.278
  104SOL     OW  336   1.274   0.386   1.262
  104SOL    HW1  337   1.295   0.460   1.326
  104SOL    HW2  338   1.185   0.403   1.219
  105SOL     OW  339   0.064   1.564   1.331
  105SOL    HW1  340   0.018   1.646   1.297
  105SOL    HW2  341   0.162   1.583   1.340
  106SOL     OW  342   0.367   1.100   0.501
  106SOL    HW1  343   0.360   1.183   0.445
  106SOL    HW2  344   0.371   1.020   0.441
  107SOL     OW  345   0.566   0.537   0.865
  107SOL    HW1  346   0.578   0.603   0.791
  107SOL    HW2  347   0.612   0.571   0.948
  108SOL     OW  348   1.252   1.348   0.388
  108SOL    HW1  349   1.302   1.425   0.428
  108SOL    HW2  350   1.157   1.350   0.420
  109SOL     OW  351   1.272   1.445   1.142
  109SOL    HW1  352   1.319   1.458   1.229
  109SOL    HW2  353   1.206   1.371   1.151
  110SOL     OW  354   1.582   0.639   0.472
  110SOL    HW1  355   1.551   0.700   0.545
  110SOL    HW2  356   1.632   0.691   0.403
  111SOL     OW  357   0.354   1.510   1.329
  111SOL    HW1  358   0.333   1.466   1.242
  111SOL    HW2  359   0.451   1.536   1.332
  112SOL     OW  360   0.402   0.751   1.598
  112SOL    HW1  361   0.470   0.806   1.551
  112SOL    HW2  362   0.442   0.663   1.625
  113SOL     OW  363   1.587   0.779   1.670
  113SOL    HW1  364   1.495   0.817   1.665
  113SOL    HW2  365   1.647   0.826   1.605
  114SOL     OW  366   1.013   0.105   1.770
  114SOL    HW1  367   1.019   0.190   1.718
  114SOL    HW2  368   1.045   0.029   1.713
  115SOL     OW  369   0.504   0.050   1.740
  115SOL    HW1  370   0.462  -0.007   1.670
  115SOL    HW2  371   0.438   0.119   1.772
  116SOL     OW  372   0.573   0.870   1.029
  116SOL    HW1  373   0.617   0.959   1.020
  116SOL    HW2  374   0.510   0.870   1.106
  117SOL     OW  375   1.360   0.862   1.045
  117SOL    HW1  376   1.285   0.862   0.979
  117SOL    HW2  377   1.397   0.770   1.054
  118SOL     OW  378   1.209   0.525   0.275
  118SOL    HW1  379   1.222   0.441   0.329
  118SOL    HW2  380   1.180   0.599   0.335
  119SOL     OW  381   0.307   0.213   1.231
  119SOL    HW1  382   0.284   0.250   1.321
  119SOL    HW2  383   0.277   0.118   1.225
  120SOL     OW  384   0.037   1.310   1.282
  120SOL    HW1  385   0.090   1.261   1.350
  120SOL    HW2  386   0.059   1.408   1.287
  121SOL     OW  387   0.732   0.634   1.064
  121SOL    HW1  388   0.791   0.608   0.988
  121SOL    HW2  389   0.704   0.730   1.053
  122SOL     OW  390   1.728   0.935   1.854
  122SOL    HW1  391   1.682   0.928   1.765
  122SOL    HW2  392   1.666   0.979   1.920
  123SOL     OW  393   0.307   0.063   0.618
  123SOL    HW1  394   0.296   0.157   0.651
  123SOL    HW2  395   0.302   0.000   0.695
  124SOL     OW  396   1.622   0.367   0.374
  124SOL    HW1  397   1.624   0.291   0.438
  124SOL    HW2  398   1.574   0.444   0.414
  125SOL     OW  399   1.023   0.766   0.966
  125SOL    HW1  400   1.038   0.787   1.062
  125SOL    HW2  401   0.993   0.671   0.957
  126SOL     OW  402   0.980   1.573   1.700
  126SOL    HW1  403   0.960   1.617   1.612
  126SOL    HW2  404   1.019   1.482   1.684
  127SOL     OW  405   1.859   1.518   1.605
  127SOL    HW1  406   1.873   1.545   1.510
  127SOL    HW2  407   1.942   1.540   1.658
  128SOL     OW  408   0.350   0.898   1.804
  128SOL    HW1  409   0.426   0.942   1.852
  128SOL    HW2  410   0.385   0.851   1.722
  129SOL     OW  411   1.540   0.274   0.125
  129SOL    HW1  412   1.479   0.199   0.148
  129SOL    HW2  413   1.562   0.326   0.208
  130SOL     OW  414   1.303   0.838   0.042
  130SOL    HW1  415   1.337   0.745   0.057
  130SOL    HW2  416   1.321   0.865  -0.053
  131SOL     OW  417   1.068   1.333   0.849
  131SOL    HW1  418   1.075   1.249   0.794
  131SOL    HW2  419   1.130   1.402   0.813
  132SOL     OW  420   0.319   0.810   0.949
  132SOL    HW1  421   0.412   0.846   0.954
  132SOL    HW2  422   0.313   0.725   1.001
  133SOL     OW  423   0.339   0.509   1.006
  133SOL    HW1  424   0.287   0.426   0.989
  133SOL    HW2  425   0.416   0.514   0.942
  134SOL     OW  426   1.138   0.380   1.678
  134SOL    HW1  427   1.093   0.443   1.742
  134SOL    HW2  428   1.231   0.411   1.661
  135SOL     OW  429   1.160   0.207   1.477
  135SOL    HW1  430   1.160   0.271   1.554
  135SOL    HW2  431   1.188   0.255   1.394
  136SOL     OW  432   0.008   1.326   0.200
  136SOL    HW1  433  -0.085   1.347   0.169
  136SOL    HW2  434   0.018   1.227   0.213
  137SOL     OW  435   0.088   1.801   0.927
  137SOL    HW1  436   0.046   1.715   0.900
  137SOL    HW2  437   0.182   1.804   0.893
  138SOL     OW  438   0.504   1.568   0.910
  138SOL    HW1  439   0.570   1.642   0.919
  138SOL    HW2  440   0.548   1.489   0.868
  139SOL     OW  441   1.002   0.796   1.238
  139SOL    HW1  442   1.043   0.764   1.324
  139SOL    HW2  443   0.906   0.769   1.235
  140SOL     OW  444   0.040   0.544   1.114
  140SOL    HW1  445   0.125   0.511   1.073
  140SOL    HW2  446   0.053   0.559   1.212
  141SOL     OW  447   0.189   0.520   1.722
  141SOL    HW1  448   0.248   0.480   1.652
  141SOL    HW2  449   0.131   0.591   1.681
  142SOL     OW  450   1.369   0.950   1.660
  142SOL    HW1  451   1.408   1.039   1.680
  142SOL    HW2  452   1.379   0.930   1.563
  143SOL     OW  453   0.815   0.572   0.325
  143SOL    HW1  454   0.822   0.483   0.279
  143SOL    HW2  455   0.721   0.606   0.317
  144SOL     OW  456   1.657   0.604   1.206
  144SOL    HW1  457   1.619   0.535   1.268
  144SOL    HW2  458   1.739   0.568   1.162
  145SOL     OW  459   0.252   1.564   1.744
  145SOL    HW1  460   0.222   1.621   1.820
  145SOL    HW2  461   0.245   1.467   1.770
  146SOL     OW  462   0.671   0.464   1.269
  146SOL    HW1  463   0.637   0.375   1.239
  146SOL    HW2  464   0.697   0.518   1.189
  147SOL     OW  465   0.930   1.678   1.465
  147SOL    HW1  466   0.906   1.660   1.370
  147SOL    HW2  467   0.960   1.772   1.475
  148SOL     OW  468   0.473   0.500   0.191
  148SOL    HW1  469   0.534   0.580   0.195
  148SOL    HW2  470   0.378   0.531   0.198
  149SOL     OW  471   0.159   1.137   1.466
  149SOL    HW1  472   0.181   1.076   1.542
  149SOL    HW2  473   0.169   1.088   1.380
  150SOL     OW  474   1.347   1.059   1.234
  150SOL    HW1  475   1.371   0.996   1.160
  150SOL    HW2  476   1.257   1.099   1.216
  151SOL     OW  477   1.302   0.855   0.309
  151SOL    HW1  478   1.216   0.824   0.351
  151SOL    HW2  479   1.298   0.841   0.210
  152SOL     OW  480   1.759   1.747   1.154
  152SOL    HW1  481   1.820   1.777   1.081
  152SOL    HW2  482   1.721   1.658   1.132
  153SOL     OW  483   1.252   1.731   1.128
  153SOL    HW1  484   1.336   1.736   1.074
  153SOL    HW2  485   1.229   1.635   1.146
  154SOL     OW  486   0.083   1.258   1.022
  154SOL    HW1  487   0.078   1.257   1.122
  154SOL    HW2  488   0.000   1.217   0.984
  155SOL     OW  489   0.688   1.662   1.716
  155SOL    HW1  490   0.632   1.743   1.725
  155SOL    HW2  491   0.740   1.666   1.630
  156SOL     OW  492   0.903   0.086   0.133
  156SOL    HW1  493   0.954   0.087   0.047
  156SOL    HW2  494   0.959   0.044   0.204
  157SOL     OW  495   1.726   0.135   0.523
  157SOL    HW1  496   1.799   0.118   0.456
  157SOL    HW2  497   1.695   0.048   0.561
  158SOL     OW  498   1.388   1.573   0.477
  158SOL    HW1  499   1.455   1.585   0.403
  158SOL    HW2  500   1.348   1.662   0.500
  159SOL     OW  501   0.130   1.794   1.851
  159SOL    HW1  502   0.089   1.720   1.904
  159SOL    HW2  503   0.194   1.845   1.909
  160SOL     OW  504   1.280   0.927   0.672
  160SOL    HW1  505   1.340   0.846   0.674
  160SOL    HW2  506   1.320   0.996   0.612
  161SOL     OW  507   0.830   1.273   1.422
  161SOL    HW1  508   0.825   1.306   1.517
  161SOL    HW2  509   0.744   1.292   1.376
  162SOL     OW  510   0.672   1.616   0.154
  162SOL    HW1  511   0.681   1.626   0.055
  162SOL    HW2  512   0.632   1.527   0.175
  163SOL     OW  513   1.650   1.720   1.394
  163SOL    HW1  514   1.703   1.730   1.310
  163SOL    HW2  515   1.623   1.810   1.428
  164SOL     OW  516   1.841   0.175   0.963
  164SOL    HW1  517   1.880   0.090   0.927
  164SOL    HW2  518   1.743   0.177   0.944
  165SOL     OW  519   0.263   0.326   0.720
  165SOL    HW1  520   0.184   0.377   0.686
  165SOL    HW2  521   0.254   0.311   0.818
  166SOL     OW  522   1.194   1.612   0.031
  166SOL    HW1  523   1.200   1.519   0.068
  166SOL    HW2  524   1.135   1.612  -0.049
  167SOL     OW  525   0.822   1.002   1.372
  167SOL    HW1  526   0.862   1.001   1.280
  167SOL    HW2  527   0.832   1.094   1.412
  168SOL     OW  528   0.916   0.910   0.291
  168SOL    HW1  529   0.979   0.948   0.223
  168SOL    HW2  530   0.956   0.827   0.330
  169SOL     OW  531   1.504   1.607   0.044
  169SOL    HW1  532   1.412   1.644   0.051
  169SOL    HW2  533   1.542   1.627  -0.046
  170SOL     OW  534   0.372   1.288   1.490
  170SOL    HW1  535   0.359   1.381   1.456
  170SOL    HW2  536   0.288   1.236   1.477
  171SOL     OW  537   1.614   1.292   1.289
  171SOL    HW1  538   1.674   1.295   1.369
  171SOL    HW2  539   1.539   1.356   1.302
  172SOL     OW  540   1.039   1.098   0.696
  172SOL    HW1  541   0.969   1.051   0.750
  172SOL    HW2  542   1.098   1.030   0.653
  173SOL     OW  543   1.014   0.236   0.971
  173SOL    HW1  544   1.006   0.200   0.878
  173SOL    HW2  545   1.012   0.160   1.036
  174SOL     OW  546   0.590   1.487   0.491
  174SOL    HW1  547   0.632   1.429   0.421
  174SOL    HW2  548   0.546   1.566   0.447
  175SOL     OW  549   1.709   0.385   1.381
  175SOL    HW1  550   1.782   0.454   1.385
  175SOL    HW2  551   1.737   0.310   1.322
  176SOL     OW  552   0.255   1.348   0.290
  176SOL    HW1  553   0.159   1.349   0.263
  176SOL    HW2  554   0.267   1.401   0.374
  177SOL     OW  555   0.105   1.013   1.726
  177SOL    HW1  556   0.028   0.980   1.780
  177SOL    HW2  557   0.190   0.983   1.768
  178SOL     OW  558   0.672   0.203   1.489
  178SOL    HW1  559   0.762   0.187   1.449
  178SOL    HW2  560   0.680   0.208   1.588
  179SOL     OW  561   0.075   0.345   0.033
  179SOL    HW1  562  -0.017   0.317   0.004
  179SOL    HW2  563   0.106   0.422  -0.023
  180SOL     OW  564   1.440   0.856   1.398
  180SOL    HW1  565   1.383   0.908   1.335
  180SOL    HW2  566   1.536   0.868   1.374
  181SOL     OW  567   0.072   0.166   0.318
  181SOL    HW1  568   0.055   0.249   0.264
  181SOL    HW2  569   0.162   0.129   0.296
  182SOL     OW  570   1.183   1.335   0.119
  182SOL    HW1  571   1.084   1.324   0.121
  182SOL    HW2  572   1.217   1.350   0.212
  183SOL     OW  573   0.613   0.842   1.431
  183SOL    HW1  574   0.669   0.923   1.414
  183SOL    HW2  575   0.672   0.762   1.434
  184SOL     OW  576   1.493   1.767   0.959
  184SOL    HW1  577   1.526   1.831   0.890
  184SOL    HW2  578   1.559   1.761   1.034
  185SOL     OW  579   0.716   0.565   1.708
  185SOL    HW1  580   0.735   0.630   1.782
  185SOL    HW2  581   0.776   0.485   1.717
  186SOL     OW  582   1.450   1.220   1.633
  186SOL    HW1  583   1.441   1.210   1.732
  186SOL    HW2  584   1.546   1.213   1.607
  187SOL     OW  585   0.390   1.741   1.560
  187SOL    HW1  586   0.299   1.782   1.558
  187SOL    HW2  587   0.383   1.647   1.592
  188SOL     OW  588   1.674   0.883   1.254
  188SOL    HW1  589   1.647   0.794   1.217
  188SOL    HW2  590   1.675   0.951   1.181
  189SOL     OW  591   1.225   0.325   0.449
  189SOL    HW1  592   1.290   0.251   0.438
  189SOL    HW2  593   1.245   0.375   0.533
  190SOL     OW  594   0.594   0.745   0.652
  190SOL    HW1  595   0.644   0.830   0.633
  190SOL    HW2  596   0.506   0.747   0.604
  191SOL     OW  597   1.777   0.342   1.642
  191SOL    HW1  598   1.760   0.373   1.548
  191SOL    HW2  599   1.693   0.305   1.680
  192SOL     OW  600   1.730   0.934   1.517
  192SOL    HW1  601   1.768   1.025   1.532
  192SOL    HW2  602   1.722   0.917   1.418
  193SOL     OW  603   0.859   1.374   0.016
  193SOL    HW1  604   0.813   1.389   0.104
  193SOL    HW2  605   0.903   1.459  -0.014
  194SOL     OW  606   0.661   1.790   0.953
  194SOL    HW1  607   0.615   1.878   0.940
  194SOL    HW2  608   0.760   1.802   0.946
  195SOL     OW  609   0.859   0.956   0.861
  195SOL    HW1  610   0.913   0.887   0.909
  195SOL    HW2  611   0.827   1.025   0.927
  196SOL     OW  612   1.083   0.984   0.087
  196SOL    HW1  613   1.060   1.037   0.005
  196SOL    HW2  614   1.164   0.928   0.068
  197SOL     OW  615   1.861   1.569   0.851
  197SOL    HW1  616   1.790   1.557   0.781
  197SOL    HW2  617   1.862   1.490   0.911
  198SOL     OW  618   0.221   1.314   1.844
  198SOL    HW1  619   0.156   1.241   1.823
  198SOL    HW2  620   0.225   1.328   1.942
  199SOL     OW  621   0.079   1.240   0.653
  199SOL    HW1  622   0.078   1.193   0.741
  199SOL    HW2  623   0.161   1.212   0.602
  200SOL     OW  624   0.672   1.391   1.624
  200SOL    HW1  625   0.594   1.341   1.662
  200SOL    HW2  626   0.669   1.486   1.655
  201SOL     OW  627   1.824   0.192   1.227
  201SOL    HW1  628   1.820   0.102   1.271
  201SOL    HW2  629   1.827   0.181   1.128
  202SOL     OW  630   0.428   0.424   0.520
  202SOL    HW1  631   0.458   0.352   0.458
  202SOL    HW2  632   0.389   0.384   0.603
  203SOL     OW  633   1.705   1.487   1.104
  203SOL    HW1  634   1.612   1.462   1.077
  203SOL    HW2  635   1.731   1.437   1.186
  204SOL     OW  636   0.317   0.547   1.280
  204SOL    HW1  637   0.355   0.488   1.352
  204SOL    HW2  638   0.357   0.521   1.192
  205SOL     OW  639   0.812   1.586   0.687
  205SOL    HW1  640   0.844   1.596   0.593
  205SOL    HW2  641   0.733   1.524   0.689
  206SOL     OW  642   1.424   0.214   1.112
  206SOL    HW1  643   1.476   0.149   1.167
  206SOL    HW2  644   1.375   0.277   1.173
  207SOL     OW  645   1.001   0.034   1.154
  207SOL    HW1  646   0.938  -0.038   1.123
  207SOL    HW2  647   1.094  -0.002   1.154
  208SOL     OW  648   0.770   1.330   0.301
  208SOL    HW1  649   0.724   1.243   0.318
  208SOL    HW2  650   0.861   1.327   0.342
  209SOL     OW  651   0.618   1.567   1.284
  209SOL    HW1  652   0.613   1.649   1.341
  209SOL    HW2  653   0.707   1.564   1.239
  210SOL     OW  654   1.352   0.052   0.168
  210SOL    HW1  655   1.387   0.011   0.084
  210SOL    HW2  656   1.262   0.014   0.188
  211SOL     OW  657   1.300   0.453   0.691
  211SOL    HW1  658   1.241   0.533   0.695
  211SOL    HW2  659   1.315   0.418   0.784
  212SOL     OW  660   1.593   0.221   0.882
  212SOL    HW1  661   1.509   0.220   0.936
  212SOL    HW2  662   1.595   0.304   0.826
  213SOL     OW  663   0.039   1.077   0.300
  213SOL    HW1  664   0.138   1.066   0.291
  213SOL    HW2  665  -0.001   0.991   0.332
  214SOL     OW  666   0.875   1.646   0.337
  214SOL    HW1  667   0.798   1.611   0.283
  214SOL    HW2  668   0.843   1.717   0.399
  215SOL     OW  669   0.230   0.628   1.975
  215SOL    HW1  670   0.137   0.626   2.012
  215SOL    HW2  671   0.231   0.589   1.883
  216SOL     OW  672   0.225   0.275   2.858
  216SOL    HW1  673   0.260   0.258   2.950
  216SOL    HW2  674   0.137   0.230   2.846
  217SOL     OW  675   0.019   0.368   2.509
  217SOL    HW1  676  -0.063   0.411   2.548
  217SOL    HW2  677  -0.009   0.295   2.446
  218SOL     OW  678   0.569   1.275   3.027
  218SOL    HW1  679   0.476   1.268   2.990
  218SOL    HW2  680   0.580   1.364   3.071
  219SOL     OW  681   1.555   1.511   2.565
  219SOL    HW1  682   1.498   1.495   2.646
  219SOL    HW2  683   1.496   1.521   2.485
  220SOL     OW  684   1.135   0.703   2.579
  220SOL    HW1  685   1.192   0.781   2.554
  220SOL    HW2  686   1.075   0.729   2.655
  221SOL     OW  687   1.755   0.607   2.093
  221SOL    HW1  688   1.743   0.594   1.994
  221SOL    HW2  689   1.725   0.526   2.142
  222SOL     OW  690   0.768   1.144   2.885
  222SOL    HW1  691   0.690   1.161   2.945
  222SOL    HW2  692   0.802   1.231   2.849
  223SOL     OW  693   0.850   0.798   3.685
  223SOL    HW1  694   0.846   0.874   3.750
  223SOL    HW2  695   0.872   0.834   3.594
  224SOL     OW  696   0.685   1.012   2.527
  224SOL    HW1  697   0.754   0.996   2.597
  224SOL    HW2  698   0.612   1.069   2.565
  225SOL     OW  699   0.686   1.161   3.665
  225SOL    HW1  700   0.746   1.240   3.679
  225SOL    HW2  701   0.600   1.192   3.624
  226SOL     OW  702   0.335   1.435   2.923
  226SOL    HW1  703   0.257   1.404   2.870
  226SOL    HW2  704   0.393   1.493   2.866
  227SOL     OW  705   1.460   1.505   3.201
  227SOL    HW1  706   1.484   1.599   3.227
  227SOL    HW2  707   1.444   1.451   3.283
  228SOL     OW  708   0.438   0.392   3.361
  228SOL    HW1  709   0.520   0.336   3.370
  228SOL    HW2  710   0.357   0.334   3.365
  229SOL     OW  711   1.603   0.447   2.599
  229SOL    HW1  712   1.529   0.493   2.549
  229SOL    HW2  713   1.654   0.515   2.652
  230SOL     OW  714   0.231   1.713   2.345
  230SOL    HW1  715   0.265   1.790   2.399
  230SOL    HW2  716   0.275   1.713   2.255
  231SOL     OW  717   1.127   1.341   3.552
  231SOL    HW1  718   1.174   1.341   3.640
  231SOL    HW2  719   1.079   1.254   3.541
  232SOL     OW  720   0.230   1.434   2.400
  232SOL    HW1  721   0.204   1.530   2.400
  232SOL    HW2  722   0.159   1.380   2.445
  233SOL     OW  723   0.240   1.091   2.748
  233SOL    HW1  724   0.254   1.007   2.800
  233SOL    HW2  725   0.185   1.155   2.803
  234SOL     OW  726   0.620   1.786   3.301
  234SOL    HW1  727   0.528   1.769   3.336
  234SOL    HW2  728   0.648   1.878   3.327
  235SOL     OW  729   0.606   0.964   1.985
  235SOL    HW1  730   0.613   1.048   1.931
  235SOL    HW2  731   0.652   0.977   2.073
  236SOL     OW  732   1.594   0.114   3.342
  236SOL    HW1  733   1.576   0.181   3.270
  236SOL    HW2  734   1.591   0.160   3.431
  237SOL     OW  735   0.122   0.643   2.425
  237SOL    HW1  736   0.077   0.555   2.442
  237SOL    HW2  737   0.121   0.697   2.509
  238SOL     OW  738   1.842   1.767   2.221
  238SOL    HW1  739   1.896   1.738   2.301
  238SOL    HW2  740   1.872   1.857   2.192
  239SOL     OW  741   0.027   1.596   1.979
  239SOL    HW1  742   0.008   1.500   2.000
  239SOL    HW2  743  -0.006   1.654   2.054
  240SOL     OW  744   1.689   0.922   2.474
  240SOL    HW1  745   1.784   0.893   2.482
  240SOL    HW2  746   1.681   0.987   2.399
  241SOL     OW  747   1.641   1.108   2.294
  241SOL    HW1  748   1.727   1.110   2.242
  241SOL    HW2  749   1.655   1.155   2.382
  242SOL     OW  750   0.113   0.737   3.459
  242SOL    HW1  751   0.201   0.724   3.504
  242SOL    HW2  752   0.100   0.834   3.437
  243SOL     OW  753   0.613   1.365   2.588
  243SOL    HW1  754   0.564   1.278   2.597
  243SOL    HW2  755   0.590   1.408   2.501
  244SOL     OW  756   1.293   1.228   3.285
  244SOL    HW1  757   1.330   1.155   3.227
  244SOL    HW2  758   1.345   1.233   3.370
  245SOL     OW  759   0.809   0.004   2.364
  245SOL    HW1  760   0.849   0.095   2.355
  245SOL    HW2  761   0.709   0.012   2.370
  246SOL     OW  762   0.197   0.976   3.126
  246SOL    HW1  763   0.286   0.931   3.112
  246SOL    HW2  764   0.124   0.911   3.107
  247SOL     OW  765   1.525   0.999   2.052
  247SOL    HW1  766   1.462   0.923   2.065
  247SOL    HW2  767   1.573   1.017   2.138
  248SOL     OW  768   1.187   1.792   3.478
  248SOL    HW1  769   1.211   1.852   3.402
  248SOL    HW2  770   1.194   1.697   3.448
  249SOL     OW  771   0.317   0.251   3.663
  249SOL    HW1  772   0.388   0.322   3.669
  249SOL    HW2  773   0.229   0.290   3.691
  250SOL     OW  774   1.466   1.417   2.815
  250SOL    HW1  775   1.407   1.423   2.895
  250SOL    HW2  776   1.451   1.329   2.769
  251SOL     OW  777   1.667   1.714   2.434
  251SOL    HW1  778   1.626   1.691   2.346
  251SOL    HW2  779   1.649   1.640   2.499
  252SOL     OW  780   0.598   0.729   2.132
  252SOL    HW1  781   0.622   0.798   2.064
  252SOL    HW2  782   0.520   0.762   2.186
  253SOL     OW  783   1.281   0.345   2.806
  253SOL    HW1  784   1.195   0.295   2.793
  253SOL    HW2  785   1.343   0.291   2.862
  254SOL     OW  786   1.576   1.662   2.169
  254SOL    HW1  787   1.665   1.708   2.172
  254SOL    HW2  788   1.555   1.638   2.074
  255SOL     OW  789   0.807   0.605   3.327
  255SOL    HW1  790   0.760   0.602   3.416
  255SOL    HW2  791   0.756   0.550   3.261
  256SOL     OW  792   1.394   0.469   3.536
  256SOL    HW1  793   1.374   0.512   3.624
  256SOL    HW2  794   1.472   0.407   3.545
  257SOL     OW  795   0.973   0.890   3.434
  257SOL    HW1  796   1.019   0.806   3.405
  257SOL    HW2  797   0.917   0.924   3.359
  258SOL     OW  798   0.991   0.410   3.104
  258SOL    HW1  799   0.914   0.444   3.158
  258SOL    HW2  800   0.957   0.359   3.025
  259SOL     OW  801   1.041   0.701   2.291
  259SOL    HW1  802   1.067   0.697   2.387
  259SOL    HW2  803   0.956   0.650   2.277
  260SOL     OW  804   0.076   0.811   2.651
  260SOL    HW1  805   0.175   0.799   2.660
  260SOL    HW2  806   0.052   0.906   2.672
  261SOL     OW  807   0.130   1.821   3.433
  261SOL    HW1  808   0.120   1.806   3.532
  261SOL    HW2  809   0.044   1.857   3.397
  262SOL     OW  810   0.865   0.348   2.057
  262SOL    HW1  811   0.924   0.411   2.008
  262SOL    HW2  812   0.884   0.254   2.028
  263SOL     OW  813   1.719   0.585   3.693
  263SOL    HW1  814   1.693   0.674   3.657
  263SOL    HW2  815   1.717   0.517   3.620
  264SOL     OW  816   1.362   1.144   2.407
  264SOL    HW1  817   1.445   1.115   2.359
  264SOL    HW2  818   1.313   1.211   2.351
  265SOL     OW  819   0.550   0.196   2.747
  265SOL    HW1  820   0.545   0.191   2.847
  265SOL    HW2  821   0.552   0.292   2.718
  266SOL     OW  822   1.008   1.456   2.339
  266SOL    HW1  823   0.962   1.528   2.287
  266SOL    HW2  824   1.004   1.476   2.437
  267SOL     OW  825   0.351   1.801   2.715
  267SOL    HW1  826   0.401   1.715   2.721
  267SOL    HW2  827   0.416   1.878   2.712
  268SOL     OW  828   1.795   1.066   2.735
  268SOL    HW1  829   1.733   1.051   2.659
  268SOL    HW2  830   1.743   1.077   2.820
  269SOL     OW  831   1.227   1.550   3.368
  269SOL    HW1  832   1.233   1.473   3.432
  269SOL    HW2  833   1.175   1.524   3.288
  270SOL     OW  834   0.321   0.943   2.104
  270SOL    HW1  835   0.403   0.982   2.062
  270SOL    HW2  836   0.294   0.861   2.055
  271SOL     OW  837   1.458   0.735   2.590
  271SOL    HW1  838   1.453   0.670   2.665
  271SOL    HW2  839   1.538   0.794   2.603
  272SOL     OW  840   0.461   1.266   3.589
  272SOL    HW1  841   0.411   1.267   3.503
  272SOL    HW2  842   0.398   1.248   3.665
  273SOL     OW  843   1.111   1.776   2.099
  273SOL    HW1  844   1.051   1.714   2.149
  273SOL    HW2  845   1.142   1.732   2.014
  274SOL     OW  846   0.202   0.285   3.360
  274SOL    HW1  847   0.122   0.345   3.347
  274SOL    HW2  848   0.192   0.236   3.446
  275SOL     OW  849   1.632   1.377   1.943
  275SOL    HW1  850   1.600   1.471   1.933
  275SOL    HW2  851   1.556   1.314   1.931
  276SOL     OW  852   0.464   1.743   2.185
  276SOL    HW1  853   0.497   1.782   2.271
  276SOL    HW2  854   0.540   1.736   2.120
  277SOL     OW  855   1.400   0.107   2.288
  277SOL    HW1  856   1.376   0.070   2.198
  277SOL    HW2  857   1.499   0.123   2.292
  278SOL     OW  858   0.249   1.785   3.103
  278SOL    HW1  859   0.306   1.720   3.153
  278SOL    HW2  860   0.233   1.752   3.010
  279SOL     OW  861   0.940   1.698   2.766
  279SOL    HW1  862   1.020   1.641   2.787
  279SOL    HW2  863   0.891   1.658   2.689
  280SOL     OW  864   0.382   0.700   2.342
  280SOL    HW1  865   0.427   0.610   2.339
  280SOL    HW2  866   0.288   0.689   2.375
  281SOL     OW  867   1.547   0.222   3.591
  281SOL    HW1  868   1.542   0.259   3.683
  281SOL    HW2  869   1.475   0.153   3.579
  282SOL     OW  870   0.614   0.122   1.979
  282SOL    HW1  871   0.712   0.100   1.986
  282SOL    HW2  872   0.583   0.105   1.886
  283SOL     OW  873   0.781   0.264   3.611
  283SOL    HW1  874   0.848   0.203   3.654
  283SOL    HW2  875   0.708   0.283   3.676
  284SOL     OW  876   0.888   1.514   3.057
  284SOL    HW1  877   0.865   1.489   2.963
  284SOL    HW2  878   0.949   1.445   3.096
  285SOL     OW  879   1.351   0.590   3.295
  285SOL    HW1  880   1.379   0.547   3.380
  285SOL    HW2  881   1.376   0.686   3.296
  286SOL     OW  882   0.803   1.402   2.786
  286SOL    HW1  883   0.893   1.416   2.744
  286SOL    HW2  884   0.732   1.404   2.715
  287SOL     OW  885   0.922   0.503   2.761
  287SOL    HW1  886   0.897   0.494   2.665
  287SOL    HW2  887   0.970   0.421   2.792
  288SOL     OW  888   0.539   0.064   2.374
  288SOL    HW1  889   0.458   0.065   2.432
  288SOL    HW2  890   0.542   0.147   2.319
  289SOL     OW  891   1.434   1.188   1.903
  289SOL    HW1  892   1.466   1.112   1.960
  289SOL    HW2  893   1.342   1.215   1.933
  290SOL     OW  894   0.297   0.035   2.033
  290SOL    HW1  895   0.346   0.119   2.012
  290SOL    HW2  896   0.359  -0.030   2.078
  291SOL     OW  897   0.935   0.236   2.342
  291SOL    HW1  898   0.887   0.277   2.264
  291SOL    HW2  899   1.034   0.234   2.323
  292SOL     OW  900   1.076   0.683   3.326
  292SOL    HW1  901   0.996   0.622   3.329
  292SOL    HW2  902   1.157   0.630   3.302
  293SOL     OW  903   1.227   1.570   2.655
  293SOL    HW1  904   1.248   1.644   2.590
  293SOL    HW2  905   1.295   1.570   2.728
  294SOL     OW  906   0.459   1.152   2.603
  294SOL    HW1  907   0.388   1.125   2.668
  294SOL    HW2  908   0.433   1.124   2.510
  295SOL     OW  909   1.271   1.797   2.453
  295SOL    HW1  910   1.315   1.861   2.389
  295SOL    HW2  911   1.221   1.849   2.523
  296SOL     OW  912   1.032   0.549   1.878
  296SOL    HW1  913   0.991   0.631   1.839
  296SOL    HW2  914   1.096   0.575   1.951
  297SOL     OW  915   0.078   0.556   3.248
  297SOL    HW1  916   0.170   0.555   3.207
  297SOL    HW2  917   0.072   0.630   3.315
  298SOL     OW  918   0.561   0.222   3.009
  298SOL    HW1  919   0.599   0.138   3.046
  298SOL    HW2  920   0.473   0.241   3.053
  299SOL     OW  921   0.866   0.454   2.504
  299SOL    HW1  922   0.834   0.526   2.442
  299SOL    HW2  923   0.890   0.373   2.451
  300SOL     OW  924   1.017   0.039   2.615
  300SOL    HW1  925   0.945   0.044   2.546
  300SOL    HW2  926   0.993  -0.030   2.684
  301SOL     OW  927   1.429   1.173   2.729
  301SOL    HW1  928   1.374   1.089   2.722
  301SOL    HW2  929   1.455   1.202   2.637
  302SOL     OW  930   1.466   0.590   2.854
  302SOL    HW1  931   1.436   0.495   2.861
  302SOL    HW2  932   1.539   0.606   2.920
  303SOL     OW  933   1.857   0.833   2.239
  303SOL    HW1  934   1.899   0.769   2.303
  303SOL    HW2  935   1.819   0.782   2.161
  304SOL     OW  936   0.488   1.385   2.036
  304SOL    HW1  937   0.401   1.370   2.083
  304SOL    HW2  938   0.471   1.411   1.941
  305SOL     OW  939   1.664   1.280   2.519
  305SOL    HW1  940   1.763   1.288   2.533
  305SOL    HW2  941   1.619   1.364   2.550
  306SOL     OW  942   1.390   0.575   1.940
  306SOL    HW1  943   1.336   0.554   2.021
  306SOL    HW2  944   1.481   0.534   1.949
  307SOL     OW  945   0.527   0.256   2.190
  307SOL    HW1  946   0.554   0.197   2.115
  307SOL    HW2  947   0.527   0.351   2.159
  308SOL     OW  948   1.754   1.223   3.450
  308SOL    HW1  949   1.845   1.184   3.437
  308SOL    HW2  950   1.762   1.319   3.474
  309SOL     OW  951   1.064   1.347   3.202
  309SOL    HW1  952   0.984   1.324   3.257
  309SOL    HW2  953   1.147   1.321   3.251
  310SOL     OW  954   1.592   1.629   3.487
  310SOL    HW1  955   1.619   1.663   3.397
  310SOL    HW2  956   1.671   1.591   3.533
  311SOL     OW  957   1.111   1.195   2.962
  311SOL    HW1  958   1.071   1.239   3.043
  311SOL    HW2  959   1.070   1.232   2.879
  312SOL     OW  960   1.638   1.099   2.941
  312SOL    HW1  961   1.643   1.180   3.000
  312SOL    HW2  962   1.552   1.101   2.890
  313SOL     OW  963   0.915   0.089   3.264
  313SOL    HW1  964   0.940   0.069   3.169
  313SOL    HW2  965   0.987   0.145   3.306
  314SOL     OW  966   0.980   1.116   3.581
  314SOL    HW1  967   0.881   1.122   3.591
  314SOL    HW2  968   1.003   1.036   3.525
  315SOL     OW  969   0.705   1.050   2.230
  315SOL    HW1  970   0.691   1.057   2.329
  315SOL    HW2  971   0.789   0.999   2.212
  316SOL     OW  972   0.410   0.813   3.113
  316SOL    HW1  973   0.496   0.825   3.163
  316SOL    HW2  974   0.368   0.726   3.140
  317SOL     OW  975   1.274   0.386   3.124
  317SOL    HW1  976   1.295   0.460   3.188
  317SOL    HW2  977   1.185   0.403   3.081
  318SOL     OW  978   0.064   1.564   3.193
  318SOL    HW1  979   0.018   1.646   3.159
  318SOL    HW2  980   0.162   1.583   3.202
  319SOL     OW  981   0.367   1.100   2.363
  319SOL    HW1  982   0.360   1.183   2.307
  319SOL    HW2  983   0.371   1.020   2.303
  320SOL     OW  984   0.566   0.537   2.727
  320SOL    HW1  985   0.578   0.603   2.653
  320SOL    HW2  986   0.612   0.571   2.810
  321SOL     OW  987   1.252   1.348   2.250
  321SOL    HW1  988   1.302   1.425   2.290
  321SOL    HW2  989   1.157   1.350   2.282
  322SOL     OW  990   1.272   1.445   3.004
  322SOL    HW1  991   1.319   1.458   3.091
  322SOL    HW2  992   1.206   1.371   3.013
  323SOL     OW  993   1.582   0.639   2.334
  323SOL    HW1  994   1.551   0.700   2.407
  323SOL    HW2  995   1.632   0.691   2.265
  324SOL     OW  996   0.354   1.510   3.191
  324SOL    HW1  997   0.333   1.466   3.104
  324SOL    HW2  998   0.451   1.536   3.194
  325SOL     OW  999   0.402   0.751   3.460
  325SOL    HW1 1000   0.470   0.806   3.413
  325SOL    HW2 1001   0.442   0.663   3.487
  326SOL     OW 1002   1.587   0.779   3.532
  326SOL    HW1 1003   1.495   0.817   3.527
  326SOL    HW2 1004   1.647   0.826   3.467
  327SOL     OW 1005   1.013   0.105   3.632
  327SOL    HW1 1006   1.019   0.190   3.580
  327SOL    HW2 1007   1.045   0.029   3.575
  328SOL     OW 1008   0.504   0.050   3.602
  328SOL    HW1 1009   0.462  -0.007   3.532
  328SOL    HW2 1010   0.438   0.119   3.634
  329SOL     OW 1011   0.573   0.870   2.891
  329SOL    HW1 1012   0.617   0.959   2.882
  329SOL    HW2 1013   0.510   0.870   2.968
  330SOL     OW 1014   1.360   0.862   2.907
  330SOL    HW1 1015   1.285   0.862   2.841
  330SOL    HW2 1016   1.397   0.770   2.916
  331SOL     OW 1017   1.209   0.525   2.137
  331SOL    HW1 1018   1.222   0.441   2.191
  331SOL    HW2 1019   1.180   0.599   2.197
  332SOL     OW 1020   0.307   0.213   3.093
  332SOL    HW1 1021   0.284   0.250   3.183
  332SOL    HW2 1022   0.277   0.118   3.087
  333SOL     OW 1023   0.037   1.310   3.144
  333SOL    HW1 1024   0.090   1.261   3.212
  333SOL    HW2 1025   0.059   1.408   3.149
  334SOL     OW 1026   0.732   0.634   2.926
  334SOL    HW1 1027   0.791   0.608   2.850
  334SOL    HW2 1028   0.704   0.730   2.915
  335SOL     OW 1029   1.728   0.935   3.716
  335SOL    HW1 1030   1.682   0.928   3.627
  335SOL    HW2 1031   1.666   0.979   3.782
  336SOL     OW 1032   0.307   0.063   2.480
  336SOL    HW1 1033   0.296   0.157   2.513
  336SOL    HW2 1034   0.302   0.000   2.557
  337SOL     OW 1035   1.622   0.367   2.236
  337SOL    HW1 1036   1.624   0.291   2.300
  337SOL    HW2 1037   1.574   0.444   2.276
  338SOL     OW 1038   1.023   0.766   2.828
  338SOL    HW1 1039   1.038   0.787   2.924
  338SOL    HW2 1040   0.993   0.671   2.819
  339SOL     OW 1041   0.980   1.573   3.562
  339SOL    HW1 1042   0.960   1.617   3.474
  339SOL    HW2 1043   1.019   1.482   3.546
  340SOL     OW 1044   1.859   1.518   3.467
  340SOL    HW1 1045   1.873   1.545   3.372
  340SOL    HW2 1046   1.942   1.540   3.520
  341SOL     OW 1047   0.350   0.898   3.666
  341SOL    HW1 1048   0.426   0.942   3.714
  341SOL    HW2 1049   0.385   0.851   3.584
  342SOL     OW 1050   1.540   0.274   1.987
  342SOL    HW1 1051   1.479   0.199   2.010
  342SOL    HW2 1052   1.562   0.326   2.070
  343SOL     OW 1053   1.303   0.838   1.904
  343SOL    HW1 1054   1.337   0.745   1.919
  343SOL    HW2 1055   1.321   0.865   1.809
  344SOL     OW 1056   1.068   1.333   2.711
  344SOL    HW1 1057   1.075   1.249   2.656
  344SOL    HW2 1058   1.130   1.402   2.675
  345SOL     OW 1059   0.319   0.810   2.811
  345SOL    HW1 1060   0.412   0.846   2.816
  345SOL    HW2 1061   0.313   0.725   2.863
  346SOL     OW 1062   0.339   0.509   2.868
  346SOL    HW1 1063   0.287   0.426   2.851
  346SOL    HW2 1064   0.416   0.514   2.804
  347SOL     OW 1065   1.138   0.380   3.540
  347SOL    HW1 1066   1.093   0.443   3.604
  347SOL    HW2 1067   1.231   0.411   3.523
  348SOL     OW 1068   1.160   0.207   3.339
  348SOL    HW1 1069   1.160   0.271   3.416
  348SOL    HW2 1070   1.188   0.255   3.256
  349SOL     OW 1071   0.008   1.326   2.062
  349SOL    HW1 1072  -0.085   1.347   2.031
  349SOL    HW2 1073   0.018   1.227   2.075
  350SOL     OW 1074   0.088   1.801   2.789
  350SOL    HW1 1075   0.046   1.715   2.762
  350SOL    HW2 1076   0.182   1.804   2.755
  351SOL     OW 1077   0.504   1.568   2.772
  351SOL    HW1 1078   0.570   1.642   2.781
  351SOL    HW2 1079   0.548   1.489   2.730
  352SOL     OW 1080   1.002   0.796   3.100
  352SOL    HW1 1081   1.043   0.764   3.186
  352SOL    HW2 1082   0.906   0.769   3.097
  353SOL     OW 1083   0.040   0.544   2.976
  353SOL    HW1 1084   0.125   0.511   2.935
  353SOL    HW2 1085   0.053   0.559   3.074
  354SOL     OW 1086   0.189   0.520   3.584
  354SOL    HW1 1087   0.248   0.480   3.514
  354SOL    HW2 1088   0.131   0.591   3.543
  355SOL     OW 1089   1.369   0.950   3.522
  355SOL    HW1 1090   1.408   1.039   3.542
  355SOL    HW2 1091   1.379   0.930   3.425
  356SOL     OW 1092   0.815   0.572   2.187
  356SOL    HW1 1093   0.822   0.483   2.141
  356SOL    HW2 1094   0.721   0.606   2.179
  357SOL     OW 1095   1.657   0.604   3.068
  357SOL    HW1 1096   1.619   0.535   3.130
  357SOL    HW2 1097   1.739   0.568   3.024
  358SOL     OW 1098   0.252   1.564   3.606
  358SOL    HW1 1099   0.222   1.621   3.682
  358SOL    HW2 1100   0.245   1.467   3.632
  359SOL     OW 1101   0.671   0.464   3.131
  359SOL    HW1 1102   0.637   0.375   3.101
  359SOL    HW2 1103   0.697   0.518   3.051
  360SOL     OW 1104   0.930   1.678   3.327
  360SOL    HW1 1105   0.906   1.660   3.232
  360SOL    HW2 1106   0.960   1.772   3.337
  361SOL     OW 1107   0.473   0.500   2.053
  361SOL    HW1 1108   0.534   0.580   2.057
  361SOL    HW2 1109   0.378   0.531   2.060
  362SOL     OW 1110   0.159   1.137   3.328
  362SOL    HW1 1111   0.181   1.076   3.404
  362SOL    HW2 1112   0.169   1.088   3.242
  363SOL     OW 1113   1.347   1.059   3.096
  363SOL    HW1 1114   1.371   0.996   3.022
  363SOL    HW2 1115   1.257   1.099   3.078
  364SOL     OW 1116   1.302   0.855   2.171
  364SOL    HW1 1117   1.216   0.824   2.213
  364SOL    HW2 1118   1.298   0.841   2.072
  365SOL     OW 1119   1.759   1.747   3.016
  365SOL    HW1 1120   1.820   1.777   2.943
  365SOL    HW2 1121   1.721   1.658   2.994
  366SOL     OW 1122   1.252   1.731   2.990
  366SOL    HW1 1123   1.336   1.736   2.936
  366SOL    HW2 1124   1.229   1.635   3.008
  367SOL     OW 1125   0.083   1.258   2.884
  367SOL    HW1 1126   0.078   1.257   2.984
  367SOL    HW2 1127   0.000   1.217   2.846
  368SOL     OW 1128   0.688   1.662   3.578
  368SOL    HW1 1129   0.632   1.743   3.587
  368SOL    HW2 1130   0.740   1.666   3.492
  369SOL     OW 1131   1.726   0.135   2.385
  369SOL    HW1 1132   1.799   0.118   2.318
  369SOL    HW2 1133   1.695   0.048   2.423
  370SOL     OW 1134   1.388   1.573   2.339
  370SOL    HW1 1135   1.455   1.585   2.265
  370SOL    HW2 1136   1.348   1.662   2.362
  371SOL     OW 1137   0.130   1.794   3.713
  371SOL    HW1 1138   0.089   1.720   3.766
  371SOL    HW2 1139   0.194   1.845   3.771
  372SOL     OW 1140   1.280   0.927   2.534
  372SOL    HW1 1141   1.340   0.846   2.536
  372SOL    HW2 1142   1.320   0.996   2.474
  373SOL     OW 1143   0.830   1.273   3.284
  373SOL    HW1 1144   0.825   1.306   3.379
  373SOL    HW2 1145   0.744   1.292   3.238
  374SOL     OW 1146   0.672   1.616   2.016
  374SOL    HW1 1147   0.681   1.626   1.917
  374SOL    HW2 1148   0.632   1.527   2.037
  375SOL     OW 1149   1.650   1.720   3.256
  375SOL    HW1 1150   1.703   1.730   3.172
  375SOL    HW2 1151   1.623   1.810   3.290
  376SOL     OW 1152   1.841   0.175   2.825
  376SOL    HW1 1153   1.880   0.090   2.789
  376SOL    HW2 1154   1.743   0.177   2.806
  377SOL     OW 1155   0.263   0.326   2.582
  377SOL    HW1 1156   0.184   0.377   2.548
  377SOL    HW2 1157   0.254   0.311   2.680
  378SOL     OW 1158   1.194   1.612   1.893
  378SOL    HW1 1159   1.200   1.519   1.930
  378SOL    HW2 1160   1.135   1.612   1.813
  379SOL     OW 1161   0.822   1.002   3.234
  379SOL    HW1 1162   0.862   1.001   3.142
  379SOL    HW2 1163   0.832   1.094   3.274
  380SOL     OW 1164   0.916   0.910   2.153
  380SOL    HW1 1165   0.979   0.948   2.085
  380SOL    HW2 1166   0.956   0.827   2.192
  381SOL     OW 1167   1.504   1.607   1.906
  381SOL    HW1 1168   1.412   1.644   1.913
  381SOL    HW2 1169   1.542   1.627   1.816
  382SOL     OW 1170   0.372   1.288   3.352
  382SOL    HW1 1171   0.359   1.381   3.318
  382SOL    HW2 1172   0.288   1.236   3.339
  383SOL     OW 1173   1.614   1.292   3.151
  383SOL    HW1 1174   1.674   1.295   3.231
  383SOL    HW2 1175   1.539   1.356   3.164
  384SOL     OW 1176   1.039   1.098   2.558
  384SOL    HW1 1177   0.969   1.051   2.612
  384SOL    HW2 1178   1.098   1.030   2.515
  385SOL     OW 1179   1.014   0.236   2.833
  385SOL    HW1 1180   1.006   0.200   2.740
  385SOL    HW2 1181   1.012   0.160   2.898
  386SOL     OW 1182   0.590   1.487   2.353
  386SOL    HW1 1183   0.632   1.429   2.283
  386SOL    HW2 1184   0.546   1.566   2.309
  387SOL     OW 1185   1.709   0.385   3.243
  387SOL    HW1 1186   1.782   0.454   3.247
  387SOL    HW2 1187   1.737   0.310   3.184
  388SOL     OW 1188   0.255   1.348   2.152
  388SOL    HW1 1189   0.159   1.349   2.125
  388SOL    HW2 1190   0.267   1.401   2.236
  389SOL     OW 1191   0.105   1.013   3.588
  389SOL    HW1 1192   0.028   0.980   3.642
  389SOL    HW2 1193   0.190   0.983   3.630
  390SOL     OW 1194   0.672   0.203   3.351
  390SOL    HW1 1195   0.762   0.187   3.311
  390SOL    HW2 1196   0.680   0.208   3.450
  391SOL     OW 1197   0.075   0.345   1.895
  391SOL    HW1 1198  -0.017   0.317   1.866
  391SOL    HW2 1199   0.106   0.422   1.839
  392SOL     OW 1200   1.440   0.856   3.260
  392SOL    HW1 1201   1.383   0.908   3.197
  392SOL    HW2 1202   1.536   0.868   3.236
  393SOL     OW 1203   0.072   0.166   2.180
  393SOL    HW1 1204   0.055   0.249   2.126
  393SOL    HW2 1205   0.162   0.129   2.158
  394SOL     OW 1206   1.183   1.335   1.981
  394SOL    HW1 1207   1.084   1.324   1.983
  394SOL    HW2 1208   1.217   1.350   2.074
  395SOL     OW 1209   0.613   0.842   3.293
  395SOL    HW1 1210   0.669   0.923   3.276
  395SOL    HW2 1211   0.672   0.762   3.296
  396SOL     OW 1212   1.493   1.767   2.821
  396SOL    HW1 1213   1.526   1.831   2.752
  396SOL    HW2 1214   1.559   1.761   2.896
  397SOL     OW 1215   0.716   0.565   3.570
  397SOL    HW1 1216   0.735   0.630   3.644
  397SOL    HW2 1217   0.776   0.485   3.579
  398SOL     OW 1218   1.450   1.220   3.495
  398SOL    HW1 1219   1.441   1.210   3.594
  398SOL    HW2 1220   1.546   1.213   3.469
  399SOL     OW 1221   0.390   1.741   3.422
  399SOL    HW1 1222   0.299   1.782   3.420
  399SOL    HW2 1223   0.383   1.647   3.454
  400SOL     OW 1224   1.674   0.883   3.116
  400SOL    HW1 1225   1.647   0.794   3.079
  400SOL    HW2 1226   1.675   0.951   3.043
  401SOL     OW 1227   1.225   0.325   2.311
  401SOL    HW1 1228   1.290   0.251   2.300
  401SOL    HW2 1229   1.245   0.375   2.395
  402SOL     OW 1230   0.594   0.745   2.514
  402SOL    HW1 1231   0.644   0.830   2.495
  402SOL    HW2 1232   0.506   0.747   2.466
  403SOL     OW 1233   1.777   0.342   3.504
  403SOL    HW1 1234   1.760   0.373   3.410
  403SOL    HW2 1235   1.693   0.305   3.542
  404SOL     OW 1236   1.730   0.934   3.379
  404SOL    HW1 1237   1.768   1.025   3.394
  404SOL    HW2 1238   1.722   0.917   3.280
  405SOL     OW 1239   0.859   1.374   1.878
  405SOL    HW1 1240   0.813   1.389   1.966
  405SOL    HW2 1241   0.903   1.459   1.848
  406SOL     OW 1242   0.661   1.790   2.815
  406SOL    HW1 1243   0.615   1.878   2.802
  406SOL    HW2 1244   0.760   1.802   2.808
  407SOL     OW 1245   0.859   0.956   2.723
  407SOL    HW1 1246   0.913   0.887   2.771
  407SOL    HW2 1247   0.827   1.025   2.789
  408SOL     OW 1248   1.083   0.984   1.949
  408SOL    HW1 1249   1.060   1.037   1.867
  408SOL    HW2 1250   1.164   0.928   1.930
  409SOL     OW 1251   1.861   1.569   2.713
  409SOL    HW1 1252   1.790   1.557   2.643
  409SOL    HW2 1253   1.862   1.490   2.773
  410SOL     OW 1254   0.221   1.314   3.706
  410SOL    HW1 1255   0.156   1.241   3.685
  410SOL    HW2 1256   0.225   1.328   3.804
  411SOL     OW 1257   0.079   1.240   2.515
  411SOL    HW1 1258   0.078   1.193   2.603
  411SOL    HW2 1259   0.161   1.212   2.464
  412SOL     OW 1260   0.672   1.391   3.486
  412SOL    HW1 1261   0.594   1.341   3.524
  412SOL    HW2 1262   0.669   1.486   3.517
  413SOL     OW 1263   1.824   0.192   3.089
  413SOL    HW1 1264   1.820   0.102   3.133
  413SOL    HW2 1265   1.827   0.181   2.990
  414SOL     OW 1266   0.428   0.424   2.382
  414SOL    HW1 1267   0.458   0.352   2.320
  414SOL    HW2 1268   0.389   0.384   2.465
  415SOL     OW 1269   1.705   1.487   2.966
  415SOL    HW1 1270   1.612   1.462   2.939
  415SOL    HW2 1271   1.731   1.437   3.048
  416SOL     OW 1272   0.317   0.547   3.142
  416SOL    HW1 1273   0.355   0.488   3.214
  416SOL    HW2 1274   0.357   0.521   3.054
  417SOL     OW 1275   0.812   1.586   2.549
  417SOL    HW1 1276   0.844   1.596   2.455
  417SOL    HW2 1277   0.733   1.524   2.551
  418SOL     OW 1278   1.424   0.214   2.974
  418SOL    HW1 1279   1.476   0.149   3.029
  418SOL    HW2 1280   1.375   0.277   3.035
  419SOL     OW 1281   1.001   0.034   3.016
  419SOL    HW1 1282   0.938  -0.038   2.985
  419SOL    HW2 1283   1.094  -0.002   3.016
  420SOL     OW 1284   0.770   1.330   2.163
  420SOL    HW1 1285   0.724   1.243   2.180
  420SOL    HW2 1286   0.861   1.327   2.204
  421SOL     OW 1287   0.618   1.567   3.146
  421SOL    HW1 1288   0.613   1.649   3.203
  421SOL    HW2 1289   0.707   1.564   3.101
  422SOL     OW 1290   1.352   0.052   2.030
  422SOL    HW1 1291   1.387   0.011   1.946
  422SOL    HW2 1292   1.262   0.014   2.050
  423SOL     OW 1293   1.300   0.453   2.553
  423SOL    HW1 1294   1.241   0.533   2.557
  423SOL    HW2 1295   1.315   0.418   2.646
  424SOL     OW 1296   1.593   0.221   2.744
  424SOL    HW1 1297   1.509   0.220   2.798
  424SOL    HW2 1298   1.595   0.304   2.688
  425SOL     OW 1299   0.039   1.077   2.162
  425SOL    HW1 1300   0.138   1.066   2.153
  425SOL    HW2 1301  -0.001   0.991   2.194
  426SOL     OW 1302   0.875   1.646   2.199
  426SOL    HW1 1303   0.798   1.611   2.145
  426SOL    HW2 1304   0.843   1.717   2.261
  427SOL     OW 1305   0.230   0.628   3.837
  427SOL    HW1 1306   0.137   0.626   3.874
  427SOL    HW2 1307   0.231   0.589   3.745
  428SOL     OW 1308   0.225   0.275   4.720
  428SOL    HW1 1309   0.260   0.258   4.812
  428SOL    HW2 1310   0.137   0.230   4.708
  429SOL     OW 1311   0.019   0.368   4.371
  429SOL    HW1 1312  -0.063   0.411   4.410
  429SOL    HW2 1313  -0.009   0.295   4.308
  430SOL     OW 1314   0.569   1.275   4.889
  430SOL    HW1 1315   0.476   1.268   4.852
  430SOL    HW2 1316   0.580   1.364   4.933
  431SOL     OW 1317   1.555   1.511   4.427
  431SOL    HW1 1318   1.498   1.495   4.508
  431SOL    HW2 1319   1.496   1.521   4.347
  432SOL     OW 1320   1.135   0.703   4.441
  432SOL    HW1 1321   1.192   0.781   4.416
  432SOL    HW2 1322   1.075   0.729   4.517
  433SOL     OW 1323   1.755   0.607   3.955
  433SOL    HW1 1324   1.743   0.594   3.856
  433SOL    HW2 1325   1.725   0.526   4.004
  434SOL     OW 1326   0.768   1.144   4.747
  434SOL    HW1 1327   0.690   1.161   4.807
  434SOL    HW2 1328   0.802   1.231   4.711
  435SOL     OW 1329   0.685   1.012   4.389
  435SOL    HW1 1330   0.754   0.996   4.459
  435SOL    HW2 1331   0.612   1.069   4.427
  436SOL     OW 1332   0.335   1.435   4.785
  436SOL    HW1 1333   0.257   1.404   4.732
  436SOL    HW2 1334   0.393   1.493   4.728
  437SOL     OW 1335   1.460   1.505   5.063
  437SOL    HW1 1336   1.484   1.599   5.089
  437SOL    HW2 1337   1.444   1.451   5.145
  438SOL     OW 1338   0.438   0.392   5.223
  438SOL    HW1 1339   0.520   0.336   5.232
  438SOL    HW2 1340   0.357   0.334   5.227
  439SOL     OW 1341   1.603   0.447   4.461
  439SOL    HW1 1342   1.529   0.493   4.411
  439SOL    HW2 1343   1.654   0.515   4.514
  440SOL     OW 1344   0.231   1.713   4.207
  440SOL    HW1 1345   0.265   1.790   4.261
  440SOL    HW2 1346   0.275   1.713   4.117
  441SOL     OW 1347   0.230   1.434   4.262
  441SOL    HW1 1348   0.204   1.530   4.262
  441SOL    HW2 1349   0.159   1.380   4.307
  442SOL     OW 1350   0.240   1.091   4.610
  442SOL    HW1 1351   0.254   1.007   4.662
  442SOL    HW2 1352   0.185   1.155   4.665
  443SOL     OW 1353   0.620   1.786   5.163
  443SOL    HW1 1354   0.528   1.769   5.198
  443SOL    HW2 1355   0.648   1.878   5.189
  444SOL     OW 1356   0.606   0.964   3.847
  444SOL    HW1 1357   0.613   1.048   3.793
  444SOL    HW2 1358   0.652   0.977   3.935
  445SOL     OW 1359   1.594   0.114   5.204
  445SOL    HW1 1360   1.576   0.181   5.132
  445SOL    HW2 1361   1.591   0.160   5.293
  446SOL     OW 1362   0.122   0.643   4.287
  446SOL    HW1 1363   0.077   0.555   4.304
  446SOL    HW2 1364   0.121   0.697   4.371
  447SOL     OW 1365   1.842   1.767   4.083
  447SOL    HW1 1366   1.896   1.738   4.163
  447SOL    HW2 1367   1.872   1.857   4.054
  448SOL     OW 1368   0.027   1.596   3.841
  448SOL    HW1 1369   0.008   1.500   3.862
  448SOL    HW2 1370  -0.006   1.654   3.916
  449SOL     OW 1371   1.689   0.922   4.336
  449SOL    HW1 1372   1.784   0.893   4.344
  449SOL    HW2 1373   1.681   0.987   4.261
  450SOL     OW 1374   1.641   1.108   4.156
  450SOL    HW1 1375   1.727   1.110   4.104
  450SOL    HW2 1376   1.655   1.155   4.244
  451SOL     OW 1377   0.613   1.365   4.450
  451SOL    HW1 1378   0.564   1.278   4.459
  451SOL    HW2 1379   0.590   1.408   4.363
  452SOL     OW 1380   0.809   0.004   4.226
  452SOL    HW1 1381   0.849   0.095   4.217
  452SOL    HW2 1382   0.709   0.012   4.232
  453SOL     OW 1383   0.197   0.976   4.988
  453SOL    HW1 1384   0.286   0.931   4.974
  453SOL    HW2 1385   0.124   0.911   4.969
  454SOL     OW 1386   1.525   0.999   3.914
  454SOL    HW1 1387   1.462   0.923   3.927
  454SOL    HW2 1388   1.573   1.017   4.000
  455SOL     OW 1389   0.317   0.251   5.525
  455SOL    HW1 1390   0.388   0.322   5.531
  455SOL    HW2 1391   0.229   0.290   5.553
  456SOL     OW 1392   1.466   1.417   4.677
  456SOL    HW1 1393   1.407   1.423   4.757
  456SOL    HW2 1394   1.451   1.329   4.631
  457SOL     OW 1395   1.667   1.714   4.296
  457SOL    HW1 1396   1.626   1.691   4.208
  457SOL    HW2 1397   1.649   1.640   4.361
  458SOL     OW 1398   0.598   0.729   3.994
  458SOL    HW1 1399   0.622   0.798   3.926
  458SOL    HW2 1400   0.520   0.762   4.048
  459SOL     OW 1401   1.281   0.345   4.668
  459SOL    HW1 1402   1.195   0.295   4.655
  459SOL    HW2 1403   1.343   0.291   4.724
  460SOL     OW 1404   1.576   1.662   4.031
  460SOL    HW1 1405   1.665   1.708   4.034
  460SOL    HW2 1406   1.555   1.638   3.936
  461SOL     OW 1407   0.807   0.605   5.189
  461SOL    HW1 1408   0.760   0.602   5.278
  461SOL    HW2 1409   0.756   0.550   5.123
  462SOL     OW 1410   0.991   0.410   4.966
  462SOL    HW1 1411   0.914   0.444   5.020
  462SOL    HW2 1412   0.957   0.359   4.887
  463SOL     OW 1413   1.041   0.701   4.153
  463SOL    HW1 1414   1.067   0.697   4.249
  463SOL    HW2 1415   0.956   0.650   4.139
  464SOL     OW 1416   0.076   0.811   4.513
  464SOL    HW1 1417   0.175   0.799   4.522
  464SOL    HW2 1418   0.052   0.906   4.534
  465SOL     OW 1419   0.130   1.821   5.295
  465SOL    HW1 1420   0.120   1.806   5.394
  465SOL    HW2 1421   0.044   1.857   5.259
  466SOL     OW 1422   0.865   0.348   3.919
  466SOL    HW1 1423   0.924   0.411   3.870
  466SOL    HW2 1424   0.884   0.254   3.890
  467SOL     OW 1425   1.362   1.144   4.269
  467SOL    HW1 1426   1.445   1.115   4.221
  467SOL    HW2 1427   1.313   1.211   4.213
  468SOL     OW 1428   0.550   0.196   4.609
  468SOL    HW1 1429   0.545   0.191   4.709
  468SOL    HW2 1430   0.552   0.292   4.580
  469SOL     OW 1431   1.008   1.456   4.201
  469SOL    HW1 1432   0.962   1.528   4.149
  469SOL    HW2 1433   1.004   1.476   4.299
  470SOL     OW 1434   0.351   1.801   4.577
  470SOL    HW1 1435   0.401   1.715   4.583
  470SOL    HW2 1436   0.416   1.878   4.574
  471SOL     OW 1437   1.795   1.066   4.597
  471SOL    HW1 1438   1.733   1.051   4.521
  471SOL    HW2 1439   1.743   1.077   4.682
  472SOL     OW 1440   0.321   0.943   3.966
  472SOL    HW1 1441   0.403   0.982   3.924
  472SOL    HW2 1442   0.294   0.861   3.917
  473SOL     OW 1443   1.458   0.735   4.452
  473SOL    HW1 1444   1.453   0.670   4.527
  473SOL    HW2 1445   1.538   0.794   4.465
  474SOL     OW 1446   1.111   1.776   3.961
  474SOL    HW1 1447   1.051   1.714   4.011
  474SOL    HW2 1448   1.142   1.732   3.876
  475SOL     OW 1449   1.632   1.377   3.805
  475SOL    HW1 1450   1.600   1.471   3.795
  475SOL    HW2 1451   1.556   1.314   3.793
  476SOL     OW 1452   0.464   1.743   4.047
  476SOL    HW1 1453   0.497   1.782   4.133
  476SOL    HW2 1454   0.540   1.736   3.982
  477SOL     OW 1455   1.400   0.107   4.150
  477SOL    HW1 1456   1.376   0.070   4.060
  477SOL    HW2 1457   1.499   0.123   4.154
  478SOL     OW 1458   0.249   1.785   4.965
  478SOL    HW1 1459   0.306   1.720   5.015
  478SOL    HW2 1460   0.233   1.752   4.872
  479SOL     OW 1461   0.940   1.698   4.628
  479SOL    HW1 1462   1.020   1.641   4.649
  479SOL    HW2 1463   0.891   1.658   4.551
  480SOL     OW 1464   0.382   0.700   4.204
  480SOL    HW1 1465   0.427   0.610   4.201
  480SOL    HW2 1466   0.288   0.689   4.237
  481SOL     OW 1467   0.614   0.122   3.841
  481SOL    HW1 1468   0.712   0.100   3.848
  481SOL    HW2 1469   0.583   0.105   3.748
  482SOL     OW 1470   0.888   1.514   4.919
  482SOL    HW1 1471   0.865   1.489   4.825
  482SOL    HW2 1472   0.949   1.445   4.958
  483SOL     OW 1473   0.803   1.402   4.648
  483SOL    HW1 1474   0.893   1.416   4.606
  483SOL    HW2 1475   0.732   1.404   4.577
  484SOL     OW 1476   0.922   0.503   4.623
  484SOL    HW1 1477   0.897   0.494   4.527
  484SOL    HW2 1478   0.970   0.421   4.654
  485SOL     OW 1479   0.539   0.064   4.236
  485SOL    HW1 1480   0.458   0.065   4.294
  485SOL    HW2 1481   0.542   0.147   4.181
  486SOL     OW 1482   1.434   1.188   3.765
  486SOL    HW1 1483   1.466   1.112   3.822
  486SOL    HW2 1484   1.342   1.215   3.795
  487SOL     OW 1485   0.297   0.035   3.895
  487SOL    HW1 1486   0.346   0.119   3.874
  487SOL    HW2 1487   0.359  -0.030   3.940
  488SOL     OW 1488   0.935   0.236   4.204
  488SOL    HW1 1489   0.887   0.277   4.126
  488SOL    HW2 1490   1.034   0.234   4.185
  489SOL     OW 1491   1.227   1.570   4.517
  489SOL    HW1 1492   1.248   1.644   4.452
  489SOL    HW2 1493   1.295   1.570   4.590
  490SOL     OW 1494   0.459   1.152   4.465
  490SOL    HW1 1495   0.388   1.125   4.530
  490SOL    HW2 1496   0.433   1.124   4.372
  491SOL     OW 1497   1.271   1.797   4.315
  491SOL    HW1 1498   1.315   1.861   4.251
  491SOL    HW2 1499   1.221   1.849   4.385
  492SOL     OW 1500   1.032   0.549   3.740
  492SOL    HW1 1501   0.991   0.631   3.701
  492SOL    HW2 1502   1.096   0.575   3.813
  493SOL     OW 1503   0.078   0.556   5.110
  493SOL    HW1 1504   0.170   0.555   5.069
  493SOL    HW2 1505   0.072   0.630   5.177
  494SOL     OW 1506   0.561   0.222   4.871
  494SOL    HW1 1507   0.599   0.138   4.908
  494SOL    HW2 1508   0.473   0.241   4.915
  495SOL     OW 1509   0.866   0.454   4.366
  495SOL    HW1 1510   0.834   0.526   4.304
  495SOL    HW2 1511   0.890   0.373   4.313
  496SOL     OW 1512   1.017   0.039   4.477
  496SOL    HW1 1513   0.945   0.044   4.408
  496SOL    HW2 1514   0.993  -0.030   4.546
  497SOL     OW 1515   1.429   1.173   4.591
  497SOL    HW1 1516   1.374   1.089   4.584
  497SOL    HW2 1517   1.455   1.202   4.499
  498SOL     OW 1518   1.466   0.590   4.716
  498SOL    HW1 1519   1.436   0.495   4.723
  498SOL    HW2 1520   1.539   0.606   4.782
  499SOL     OW 1521   1.857   0.833   4.101
  499SOL    HW1 1522   1.899   0.769   4.165
  499SOL    HW2 1523   1.819   0.782   4.023
  500SOL     OW 1524   0.488   1.385   3.898
  500SOL    HW1 1525   0.401   1.370   3.945
  500SOL    HW2 1526   0.471   1.411   3.803
  501SOL     OW 1527   1.664   1.280   4.381
  501SOL    HW1 1528   1.763   1.288   4.395
  501SOL    HW2 1529   1.619   1.364   4.412
  502SOL     OW 1530   1.390   0.575   3.802
  502SOL    HW1 1531   1.336   0.554   3.883
  502SOL    HW2 1532   1.481   0.534   3.811
  503SOL     OW 1533   0.527   0.256   4.052
  503SOL    HW1 1534   0.554   0.197   3.977
  503SOL    HW2 1535   0.527   0.351   4.021
  504SOL     OW 1536   1.064   1.347   5.064
  504SOL    HW1 1537   0.984   1.324   5.119
  504SOL    HW2 1538   1.147   1.321   5.113
  505SOL     OW 1539   1.111   1.195   4.824
  505SOL    HW1 1540   1.071   1.239   4.905
  505SOL    HW2 1541   1.070   1.232   4.741
  506SOL     OW 1542   1.638   1.099   4.803
  506SOL    HW1 1543   1.643   1.180   4.862
  506SOL    HW2 1544   1.552   1.101   4.752
  507SOL     OW 1545   0.915   0.089   5.126
  507SOL    HW1 1546   0.940   0.069   5.031
  507SOL    HW2 1547   0.987   0.145   5.168
  508SOL     OW 1548   0.705   1.050   4.092
  508SOL    HW1 1549   0.691   1.057   4.191
  508SOL    HW2 1550   0.789   0.999   4.074
  509SOL     OW 1551   0.410   0.813   4.975
  509SOL    HW1 1552   0.496   0.825   5.025
  509SOL    HW2 1553   0.368   0.726   5.002
  510SOL     OW 1554   1.274   0.386   4.986
  510SOL    HW1 1555   1.295   0.460   5.050
  510SOL    HW2 1556   1.185   0.403   4.943
  511SOL     OW 1557   0.064   1.564   5.055
  511SOL    HW1 1558   0.018   1.646   5.021
  511SOL    HW2 1559   0.162   1.583   5.064
  512SOL     OW 1560   0.367   1.100   4.225
  512SOL    HW1 1561   0.360   1.183   4.169
  512SOL    HW2 1562   0.371   1.020   4.165
  513SOL     OW 1563   0.566   0.537   4.589
  513SOL    HW1 1564   0.578   0.603   4.515
  513SOL    HW2 1565   0.612   0.571   4.672
  514SOL     OW 1566   1.252   1.348   4.112
  514SOL    HW1 1567   1.302   1.425   4.152
  514SOL    HW2 1568   1.157   1.350   4.144
  515SOL     OW 1569   1.272   1.445   4.866
  515SOL    HW1 1570   1.319   1.458   4.953
  515SOL    HW2 1571   1.206   1.371   4.875
  516SOL     OW 1572   1.582   0.639   4.196
  516SOL    HW1 1573   1.551   0.700   4.269
  516SOL    HW2 1574   1.632   0.691   4.127
  517SOL     OW 1575   0.354   1.510   5.053
  517SOL    HW1 1576   0.333   1.466   4.966
  517SOL    HW2 1577   0.451   1.536   5.056
  518SOL     OW 1578   0.402   0.751   5.322
  518SOL    HW1 1579   0.470   0.806   5.275
  518SOL    HW2 1580   0.442   0.663   5.349
  519SOL     OW 1581   1.587   0.779   5.394
  519SOL    HW1 1582   1.495   0.817   5.389
  519SOL    HW2 1583   1.647   0.826   5.329
  520SOL     OW 1584   0.573   0.870   4.753
  520SOL    HW1 1585   0.617   0.959   4.744
  520SOL    HW2 1586   0.510   0.870   4.830
  521SOL     OW 1587   1.360   0.862   4.769
  521SOL    HW1 1588   1.285   0.862   4.703
  521SOL    HW2 1589   1.397   0.770   4.778
  522SOL     OW 1590   1.209   0.525   3.999
  522SOL    HW1 1591   1.222   0.441   4.053
  522SOL    HW2 1592   1.180   0.599   4.059
  523SOL     OW 1593   0.307   0.213   4.955
  523SOL    HW1 1594   0.284   0.250   5.045
  523SOL    HW2 1595   0.277   0.118   4.949
  524SOL     OW 1596   0.037   1.310   5.006
  524SOL    HW1 1597   0.090   1.261   5.074
  524SOL    HW2 1598   0.059   1.408   5.011
  525SOL     OW 1599   0.732   0.634   4.788
  525SOL    HW1 1600   0.791   0.608   4.712
  525SOL    HW2 1601   0.704   0.730   4.777
  526SOL     OW 1602   0.307   0.063   4.342
  526SOL    HW1 1603   0.296   0.157   4.375
  526SOL    HW2 1604   0.302   0.000   4.419
  527SOL     OW 1605   1.622   0.367   4.098
  527SOL    HW1 1606   1.624   0.291   4.162
  527SOL    HW2 1607   1.574   0.444   4.138
  528SOL     OW 1608   1.023   0.766   4.690
  528SOL    HW1 1609   1.038   0.787   4.786
  528SOL    HW2 1610   0.993   0.671   4.681
  529SOL     OW 1611   0.980   1.573   5.424
  529SOL    HW1 1612   0.960   1.617   5.336
  529SOL    HW2 1613   1.019   1.482   5.408
  530SOL     OW 1614   1.540   0.274   3.849
  530SOL    HW1 1615   1.479   0.199   3.872
  530SOL    HW2 1616   1.562   0.326   3.932
  531SOL     OW 1617   1.303   0.838   3.766
  531SOL    HW1 1618   1.337   0.745   3.781
  531SOL    HW2 1619   1.321   0.865   3.671
  532SOL     OW 1620   1.068   1.333   4.573
  532SOL    HW1 1621   1.075   1.249   4.518
  532SOL    HW2 1622   1.130   1.402   4.537
  533SOL     OW 1623   0.319   0.810   4.673
  533SOL    HW1 1624   0.412   0.846   4.678
  533SOL    HW2 1625   0.313   0.725   4.725
  534SOL     OW 1626   0.339   0.509   4.730
  534SOL    HW1 1627   0.287   0.426   4.713
  534SOL    HW2 1628   0.416   0.514   4.666
  535SOL     OW 1629   1.138   0.380   5.402
  535SOL    HW1 1630   1.093   0.443   5.466
  535SOL    HW2 1631   1.231   0.411   5.385
  536SOL     OW 1632   1.160   0.207   5.201
  536SOL    HW1 1633   1.160   0.271   5.278
  536SOL    HW2 1634   1.188   0.255   5.118
  537SOL     OW 1635   0.008   1.326   3.924
  537SOL    HW1 1636  -0.085   1.347   3.893
  537SOL    HW2 1637   0.018   1.227   3.937
  538SOL     OW 1638   0.088   1.801   4.651
  538SOL    HW1 1639   0.046   1.715   4.624
  538SOL    HW2 1640   0.182   1.804   4.617
  539SOL     OW 1641   0.504   1.568   4.634
  539SOL    HW1 1642   0.570   1.642   4.643
  539SOL    HW2 1643   0.548   1.489   4.592
  540SOL     OW 1644   1.002   0.796   4.962
  540SOL    HW1 1645   1.043   0.764   5.048
  540SOL    HW2 1646   0.906   0.769   4.959
  541SOL     OW 1647   0.040   0.544   4.838
  541SOL    HW1 1648   0.125   0.511   4.797
  541SOL    HW2 1649   0.053   0.559   4.936
  542SOL     OW 1650   0.815   0.572   4.049
  542SOL    HW1 1651   0.822   0.483   4.003
  542SOL    HW2 1652   0.721   0.606   4.041
  543SOL     OW 1653   1.657   0.604   4.930
  543SOL    HW1 1654   1.619   0.535   4.992
  543SOL    HW2 1655   1.739   0.568   4.886
  544SOL     OW 1656   0.671   0.464   4.993
  544SOL    HW1 1657   0.637   0.375   4.963
  544SOL    HW2 1658   0.697   0.518   4.913
  545SOL     OW 1659   0.930   1.678   5.189
  545SOL    HW1 1660   0.906   1.660   5.094
  545SOL    HW2 1661   0.960   1.772   5.199
  546SOL     OW 1662   0.473   0.500   3.915
  546SOL    HW1 1663   0.534   0.580   3.919
  546SOL    HW2 1664   0.378   0.531   3.922
  547SOL     OW 1665   0.159   1.137   5.190
  547SOL    HW1 1666   0.181   1.076   5.266
  547SOL    HW2 1667   0.169   1.088   5.104
  548SOL     OW 1668   1.347   1.059   4.958
  548SOL    HW1 1669   1.371   0.996   4.884
  548SOL    HW2 1670   1.257   1.099   4.940
  549SOL     OW 1671   1.302   0.855   4.033
  549SOL    HW1 1672   1.216   0.824   4.075
  549SOL    HW2 1673   1.298   0.841   3.934
  550SOL     OW 1674   1.759   1.747   4.878
  550SOL    HW1 1675   1.820   1.777   4.805
  550SOL    HW2 1676   1.721   1.658   4.856
  551SOL     OW 1677   1.252   1.731   4.852
  551SOL    HW1 1678   1.336   1.736   4.798
  551SOL    HW2 1679   1.229   1.635   4.870
  552SOL     OW 1680   0.083   1.258   4.746
  552SOL    HW1 1681   0.078   1.257   4.846
  552SOL    HW2 1682   0.000   1.217   4.708
  553SOL     OW 1683   1.726   0.135   4.247
  553SOL    HW1 1684   1.799   0.118   4.180
  553SOL    HW2 1685   1.695   0.048   4.285
  554SOL     OW 1686   1.388   1.573   4.201
  554SOL    HW1 1687   1.455   1.585   4.127
  554SOL    HW2 1688   1.348   1.662   4.224
  555SOL     OW 1689   1.280   0.927   4.396
  555SOL    HW1 1690   1.340   0.846   4.398
  555SOL    HW2 1691   1.320   0.996   4.336
  556SOL     OW 1692   0.672   1.616   3.878
  556SOL    HW1 1693   0.681   1.626   3.779
  556SOL    HW2 1694   0.632   1.527   3.899
  557SOL     OW 1695   1.650   1.720   5.118
  557SOL    HW1 1696   1.703   1.730   5.034
  557SOL    HW2 1697   1.623   1.810   5.152
  558SOL     OW 1698   1.841   0.175   4.687
  558SOL    HW1 1699   1.880   0.090   4.651
  558SOL    HW2 1700   1.743   0.177   4.668
  559SOL     OW 1701   0.263   0.326   4.444
  559SOL    HW1 1702   0.184   0.377   4.410
  559SOL    HW2 1703   0.254   0.311   4.542
  560SOL     OW 1704   1.194   1.612   3.755
  560SOL    HW1 1705   1.200   1.519   3.792
  560SOL    HW2 1706   1.135   1.612   3.675
  561SOL     OW 1707   0.822   1.002   5.096
  561SOL    HW1 1708   0.862   1.001   5.004
  561SOL    HW2 1709   0.832   1.094   5.136
  562SOL     OW 1710   0.916   0.910   4.015
  562SOL    HW1 1711   0.979   0.948   3.947
  562SOL    HW2 1712   0.956   0.827   4.054
  563SOL     OW 1713   1.504   1.607   3.768
  563SOL    HW1 1714   1.412   1.644   3.775
  563SOL    HW2 1715   1.542   1.627   3.678
  564SOL     OW 1716   0.372   1.288   5.214
  564SOL    HW1 1717   0.359   1.381   5.180
  564SOL    HW2 1718   0.288   1.236   5.201
  565SOL     OW 1719   1.614   1.292   5.013
  565SOL    HW1 1720   1.674   1.295   5.093
  565SOL    HW2 1721   1.539   1.356   5.026
  566SOL     OW 1722   1.039   1.098   4.420
  566SOL    HW1 1723   0.969   1.051   4.474
  566SOL    HW2 1724   1.098   1.030   4.377
  567SOL     OW 1725   1.014   0.236   4.695
  567SOL    HW1 1726   1.006   0.200   4.602
  567SOL    HW2 1727   1.012   0.160   4.760
  568SOL     OW 1728   0.590   1.487   4.215
  568SOL    HW1 1729   0.632   1.429   4.145
  568SOL    HW2 1730   0.546   1.566   4.171
  569SOL     OW 1731   1.709   0.385   5.105
  569SOL    HW1 1732   1.782   0.454   5.109
  569SOL    HW2 1733   1.737   0.310   5.046
  570SOL     OW 1734   0.255   1.348   4.014
  570SOL    HW1 1735   0.159   1.349   3.987
  570SOL    HW2 1736   0.267   1.401   4.098
  571SOL     OW 1737   0.075   0.345   3.757
  571SOL    HW1 1738  -0.017   0.317   3.728
  571SOL    HW2 1739   0.106   0.422   3.701
  572SOL     OW 1740   1.440   0.856   5.122
  572SOL    HW1 1741   1.383   0.908   5.059
  572SOL    HW2 1742   1.536   0.868   5.098
  573SOL     OW 1743   0.072   0.166   4.042
  573SOL    HW1 1744   0.055   0.249   3.988
  573SOL    HW2 1745   0.162   0.129   4.020
  574SOL     OW 1746   1.183   1.335   3.843
  574SOL    HW1 1747   1.084   1.324   3.845
  574SOL    HW2 1748   1.217   1.350   3.936
  575SOL     OW 1749   0.613   0.842   5.155
  575SOL    HW1 1750   0.669   0.923   5.138
  575SOL    HW2 1751   0.672   0.762   5.158
  576SOL     OW 1752   1.493   1.767   4.683
  576SOL    HW1 1753   1.526   1.831   4.614
  576SOL    HW2 1754   1.559   1.761   4.758
  577SOL     OW 1755   0.390   1.741   5.284
  577SOL    HW1 1756   0.299   1.782   5.282
  577SOL    HW2 1757   0.383   1.647   5.316
  578SOL     OW 1758   1.674   0.883   4.978
  578SOL    HW1 1759   1.647   0.794   4.941
  578SOL    HW2 1760   1.675   0.951   4.905
  579SOL     OW 1761   1.225   0.325   4.173
  579SOL    HW1 1762   1.290   0.251   4.162
  579SOL    HW2 1763   1.245   0.375   4.257
  580SOL     OW 1764   0.594   0.745   4.376
  580SOL    HW1 1765   0.644   0.830   4.357
  580SOL    HW2 1766   0.506   0.747   4.328
  581SOL     OW 1767   1.777   0.342   5.366
  581SOL    HW1 1768   1.760   0.373   5.272
  581SOL    HW2 1769   1.693   0.305   5.404
  582SOL     OW 1770   1.730   0.934   5.241
  582SOL    HW1 1771   1.768   1.025   5.256
  582SOL    HW2 1772   1.722   0.917   5.142
  583SOL     OW 1773   0.859   1.374   3.740
  583SOL    HW1 1774   0.813   1.389   3.828
  583SOL    HW2 1775   0.903   1.459   3.710
  584SOL     OW 1776   0.661   1.790   4.677
  584SOL    HW1 1777   0.615   1.878   4.664
  584SOL    HW2 1778   0.760   1.802   4.670
  585SOL     OW 1779   0.859   0.956   4.585
  585SOL    HW1 1780   0.913   0.887   4.633
  585SOL    HW2 1781   0.827   1.025   4.651
  586SOL     OW 1782   1.083   0.984   3.811
  586SOL    HW1 1783   1.060   1.037   3.729
  586SOL    HW2 1784   1.164   0.928   3.792
  587SOL     OW 1785   1.861   1.569   4.575
  587SOL    HW1 1786   1.790   1.557   4.505
  587SOL    HW2 1787   1.862   1.490   4.635
  588SOL     OW 1788   0.079   1.240   4.377
  588SOL    HW1 1789   0.078   1.193   4.465
  588SOL    HW2 1790   0.161   1.212   4.326
  589SOL     OW 1791   1.824   0.192   4.951
  589SOL    HW1 1792   1.820   0.102   4.995
  589SOL    HW2 1793   1.827   0.181   4.852
  590SOL     OW 1794   0.428   0.424   4.244
  590SOL    HW1 1795   0.458   0.352   4.182
  590SOL    HW2 1796   0.389   0.384   4.327
  591SOL     OW 1797   1.705   1.487   4.828
  591SOL    HW1 1798   1.612   1.462   4.801
  591SOL    HW2 1799   1.731   1.437   4.910
  592SOL     OW 1800   0.317   0.547   5.004
  592SOL    HW1 1801   0.355   0.488   5.076
  592SOL    HW2 1802   0.357   0.521   4.916
  593SOL     OW 1803   0.812   1.586   4.411
  593SOL    HW1 1804   0.844   1.596   4.317
  593SOL    HW2 1805   0.733   1.524   4.413
  594SOL     OW 1806   1.424   0.214   4.836
  594SOL    HW1 1807   1.476   0.149   4.891
  594SOL    HW2 1808   1.375   0.277   4.897
  595SOL     OW 1809   1.001   0.034   4.878
  595SOL    HW1 1810   0.938  -0.038   4.847
  595SOL    HW2 1811   1.094  -0.002   4.878
  596SOL     OW 1812   0.770   1.330   4.025
  596SOL    HW1 1813   0.724   1.243   4.042
  596SOL    HW2 1814   0.861   1.327   4.066
  597SOL     OW 1815   0.618   1.567   5.008
  597SOL    HW1 1816   0.613   1.649   5.065
  597SOL    HW2 1817   0.707   1.564   4.963
  598SOL     OW 1818   1.352   0.052   3.892
  598SOL    HW1 1819   1.387   0.011   3.808
  598SOL    HW2 1820   1.262   0.014   3.912
  599SOL     OW 1821   1.300   0.453   4.415
  599SOL    HW1 1822   1.241   0.533   4.419
  599SOL    HW2 1823   1.315   0.418   4.508
  600SOL     OW 1824   1.593   0.221   4.606
  600SOL    HW1 1825   1.509   0.220   4.660
  600SOL    HW2 1826   1.595   0.304   4.550
  601SOL     OW 1827   0.039   1.077   4.024
  601SOL    HW1 1828   0.138   1.066   4.015
  601SOL    HW2 1829  -0.001   0.991   4.056
  602SOL     OW 1830   0.875   1.646   4.061
  602SOL    HW1 1831   0.798   1.611   4.007
  602SOL    HW2 1832   0.843   1.717   4.123
  603SOL     OW 1833   0.230   2.490   0.113
  603SOL    HW1 1834   0.137   2.488   0.150
  603SOL    HW2 1835   0.231   2.451   0.021
  604SOL     OW 1836   0.225   2.137   0.996
  604SOL    HW1 1837   0.260   2.120   1.088
  604SOL    HW2 1838   0.137   2.092   0.984
  605SOL     OW 1839   0.019   2.230   0.647
  605SOL    HW1 1840  -0.063   2.273   0.686
  605SOL    HW2 1841  -0.009   2.157   0.584
  606SOL     OW 1842   0.569   3.137   1.165
  606SOL    HW1 1843   0.476   3.130   1.128
  606SOL    HW2 1844   0.580   3.226   1.209
  607SOL     OW 1845   1.555   3.373   0.703
  607SOL    HW1 1846   1.498   3.357   0.784
  607SOL    HW2 1847   1.496   3.383   0.623
  608SOL     OW 1848   1.135   2.565   0.717
  608SOL    HW1 1849   1.192   2.643   0.692
  608SOL    HW2 1850   1.075   2.591   0.793
  609SOL     OW 1851   1.755   2.469   0.231
  609SOL    HW1 1852   1.743   2.456   0.132
  609SOL    HW2 1853   1.725   2.388   0.280
  610SOL     OW 1854   0.768   3.006   1.023
  610SOL    HW1 1855   0.690   3.023   1.083
  610SOL    HW2 1856   0.802   3.093   0.987
  611SOL     OW 1857   0.850   2.660   1.823
  611SOL    HW1 1858   0.846   2.736   1.888
  611SOL    HW2 1859   0.872   2.696   1.732
  612SOL     OW 1860   0.685   2.874   0.665
  612SOL    HW1 1861   0.754   2.858   0.735
  612SOL    HW2 1862   0.612   2.931   0.703
  613SOL     OW 1863   0.686   3.023   1.803
  613SOL    HW1 1864   0.746   3.102   1.817
  613SOL    HW2 1865   0.600   3.054   1.762
  614SOL     OW 1866   0.335   3.297   1.061
  614SOL    HW1 1867   0.257   3.266   1.008
  614SOL    HW2 1868   0.393   3.355   1.004
  615SOL     OW 1869   1.460   3.367   1.339
  615SOL    HW1 1870   1.484   3.461   1.365
  615SOL    HW2 1871   1.444   3.313   1.421
  616SOL     OW 1872   0.438   2.254   1.499
  616SOL    HW1 1873   0.520   2.198   1.508
  616SOL    HW2 1874   0.357   2.196   1.503
  617SOL     OW 1875   1.603   2.309   0.737
  617SOL    HW1 1876   1.529   2.355   0.687
  617SOL    HW2 1877   1.654   2.377   0.790
  618SOL     OW 1878   0.231   3.575   0.483
  618SOL    HW1 1879   0.265   3.652   0.537
  618SOL    HW2 1880   0.275   3.575   0.393
  619SOL     OW 1881   1.127   3.203   1.690
  619SOL    HW1 1882   1.174   3.203   1.778
  619SOL    HW2 1883   1.079   3.116   1.679
  620SOL     OW 1884   0.230   3.296   0.538
  620SOL    HW1 1885   0.204   3.392   0.538
  620SOL    HW2 1886   0.159   3.242   0.583
  621SOL     OW 1887   0.240   2.953   0.886
  621SOL    HW1 1888   0.254   2.869   0.938
  621SOL    HW2 1889   0.185   3.017   0.941
  622SOL     OW 1890   0.620   3.648   1.439
  622SOL    HW1 1891   0.528   3.631   1.474
  622SOL    HW2 1892   0.648   3.740   1.465
  623SOL     OW 1893   0.606   2.826   0.123
  623SOL    HW1 1894   0.613   2.910   0.069
  623SOL    HW2 1895   0.652   2.839   0.211
  624SOL     OW 1896   1.594   1.976   1.480
  624SOL    HW1 1897   1.576   2.043   1.408
  624SOL    HW2 1898   1.591   2.022   1.569
  625SOL     OW 1899   0.122   2.505   0.563
  625SOL    HW1 1900   0.077   2.417   0.580
  625SOL    HW2 1901   0.121   2.559   0.647
  626SOL     OW 1902   1.842   3.629   0.359
  626SOL    HW1 1903   1.896   3.600   0.439
  626SOL    HW2 1904   1.872   3.719   0.330
  627SOL     OW 1905   0.027   3.458   0.117
  627SOL    HW1 1906   0.008   3.362   0.138
  627SOL    HW2 1907  -0.006   3.516   0.192
  628SOL     OW 1908   1.689   2.784   0.612
  628SOL    HW1 1909   1.784   2.755   0.620
  628SOL    HW2 1910   1.681   2.849   0.537
  629SOL     OW 1911   1.641   2.970   0.432
  629SOL    HW1 1912   1.727   2.972   0.380
  629SOL    HW2 1913   1.655   3.017   0.520
  630SOL     OW 1914   0.113   2.599   1.597
  630SOL    HW1 1915   0.201   2.586   1.642
  630SOL    HW2 1916   0.100   2.696   1.575
  631SOL     OW 1917   0.613   3.227   0.726
  631SOL    HW1 1918   0.564   3.140   0.735
  631SOL    HW2 1919   0.590   3.270   0.639
  632SOL     OW 1920   1.293   3.090   1.423
  632SOL    HW1 1921   1.330   3.017   1.365
  632SOL    HW2 1922   1.345   3.095   1.508
  633SOL     OW 1923   0.809   1.866   0.502
  633SOL    HW1 1924   0.849   1.957   0.493
  633SOL    HW2 1925   0.709   1.874   0.508
  634SOL     OW 1926   0.197   2.838   1.264
  634SOL    HW1 1927   0.286   2.793   1.250
  634SOL    HW2 1928   0.124   2.773   1.245
  635SOL     OW 1929   1.525   2.861   0.190
  635SOL    HW1 1930   1.462   2.785   0.203
  635SOL    HW2 1931   1.573   2.879   0.276
  636SOL     OW 1932   1.187   3.654   1.616
  636SOL    HW1 1933   1.211   3.714   1.540
  636SOL    HW2 1934   1.194   3.559   1.586
  637SOL     OW 1935   0.317   2.113   1.801
  637SOL    HW1 1936   0.388   2.184   1.807
  637SOL    HW2 1937   0.229   2.152   1.829
  638SOL     OW 1938   1.466   3.279   0.953
  638SOL    HW1 1939   1.407   3.285   1.033
  638SOL    HW2 1940   1.451   3.191   0.907
  639SOL     OW 1941   1.667   3.576   0.572
  639SOL    HW1 1942   1.626   3.553   0.484
  639SOL    HW2 1943   1.649   3.502   0.637
  640SOL     OW 1944   0.598   2.591   0.270
  640SOL    HW1 1945   0.622   2.660   0.202
  640SOL    HW2 1946   0.520   2.624   0.324
  641SOL     OW 1947   1.281   2.207   0.944
  641SOL    HW1 1948   1.195   2.157   0.931
  641SOL    HW2 1949   1.343   2.153   1.000
  642SOL     OW 1950   1.576   3.524   0.307
  642SOL    HW1 1951   1.665   3.570   0.310
  642SOL    HW2 1952   1.555   3.500   0.212
  643SOL     OW 1953   0.807   2.467   1.465
  643SOL    HW1 1954   0.760   2.464   1.554
  643SOL    HW2 1955   0.756   2.412   1.399
  644SOL     OW 1956   1.394   2.331   1.674
  644SOL    HW1 1957   1.374   2.374   1.762
  644SOL    HW2 1958   1.472   2.269   1.683
  645SOL     OW 1959   0.973   2.752   1.572
  645SOL    HW1 1960   1.019   2.668   1.543
  645SOL    HW2 1961   0.917   2.786   1.497
  646SOL     OW 1962   0.991   2.272   1.242
  646SOL    HW1 1963   0.914   2.306   1.296
  646SOL    HW2 1964   0.957   2.221   1.163
  647SOL     OW 1965   1.041   2.563   0.429
  647SOL    HW1 1966   1.067   2.559   0.525
  647SOL    HW2 1967   0.956   2.512   0.415
  648SOL     OW 1968   0.076   2.673   0.789
  648SOL    HW1 1969   0.175   2.661   0.798
  648SOL    HW2 1970   0.052   2.768   0.810
  649SOL     OW 1971   0.130   3.683   1.571
  649SOL    HW1 1972   0.120   3.668   1.670
  649SOL    HW2 1973   0.044   3.719   1.535
  650SOL     OW 1974   0.865   2.210   0.195
  650SOL    HW1 1975   0.924   2.273   0.146
  650SOL    HW2 1976   0.884   2.116   0.166
  651SOL     OW 1977   1.719   2.447   1.831
  651SOL    HW1 1978   1.693   2.536   1.795
  651SOL    HW2 1979   1.717   2.379   1.758
  652SOL     OW 1980   1.362   3.006   0.545
  652SOL    HW1 1981   1.445   2.977   0.497
  652SOL    HW2 1982   1.313   3.073   0.489
  653SOL     OW 1983   0.550   2.058   0.885
  653SOL    HW1 1984   0.545   2.053   0.985
  653SOL    HW2 1985   0.552   2.154   0.856
  654SOL     OW 1986   1.008   3.318   0.477
  654SOL    HW1 1987   0.962   3.390   0.425
  654SOL    HW2 1988   1.004   3.338   0.575
  655SOL     OW 1989   0.351   3.663   0.853
  655SOL    HW1 1990   0.401   3.577   0.859
  655SOL    HW2 1991   0.416   3.740   0.850
  656SOL     OW 1992   1.795   2.928   0.873
  656SOL    HW1 1993   1.733   2.913   0.797
  656SOL    HW2 1994   1.743   2.939   0.958
  657SOL     OW 1995   1.227   3.412   1.506
  657SOL    HW1 1996   1.233   3.335   1.570
  657SOL    HW2 1997   1.175   3.386   1.426
  658SOL     OW 1998   0.321   2.805   0.242
  658SOL    HW1 1999   0.403   2.844   0.200
  658SOL    HW2 2000   0.294   2.723   0.193
  659SOL     OW 2001   1.458   2.597   0.728
  659SOL    HW1 2002   1.453   2.532   0.803
  659SOL    HW2 2003   1.538   2.656   0.741
  660SOL     OW 2004   0.461   3.128   1.727
  660SOL    HW1 2005   0.411   3.129   1.641
  660SOL    HW2 2006   0.398   3.110   1.803
  661SOL     OW 2007   1.111   3.638   0.237
  661SOL    HW1 2008   1.051   3.576   0.287
  661SOL    HW2 2009   1.142   3.594   0.152
  662SOL     OW 2010   0.202   2.147   1.498
  662SOL    HW1 2011   0.122   2.207   1.485
  662SOL    HW2 2012   0.192   2.098   1.584
  663SOL     OW 2013   1.632   3.239   0.081
  663SOL    HW1 2014   1.600   3.333   0.071
  663SOL    HW2 2015   1.556   3.176   0.069
  664SOL     OW 2016   0.464   3.605   0.323
  664SOL    HW1 2017   0.497   3.644   0.409
  664SOL    HW2 2018   0.540   3.598   0.258
  665SOL     OW 2019   1.400   1.969   0.426
  665SOL    HW1 2020   1.376   1.932   0.336
  665SOL    HW2 2021   1.499   1.985   0.430
  666SOL     OW 2022   0.249   3.647   1.241
  666SOL    HW1 2023   0.306   3.582   1.291
  666SOL    HW2 2024   0.233   3.614   1.148
  667SOL     OW 2025   0.940   3.560   0.904
  667SOL    HW1 2026   1.020   3.503   0.925
  667SOL    HW2 2027   0.891   3.520   0.827
  668SOL     OW 2028   0.382   2.562   0.480
  668SOL    HW1 2029   0.427   2.472   0.477
  668SOL    HW2 2030   0.288   2.551   0.513
  669SOL     OW 2031   1.547   2.084   1.729
  669SOL    HW1 2032   1.542   2.121   1.821
  669SOL    HW2 2033   1.475   2.015   1.717
  670SOL     OW 2034   0.614   1.984   0.117
  670SOL    HW1 2035   0.712   1.962   0.124
  670SOL    HW2 2036   0.583   1.967   0.024
  671SOL     OW 2037   0.781   2.126   1.749
  671SOL    HW1 2038   0.848   2.065   1.792
  671SOL    HW2 2039   0.708   2.145   1.814
  672SOL     OW 2040   0.888   3.376   1.195
  672SOL    HW1 2041   0.865   3.351   1.101
  672SOL    HW2 2042   0.949   3.307   1.234
  673SOL     OW 2043   1.351   2.452   1.433
  673SOL    HW1 2044   1.379   2.409   1.518
  673SOL    HW2 2045   1.376   2.548   1.434
  674SOL     OW 2046   0.803   3.264   0.924
  674SOL    HW1 2047   0.893   3.278   0.882
  674SOL    HW2 2048   0.732   3.266   0.853
  675SOL     OW 2049   0.922   2.365   0.899
  675SOL    HW1 2050   0.897   2.356   0.803
  675SOL    HW2 2051   0.970   2.283   0.930
  676SOL     OW 2052   0.539   1.926   0.512
  676SOL    HW1 2053   0.458   1.927   0.570
  676SOL    HW2 2054   0.542   2.009   0.457
  677SOL     OW 2055   1.434   3.050   0.041
  677SOL    HW1 2056   1.466   2.974   0.098
  677SOL    HW2 2057   1.342   3.077   0.071
  678SOL     OW 2058   0.297   1.897   0.171
  678SOL    HW1 2059   0.346   1.981   0.150
  678SOL    HW2 2060   0.359   1.832   0.216
  679SOL     OW 2061   0.935   2.098   0.480
  679SOL    HW1 2062   0.887   2.139   0.402
  679SOL    HW2 2063   1.034   2.096   0.461
  680SOL     OW 2064   1.076   2.545   1.464
  680SOL    HW1 2065   0.996   2.484   1.467
  680SOL    HW2 2066   1.157   2.492   1.440
  681SOL     OW 2067   1.227   3.432   0.793
  681SOL    HW1 2068   1.248   3.506   0.728
  681SOL    HW2 2069   1.295   3.432   0.866
  682SOL     OW 2070   0.459   3.014   0.741
  682SOL    HW1 2071   0.388   2.987   0.806
  682SOL    HW2 2072   0.433   2.986   0.648
  683SOL     OW 2073   1.271   3.659   0.591
  683SOL    HW1 2074   1.315   3.723   0.527
  683SOL    HW2 2075   1.221   3.711   0.661
  684SOL     OW 2076   1.032   2.411   0.016
  684SOL    HW1 2077   0.991   2.493  -0.023
  684SOL    HW2 2078   1.096   2.437   0.089
  685SOL     OW 2079   0.078   2.418   1.386
  685SOL    HW1 2080   0.170   2.417   1.345
  685SOL    HW2 2081   0.072   2.492   1.453
  686SOL     OW 2082   0.561   2.084   1.147
  686SOL    HW1 2083   0.599   2.000   1.184
  686SOL    HW2 2084   0.473   2.103   1.191
  687SOL     OW 2085   0.866   2.316   0.642
  687SOL    HW1 2086   0.834   2.388   0.580
  687SOL    HW2 2087   0.890   2.235   0.589
  688SOL     OW 2088   1.017   1.901   0.753
  688SOL    HW1 2089   0.945   1.906   0.684
  688SOL    HW2 2090   0.993   1.832   0.822
  689SOL     OW 2091   1.429   3.035   0.867
  689SOL    HW1 2092   1.374   2.951   0.860
  689SOL    HW2 2093   1.455   3.064   0.775
  690SOL     OW 2094   1.466   2.452   0.992
  690SOL    HW1 2095   1.436   2.357   0.999
  690SOL    HW2 2096   1.539   2.468   1.058
  691SOL     OW 2097   1.857   2.695   0.377
  691SOL    HW1 2098   1.899   2.631   0.441
  691SOL    HW2 2099   1.819   2.644   0.299
  692SOL     OW 2100   0.488   3.247   0.174
  692SOL    HW1 2101   0.401   3.232   0.221
  692SOL    HW2 2102   0.471   3.273   0.079
  693SOL     OW 2103   1.664   3.142   0.657
  693SOL    HW1 2104   1.763   3.150   0.671
  693SOL    HW2 2105   1.619   3.226   0.688
  694SOL     OW 2106   1.390   2.437   0.078
  694SOL    HW1 2107   1.336   2.416   0.159
  694SOL    HW2 2108   1.481   2.396   0.087
  695SOL     OW 2109   0.527   2.118   0.328
  695SOL    HW1 2110   0.554   2.059   0.253
  695SOL    HW2 2111   0.527   2.213   0.297
  696SOL     OW 2112   1.754   3.085   1.588
  696SOL    HW1 2113   1.845   3.046   1.575
  696SOL    HW2 2114   1.762   3.181   1.612
  697SOL     OW 2115   1.064   3.209   1.340
  697SOL    HW1 2116   0.984   3.186   1.395
  697SOL    HW2 2117   1.147   3.183   1.389
  698SOL     OW 2118   1.592   3.491   1.625
  698SOL    HW1 2119   1.619   3.525   1.535
  698SOL    HW2 2120   1.671   3.453   1.671
  699SOL     OW 2121   1.111   3.057   1.100
  699SOL    HW1 2122   1.071   3.101   1.181
  699SOL    HW2 2123   1.070   3.094   1.017
  700SOL     OW 2124   1.638   2.961   1.079
  700SOL    HW1 2125   1.643   3.042   1.138
  700SOL    HW2 2126   1.552   2.963   1.028
  701SOL     OW 2127   0.915   1.951   1.402
  701SOL    HW1 2128   0.940   1.931   1.307
  701SOL    HW2 2129   0.987   2.007   1.444
  702SOL     OW 2130   0.980   2.978   1.719
  702SOL    HW1 2131   0.881   2.984   1.729
  702SOL    HW2 2132   1.003   2.898   1.663
  703SOL     OW 2133   0.705   2.912   0.368
  703SOL    HW1 2134   0.691   2.919   0.467
  703SOL    HW2 2135   0.789   2.861   0.350
  704SOL     OW 2136   0.410   2.675   1.251
  704SOL    HW1 2137   0.496   2.687   1.301
  704SOL    HW2 2138   0.368   2.588   1.278
  705SOL     OW 2139   1.274   2.248   1.262
  705SOL    HW1 2140   1.295   2.322   1.326
  705SOL    HW2 2141   1.185   2.265   1.219
  706SOL     OW 2142   0.064   3.426   1.331
  706SOL    HW1 2143   0.018   3.508   1.297
  706SOL    HW2 2144   0.162   3.445   1.340
  707SOL     OW 2145   0.367   2.962   0.501
  707SOL    HW1 2146   0.360   3.045   0.445
  707SOL    HW2 2147   0.371   2.882   0.441
  708SOL     OW 2148   0.566   2.399   0.865
  708SOL    HW1 2149   0.578   2.465   0.791
  708SOL    HW2 2150   0.612   2.433   0.948
  709SOL     OW 2151   1.252   3.210   0.388
  709SOL    HW1 2152   1.302   3.287   0.428
  709SOL    HW2 2153   1.157   3.212   0.420
  710SOL     OW 2154   1.272   3.307   1.142
  710SOL    HW1 2155   1.319   3.320   1.229
  710SOL    HW2 2156   1.206   3.233   1.151
  711SOL     OW 2157   1.582   2.501   0.472
  711SOL    HW1 2158   1.551   2.562   0.545
  711SOL    HW2 2159   1.632   2.553   0.403
  712SOL     OW 2160   0.354   3.372   1.329
  712SOL    HW1 2161   0.333   3.328   1.242
  712SOL    HW2 2162   0.451   3.398   1.332
  713SOL     OW 2163   0.402   2.613   1.598
  713SOL    HW1 2164   0.470   2.668   1.551
  713SOL    HW2 2165   0.442   2.525   1.625
  714SOL     OW 2166   1.587   2.641   1.670
  714SOL    HW1 2167   1.495   2.679   1.665
  714SOL    HW2 2168   1.647   2.688   1.605
  715SOL     OW 2169   1.013   1.967   1.770
  715SOL    HW1 2170   1.019   2.052   1.718
  715SOL    HW2 2171   1.045   1.891   1.713
  716SOL     OW 2172   0.504   1.912   1.740
  716SOL    HW1 2173   0.462   1.855   1.670
  716SOL    HW2 2174   0.438   1.981   1.772
  717SOL     OW 2175   0.573   2.732   1.029
  717SOL    HW1 2176   0.617   2.821   1.020
  717SOL    HW2 2177   0.510   2.732   1.106
  718SOL     OW 2178   1.360   2.724   1.045
  718SOL    HW1 2179   1.285   2.724   0.979
  718SOL    HW2 2180   1.397   2.632   1.054
  719SOL     OW 2181   1.209   2.387   0.275
  719SOL    HW1 2182   1.222   2.303   0.329
  719SOL    HW2 2183   1.180   2.461   0.335
  720SOL     OW 2184   0.307   2.075   1.231
  720SOL    HW1 2185   0.284   2.112   1.321
  720SOL    HW2 2186   0.277   1.980   1.225
  721SOL     OW 2187   0.037   3.172   1.282
  721SOL    HW1 2188   0.090   3.123   1.350
  721SOL    HW2 2189   0.059   3.270   1.287
  722SOL     OW 2190   0.732   2.496   1.064
  722SOL    HW1 2191   0.791   2.470   0.988
  722SOL    HW2 2192   0.704   2.592   1.053
  723SOL     OW 2193   1.728   2.797   1.854
  723SOL    HW1 2194   1.682   2.790   1.765
  723SOL    HW2 2195   1.666   2.841   1.920
  724SOL     OW 2196   0.307   1.925   0.618
  724SOL    HW1 2197   0.296   2.019   0.651
  724SOL    HW2 2198   0.302   1.862   0.695
  725SOL     OW 2199   1.622   2.229   0.374
  725SOL    HW1 2200   1.624   2.153   0.438
  725SOL    HW2 2201   1.574   2.306   0.414
  726SOL     OW 2202   1.023   2.628   0.966
  726SOL    HW1 2203   1.038   2.649   1.062
  726SOL    HW2 2204   0.993   2.533   0.957
  727SOL     OW 2205   0.980   3.435   1.700
  727SOL    HW1 2206   0.960   3.479   1.612
  727SOL    HW2 2207   1.019   3.344   1.684
  728SOL     OW 2208   1.859   3.380   1.605
  728SOL    HW1 2209   1.873   3.407   1.510
  728SOL    HW2 2210   1.942   3.402   1.658
  729SOL     OW 2211   0.350   2.760   1.804
  729SOL    HW1 2212   0.426   2.804   1.852
  729SOL    HW2 2213   0.385   2.713   1.722
  730SOL     OW 2214   1.540   2.136   0.125
  730SOL    HW1 2215   1.479   2.061   0.148
  730SOL    HW2 2216   1.562   2.188   0.208
  731SOL     OW 2217   1.303   2.700   0.042
  731SOL    HW1 2218   1.337   2.607   0.057
  731SOL    HW2 2219   1.321   2.727  -0.053
  732SOL     OW 2220   1.068   3.195   0.849
  732SOL    HW1 2221   1.075   3.111   0.794
  732SOL    HW2 2222   1.130   3.264   0.813
  733SOL     OW 2223   0.319   2.672   0.949
  733SOL    HW1 2224   0.412   2.708   0.954
  733SOL    HW2 2225   0.313   2.587   1.001
  734SOL     OW 2226   0.339   2.371   1.006
  734SOL    HW1 2227   0.287   2.288   0.989
  734SOL    HW2 2228   0.416   2.376   0.942
  735SOL     OW 2229   1.138   2.242   1.678
  735SOL    HW1 2230   1.093   2.305   1.742
  735SOL    HW2 2231   1.231   2.273   1.661
  736SOL     OW 2232   1.160   2.069   1.477
  736SOL    HW1 2233   1.160   2.133   1.554
  736SOL    HW2 2234   1.188   2.117   1.394
  737SOL     OW 2235   0.008   3.188   0.200
  737SOL    HW1 2236  -0.085   3.209   0.169
  737SOL    HW2 2237   0.018   3.089   0.213
  738SOL     OW 2238   0.088   3.663   0.927
  738SOL    HW1 2239   0.046   3.577   0.900
  738SOL    HW2 2240   0.182   3.666   0.893
  739SOL     OW 2241   0.504   3.430   0.910
  739SOL    HW1 2242   0.570   3.504   0.919
  739SOL    HW2 2243   0.548   3.351   0.868
  740SOL     OW 2244   1.002   2.658   1.238
  740SOL    HW1 2245   1.043   2.626   1.324
  740SOL    HW2 2246   0.906   2.631   1.235
  741SOL     OW 2247   0.040   2.406   1.114
  741SOL    HW1 2248   0.125   2.373   1.073
  741SOL    HW2 2249   0.053   2.421   1.212
  742SOL     OW 2250   0.189   2.382   1.722
  742SOL    HW1 2251   0.248   2.342   1.652
  742SOL    HW2 2252   0.131   2.453   1.681
  743SOL     OW 2253   1.369   2.812   1.660
  743SOL    HW1 2254   1.408   2.901   1.680
  743SOL    HW2 2255   1.379   2.792   1.563
  744SOL     OW 2256   0.815   2.434   0.325
  744SOL    HW1 2257   0.822   2.345   0.279
  744SOL    HW2 2258   0.721   2.468   0.317
  745SOL     OW 2259   1.657   2.466   1.206
  745SOL    HW1 2260   1.619   2.397   1.268
  745SOL    HW2 2261   1.739   2.430   1.162
  746SOL     OW 2262   0.252   3.426   1.744
  746SOL    HW1 2263   0.222   3.483   1.820
  746SOL    HW2 2264   0.245   3.329   1.770
  747SOL     OW 2265   0.671   2.326   1.269
  747SOL    HW1 2266   0.637   2.237   1.239
  747SOL    HW2 2267   0.697   2.380   1.189
  748SOL     OW 2268   0.930   3.540   1.465
  748SOL    HW1 2269   0.906   3.522   1.370
  748SOL    HW2 2270   0.960   3.634   1.475
  749SOL     OW 2271   0.473   2.362   0.191
  749SOL    HW1 2272   0.534   2.442   0.195
  749SOL    HW2 2273   0.378   2.393   0.198
  750SOL     OW 2274   0.159   2.999   1.466
  750SOL    HW1 2275   0.181   2.938   1.542
  750SOL    HW2 2276   0.169   2.950   1.380
  751SOL     OW 2277   1.347   2.921   1.234
  751SOL    HW1 2278   1.371   2.858   1.160
  751SOL    HW2 2279   1.257   2.961   1.216
  752SOL     OW 2280   1.302   2.717   0.309
  752SOL    HW1 2281   1.216   2.686   0.351
  752SOL    HW2 2282   1.298   2.703   0.210
  753SOL     OW 2283   1.759   3.609   1.154
  753SOL    HW1 2284   1.820   3.639   1.081
  753SOL    HW2 2285   1.721   3.520   1.132
  754SOL     OW 2286   1.252   3.593   1.128
  754SOL    HW1 2287   1.336   3.598   1.074
  754SOL    HW2 2288   1.229   3.497   1.146
  755SOL     OW 2289   0.083   3.120   1.022
  755SOL    HW1 2290   0.078   3.119   1.122
  755SOL    HW2 2291   0.000   3.079   0.984
  756SOL     OW 2292   0.688   3.524   1.716
  756SOL    HW1 2293   0.632   3.605   1.725
  756SOL    HW2 2294   0.740   3.528   1.630
  757SOL     OW 2295   0.903   1.948   0.133
  757SOL    HW1 2296   0.954   1.949   0.047
  757SOL    HW2 2297   0.959   1.906   0.204
  758SOL     OW 2298   1.726   1.997   0.523
  758SOL    HW1 2299   1.799   1.980   0.456
  758SOL    HW2 2300   1.695   1.910   0.561
  759SOL     OW 2301   1.388   3.435   0.477
  759SOL    HW1 2302   1.455   3.447   0.403
  759SOL    HW2 2303   1.348   3.524   0.500
  760SOL     OW 2304   0.130   3.656   1.851
  760SOL    HW1 2305   0.089   3.582   1.904
  760SOL    HW2 2306   0.194   3.707   1.909
  761SOL     OW 2307   1.280   2.789   0.672
  761SOL    HW1 2308   1.340   2.708   0.674
  761SOL    HW2 2309   1.320   2.858   0.612
  762SOL     OW 2310   0.830   3.135   1.422
  762SOL    HW1 2311   0.825   3.168   1.517
  762SOL    HW2 2312   0.744   3.154   1.376
  763SOL     OW 2313   0.672   3.478   0.154
  763SOL    HW1 2314   0.681   3.488   0.055
  763SOL    HW2 2315   0.632   3.389   0.175
  764SOL     OW 2316   1.650   3.582   1.394
  764SOL    HW1 2317   1.703   3.592   1.310
  764SOL    HW2 2318   1.623   3.672   1.428
  765SOL     OW 2319   1.841   2.037   0.963
  765SOL    HW1 2320   1.880   1.952   0.927
  765SOL    HW2 2321   1.743   2.039   0.944
  766SOL     OW 2322   0.263   2.188   0.720
  766SOL    HW1 2323   0.184   2.239   0.686
  766SOL    HW2 2324   0.254   2.173   0.818
  767SOL     OW 2325   1.194   3.474   0.031
  767SOL    HW1 2326   1.200   3.381   0.068
  767SOL    HW2 2327   1.135   3.474  -0.049
  768SOL     OW 2328   0.822   2.864   1.372
  768SOL    HW1 2329   0.862   2.863   1.280
  768SOL    HW2 2330   0.832   2.956   1.412
  769SOL     OW 2331   0.916   2.772   0.291
  769SOL    HW1 2332   0.979   2.810   0.223
  769SOL    HW2 2333   0.956   2.689   0.330
  770SOL     OW 2334   1.504   3.469   0.044
  770SOL    HW1 2335   1.412   3.506   0.051
  770SOL    HW2 2336   1.542   3.489  -0.046
  771SOL     OW 2337   0.372   3.150   1.490
  771SOL    HW1 2338   0.359   3.243   1.456
  771SOL    HW2 2339   0.288   3.098   1.477
  772SOL     OW 2340   1.614   3.154   1.289
  772SOL    HW1 2341   1.674   3.157   1.369
  772SOL    HW2 2342   1.539   3.218   1.302
  773SOL     OW 2343   1.039   2.960   0.696
  773SOL    HW1 2344   0.969   2.913   0.750
  773SOL    HW2 2345   1.098   2.892   0.653
  774SOL     OW 2346   1.014   2.098   0.971
  774SOL    HW1 2347   1.006   2.062   0.878
  774SOL    HW2 2348   1.012   2.022   1.036
  775SOL     OW 2349   0.590   3.349   0.491
  775SOL    HW1 2350   0.632   3.291   0.421
  775SOL    HW2 2351   0.546   3.428   0.447
  776SOL     OW 2352   1.709   2.247   1.381
  776SOL    HW1 2353   1.782   2.316   1.385
  776SOL    HW2 2354   1.737   2.172   1.322
  777SOL     OW 2355   0.255   3.210   0.290
  777SOL    HW1 2356   0.159   3.211   0.263
  777SOL    HW2 2357   0.267   3.263   0.374
  778SOL     OW 2358   0.105   2.875   1.726
  778SOL    HW1 2359   0.028   2.842   1.780
  778SOL    HW2 2360   0.190   2.845   1.768
  779SOL     OW 2361   0.672   2.065   1.489
  779SOL    HW1 2362   0.762   2.049   1.449
  779SOL    HW2 2363   0.680   2.070   1.588
  780SOL     OW 2364   0.075   2.207   0.033
  780SOL    HW1 2365  -0.017   2.179   0.004
  780SOL    HW2 2366   0.106   2.284  -0.023
  781SOL     OW 2367   1.440   2.718   1.398
  781SOL    HW1 2368   1.383   2.770   1.335
  781SOL    HW2 2369   1.536   2.730   1.374
  782SOL     OW 2370   0.072   2.028   0.318
  782SOL    HW1 2371   0.055   2.111   0.264
  782SOL    HW2 2372   0.162   1.991   0.296
  783SOL     OW 2373   1.183   3.197   0.119
  783SOL    HW1 2374   1.084   3.186   0.121
  783SOL    HW2 2375   1.217   3.212   0.212
  784SOL     OW 2376   0.613   2.704   1.431
  784SOL    HW1 2377   0.669   2.785   1.414
  784SOL    HW2 2378   0.672   2.624   1.434
  785SOL     OW 2379   1.493   3.629   0.959
  785SOL    HW1 2380   1.526   3.693   0.890
  785SOL    HW2 2381   1.559   3.623   1.034
  786SOL     OW 2382   0.716   2.427   1.708
  786SOL    HW1 2383   0.735   2.492   1.782
  786SOL    HW2 2384   0.776   2.347   1.717
  787SOL     OW 2385   1.450   3.082   1.633
  787SOL    HW1 2386   1.441   3.072   1.732
  787SOL    HW2 2387   1.546   3.075   1.607
  788SOL     OW 2388   0.390   3.603   1.560
  788SOL    HW1 2389   0.299   3.644   1.558
  788SOL    HW2 2390   0.383   3.509   1.592
  789SOL     OW 2391   1.674   2.745   1.254
  789SOL    HW1 2392   1.647   2.656   1.217
  789SOL    HW2 2393   1.675   2.813   1.181
  790SOL     OW 2394   1.225   2.187   0.449
  790SOL    HW1 2395   1.290   2.113   0.438
  790SOL    HW2 2396   1.245   2.237   0.533
  791SOL     OW 2397   0.594   2.607   0.652
  791SOL    HW1 2398   0.644   2.692   0.633
  791SOL    HW2 2399   0.506   2.609   0.604
  792SOL     OW 2400   1.777   2.204   1.642
  792SOL    HW1 2401   1.760   2.235   1.548
  792SOL    HW2 2402   1.693   2.167   1.680
  793SOL     OW 2403   1.730   2.796   1.517
  793SOL    HW1 2404   1.768   2.887   1.532
  793SOL    HW2 2405   1.722   2.779   1.418
  794SOL     OW 2406   0.859   3.236   0.016
  794SOL    HW1 2407   0.813   3.251   0.104
  794SOL    HW2 2408   0.903   3.321  -0.014
  795SOL     OW 2409   0.661   3.652   0.953
  795SOL    HW1 2410   0.615   3.740   0.940
  795SOL    HW2 2411   0.760   3.664   0.946
  796SOL     OW 2412   0.859   2.818   0.861
  796SOL    HW1 2413   0.913   2.749   0.909
  796SOL    HW2 2414   0.827   2.887   0.927
  797SOL     OW 2415   1.083   2.846   0.087
  797SOL    HW1 2416   1.060   2.899   0.005
  797SOL    HW2 2417   1.164   2.790   0.068
  798SOL     OW 2418   1.861   3.431   0.851
  798SOL    HW1 2419   1.790   3.419   0.781
  798SOL    HW2 2420   1.862   3.352   0.911
  799SOL     OW 2421   0.221   3.176   1.844
  799SOL    HW1 2422   0.156   3.103   1.823
  799SOL    HW2 2423   0.225   3.190   1.942
  800SOL     OW 2424   0.079   3.102   0.653
  800SOL    HW1 2425   0.078   3.055   0.741
  800SOL    HW2 2426   0.161   3.074   0.602
  801SOL     OW 2427   0.672   3.253   1.624
  801SOL    HW1 2428   0.594   3.203   1.662
  801SOL    HW2 2429   0.669   3.348   1.655
  802SOL     OW 2430   1.824   2.054   1.227
  802SOL    HW1 2431   1.820   1.964   1.271
  802SOL    HW2 2432   1.827   2.043   1.128
  803SOL     OW 2433   0.428   2.286   0.520
  803SOL    HW1 2434   0.458   2.214   0.458
  803SOL    HW2 2435   0.389   2.246   0.603
  804SOL     OW 2436   1.705   3.349   1.104
  804SOL    HW1 2437   1.612   3.324   1.077
  804SOL    HW2 2438   1.731   3.299   1.186
  805SOL     OW 2439   0.317   2.409   1.280
  805SOL    HW1 2440   0.355   2.350   1.352
  805SOL    HW2 2441   0.357   2.383   1.192
  806SOL     OW 2442   0.812   3.448   0.687
  806SOL    HW1 2443   0.844   3.458   0.593
  806SOL    HW2 2444   0.733   3.386   0.689
  807SOL     OW 2445   1.424   2.076   1.112
  807SOL    HW1 2446   1.476   2.011   1.167
  807SOL    HW2 2447   1.375   2.139   1.173
  808SOL     OW 2448   1.001   1.896   1.154
  808SOL    HW1 2449   0.938   1.824   1.123
  808SOL    HW2 2450   1.094   1.860   1.154
  809SOL     OW 2451   0.770   3.192   0.301
  809SOL    HW1 2452   0.724   3.105   0.318
  809SOL    HW2 2453   0.861   3.189   0.342
  810SOL     OW 2454   0.618   3.429   1.284
  810SOL    HW1 2455   0.613   3.511   1.341
  810SOL    HW2 2456   0.707   3.426   1.239
  811SOL     OW 2457   1.352   1.914   0.168
  811SOL    HW1 2458   1.387   1.873   0.084
  811SOL    HW2 2459   1.262   1.876   0.188
  812SOL     OW 2460   1.300   2.315   0.691
  812SOL    HW1 2461   1.241   2.395   0.695
  812SOL    HW2 2462   1.315   2.280   0.784
  813SOL     OW 2463   1.593   2.083   0.882
  813SOL    HW1 2464   1.509   2.082   0.936
  813SOL    HW2 2465   1.595   2.166   0.826
  814SOL     OW 2466   0.039   2.939   0.300
  814SOL    HW1 2467   0.138   2.928   0.291
  814SOL    HW2 2468  -0.001   2.853   0.332
  815SOL     OW 2469   0.875   3.508   0.337
  815SOL    HW1 2470   0.798   3.473   0.283
  815SOL    HW2 2471   0.843   3.579   0.399
  816SOL     OW 2472   0.230   2.490   1.975
  816SOL    HW1 2473   0.137   2.488   2.012
  816SOL    HW2 2474   0.231   2.451   1.883
  817SOL     OW 2475   0.225   2.137   2.858
  817SOL    HW1 2476   0.260   2.120   2.950
  817SOL    HW2 2477   0.137   2.092   2.846
  818SOL     OW 2478   0.019   2.230   2.509
  818SOL    HW1 2479  -0.063   2.273   2.548
  818SOL    HW2 2480  -0.009   2.157   2.446
  819SOL     OW 2481   0.569   3.137   3.027
  819SOL    HW1 2482   0.476   3.130   2.990
  819SOL    HW2 2483   0.580   3.226   3.071
  820SOL     OW 2484   1.555   3.373   2.565
  820SOL    HW1 2485   1.498   3.357   2.646
  820SOL    HW2 2486   1.496   3.383   2.485
  821SOL     OW 2487   1.135   2.565   2.579
  821SOL    HW1 2488   1.192   2.643   2.554
  821SOL    HW2 2489   1.075   2.591   2.655
  822SOL     OW 2490   1.755   2.469   2.093
  822SOL    HW1 2491   1.743   2.456   1.994
  822SOL    HW2 2492   1.725   2.388   2.142
  823SOL     OW 2493   0.768   3.006   2.885
  823SOL    HW1 2494   0.690   3.023   2.945
  823SOL    HW2 2495   0.802   3.093   2.849
  824SOL     OW 2496   0.850   2.660   3.685
  824SOL    HW1 2497   0.846   2.736   3.750
  824SOL    HW2 2498   0.872   2.696   3.594
  825SOL     OW 2499   0.685   2.874   2.527
  825SOL    HW1 2500   0.754   2.858   2.597
  825SOL    HW2 2501   0.612   2.931   2.565
  826SOL     OW 2502   0.686   3.023   3.665
  826SOL    HW1 2503   0.746   3.102   3.679
  826SOL    HW2 2504   0.600   3.054   3.624
  827SOL     OW 2505   0.335   3.297   2.923
  827SOL    HW1 2506   0.257   3.266   2.870
  827SOL    HW2 2507   0.393   3.355   2.866
  828SOL     OW 2508   1.460   3.367   3.201
  828SOL    HW1 2509   1.484   3.461   3.227
  828SOL    HW2 2510   1.444   3.313   3.283
  829SOL     OW 2511   0.438   2.254   3.361
  829SOL    HW1 2512   0.520   2.198   3.370
  829SOL    HW2 2513   0.357   2.196   3.365
  830SOL     OW 2514   1.603   2.309   2.599
  830SOL    HW1 2515   1.529   2.355   2.549
  830SOL    HW2 2516   1.654   2.377   2.652
  831SOL     OW 2517   0.231   3.575   2.345
  831SOL    HW1 2518   0.265   3.652   2.399
  831SOL    HW2 2519   0.275   3.575   2.255
  832SOL     OW 2520   1.127   3.203   3.552
  832SOL    HW1 2521   1.174   3.203   3.640
  832SOL    HW2 2522   1.079   3.116   3.541
  833SOL     OW 2523   0.230   3.296   2.400
  833SOL    HW1 2524   0.204   3.392   2.400
  833SOL    HW2 2525   0.159   3.242   2.445
  834SOL     OW 2526   0.240   2.953   2.748
  834SOL    HW1 2527   0.254   2.869   2.800
  834SOL    HW2 2528   0.185   3.017   2.803
  835SOL     OW 2529   0.620   3.648   3.301
  835SOL    HW1 2530   0.528   3.631   3.336
  835SOL    HW2 2531   0.648   3.740   3.327
  836SOL     OW 2532   0.606   2.826   1.985
  836SOL    HW1 2533   0.613   2.910   1.931
  836SOL    HW2 2534   0.652   2.839   2.073
  837SOL     OW 2535   1.594   1.976   3.342
  837SOL    HW1 2536   1.576   2.043   3.270
  837SOL    HW2 2537   1.591   2.022   3.431
  838SOL     OW 2538   0.122   2.505   2.425
  838SOL    HW1 2539   0.077   2.417   2.442
  838SOL    HW2 2540   0.121   2.559   2.509
  839SOL     OW 2541   1.842   3.629   2.221
  839SOL    HW1 2542   1.896   3.600   2.301
  839SOL    HW2 2543   1.872   3.719   2.192
  840SOL     OW 2544   0.027   3.458   1.979
  840SOL    HW1 2545   0.008   3.362   2.000
  840SOL    HW2 2546  -0.006   3.516   2.054
  841SOL     OW 2547   1.689   2.784   2.474
  841SOL    HW1 2548   1.784   2.755   2.482
  841SOL    HW2 2549   1.681   2.849   2.399
  842SOL     OW 2550   1.641   2.970   2.294
  842SOL    HW1 2551   1.727   2.972   2.242
  842SOL    HW2 2552   1.655   3.017   2.382
  843SOL     OW 2553   0.113   2.599   3.459
  843SOL    HW1 2554   0.201   2.586   3.504
  843SOL    HW2 2555   0.100   2.696   3.437
  844SOL     OW 2556   0.613   3.227   2.588
  844SOL    HW1 2557   0.564   3.140   2.597
  844SOL    HW2 2558   0.590   3.270   2.501
  845SOL     OW 2559   1.293   3.090   3.285
  845SOL    HW1 2560   1.330   3.017   3.227
  845SOL    HW2 2561   1.345   3.095   3.370
  846SOL     OW 2562   0.809   1.866   2.364
  846SOL    HW1 2563   0.849   1.957   2.355
  846SOL    HW2 2564   0.709   1.874   2.370
  847SOL     OW 2565   0.197   2.838   3.126
  847SOL    HW1 2566   0.286   2.793   3.112
  847SOL    HW2 2567   0.124   2.773   3.107
  848SOL     OW 2568   1.525   2.861   2.052
  848SOL    HW1 2569   1.462   2.785   2.065
  848SOL    HW2 2570   1.573   2.879   2.138
  849SOL     OW 2571   1.187   3.654   3.478
  849SOL    HW1 2572   1.211   3.714   3.402
  849SOL    HW2 2573   1.194   3.559   3.448
  850SOL     OW 2574   0.317   2.113   3.663
  850SOL    HW1 2575   0.388   2.184   3.669
  850SOL    HW2 2576   0.229   2.152   3.691
  851SOL     OW 2577   1.466   3.279   2.815
  851SOL    HW1 2578   1.407   3.285   2.895
  851SOL    HW2 2579   1.451   3.191   2.769
  852SOL     OW 2580   1.667   3.576   2.434
  852SOL    HW1 2581   1.626   3.553   2.346
  852SOL    HW2 2582   1.649   3.502   2.499
  853SOL     OW 2583   0.598   2.591   2.132
  853SOL    HW1 2584   0.622   2.660   2.064
  853SOL    HW2 2585   0.520   2.624   2.186
  854SOL     OW 2586   1.281   2.207   2.806
  854SOL    HW1 2587   1.195   2.157   2.793
  854SOL    HW2 2588   1.343   2.153   2.862
  855SOL     OW 2589   1.576   3.524   2.169
  855SOL    HW1 2590   1.665   3.570   2.172
  855SOL    HW2 2591   1.555   3.500   2.074
  856SOL     OW 2592   0.807   2.467   3.327
  856SOL    HW1 2593   0.760   2.464   3.416
  856SOL    HW2 2594   0.756   2.412   3.261
  857SOL     OW 2595   1.394   2.331   3.536
  857SOL    HW1 2596   1.374   2.374   3.624
  857SOL    HW2 2597   1.472   2.269   3.545
  858SOL     OW 2598   0.973   2.752   3.434
  858SOL    HW1 2599   1.019   2.668   3.405
  858SOL    HW2 2600   0.917   2.786   3.359
  859SOL     OW 2601   0.991   2.272   3.104
  859SOL    HW1 2602   0.914   2.306   3.158
  859SOL    HW2 2603   0.957   2.221   3.025
  860SOL     OW 2604   1.041   2.563   2.291
  860SOL    HW1 2605   1.067   2.559   2.387
  860SOL    HW2 2606   0.956   2.512   2.277
  861SOL     OW 2607   0.076   2.673   2.651
  861SOL    HW1 2608   0.175   2.661   2.660
  861SOL    HW2 2609   0.052   2.768   2.672
  862SOL     OW 2610   0.130   3.683   3.433
  862SOL    HW1 2611   0.120   3.668   3.532
  862SOL    HW2 2612   0.044   3.719   3.397
  863SOL     OW 2613   0.865   2.210   2.057
  863SOL    HW1 2614   0.924   2.273   2.008
  863SOL    HW2 2615   0.884   2.116   2.028
  864SOL     OW 2616   1.719   2.447   3.693
  864SOL    HW1 2617   1.693   2.536   3.657
  864SOL    HW2 2618   1.717   2.379   3.620
  865SOL     OW 2619   1.362   3.006   2.407
  865SOL    HW1 2620   1.445   2.977   2.359
  865SOL    HW2 2621   1.313   3.073   2.351
  866SOL     OW 2622   0.550   2.058   2.747
  866SOL    HW1 2623   0.545   2.053   2.847
  866SOL    HW2 2624   0.552   2.154   2.718
  867SOL     OW 2625   1.008   3.318   2.339
  867SOL    HW1 2626   0.962   3.390   2.287
  867SOL    HW2 2627   1.004   3.338   2.437
  868SOL     OW 2628   0.351   3.663   2.715
  868SOL    HW1 2629   0.401   3.577   2.721
  868SOL    HW2 2630   0.416   3.740   2.712
  869SOL     OW 2631   1.795   2.928   2.735
  869SOL    HW1 2632   1.733   2.913   2.659
  869SOL    HW2 2633   1.743   2.939   2.820
  870SOL     OW 2634   1.227   3.412   3.368
  870SOL    HW1 2635   1.233   3.335   3.432
  870SOL    HW2 2636   1.175   3.386   3.288
  871SOL     OW 2637   0.321   2.805   2.104
  871SOL    HW1 2638   0.403   2.844   2.062
  871SOL    HW2 2639   0.294   2.723   2.055
  872SOL     OW 2640   1.458   2.597   2.590
  872SOL    HW1 2641   1.453   2.532   2.665
  872SOL    HW2 2642   1.538   2.656   2.603
  873SOL     OW 2643   0.461   3.128   3.589
  873SOL    HW1 2644   0.411   3.129   3.503
  873SOL    HW2 2645   0.398   3.110   3.665
  874SOL     OW 2646   1.111   3.638   2.099
  874SOL    HW1 2647   1.051   3.576   2.149
  874SOL    HW2 2648   1.142   3.594   2.014
  875SOL     OW 2649   0.202   2.147   3.360
  875SOL    HW1 2650   0.122   2.207   3.347
  875SOL    HW2 2651   0.192   2.098   3.446
  876SOL     OW 2652   1.632   3.239   1.943
  876SOL    HW1 2653   1.600   3.333   1.933
  876SOL    HW2 2654   1.556   3.176   1.931
  877SOL     OW 2655   0.464   3.605   2.185
  877SOL    HW1 2656   0.497   3.644   2.271
  877SOL    HW2 2657   0.540   3.598   2.120
  878SOL     OW 2658   1.400   1.969   2.288
  878SOL    HW1 2659   1.376   1.932   2.198
  878SOL    HW2 2660   1.499   1.985   2.292
  879SOL     OW 2661   0.249   3.647   3.103
  879SOL    HW1 2662   0.306   3.582   3.153
  879SOL    HW2 2663   0.233   3.614   3.010
  880SOL     OW 2664   0.940   3.560   2.766
  880SOL    HW1 2665   1.020   3.503   2.787
  880SOL    HW2 2666   0.891   3.520   2.689
  881SOL     OW 2667   0.382   2.562   2.342
  881SOL    HW1 2668   0.427   2.472   2.339
  881SOL    HW2 2669   0.288   2.551   2.375
  882SOL     OW 2670   1.547   2.084   3.591
  882SOL    HW1 2671   1.542   2.121   3.683
  882SOL    HW2 2672   1.475   2.015   3.579
  883SOL     OW 2673   0.614   1.984   1.979
  883SOL    HW1 2674   0.712   1.962   1.986
  883SOL    HW2 2675   0.583   1.967   1.886
  884SOL     OW 2676   0.781   2.126   3.611
  884SOL    HW1 2677   0.848   2.065   3.654
  884SOL    HW2 2678   0.708   2.145   3.676
  885SOL     OW 2679   0.888   3.376   3.057
  885SOL    HW1 2680   0.865   3.351   2.963
  885SOL    HW2 2681   0.949   3.307   3.096
  886SOL     OW 2682   1.351   2.452   3.295
  886SOL    HW1 2683   1.379   2.409   3.380
  886SOL    HW2 2684   1.376   2.548   3.296
  887SOL     OW 2685   0.803   3.264   2.786
  887SOL    HW1 2686   0.893   3.278   2.744
  887SOL    HW2 2687   0.732   3.266   2.715
  888SOL     OW 2688   0.922   2.365   2.761
  888SOL    HW1 2689   0.897   2.356   2.665
  888SOL    HW2 2690   0.970   2.283   2.792
  889SOL     OW 2691   0.539   1.926   2.374
  889SOL    HW1 2692   0.458   1.927   2.432
  889SOL    HW2 2693   0.542   2.009   2.319
  890SOL     OW 2694   1.434   3.050   1.903
  890SOL    HW1 2695   1.466   2.974   1.960
  890SOL    HW2 2696   1.342   3.077   1.933
  891SOL     OW 2697   0.297   1.897   2.033
  891SOL    HW1 2698   0.346   1.981   2.012
  891SOL    HW2 2699   0.359   1.832   2.078
  892SOL     OW 2700   0.935   2.098   2.342
  892SOL    HW1 2701   0.887   2.139   2.264
  892SOL    HW2 2702   1.034   2.096   2.323
  893SOL     OW 2703   1.076   2.545   3.326
  893SOL    HW1 2704   0.996   2.484   3.329
  893SOL    HW2 2705   1.157   2.492   3.302
  894SOL     OW 2706   1.227   3.432   2.655
  894SOL    HW1 2707   1.248   3.506   2.590
  894SOL    HW2 2708   1.295   3.432   2.728
  895SOL     OW 2709   0.459   3.014   2.603
  895SOL    HW1 2710   0.388   2.987   2.668
  895SOL    HW2 2711   0.433   2.986   2.510
  896SOL     OW 2712   1.271   3.659   2.453
  896SOL    HW1 2713   1.315   3.723   2.389
  896SOL    HW2 2714   1.221   3.711   2.523
  897SOL     OW 2715   1.032   2.411   1.878
  897SOL    HW1 2716   0.991   2.493   1.839
  897SOL    HW2 2717   1.096   2.437   1.951
  898SOL     OW 2718   0.078   2.418   3.248
  898SOL    HW1 2719   0.170   2.417   3.207
  898SOL    HW2 2720   0.072   2.492   3.315
  899SOL     OW 2721   0.561   2.084   3.009
  899SOL    HW1 2722   0.599   2.000   3.046
  899SOL    HW2 2723   0.473   2.103   3.053
  900SOL     OW 2724   0.866   2.316   2.504
  900SOL    HW1 2725   0.834   2.388   2.442
  900SOL    HW2 2726   0.890   2.235   2.451
  901SOL     OW 2727   1.017   1.901   2.615
  901SOL    HW1 2728   0.945   1.906   2.546
  901SOL    HW2 2729   0.993   1.832   2.684
  902SOL     OW 2730   1.429   3.035   2.729
  902SOL    HW1 2731   1.374   2.951   2.722
  902SOL    HW2 2732   1.455   3.064   2.637
  903SOL     OW 2733   1.466   2.452   2.854
  903SOL    HW1 2734   1.436   2.357   2.861
  903SOL    HW2 2735   1.539   2.468   2.920
  904SOL     OW 2736   1.857   2.695   2.239
  904SOL    HW1 2737   1.899   2.631   2.303
  904SOL    HW2 2738   1.819   2.644   2.161
  905SOL     OW 2739   0.488   3.247   2.036
  905SOL    HW1 2740   0.401   3.232   2.083
  905SOL    HW2 2741   0.471   3.273   1.941
  906SOL     OW 2742   1.664   3.142   2.519
  906SOL    HW1 2743   1.763   3.150   2.533
  906SOL    HW2 2744   1.619   3.226   2.550
  907SOL     OW 2745   1.390   2.437   1.940
  907SOL    HW1 2746   1.336   2.416   2.021
  907SOL    HW2 2747   1.481   2.396   1.949
  908SOL     OW 2748   0.527   2.118   2.190
  908SOL    HW1 2749   0.554   2.059   2.115
  908SOL    HW2 2750   0.527   2.213   2.159
  909SOL     OW 2751   1.754   3.085   3.450
  909SOL    HW1 2752   1.845   3.046   3.437
  909SOL    HW2 2753   1.762   3.181   3.474
  910SOL     OW 2754   1.064   3.209   3.202
  910SOL    HW1 2755   0.984   3.186   3.257
  910SOL    HW2 2756   1.147   3.183   3.251
  911SOL     OW 2757   1.592   3.491   3.487
  911SOL    HW1 2758   1.619   3.525   3.397
  911SOL    HW2 2759   1.671   3.453   3.533
  912SOL     OW 2760   1.111   3.057   2.962
  912SOL    HW1 2761   1.071   3.101   3.043
  912SOL    HW2 2762   1.070   3.094   2.879
  913SOL     OW 2763   1.638   2.961   2.941
  913SOL    HW1 2764   1.643   3.042   3.000
  913SOL    HW2 2765   1.552   2.963   2.890
  914SOL     OW 2766   0.915   1.951   3.264
  914SOL    HW1 2767   0.940   1.931   3.169
  914SOL    HW2 2768   0.987   2.007   3.306
  915SOL     OW 2769   0.980   2.978   3.581
  915SOL    HW1 2770   0.881   2.984   3.591
  915SOL    HW2 2771   1.003   2.898   3.525
  916SOL     OW 2772   0.705   2.912   2.230
  916SOL    HW1 2773   0.691   2.919   2.329
  916SOL    HW2 2774   0.789   2.861   2.212
  917SOL     OW 2775   0.410   2.675   3.113
  917SOL    HW1 2776   0.496   2.687   3.163
  917SOL    HW2 2777   0.368   2.588   3.140
  918SOL     OW 2778   1.274   2.248   3.124
  918SOL    HW1 2779   1.295   2.322   3.188
  918SOL    HW2 2780   1.185   2.265   3.081
  919SOL     OW 2781   0.064   3.426   3.193
  919SOL    HW1 2782   0.018   3.508   3.159
  919SOL    HW2 2783   0.162   3.445   3.202
  920SOL     OW 2784   0.367   2.962   2.363
  920SOL    HW1 2785   0.360   3.045   2.307
  920SOL    HW2 2786   0.371   2.882   2.303
  921SOL     OW 2787   0.566   2.399   2.727
  921SOL    HW1 2788   0.578   2.465   2.653
  921SOL    HW2 2789   0.612   2.433   2.810
  922SOL     OW 2790   1.252   3.210   2.250
  922SOL    HW1 2791   1.302   3.287   2.290
  922SOL    HW2 2792   1.157   3.212   2.282
  923SOL     OW 2793   1.272   3.307   3.004
  923SOL    HW1 2794   1.319   3.320   3.091
  923SOL    HW2 2795   1.206   3.233   3.013
  924SOL     OW 2796   1.582   2.501   2.334
  924SOL    HW1 2797   1.551   2.562   2.407
  924SOL    HW2 2798   1.632   2.553   2.265
  925SOL     OW 2799   0.354   3.372   3.191
  925SOL    HW1 2800   0.333   3.328   3.104
  925SOL    HW2 2801   0.451   3.398   3.194
  926SOL     OW 2802   0.402   2.613   3.460
  926SOL    HW1 2803   0.470   2.668   3.413
  926SOL    HW2 2804   0.442   2.525   3.487
  927SOL     OW 2805   1.587   2.641   3.532
  927SOL    HW1 2806   1.495   2.679   3.527
  927SOL    HW2 2807   1.647   2.688   3.467
  928SOL     OW 2808   1.013   1.967   3.632
  928SOL    HW1 2809   1.019   2.052   3.580
  928SOL    HW2 2810   1.045   1.891   3.575
  929SOL     OW 2811   0.504   1.912   3.602
  929SOL    HW1 2812   0.462   1.855   3.532
  929SOL    HW2 2813   0.438   1.981   3.634
  930SOL     OW 2814   0.573   2.732   2.891
  930SOL    HW1 2815   0.617   2.821   2.882
  930SOL    HW2 2816   0.510   2.732   2.968
  931SOL     OW 2817   1.360   2.724   2.907
  931SOL    HW1 2818   1.285   2.724   2.841
  931SOL    HW2 2819   1.397   2.632   2.916
  932SOL     OW 2820   1.209   2.387   2.137
  932SOL    HW1 2821   1.222   2.303   2.191
  932SOL    HW2 2822   1.180   2.461   2.197
  933SOL     OW 2823   0.307   2.075   3.093
  933SOL    HW1 2824   0.284   2.112   3.183
  933SOL    HW2 2825   0.277   1.980   3.087
  934SOL     OW 2826   0.037   3.172   3.144
  934SOL    HW1 2827   0.090   3.123   3.212
  934SOL    HW2 2828   0.059   3.270   3.149
  935SOL     OW 2829   0.732   2.496   2.926
  935SOL    HW1 2830   0.791   2.470   2.850
  935SOL    HW2 2831   0.704   2.592   2.915
  936SOL     OW 2832   1.728   2.797   3.716
  936SOL    HW1 2833   1.682   2.790   3.627
  936SOL    HW2 2834   1.666   2.841   3.782
  937SOL     OW 2835   0.307   1.925   2.480
  937SOL    HW1 2836   0.296   2.019   2.513
  937SOL    HW2 2837   0.302   1.862   2.557
  938SOL     OW 2838   1.622   2.229   2.236
  938SOL    HW1 2839   1.624   2.153   2.300
  938SOL    HW2 2840   1.574   2.306   2.276
  939SOL     OW 2841   1.023   2.628   2.828
  939SOL    HW1 2842   1.038   2.649   2.924
  939SOL    HW2 2843   0.993   2.533   2.819
  940SOL     OW 2844   0.980   3.435   3.562
  940SOL    HW1 2845   0.960   3.479   3.474
  940SOL    HW2 2846   1.019   3.344   3.546
  941SOL     OW 2847   1.859   3.380   3.467
  941SOL    HW1 2848   1.873   3.407   3.372
  941SOL    HW2 2849   1.942   3.402   3.520
  942SOL     OW 2850   0.350   2.760   3.666
  942SOL    HW1 2851   0.426   2.804   3.714
  942SOL    HW2 2852   0.385   2.713   3.584
  943SOL     OW 2853   1.540   2.136   1.987
  943SOL    HW1 2854   1.479   2.061   2.010
  943SOL    HW2 2855   1.562   2.188   2.070
  944SOL     OW 2856   1.303   2.700   1.904
  944SOL    HW1 2857   1.337   2.607   1.919
  944SOL    HW2 2858   1.321   2.727   1.809
  945SOL     OW 2859   1.068   3.195   2.711
  945SOL    HW1 2860   1.075   3.111   2.656
  945SOL    HW2 2861   1.130   3.264   2.675
  946SOL     OW 2862   0.319   2.672   2.811
  946SOL    HW1 2863   0.412   2.708   2.816
  946SOL    HW2 2864   0.313   2.587   2.863
  947SOL     OW 2865   0.339   2.371   2.868
  947SOL    HW1 2866   0.287   2.288   2.851
  947SOL    HW2 2867   0.416   2.376   2.804
  948SOL     OW 2868   1.138   2.242   3.540
  948SOL    HW1 2869   1.093   2.305   3.604
  948SOL    HW2 2870   1.231   2.273   3.523
  949SOL     OW 2871   1.160   2.069   3.339
  949SOL    HW1 2872   1.160   2.133   3.416
  949SOL    HW2 2873   1.188   2.117   3.256
  950SOL     OW 2874   0.008   3.188   2.062
  950SOL    HW1 2875  -0.085   3.209   2.031
  950SOL    HW2 2876   0.018   3.089   2.075
  951SOL     OW 2877   0.088   3.663   2.789
  951SOL    HW1 2878   0.046   3.577   2.762
  951SOL    HW2 2879   0.182   3.666   2.755
  952SOL     OW 2880   0.504   3.430   2.772
  952SOL    HW1 2881   0.570   3.504   2.781
  952SOL    HW2 2882   0.548   3.351   2.730
  953SOL     OW 2883   1.002   2.658   3.100
  953SOL    HW1 2884   1.043   2.626   3.186
  953SOL    HW2 2885   0.906   2.631   3.097
  954SOL     OW 2886   0.040   2.406   2.976
  954SOL    HW1 2887   0.125   2.373   2.935
  954SOL    HW2 2888   0.053   2.421   3.074
  955SOL     OW 2889   0.189   2.382   3.584
  955SOL    HW1 2890   0.248   2.342   3.514
  955SOL    HW2 2891   0.131   2.453   3.543
  956SOL     OW 2892   1.369   2.812   3.522
  956SOL    HW1 2893   1.408   2.901   3.542
  956SOL    HW2 2894   1.379   2.792   3.425
  957SOL     OW 2895   0.815   2.434   2.187
  957SOL    HW1 2896   0.822   2.345   2.141
  957SOL    HW2 2897   0.721   2.468   2.179
  958SOL     OW 2898   1.657   2.466   3.068
  958SOL    HW1 2899   1.619   2.397   3.130
  958SOL    HW2 2900   1.739   2.430   3.024
  959SOL     OW 2901   0.252   3.426   3.606
  959SOL    HW1 2902   0.222   3.483   3.682
  959SOL    HW2 2903   0.245   3.329   3.632
  960SOL     OW 2904   0.671   2.326   3.131
  960SOL    HW1 2905   0.637   2.237   3.101
  960SOL    HW2 2906   0.697   2.380   3.051
  961SOL     OW 2907   0.930   3.540   3.327
  961SOL    HW1 2908   0.906   3.522   3.232
  961SOL    HW2 2909   0.960   3.634   3.337
  962SOL     OW 2910   0.473   2.362   2.053
  962SOL    HW1 2911   0.534   2.442   2.057
  962SOL    HW2 2912   0.378   2.393   2.060
  963SOL     OW 2913   0.159   2.999   3.328
  963SOL    HW1 2914   0.181   2.938   3.404
  963SOL    HW2 2915   0.169   2.950   3.242
  964SOL     OW 2916   1.347   2.921   3.096
  964SOL    HW1 2917   1.371   2.858   3.022
  964SOL    HW2 2918   1.257   2.961   3.078
  965SOL     OW 2919   1.302   2.717   2.171
  965SOL    HW1 2920   1.216   2.686   2.213
  965SOL    HW2 2921   1.298   2.703   2.072
  966SOL     OW 2922   1.759   3.609   3.016
  966SOL    HW1 2923   1.820   3.639   2.943
  966SOL    HW2 2924   1.721   3.520   2.994
  967SOL     OW 2925   1.252   3.593   2.990
  967SOL    HW1 2926   1.336   3.598   2.936
  967SOL    HW2 2927   1.229   3.497   3.008
  968SOL     OW 2928   0.083   3.120   2.884
  968SOL    HW1 2929   0.078   3.119   2.984
  968SOL    HW2 2930   0.000   3.079   2.846
  969SOL     OW 2931   0.688   3.524   3.578
  969SOL    HW1 2932   0.632   3.605   3.587
  969SOL    HW2 2933   0.740   3.528   3.492
  970SOL     OW 2934   1.726   1.997   2.385
  970SOL    HW1 2935   1.799   1.980   2.318
  970SOL    HW2 2936   1.695   1.910   2.423
  971SOL     OW 2937   1.388   3.435   2.339
  971SOL    HW1 2938   1.455   3.447   2.265
  971SOL    HW2 2939   1.348   3.524   2.362
  972SOL     OW 2940   0.130   3.656   3.713
  972SOL    HW1 2941   0.089   3.582   3.766
  972SOL    HW2 2942   0.194   3.707   3.771
  973SOL     OW 2943   1.280   2.789   2.534
  973SOL    HW1 2944   1.340   2.708   2.536
  973SOL    HW2 2945   1.320   2.858   2.474
  974SOL     OW 2946   0.830   3.135   3.284
  974SOL    HW1 2947   0.825   3.168   3.379
  974SOL    HW2 2948   0.744   3.154   3.238
  975SOL     OW 2949   0.672   3.478   2.016
  975SOL    HW1 2950   0.681   3.488   1.917
  975SOL    HW2 2951   0.632   3.389   2.037
  976SOL     OW 2952   1.650   3.582   3.256
  976SOL    HW1 2953   1.703   3.592   3.172
  976SOL    HW2 2954   1.623   3.672   3.290
  977SOL     OW 2955   1.841   2.037   2.825
  977SOL    HW1 2956   1.880   1.952   2.789
  977SOL    HW2 2957   1.743   2.039   2.806
  978SOL     OW 2958   0.263   2.188   2.582
  978SOL    HW1 2959   0.184   2.239   2.548
  978SOL    HW2 2960   0.254   2.173   2.680
  979SOL     OW 2961   1.194   3.474   1.893
  979SOL    HW1 2962   1.200   3.381   1.930
  979SOL    HW2 2963   1.135   3.474   1.813
  980SOL     OW 2964   0.822   2.864   3.234
  980SOL    HW1 2965   0.862   2.863   3.142
  980SOL    HW2 2966   0.832   2.956   3.274
  981SOL     OW 2967   0.916   2.772   2.153
  981SOL    HW1 2968   0.979   2.810   2.085
  981SOL    HW2 2969   0.956   2.689   2.192
  982SOL     OW 2970   1.504   3.469   1.906
  982SOL    HW1 2971   1.412   3.506   1.913
  982SOL    HW2 2972   1.542   3.489   1.816
  983SOL     OW 2973   0.372   3.150   3.352
  983SOL    HW1 2974   0.359   3.243   3.318
  983SOL    HW2 2975   0.288   3.098   3.339
  984SOL     OW 2976   1.614   3.154   3.151
  984SOL    HW1 2977   1.674   3.157   3.231
  984SOL    HW2 2978   1.539   3.218   3.164
  985SOL     OW 2979   1.039   2.960   2.558
  985SOL    HW1 2980   0.969   2.913   2.612
  985SOL    HW2 2981   1.098   2.892   2.515
  986SOL     OW 2982   1.014   2.098   2.833
  986SOL    HW1 2983   1.006   2.062   2.740
  986SOL    HW2 2984   1.012   2.022   2.898
  987SOL     OW 2985   0.590   3.349   2.353
  987SOL    HW1 2986   0.632   3.291   2.283
  987SOL    HW2 2987   0.546   3.428   2.309
  988SOL     OW 2988   1.709   2.247   3.243
  988SOL    HW1 2989   1.782   2.316   3.247
  988SOL    HW2 2990   1.737   2.172   3.184
  989SOL     OW 2991   0.255   3.210   2.152
  989SOL    HW1 2992   0.159   3.211   2.125
  989SOL    HW2 2993   0.267   3.263   2.236
  990SOL     OW 2994   0.105   2.875   3.588
  990SOL    HW1 2995   0.028   2.842   3.642
  990SOL    HW2 2996   0.190   2.845   3.630
  991SOL     OW 2997   0.672   2.065   3.351
  991SOL    HW1 2998   0.762   2.049   3.311
  991SOL    HW2 2999   0.680   2.070   3.450
  992SOL     OW 3000   0.075   2.207   1.895
  992SOL    HW1 3001  -0.017   2.179   1.866
  992SOL    HW2 3002   0.106   2.284   1.839
  993SOL     OW 3003   1.440   2.718   3.260
  993SOL    HW1 3004   1.383   2.770   3.197
  993SOL    HW2 3005   1.536   2.730   3.236
  994SOL     OW 3006   0.072   2.028   2.180
  994SOL    HW1 3007   0.055   2.111   2.126
  994SOL    HW2 3008   0.162   1.991   2.158
  995SOL     OW 3009   1.183   3.197   1.981
  995SOL    HW1 3010   1.084   3.186   1.983
  995SOL    HW2 3011   1.217   3.212   2.074
  996SOL     OW 3012   0.613   2.704   3.293
  996SOL    HW1 3013   0.669   2.785   3.276
  996SOL    HW2 3014   0.672   2.624   3.296
  997SOL     OW 3015   1.493   3.629   2.821
  997SOL    HW1 3016   1.526   3.693   2.752
  997SOL    HW2 3017   1.559   3.623   2.896
  998SOL     OW 3018   0.716   2.427   3.570
  998SOL    HW1 3019   0.735   2.492   3.644
  998SOL    HW2 3020   0.776   2.347   3.579
  999SOL     OW 3021   1.450   3.082   3.495
  999SOL    HW1 3022   1.441   3.072   3.594
  999SOL    HW2 3023   1.546   3.075   3.469
 1000SOL     OW 3024   0.390   3.603   3.422
 1000SOL    HW1 3025   0.299   3.644   3.420
 1000SOL    HW2 3026   0.383   3.509   3.454
 1001SOL     OW 3027   1.674   2.745   3.116
 1001SOL    HW1 3028   1.647   2.656   3.079
 1001SOL    HW2 3029   1.675   2.813   3.043
 1002SOL     OW 3030   1.225   2.187   2.311
 1002SOL    HW1 3031   1.290   2.113   2.300
 1002SOL    HW2 3032   1.245   2.237   2.395
 1003SOL     OW 3033   0.594   2.607   2.514
 1003SOL    HW1 3034   0.644   2.692   2.495
 1003SOL    HW2 3035   0.506   2.609   2.466
 1004SOL     OW 3036   1.777   2.204   3.504
 1004SOL    HW1 3037   1.760   2.235   3.410
 1004SOL    HW2 3038   1.693   2.167   3.542
 1005SOL     OW 3039   1.730   2.796   3.379
 1005SOL    HW1 3040   1.768   2.887   3.394
 1005SOL    HW2 3041   1.722   2.779   3.280
 1006SOL     OW 3042   0.859   3.236   1.878
 1006SOL    HW1 3043   0.813   3.251   1.966
 1006SOL    HW2 3044   0.903   3.321   1.848
 1007SOL     OW 3045   0.661   3.652   2.815
 1007SOL    HW1 3046   0.615   3.740   2.802
 1007SOL    HW2 3047   0.760   3.664   2.808
 1008SOL     OW 3048   0.859   2.818   2.723
 1008SOL    HW1 3049   0.913   2.749   2.771
 1008SOL    HW2 3050   0.827   2.887   2.789
 1009SOL     OW 3051   1.083   2.846   1.949
 1009SOL    HW1 3052   1.060   2.899   1.867
 1009SOL    HW2 3053   1.164   2.790   1.930
 1010SOL     OW 3054   1.861   3.431   2.713
 1010SOL    HW1 3055   1.790   3.419   2.643
 1010SOL    HW2 3056   1.862   3.352   2.773
 1011SOL     OW 3057   0.221   3.176   3.706
 1011SOL    HW1 3058   0.156   3.103   3.685
 1011SOL    HW2 3059   0.225   3.190   3.804
 1012SOL     OW 3060   0.079   3.102   2.515
 1012SOL    HW1 3061   0.078   3.055   2.603
 1012SOL    HW2 3062   0.161   3.074   2.464
 1013SOL     OW 3063   0.672   3.253   3.486
 1013SOL    HW1 3064   0.594   3.203   3.524
 1013SOL    HW2 3065   0.669   3.348   3.517
 1014SOL     OW 3066   1.824   2.054   3.089
 1014SOL    HW1 3067   1.820   1.964   3.133
 1014SOL    HW2 3068   1.827   2.043   2.990
 1015SOL     OW 3069   0.428   2.286   2.382
 1015SOL    HW1 3070   0.458   2.214   2.320
 1015SOL    HW2 3071   0.389   2.246   2.465
 1016SOL     OW 3072   1.705   3.349   2.966
 1016SOL    HW1 3073   1.612   3.324   2.939
 1016SOL    HW2 3074   1.731   3.299   3.048
 1017SOL     OW 3075   0.317   2.409   3.142
 1017SOL    HW1 3076   0.355   2.350   3.214
 1017SOL    HW2 3077   0.357   2.383   3.054
 1018SOL     OW 3078   0.812   3.448   2.549
 1018SOL    HW1 3079   0.844   3.458   2.455
 1018SOL    HW2 3080   0.733   3.386   2.551
 1019SOL     OW 3081   1.424   2.076   2.974
 1019SOL    HW1 3082   1.476   2.011   3.029
 1019SOL    HW2 3083   1.375   2.139   3.035
 1020SOL     OW 3084   1.001   1.896   3.016
 1020SOL    HW1 3085   0.938   1.824   2.985
 1020SOL    HW2 3086   1.094   1.860   3.016
 1021SOL     OW 3087   0.770   3.192   2.163
 1021SOL    HW1 3088   0.724   3.105   2.180
 1021SOL    HW2 3089   0.861   3.189   2.204
 1022SOL     OW 3090   0.618   3.429   3.146
 1022SOL    HW1 3091   0.613   3.511   3.203
 1022SOL    HW2 3092   0.707   3.426   3.101
 1023SOL     OW 3093   1.352   1.914   2.030
 1023SOL    HW1 3094   1.387   1.873   1.946
 1023SOL    HW2 3095   1.262   1.876   2.050
 1024SOL     OW 3096   1.300   2.315   2.553
 1024SOL    HW1 3097   1.241   2.395   2.557
 1024SOL    HW2 3098   1.315   2.280   2.646
 1025SOL     OW 3099   1.593   2.083   2.744
 1025SOL    HW1 3100   1.509   2.082   2.798
 1025SOL    HW2 3101   1.595   2.166   2.688
 1026SOL     OW 3102   0.039   2.939   2.162
 1026SOL    HW1 3103   0.138   2.928   2.153
 1026SOL    HW2 3104  -0.001   2.853   2.194
 1027SOL     OW 3105   0.875   3.508   2.199
 1027SOL    HW1 3106   0.798   3.473   2.145
 1027SOL    HW2 3107   0.843   3.579   2.261
 1028SOL     OW 3108   0.230   2.490   3.837
 1028SOL    HW1 3109   0.137   2.488   3.874
 1028SOL    HW2 3110   0.231   2.451   3.745
 1029SOL     OW 3111   0.225   2.137   4.720
 1029SOL    HW1 3112   0.260   2.120   4.812
 1029SOL    HW2 3113   0.137   2.092   4.708
 1030SOL     OW 3114   0.019   2.230   4.371
 1030SOL    HW1 3115  -0.063   2.273   4.410
 1030SOL    HW2 3116  -0.009   2.157   4.308
 1031SOL     OW 3117   0.569   3.137   4.889
 1031SOL    HW1 3118   0.476   3.130   4.852
 1031SOL    HW2 3119   0.580   3.226   4.933
 1032SOL     OW 3120   1.555   3.373   4.427
 1032SOL    HW1 3121   1.498   3.357   4.508
 1032SOL    HW2 3122   1.496   3.383   4.347
 1033SOL     OW 3123   1.135   2.565   4.441
 1033SOL    HW1 3124   1.192   2.643   4.416
 1033SOL    HW2 3125   1.075   2.591   4.517
 1034SOL     OW 3126   1.755   2.469   3.955
 1034SOL    HW1 3127   1.743   2.456   3.856
 1034SOL    HW2 3128   1.725   2.388   4.004
 1035SOL     OW 3129   0.768   3.006   4.747
 1035SOL    HW1 3130   0.690   3.023   4.807
 1035SOL    HW2 3131   0.802   3.093   4.711
 1036SOL     OW 3132   0.685   2.874   4.389
 1036SOL    HW1 3133   0.754   2.858   4.459
 1036SOL    HW2 3134   0.612   2.931   4.427
 1037SOL     OW 3135   0.335   3.297   4.785
 1037SOL    HW1 3136   0.257   3.266   4.732
 1037SOL    HW2 3137   0.393   3.355   4.728
 1038SOL     OW 3138   1.460   3.367   5.063
 1038SOL    HW1 3139   1.484   3.461   5.089
 1038SOL    HW2 3140   1.444   3.313   5.145
 1039SOL     OW 3141   0.438   2.254   5.223
 1039SOL    HW1 3142   0.520   2.198   5.232
 1039SOL    HW2 3143   0.357   2.196   5.227
 1040SOL     OW 3144   1.603   2.309   4.461
 1040SOL    HW1 3145   1.529   2.355   4.411
 1040SOL    HW2 3146   1.654   2.377   4.514
 1041SOL     OW 3147   0.231   3.575   4.207
 1041SOL    HW1 3148   0.265   3.652   4.261
 1041SOL    HW2 3149   0.275   3.575   4.117
 1042SOL     OW 3150   0.230   3.296   4.262
 1042SOL    HW1 3151   0.204   3.392   4.262
 1042SOL    HW2 3152   0.159   3.242   4.307
 1043SOL     OW 3153   0.240   2.953   4.610
 1043SOL    HW1 3154   0.254   2.869   4.662
 1043SOL    HW2 3155   0.185   3.017   4.665
 1044SOL     OW 3156   0.620   3.648   5.163
 1044SOL    HW1 3157   0.528   3.631   5.198
 1044SOL    HW2 3158   0.648   3.740   5.189
 1045SOL     OW 3159   0.606   2.826   3.847
 1045SOL    HW1 3160   0.613   2.910   3.793
 1045SOL    HW2 3161   0.652   2.839   3.935
 1046SOL     OW 3162   1.594   1.976   5.204
 1046SOL    HW1 3163   1.576   2.043   5.132
 1046SOL    HW2 3164   1.591   2.022   5.293
 1047SOL     OW 3165   0.122   2.505   4.287
 1047SOL    HW1 3166   0.077   2.417   4.304
 1047SOL    HW2 3167   0.121   2.559   4.371
 1048SOL     OW 3168   1.842   3.629   4.083
 1048SOL    HW1 3169   1.896   3.600   4.163
 1048SOL    HW2 3170   1.872   3.719   4.054
 1049SOL     OW 3171   0.027   3.458   3.841
 1049SOL    HW1 3172   0.008   3.362   3.862
 1049SOL    HW2 3173  -0.006   3.516   3.916
 1050SOL     OW 3174   1.689   2.784   4.336
 1050SOL    HW1 3175   1.784   2.755   4.344
 1050SOL    HW2 3176   1.681   2.849   4.261
 1051SOL     OW 3177   1.641   2.970   4.156
 1051SOL    HW1 3178   1.727   2.972   4.104
 1051SOL    HW2 3179   1.655   3.017   4.244
 1052SOL     OW 3180   0.613   3.227   4.450
 1052SOL    HW1 3181   0.564   3.140   4.459
 1052SOL    HW2 3182   0.590   3.270   4.363
 1053SOL     OW 3183   0.809   1.866   4.226
 1053SOL    HW1 3184   0.849   1.957   4.217
 1053SOL    HW2 3185   0.709   1.874   4.232
 1054SOL     OW 3186   0.197   2.838   4.988
 1054SOL    HW1 3187   0.286   2.793   4.974
 1054SOL    HW2 3188   0.124   2.773   4.969
 1055SOL     OW 3189   1.525   2.861   3.914
 1055SOL    HW1 3190   1.462   2.785   3.927
 1055SOL    HW2 3191   1.573   2.879   4.000
 1056SOL     OW 3192   0.317   2.113   5.525
 1056SOL    HW1 3193   0.388   2.184   5.531
 1056SOL    HW2 3194   0.229   2.152   5.553
 1057SOL     OW 3195   1.466   3.279   4.677
 1057SOL    HW1 3196   1.407   3.285   4.757
 1057SOL    HW2 3197   1.451   3.191   4.631
 1058SOL     OW 3198   1.667   3.576   4.296
 1058SOL    HW1 3199   1.626   3.553   4.208
 1058SOL    HW2 3200   1.649   3.502   4.361
 1059SOL     OW 3201   0.598   2.591   3.994
 1059SOL    HW1 3202   0.622   2.660   3.926
 1059SOL    HW2 3203   0.520   2.624   4.048
 1060SOL     OW 3204   1.281   2.207   4.668
 1060SOL    HW1 3205   1.195   2.157   4.655
 1060SOL    HW2 3206   1.343   2.153   4.724
 1061SOL     OW 3207   1.576   3.524   4.031
 1061SOL    HW1 3208   1.665   3.570   4.034
 1061SOL    HW2 3209   1.555   3.500   3.936
 1062SOL     OW 3210   0.807   2.467   5.189
 1062SOL    HW1 3211   0.760   2.464   5.278
 1062SOL    HW2 3212   0.756   2.412   5.123
 1063SOL     OW 3213   0.991   2.272   4.966
 1063SOL    HW1 3214   0.914   2.306   5.020
 1063SOL    HW2 3215   0.957   2.221   4.887
 1064SOL     OW 3216   1.041   2.563   4.153
 1064SOL    HW1 3217   1.067   2.559   4.249
 1064SOL    HW2 3218   0.956   2.512   4.139
 1065SOL     OW 3219   0.076   2.673   4.513
 1065SOL    HW1 3220   0.175   2.661   4.522
 1065SOL    HW2 3221   0.052   2.768   4.534
 1066SOL     OW 3222   0.130   3.683   5.295
 1066SOL    HW1 3223   0.120   3.668   5.394
 1066SOL    HW2 3224   0.044   3.719   5.259
 1067SOL     OW 3225   0.865   2.210   3.919
 1067SOL    HW1 3226   0.924   2.273   3.870
 1067SOL    HW2 3227   0.884   2.116   3.890
 1068SOL     OW 3228   1.362   3.006   4.269
 1068SOL    HW1 3229   1.445   2.977   4.221
 1068SOL    HW2 3230   1.313   3.073   4.213
 1069SOL     OW 3231   0.550   2.058   4.609
 1069SOL    HW1 3232   0.545   2.053   4.709
 1069SOL    HW2 3233   0.552   2.154   4.580
 1070SOL     OW 3234   1.008   3.318   4.201
 1070SOL    HW1 3235   0.962   3.390   4.149
 1070SOL    HW2 3236   1.004   3.338   4.299
 1071SOL     OW 3237   0.351   3.663   4.577
 1071SOL    HW1 3238   0.401   3.577   4.583
 1071SOL    HW2 3239   0.416   3.740   4.574
 1072SOL     OW 3240   1.795   2.928   4.597
 1072SOL    HW1 3241   1.733   2.913   4.521
 1072SOL    HW2 3242   1.743   2.939   4.682
 1073SOL     OW 3243   0.321   2.805   3.966
 1073SOL    HW1 3244   0.403   2.844   3.924
 1073SOL    HW2 3245   0.294   2.723   3.917
 1074SOL     OW 3246   1.458   2.597   4.452
 1074SOL    HW1 3247   1.453   2.532   4.527
 1074SOL    HW2 3248   1.538   2.656   4.465
 1075SOL     OW 3249   1.111   3.638   3.961
 1075SOL    HW1 3250   1.051   3.576   4.011
 1075SOL    HW2 3251   1.142   3.594   3.876
 1076SOL     OW 3252   1.632   3.239   3.805
 1076SOL    HW1 3253   1.600   3.333   3.795
 1076SOL    HW2 3254   1.556   3.176   3.793
 1077SOL     OW 3255   0.464   3.605   4.047
 1077SOL    HW1 3256   0.497   3.644   4.133
 1077SOL    HW2 3257   0.540   3.598   3.982
 1078SOL     OW 3258   1.400   1.969   4.150
 1078SOL    HW1 3259   1.376   1.932   4.060
 1078SOL    HW2 3260   1.499   1.985   4.154
 1079SOL     OW 3261   0.249   3.647   4.965
 1079SOL    HW1 3262   0.306   3.582   5.015
 1079SOL    HW2 3263   0.233   3.614   4.872
 1080SOL     OW 3264   0.940   3.560   4.628
 1080SOL    HW1 3265   1.020   3.503   4.649
 1080SOL    HW2 3266   0.891   3.520   4.551
 1081SOL     OW 3267   0.382   2.562   4.204
 1081SOL    HW1 3268   0.427   2.472   4.201
 1081SOL    HW2 3269   0.288   2.551   4.237
 1082SOL     OW 3270   0.614   1.984   3.841
 1082SOL    HW1 3271   0.712   1.962   3.848
 1082SOL    HW2 3272   0.583   1.967   3.748
 1083SOL     OW 3273   0.888   3.376   4.919
 1083SOL    HW1 3274   0.865   3.351   4.825
 1083SOL    HW2 3275   0.949   3.307   4.958
 1084SOL     OW 3276   0.803   3.264   4.648
 1084SOL    HW1 3277   0.893   3.278   4.606
 1084SOL    HW2 3278   0.732   3.266   4.577
 1085SOL     OW 3279   0.922   2.365   4.623
 1085SOL    HW1 3280   0.897   2.356   4.527
 1085SOL    HW2 3281   0.970   2.283   4.654
 1086SOL     OW 3282   0.539   1.926   4.236
 1086SOL    HW1 3283   0.458   1.927   4.294
 1086SOL    HW2 3284   0.542   2.009   4.181
 1087SOL     OW 3285   1.434   3.050   3.765
 1087SOL    HW1 3286   1.466   2.974   3.822
 1087SOL    HW2 3287   1.342   3.077   3.795
 1088SOL     OW 3288   0.297   1.897   3.895
 1088SOL    HW1 3289   0.346   1.981   3.874
 1088SOL    HW2 3290   0.359   1.832   3.940
 1089SOL     OW 3291   0.935   2.098   4.204
 1089SOL    HW1 3292   0.887   2.139   4.126
 1089SOL    HW2 3293   1.034   2.096   4.185
 1090SOL     OW 3294   1.227   3.432   4.517
 1090SOL    HW1 3295   1.248   3.506   4.452
 1090SOL    HW2 3296   1.295   3.432   4.590
 1091SOL     OW 3297   0.459   3.014   4.465
 1091SOL    HW1 3298   0.388   2.987   4.530
 1091SOL    HW2 3299   0.433   2.986   4.372
 1092SOL     OW 3300   1.271   3.659   4.315
 1092SOL    HW1 3301   1.315   3.723   4.251
 1092SOL    HW2 3302   1.221   3.711   4.385
 1093SOL     OW 3303   1.032   2.411   3.740
 1093SOL    HW1 3304   0.991   2.493   3.701
 1093SOL    HW2 3305   1.096   2.437   3.813
 1094SOL     OW 3306   0.078   2.418   5.110
 1094SOL    HW1 3307   0.170   2.417   5.069
 1094SOL    HW2 3308   0.072   2.492   5.177
 1095SOL     OW 3309   0.561   2.084   4.871
 1095SOL    HW1 3310   0.599   2.000   4.908
 1095SOL    HW2 3311   0.473   2.103   4.915
 1096SOL     OW 3312   0.866   2.316   4.366
 1096SOL    HW1 3313   0.834   2.388   4.304
 1096SOL    HW2 3314   0.890   2.235   4.313
 1097SOL     OW 3315   1.017   1.901   4.477
 1097SOL    HW1 3316   0.945   1.906   4.408
 1097SOL    HW2 3317   0.993   1.832   4.546
 1098SOL     OW 3318   1.429   3.035   4.591
 1098SOL    HW1 3319   1.374   2.951   4.584
 1098SOL    HW2 3320   1.455   3.064   4.499
 1099SOL     OW 3321   1.466   2.452   4.716
 1099SOL    HW1 3322   1.436   2.357   4.723
 1099SOL    HW2 3323   1.539   2.468   4.782
 1100SOL     OW 3324   1.857   2.695   4.101
 1100SOL    HW1 3325   1.899   2.631   4.165
 1100SOL    HW2 3326   1.819   2.644   4.023
 1101SOL     OW 3327   0.488   3.247   3.898
 1101SOL    HW1 3328   0.401   3.232   3.945
 1101SOL    HW2 3329   0.471   3.273   3.803
 1102SOL     OW 3330   1.664   3.142   4.381
 1102SOL    HW1 3331   1.763   3.150   4.395
 1102SOL    HW2 3332   1.619   3.226   4.412
 1103SOL     OW 3333   1.390   2.437   3.802
 1103SOL    HW1 3334   1.336   2.416   3.883
 1103SOL    HW2 3335   1.481   2.396   3.811
 1104SOL     OW 3336   0.527   2.118   4.052
 1104SOL    HW1 3337   0.554   2.059   3.977
 1104SOL    HW2 3338   0.527   2.213   4.021
 1105SOL     OW 3339   1.064   3.209   5.064
 1105SOL    HW1 3340   0.984   3.186   5.119
 1105SOL    HW2 3341   1.147   3.183   5.113
 1106SOL     OW 3342   1.111   3.057   4.824
 1106SOL    HW1 3343   1.071   3.101   4.905
 1106SOL    HW2 3344   1.070   3.094   4.741
 1107SOL     OW 3345   1.638   2.961   4.803
 1107SOL    HW1 3346   1.643   3.042   4.862
 1107SOL    HW2 3347   1.552   2.963   4.752
 1108SOL     OW 3348   0.915   1.951   5.126
 1108SOL    HW1 3349   0.940   1.931   5.031
 1108SOL    HW2 3350   0.987   2.007   5.168
 1109SOL     OW 3351   0.705   2.912   4.092
 1109SOL    HW1 3352   0.691   2.919   4.191
 1109SOL    HW2 3353   0.789   2.861   4.074
 1110SOL     OW 3354   0.410   2.675   4.975
 1110SOL    HW1 3355   0.496   2.687   5.025
 1110SOL    HW2 3356   0.368   2.588   5.002
 1111SOL     OW 3357   1.274   2.248   4.986
 1111SOL    HW1 3358   1.295   2.322   5.050
 1111SOL    HW2 3359   1.185   2.265   4.943
 1112SOL     OW 3360   0.064   3.426   5.055
 1112SOL    HW1 3361   0.018   3.508   5.021
 1112SOL    HW2 3362   0.162   3.445   5.064
 1113SOL     OW 3363   0.367   2.962   4.225
 1113SOL    HW1 3364   0.360   3.045   4.169
 1113SOL    HW2 3365   0.371   2.882   4.165
 1114SOL     OW 3366   0.566   2.399   4.589
 1114SOL    HW1 3367   0.578   2.465   4.515
 1114SOL    HW2 3368   0.612   2.433   4.672
 1115SOL     OW 3369   1.252   3.210   4.112
 1115SOL    HW1 3370   1.302   3.287   4.152
 1115SOL    HW2 3371   1.157   3.212   4.144
 1116SOL     OW 3372   1.272   3.307   4.866
 1116SOL    HW1 3373   1.319   3.320   4.953
 1116SOL    HW2 3374   1.206   3.233   4.875
 1117SOL     OW 3375   1.582   2.501   4.196
 1117SOL    HW1 3376   1.551   2.562   4.269
 1117SOL    HW2 3377   1.632   2.553   4.127
 1118SOL     OW 3378   0.354   3.372   5.053
 1118SOL    HW1 3379   0.333   3.328   4.966
 1118SOL    HW2 3380   0.451   3.398   5.056
 1119SOL     OW 3381   0.402   2.613   5.322
 1119SOL    HW1 3382   0.470   2.668   5.275
 1119SOL    HW2 3383   0.442   2.525   5.349
 1120SOL     OW 3384   1.587   2.641   5.394
 1120SOL    HW1 3385   1.495   2.679   5.389
 1120SOL    HW2 3386   1.647   2.688   5.329
 1121SOL     OW 3387   0.573   2.732   4.753
 1121SOL    HW1 3388   0.617   2.821   4.744
 1121SOL    HW2 3389   0.510   2.732   4.830
 1122SOL     OW 3390   1.360   2.724   4.769
 1122SOL    HW1 3391   1.285   2.724   4.703
 1122SOL    HW2 3392   1.397   2.632   4.778
 1123SOL     OW 3393   1.209   2.387   3.999
 1123SOL    HW1 3394   1.222   2.303   4.053
 1123SOL    HW2 3395   1.180   2.461   4.059
 1124SOL     OW 3396   0.307   2.075   4.955
 1124SOL    HW1 3397   0.284   2.112   5.045
 1124SOL    HW2 3398   0.277   1.980   4.949
 1125SOL     OW 3399   0.037   3.172   5.006
 1125SOL    HW1 3400   0.090   3.123   5.074
 1125SOL    HW2 3401   0.059   3.270   5.011
 1126SOL     OW 3402   0.732   2.496   4.788
 1126SOL    HW1 3403   0.791   2.470   4.712
 1126SOL    HW2 3404   0.704   2.592   4.777
 1127SOL     OW 3405   0.307   1.925   4.342
 1127SOL    HW1 3406   0.296   2.019   4.375
 1127SOL    HW2 3407   0.302   1.862   4.419
 1128SOL     OW 3408   1.622   2.229   4.098
 1128SOL    HW1 3409   1.624   2.153   4.162
 1128SOL    HW2 3410   1.574   2.306   4.138
 1129SOL     OW 3411   1.023   2.628   4.690
 1129SOL    HW1 3412   1.038   2.649   4.786
 1129SOL    HW2 3413   0.993   2.533   4.681
 1130SOL     OW 3414   0.980   3.435   5.424
 1130SOL    HW1 3415   0.960   3.479   5.336
 1130SOL    HW2 3416   1.019   3.344   5.408
 1131SOL     OW 3417   1.540   2.136   3.849
 1131SOL    HW1 3418   1.479   2.061   3.872
 1131SOL    HW2 3419   1.562   2.188   3.932
 1132SOL     OW 3420   1.303   2.700   3.766
 1132SOL    HW1 3421   1.337   2.607   3.781
 1132SOL    HW2 3422   1.321   2.727   3.671
 1133SOL     OW 3423   1.068   3.195   4.573
 1133SOL    HW1 3424   1.075   3.111   4.518
 1133SOL    HW2 3425   1.130   3.264   4.537
 1134SOL     OW 3426   0.319   2.672   4.673
 1134SOL    HW1 3427   0.412   2.708   4.678
 1134SOL    HW2 3428   0.313   2.587   4.725
 1135SOL     OW 3429   0.339   2.371   4.730
 1135SOL    HW1 3430   0.287   2.288   4.713
 1135SOL    HW2 3431   0.416   2.376   4.666
 1136SOL     OW 3432   1.138   2.242   5.402
 1136SOL    HW1 3433   1.093   2.305   5.466
 1136SOL    HW2 3434   1.231   2.273   5.385
 1137SOL     OW 3435   1.160   2.069   5.201
 1137SOL    HW1 3436   1.160   2.133   5.278
 1137SOL    HW2 3437   1.188   2.117   5.118
 1138SOL     OW 3438   0.008   3.188   3.924
 1138SOL    HW1 3439  -0.085   3.209   3.893
 1138SOL    HW2 3440   0.018   3.089   3.937
 1139SOL     OW 3441   0.088   3.663   4.651
 1139SOL    HW1 3442   0.046   3.577   4.624
 1139SOL    HW2 3443   0.182   3.666   4.617
 1140SOL     OW 3444   0.504   3.430   4.634
 1140SOL    HW1 3445   0.570   3.504   4.643
 1140SOL    HW2 3446   0.548   3.351   4.592
 1141SOL     OW 3447   1.002   2.658   4.962
 1141SOL    HW1 3448   1.043   2.626   5.048
 1141SOL    HW2 3449   0.906   2.631   4.959
 1142SOL     OW 3450   0.040   2.406   4.838
 1142SOL    HW1 3451   0.125   2.373   4.797
 1142SOL    HW2 3452   0.053   2.421   4.936
 1143SOL     OW 3453   0.815   2.434   4.049
 1143SOL    HW1 3454   0.822   2.345   4.003
 1143SOL    HW2 3455   0.721   2.468   4.041
 1144SOL     OW 3456   1.657   2.466   4.930
 1144SOL    HW1 3457   1.619   2.397   4.992
 1144SOL    HW2 3458   1.739   2.430   4.886
 1145SOL     OW 3459   0.671   2.326   4.993
 1145SOL    HW1 3460   0.637   2.237   4.963
 1145SOL    HW2 3461   0.697   2.380   4.913
 1146SOL     OW 3462   0.930   3.540   5.189
 1146SOL    HW1 3463   0.906   3.522   5.094
 1146SOL    HW2 3464   0.960   3.634   5.199
 1147SOL     OW 3465   0.473   2.362   3.915
 1147SOL    HW1 3466   0.534   2.442   3.919
 1147SOL    HW2 3467   0.378   2.393   3.922
 1148SOL     OW 3468   0.159   2.999   5.190
 1148SOL    HW1 3469   0.181   2.938   5.266
 1148SOL    HW2 3470   0.169   2.950   5.104
 1149SOL     OW 3471   1.347   2.921   4.958
 1149SOL    HW1 3472   1.371   2.858   4.884
 1149SOL    HW2 3473   1.257   2.961   4.940
 1150SOL     OW 3474   1.302   2.717   4.033
 1150SOL    HW1 3475   1.216   2.686   4.075
 1150SOL    HW2 3476   1.298   2.703   3.934
 1151SOL     OW 3477   1.759   3.609   4.878
 1151SOL    HW1 3478   1.820   3.639   4.805
 1151SOL    HW2 3479   1.721   3.520   4.856
 1152SOL     OW 3480   1.252   3.593   4.852
 1152SOL    HW1 3481   1.336   3.598   4.798
 1152SOL    HW2 3482   1.229   3.497   4.870
 1153SOL     OW 3483   0.083   3.120   4.746
 1153SOL    HW1 3484   0.078   3.119   4.846
 1153SOL    HW2 3485   0.000   3.079   4.708
 1154SOL     OW 3486   1.726   1.997   4.247
 1154SOL    HW1 3487   1.799   1.980   4.180
 1154SOL    HW2 3488   1.695   1.910   4.285
 1155SOL     OW 3489   1.388   3.435   4.201
 1155SOL    HW1 3490   1.455   3.447   4.127
 1155SOL    HW2 3491   1.348   3.524   4.224
 1156SOL     OW 3492   1.280   2.789   4.396
 1156SOL    HW1 3493   1.340   2.708   4.398
 1156SOL    HW2 3494   1.320   2.858   4.336
 1157SOL     OW 3495   0.672   3.478   3.878
 1157SOL    HW1 3496   0.681   3.488   3.779
 1157SOL    HW2 3497   0.632   3.389   3.899
 1158SOL     OW 3498   1.650   3.582   5.118
 1158SOL    HW1 3499   1.703   3.592   5.034
 1158SOL    HW2 3500   1.623   3.672   5.152
 1159SOL     OW 3501   1.841   2.037   4.687
 1159SOL    HW1 3502   1.880   1.952   4.651
 1159SOL    HW2 3503   1.743   2.039   4.668
 1160SOL     OW 3504   0.263   2.188   4.444
 1160SOL    HW1 3505   0.184   2.239   4.410
 1160SOL    HW2 3506   0.254   2.173   4.542
 1161SOL     OW 3507   1.194   3.474   3.755
 1161SOL    HW1 3508   1.200   3.381   3.792
 1161SOL    HW2 3509   1.135   3.474   3.675
 1162SOL     OW 3510   0.822   2.864   5.096
 1162SOL    HW1 3511   0.862   2.863   5.004
 1162SOL    HW2 3512   0.832   2.956   5.136
 1163SOL     OW 3513   0.916   2.772   4.015
 1163SOL    HW1 3514   0.979   2.810   3.947
 1163SOL    HW2 3515   0.956   2.689   4.054
 1164SOL     OW 3516   1.504   3.469   3.768
 1164SOL    HW1 3517   1.412   3.506   3.775
 1164SOL    HW2 3518   1.542   3.489   3.678
 1165SOL     OW 3519   0.372   3.150   5.214
 1165SOL    HW1 3520   0.359   3.243   5.180
 1165SOL    HW2 3521   0.288   3.098   5.201
 1166SOL     OW 3522   1.614   3.154   5.013
 1166SOL    HW1 3523   1.674   3.157   5.093
 1166SOL    HW2 3524   1.539   3.218   5.026
 1167SOL     OW 3525   1.039   2.960   4.420
 1167SOL    HW1 3526   0.969   2.913   4.474
 1167SOL    HW2 3527   1.098   2.892   4.377
 1168SOL     OW 3528   1.014   2.098   4.695
 1168SOL    HW1 3529   1.006   2.062   4.602
 1168SOL    HW2 3530   1.012   2.022   4.760
 1169SOL     OW 3531   0.590   3.349   4.215
 1169SOL    HW1 3532   0.632   3.291   4.145
 1169SOL    HW2 3533   0.546   3.428   4.171
 1170SOL     OW 3534   1.709   2.247   5.105
 1170SOL    HW1 3535   1.782   2.316   5.109
 1170SOL    HW2 3536   1.737   2.172   5.046
 1171SOL     OW 3537   0.255   3.210   4.014
 1171SOL    HW1 3538   0.159   3.211   3.987
 1171SOL    HW2 3539   0.267   3.263   4.098
 1172SOL     OW 3540   0.075   2.207   3.757
 1172SOL    HW1 3541  -0.017   2.179   3.728
 1172SOL    HW2 3542   0.106   2.284   3.701
 1173SOL     OW 3543   1.440   2.718   5.122
 1173SOL    HW1 3544   1.383   2.770   5.059
 1173SOL    HW2 3545   1.536   2.730   5.098
 1174SOL     OW 3546   0.072   2.028   4.042
 1174SOL    HW1 3547   0.055   2.111   3.988
 1174SOL    HW2 3548   0.162   1.991   4.020
 1175SOL     OW 3549   1.183   3.197   3.843
 1175SOL    HW1 3550   1.084   3.186   3.845
 1175SOL    HW2 3551   1.217   3.212   3.936
 1176SOL     OW 3552   0.613   2.704   5.155
 1176SOL    HW1 3553   0.669   2.785   5.138
 1176SOL    HW2 3554   0.672   2.624   5.158
 1177SOL     OW 3555   1.493   3.629   4.683
 1177SOL    HW1 3556   1.526   3.693   4.614
 1177SOL    HW2 3557   1.559   3.623   4.758
 1178SOL     OW 3558   0.390   3.603   5.284
 1178SOL    HW1 3559   0.299   3.644   5.282
 1178SOL    HW2 3560   0.383   3.509   5.316
 1179SOL     OW 3561   1.674   2.745   4.978
 1179SOL    HW1 3562   1.647   2.656   4.941
 1179SOL    HW2 3563   1.675   2.813   4.905
 1180SOL     OW 3564   1.225   2.187   4.173
 1180SOL    HW1 3565   1.290   2.113   4.162
 1180SOL    HW2 3566   1.245   2.237   4.257
 1181SOL     OW 3567   0.594   2.607   4.376
 1181SOL    HW1 3568   0.644   2.692   4.357
 1181SOL    HW2 3569   0.506   2.609   4.328
 1182SOL     OW 3570   1.730   2.796   5.241
 1182SOL    HW1 3571   1.768   2.887   5.256
 1182SOL    HW2 3572   1.722   2.779   5.142
 1183SOL     OW 3573   0.859   3.236   3.740
 1183SOL    HW1 3574   0.813   3.251   3.828
 1183SOL    HW2 3575   0.903   3.321   3.710
 1184SOL     OW 3576   0.661   3.652   4.677
 1184SOL    HW1 3577   0.615   3.740   4.664
 1184SOL    HW2 3578   0.760   3.664   4.670
 1185SOL     OW 3579   0.859   2.818   4.585
 1185SOL    HW1 3580   0.913   2.749   4.633
 1185SOL    HW2 3581   0.827   2.887   4.651
 1186SOL     OW 3582   1.083   2.846   3.811
 1186SOL    HW1 3583   1.060   2.899   3.729
 1186SOL    HW2 3584   1.164   2.790   3.792
 1187SOL     OW 3585   1.861   3.431   4.575
 1187SOL    HW1 3586   1.790   3.419   4.505
 1187SOL    HW2 3587   1.862   3.352   4.635
 1188SOL     OW 3588   0.079   3.102   4.377
 1188SOL    HW1 3589   0.078   3.055   4.465
 1188SOL    HW2 3590   0.161   3.074   4.326
 1189SOL     OW 3591   1.824   2.054   4.951
 1189SOL    HW1 3592   1.820   1.964   4.995
 1189SOL    HW2 3593   1.827   2.043   4.852
 1190SOL     OW 3594   0.428   2.286   4.244
 1190SOL    HW1 3595   0.458   2.214   4.182
 1190SOL    HW2 3596   0.389   2.246   4.327
 1191SOL     OW 3597   1.705   3.349   4.828
 1191SOL    HW1 3598   1.612   3.324   4.801
 1191SOL    HW2 3599   1.731   3.299   4.910
 1192SOL     OW 3600   0.317   2.409   5.004
 1192SOL    HW1 3601   0.355   2.350   5.076
 1192SOL    HW2 3602   0.357   2.383   4.916
 1193SOL     OW 3603   0.812   3.448   4.411
 1193SOL    HW1 3604   0.844   3.458   4.317
 1193SOL    HW2 3605   0.733   3.386   4.413
 1194SOL     OW 3606   1.424   2.076   4.836
 1194SOL    HW1 3607   1.476   2.011   4.891
 1194SOL    HW2 3608   1.375   2.139   4.897
 1195SOL     OW 3609   1.001   1.896   4.878
 1195SOL    HW1 3610   0.938   1.824   4.847
 1195SOL    HW2 3611   1.094   1.860   4.878
 1196SOL     OW 3612   0.770   3.192   4.025
 1196SOL    HW1 3613   0.724   3.105   4.042
 1196SOL    HW2 3614   0.861   3.189   4.066
 1197SOL     OW 3615   0.618   3.429   5.008
 1197SOL    HW1 3616   0.613   3.511   5.065
 1197SOL    HW2 3617   0.707   3.426   4.963
 1198SOL     OW 3618   1.352   1.914   3.892
 1198SOL    HW1 3619   1.387   1.873   3.808
 1198SOL    HW2 3620   1.262   1.876   3.912
 1199SOL     OW 3621   1.300   2.315   4.415
 1199SOL    HW1 3622   1.241   2.395   4.419
 1199SOL    HW2 3623   1.315   2.280   4.508
 1200SOL     OW 3624   1.593   2.083   4.606
 1200SOL    HW1 3625   1.509   2.082   4.660
 1200SOL    HW2 3626   1.595   2.166   4.550
 1201SOL     OW 3627   0.039   2.939   4.024
 1201SOL    HW1 3628   0.138   2.928   4.015
 1201SOL    HW2 3629  -0.001   2.853   4.056
 1202SOL     OW 3630   0.875   3.508   4.061
 1202SOL    HW1 3631   0.798   3.473   4.007
 1202SOL    HW2 3632   0.843   3.579   4.123
 1203SOL     OW 3633   0.230   4.352   0.113
 1203SOL    HW1 3634   0.137   4.350   0.150
 1203SOL    HW2 3635   0.231   4.313   0.021
 1204SOL     OW 3636   0.225   3.999   0.996
 1204SOL    HW1 3637   0.260   3.982   1.088
 1204SOL    HW2 3638   0.137   3.954   0.984
 1205SOL     OW 3639   0.019   4.092   0.647
 1205SOL    HW1 3640  -0.063   4.135   0.686
 1205SOL    HW2 3641  -0.009   4.019   0.584
 1206SOL     OW 3642   0.569   4.999   1.165
 1206SOL    HW1 3643   0.476   4.992   1.128
 1206SOL    HW2 3644   0.580   5.088   1.209
 1207SOL     OW 3645   1.555   5.235   0.703
 1207SOL    HW1 3646   1.498   5.219   0.784
 1207SOL    HW2 3647   1.496   5.245   0.623
 1208SOL     OW 3648   1.135   4.427   0.717
 1208SOL    HW1 3649   1.192   4.505   0.692
 1208SOL    HW2 3650   1.075   4.453   0.793
 1209SOL     OW 3651   1.755   4.331   0.231
 1209SOL    HW1 3652   1.743   4.318   0.132
 1209SOL    HW2 3653   1.725   4.250   0.280
 1210SOL     OW 3654   0.768   4.868   1.023
 1210SOL    HW1 3655   0.690   4.885   1.083
 1210SOL    HW2 3656   0.802   4.955   0.987
 1211SOL     OW 3657   0.850   4.522   1.823
 1211SOL    HW1 3658   0.846   4.598   1.888
 1211SOL    HW2 3659   0.872   4.558   1.732
 1212SOL     OW 3660   0.685   4.736   0.665
 1212SOL    HW1 3661   0.754   4.720   0.735
 1212SOL    HW2 3662   0.612   4.793   0.703
 1213SOL     OW 3663   0.686   4.885   1.803
 1213SOL    HW1 3664   0.746   4.964   1.817
 1213SOL    HW2 3665   0.600   4.916   1.762
 1214SOL     OW 3666   0.335   5.159   1.061
 1214SOL    HW1 3667   0.257   5.128   1.008
 1214SOL    HW2 3668   0.393   5.217   1.004
 1215SOL     OW 3669   1.460   5.229   1.339
 1215SOL    HW1 3670   1.484   5.323   1.365
 1215SOL    HW2 3671   1.444   5.175   1.421
 1216SOL     OW 3672   0.438   4.116   1.499
 1216SOL    HW1 3673   0.520   4.060   1.508
 1216SOL    HW2 3674   0.357   4.058   1.503
 1217SOL     OW 3675   1.603   4.171   0.737
 1217SOL    HW1 3676   1.529   4.217   0.687
 1217SOL    HW2 3677   1.654   4.239   0.790
 1218SOL     OW 3678   1.127   5.065   1.690
 1218SOL    HW1 3679   1.174   5.065   1.778
 1218SOL    HW2 3680   1.079   4.978   1.679
 1219SOL     OW 3681   0.230   5.158   0.538
 1219SOL    HW1 3682   0.204   5.254   0.538
 1219SOL    HW2 3683   0.159   5.104   0.583
 1220SOL     OW 3684   0.240   4.815   0.886
 1220SOL    HW1 3685   0.254   4.731   0.938
 1220SOL    HW2 3686   0.185   4.879   0.941
 1221SOL     OW 3687   0.606   4.688   0.123
 1221SOL    HW1 3688   0.613   4.772   0.069
 1221SOL    HW2 3689   0.652   4.701   0.211
 1222SOL     OW 3690   1.594   3.838   1.480
 1222SOL    HW1 3691   1.576   3.905   1.408
 1222SOL    HW2 3692   1.591   3.884   1.569
 1223SOL     OW 3693   0.122   4.367   0.563
 1223SOL    HW1 3694   0.077   4.279   0.580
 1223SOL    HW2 3695   0.121   4.421   0.647
 1224SOL     OW 3696   0.027   5.320   0.117
 1224SOL    HW1 3697   0.008   5.224   0.138
 1224SOL    HW2 3698  -0.006   5.378   0.192
 1225SOL     OW 3699   1.689   4.646   0.612
 1225SOL    HW1 3700   1.784   4.617   0.620
 1225SOL    HW2 3701   1.681   4.711   0.537
 1226SOL     OW 3702   1.641   4.832   0.432
 1226SOL    HW1 3703   1.727   4.834   0.380
 1226SOL    HW2 3704   1.655   4.879   0.520
 1227SOL     OW 3705   0.113   4.461   1.597
 1227SOL    HW1 3706   0.201   4.448   1.642
 1227SOL    HW2 3707   0.100   4.558   1.575
 1228SOL     OW 3708   0.613   5.089   0.726
 1228SOL    HW1 3709   0.564   5.002   0.735
 1228SOL    HW2 3710   0.590   5.132   0.639
 1229SOL     OW 3711   1.293   4.952   1.423
 1229SOL    HW1 3712   1.330   4.879   1.365
 1229SOL    HW2 3713   1.345   4.957   1.508
 1230SOL     OW 3714   0.809   3.728   0.502
 1230SOL    HW1 3715   0.849   3.819   0.493
 1230SOL    HW2 3716   0.709   3.736   0.508
 1231SOL     OW 3717   0.197   4.700   1.264
 1231SOL    HW1 3718   0.286   4.655   1.250
 1231SOL    HW2 3719   0.124   4.635   1.245
 1232SOL     OW 3720   1.525   4.723   0.190
 1232SOL    HW1 3721   1.462   4.647   0.203
 1232SOL    HW2 3722   1.573   4.741   0.276
 1233SOL     OW 3723   0.317   3.975   1.801
 1233SOL    HW1 3724   0.388   4.046   1.807
 1233SOL    HW2 3725   0.229   4.014   1.829
 1234SOL     OW 3726   1.466   5.141   0.953
 1234SOL    HW1 3727   1.407   5.147   1.033
 1234SOL    HW2 3728   1.451   5.053   0.907
 1235SOL     OW 3729   0.598   4.453   0.270
 1235SOL    HW1 3730   0.622   4.522   0.202
 1235SOL    HW2 3731   0.520   4.486   0.324
 1236SOL     OW 3732   1.281   4.069   0.944
 1236SOL    HW1 3733   1.195   4.019   0.931
 1236SOL    HW2 3734   1.343   4.015   1.000
 1237SOL     OW 3735   0.807   4.329   1.465
 1237SOL    HW1 3736   0.760   4.326   1.554
 1237SOL    HW2 3737   0.756   4.274   1.399
 1238SOL     OW 3738   1.394   4.193   1.674
 1238SOL    HW1 3739   1.374   4.236   1.762
 1238SOL    HW2 3740   1.472   4.131   1.683
 1239SOL     OW 3741   0.973   4.614   1.572
 1239SOL    HW1 3742   1.019   4.530   1.543
 1239SOL    HW2 3743   0.917   4.648   1.497
 1240SOL     OW 3744   0.991   4.134   1.242
 1240SOL    HW1 3745   0.914   4.168   1.296
 1240SOL    HW2 3746   0.957   4.083   1.163
 1241SOL     OW 3747   1.041   4.425   0.429
 1241SOL    HW1 3748   1.067   4.421   0.525
 1241SOL    HW2 3749   0.956   4.374   0.415
 1242SOL     OW 3750   0.076   4.535   0.789
 1242SOL    HW1 3751   0.175   4.523   0.798
 1242SOL    HW2 3752   0.052   4.630   0.810
 1243SOL     OW 3753   0.865   4.072   0.195
 1243SOL    HW1 3754   0.924   4.135   0.146
 1243SOL    HW2 3755   0.884   3.978   0.166
 1244SOL     OW 3756   1.719   4.309   1.831
 1244SOL    HW1 3757   1.693   4.398   1.795
 1244SOL    HW2 3758   1.717   4.241   1.758
 1245SOL     OW 3759   1.362   4.868   0.545
 1245SOL    HW1 3760   1.445   4.839   0.497
 1245SOL    HW2 3761   1.313   4.935   0.489
 1246SOL     OW 3762   0.550   3.920   0.885
 1246SOL    HW1 3763   0.545   3.915   0.985
 1246SOL    HW2 3764   0.552   4.016   0.856
 1247SOL     OW 3765   1.008   5.180   0.477
 1247SOL    HW1 3766   0.962   5.252   0.425
 1247SOL    HW2 3767   1.004   5.200   0.575
 1248SOL     OW 3768   1.795   4.790   0.873
 1248SOL    HW1 3769   1.733   4.775   0.797
 1248SOL    HW2 3770   1.743   4.801   0.958
 1249SOL     OW 3771   1.227   5.274   1.506
 1249SOL    HW1 3772   1.233   5.197   1.570
 1249SOL    HW2 3773   1.175   5.248   1.426
 1250SOL     OW 3774   0.321   4.667   0.242
 1250SOL    HW1 3775   0.403   4.706   0.200
 1250SOL    HW2 3776   0.294   4.585   0.193
 1251SOL     OW 3777   1.458   4.459   0.728
 1251SOL    HW1 3778   1.453   4.394   0.803
 1251SOL    HW2 3779   1.538   4.518   0.741
 1252SOL     OW 3780   0.461   4.990   1.727
 1252SOL    HW1 3781   0.411   4.991   1.641
 1252SOL    HW2 3782   0.398   4.972   1.803
 1253SOL     OW 3783   1.111   5.500   0.237
 1253SOL    HW1 3784   1.051   5.438   0.287
 1253SOL    HW2 3785   1.142   5.456   0.152
 1254SOL     OW 3786   0.202   4.009   1.498
 1254SOL    HW1 3787   0.122   4.069   1.485
 1254SOL    HW2 3788   0.192   3.960   1.584
 1255SOL     OW 3789   1.632   5.101   0.081
 1255SOL    HW1 3790   1.600   5.195   0.071
 1255SOL    HW2 3791   1.556   5.038   0.069
 1256SOL     OW 3792   1.400   3.831   0.426
 1256SOL    HW1 3793   1.376   3.794   0.336
 1256SOL    HW2 3794   1.499   3.847   0.430
 1257SOL     OW 3795   0.382   4.424   0.480
 1257SOL    HW1 3796   0.427   4.334   0.477
 1257SOL    HW2 3797   0.288   4.413   0.513
 1258SOL     OW 3798   1.547   3.946   1.729
 1258SOL    HW1 3799   1.542   3.983   1.821
 1258SOL    HW2 3800   1.475   3.877   1.717
 1259SOL     OW 3801   0.614   3.846   0.117
 1259SOL    HW1 3802   0.712   3.824   0.124
 1259SOL    HW2 3803   0.583   3.829   0.024
 1260SOL     OW 3804   0.781   3.988   1.749
 1260SOL    HW1 3805   0.848   3.927   1.792
 1260SOL    HW2 3806   0.708   4.007   1.814
 1261SOL     OW 3807   1.351   4.314   1.433
 1261SOL    HW1 3808   1.379   4.271   1.518
 1261SOL    HW2 3809   1.376   4.410   1.434
 1262SOL     OW 3810   0.803   5.126   0.924
 1262SOL    HW1 3811   0.893   5.140   0.882
 1262SOL    HW2 3812   0.732   5.128   0.853
 1263SOL     OW 3813   0.922   4.227   0.899
 1263SOL    HW1 3814   0.897   4.218   0.803
 1263SOL    HW2 3815   0.970   4.145   0.930
 1264SOL     OW 3816   0.539   3.788   0.512
 1264SOL    HW1 3817   0.458   3.789   0.570
 1264SOL    HW2 3818   0.542   3.871   0.457
 1265SOL     OW 3819   1.434   4.912   0.041
 1265SOL    HW1 3820   1.466   4.836   0.098
 1265SOL    HW2 3821   1.342   4.939   0.071
 1266SOL     OW 3822   0.297   3.759   0.171
 1266SOL    HW1 3823   0.346   3.843   0.150
 1266SOL    HW2 3824   0.359   3.694   0.216
 1267SOL     OW 3825   0.935   3.960   0.480
 1267SOL    HW1 3826   0.887   4.001   0.402
 1267SOL    HW2 3827   1.034   3.958   0.461
 1268SOL     OW 3828   1.076   4.407   1.464
 1268SOL    HW1 3829   0.996   4.346   1.467
 1268SOL    HW2 3830   1.157   4.354   1.440
 1269SOL     OW 3831   1.227   5.294   0.793
 1269SOL    HW1 3832   1.248   5.368   0.728
 1269SOL    HW2 3833   1.295   5.294   0.866
 1270SOL     OW 3834   0.459   4.876   0.741
 1270SOL    HW1 3835   0.388   4.849   0.806
 1270SOL    HW2 3836   0.433   4.848   0.648
 1271SOL     OW 3837   1.032   4.273   0.016
 1271SOL    HW1 3838   0.991   4.355  -0.023
 1271SOL    HW2 3839   1.096   4.299   0.089
 1272SOL     OW 3840   0.078   4.280   1.386
 1272SOL    HW1 3841   0.170   4.279   1.345
 1272SOL    HW2 3842   0.072   4.354   1.453
 1273SOL     OW 3843   0.561   3.946   1.147
 1273SOL    HW1 3844   0.599   3.862   1.184
 1273SOL    HW2 3845   0.473   3.965   1.191
 1274SOL     OW 3846   0.866   4.178   0.642
 1274SOL    HW1 3847   0.834   4.250   0.580
 1274SOL    HW2 3848   0.890   4.097   0.589
 1275SOL     OW 3849   1.017   3.763   0.753
 1275SOL    HW1 3850   0.945   3.768   0.684
 1275SOL    HW2 3851   0.993   3.694   0.822
 1276SOL     OW 3852   1.429   4.897   0.867
 1276SOL    HW1 3853   1.374   4.813   0.860
 1276SOL    HW2 3854   1.455   4.926   0.775
 1277SOL     OW 3855   1.466   4.314   0.992
 1277SOL    HW1 3856   1.436   4.219   0.999
 1277SOL    HW2 3857   1.539   4.330   1.058
 1278SOL     OW 3858   1.857   4.557   0.377
 1278SOL    HW1 3859   1.899   4.493   0.441
 1278SOL    HW2 3860   1.819   4.506   0.299
 1279SOL     OW 3861   0.488   5.109   0.174
 1279SOL    HW1 3862   0.401   5.094   0.221
 1279SOL    HW2 3863   0.471   5.135   0.079
 1280SOL     OW 3864   1.664   5.004   0.657
 1280SOL    HW1 3865   1.763   5.012   0.671
 1280SOL    HW2 3866   1.619   5.088   0.688
 1281SOL     OW 3867   1.390   4.299   0.078
 1281SOL    HW1 3868   1.336   4.278   0.159
 1281SOL    HW2 3869   1.481   4.258   0.087
 1282SOL     OW 3870   0.527   3.980   0.328
 1282SOL    HW1 3871   0.554   3.921   0.253
 1282SOL    HW2 3872   0.527   4.075   0.297
 1283SOL     OW 3873   1.754   4.947   1.588
 1283SOL    HW1 3874   1.845   4.908   1.575
 1283SOL    HW2 3875   1.762   5.043   1.612
 1284SOL     OW 3876   1.064   5.071   1.340
 1284SOL    HW1 3877   0.984   5.048   1.395
 1284SOL    HW2 3878   1.147   5.045   1.389
 1285SOL     OW 3879   1.111   4.919   1.100
 1285SOL    HW1 3880   1.071   4.963   1.181
 1285SOL    HW2 3881   1.070   4.956   1.017
 1286SOL     OW 3882   1.638   4.823   1.079
 1286SOL    HW1 3883   1.643   4.904   1.138
 1286SOL    HW2 3884   1.552   4.825   1.028
 1287SOL     OW 3885   0.915   3.813   1.402
 1287SOL    HW1 3886   0.940   3.793   1.307
 1287SOL    HW2 3887   0.987   3.869   1.444
 1288SOL     OW 3888   0.980   4.840   1.719
 1288SOL    HW1 3889   0.881   4.846   1.729
 1288SOL    HW2 3890   1.003   4.760   1.663
 1289SOL     OW 3891   0.705   4.774   0.368
 1289SOL    HW1 3892   0.691   4.781   0.467
 1289SOL    HW2 3893   0.789   4.723   0.350
 1290SOL     OW 3894   0.410   4.537   1.251
 1290SOL    HW1 3895   0.496   4.549   1.301
 1290SOL    HW2 3896   0.368   4.450   1.278
 1291SOL     OW 3897   1.274   4.110   1.262
 1291SOL    HW1 3898   1.295   4.184   1.326
 1291SOL    HW2 3899   1.185   4.127   1.219
 1292SOL     OW 3900   0.064   5.288   1.331
 1292SOL    HW1 3901   0.018   5.370   1.297
 1292SOL    HW2 3902   0.162   5.307   1.340
 1293SOL     OW 3903   0.367   4.824   0.501
 1293SOL    HW1 3904   0.360   4.907   0.445
 1293SOL    HW2 3905   0.371   4.744   0.441
 1294SOL     OW 3906   0.566   4.261   0.865
 1294SOL    HW1 3907   0.578   4.327   0.791
 1294SOL    HW2 3908   0.612   4.295   0.948
 1295SOL     OW 3909   1.252   5.072   0.388
 1295SOL    HW1 3910   1.302   5.149   0.428
 1295SOL    HW2 3911   1.157   5.074   0.420
 1296SOL     OW 3912   1.272   5.169   1.142
 1296SOL    HW1 3913   1.319   5.182   1.229
 1296SOL    HW2 3914   1.206   5.095   1.151
 1297SOL     OW 3915   1.582   4.363   0.472
 1297SOL    HW1 3916   1.551   4.424   0.545
 1297SOL    HW2 3917   1.632   4.415   0.403
 1298SOL     OW 3918   0.354   5.234   1.329
 1298SOL    HW1 3919   0.333   5.190   1.242
 1298SOL    HW2 3920   0.451   5.260   1.332
 1299SOL     OW 3921   0.402   4.475   1.598
 1299SOL    HW1 3922   0.470   4.530   1.551
 1299SOL    HW2 3923   0.442   4.387   1.625
 1300SOL     OW 3924   1.587   4.503   1.670
 1300SOL    HW1 3925   1.495   4.541   1.665
 1300SOL    HW2 3926   1.647   4.550   1.605
 1301SOL     OW 3927   1.013   3.829   1.770
 1301SOL    HW1 3928   1.019   3.914   1.718
 1301SOL    HW2 3929   1.045   3.753   1.713
 1302SOL     OW 3930   0.504   3.774   1.740
 1302SOL    HW1 3931   0.462   3.717   1.670
 1302SOL    HW2 3932   0.438   3.843   1.772
 1303SOL     OW 3933   0.573   4.594   1.029
 1303SOL    HW1 3934   0.617   4.683   1.020
 1303SOL    HW2 3935   0.510   4.594   1.106
 1304SOL     OW 3936   1.360   4.586   1.045
 1304SOL    HW1 3937   1.285   4.586   0.979
 1304SOL    HW2 3938   1.397   4.494   1.054
 1305SOL     OW 3939   1.209   4.249   0.275
 1305SOL    HW1 3940   1.222   4.165   0.329
 1305SOL    HW2 3941   1.180   4.323   0.335
 1306SOL     OW 3942   0.307   3.937   1.231
 1306SOL    HW1 3943   0.284   3.974   1.321
 1306SOL    HW2 3944   0.277   3.842   1.225
 1307SOL     OW 3945   0.037   5.034   1.282
 1307SOL    HW1 3946   0.090   4.985   1.350
 1307SOL    HW2 3947   0.059   5.132   1.287
 1308SOL     OW 3948   0.732   4.358   1.064
 1308SOL    HW1 3949   0.791   4.332   0.988
 1308SOL    HW2 3950   0.704   4.454   1.053
 1309SOL     OW 3951   1.728   4.659   1.854
 1309SOL    HW1 3952   1.682   4.652   1.765
 1309SOL    HW2 3953   1.666   4.703   1.920
 1310SOL     OW 3954   0.307   3.787   0.618
 1310SOL    HW1 3955   0.296   3.881   0.651
 1310SOL    HW2 3956   0.302   3.724   0.695
 1311SOL     OW 3957   1.622   4.091   0.374
 1311SOL    HW1 3958   1.624   4.015   0.438
 1311SOL    HW2 3959   1.574   4.168   0.414
 1312SOL     OW 3960   1.023   4.490   0.966
 1312SOL    HW1 3961   1.038   4.511   1.062
 1312SOL    HW2 3962   0.993   4.395   0.957
 1313SOL     OW 3963   1.859   5.242   1.605
 1313SOL    HW1 3964   1.873   5.269   1.510
 1313SOL    HW2 3965   1.942   5.264   1.658
 1314SOL     OW 3966   0.350   4.622   1.804
 1314SOL    HW1 3967   0.426   4.666   1.852
 1314SOL    HW2 3968   0.385   4.575   1.722
 1315SOL     OW 3969   1.540   3.998   0.125
 1315SOL    HW1 3970   1.479   3.923   0.148
 1315SOL    HW2 3971   1.562   4.050   0.208
 1316SOL     OW 3972   1.303   4.562   0.042
 1316SOL    HW1 3973   1.337   4.469   0.057
 1316SOL    HW2 3974   1.321   4.589  -0.053
 1317SOL     OW 3975   1.068   5.057   0.849
 1317SOL    HW1 3976   1.075   4.973   0.794
 1317SOL    HW2 3977   1.130   5.126   0.813
 1318SOL     OW 3978   0.319   4.534   0.949
 1318SOL    HW1 3979   0.412   4.570   0.954
 1318SOL    HW2 3980   0.313   4.449   1.001
 1319SOL     OW 3981   0.339   4.233   1.006
 1319SOL    HW1 3982   0.287   4.150   0.989
 1319SOL    HW2 3983   0.416   4.238   0.942
 1320SOL     OW 3984   1.138   4.104   1.678
 1320SOL    HW1 3985   1.093   4.167   1.742
 1320SOL    HW2 3986   1.231   4.135   1.661
 1321SOL     OW 3987   1.160   3.931   1.477
 1321SOL    HW1 3988   1.160   3.995   1.554
 1321SOL    HW2 3989   1.188   3.979   1.394
 1322SOL     OW 3990   0.008   5.050   0.200
 1322SOL    HW1 3991  -0.085   5.071   0.169
 1322SOL    HW2 3992   0.018   4.951   0.213
 1323SOL     OW 3993   1.002   4.520   1.238
 1323SOL    HW1 3994   1.043   4.488   1.324
 1323SOL    HW2 3995   0.906   4.493   1.235
 1324SOL     OW 3996   0.040   4.268   1.114
 1324SOL    HW1 3997   0.125   4.235   1.073
 1324SOL    HW2 3998   0.053   4.283   1.212
 1325SOL     OW 3999   0.189   4.244   1.722
 1325SOL    HW1 4000   0.248   4.204   1.652
 1325SOL    HW2 4001   0.131   4.315   1.681
 1326SOL     OW 4002   1.369   4.674   1.660
 1326SOL    HW1 4003   1.408   4.763   1.680
 1326SOL    HW2 4004   1.379   4.654   1.563
 1327SOL     OW 4005   0.815   4.296   0.325
 1327SOL    HW1 4006   0.822   4.207   0.279
 1327SOL    HW2 4007   0.721   4.330   0.317
 1328SOL     OW 4008   1.657   4.328   1.206
 1328SOL    HW1 4009   1.619   4.259   1.268
 1328SOL    HW2 4010   1.739   4.292   1.162
 1329SOL     OW 4011   0.252   5.288   1.744
 1329SOL    HW1 4012   0.222   5.345   1.820
 1329SOL    HW2 4013   0.245   5.191   1.770
 1330SOL     OW 4014   0.671   4.188   1.269
 1330SOL    HW1 4015   0.637   4.099   1.239
 1330SOL    HW2 4016   0.697   4.242   1.189
 1331SOL     OW 4017   0.473   4.224   0.191
 1331SOL    HW1 4018   0.534   4.304   0.195
 1331SOL    HW2 4019   0.378   4.255   0.198
 1332SOL     OW 4020   0.159   4.861   1.466
 1332SOL    HW1 4021   0.181   4.800   1.542
 1332SOL    HW2 4022   0.169   4.812   1.380
 1333SOL     OW 4023   1.347   4.783   1.234
 1333SOL    HW1 4024   1.371   4.720   1.160
 1333SOL    HW2 4025   1.257   4.823   1.216
 1334SOL     OW 4026   1.302   4.579   0.309
 1334SOL    HW1 4027   1.216   4.548   0.351
 1334SOL    HW2 4028   1.298   4.565   0.210
 1335SOL     OW 4029   0.083   4.982   1.022
 1335SOL    HW1 4030   0.078   4.981   1.122
 1335SOL    HW2 4031   0.000   4.941   0.984
 1336SOL     OW 4032   0.903   3.810   0.133
 1336SOL    HW1 4033   0.954   3.811   0.047
 1336SOL    HW2 4034   0.959   3.768   0.204
 1337SOL     OW 4035   1.726   3.859   0.523
 1337SOL    HW1 4036   1.799   3.842   0.456
 1337SOL    HW2 4037   1.695   3.772   0.561
 1338SOL     OW 4038   1.280   4.651   0.672
 1338SOL    HW1 4039   1.340   4.570   0.674
 1338SOL    HW2 4040   1.320   4.720   0.612
 1339SOL     OW 4041   0.830   4.997   1.422
 1339SOL    HW1 4042   0.825   5.030   1.517
 1339SOL    HW2 4043   0.744   5.016   1.376
 1340SOL     OW 4044   1.841   3.899   0.963
 1340SOL    HW1 4045   1.880   3.814   0.927
 1340SOL    HW2 4046   1.743   3.901   0.944
 1341SOL     OW 4047   0.263   4.050   0.720
 1341SOL    HW1 4048   0.184   4.101   0.686
 1341SOL    HW2 4049   0.254   4.035   0.818
 1342SOL     OW 4050   1.194   5.336   0.031
 1342SOL    HW1 4051   1.200   5.243   0.068
 1342SOL    HW2 4052   1.135   5.336  -0.049
 1343SOL     OW 4053   0.822   4.726   1.372
 1343SOL    HW1 4054   0.862   4.725   1.280
 1343SOL    HW2 4055   0.832   4.818   1.412
 1344SOL     OW 4056   0.916   4.634   0.291
 1344SOL    HW1 4057   0.979   4.672   0.223
 1344SOL    HW2 4058   0.956   4.551   0.330
 1345SOL     OW 4059   0.372   5.012   1.490
 1345SOL    HW1 4060   0.359   5.105   1.456
 1345SOL    HW2 4061   0.288   4.960   1.477
 1346SOL     OW 4062   1.614   5.016   1.289
 1346SOL    HW1 4063   1.674   5.019   1.369
 1346SOL    HW2 4064   1.539   5.080   1.302
 1347SOL     OW 4065   1.039   4.822   0.696
 1347SOL    HW1 4066   0.969   4.775   0.750
 1347SOL    HW2 4067   1.098   4.754   0.653
 1348SOL     OW 4068   1.014   3.960   0.971
 1348SOL    HW1 4069   1.006   3.924   0.878
 1348SOL    HW2 4070   1.012   3.884   1.036
 1349SOL     OW 4071   1.709   4.109   1.381
 1349SOL    HW1 4072   1.782   4.178   1.385
 1349SOL    HW2 4073   1.737   4.034   1.322
 1350SOL     OW 4074   0.255   5.072   0.290
 1350SOL    HW1 4075   0.159   5.073   0.263
 1350SOL    HW2 4076   0.267   5.125   0.374
 1351SOL     OW 4077   0.105   4.737   1.726
 1351SOL    HW1 4078   0.028   4.704   1.780
 1351SOL    HW2 4079   0.190   4.707   1.768
 1352SOL     OW 4080   0.672   3.927   1.489
 1352SOL    HW1 4081   0.762   3.911   1.449
 1352SOL    HW2 4082   0.680   3.932   1.588
 1353SOL     OW 4083   0.075   4.069   0.033
 1353SOL    HW1 4084  -0.017   4.041   0.004
 1353SOL    HW2 4085   0.106   4.146  -0.023
 1354SOL     OW 4086   1.440   4.580   1.398
 1354SOL    HW1 4087   1.383   4.632   1.335
 1354SOL    HW2 4088   1.536   4.592   1.374
 1355SOL     OW 4089   0.072   3.890   0.318
 1355SOL    HW1 4090   0.055   3.973   0.264
 1355SOL    HW2 4091   0.162   3.853   0.296
 1356SOL     OW 4092   1.183   5.059   0.119
 1356SOL    HW1 4093   1.084   5.048   0.121
 1356SOL    HW2 4094   1.217   5.074   0.212
 1357SOL     OW 4095   0.613   4.566   1.431
 1357SOL    HW1 4096   0.669   4.647   1.414
 1357SOL    HW2 4097   0.672   4.486   1.434
 1358SOL     OW 4098   0.716   4.289   1.708
 1358SOL    HW1 4099   0.735   4.354   1.782
 1358SOL    HW2 4100   0.776   4.209   1.717
 1359SOL     OW 4101   1.450   4.944   1.633
 1359SOL    HW1 4102   1.441   4.934   1.732
 1359SOL    HW2 4103   1.546   4.937   1.607
 1360SOL     OW 4104   1.674   4.607   1.254
 1360SOL    HW1 4105   1.647   4.518   1.217
 1360SOL    HW2 4106   1.675   4.675   1.181
 1361SOL     OW 4107   1.225   4.049   0.449
 1361SOL    HW1 4108   1.290   3.975   0.438
 1361SOL    HW2 4109   1.245   4.099   0.533
 1362SOL     OW 4110   0.594   4.469   0.652
 1362SOL    HW1 4111   0.644   4.554   0.633
 1362SOL    HW2 4112   0.506   4.471   0.604
 1363SOL     OW 4113   1.777   4.066   1.642
 1363SOL    HW1 4114   1.760   4.097   1.548
 1363SOL    HW2 4115   1.693   4.029   1.680
 1364SOL     OW 4116   1.730   4.658   1.517
 1364SOL    HW1 4117   1.768   4.749   1.532
 1364SOL    HW2 4118   1.722   4.641   1.418
 1365SOL     OW 4119   0.859   5.098   0.016
 1365SOL    HW1 4120   0.813   5.113   0.104
 1365SOL    HW2 4121   0.903   5.183  -0.014
 1366SOL     OW 4122   0.859   4.680   0.861
 1366SOL    HW1 4123   0.913   4.611   0.909
 1366SOL    HW2 4124   0.827   4.749   0.927
 1367SOL     OW 4125   1.083   4.708   0.087
 1367SOL    HW1 4126   1.060   4.761   0.005
 1367SOL    HW2 4127   1.164   4.652   0.068
 1368SOL     OW 4128   0.221   5.038   1.844
 1368SOL    HW1 4129   0.156   4.965   1.823
 1368SOL    HW2 4130   0.225   5.052   1.942
 1369SOL     OW 4131   0.079   4.964   0.653
 1369SOL    HW1 4132   0.078   4.917   0.741
 1369SOL    HW2 4133   0.161   4.936   0.602
 1370SOL     OW 4134   0.672   5.115   1.624
 1370SOL    HW1 4135   0.594   5.065   1.662
 1370SOL    HW2 4136   0.669   5.210   1.655
 1371SOL     OW 4137   1.824   3.916   1.227
 1371SOL    HW1 4138   1.820   3.826   1.271
 1371SOL    HW2 4139   1.827   3.905   1.128
 1372SOL     OW 4140   0.428   4.148   0.520
 1372SOL    HW1 4141   0.458   4.076   0.458
 1372SOL    HW2 4142   0.389   4.108   0.603
 1373SOL     OW 4143   1.705   5.211   1.104
 1373SOL    HW1 4144   1.612   5.186   1.077
 1373SOL    HW2 4145   1.731   5.161   1.186
 1374SOL     OW 4146   0.317   4.271   1.280
 1374SOL    HW1 4147   0.355   4.212   1.352
 1374SOL    HW2 4148   0.357   4.245   1.192
 1375SOL     OW 4149   1.424   3.938   1.112
 1375SOL    HW1 4150   1.476   3.873   1.167
 1375SOL    HW2 4151   1.375   4.001   1.173
 1376SOL     OW 4152   1.001   3.758   1.154
 1376SOL    HW1 4153   0.938   3.686   1.123
 1376SOL    HW2 4154   1.094   3.722   1.154
 1377SOL     OW 4155   0.770   5.054   0.301
 1377SOL    HW1 4156   0.724   4.967   0.318
 1377SOL    HW2 4157   0.861   5.051   0.342
 1378SOL     OW 4158   0.618   5.291   1.284
 1378SOL    HW1 4159   0.613   5.373   1.341
 1378SOL    HW2 4160   0.707   5.288   1.239
 1379SOL     OW 4161   1.352   3.776   0.168
 1379SOL    HW1 4162   1.387   3.735   0.084
 1379SOL    HW2 4163   1.262   3.738   0.188
 1380SOL     OW 4164   1.300   4.177   0.691
 1380SOL    HW1 4165   1.241   4.257   0.695
 1380SOL    HW2 4166   1.315   4.142   0.784
 1381SOL     OW 4167   1.593   3.945   0.882
 1381SOL    HW1 4168   1.509   3.944   0.936
 1381SOL    HW2 4169   1.595   4.028   0.826
 1382SOL     OW 4170   0.039   4.801   0.300
 1382SOL    HW1 4171   0.138   4.790   0.291
 1382SOL    HW2 4172  -0.001   4.715   0.332
 1383SOL     OW 4173   0.230   4.352   1.975
 1383SOL    HW1 4174   0.137   4.350   2.012
 1383SOL    HW2 4175   0.231   4.313   1.883
 1384SOL     OW 4176   0.225   3.999   2.858
 1384SOL    HW1 4177   0.260   3.982   2.950
 1384SOL    HW2 4178   0.137   3.954   2.846
 1385SOL     OW 4179   0.019   4.092   2.509
 1385SOL    HW1 4180  -0.063   4.135   2.548
 1385SOL    HW2 4181  -0.009   4.019   2.446
 1386SOL     OW 4182   0.569   4.999   3.027
 1386SOL    HW1 4183   0.476   4.992   2.990
 1386SOL    HW2 4184   0.580   5.088   3.071
 1387SOL     OW 4185   1.555   5.235   2.565
 1387SOL    HW1 4186   1.498   5.219   2.646
 1387SOL    HW2 4187   1.496   5.245   2.485
 1388SOL     OW 4188   1.135   4.427   2.579
 1388SOL    HW1 4189   1.192   4.505   2.554
 1388SOL    HW2 4190   1.075   4.453   2.655
 1389SOL     OW 4191   1.755   4.331   2.093
 1389SOL    HW1 4192   1.743   4.318   1.994
 1389SOL    HW2 4193   1.725   4.250   2.142
 1390SOL     OW 4194   0.768   4.868   2.885
 1390SOL    HW1 4195   0.690   4.885   2.945
 1390SOL    HW2 4196   0.802   4.955   2.849
 1391SOL     OW 4197   0.850   4.522   3.685
 1391SOL    HW1 4198   0.846   4.598   3.750
 1391SOL    HW2 4199   0.872   4.558   3.594
 1392SOL     OW 4200   0.685   4.736   2.527
 1392SOL    HW1 4201   0.754   4.720   2.597
 1392SOL    HW2 4202   0.612   4.793   2.565
 1393SOL     OW 4203   0.686   4.885   3.665
 1393SOL    HW1 4204   0.746   4.964   3.679
 1393SOL    HW2 4205   0.600   4.916   3.624
 1394SOL     OW 4206   0.335   5.159   2.923
 1394SOL    HW1 4207   0.257   5.128   2.870
 1394SOL    HW2 4208   0.393   5.217   2.866
 1395SOL     OW 4209   1.460   5.229   3.201
 1395SOL    HW1 4210   1.484   5.323   3.227
 1395SOL    HW2 4211   1.444   5.175   3.283
 1396SOL     OW 4212   0.438   4.116   3.361
 1396SOL    HW1 4213   0.520   4.060   3.370
 1396SOL    HW2 4214   0.357   4.058   3.365
 1397SOL     OW 4215   1.603   4.171   2.599
 1397SOL    HW1 4216   1.529   4.217   2.549
 1397SOL    HW2 4217   1.654   4.239   2.652
 1398SOL     OW 4218   1.127   5.065   3.552
 1398SOL    HW1 4219   1.174   5.065   3.640
 1398SOL    HW2 4220   1.079   4.978   3.541
 1399SOL     OW 4221   0.230   5.158   2.400
 1399SOL    HW1 4222   0.204   5.254   2.400
 1399SOL    HW2 4223   0.159   5.104   2.445
 1400SOL     OW 4224   0.240   4.815   2.748
 1400SOL    HW1 4225   0.254   4.731   2.800
 1400SOL    HW2 4226   0.185   4.879   2.803
 1401SOL     OW 4227   0.606   4.688   1.985
 1401SOL    HW1 4228   0.613   4.772   1.931
 1401SOL    HW2 4229   0.652   4.701   2.073
 1402SOL     OW 4230   1.594   3.838   3.342
 1402SOL    HW1 4231   1.576   3.905   3.270
 1402SOL    HW2 4232   1.591   3.884   3.431
 1403SOL     OW 4233   0.122   4.367   2.425
 1403SOL    HW1 4234   0.077   4.279   2.442
 1403SOL    HW2 4235   0.121   4.421   2.509
 1404SOL     OW 4236   0.027   5.320   1.979
 1404SOL    HW1 4237   0.008   5.224   2.000
 1404SOL    HW2 4238  -0.006   5.378   2.054
 1405SOL     OW 4239   1.689   4.646   2.474
 1405SOL    HW1 4240   1.784   4.617   2.482
 1405SOL    HW2 4241   1.681   4.711   2.399
 1406SOL     OW 4242   1.641   4.832   2.294
 1406SOL    HW1 4243   1.727   4.834   2.242
 1406SOL    HW2 4244   1.655   4.879   2.382
 1407SOL     OW 4245   0.113   4.461   3.459
 1407SOL    HW1 4246   0.201   4.448   3.504
 1407SOL    HW2 4247   0.100   4.558   3.437
 1408SOL     OW 4248   0.613   5.089   2.588
 1408SOL    HW1 4249   0.564   5.002   2.597
 1408SOL    HW2 4250   0.590   5.132   2.501
 1409SOL     OW 4251   1.293   4.952   3.285
 1409SOL    HW1 4252   1.330   4.879   3.227
 1409SOL    HW2 4253   1.345   4.957   3.370
 1410SOL     OW 4254   0.809   3.728   2.364
 1410SOL    HW1 4255   0.849   3.819   2.355
 1410SOL    HW2 4256   0.709   3.736   2.370
 1411SOL     OW 4257   0.197   4.700   3.126
 1411SOL    HW1 4258   0.286   4.655   3.112
 1411SOL    HW2 4259   0.124   4.635   3.107
 1412SOL     OW 4260   1.525   4.723   2.052
 1412SOL    HW1 4261   1.462   4.647   2.065
 1412SOL    HW2 4262   1.573   4.741   2.138
 1413SOL     OW 4263   0.317   3.975   3.663
 1413SOL    HW1 4264   0.388   4.046   3.669
 1413SOL    HW2 4265   0.229   4.014   3.691
 1414SOL     OW 4266   1.466   5.141   2.815
 1414SOL    HW1 4267   1.407   5.147   2.895
 1414SOL    HW2 4268   1.451   5.053   2.769
 1415SOL     OW 4269   0.598   4.453   2.132
 1415SOL    HW1 4270   0.622   4.522   2.064
 1415SOL    HW2 4271   0.520   4.486   2.186
 1416SOL     OW 4272   1.281   4.069   2.806
 1416SOL    HW1 4273   1.195   4.019   2.793
 1416SOL    HW2 4274   1.343   4.015   2.862
 1417SOL     OW 4275   0.807   4.329   3.327
 1417SOL    HW1 4276   0.760   4.326   3.416
 1417SOL    HW2 4277   0.756   4.274   3.261
 1418SOL     OW 4278   1.394   4.193   3.536
 1418SOL    HW1 4279   1.374   4.236   3.624
 1418SOL    HW2 4280   1.472   4.131   3.545
 1419SOL     OW 4281   0.973   4.614   3.434
 1419SOL    HW1 4282   1.019   4.530   3.405
 1419SOL    HW2 4283   0.917   4.648   3.359
 1420SOL     OW 4284   0.991   4.134   3.104
 1420SOL    HW1 4285   0.914   4.168   3.158
 1420SOL    HW2 4286   0.957   4.083   3.025
 1421SOL     OW 4287   1.041   4.425   2.291
 1421SOL    HW1 4288   1.067   4.421   2.387
 1421SOL    HW2 4289   0.956   4.374   2.277
 1422SOL     OW 4290   0.076   4.535   2.651
 1422SOL    HW1 4291   0.175   4.523   2.660
 1422SOL    HW2 4292   0.052   4.630   2.672
 1423SOL     OW 4293   0.865   4.072   2.057
 1423SOL    HW1 4294   0.924   4.135   2.008
 1423SOL    HW2 4295   0.884   3.978   2.028
 1424SOL     OW 4296   1.719   4.309   3.693
 1424SOL    HW1 4297   1.693   4.398   3.657
 1424SOL    HW2 4298   1.717   4.241   3.620
 1425SOL     OW 4299   1.362   4.868   2.407
 1425SOL    HW1 4300   1.445   4.839   2.359
 1425SOL    HW2 4301   1.313   4.935   2.351
 1426SOL     OW 4302   0.550   3.920   2.747
 1426SOL    HW1 4303   0.545   3.915   2.847
 1426SOL    HW2 4304   0.552   4.016   2.718
 1427SOL     OW 4305   1.008   5.180   2.339
 1427SOL    HW1 4306   0.962   5.252   2.287
 1427SOL    HW2 4307   1.004   5.200   2.437
 1428SOL     OW 4308   1.795   4.790   2.735
 1428SOL    HW1 4309   1.733   4.775   2.659
 1428SOL    HW2 4310   1.743   4.801   2.820
 1429SOL     OW 4311   1.227   5.274   3.368
 1429SOL    HW1 4312   1.233   5.197   3.432
 1429SOL    HW2 4313   1.175   5.248   3.288
 1430SOL     OW 4314   0.321   4.667   2.104
 1430SOL    HW1 4315   0.403   4.706   2.062
 1430SOL    HW2 4316   0.294   4.585   2.055
 1431SOL     OW 4317   1.458   4.459   2.590
 1431SOL    HW1 4318   1.453   4.394   2.665
 1431SOL    HW2 4319   1.538   4.518   2.603
 1432SOL     OW 4320   0.461   4.990   3.589
 1432SOL    HW1 4321   0.411   4.991   3.503
 1432SOL    HW2 4322   0.398   4.972   3.665
 1433SOL     OW 4323   1.111   5.500   2.099
 1433SOL    HW1 4324   1.051   5.438   2.149
 1433SOL    HW2 4325   1.142   5.456   2.014
 1434SOL     OW 4326   0.202   4.009   3.360
 1434SOL    HW1 4327   0.122   4.069   3.347
 1434SOL    HW2 4328   0.192   3.960   3.446
 1435SOL     OW 4329   1.632   5.101   1.943
 1435SOL    HW1 4330   1.600   5.195   1.933
 1435SOL    HW2 4331   1.556   5.038   1.931
 1436SOL     OW 4332   1.400   3.831   2.288
 1436SOL    HW1 4333   1.376   3.794   2.198
 1436SOL    HW2 4334   1.499   3.847   2.292
 1437SOL     OW 4335   0.382   4.424   2.342
 1437SOL    HW1 4336   0.427   4.334   2.339
 1437SOL    HW2 4337   0.288   4.413   2.375
 1438SOL     OW 4338   1.547   3.946   3.591
 1438SOL    HW1 4339   1.542   3.983   3.683
 1438SOL    HW2 4340   1.475   3.877   3.579
 1439SOL     OW 4341   0.614   3.846   1.979
 1439SOL    HW1 4342   0.712   3.824   1.986
 1439SOL    HW2 4343   0.583   3.829   1.886
 1440SOL     OW 4344   0.781   3.988   3.611
 1440SOL    HW1 4345   0.848   3.927   3.654
 1440SOL    HW2 4346   0.708   4.007   3.676
 1441SOL     OW 4347   1.351   4.314   3.295
 1441SOL    HW1 4348   1.379   4.271   3.380
 1441SOL    HW2 4349   1.376   4.410   3.296
 1442SOL     OW 4350   0.803   5.126   2.786
 1442SOL    HW1 4351   0.893   5.140   2.744
 1442SOL    HW2 4352   0.732   5.128   2.715
 1443SOL     OW 4353   0.922   4.227   2.761
 1443SOL    HW1 4354   0.897   4.218   2.665
 1443SOL    HW2 4355   0.970   4.145   2.792
 1444SOL     OW 4356   0.539   3.788   2.374
 1444SOL    HW1 4357   0.458   3.789   2.432
 1444SOL    HW2 4358   0.542   3.871   2.319
 1445SOL     OW 4359   1.434   4.912   1.903
 1445SOL    HW1 4360   1.466   4.836   1.960
 1445SOL    HW2 4361   1.342   4.939   1.933
 1446SOL     OW 4362   0.297   3.759   2.033
 1446SOL    HW1 4363   0.346   3.843   2.012
 1446SOL    HW2 4364   0.359   3.694   2.078
 1447SOL     OW 4365   0.935   3.960   2.342
 1447SOL    HW1 4366   0.887   4.001   2.264
 1447SOL    HW2 4367   1.034   3.958   2.323
 1448SOL     OW 4368   1.076   4.407   3.326
 1448SOL    HW1 4369   0.996   4.346   3.329
 1448SOL    HW2 4370   1.157   4.354   3.302
 1449SOL     OW 4371   1.227   5.294   2.655
 1449SOL    HW1 4372   1.248   5.368   2.590
 1449SOL    HW2 4373   1.295   5.294   2.728
 1450SOL     OW 4374   0.459   4.876   2.603
 1450SOL    HW1 4375   0.388   4.849   2.668
 1450SOL    HW2 4376   0.433   4.848   2.510
 1451SOL     OW 4377   1.032   4.273   1.878
 1451SOL    HW1 4378   0.991   4.355   1.839
 1451SOL    HW2 4379   1.096   4.299   1.951
 1452SOL     OW 4380   0.078   4.280   3.248
 1452SOL    HW1 4381   0.170   4.279   3.207
 1452SOL    HW2 4382   0.072   4.354   3.315
 1453SOL     OW 4383   0.561   3.946   3.009
 1453SOL    HW1 4384   0.599   3.862   3.046
 1453SOL    HW2 4385   0.473   3.965   3.053
 1454SOL     OW 4386   0.866   4.178   2.504
 1454SOL    HW1 4387   0.834   4.250   2.442
 1454SOL    HW2 4388   0.890   4.097   2.451
 1455SOL     OW 4389   1.017   3.763   2.615
 1455SOL    HW1 4390   0.945   3.768   2.546
 1455SOL    HW2 4391   0.993   3.694   2.684
 1456SOL     OW 4392   1.429   4.897   2.729
 1456SOL    HW1 4393   1.374   4.813   2.722
 1456SOL    HW2 4394   1.455   4.926   2.637
 1457SOL     OW 4395   1.466   4.314   2.854
 1457SOL    HW1 4396   1.436   4.219   2.861
 1457SOL    HW2 4397   1.539   4.330   2.920
 1458SOL     OW 4398   1.857   4.557   2.239
 1458SOL    HW1 4399   1.899   4.493   2.303
 1458SOL    HW2 4400   1.819   4.506   2.161
 1459SOL     OW 4401   0.488   5.109   2.036
 1459SOL    HW1 4402   0.401   5.094   2.083
 1459SOL    HW2 4403   0.471   5.135   1.941
 1460SOL     OW 4404   1.664   5.004   2.519
 1460SOL    HW1 4405   1.763   5.012   2.533
 1460SOL    HW2 4406   1.619   5.088   2.550
 1461SOL     OW 4407   1.390   4.299   1.940
 1461SOL    HW1 4408   1.336   4.278   2.021
 1461SOL    HW2 4409   1.481   4.258   1.949
 1462SOL     OW 4410   0.527   3.980   2.190
 1462SOL    HW1 4411   0.554   3.921   2.115
 1462SOL    HW2 4412   0.527   4.075   2.159
 1463SOL     OW 4413   1.754   4.947   3.450
 1463SOL    HW1 4414   1.845   4.908   3.437
 1463SOL    HW2 4415   1.762   5.043   3.474
 1464SOL     OW 4416   1.064   5.071   3.202
 1464SOL    HW1 4417   0.984   5.048   3.257
 1464SOL    HW2 4418   1.147   5.045   3.251
 1465SOL     OW 4419   1.111   4.919   2.962
 1465SOL    HW1 4420   1.071   4.963   3.043
 1465SOL    HW2 4421   1.070   4.956   2.879
 1466SOL     OW 4422   1.638   4.823   2.941
 1466SOL    HW1 4423   1.643   4.904   3.000
 1466SOL    HW2 4424   1.552   4.825   2.890
 1467SOL     OW 4425   0.915   3.813   3.264
 1467SOL    HW1 4426   0.940   3.793   3.169
 1467SOL    HW2 4427   0.987   3.869   3.306
 1468SOL     OW 4428   0.980   4.840   3.581
 1468SOL    HW1 4429   0.881   4.846   3.591
 1468SOL    HW2 4430   1.003   4.760   3.525
 1469SOL     OW 4431   0.705   4.774   2.230
 1469SOL    HW1 4432   0.691   4.781   2.329
 1469SOL    HW2 4433   0.789   4.723   2.212
 1470SOL     OW 4434   0.410   4.537   3.113
 1470SOL    HW1 4435   0.496   4.549   3.163
 1470SOL    HW2 4436   0.368   4.450   3.140
 1471SOL     OW 4437   1.274   4.110   3.124
 1471SOL    HW1 4438   1.295   4.184   3.188
 1471SOL    HW2 4439   1.185   4.127   3.081
 1472SOL     OW 4440   0.064   5.288   3.193
 1472SOL    HW1 4441   0.018   5.370   3.159
 1472SOL    HW2 4442   0.162   5.307   3.202
 1473SOL     OW 4443   0.367   4.824   2.363
 1473SOL    HW1 4444   0.360   4.907   2.307
 1473SOL    HW2 4445   0.371   4.744   2.303
 1474SOL     OW 4446   0.566   4.261   2.727
 1474SOL    HW1 4447   0.578   4.327   2.653
 1474SOL    HW2 4448   0.612   4.295   2.810
 1475SOL     OW 4449   1.252   5.072   2.250
 1475SOL    HW1 4450   1.302   5.149   2.290
 1475SOL    HW2 4451   1.157   5.074   2.282
 1476SOL     OW 4452   1.272   5.169   3.004
 1476SOL    HW1 4453   1.319   5.182   3.091
 1476SOL    HW2 4454   1.206   5.095   3.013
 1477SOL     OW 4455   1.582   4.363   2.334
 1477SOL    HW1 4456   1.551   4.424   2.407
 1477SOL    HW2 4457   1.632   4.415   2.265
 1478SOL     OW 4458   0.354   5.234   3.191
 1478SOL    HW1 4459   0.333   5.190   3.104
 1478SOL    HW2 4460   0.451   5.260   3.194
 1479SOL     OW 4461   0.402   4.475   3.460
 1479SOL    HW1 4462   0.470   4.530   3.413
 1479SOL    HW2 4463   0.442   4.387   3.487
 1480SOL     OW 4464   1.587   4.503   3.532
 1480SOL    HW1 4465   1.495   4.541   3.527
 1480SOL    HW2 4466   1.647   4.550   3.467
 1481SOL     OW 4467   1.013   3.829   3.632
 1481SOL    HW1 4468   1.019   3.914   3.580
 1481SOL    HW2 4469   1.045   3.753   3.575
 1482SOL     OW 4470   0.504   3.774   3.602
 1482SOL    HW1 4471   0.462   3.717   3.532
 1482SOL    HW2 4472   0.438   3.843   3.634
 1483SOL     OW 4473   0.573   4.594   2.891
 1483SOL    HW1 4474   0.617   4.683   2.882
 1483SOL    HW2 4475   0.510   4.594   2.968
 1484SOL     OW 4476   1.360   4.586   2.907
 1484SOL    HW1 4477   1.285   4.586   2.841
 1484SOL    HW2 4478   1.397   4.494   2.916
 1485SOL     OW 4479   1.209   4.249   2.137
 1485SOL    HW1 4480   1.222   4.165   2.191
 1485SOL    HW2 4481   1.180   4.323   2.197
 1486SOL     OW 4482   0.307   3.937   3.093
 1486SOL    HW1 4483   0.284   3.974   3.183
 1486SOL    HW2 4484   0.277   3.842   3.087
 1487SOL     OW 4485   0.037   5.034   3.144
 1487SOL    HW1 4486   0.090   4.985   3.212
 1487SOL    HW2 4487   0.059   5.132   3.149
 1488SOL     OW 4488   0.732   4.358   2.926
 1488SOL    HW1 4489   0.791   4.332   2.850
 1488SOL    HW2 4490   0.704   4.454   2.915
 1489SOL     OW 4491   1.728   4.659   3.716
 1489SOL    HW1 4492   1.682   4.652   3.627
 1489SOL    HW2 4493   1.666   4.703   3.782
 1490SOL     OW 4494   0.307   3.787   2.480
 1490SOL    HW1 4495   0.296   3.881   2.513
 1490SOL    HW2 4496   0.302   3.724   2.557
 1491SOL     OW 4497   1.622   4.091   2.236
 1491SOL    HW1 4498   1.624   4.015   2.300
 1491SOL    HW2 4499   1.574   4.168   2.276
 1492SOL     OW 4500   1.023   4.490   2.828
 1492SOL    HW1 4501   1.038   4.511   2.924
 1492SOL    HW2 4502   0.993   4.395   2.819
 1493SOL     OW 4503   1.859   5.242   3.467
 1493SOL    HW1 4504   1.873   5.269   3.372
 1493SOL    HW2 4505   1.942   5.264   3.520
 1494SOL     OW 4506   0.350   4.622   3.666
 1494SOL    HW1 4507   0.426   4.666   3.714
 1494SOL    HW2 4508   0.385   4.575   3.584
 1495SOL     OW 4509   1.540   3.998   1.987
 1495SOL    HW1 4510   1.479   3.923   2.010
 1495SOL    HW2 4511   1.562   4.050   2.070
 1496SOL     OW 4512   1.303   4.562   1.904
 1496SOL    HW1 4513   1.337   4.469   1.919
 1496SOL    HW2 4514   1.321   4.589   1.809
 1497SOL     OW 4515   1.068   5.057   2.711
 1497SOL    HW1 4516   1.075   4.973   2.656
 1497SOL    HW2 4517   1.130   5.126   2.675
 1498SOL     OW 4518   0.319   4.534   2.811
 1498SOL    HW1 4519   0.412   4.570   2.816
 1498SOL    HW2 4520   0.313   4.449   2.863
 1499SOL     OW 4521   0.339   4.233   2.868
 1499SOL    HW1 4522   0.287   4.150   2.851
 1499SOL    HW2 4523   0.416   4.238   2.804
 1500SOL     OW 4524   1.138   4.104   3.540
 1500SOL    HW1 4525   1.093   4.167   3.604
 1500SOL    HW2 4526   1.231   4.135   3.523
 1501SOL     OW 4527   1.160   3.931   3.339
 1501SOL    HW1 4528   1.160   3.995   3.416
 1501SOL    HW2 4529   1.188   3.979   3.256
 1502SOL     OW 4530   0.008   5.050   2.062
 1502SOL    HW1 4531  -0.085   5.071   2.031
 1502SOL    HW2 4532   0.018   4.951   2.075
 1503SOL     OW 4533   1.002   4.520   3.100
 1503SOL    HW1 4534   1.043   4.488   3.186
 1503SOL    HW2 4535   0.906   4.493   3.097
 1504SOL     OW 4536   0.040   4.268   2.976
 1504SOL    HW1 4537   0.125   4.235   2.935
 1504SOL    HW2 4538   0.053   4.283   3.074
 1505SOL     OW 4539   0.189   4.244   3.584
 1505SOL    HW1 4540   0.248   4.204   3.514
 1505SOL    HW2 4541   0.131   4.315   3.543
 1506SOL     OW 4542   1.369   4.674   3.522
 1506SOL    HW1 4543   1.408   4.763   3.542
 1506SOL    HW2 4544   1.379   4.654   3.425
 1507SOL     OW 4545   0.815   4.296   2.187
 1507SOL    HW1 4546   0.822   4.207   2.141
 1507SOL    HW2 4547   0.721   4.330   2.179
 1508SOL     OW 4548   1.657   4.328   3.068
 1508SOL    HW1 4549   1.619   4.259   3.130
 1508SOL    HW2 4550   1.739   4.292   3.024
 1509SOL     OW 4551   0.252   5.288   3.606
 1509SOL    HW1 4552   0.222   5.345   3.682
 1509SOL    HW2 4553   0.245   5.191   3.632
 1510SOL     OW 4554   0.671   4.188   3.131
 1510SOL    HW1 4555   0.637   4.099   3.101
 1510SOL    HW2 4556   0.697   4.242   3.051
 1511SOL     OW 4557   0.473   4.224   2.053
 1511SOL    HW1 4558   0.534   4.304   2.057
 1511SOL    HW2 4559   0.378   4.255   2.060
 1512SOL     OW 4560   0.159   4.861   3.328
 1512SOL    HW1 4561   0.181   4.800   3.404
 1512SOL    HW2 4562   0.169   4.812   3.242
 1513SOL     OW 4563   1.347   4.783   3.096
 1513SOL    HW1 4564   1.371   4.720   3.022
 1513SOL    HW2 4565   1.257   4.823   3.078
 1514SOL     OW 4566   1.302   4.579   2.171
 1514SOL    HW1 4567   1.216   4.548   2.213
 1514SOL    HW2 4568   1.298   4.565   2.072
 1515SOL     OW 4569   0.083   4.982   2.884
 1515SOL    HW1 4570   0.078   4.981   2.984
 1515SOL    HW2 4571   0.000   4.941   2.846
 1516SOL     OW 4572   1.726   3.859   2.385
 1516SOL    HW1 4573   1.799   3.842   2.318
 1516SOL    HW2 4574   1.695   3.772   2.423
 1517SOL     OW 4575   1.280   4.651   2.534
 1517SOL    HW1 4576   1.340   4.570   2.536
 1517SOL    HW2 4577   1.320   4.720   2.474
 1518SOL     OW 4578   0.830   4.997   3.284
 1518SOL    HW1 4579   0.825   5.030   3.379
 1518SOL    HW2 4580   0.744   5.016   3.238
 1519SOL     OW 4581   1.841   3.899   2.825
 1519SOL    HW1 4582   1.880   3.814   2.789
 1519SOL    HW2 4583   1.743   3.901   2.806
 1520SOL     OW 4584   0.263   4.050   2.582
 1520SOL    HW1 4585   0.184   4.101   2.548
 1520SOL    HW2 4586   0.254   4.035   2.680
 1521SOL     OW 4587   0.822   4.726   3.234
 1521SOL    HW1 4588   0.862   4.725   3.142
 1521SOL    HW2 4589   0.832   4.818   3.274
 1522SOL     OW 4590   0.916   4.634   2.153
 1522SOL    HW1 4591   0.979   4.672   2.085
 1522SOL    HW2 4592   0.956   4.551   2.192
 1523SOL     OW 4593   0.372   5.012   3.352
 1523SOL    HW1 4594   0.359   5.105   3.318
 1523SOL    HW2 4595   0.288   4.960   3.339
 1524SOL     OW 4596   1.614   5.016   3.151
 1524SOL    HW1 4597   1.674   5.019   3.231
 1524SOL    HW2 4598   1.539   5.080   3.164
 1525SOL     OW 4599   1.039   4.822   2.558
 1525SOL    HW1 4600   0.969   4.775   2.612
 1525SOL    HW2 4601   1.098   4.754   2.515
 1526SOL     OW 4602   1.014   3.960   2.833
 1526SOL    HW1 4603   1.006   3.924   2.740
 1526SOL    HW2 4604   1.012   3.884   2.898
 1527SOL     OW 4605   1.709   4.109   3.243
 1527SOL    HW1 4606   1.782   4.178   3.247
 1527SOL    HW2 4607   1.737   4.034   3.184
 1528SOL     OW 4608   0.255   5.072   2.152
 1528SOL    HW1 4609   0.159   5.073   2.125
 1528SOL    HW2 4610   0.267   5.125   2.236
 1529SOL     OW 4611   0.105   4.737   3.588
 1529SOL    HW1 4612   0.028   4.704   3.642
 1529SOL    HW2 4613   0.190   4.707   3.630
 1530SOL     OW 4614   0.672   3.927   3.351
 1530SOL    HW1 4615   0.762   3.911   3.311
 1530SOL    HW2 4616   0.680   3.932   3.450
 1531SOL     OW 4617   0.075   4.069   1.895
 1531SOL    HW1 4618  -0.017   4.041   1.866
 1531SOL    HW2 4619   0.106   4.146   1.839
 1532SOL     OW 4620   1.440   4.580   3.260
 1532SOL    HW1 4621   1.383   4.632   3.197
 1532SOL    HW2 4622   1.536   4.592   3.236
 1533SOL     OW 4623   0.072   3.890   2.180
 1533SOL    HW1 4624   0.055   3.973   2.126
 1533SOL    HW2 4625   0.162   3.853   2.158
 1534SOL     OW 4626   1.183   5.059   1.981
 1534SOL    HW1 4627   1.084   5.048   1.983
 1534SOL    HW2 4628   1.217   5.074   2.074
 1535SOL     OW 4629   0.613   4.566   3.293
 1535SOL    HW1 4630   0.669   4.647   3.276
 1535SOL    HW2 4631   0.672   4.486   3.296
 1536SOL     OW 4632   0.716   4.289   3.570
 1536SOL    HW1 4633   0.735   4.354   3.644
 1536SOL    HW2 4634   0.776   4.209   3.579
 1537SOL     OW 4635   1.450   4.944   3.495
 1537SOL    HW1 4636   1.441   4.934   3.594
 1537SOL    HW2 4637   1.546   4.937   3.469
 1538SOL     OW 4638   1.674   4.607   3.116
 1538SOL    HW1 4639   1.647   4.518   3.079
 1538SOL    HW2 4640   1.675   4.675   3.043
 1539SOL     OW 4641   1.225   4.049   2.311
 1539SOL    HW1 4642   1.290   3.975   2.300
 1539SOL    HW2 4643   1.245   4.099   2.395
 1540SOL     OW 4644   0.594   4.469   2.514
 1540SOL    HW1 4645   0.644   4.554   2.495
 1540SOL    HW2 4646   0.506   4.471   2.466
 1541SOL     OW 4647   1.777   4.066   3.504
 1541SOL    HW1 4648   1.760   4.097   3.410
 1541SOL    HW2 4649   1.693   4.029   3.542
 1542SOL     OW 4650   1.730   4.658   3.379
 1542SOL    HW1 4651   1.768   4.749   3.394
 1542SOL    HW2 4652   1.722   4.641   3.280
 1543SOL     OW 4653   0.859   5.098   1.878
 1543SOL    HW1 4654   0.813   5.113   1.966
 1543SOL    HW2 4655   0.903   5.183   1.848
 1544SOL     OW 4656   0.859   4.680   2.723
 1544SOL    HW1 4657   0.913   4.611   2.771
 1544SOL    HW2 4658   0.827   4.749   2.789
 1545SOL     OW 4659   1.083   4.708   1.949
 1545SOL    HW1 4660   1.060   4.761   1.867
 1545SOL    HW2 4661   1.164   4.652   1.930
 1546SOL     OW 4662   0.221   5.038   3.706
 1546SOL    HW1 4663   0.156   4.965   3.685
 1546SOL    HW2 4664   0.225   5.052   3.804
 1547SOL     OW 4665   0.079   4.964   2.515
 1547SOL    HW1 4666   0.078   4.917   2.603
 1547SOL    HW2 4667   0.161   4.936   2.464
 1548SOL     OW 4668   0.672   5.115   3.486
 1548SOL    HW1 4669   0.594   5.065   3.524
 1548SOL    HW2 4670   0.669   5.210   3.517
 1549SOL     OW 4671   1.824   3.916   3.089
 1549SOL    HW1 4672   1.820   3.826   3.133
 1549SOL    HW2 4673   1.827   3.905   2.990
 1550SOL     OW 4674   0.428   4.148   2.382
 1550SOL    HW1 4675   0.458   4.076   2.320
 1550SOL    HW2 4676   0.389   4.108   2.465
 1551SOL     OW 4677   1.705   5.211   2.966
 1551SOL    HW1 4678   1.612   5.186   2.939
 1551SOL    HW2 4679   1.731   5.161   3.048
 1552SOL     OW 4680   0.317   4.271   3.142
 1552SOL    HW1 4681   0.355   4.212   3.214
 1552SOL    HW2 4682   0.357   4.245   3.054
 1553SOL     OW 4683   1.424   3.938   2.974
 1553SOL    HW1 4684   1.476   3.873   3.029
 1553SOL    HW2 4685   1.375   4.001   3.035
 1554SOL     OW 4686   1.001   3.758   3.016
 1554SOL    HW1 4687   0.938   3.686   2.985
 1554SOL    HW2 4688   1.094   3.722   3.016
 1555SOL     OW 4689   0.770   5.054   2.163
 1555SOL    HW1 4690   0.724   4.967   2.180
 1555SOL    HW2 4691   0.861   5.051   2.204
 1556SOL     OW 4692   0.618   5.291   3.146
 1556SOL    HW1 4693   0.613   5.373   3.203
 1556SOL    HW2 4694   0.707   5.288   3.101
 1557SOL     OW 4695   1.352   3.776   2.030
 1557SOL    HW1 4696   1.387   3.735   1.946
 1557SOL    HW2 4697   1.262   3.738   2.050
 1558SOL     OW 4698   1.300   4.177   2.553
 1558SOL    HW1 4699   1.241   4.257   2.557
 1558SOL    HW2 4700   1.315   4.142   2.646
 1559SOL     OW 4701   1.593   3.945   2.744
 1559SOL    HW1 4702   1.509   3.944   2.798
 1559SOL    HW2 4703   1.595   4.028   2.688
 1560SOL     OW 4704   0.039   4.801   2.162
 1560SOL    HW1 4705   0.138   4.790   2.153
 1560SOL    HW2 4706  -0.001   4.715   2.194
 1561SOL     OW 4707   0.230   4.352   3.837
 1561SOL    HW1 4708   0.137   4.350   3.874
 1561SOL    HW2 4709   0.231   4.313   3.745
 1562SOL     OW 4710   0.225   3.999   4.720
 1562SOL    HW1 4711   0.260   3.982   4.812
 1562SOL    HW2 4712   0.137   3.954   4.708
 1563SOL     OW 4713   0.019   4.092   4.371
 1563SOL    HW1 4714  -0.063   4.135   4.410
 1563SOL    HW2 4715  -0.009   4.019   4.308
 1564SOL     OW 4716   0.569   4.999   4.889
 1564SOL    HW1 4717   0.476   4.992   4.852
 1564SOL    HW2 4718   0.580   5.088   4.933
 1565SOL     OW 4719   1.555   5.235   4.427
 1565SOL    HW1 4720   1.498   5.219   4.508
 1565SOL    HW2 4721   1.496   5.245   4.347
 1566SOL     OW 4722   1.135   4.427   4.441
 1566SOL    HW1 4723   1.192   4.505   4.416
 1566SOL    HW2 4724   1.075   4.453   4.517
 1567SOL     OW 4725   1.755   4.331   3.955
 1567SOL    HW1 4726   1.743   4.318   3.856
 1567SOL    HW2 4727   1.725   4.250   4.004
 1568SOL     OW 4728   0.768   4.868   4.747
 1568SOL    HW1 4729   0.690   4.885   4.807
 1568SOL    HW2 4730   0.802   4.955   4.711
 1569SOL     OW 4731   0.685   4.736   4.389
 1569SOL    HW1 4732   0.754   4.720   4.459
 1569SOL    HW2 4733   0.612   4.793   4.427
 1570SOL     OW 4734   0.335   5.159   4.785
 1570SOL    HW1 4735   0.257   5.128   4.732
 1570SOL    HW2 4736   0.393   5.217   4.728
 1571SOL     OW 4737   1.460   5.229   5.063
 1571SOL    HW1 4738   1.484   5.323   5.089
 1571SOL    HW2 4739   1.444   5.175   5.145
 1572SOL     OW 4740   0.438   4.116   5.223
 1572SOL    HW1 4741   0.520   4.060   5.232
 1572SOL    HW2 4742   0.357   4.058   5.227
 1573SOL     OW 4743   1.603   4.171   4.461
 1573SOL    HW1 4744   1.529   4.217   4.411
 1573SOL    HW2 4745   1.654   4.239   4.514
 1574SOL     OW 4746   0.230   5.158   4.262
 1574SOL    HW1 4747   0.204   5.254   4.262
 1574SOL    HW2 4748   0.159   5.104   4.307
 1575SOL     OW 4749   0.240   4.815   4.610
 1575SOL    HW1 4750   0.254   4.731   4.662
 1575SOL    HW2 4751   0.185   4.879   4.665
 1576SOL     OW 4752   0.620   5.510   5.163
 1576SOL    HW1 4753   0.528   5.493   5.198
 1576SOL    HW2 4754   0.648   5.602   5.189
 1577SOL     OW 4755   0.606   4.688   3.847
 1577SOL    HW1 4756   0.613   4.772   3.793
 1577SOL    HW2 4757   0.652   4.701   3.935
 1578SOL     OW 4758   1.594   3.838   5.204
 1578SOL    HW1 4759   1.576   3.905   5.132
 1578SOL    HW2 4760   1.591   3.884   5.293
 1579SOL     OW 4761   0.122   4.367   4.287
 1579SOL    HW1 4762   0.077   4.279   4.304
 1579SOL    HW2 4763   0.121   4.421   4.371
 1580SOL     OW 4764   0.027   5.320   3.841
 1580SOL    HW1 4765   0.008   5.224   3.862
 1580SOL    HW2 4766  -0.006   5.378   3.916
 1581SOL     OW 4767   1.689   4.646   4.336
 1581SOL    HW1 4768   1.784   4.617   4.344
 1581SOL    HW2 4769   1.681   4.711   4.261
 1582SOL     OW 4770   1.641   4.832   4.156
 1582SOL    HW1 4771   1.727   4.834   4.104
 1582SOL    HW2 4772   1.655   4.879   4.244
 1583SOL     OW 4773   0.613   5.089   4.450
 1583SOL    HW1 4774   0.564   5.002   4.459
 1583SOL    HW2 4775   0.590   5.132   4.363
 1584SOL     OW 4776   0.809   3.728   4.226
 1584SOL    HW1 4777   0.849   3.819   4.217
 1584SOL    HW2 4778   0.709   3.736   4.232
 1585SOL     OW 4779   0.197   4.700   4.988
 1585SOL    HW1 4780   0.286   4.655   4.974
 1585SOL    HW2 4781   0.124   4.635   4.969
 1586SOL     OW 4782   1.525   4.723   3.914
 1586SOL    HW1 4783   1.462   4.647   3.927
 1586SOL    HW2 4784   1.573   4.741   4.000
 1587SOL     OW 4785   0.317   3.975   5.525
 1587SOL    HW1 4786   0.388   4.046   5.531
 1587SOL    HW2 4787   0.229   4.014   5.553
 1588SOL     OW 4788   1.466   5.141   4.677
 1588SOL    HW1 4789   1.407   5.147   4.757
 1588SOL    HW2 4790   1.451   5.053   4.631
 1589SOL     OW 4791   0.598   4.453   3.994
 1589SOL    HW1 4792   0.622   4.522   3.926
 1589SOL    HW2 4793   0.520   4.486   4.048
 1590SOL     OW 4794   1.281   4.069   4.668
 1590SOL    HW1 4795   1.195   4.019   4.655
 1590SOL    HW2 4796   1.343   4.015   4.724
 1591SOL     OW 4797   0.807   4.329   5.189
 1591SOL    HW1 4798   0.760   4.326   5.278
 1591SOL    HW2 4799   0.756   4.274   5.123
 1592SOL     OW 4800   0.991   4.134   4.966
 1592SOL    HW1 4801   0.914   4.168   5.020
 1592SOL    HW2 4802   0.957   4.083   4.887
 1593SOL     OW 4803   1.041   4.425   4.153
 1593SOL    HW1 4804   1.067   4.421   4.249
 1593SOL    HW2 4805   0.956   4.374   4.139
 1594SOL     OW 4806   0.076   4.535   4.513
 1594SOL    HW1 4807   0.175   4.523   4.522
 1594SOL    HW2 4808   0.052   4.630   4.534
 1595SOL     OW 4809   0.865   4.072   3.919
 1595SOL    HW1 4810   0.924   4.135   3.870
 1595SOL    HW2 4811   0.884   3.978   3.890
 1596SOL     OW 4812   1.362   4.868   4.269
 1596SOL    HW1 4813   1.445   4.839   4.221
 1596SOL    HW2 4814   1.313   4.935   4.213
 1597SOL     OW 4815   0.550   3.920   4.609
 1597SOL    HW1 4816   0.545   3.915   4.709
 1597SOL    HW2 4817   0.552   4.016   4.580
 1598SOL     OW 4818   1.008   5.180   4.201
 1598SOL    HW1 4819   0.962   5.252   4.149
 1598SOL    HW2 4820   1.004   5.200   4.299
 1599SOL     OW 4821   1.795   4.790   4.597
 1599SOL    HW1 4822   1.733   4.775   4.521
 1599SOL    HW2 4823   1.743   4.801   4.682
 1600SOL     OW 4824   0.321   4.667   3.966
 1600SOL    HW1 4825   0.403   4.706   3.924
 1600SOL    HW2 4826   0.294   4.585   3.917
 1601SOL     OW 4827   1.458   4.459   4.452
 1601SOL    HW1 4828   1.453   4.394   4.527
 1601SOL    HW2 4829   1.538   4.518   4.465
 1602SOL     OW 4830   1.111   5.500   3.961
 1602SOL    HW1 4831   1.051   5.438   4.011
 1602SOL    HW2 4832   1.142   5.456   3.876
 1603SOL     OW 4833   1.632   5.101   3.805
 1603SOL    HW1 4834   1.600   5.195   3.795
 1603SOL    HW2 4835   1.556   5.038   3.793
 1604SOL     OW 4836   1.400   3.831   4.150
 1604SOL    HW1 4837   1.376   3.794   4.060
 1604SOL    HW2 4838   1.499   3.847   4.154
 1605SOL     OW 4839   0.382   4.424   4.204
 1605SOL    HW1 4840   0.427   4.334   4.201
 1605SOL    HW2 4841   0.288   4.413   4.237
 1606SOL     OW 4842   0.614   3.846   3.841
 1606SOL    HW1 4843   0.712   3.824   3.848
 1606SOL    HW2 4844   0.583   3.829   3.748
 1607SOL     OW 4845   0.803   5.126   4.648
 1607SOL    HW1 4846   0.893   5.140   4.606
 1607SOL    HW2 4847   0.732   5.128   4.577
 1608SOL     OW 4848   0.922   4.227   4.623
 1608SOL    HW1 4849   0.897   4.218   4.527
 1608SOL    HW2 4850   0.970   4.145   4.654
 1609SOL     OW 4851   0.539   3.788   4.236
 1609SOL    HW1 4852   0.458   3.789   4.294
 1609SOL    HW2 4853   0.542   3.871   4.181
 1610SOL     OW 4854   1.434   4.912   3.765
 1610SOL    HW1 4855   1.466   4.836   3.822
 1610SOL    HW2 4856   1.342   4.939   3.795
 1611SOL     OW 4857   0.297   3.759   3.895
 1611SOL    HW1 4858   0.346   3.843   3.874
 1611SOL    HW2 4859   0.359   3.694   3.940
 1612SOL     OW 4860   0.935   3.960   4.204
 1612SOL    HW1 4861   0.887   4.001   4.126
 1612SOL    HW2 4862   1.034   3.958   4.185
 1613SOL     OW 4863   1.227   5.294   4.517
 1613SOL    HW1 4864   1.248   5.368   4.452
 1613SOL    HW2 4865   1.295   5.294   4.590
 1614SOL     OW 4866   0.459   4.876   4.465
 1614SOL    HW1 4867   0.388   4.849   4.530
 1614SOL    HW2 4868   0.433   4.848   4.372
 1615SOL     OW 4869   1.032   4.273   3.740
 1615SOL    HW1 4870   0.991   4.355   3.701
 1615SOL    HW2 4871   1.096   4.299   3.813
 1616SOL     OW 4872   0.078   4.280   5.110
 1616SOL    HW1 4873   0.170   4.279   5.069
 1616SOL    HW2 4874   0.072   4.354   5.177
 1617SOL     OW 4875   0.561   3.946   4.871
 1617SOL    HW1 4876   0.599   3.862   4.908
 1617SOL    HW2 4877   0.473   3.965   4.915
 1618SOL     OW 4878   0.866   4.178   4.366
 1618SOL    HW1 4879   0.834   4.250   4.304
 1618SOL    HW2 4880   0.890   4.097   4.313
 1619SOL     OW 4881   1.017   3.763   4.477
 1619SOL    HW1 4882   0.945   3.768   4.408
 1619SOL    HW2 4883   0.993   3.694   4.546
 1620SOL     OW 4884   1.429   4.897   4.591
 1620SOL    HW1 4885   1.374   4.813   4.584
 1620SOL    HW2 4886   1.455   4.926   4.499
 1621SOL     OW 4887   1.466   4.314   4.716
 1621SOL    HW1 4888   1.436   4.219   4.723
 1621SOL    HW2 4889   1.539   4.330   4.782
 1622SOL     OW 4890   1.857   4.557   4.101
 1622SOL    HW1 4891   1.899   4.493   4.165
 1622SOL    HW2 4892   1.819   4.506   4.023
 1623SOL     OW 4893   0.488   5.109   3.898
 1623SOL    HW1 4894   0.401   5.094   3.945
 1623SOL    HW2 4895   0.471   5.135   3.803
 1624SOL     OW 4896   1.664   5.004   4.381
 1624SOL    HW1 4897   1.763   5.012   4.395
 1624SOL    HW2 4898   1.619   5.088   4.412
 1625SOL     OW 4899   1.390   4.299   3.802
 1625SOL    HW1 4900   1.336   4.278   3.883
 1625SOL    HW2 4901   1.481   4.258   3.811
 1626SOL     OW 4902   0.527   3.980   4.052
 1626SOL    HW1 4903   0.554   3.921   3.977
 1626SOL    HW2 4904   0.527   4.075   4.021
 1627SOL     OW 4905   1.064   5.071   5.064
 1627SOL    HW1 4906   0.984   5.048   5.119
 1627SOL    HW2 4907   1.147   5.045   5.113
 1628SOL     OW 4908   1.111   4.919   4.824
 1628SOL    HW1 4909   1.071   4.963   4.905
 1628SOL    HW2 4910   1.070   4.956   4.741
 1629SOL     OW 4911   1.638   4.823   4.803
 1629SOL    HW1 4912   1.643   4.904   4.862
 1629SOL    HW2 4913   1.552   4.825   4.752
 1630SOL     OW 4914   0.915   3.813   5.126
 1630SOL    HW1 4915   0.940   3.793   5.031
 1630SOL    HW2 4916   0.987   3.869   5.168
 1631SOL     OW 4917   0.705   4.774   4.092
 1631SOL    HW1 4918   0.691   4.781   4.191
 1631SOL    HW2 4919   0.789   4.723   4.074
 1632SOL     OW 4920   0.410   4.537   4.975
 1632SOL    HW1 4921   0.496   4.549   5.025
 1632SOL    HW2 4922   0.368   4.450   5.002
 1633SOL     OW 4923   1.274   4.110   4.986
 1633SOL    HW1 4924   1.295   4.184   5.050
 1633SOL    HW2 4925   1.185   4.127   4.943
 1634SOL     OW 4926   0.064   5.288   5.055
 1634SOL    HW1 4927   0.018   5.370   5.021
 1634SOL    HW2 4928   0.162   5.307   5.064
 1635SOL     OW 4929   0.367   4.824   4.225
 1635SOL    HW1 4930   0.360   4.907   4.169
 1635SOL    HW2 4931   0.371   4.744   4.165
 1636SOL     OW 4932   0.566   4.261   4.589
 1636SOL    HW1 4933   0.578   4.327   4.515
 1636SOL    HW2 4934   0.612   4.295   4.672
 1637SOL     OW 4935   1.252   5.072   4.112
 1637SOL    HW1 4936   1.302   5.149   4.152
 1637SOL    HW2 4937   1.157   5.074   4.144
 1638SOL     OW 4938   1.272   5.169   4.866
 1638SOL    HW1 4939   1.319   5.182   4.953
 1638SOL    HW2 4940   1.206   5.095   4.875
 1639SOL     OW 4941   1.582   4.363   4.196
 1639SOL    HW1 4942   1.551   4.424   4.269
 1639SOL    HW2 4943   1.632   4.415   4.127
 1640SOL     OW 4944   0.354   5.234   5.053
 1640SOL    HW1 4945   0.333   5.190   4.966
 1640SOL    HW2 4946   0.451   5.260   5.056
 1641SOL     OW 4947   0.402   4.475   5.322
 1641SOL    HW1 4948   0.470   4.530   5.275
 1641SOL    HW2 4949   0.442   4.387   5.349
 1642SOL     OW 4950   1.587   4.503   5.394
 1642SOL    HW1 4951   1.495   4.541   5.389
 1642SOL    HW2 4952   1.647   4.550   5.329
 1643SOL     OW 4953   0.573   4.594   4.753
 1643SOL    HW1 4954   0.617   4.683   4.744
 1643SOL    HW2 4955   0.510   4.594   4.830
 1644SOL     OW 4956   1.360   4.586   4.769
 1644SOL    HW1 4957   1.285   4.586   4.703
 1644SOL    HW2 4958   1.397   4.494   4.778
 1645SOL     OW 4959   1.209   4.249   3.999
 1645SOL    HW1 4960   1.222   4.165   4.053
 1645SOL    HW2 4961   1.180   4.323   4.059
 1646SOL     OW 4962   0.307   3.937   4.955
 1646SOL    HW1 4963   0.284   3.974   5.045
 1646SOL    HW2 4964   0.277   3.842   4.949
 1647SOL     OW 4965   0.037   5.034   5.006
 1647SOL    HW1 4966   0.090   4.985   5.074
 1647SOL    HW2 4967   0.059   5.132   5.011
 1648SOL     OW 4968   0.732   4.358   4.788
 1648SOL    HW1 4969   0.791   4.332   4.712
 1648SOL    HW2 4970   0.704   4.454   4.777
 1649SOL     OW 4971   0.307   3.787   4.342
 1649SOL    HW1 4972   0.296   3.881   4.375
 1649SOL    HW2 4973   0.302   3.724   4.419
 1650SOL     OW 4974   1.622   4.091   4.098
 1650SOL    HW1 4975   1.624   4.015   4.162
 1650SOL    HW2 4976   1.574   4.168   4.138
 1651SOL     OW 4977   1.023   4.490   4.690
 1651SOL    HW1 4978   1.038   4.511   4.786
 1651SOL    HW2 4979   0.993   4.395   4.681
 1652SOL     OW 4980   1.540   3.998   3.849
 1652SOL    HW1 4981   1.479   3.923   3.872
 1652SOL    HW2 4982   1.562   4.050   3.932
 1653SOL     OW 4983   1.303   4.562   3.766
 1653SOL    HW1 4984   1.337   4.469   3.781
 1653SOL    HW2 4985   1.321   4.589   3.671
 1654SOL     OW 4986   1.068   5.057   4.573
 1654SOL    HW1 4987   1.075   4.973   4.518
 1654SOL    HW2 4988   1.130   5.126   4.537
 1655SOL     OW 4989   0.319   4.534   4.673
 1655SOL    HW1 4990   0.412   4.570   4.678
 1655SOL    HW2 4991   0.313   4.449   4.725
 1656SOL     OW 4992   0.339   4.233   4.730
 1656SOL    HW1 4993   0.287   4.150   4.713
 1656SOL    HW2 4994   0.416   4.238   4.666
 1657SOL     OW 4995   1.138   4.104   5.402
 1657SOL    HW1 4996   1.093   4.167   5.466
 1657SOL    HW2 4997   1.231   4.135   5.385
 1658SOL     OW 4998   1.160   3.931   5.201
 1658SOL    HW1 4999   1.160   3.995   5.278
 1658SOL    HW2 5000   1.188   3.979   5.118
 1659SOL     OW 5001   0.008   5.050   3.924
 1659SOL    HW1 5002  -0.085   5.071   3.893
 1659SOL    HW2 5003   0.018   4.951   3.937
 1660SOL     OW 5004   1.002   4.520   4.962
 1660SOL    HW1 5005   1.043   4.488   5.048
 1660SOL    HW2 5006   0.906   4.493   4.959
 1661SOL     OW 5007   0.040   4.268   4.838
 1661SOL    HW1 5008   0.125   4.235   4.797
 1661SOL    HW2 5009   0.053   4.283   4.936
 1662SOL     OW 5010   0.815   4.296   4.049
 1662SOL    HW1 5011   0.822   4.207   4.003
 1662SOL    HW2 5012   0.721   4.330   4.041
 1663SOL     OW 5013   1.657   4.328   4.930
 1663SOL    HW1 5014   1.619   4.259   4.992
 1663SOL    HW2 5015   1.739   4.292   4.886
 1664SOL     OW 5016   0.671   4.188   4.993
 1664SOL    HW1 5017   0.637   4.099   4.963
 1664SOL    HW2 5018   0.697   4.242   4.913
 1665SOL     OW 5019   0.473   4.224   3.915
 1665SOL    HW1 5020   0.534   4.304   3.919
 1665SOL    HW2 5021   0.378   4.255   3.922
 1666SOL     OW 5022   0.159   4.861   5.190
 1666SOL    HW1 5023   0.181   4.800   5.266
 1666SOL    HW2 5024   0.169   4.812   5.104
 1667SOL     OW 5025   1.347   4.783   4.958
 1667SOL    HW1 5026   1.371   4.720   4.884
 1667SOL    HW2 5027   1.257   4.823   4.940
 1668SOL     OW 5028   1.302   4.579   4.033
 1668SOL    HW1 5029   1.216   4.548   4.075
 1668SOL    HW2 5030   1.298   4.565   3.934
 1669SOL     OW 5031   0.083   4.982   4.746
 1669SOL    HW1 5032   0.078   4.981   4.846
 1669SOL    HW2 5033   0.000   4.941   4.708
 1670SOL     OW 5034   1.726   3.859   4.247
 1670SOL    HW1 5035   1.799   3.842   4.180
 1670SOL    HW2 5036   1.695   3.772   4.285
 1671SOL     OW 5037   1.280   4.651   4.396
 1671SOL    HW1 5038   1.340   4.570   4.398
 1671SOL    HW2 5039   1.320   4.720   4.336
 1672SOL     OW 5040   1.841   3.899   4.687
 1672SOL    HW1 5041   1.880   3.814   4.651
 1672SOL    HW2 5042   1.743   3.901   4.668
 1673SOL     OW 5043   0.263   4.050   4.444
 1673SOL    HW1 5044   0.184   4.101   4.410
 1673SOL    HW2 5045   0.254   4.035   4.542
 1674SOL     OW 5046   0.822   4.726   5.096
 1674SOL    HW1 5047   0.862   4.725   5.004
 1674SOL    HW2 5048   0.832   4.818   5.136
 1675SOL     OW 5049   0.916   4.634   4.015
 1675SOL    HW1 5050   0.979   4.672   3.947
 1675SOL    HW2 5051   0.956   4.551   4.054
 1676SOL     OW 5052   0.372   5.012   5.214
 1676SOL    HW1 5053   0.359   5.105   5.180
 1676SOL    HW2 5054   0.288   4.960   5.201
 1677SOL     OW 5055   1.614   5.016   5.013
 1677SOL    HW1 5056   1.674   5.019   5.093
 1677SOL    HW2 5057   1.539   5.080   5.026
 1678SOL     OW 5058   1.039   4.822   4.420
 1678SOL    HW1 5059   0.969   4.775   4.474
 1678SOL    HW2 5060   1.098   4.754   4.377
 1679SOL     OW 5061   1.014   3.960   4.695
 1679SOL    HW1 5062   1.006   3.924   4.602
 1679SOL    HW2 5063   1.012   3.884   4.760
 1680SOL     OW 5064   1.709   4.109   5.105
 1680SOL    HW1 5065   1.782   4.178   5.109
 1680SOL    HW2 5066   1.737   4.034   5.046
 1681SOL     OW 5067   0.255   5.072   4.014
 1681SOL    HW1 5068   0.159   5.073   3.987
 1681SOL    HW2 5069   0.267   5.125   4.098
 1682SOL     OW 5070   0.075   4.069   3.757
 1682SOL    HW1 5071  -0.017   4.041   3.728
 1682SOL    HW2 5072   0.106   4.146   3.701
 1683SOL     OW 5073   1.440   4.580   5.122
 1683SOL    HW1 5074   1.383   4.632   5.059
 1683SOL    HW2 5075   1.536   4.592   5.098
 1684SOL     OW 5076   0.072   3.890   4.042
 1684SOL    HW1 5077   0.055   3.973   3.988
 1684SOL    HW2 5078   0.162   3.853   4.020
 1685SOL     OW 5079   1.183   5.059   3.843
 1685SOL    HW1 5080   1.084   5.048   3.845
 1685SOL    HW2 5081   1.217   5.074   3.936
 1686SOL     OW 5082   0.613   4.566   5.155
 1686SOL    HW1 5083   0.669   4.647   5.138
 1686SOL    HW2 5084   0.672   4.486   5.158
 1687SOL     OW 5085   1.674   4.607   4.978
 1687SOL    HW1 5086   1.647   4.518   4.941
 1687SOL    HW2 5087   1.675   4.675   4.905
 1688SOL     OW 5088   1.225   4.049   4.173
 1688SOL    HW1 5089   1.290   3.975   4.162
 1688SOL    HW2 5090   1.245   4.099   4.257
 1689SOL     OW 5091   0.594   4.469   4.376
 1689SOL    HW1 5092   0.644   4.554   4.357
 1689SOL    HW2 5093   0.506   4.471   4.328
 1690SOL     OW 5094   1.777   4.066   5.366
 1690SOL    HW1 5095   1.760   4.097   5.272
 1690SOL    HW2 5096   1.693   4.029   5.404
 1691SOL     OW 5097   1.730   4.658   5.241
 1691SOL    HW1 5098   1.768   4.749   5.256
 1691SOL    HW2 5099   1.722   4.641   5.142
 1692SOL     OW 5100   0.859   5.098   3.740
 1692SOL    HW1 5101   0.813   5.113   3.828
 1692SOL    HW2 5102   0.903   5.183   3.710
 1693SOL     OW 5103   0.859   4.680   4.585
 1693SOL    HW1 5104   0.913   4.611   4.633
 1693SOL    HW2 5105   0.827   4.749   4.651
 1694SOL     OW 5106   1.083   4.708   3.811
 1694SOL    HW1 5107   1.060   4.761   3.729
 1694SOL    HW2 5108   1.164   4.652   3.792
 1695SOL     OW 5109   0.079   4.964   4.377
 1695SOL    HW1 5110   0.078   4.917   4.465
 1695SOL    HW2 5111   0.161   4.936   4.326
 1696SOL     OW 5112   1.824   3.916   4.951
 1696SOL    HW1 5113   1.820   3.826   4.995
 1696SOL    HW2 5114   1.827   3.905   4.852
 1697SOL     OW 5115   0.428   4.148   4.244
 1697SOL    HW1 5116   0.458   4.076   4.182
 1697SOL    HW2 5117   0.389   4.108   4.327
 1698SOL     OW 5118   1.705   5.211   4.828
 1698SOL    HW1 5119   1.612   5.186   4.801
 1698SOL    HW2 5120   1.731   5.161   4.910
 1699SOL     OW 5121   0.317   4.271   5.004
 1699SOL    HW1 5122   0.355   4.212   5.076
 1699SOL    HW2 5123   0.357   4.245   4.916
 1700SOL     OW 5124   1.424   3.938   4.836
 1700SOL    HW1 5125   1.476   3.873   4.891
 1700SOL    HW2 5126   1.375   4.001   4.897
 1701SOL     OW 5127   1.001   3.758   4.878
 1701SOL    HW1 5128   0.938   3.686   4.847
 1701SOL    HW2 5129   1.094   3.722   4.878
 1702SOL     OW 5130   0.770   5.054   4.025
 1702SOL    HW1 5131   0.724   4.967   4.042
 1702SOL    HW2 5132   0.861   5.051   4.066
 1703SOL     OW 5133   0.618   5.291   5.008
 1703SOL    HW1 5134   0.613   5.373   5.065
 1703SOL    HW2 5135   0.707   5.288   4.963
 1704SOL     OW 5136   1.352   3.776   3.892
 1704SOL    HW1 5137   1.387   3.735   3.808
 1704SOL    HW2 5138   1.262   3.738   3.912
 1705SOL     OW 5139   1.300   4.177   4.415
 1705SOL    HW1 5140   1.241   4.257   4.419
 1705SOL    HW2 5141   1.315   4.142   4.508
 1706SOL     OW 5142   1.593   3.945   4.606
 1706SOL    HW1 5143   1.509   3.944   4.660
 1706SOL    HW2 5144   1.595   4.028   4.550
 1707SOL     OW 5145   0.039   4.801   4.024
 1707SOL    HW1 5146   0.138   4.790   4.015
 1707SOL    HW2 5147  -0.001   4.715   4.056
 1708SOL     OW 5148   2.092   0.628   0.113
 1708SOL    HW1 5149   1.999   0.626   0.150
 1708SOL    HW2 5150   2.093   0.589   0.021
 1709SOL     OW 5151   2.087   0.275   0.996
 1709SOL    HW1 5152   2.122   0.258   1.088
 1709SOL    HW2 5153   1.999   0.230   0.984
 1710SOL     OW 5154   1.881   0.368   0.647
 1710SOL    HW1 5155   1.799   0.411   0.686
 1710SOL    HW2 5156   1.853   0.295   0.584
 1711SOL     OW 5157   2.431   1.275   1.165
 1711SOL    HW1 5158   2.338   1.268   1.128
 1711SOL    HW2 5159   2.442   1.364   1.209
 1712SOL     OW 5160   3.417   1.511   0.703
 1712SOL    HW1 5161   3.360   1.495   0.784
 1712SOL    HW2 5162   3.358   1.521   0.623
 1713SOL     OW 5163   2.997   0.703   0.717
 1713SOL    HW1 5164   3.054   0.781   0.692
 1713SOL    HW2 5165   2.937   0.729   0.793
 1714SOL     OW 5166   3.617   0.607   0.231
 1714SOL    HW1 5167   3.605   0.594   0.132
 1714SOL    HW2 5168   3.587   0.526   0.280
 1715SOL     OW 5169   2.630   1.144   1.023
 1715SOL    HW1 5170   2.552   1.161   1.083
 1715SOL    HW2 5171   2.664   1.231   0.987
 1716SOL     OW 5172   2.712   0.798   1.823
 1716SOL    HW1 5173   2.708   0.874   1.888
 1716SOL    HW2 5174   2.734   0.834   1.732
 1717SOL     OW 5175   2.547   1.012   0.665
 1717SOL    HW1 5176   2.616   0.996   0.735
 1717SOL    HW2 5177   2.474   1.069   0.703
 1718SOL     OW 5178   2.548   1.161   1.803
 1718SOL    HW1 5179   2.608   1.240   1.817
 1718SOL    HW2 5180   2.462   1.192   1.762
 1719SOL     OW 5181   2.197   1.435   1.061
 1719SOL    HW1 5182   2.119   1.404   1.008
 1719SOL    HW2 5183   2.255   1.493   1.004
 1720SOL     OW 5184   3.322   1.505   1.339
 1720SOL    HW1 5185   3.346   1.599   1.365
 1720SOL    HW2 5186   3.306   1.451   1.421
 1721SOL     OW 5187   2.300   0.392   1.499
 1721SOL    HW1 5188   2.382   0.336   1.508
 1721SOL    HW2 5189   2.219   0.334   1.503
 1722SOL     OW 5190   3.465   0.447   0.737
 1722SOL    HW1 5191   3.391   0.493   0.687
 1722SOL    HW2 5192   3.516   0.515   0.790
 1723SOL     OW 5193   2.093   1.713   0.483
 1723SOL    HW1 5194   2.127   1.790   0.537
 1723SOL    HW2 5195   2.137   1.713   0.393
 1724SOL     OW 5196   2.989   1.341   1.690
 1724SOL    HW1 5197   3.036   1.341   1.778
 1724SOL    HW2 5198   2.941   1.254   1.679
 1725SOL     OW 5199   2.092   1.434   0.538
 1725SOL    HW1 5200   2.066   1.530   0.538
 1725SOL    HW2 5201   2.021   1.380   0.583
 1726SOL     OW 5202   2.102   1.091   0.886
 1726SOL    HW1 5203   2.116   1.007   0.938
 1726SOL    HW2 5204   2.047   1.155   0.941
 1727SOL     OW 5205   2.482   1.786   1.439
 1727SOL    HW1 5206   2.390   1.769   1.474
 1727SOL    HW2 5207   2.510   1.878   1.465
 1728SOL     OW 5208   2.468   0.964   0.123
 1728SOL    HW1 5209   2.475   1.048   0.069
 1728SOL    HW2 5210   2.514   0.977   0.211
 1729SOL     OW 5211   3.456   0.114   1.480
 1729SOL    HW1 5212   3.438   0.181   1.408
 1729SOL    HW2 5213   3.453   0.160   1.569
 1730SOL     OW 5214   1.984   0.643   0.563
 1730SOL    HW1 5215   1.939   0.555   0.580
 1730SOL    HW2 5216   1.983   0.697   0.647
 1731SOL     OW 5217   3.704   1.767   0.359
 1731SOL    HW1 5218   3.758   1.738   0.439
 1731SOL    HW2 5219   3.734   1.857   0.330
 1732SOL     OW 5220   1.889   1.596   0.117
 1732SOL    HW1 5221   1.870   1.500   0.138
 1732SOL    HW2 5222   1.856   1.654   0.192
 1733SOL     OW 5223   3.551   0.922   0.612
 1733SOL    HW1 5224   3.646   0.893   0.620
 1733SOL    HW2 5225   3.543   0.987   0.537
 1734SOL     OW 5226   3.503   1.108   0.432
 1734SOL    HW1 5227   3.589   1.110   0.380
 1734SOL    HW2 5228   3.517   1.155   0.520
 1735SOL     OW 5229   1.975   0.737   1.597
 1735SOL    HW1 5230   2.063   0.724   1.642
 1735SOL    HW2 5231   1.962   0.834   1.575
 1736SOL     OW 5232   2.475   1.365   0.726
 1736SOL    HW1 5233   2.426   1.278   0.735
 1736SOL    HW2 5234   2.452   1.408   0.639
 1737SOL     OW 5235   3.155   1.228   1.423
 1737SOL    HW1 5236   3.192   1.155   1.365
 1737SOL    HW2 5237   3.207   1.233   1.508
 1738SOL     OW 5238   2.671   0.004   0.502
 1738SOL    HW1 5239   2.711   0.095   0.493
 1738SOL    HW2 5240   2.571   0.012   0.508
 1739SOL     OW 5241   2.059   0.976   1.264
 1739SOL    HW1 5242   2.148   0.931   1.250
 1739SOL    HW2 5243   1.986   0.911   1.245
 1740SOL     OW 5244   3.387   0.999   0.190
 1740SOL    HW1 5245   3.324   0.923   0.203
 1740SOL    HW2 5246   3.435   1.017   0.276
 1741SOL     OW 5247   3.049   1.792   1.616
 1741SOL    HW1 5248   3.073   1.852   1.540
 1741SOL    HW2 5249   3.056   1.697   1.586
 1742SOL     OW 5250   2.179   0.251   1.801
 1742SOL    HW1 5251   2.250   0.322   1.807
 1742SOL    HW2 5252   2.091   0.290   1.829
 1743SOL     OW 5253   3.328   1.417   0.953
 1743SOL    HW1 5254   3.269   1.423   1.033
 1743SOL    HW2 5255   3.313   1.329   0.907
 1744SOL     OW 5256   3.529   1.714   0.572
 1744SOL    HW1 5257   3.488   1.691   0.484
 1744SOL    HW2 5258   3.511   1.640   0.637
 1745SOL     OW 5259   2.460   0.729   0.270
 1745SOL    HW1 5260   2.484   0.798   0.202
 1745SOL    HW2 5261   2.382   0.762   0.324
 1746SOL     OW 5262   3.143   0.345   0.944
 1746SOL    HW1 5263   3.057   0.295   0.931
 1746SOL    HW2 5264   3.205   0.291   1.000
 1747SOL     OW 5265   3.438   1.662   0.307
 1747SOL    HW1 5266   3.527   1.708   0.310
 1747SOL    HW2 5267   3.417   1.638   0.212
 1748SOL     OW 5268   2.669   0.605   1.465
 1748SOL    HW1 5269   2.622   0.602   1.554
 1748SOL    HW2 5270   2.618   0.550   1.399
 1749SOL     OW 5271   3.256   0.469   1.674
 1749SOL    HW1 5272   3.236   0.512   1.762
 1749SOL    HW2 5273   3.334   0.407   1.683
 1750SOL     OW 5274   2.835   0.890   1.572
 1750SOL    HW1 5275   2.881   0.806   1.543
 1750SOL    HW2 5276   2.779   0.924   1.497
 1751SOL     OW 5277   2.853   0.410   1.242
 1751SOL    HW1 5278   2.776   0.444   1.296
 1751SOL    HW2 5279   2.819   0.359   1.163
 1752SOL     OW 5280   2.903   0.701   0.429
 1752SOL    HW1 5281   2.929   0.697   0.525
 1752SOL    HW2 5282   2.818   0.650   0.415
 1753SOL     OW 5283   1.938   0.811   0.789
 1753SOL    HW1 5284   2.037   0.799   0.798
 1753SOL    HW2 5285   1.914   0.906   0.810
 1754SOL     OW 5286   1.992   1.821   1.571
 1754SOL    HW1 5287   1.982   1.806   1.670
 1754SOL    HW2 5288   1.906   1.857   1.535
 1755SOL     OW 5289   2.727   0.348   0.195
 1755SOL    HW1 5290   2.786   0.411   0.146
 1755SOL    HW2 5291   2.746   0.254   0.166
 1756SOL     OW 5292   3.581   0.585   1.831
 1756SOL    HW1 5293   3.555   0.674   1.795
 1756SOL    HW2 5294   3.579   0.517   1.758
 1757SOL     OW 5295   3.224   1.144   0.545
 1757SOL    HW1 5296   3.307   1.115   0.497
 1757SOL    HW2 5297   3.175   1.211   0.489
 1758SOL     OW 5298   2.412   0.196   0.885
 1758SOL    HW1 5299   2.407   0.191   0.985
 1758SOL    HW2 5300   2.414   0.292   0.856
 1759SOL     OW 5301   2.870   1.456   0.477
 1759SOL    HW1 5302   2.824   1.528   0.425
 1759SOL    HW2 5303   2.866   1.476   0.575
 1760SOL     OW 5304   2.213   1.801   0.853
 1760SOL    HW1 5305   2.263   1.715   0.859
 1760SOL    HW2 5306   2.278   1.878   0.850
 1761SOL     OW 5307   3.657   1.066   0.873
 1761SOL    HW1 5308   3.595   1.051   0.797
 1761SOL    HW2 5309   3.605   1.077   0.958
 1762SOL     OW 5310   3.089   1.550   1.506
 1762SOL    HW1 5311   3.095   1.473   1.570
 1762SOL    HW2 5312   3.037   1.524   1.426
 1763SOL     OW 5313   2.183   0.943   0.242
 1763SOL    HW1 5314   2.265   0.982   0.200
 1763SOL    HW2 5315   2.156   0.861   0.193
 1764SOL     OW 5316   3.320   0.735   0.728
 1764SOL    HW1 5317   3.315   0.670   0.803
 1764SOL    HW2 5318   3.400   0.794   0.741
 1765SOL     OW 5319   2.323   1.266   1.727
 1765SOL    HW1 5320   2.273   1.267   1.641
 1765SOL    HW2 5321   2.260   1.248   1.803
 1766SOL     OW 5322   2.973   1.776   0.237
 1766SOL    HW1 5323   2.913   1.714   0.287
 1766SOL    HW2 5324   3.004   1.732   0.152
 1767SOL     OW 5325   2.064   0.285   1.498
 1767SOL    HW1 5326   1.984   0.345   1.485
 1767SOL    HW2 5327   2.054   0.236   1.584
 1768SOL     OW 5328   3.494   1.377   0.081
 1768SOL    HW1 5329   3.462   1.471   0.071
 1768SOL    HW2 5330   3.418   1.314   0.069
 1769SOL     OW 5331   2.326   1.743   0.323
 1769SOL    HW1 5332   2.359   1.782   0.409
 1769SOL    HW2 5333   2.402   1.736   0.258
 1770SOL     OW 5334   3.262   0.107   0.426
 1770SOL    HW1 5335   3.238   0.070   0.336
 1770SOL    HW2 5336   3.361   0.123   0.430
 1771SOL     OW 5337   2.111   1.785   1.241
 1771SOL    HW1 5338   2.168   1.720   1.291
 1771SOL    HW2 5339   2.095   1.752   1.148
 1772SOL     OW 5340   2.802   1.698   0.904
 1772SOL    HW1 5341   2.882   1.641   0.925
 1772SOL    HW2 5342   2.753   1.658   0.827
 1773SOL     OW 5343   2.244   0.700   0.480
 1773SOL    HW1 5344   2.289   0.610   0.477
 1773SOL    HW2 5345   2.150   0.689   0.513
 1774SOL     OW 5346   3.409   0.222   1.729
 1774SOL    HW1 5347   3.404   0.259   1.821
 1774SOL    HW2 5348   3.337   0.153   1.717
 1775SOL     OW 5349   2.476   0.122   0.117
 1775SOL    HW1 5350   2.574   0.100   0.124
 1775SOL    HW2 5351   2.445   0.105   0.024
 1776SOL     OW 5352   2.643   0.264   1.749
 1776SOL    HW1 5353   2.710   0.203   1.792
 1776SOL    HW2 5354   2.570   0.283   1.814
 1777SOL     OW 5355   2.750   1.514   1.195
 1777SOL    HW1 5356   2.727   1.489   1.101
 1777SOL    HW2 5357   2.811   1.445   1.234
 1778SOL     OW 5358   3.213   0.590   1.433
 1778SOL    HW1 5359   3.241   0.547   1.518
 1778SOL    HW2 5360   3.238   0.686   1.434
 1779SOL     OW 5361   2.665   1.402   0.924
 1779SOL    HW1 5362   2.755   1.416   0.882
 1779SOL    HW2 5363   2.594   1.404   0.853
 1780SOL     OW 5364   2.784   0.503   0.899
 1780SOL    HW1 5365   2.759   0.494   0.803
 1780SOL    HW2 5366   2.832   0.421   0.930
 1781SOL     OW 5367   2.401   0.064   0.512
 1781SOL    HW1 5368   2.320   0.065   0.570
 1781SOL    HW2 5369   2.404   0.147   0.457
 1782SOL     OW 5370   3.296   1.188   0.041
 1782SOL    HW1 5371   3.328   1.112   0.098
 1782SOL    HW2 5372   3.204   1.215   0.071
 1783SOL     OW 5373   2.159   0.035   0.171
 1783SOL    HW1 5374   2.208   0.119   0.150
 1783SOL    HW2 5375   2.221  -0.030   0.216
 1784SOL     OW 5376   2.797   0.236   0.480
 1784SOL    HW1 5377   2.749   0.277   0.402
 1784SOL    HW2 5378   2.896   0.234   0.461
 1785SOL     OW 5379   2.938   0.683   1.464
 1785SOL    HW1 5380   2.858   0.622   1.467
 1785SOL    HW2 5381   3.019   0.630   1.440
 1786SOL     OW 5382   3.089   1.570   0.793
 1786SOL    HW1 5383   3.110   1.644   0.728
 1786SOL    HW2 5384   3.157   1.570   0.866
 1787SOL     OW 5385   2.321   1.152   0.741
 1787SOL    HW1 5386   2.250   1.125   0.806
 1787SOL    HW2 5387   2.295   1.124   0.648
 1788SOL     OW 5388   3.133   1.797   0.591
 1788SOL    HW1 5389   3.177   1.861   0.527
 1788SOL    HW2 5390   3.083   1.849   0.661
 1789SOL     OW 5391   2.894   0.549   0.016
 1789SOL    HW1 5392   2.853   0.631  -0.023
 1789SOL    HW2 5393   2.958   0.575   0.089
 1790SOL     OW 5394   1.940   0.556   1.386
 1790SOL    HW1 5395   2.032   0.555   1.345
 1790SOL    HW2 5396   1.934   0.630   1.453
 1791SOL     OW 5397   2.423   0.222   1.147
 1791SOL    HW1 5398   2.461   0.138   1.184
 1791SOL    HW2 5399   2.335   0.241   1.191
 1792SOL     OW 5400   2.728   0.454   0.642
 1792SOL    HW1 5401   2.696   0.526   0.580
 1792SOL    HW2 5402   2.752   0.373   0.589
 1793SOL     OW 5403   2.879   0.039   0.753
 1793SOL    HW1 5404   2.807   0.044   0.684
 1793SOL    HW2 5405   2.855  -0.030   0.822
 1794SOL     OW 5406   3.291   1.173   0.867
 1794SOL    HW1 5407   3.236   1.089   0.860
 1794SOL    HW2 5408   3.317   1.202   0.775
 1795SOL     OW 5409   3.328   0.590   0.992
 1795SOL    HW1 5410   3.298   0.495   0.999
 1795SOL    HW2 5411   3.401   0.606   1.058
 1796SOL     OW 5412   3.719   0.833   0.377
 1796SOL    HW1 5413   3.761   0.769   0.441
 1796SOL    HW2 5414   3.681   0.782   0.299
 1797SOL     OW 5415   2.350   1.385   0.174
 1797SOL    HW1 5416   2.263   1.370   0.221
 1797SOL    HW2 5417   2.333   1.411   0.079
 1798SOL     OW 5418   3.526   1.280   0.657
 1798SOL    HW1 5419   3.625   1.288   0.671
 1798SOL    HW2 5420   3.481   1.364   0.688
 1799SOL     OW 5421   3.252   0.575   0.078
 1799SOL    HW1 5422   3.198   0.554   0.159
 1799SOL    HW2 5423   3.343   0.534   0.087
 1800SOL     OW 5424   2.389   0.256   0.328
 1800SOL    HW1 5425   2.416   0.197   0.253
 1800SOL    HW2 5426   2.389   0.351   0.297
 1801SOL     OW 5427   3.616   1.223   1.588
 1801SOL    HW1 5428   3.707   1.184   1.575
 1801SOL    HW2 5429   3.624   1.319   1.612
 1802SOL     OW 5430   2.926   1.347   1.340
 1802SOL    HW1 5431   2.846   1.324   1.395
 1802SOL    HW2 5432   3.009   1.321   1.389
 1803SOL     OW 5433   3.454   1.629   1.625
 1803SOL    HW1 5434   3.481   1.663   1.535
 1803SOL    HW2 5435   3.533   1.591   1.671
 1804SOL     OW 5436   2.973   1.195   1.100
 1804SOL    HW1 5437   2.933   1.239   1.181
 1804SOL    HW2 5438   2.932   1.232   1.017
 1805SOL     OW 5439   3.500   1.099   1.079
 1805SOL    HW1 5440   3.505   1.180   1.138
 1805SOL    HW2 5441   3.414   1.101   1.028
 1806SOL     OW 5442   2.777   0.089   1.402
 1806SOL    HW1 5443   2.802   0.069   1.307
 1806SOL    HW2 5444   2.849   0.145   1.444
 1807SOL     OW 5445   2.842   1.116   1.719
 1807SOL    HW1 5446   2.743   1.122   1.729
 1807SOL    HW2 5447   2.865   1.036   1.663
 1808SOL     OW 5448   2.567   1.050   0.368
 1808SOL    HW1 5449   2.553   1.057   0.467
 1808SOL    HW2 5450   2.651   0.999   0.350
 1809SOL     OW 5451   2.272   0.813   1.251
 1809SOL    HW1 5452   2.358   0.825   1.301
 1809SOL    HW2 5453   2.230   0.726   1.278
 1810SOL     OW 5454   3.136   0.386   1.262
 1810SOL    HW1 5455   3.157   0.460   1.326
 1810SOL    HW2 5456   3.047   0.403   1.219
 1811SOL     OW 5457   1.926   1.564   1.331
 1811SOL    HW1 5458   1.880   1.646   1.297
 1811SOL    HW2 5459   2.024   1.583   1.340
 1812SOL     OW 5460   2.229   1.100   0.501
 1812SOL    HW1 5461   2.222   1.183   0.445
 1812SOL    HW2 5462   2.233   1.020   0.441
 1813SOL     OW 5463   2.428   0.537   0.865
 1813SOL    HW1 5464   2.440   0.603   0.791
 1813SOL    HW2 5465   2.474   0.571   0.948
 1814SOL     OW 5466   3.114   1.348   0.388
 1814SOL    HW1 5467   3.164   1.425   0.428
 1814SOL    HW2 5468   3.019   1.350   0.420
 1815SOL     OW 5469   3.134   1.445   1.142
 1815SOL    HW1 5470   3.181   1.458   1.229
 1815SOL    HW2 5471   3.068   1.371   1.151
 1816SOL     OW 5472   3.444   0.639   0.472
 1816SOL    HW1 5473   3.413   0.700   0.545
 1816SOL    HW2 5474   3.494   0.691   0.403
 1817SOL     OW 5475   2.216   1.510   1.329
 1817SOL    HW1 5476   2.195   1.466   1.242
 1817SOL    HW2 5477   2.313   1.536   1.332
 1818SOL     OW 5478   2.264   0.751   1.598
 1818SOL    HW1 5479   2.332   0.806   1.551
 1818SOL    HW2 5480   2.304   0.663   1.625
 1819SOL     OW 5481   3.449   0.779   1.670
 1819SOL    HW1 5482   3.357   0.817   1.665
 1819SOL    HW2 5483   3.509   0.826   1.605
 1820SOL     OW 5484   2.875   0.105   1.770
 1820SOL    HW1 5485   2.881   0.190   1.718
 1820SOL    HW2 5486   2.907   0.029   1.713
 1821SOL     OW 5487   2.366   0.050   1.740
 1821SOL    HW1 5488   2.324  -0.007   1.670
 1821SOL    HW2 5489   2.300   0.119   1.772
 1822SOL     OW 5490   2.435   0.870   1.029
 1822SOL    HW1 5491   2.479   0.959   1.020
 1822SOL    HW2 5492   2.372   0.870   1.106
 1823SOL     OW 5493   3.222   0.862   1.045
 1823SOL    HW1 5494   3.147   0.862   0.979
 1823SOL    HW2 5495   3.259   0.770   1.054
 1824SOL     OW 5496   3.071   0.525   0.275
 1824SOL    HW1 5497   3.084   0.441   0.329
 1824SOL    HW2 5498   3.042   0.599   0.335
 1825SOL     OW 5499   2.169   0.213   1.231
 1825SOL    HW1 5500   2.146   0.250   1.321
 1825SOL    HW2 5501   2.139   0.118   1.225
 1826SOL     OW 5502   1.899   1.310   1.282
 1826SOL    HW1 5503   1.952   1.261   1.350
 1826SOL    HW2 5504   1.921   1.408   1.287
 1827SOL     OW 5505   2.594   0.634   1.064
 1827SOL    HW1 5506   2.653   0.608   0.988
 1827SOL    HW2 5507   2.566   0.730   1.053
 1828SOL     OW 5508   3.590   0.935   1.854
 1828SOL    HW1 5509   3.544   0.928   1.765
 1828SOL    HW2 5510   3.528   0.979   1.920
 1829SOL     OW 5511   2.169   0.063   0.618
 1829SOL    HW1 5512   2.158   0.157   0.651
 1829SOL    HW2 5513   2.164   0.000   0.695
 1830SOL     OW 5514   3.484   0.367   0.374
 1830SOL    HW1 5515   3.486   0.291   0.438
 1830SOL    HW2 5516   3.436   0.444   0.414
 1831SOL     OW 5517   2.885   0.766   0.966
 1831SOL    HW1 5518   2.900   0.787   1.062
 1831SOL    HW2 5519   2.855   0.671   0.957
 1832SOL     OW 5520   2.842   1.573   1.700
 1832SOL    HW1 5521   2.822   1.617   1.612
 1832SOL    HW2 5522   2.881   1.482   1.684
 1833SOL     OW 5523   3.721   1.518   1.605
 1833SOL    HW1 5524   3.735   1.545   1.510
 1833SOL    HW2 5525   3.804   1.540   1.658
 1834SOL     OW 5526   2.212   0.898   1.804
 1834SOL    HW1 5527   2.288   0.942   1.852
 1834SOL    HW2 5528   2.247   0.851   1.722
 1835SOL     OW 5529   3.402   0.274   0.125
 1835SOL    HW1 5530   3.341   0.199   0.148
 1835SOL    HW2 5531   3.424   0.326   0.208
 1836SOL     OW 5532   3.165   0.838   0.042
 1836SOL    HW1 5533   3.199   0.745   0.057
 1836SOL    HW2 5534   3.183   0.865  -0.053
 1837SOL     OW 5535   2.930   1.333   0.849
 1837SOL    HW1 5536   2.937   1.249   0.794
 1837SOL    HW2 5537   2.992   1.402   0.813
 1838SOL     OW 5538   2.181   0.810   0.949
 1838SOL    HW1 5539   2.274   0.846   0.954
 1838SOL    HW2 5540   2.175   0.725   1.001
 1839SOL     OW 5541   2.201   0.509   1.006
 1839SOL    HW1 5542   2.149   0.426   0.989
 1839SOL    HW2 5543   2.278   0.514   0.942
 1840SOL     OW 5544   3.000   0.380   1.678
 1840SOL    HW1 5545   2.955   0.443   1.742
 1840SOL    HW2 5546   3.093   0.411   1.661
 1841SOL     OW 5547   3.022   0.207   1.477
 1841SOL    HW1 5548   3.022   0.271   1.554
 1841SOL    HW2 5549   3.050   0.255   1.394
 1842SOL     OW 5550   1.870   1.326   0.200
 1842SOL    HW1 5551   1.777   1.347   0.169
 1842SOL    HW2 5552   1.880   1.227   0.213
 1843SOL     OW 5553   1.950   1.801   0.927
 1843SOL    HW1 5554   1.908   1.715   0.900
 1843SOL    HW2 5555   2.044   1.804   0.893
 1844SOL     OW 5556   2.366   1.568   0.910
 1844SOL    HW1 5557   2.432   1.642   0.919
 1844SOL    HW2 5558   2.410   1.489   0.868
 1845SOL     OW 5559   2.864   0.796   1.238
 1845SOL    HW1 5560   2.905   0.764   1.324
 1845SOL    HW2 5561   2.768   0.769   1.235
 1846SOL     OW 5562   1.902   0.544   1.114
 1846SOL    HW1 5563   1.987   0.511   1.073
 1846SOL    HW2 5564   1.915   0.559   1.212
 1847SOL     OW 5565   2.051   0.520   1.722
 1847SOL    HW1 5566   2.110   0.480   1.652
 1847SOL    HW2 5567   1.993   0.591   1.681
 1848SOL     OW 5568   3.231   0.950   1.660
 1848SOL    HW1 5569   3.270   1.039   1.680
 1848SOL    HW2 5570   3.241   0.930   1.563
 1849SOL     OW 5571   2.677   0.572   0.325
 1849SOL    HW1 5572   2.684   0.483   0.279
 1849SOL    HW2 5573   2.583   0.606   0.317
 1850SOL     OW 5574   3.519   0.604   1.206
 1850SOL    HW1 5575   3.481   0.535   1.268
 1850SOL    HW2 5576   3.601   0.568   1.162
 1851SOL     OW 5577   2.114   1.564   1.744
 1851SOL    HW1 5578   2.084   1.621   1.820
 1851SOL    HW2 5579   2.107   1.467   1.770
 1852SOL     OW 5580   2.533   0.464   1.269
 1852SOL    HW1 5581   2.499   0.375   1.239
 1852SOL    HW2 5582   2.559   0.518   1.189
 1853SOL     OW 5583   2.792   1.678   1.465
 1853SOL    HW1 5584   2.768   1.660   1.370
 1853SOL    HW2 5585   2.822   1.772   1.475
 1854SOL     OW 5586   2.335   0.500   0.191
 1854SOL    HW1 5587   2.396   0.580   0.195
 1854SOL    HW2 5588   2.240   0.531   0.198
 1855SOL     OW 5589   2.021   1.137   1.466
 1855SOL    HW1 5590   2.043   1.076   1.542
 1855SOL    HW2 5591   2.031   1.088   1.380
 1856SOL     OW 5592   3.209   1.059   1.234
 1856SOL    HW1 5593   3.233   0.996   1.160
 1856SOL    HW2 5594   3.119   1.099   1.216
 1857SOL     OW 5595   3.164   0.855   0.309
 1857SOL    HW1 5596   3.078   0.824   0.351
 1857SOL    HW2 5597   3.160   0.841   0.210
 1858SOL     OW 5598   3.621   1.747   1.154
 1858SOL    HW1 5599   3.682   1.777   1.081
 1858SOL    HW2 5600   3.583   1.658   1.132
 1859SOL     OW 5601   3.114   1.731   1.128
 1859SOL    HW1 5602   3.198   1.736   1.074
 1859SOL    HW2 5603   3.091   1.635   1.146
 1860SOL     OW 5604   1.945   1.258   1.022
 1860SOL    HW1 5605   1.940   1.257   1.122
 1860SOL    HW2 5606   1.862   1.217   0.984
 1861SOL     OW 5607   2.550   1.662   1.716
 1861SOL    HW1 5608   2.494   1.743   1.725
 1861SOL    HW2 5609   2.602   1.666   1.630
 1862SOL     OW 5610   2.765   0.086   0.133
 1862SOL    HW1 5611   2.816   0.087   0.047
 1862SOL    HW2 5612   2.821   0.044   0.204
 1863SOL     OW 5613   3.588   0.135   0.523
 1863SOL    HW1 5614   3.661   0.118   0.456
 1863SOL    HW2 5615   3.557   0.048   0.561
 1864SOL     OW 5616   3.250   1.573   0.477
 1864SOL    HW1 5617   3.317   1.585   0.403
 1864SOL    HW2 5618   3.210   1.662   0.500
 1865SOL     OW 5619   1.992   1.794   1.851
 1865SOL    HW1 5620   1.951   1.720   1.904
 1865SOL    HW2 5621   2.056   1.845   1.909
 1866SOL     OW 5622   3.142   0.927   0.672
 1866SOL    HW1 5623   3.202   0.846   0.674
 1866SOL    HW2 5624   3.182   0.996   0.612
 1867SOL     OW 5625   2.692   1.273   1.422
 1867SOL    HW1 5626   2.687   1.306   1.517
 1867SOL    HW2 5627   2.606   1.292   1.376
 1868SOL     OW 5628   2.534   1.616   0.154
 1868SOL    HW1 5629   2.543   1.626   0.055
 1868SOL    HW2 5630   2.494   1.527   0.175
 1869SOL     OW 5631   3.512   1.720   1.394
 1869SOL    HW1 5632   3.565   1.730   1.310
 1869SOL    HW2 5633   3.485   1.810   1.428
 1870SOL     OW 5634   3.703   0.175   0.963
 1870SOL    HW1 5635   3.742   0.090   0.927
 1870SOL    HW2 5636   3.605   0.177   0.944
 1871SOL     OW 5637   2.125   0.326   0.720
 1871SOL    HW1 5638   2.046   0.377   0.686
 1871SOL    HW2 5639   2.116   0.311   0.818
 1872SOL     OW 5640   3.056   1.612   0.031
 1872SOL    HW1 5641   3.062   1.519   0.068
 1872SOL    HW2 5642   2.997   1.612  -0.049
 1873SOL     OW 5643   2.684   1.002   1.372
 1873SOL    HW1 5644   2.724   1.001   1.280
 1873SOL    HW2 5645   2.694   1.094   1.412
 1874SOL     OW 5646   2.778   0.910   0.291
 1874SOL    HW1 5647   2.841   0.948   0.223
 1874SOL    HW2 5648   2.818   0.827   0.330
 1875SOL     OW 5649   3.366   1.607   0.044
 1875SOL    HW1 5650   3.274   1.644   0.051
 1875SOL    HW2 5651   3.404   1.627  -0.046
 1876SOL     OW 5652   2.234   1.288   1.490
 1876SOL    HW1 5653   2.221   1.381   1.456
 1876SOL    HW2 5654   2.150   1.236   1.477
 1877SOL     OW 5655   3.476   1.292   1.289
 1877SOL    HW1 5656   3.536   1.295   1.369
 1877SOL    HW2 5657   3.401   1.356   1.302
 1878SOL     OW 5658   2.901   1.098   0.696
 1878SOL    HW1 5659   2.831   1.051   0.750
 1878SOL    HW2 5660   2.960   1.030   0.653
 1879SOL     OW 5661   2.876   0.236   0.971
 1879SOL    HW1 5662   2.868   0.200   0.878
 1879SOL    HW2 5663   2.874   0.160   1.036
 1880SOL     OW 5664   2.452   1.487   0.491
 1880SOL    HW1 5665   2.494   1.429   0.421
 1880SOL    HW2 5666   2.408   1.566   0.447
 1881SOL     OW 5667   3.571   0.385   1.381
 1881SOL    HW1 5668   3.644   0.454   1.385
 1881SOL    HW2 5669   3.599   0.310   1.322
 1882SOL     OW 5670   2.117   1.348   0.290
 1882SOL    HW1 5671   2.021   1.349   0.263
 1882SOL    HW2 5672   2.129   1.401   0.374
 1883SOL     OW 5673   1.967   1.013   1.726
 1883SOL    HW1 5674   1.890   0.980   1.780
 1883SOL    HW2 5675   2.052   0.983   1.768
 1884SOL     OW 5676   2.534   0.203   1.489
 1884SOL    HW1 5677   2.624   0.187   1.449
 1884SOL    HW2 5678   2.542   0.208   1.588
 1885SOL     OW 5679   3.302   0.856   1.398
 1885SOL    HW1 5680   3.245   0.908   1.335
 1885SOL    HW2 5681   3.398   0.868   1.374
 1886SOL     OW 5682   1.934   0.166   0.318
 1886SOL    HW1 5683   1.917   0.249   0.264
 1886SOL    HW2 5684   2.024   0.129   0.296
 1887SOL     OW 5685   3.045   1.335   0.119
 1887SOL    HW1 5686   2.946   1.324   0.121
 1887SOL    HW2 5687   3.079   1.350   0.212
 1888SOL     OW 5688   2.475   0.842   1.431
 1888SOL    HW1 5689   2.531   0.923   1.414
 1888SOL    HW2 5690   2.534   0.762   1.434
 1889SOL     OW 5691   3.355   1.767   0.959
 1889SOL    HW1 5692   3.388   1.831   0.890
 1889SOL    HW2 5693   3.421   1.761   1.034
 1890SOL     OW 5694   2.578   0.565   1.708
 1890SOL    HW1 5695   2.597   0.630   1.782
 1890SOL    HW2 5696   2.638   0.485   1.717
 1891SOL     OW 5697   3.312   1.220   1.633
 1891SOL    HW1 5698   3.303   1.210   1.732
 1891SOL    HW2 5699   3.408   1.213   1.607
 1892SOL     OW 5700   2.252   1.741   1.560
 1892SOL    HW1 5701   2.161   1.782   1.558
 1892SOL    HW2 5702   2.245   1.647   1.592
 1893SOL     OW 5703   3.536   0.883   1.254
 1893SOL    HW1 5704   3.509   0.794   1.217
 1893SOL    HW2 5705   3.537   0.951   1.181
 1894SOL     OW 5706   3.087   0.325   0.449
 1894SOL    HW1 5707   3.152   0.251   0.438
 1894SOL    HW2 5708   3.107   0.375   0.533
 1895SOL     OW 5709   2.456   0.745   0.652
 1895SOL    HW1 5710   2.506   0.830   0.633
 1895SOL    HW2 5711   2.368   0.747   0.604
 1896SOL     OW 5712   3.639   0.342   1.642
 1896SOL    HW1 5713   3.622   0.373   1.548
 1896SOL    HW2 5714   3.555   0.305   1.680
 1897SOL     OW 5715   3.592   0.934   1.517
 1897SOL    HW1 5716   3.630   1.025   1.532
 1897SOL    HW2 5717   3.584   0.917   1.418
 1898SOL     OW 5718   2.721   1.374   0.016
 1898SOL    HW1 5719   2.675   1.389   0.104
 1898SOL    HW2 5720   2.765   1.459  -0.014
 1899SOL     OW 5721   2.523   1.790   0.953
 1899SOL    HW1 5722   2.477   1.878   0.940
 1899SOL    HW2 5723   2.622   1.802   0.946
 1900SOL     OW 5724   2.721   0.956   0.861
 1900SOL    HW1 5725   2.775   0.887   0.909
 1900SOL    HW2 5726   2.689   1.025   0.927
 1901SOL     OW 5727   2.945   0.984   0.087
 1901SOL    HW1 5728   2.922   1.037   0.005
 1901SOL    HW2 5729   3.026   0.928   0.068
 1902SOL     OW 5730   3.723   1.569   0.851
 1902SOL    HW1 5731   3.652   1.557   0.781
 1902SOL    HW2 5732   3.724   1.490   0.911
 1903SOL     OW 5733   2.083   1.314   1.844
 1903SOL    HW1 5734   2.018   1.241   1.823
 1903SOL    HW2 5735   2.087   1.328   1.942
 1904SOL     OW 5736   1.941   1.240   0.653
 1904SOL    HW1 5737   1.940   1.193   0.741
 1904SOL    HW2 5738   2.023   1.212   0.602
 1905SOL     OW 5739   2.534   1.391   1.624
 1905SOL    HW1 5740   2.456   1.341   1.662
 1905SOL    HW2 5741   2.531   1.486   1.655
 1906SOL     OW 5742   3.686   0.192   1.227
 1906SOL    HW1 5743   3.682   0.102   1.271
 1906SOL    HW2 5744   3.689   0.181   1.128
 1907SOL     OW 5745   2.290   0.424   0.520
 1907SOL    HW1 5746   2.320   0.352   0.458
 1907SOL    HW2 5747   2.251   0.384   0.603
 1908SOL     OW 5748   3.567   1.487   1.104
 1908SOL    HW1 5749   3.474   1.462   1.077
 1908SOL    HW2 5750   3.593   1.437   1.186
 1909SOL     OW 5751   2.179   0.547   1.280
 1909SOL    HW1 5752   2.217   0.488   1.352
 1909SOL    HW2 5753   2.219   0.521   1.192
 1910SOL     OW 5754   2.674   1.586   0.687
 1910SOL    HW1 5755   2.706   1.596   0.593
 1910SOL    HW2 5756   2.595   1.524   0.689
 1911SOL     OW 5757   3.286   0.214   1.112
 1911SOL    HW1 5758   3.338   0.149   1.167
 1911SOL    HW2 5759   3.237   0.277   1.173
 1912SOL     OW 5760   2.863   0.034   1.154
 1912SOL    HW1 5761   2.800  -0.038   1.123
 1912SOL    HW2 5762   2.956  -0.002   1.154
 1913SOL     OW 5763   2.632   1.330   0.301
 1913SOL    HW1 5764   2.586   1.243   0.318
 1913SOL    HW2 5765   2.723   1.327   0.342
 1914SOL     OW 5766   2.480   1.567   1.284
 1914SOL    HW1 5767   2.475   1.649   1.341
 1914SOL    HW2 5768   2.569   1.564   1.239
 1915SOL     OW 5769   3.214   0.052   0.168
 1915SOL    HW1 5770   3.249   0.011   0.084
 1915SOL    HW2 5771   3.124   0.014   0.188
 1916SOL     OW 5772   3.162   0.453   0.691
 1916SOL    HW1 5773   3.103   0.533   0.695
 1916SOL    HW2 5774   3.177   0.418   0.784
 1917SOL     OW 5775   3.455   0.221   0.882
 1917SOL    HW1 5776   3.371   0.220   0.936
 1917SOL    HW2 5777   3.457   0.304   0.826
 1918SOL     OW 5778   1.901   1.077   0.300
 1918SOL    HW1 5779   2.000   1.066   0.291
 1918SOL    HW2 5780   1.861   0.991   0.332
 1919SOL     OW 5781   2.737   1.646   0.337
 1919SOL    HW1 5782   2.660   1.611   0.283
 1919SOL    HW2 5783   2.705   1.717   0.399
 1920SOL     OW 5784   2.092   0.628   1.975
 1920SOL    HW1 5785   1.999   0.626   2.012
 1920SOL    HW2 5786   2.093   0.589   1.883
 1921SOL     OW 5787   2.087   0.275   2.858
 1921SOL    HW1 5788   2.122   0.258   2.950
 1921SOL    HW2 5789   1.999   0.230   2.846
 1922SOL     OW 5790   1.881   0.368   2.509
 1922SOL    HW1 5791   1.799   0.411   2.548
 1922SOL    HW2 5792   1.853   0.295   2.446
 1923SOL     OW 5793   2.431   1.275   3.027
 1923SOL    HW1 5794   2.338   1.268   2.990
 1923SOL    HW2 5795   2.442   1.364   3.071
 1924SOL     OW 5796   3.417   1.511   2.565
 1924SOL    HW1 5797   3.360   1.495   2.646
 1924SOL    HW2 5798   3.358   1.521   2.485
 1925SOL     OW 5799   2.997   0.703   2.579
 1925SOL    HW1 5800   3.054   0.781   2.554
 1925SOL    HW2 5801   2.937   0.729   2.655
 1926SOL     OW 5802   3.617   0.607   2.093
 1926SOL    HW1 5803   3.605   0.594   1.994
 1926SOL    HW2 5804   3.587   0.526   2.142
 1927SOL     OW 5805   2.630   1.144   2.885
 1927SOL    HW1 5806   2.552   1.161   2.945
 1927SOL    HW2 5807   2.664   1.231   2.849
 1928SOL     OW 5808   2.712   0.798   3.685
 1928SOL    HW1 5809   2.708   0.874   3.750
 1928SOL    HW2 5810   2.734   0.834   3.594
 1929SOL     OW 5811   2.547   1.012   2.527
 1929SOL    HW1 5812   2.616   0.996   2.597
 1929SOL    HW2 5813   2.474   1.069   2.565
 1930SOL     OW 5814   2.548   1.161   3.665
 1930SOL    HW1 5815   2.608   1.240   3.679
 1930SOL    HW2 5816   2.462   1.192   3.624
 1931SOL     OW 5817   2.197   1.435   2.923
 1931SOL    HW1 5818   2.119   1.404   2.870
 1931SOL    HW2 5819   2.255   1.493   2.866
 1932SOL     OW 5820   3.322   1.505   3.201
 1932SOL    HW1 5821   3.346   1.599   3.227
 1932SOL    HW2 5822   3.306   1.451   3.283
 1933SOL     OW 5823   2.300   0.392   3.361
 1933SOL    HW1 5824   2.382   0.336   3.370
 1933SOL    HW2 5825   2.219   0.334   3.365
 1934SOL     OW 5826   3.465   0.447   2.599
 1934SOL    HW1 5827   3.391   0.493   2.549
 1934SOL    HW2 5828   3.516   0.515   2.652
 1935SOL     OW 5829   2.093   1.713   2.345
 1935SOL    HW1 5830   2.127   1.790   2.399
 1935SOL    HW2 5831   2.137   1.713   2.255
 1936SOL     OW 5832   2.989   1.341   3.552
 1936SOL    HW1 5833   3.036   1.341   3.640
 1936SOL    HW2 5834   2.941   1.254   3.541
 1937SOL     OW 5835   2.092   1.434   2.400
 1937SOL    HW1 5836   2.066   1.530   2.400
 1937SOL    HW2 5837   2.021   1.380   2.445
 1938SOL     OW 5838   2.102   1.091   2.748
 1938SOL    HW1 5839   2.116   1.007   2.800
 1938SOL    HW2 5840   2.047   1.155   2.803
 1939SOL     OW 5841   2.482   1.786   3.301
 1939SOL    HW1 5842   2.390   1.769   3.336
 1939SOL    HW2 5843   2.510   1.878   3.327
 1940SOL     OW 5844   2.468   0.964   1.985
 1940SOL    HW1 5845   2.475   1.048   1.931
 1940SOL    HW2 5846   2.514   0.977   2.073
 1941SOL     OW 5847   3.456   0.114   3.342
 1941SOL    HW1 5848   3.438   0.181   3.270
 1941SOL    HW2 5849   3.453   0.160   3.431
 1942SOL     OW 5850   1.984   0.643   2.425
 1942SOL    HW1 5851   1.939   0.555   2.442
 1942SOL    HW2 5852   1.983   0.697   2.509
 1943SOL     OW 5853   3.704   1.767   2.221
 1943SOL    HW1 5854   3.758   1.738   2.301
 1943SOL    HW2 5855   3.734   1.857   2.192
 1944SOL     OW 5856   1.889   1.596   1.979
 1944SOL    HW1 5857   1.870   1.500   2.000
 1944SOL    HW2 5858   1.856   1.654   2.054
 1945SOL     OW 5859   3.551   0.922   2.474
 1945SOL    HW1 5860   3.646   0.893   2.482
 1945SOL    HW2 5861   3.543   0.987   2.399
 1946SOL     OW 5862   3.503   1.108   2.294
 1946SOL    HW1 5863   3.589   1.110   2.242
 1946SOL    HW2 5864   3.517   1.155   2.382
 1947SOL     OW 5865   1.975   0.737   3.459
 1947SOL    HW1 5866   2.063   0.724   3.504
 1947SOL    HW2 5867   1.962   0.834   3.437
 1948SOL     OW 5868   2.475   1.365   2.588
 1948SOL    HW1 5869   2.426   1.278   2.597
 1948SOL    HW2 5870   2.452   1.408   2.501
 1949SOL     OW 5871   3.155   1.228   3.285
 1949SOL    HW1 5872   3.192   1.155   3.227
 1949SOL    HW2 5873   3.207   1.233   3.370
 1950SOL     OW 5874   2.671   0.004   2.364
 1950SOL    HW1 5875   2.711   0.095   2.355
 1950SOL    HW2 5876   2.571   0.012   2.370
 1951SOL     OW 5877   2.059   0.976   3.126
 1951SOL    HW1 5878   2.148   0.931   3.112
 1951SOL    HW2 5879   1.986   0.911   3.107
 1952SOL     OW 5880   3.387   0.999   2.052
 1952SOL    HW1 5881   3.324   0.923   2.065
 1952SOL    HW2 5882   3.435   1.017   2.138
 1953SOL     OW 5883   3.049   1.792   3.478
 1953SOL    HW1 5884   3.073   1.852   3.402
 1953SOL    HW2 5885   3.056   1.697   3.448
 1954SOL     OW 5886   2.179   0.251   3.663
 1954SOL    HW1 5887   2.250   0.322   3.669
 1954SOL    HW2 5888   2.091   0.290   3.691
 1955SOL     OW 5889   3.328   1.417   2.815
 1955SOL    HW1 5890   3.269   1.423   2.895
 1955SOL    HW2 5891   3.313   1.329   2.769
 1956SOL     OW 5892   3.529   1.714   2.434
 1956SOL    HW1 5893   3.488   1.691   2.346
 1956SOL    HW2 5894   3.511   1.640   2.499
 1957SOL     OW 5895   2.460   0.729   2.132
 1957SOL    HW1 5896   2.484   0.798   2.064
 1957SOL    HW2 5897   2.382   0.762   2.186
 1958SOL     OW 5898   3.143   0.345   2.806
 1958SOL    HW1 5899   3.057   0.295   2.793
 1958SOL    HW2 5900   3.205   0.291   2.862
 1959SOL     OW 5901   3.438   1.662   2.169
 1959SOL    HW1 5902   3.527   1.708   2.172
 1959SOL    HW2 5903   3.417   1.638   2.074
 1960SOL     OW 5904   2.669   0.605   3.327
 1960SOL    HW1 5905   2.622   0.602   3.416
 1960SOL    HW2 5906   2.618   0.550   3.261
 1961SOL     OW 5907   3.256   0.469   3.536
 1961SOL    HW1 5908   3.236   0.512   3.624
 1961SOL    HW2 5909   3.334   0.407   3.545
 1962SOL     OW 5910   2.835   0.890   3.434
 1962SOL    HW1 5911   2.881   0.806   3.405
 1962SOL    HW2 5912   2.779   0.924   3.359
 1963SOL     OW 5913   2.853   0.410   3.104
 1963SOL    HW1 5914   2.776   0.444   3.158
 1963SOL    HW2 5915   2.819   0.359   3.025
 1964SOL     OW 5916   2.903   0.701   2.291
 1964SOL    HW1 5917   2.929   0.697   2.387
 1964SOL    HW2 5918   2.818   0.650   2.277
 1965SOL     OW 5919   1.938   0.811   2.651
 1965SOL    HW1 5920   2.037   0.799   2.660
 1965SOL    HW2 5921   1.914   0.906   2.672
 1966SOL     OW 5922   1.992   1.821   3.433
 1966SOL    HW1 5923   1.982   1.806   3.532
 1966SOL    HW2 5924   1.906   1.857   3.397
 1967SOL     OW 5925   2.727   0.348   2.057
 1967SOL    HW1 5926   2.786   0.411   2.008
 1967SOL    HW2 5927   2.746   0.254   2.028
 1968SOL     OW 5928   3.581   0.585   3.693
 1968SOL    HW1 5929   3.555   0.674   3.657
 1968SOL    HW2 5930   3.579   0.517   3.620
 1969SOL     OW 5931   3.224   1.144   2.407
 1969SOL    HW1 5932   3.307   1.115   2.359
 1969SOL    HW2 5933   3.175   1.211   2.351
 1970SOL     OW 5934   2.412   0.196   2.747
 1970SOL    HW1 5935   2.407   0.191   2.847
 1970SOL    HW2 5936   2.414   0.292   2.718
 1971SOL     OW 5937   2.870   1.456   2.339
 1971SOL    HW1 5938   2.824   1.528   2.287
 1971SOL    HW2 5939   2.866   1.476   2.437
 1972SOL     OW 5940   2.213   1.801   2.715
 1972SOL    HW1 5941   2.263   1.715   2.721
 1972SOL    HW2 5942   2.278   1.878   2.712
 1973SOL     OW 5943   3.657   1.066   2.735
 1973SOL    HW1 5944   3.595   1.051   2.659
 1973SOL    HW2 5945   3.605   1.077   2.820
 1974SOL     OW 5946   3.089   1.550   3.368
 1974SOL    HW1 5947   3.095   1.473   3.432
 1974SOL    HW2 5948   3.037   1.524   3.288
 1975SOL     OW 5949   2.183   0.943   2.104
 1975SOL    HW1 5950   2.265   0.982   2.062
 1975SOL    HW2 5951   2.156   0.861   2.055
 1976SOL     OW 5952   3.320   0.735   2.590
 1976SOL    HW1 5953   3.315   0.670   2.665
 1976SOL    HW2 5954   3.400   0.794   2.603
 1977SOL     OW 5955   2.323   1.266   3.589
 1977SOL    HW1 5956   2.273   1.267   3.503
 1977SOL    HW2 5957   2.260   1.248   3.665
 1978SOL     OW 5958   2.973   1.776   2.099
 1978SOL    HW1 5959   2.913   1.714   2.149
 1978SOL    HW2 5960   3.004   1.732   2.014
 1979SOL     OW 5961   2.064   0.285   3.360
 1979SOL    HW1 5962   1.984   0.345   3.347
 1979SOL    HW2 5963   2.054   0.236   3.446
 1980SOL     OW 5964   3.494   1.377   1.943
 1980SOL    HW1 5965   3.462   1.471   1.933
 1980SOL    HW2 5966   3.418   1.314   1.931
 1981SOL     OW 5967   2.326   1.743   2.185
 1981SOL    HW1 5968   2.359   1.782   2.271
 1981SOL    HW2 5969   2.402   1.736   2.120
 1982SOL     OW 5970   3.262   0.107   2.288
 1982SOL    HW1 5971   3.238   0.070   2.198
 1982SOL    HW2 5972   3.361   0.123   2.292
 1983SOL     OW 5973   2.111   1.785   3.103
 1983SOL    HW1 5974   2.168   1.720   3.153
 1983SOL    HW2 5975   2.095   1.752   3.010
 1984SOL     OW 5976   2.802   1.698   2.766
 1984SOL    HW1 5977   2.882   1.641   2.787
 1984SOL    HW2 5978   2.753   1.658   2.689
 1985SOL     OW 5979   2.244   0.700   2.342
 1985SOL    HW1 5980   2.289   0.610   2.339
 1985SOL    HW2 5981   2.150   0.689   2.375
 1986SOL     OW 5982   3.409   0.222   3.591
 1986SOL    HW1 5983   3.404   0.259   3.683
 1986SOL    HW2 5984   3.337   0.153   3.579
 1987SOL     OW 5985   2.476   0.122   1.979
 1987SOL    HW1 5986   2.574   0.100   1.986
 1987SOL    HW2 5987   2.445   0.105   1.886
 1988SOL     OW 5988   2.643   0.264   3.611
 1988SOL    HW1 5989   2.710   0.203   3.654
 1988SOL    HW2 5990   2.570   0.283   3.676
 1989SOL     OW 5991   2.750   1.514   3.057
 1989SOL    HW1 5992   2.727   1.489   2.963
 1989SOL    HW2 5993   2.811   1.445   3.096
 1990SOL     OW 5994   3.213   0.590   3.295
 1990SOL    HW1 5995   3.241   0.547   3.380
 1990SOL    HW2 5996   3.238   0.686   3.296
 1991SOL     OW 5997   2.665   1.402   2.786
 1991SOL    HW1 5998   2.755   1.416   2.744
 1991SOL    HW2 5999   2.594   1.404   2.715
 1992SOL     OW 6000   2.784   0.503   2.761
 1992SOL    HW1 6001   2.759   0.494   2.665
 1992SOL    HW2 6002   2.832   0.421   2.792
 1993SOL     OW 6003   2.401   0.064   2.374
 1993SOL    HW1 6004   2.320   0.065   2.432
 1993SOL    HW2 6005   2.404   0.147   2.319
 1994SOL     OW 6006   3.296   1.188   1.903
 1994SOL    HW1 6007   3.328   1.112   1.960
 1994SOL    HW2 6008   3.204   1.215   1.933
 1995SOL     OW 6009   2.159   0.035   2.033
 1995SOL    HW1 6010   2.208   0.119   2.012
 1995SOL    HW2 6011   2.221  -0.030   2.078
 1996SOL     OW 6012   2.797   0.236   2.342
 1996SOL    HW1 6013   2.749   0.277   2.264
 1996SOL    HW2 6014   2.896   0.234   2.323
 1997SOL     OW 6015   2.938   0.683   3.326
 1997SOL    HW1 6016   2.858   0.622   3.329
 1997SOL    HW2 6017   3.019   0.630   3.302
 1998SOL     OW 6018   3.089   1.570   2.655
 1998SOL    HW1 6019   3.110   1.644   2.590
 1998SOL    HW2 6020   3.157   1.570   2.728
 1999SOL     OW 6021   2.321   1.152   2.603
 1999SOL    HW1 6022   2.250   1.125   2.668
 1999SOL    HW2 6023   2.295   1.124   2.510
 2000SOL     OW 6024   3.133   1.797   2.453
 2000SOL    HW1 6025   3.177   1.861   2.389
 2000SOL    HW2 6026   3.083   1.849   2.523
 2001SOL     OW 6027   2.894   0.549   1.878
 2001SOL    HW1 6028   2.853   0.631   1.839
 2001SOL    HW2 6029   2.958   0.575   1.951
 2002SOL     OW 6030   1.940   0.556   3.248
 2002SOL    HW1 6031   2.032   0.555   3.207
 2002SOL    HW2 6032   1.934   0.630   3.315
 2003SOL     OW 6033   2.423   0.222   3.009
 2003SOL    HW1 6034   2.461   0.138   3.046
 2003SOL    HW2 6035   2.335   0.241   3.053
 2004SOL     OW 6036   2.728   0.454   2.504
 2004SOL    HW1 6037   2.696   0.526   2.442
 2004SOL    HW2 6038   2.752   0.373   2.451
 2005SOL     OW 6039   2.879   0.039   2.615
 2005SOL    HW1 6040   2.807   0.044   2.546
 2005SOL    HW2 6041   2.855  -0.030   2.684
 2006SOL     OW 6042   3.291   1.173   2.729
 2006SOL    HW1 6043   3.236   1.089   2.722
 2006SOL    HW2 6044   3.317   1.202   2.637
 2007SOL     OW 6045   3.328   0.590   2.854
 2007SOL    HW1 6046   3.298   0.495   2.861
 2007SOL    HW2 6047   3.401   0.606   2.920
 2008SOL     OW 6048   3.719   0.833   2.239
 2008SOL    HW1 6049   3.761   0.769   2.303
 2008SOL    HW2 6050   3.681   0.782   2.161
 2009SOL     OW 6051   2.350   1.385   2.036
 2009SOL    HW1 6052   2.263   1.370   2.083
 2009SOL    HW2 6053   2.333   1.411   1.941
 2010SOL     OW 6054   3.526   1.280   2.519
 2010SOL    HW1 6055   3.625   1.288   2.533
 2010SOL    HW2 6056   3.481   1.364   2.550
 2011SOL     OW 6057   3.252   0.575   1.940
 2011SOL    HW1 6058   3.198   0.554   2.021
 2011SOL    HW2 6059   3.343   0.534   1.949
 2012SOL     OW 6060   2.389   0.256   2.190
 2012SOL    HW1 6061   2.416   0.197   2.115
 2012SOL    HW2 6062   2.389   0.351   2.159
 2013SOL     OW 6063   3.616   1.223   3.450
 2013SOL    HW1 6064   3.707   1.184   3.437
 2013SOL    HW2 6065   3.624   1.319   3.474
 2014SOL     OW 6066   2.926   1.347   3.202
 2014SOL    HW1 6067   2.846   1.324   3.257
 2014SOL    HW2 6068   3.009   1.321   3.251
 2015SOL     OW 6069   3.454   1.629   3.487
 2015SOL    HW1 6070   3.481   1.663   3.397
 2015SOL    HW2 6071   3.533   1.591   3.533
 2016SOL     OW 6072   2.973   1.195   2.962
 2016SOL    HW1 6073   2.933   1.239   3.043
 2016SOL    HW2 6074   2.932   1.232   2.879
 2017SOL     OW 6075   3.500   1.099   2.941
 2017SOL    HW1 6076   3.505   1.180   3.000
 2017SOL    HW2 6077   3.414   1.101   2.890
 2018SOL     OW 6078   2.777   0.089   3.264
 2018SOL    HW1 6079   2.802   0.069   3.169
 2018SOL    HW2 6080   2.849   0.145   3.306
 2019SOL     OW 6081   2.842   1.116   3.581
 2019SOL    HW1 6082   2.743   1.122   3.591
 2019SOL    HW2 6083   2.865   1.036   3.525
 2020SOL     OW 6084   2.567   1.050   2.230
 2020SOL    HW1 6085   2.553   1.057   2.329
 2020SOL    HW2 6086   2.651   0.999   2.212
 2021SOL     OW 6087   2.272   0.813   3.113
 2021SOL    HW1 6088   2.358   0.825   3.163
 2021SOL    HW2 6089   2.230   0.726   3.140
 2022SOL     OW 6090   3.136   0.386   3.124
 2022SOL    HW1 6091   3.157   0.460   3.188
 2022SOL    HW2 6092   3.047   0.403   3.081
 2023SOL     OW 6093   1.926   1.564   3.193
 2023SOL    HW1 6094   1.880   1.646   3.159
 2023SOL    HW2 6095   2.024   1.583   3.202
 2024SOL     OW 6096   2.229   1.100   2.363
 2024SOL    HW1 6097   2.222   1.183   2.307
 2024SOL    HW2 6098   2.233   1.020   2.303
 2025SOL     OW 6099   2.428   0.537   2.727
 2025SOL    HW1 6100   2.440   0.603   2.653
 2025SOL    HW2 6101   2.474   0.571   2.810
 2026SOL     OW 6102   3.114   1.348   2.250
 2026SOL    HW1 6103   3.164   1.425   2.290
 2026SOL    HW2 6104   3.019   1.350   2.282
 2027SOL     OW 6105   3.134   1.445   3.004
 2027SOL    HW1 6106   3.181   1.458   3.091
 2027SOL    HW2 6107   3.068   1.371   3.013
 2028SOL     OW 6108   3.444   0.639   2.334
 2028SOL    HW1 6109   3.413   0.700   2.407
 2028SOL    HW2 6110   3.494   0.691   2.265
 2029SOL     OW 6111   2.216   1.510   3.191
 2029SOL    HW1 6112   2.195   1.466   3.104
 2029SOL    HW2 6113   2.313   1.536   3.194
 2030SOL     OW 6114   2.264   0.751   3.460
 2030SOL    HW1 6115   2.332   0.806   3.413
 2030SOL    HW2 6116   2.304   0.663   3.487
 2031SOL     OW 6117   3.449   0.779   3.532
 2031SOL    HW1 6118   3.357   0.817   3.527
 2031SOL    HW2 6119   3.509   0.826   3.467
 2032SOL     OW 6120   2.875   0.105   3.632
 2032SOL    HW1 6121   2.881   0.190   3.580
 2032SOL    HW2 6122   2.907   0.029   3.575
 2033SOL     OW 6123   2.366   0.050   3.602
 2033SOL    HW1 6124   2.324  -0.007   3.532
 2033SOL    HW2 6125   2.300   0.119   3.634
 2034SOL     OW 6126   2.435   0.870   2.891
 2034SOL    HW1 6127   2.479   0.959   2.882
 2034SOL    HW2 6128   2.372   0.870   2.968
 2035SOL     OW 6129   3.222   0.862   2.907
 2035SOL    HW1 6130   3.147   0.862   2.841
 2035SOL    HW2 6131   3.259   0.770   2.916
 2036SOL     OW 6132   3.071   0.525   2.137
 2036SOL    HW1 6133   3.084   0.441   2.191
 2036SOL    HW2 6134   3.042   0.599   2.197
 2037SOL     OW 6135   2.169   0.213   3.093
 2037SOL    HW1 6136   2.146   0.250   3.183
 2037SOL    HW2 6137   2.139   0.118   3.087
 2038SOL     OW 6138   1.899   1.310   3.144
 2038SOL    HW1 6139   1.952   1.261   3.212
 2038SOL    HW2 6140   1.921   1.408   3.149
 2039SOL     OW 6141   2.594   0.634   2.926
 2039SOL    HW1 6142   2.653   0.608   2.850
 2039SOL    HW2 6143   2.566   0.730   2.915
 2040SOL     OW 6144   3.590   0.935   3.716
 2040SOL    HW1 6145   3.544   0.928   3.627
 2040SOL    HW2 6146   3.528   0.979   3.782
 2041SOL     OW 6147   2.169   0.063   2.480
 2041SOL    HW1 6148   2.158   0.157   2.513
 2041SOL    HW2 6149   2.164   0.000   2.557
 2042SOL     OW 6150   3.484   0.367   2.236
 2042SOL    HW1 6151   3.486   0.291   2.300
 2042SOL    HW2 6152   3.436   0.444   2.276
 2043SOL     OW 6153   2.885   0.766   2.828
 2043SOL    HW1 6154   2.900   0.787   2.924
 2043SOL    HW2 6155   2.855   0.671   2.819
 2044SOL     OW 6156   2.842   1.573   3.562
 2044SOL    HW1 6157   2.822   1.617   3.474
 2044SOL    HW2 6158   2.881   1.482   3.546
 2045SOL     OW 6159   3.721   1.518   3.467
 2045SOL    HW1 6160   3.735   1.545   3.372
 2045SOL    HW2 6161   3.804   1.540   3.520
 2046SOL     OW 6162   2.212   0.898   3.666
 2046SOL    HW1 6163   2.288   0.942   3.714
 2046SOL    HW2 6164   2.247   0.851   3.584
 2047SOL     OW 6165   3.402   0.274   1.987
 2047SOL    HW1 6166   3.341   0.199   2.010
 2047SOL    HW2 6167   3.424   0.326   2.070
 2048SOL     OW 6168   3.165   0.838   1.904
 2048SOL    HW1 6169   3.199   0.745   1.919
 2048SOL    HW2 6170   3.183   0.865   1.809
 2049SOL     OW 6171   2.930   1.333   2.711
 2049SOL    HW1 6172   2.937   1.249   2.656
 2049SOL    HW2 6173   2.992   1.402   2.675
 2050SOL     OW 6174   2.181   0.810   2.811
 2050SOL    HW1 6175   2.274   0.846   2.816
 2050SOL    HW2 6176   2.175   0.725   2.863
 2051SOL     OW 6177   2.201   0.509   2.868
 2051SOL    HW1 6178   2.149   0.426   2.851
 2051SOL    HW2 6179   2.278   0.514   2.804
 2052SOL     OW 6180   3.000   0.380   3.540
 2052SOL    HW1 6181   2.955   0.443   3.604
 2052SOL    HW2 6182   3.093   0.411   3.523
 2053SOL     OW 6183   3.022   0.207   3.339
 2053SOL    HW1 6184   3.022   0.271   3.416
 2053SOL    HW2 6185   3.050   0.255   3.256
 2054SOL     OW 6186   1.870   1.326   2.062
 2054SOL    HW1 6187   1.777   1.347   2.031
 2054SOL    HW2 6188   1.880   1.227   2.075
 2055SOL     OW 6189   1.950   1.801   2.789
 2055SOL    HW1 6190   1.908   1.715   2.762
 2055SOL    HW2 6191   2.044   1.804   2.755
 2056SOL     OW 6192   2.366   1.568   2.772
 2056SOL    HW1 6193   2.432   1.642   2.781
 2056SOL    HW2 6194   2.410   1.489   2.730
 2057SOL     OW 6195   2.864   0.796   3.100
 2057SOL    HW1 6196   2.905   0.764   3.186
 2057SOL    HW2 6197   2.768   0.769   3.097
 2058SOL     OW 6198   1.902   0.544   2.976
 2058SOL    HW1 6199   1.987   0.511   2.935
 2058SOL    HW2 6200   1.915   0.559   3.074
 2059SOL     OW 6201   2.051   0.520   3.584
 2059SOL    HW1 6202   2.110   0.480   3.514
 2059SOL    HW2 6203   1.993   0.591   3.543
 2060SOL     OW 6204   3.231   0.950   3.522
 2060SOL    HW1 6205   3.270   1.039   3.542
 2060SOL    HW2 6206   3.241   0.930   3.425
 2061SOL     OW 6207   2.677   0.572   2.187
 2061SOL    HW1 6208   2.684   0.483   2.141
 2061SOL    HW2 6209   2.583   0.606   2.179
 2062SOL     OW 6210   3.519   0.604   3.068
 2062SOL    HW1 6211   3.481   0.535   3.130
 2062SOL    HW2 6212   3.601   0.568   3.024
 2063SOL     OW 6213   2.114   1.564   3.606
 2063SOL    HW1 6214   2.084   1.621   3.682
 2063SOL    HW2 6215   2.107   1.467   3.632
 2064SOL     OW 6216   2.533   0.464   3.131
 2064SOL    HW1 6217   2.499   0.375   3.101
 2064SOL    HW2 6218   2.559   0.518   3.051
 2065SOL     OW 6219   2.792   1.678   3.327
 2065SOL    HW1 6220   2.768   1.660   3.232
 2065SOL    HW2 6221   2.822   1.772   3.337
 2066SOL     OW 6222   2.335   0.500   2.053
 2066SOL    HW1 6223   2.396   0.580   2.057
 2066SOL    HW2 6224   2.240   0.531   2.060
 2067SOL     OW 6225   2.021   1.137   3.328
 2067SOL    HW1 6226   2.043   1.076   3.404
 2067SOL    HW2 6227   2.031   1.088   3.242
 2068SOL     OW 6228   3.209   1.059   3.096
 2068SOL    HW1 6229   3.233   0.996   3.022
 2068SOL    HW2 6230   3.119   1.099   3.078
 2069SOL     OW 6231   3.164   0.855   2.171
 2069SOL    HW1 6232   3.078   0.824   2.213
 2069SOL    HW2 6233   3.160   0.841   2.072
 2070SOL     OW 6234   3.621   1.747   3.016
 2070SOL    HW1 6235   3.682   1.777   2.943
 2070SOL    HW2 6236   3.583   1.658   2.994
 2071SOL     OW 6237   3.114   1.731   2.990
 2071SOL    HW1 6238   3.198   1.736   2.936
 2071SOL    HW2 6239   3.091   1.635   3.008
 2072SOL     OW 6240   1.945   1.258   2.884
 2072SOL    HW1 6241   1.940   1.257   2.984
 2072SOL    HW2 6242   1.862   1.217   2.846
 2073SOL     OW 6243   2.550   1.662   3.578
 2073SOL    HW1 6244   2.494   1.743   3.587
 2073SOL    HW2 6245   2.602   1.666   3.492
 2074SOL     OW 6246   3.588   0.135   2.385
 2074SOL    HW1 6247   3.661   0.118   2.318
 2074SOL    HW2 6248   3.557   0.048   2.423
 2075SOL     OW 6249   3.250   1.573   2.339
 2075SOL    HW1 6250   3.317   1.585   2.265
 2075SOL    HW2 6251   3.210   1.662   2.362
 2076SOL     OW 6252   1.992   1.794   3.713
 2076SOL    HW1 6253   1.951   1.720   3.766
 2076SOL    HW2 6254   2.056   1.845   3.771
 2077SOL     OW 6255   3.142   0.927   2.534
 2077SOL    HW1 6256   3.202   0.846   2.536
 2077SOL    HW2 6257   3.182   0.996   2.474
 2078SOL     OW 6258   2.692   1.273   3.284
 2078SOL    HW1 6259   2.687   1.306   3.379
 2078SOL    HW2 6260   2.606   1.292   3.238
 2079SOL     OW 6261   2.534   1.616   2.016
 2079SOL    HW1 6262   2.543   1.626   1.917
 2079SOL    HW2 6263   2.494   1.527   2.037
 2080SOL     OW 6264   3.512   1.720   3.256
 2080SOL    HW1 6265   3.565   1.730   3.172
 2080SOL    HW2 6266   3.485   1.810   3.290
 2081SOL     OW 6267   3.703   0.175   2.825
 2081SOL    HW1 6268   3.742   0.090   2.789
 2081SOL    HW2 6269   3.605   0.177   2.806
 2082SOL     OW 6270   2.125   0.326   2.582
 2082SOL    HW1 6271   2.046   0.377   2.548
 2082SOL    HW2 6272   2.116   0.311   2.680
 2083SOL     OW 6273   3.056   1.612   1.893
 2083SOL    HW1 6274   3.062   1.519   1.930
 2083SOL    HW2 6275   2.997   1.612   1.813
 2084SOL     OW 6276   2.684   1.002   3.234
 2084SOL    HW1 6277   2.724   1.001   3.142
 2084SOL    HW2 6278   2.694   1.094   3.274
 2085SOL     OW 6279   2.778   0.910   2.153
 2085SOL    HW1 6280   2.841   0.948   2.085
 2085SOL    HW2 6281   2.818   0.827   2.192
 2086SOL     OW 6282   3.366   1.607   1.906
 2086SOL    HW1 6283   3.274   1.644   1.913
 2086SOL    HW2 6284   3.404   1.627   1.816
 2087SOL     OW 6285   2.234   1.288   3.352
 2087SOL    HW1 6286   2.221   1.381   3.318
 2087SOL    HW2 6287   2.150   1.236   3.339
 2088SOL     OW 6288   3.476   1.292   3.151
 2088SOL    HW1 6289   3.536   1.295   3.231
 2088SOL    HW2 6290   3.401   1.356   3.164
 2089SOL     OW 6291   2.901   1.098   2.558
 2089SOL    HW1 6292   2.831   1.051   2.612
 2089SOL    HW2 6293   2.960   1.030   2.515
 2090SOL     OW 6294   2.876   0.236   2.833
 2090SOL    HW1 6295   2.868   0.200   2.740
 2090SOL    HW2 6296   2.874   0.160   2.898
 2091SOL     OW 6297   2.452   1.487   2.353
 2091SOL    HW1 6298   2.494   1.429   2.283
 2091SOL    HW2 6299   2.408   1.566   2.309
 2092SOL     OW 6300   3.571   0.385   3.243
 2092SOL    HW1 6301   3.644   0.454   3.247
 2092SOL    HW2 6302   3.599   0.310   3.184
 2093SOL     OW 6303   2.117   1.348   2.152
 2093SOL    HW1 6304   2.021   1.349   2.125
 2093SOL    HW2 6305   2.129   1.401   2.236
 2094SOL     OW 6306   1.967   1.013   3.588
 2094SOL    HW1 6307   1.890   0.980   3.642
 2094SOL    HW2 6308   2.052   0.983   3.630
 2095SOL     OW 6309   2.534   0.203   3.351
 2095SOL    HW1 6310   2.624   0.187   3.311
 2095SOL    HW2 6311   2.542   0.208   3.450
 2096SOL     OW 6312   1.937   0.345   1.895
 2096SOL    HW1 6313   1.845   0.317   1.866
 2096SOL    HW2 6314   1.968   0.422   1.839
 2097SOL     OW 6315   3.302   0.856   3.260
 2097SOL    HW1 6316   3.245   0.908   3.197
 2097SOL    HW2 6317   3.398   0.868   3.236
 2098SOL     OW 6318   1.934   0.166   2.180
 2098SOL    HW1 6319   1.917   0.249   2.126
 2098SOL    HW2 6320   2.024   0.129   2.158
 2099SOL     OW 6321   3.045   1.335   1.981
 2099SOL    HW1 6322   2.946   1.324   1.983
 2099SOL    HW2 6323   3.079   1.350   2.074
 2100SOL     OW 6324   2.475   0.842   3.293
 2100SOL    HW1 6325   2.531   0.923   3.276
 2100SOL    HW2 6326   2.534   0.762   3.296
 2101SOL     OW 6327   3.355   1.767   2.821
 2101SOL    HW1 6328   3.388   1.831   2.752
 2101SOL    HW2 6329   3.421   1.761   2.896
 2102SOL     OW 6330   2.578   0.565   3.570
 2102SOL    HW1 6331   2.597   0.630   3.644
 2102SOL    HW2 6332   2.638   0.485   3.579
 2103SOL     OW 6333   3.312   1.220   3.495
 2103SOL    HW1 6334   3.303   1.210   3.594
 2103SOL    HW2 6335   3.408   1.213   3.469
 2104SOL     OW 6336   2.252   1.741   3.422
 2104SOL    HW1 6337   2.161   1.782   3.420
 2104SOL    HW2 6338   2.245   1.647   3.454
 2105SOL     OW 6339   3.536   0.883   3.116
 2105SOL    HW1 6340   3.509   0.794   3.079
 2105SOL    HW2 6341   3.537   0.951   3.043
 2106SOL     OW 6342   3.087   0.325   2.311
 2106SOL    HW1 6343   3.152   0.251   2.300
 2106SOL    HW2 6344   3.107   0.375   2.395
 2107SOL     OW 6345   2.456   0.745   2.514
 2107SOL    HW1 6346   2.506   0.830   2.495
 2107SOL    HW2 6347   2.368   0.747   2.466
 2108SOL     OW 6348   3.639   0.342   3.504
 2108SOL    HW1 6349   3.622   0.373   3.410
 2108SOL    HW2 6350   3.555   0.305   3.542
 2109SOL     OW 6351   3.592   0.934   3.379
 2109SOL    HW1 6352   3.630   1.025   3.394
 2109SOL    HW2 6353   3.584   0.917   3.280
 2110SOL     OW 6354   2.721   1.374   1.878
 2110SOL    HW1 6355   2.675   1.389   1.966
 2110SOL    HW2 6356   2.765   1.459   1.848
 2111SOL     OW 6357   2.523   1.790   2.815
 2111SOL    HW1 6358   2.477   1.878   2.802
 2111SOL    HW2 6359   2.622   1.802   2.808
 2112SOL     OW 6360   2.721   0.956   2.723
 2112SOL    HW1 6361   2.775   0.887   2.771
 2112SOL    HW2 6362   2.689   1.025   2.789
 2113SOL     OW 6363   2.945   0.984   1.949
 2113SOL    HW1 6364   2.922   1.037   1.867
 2113SOL    HW2 6365   3.026   0.928   1.930
 2114SOL     OW 6366   3.723   1.569   2.713
 2114SOL    HW1 6367   3.652   1.557   2.643
 2114SOL    HW2 6368   3.724   1.490   2.773
 2115SOL     OW 6369   2.083   1.314   3.706
 2115SOL    HW1 6370   2.018   1.241   3.685
 2115SOL    HW2 6371   2.087   1.328   3.804
 2116SOL     OW 6372   1.941   1.240   2.515
 2116SOL    HW1 6373   1.940   1.193   2.603
 2116SOL    HW2 6374   2.023   1.212   2.464
 2117SOL     OW 6375   2.534   1.391   3.486
 2117SOL    HW1 6376   2.456   1.341   3.524
 2117SOL    HW2 6377   2.531   1.486   3.517
 2118SOL     OW 6378   3.686   0.192   3.089
 2118SOL    HW1 6379   3.682   0.102   3.133
 2118SOL    HW2 6380   3.689   0.181   2.990
 2119SOL     OW 6381   2.290   0.424   2.382
 2119SOL    HW1 6382   2.320   0.352   2.320
 2119SOL    HW2 6383   2.251   0.384   2.465
 2120SOL     OW 6384   3.567   1.487   2.966
 2120SOL    HW1 6385   3.474   1.462   2.939
 2120SOL    HW2 6386   3.593   1.437   3.048
 2121SOL     OW 6387   2.179   0.547   3.142
 2121SOL    HW1 6388   2.217   0.488   3.214
 2121SOL    HW2 6389   2.219   0.521   3.054
 2122SOL     OW 6390   2.674   1.586   2.549
 2122SOL    HW1 6391   2.706   1.596   2.455
 2122SOL    HW2 6392   2.595   1.524   2.551
 2123SOL     OW 6393   3.286   0.214   2.974
 2123SOL    HW1 6394   3.338   0.149   3.029
 2123SOL    HW2 6395   3.237   0.277   3.035
 2124SOL     OW 6396   2.863   0.034   3.016
 2124SOL    HW1 6397   2.800  -0.038   2.985
 2124SOL    HW2 6398   2.956  -0.002   3.016
 2125SOL     OW 6399   2.632   1.330   2.163
 2125SOL    HW1 6400   2.586   1.243   2.180
 2125SOL    HW2 6401   2.723   1.327   2.204
 2126SOL     OW 6402   2.480   1.567   3.146
 2126SOL    HW1 6403   2.475   1.649   3.203
 2126SOL    HW2 6404   2.569   1.564   3.101
 2127SOL     OW 6405   3.214   0.052   2.030
 2127SOL    HW1 6406   3.249   0.011   1.946
 2127SOL    HW2 6407   3.124   0.014   2.050
 2128SOL     OW 6408   3.162   0.453   2.553
 2128SOL    HW1 6409   3.103   0.533   2.557
 2128SOL    HW2 6410   3.177   0.418   2.646
 2129SOL     OW 6411   3.455   0.221   2.744
 2129SOL    HW1 6412   3.371   0.220   2.798
 2129SOL    HW2 6413   3.457   0.304   2.688
 2130SOL     OW 6414   1.901   1.077   2.162
 2130SOL    HW1 6415   2.000   1.066   2.153
 2130SOL    HW2 6416   1.861   0.991   2.194
 2131SOL     OW 6417   2.737   1.646   2.199
 2131SOL    HW1 6418   2.660   1.611   2.145
 2131SOL    HW2 6419   2.705   1.717   2.261
 2132SOL     OW 6420   2.092   0.628   3.837
 2132SOL    HW1 6421   1.999   0.626   3.874
 2132SOL    HW2 6422   2.093   0.589   3.745
 2133SOL     OW 6423   2.087   0.275   4.720
 2133SOL    HW1 6424   2.122   0.258   4.812
 2133SOL    HW2 6425   1.999   0.230   4.708
 2134SOL     OW 6426   1.881   0.368   4.371
 2134SOL    HW1 6427   1.799   0.411   4.410
 2134SOL    HW2 6428   1.853   0.295   4.308
 2135SOL     OW 6429   2.431   1.275   4.889
 2135SOL    HW1 6430   2.338   1.268   4.852
 2135SOL    HW2 6431   2.442   1.364   4.933
 2136SOL     OW 6432   3.417   1.511   4.427
 2136SOL    HW1 6433   3.360   1.495   4.508
 2136SOL    HW2 6434   3.358   1.521   4.347
 2137SOL     OW 6435   2.997   0.703   4.441
 2137SOL    HW1 6436   3.054   0.781   4.416
 2137SOL    HW2 6437   2.937   0.729   4.517
 2138SOL     OW 6438   3.617   0.607   3.955
 2138SOL    HW1 6439   3.605   0.594   3.856
 2138SOL    HW2 6440   3.587   0.526   4.004
 2139SOL     OW 6441   2.630   1.144   4.747
 2139SOL    HW1 6442   2.552   1.161   4.807
 2139SOL    HW2 6443   2.664   1.231   4.711
 2140SOL     OW 6444   2.547   1.012   4.389
 2140SOL    HW1 6445   2.616   0.996   4.459
 2140SOL    HW2 6446   2.474   1.069   4.427
 2141SOL     OW 6447   2.197   1.435   4.785
 2141SOL    HW1 6448   2.119   1.404   4.732
 2141SOL    HW2 6449   2.255   1.493   4.728
 2142SOL     OW 6450   3.322   1.505   5.063
 2142SOL    HW1 6451   3.346   1.599   5.089
 2142SOL    HW2 6452   3.306   1.451   5.145
 2143SOL     OW 6453   2.300   0.392   5.223
 2143SOL    HW1 6454   2.382   0.336   5.232
 2143SOL    HW2 6455   2.219   0.334   5.227
 2144SOL     OW 6456   3.465   0.447   4.461
 2144SOL    HW1 6457   3.391   0.493   4.411
 2144SOL    HW2 6458   3.516   0.515   4.514
 2145SOL     OW 6459   2.093   1.713   4.207
 2145SOL    HW1 6460   2.127   1.790   4.261
 2145SOL    HW2 6461   2.137   1.713   4.117
 2146SOL     OW 6462   2.092   1.434   4.262
 2146SOL    HW1 6463   2.066   1.530   4.262
 2146SOL    HW2 6464   2.021   1.380   4.307
 2147SOL     OW 6465   2.102   1.091   4.610
 2147SOL    HW1 6466   2.116   1.007   4.662
 2147SOL    HW2 6467   2.047   1.155   4.665
 2148SOL     OW 6468   2.482   1.786   5.163
 2148SOL    HW1 6469   2.390   1.769   5.198
 2148SOL    HW2 6470   2.510   1.878   5.189
 2149SOL     OW 6471   2.468   0.964   3.847
 2149SOL    HW1 6472   2.475   1.048   3.793
 2149SOL    HW2 6473   2.514   0.977   3.935
 2150SOL     OW 6474   3.456   0.114   5.204
 2150SOL    HW1 6475   3.438   0.181   5.132
 2150SOL    HW2 6476   3.453   0.160   5.293
 2151SOL     OW 6477   1.984   0.643   4.287
 2151SOL    HW1 6478   1.939   0.555   4.304
 2151SOL    HW2 6479   1.983   0.697   4.371
 2152SOL     OW 6480   3.704   1.767   4.083
 2152SOL    HW1 6481   3.758   1.738   4.163
 2152SOL    HW2 6482   3.734   1.857   4.054
 2153SOL     OW 6483   1.889   1.596   3.841
 2153SOL    HW1 6484   1.870   1.500   3.862
 2153SOL    HW2 6485   1.856   1.654   3.916
 2154SOL     OW 6486   3.551   0.922   4.336
 2154SOL    HW1 6487   3.646   0.893   4.344
 2154SOL    HW2 6488   3.543   0.987   4.261
 2155SOL     OW 6489   3.503   1.108   4.156
 2155SOL    HW1 6490   3.589   1.110   4.104
 2155SOL    HW2 6491   3.517   1.155   4.244
 2156SOL     OW 6492   2.475   1.365   4.450
 2156SOL    HW1 6493   2.426   1.278   4.459
 2156SOL    HW2 6494   2.452   1.408   4.363
 2157SOL     OW 6495   2.671   0.004   4.226
 2157SOL    HW1 6496   2.711   0.095   4.217
 2157SOL    HW2 6497   2.571   0.012   4.232
 2158SOL     OW 6498   2.059   0.976   4.988
 2158SOL    HW1 6499   2.148   0.931   4.974
 2158SOL    HW2 6500   1.986   0.911   4.969
 2159SOL     OW 6501   3.387   0.999   3.914
 2159SOL    HW1 6502   3.324   0.923   3.927
 2159SOL    HW2 6503   3.435   1.017   4.000
 2160SOL     OW 6504   2.179   0.251   5.525
 2160SOL    HW1 6505   2.250   0.322   5.531
 2160SOL    HW2 6506   2.091   0.290   5.553
 2161SOL     OW 6507   3.328   1.417   4.677
 2161SOL    HW1 6508   3.269   1.423   4.757
 2161SOL    HW2 6509   3.313   1.329   4.631
 2162SOL     OW 6510   3.529   1.714   4.296
 2162SOL    HW1 6511   3.488   1.691   4.208
 2162SOL    HW2 6512   3.511   1.640   4.361
 2163SOL     OW 6513   2.460   0.729   3.994
 2163SOL    HW1 6514   2.484   0.798   3.926
 2163SOL    HW2 6515   2.382   0.762   4.048
 2164SOL     OW 6516   3.143   0.345   4.668
 2164SOL    HW1 6517   3.057   0.295   4.655
 2164SOL    HW2 6518   3.205   0.291   4.724
 2165SOL     OW 6519   3.438   1.662   4.031
 2165SOL    HW1 6520   3.527   1.708   4.034
 2165SOL    HW2 6521   3.417   1.638   3.936
 2166SOL     OW 6522   2.669   0.605   5.189
 2166SOL    HW1 6523   2.622   0.602   5.278
 2166SOL    HW2 6524   2.618   0.550   5.123
 2167SOL     OW 6525   2.853   0.410   4.966
 2167SOL    HW1 6526   2.776   0.444   5.020
 2167SOL    HW2 6527   2.819   0.359   4.887
 2168SOL     OW 6528   2.903   0.701   4.153
 2168SOL    HW1 6529   2.929   0.697   4.249
 2168SOL    HW2 6530   2.818   0.650   4.139
 2169SOL     OW 6531   1.938   0.811   4.513
 2169SOL    HW1 6532   2.037   0.799   4.522
 2169SOL    HW2 6533   1.914   0.906   4.534
 2170SOL     OW 6534   1.992   1.821   5.295
 2170SOL    HW1 6535   1.982   1.806   5.394
 2170SOL    HW2 6536   1.906   1.857   5.259
 2171SOL     OW 6537   2.727   0.348   3.919
 2171SOL    HW1 6538   2.786   0.411   3.870
 2171SOL    HW2 6539   2.746   0.254   3.890
 2172SOL     OW 6540   3.224   1.144   4.269
 2172SOL    HW1 6541   3.307   1.115   4.221
 2172SOL    HW2 6542   3.175   1.211   4.213
 2173SOL     OW 6543   2.412   0.196   4.609
 2173SOL    HW1 6544   2.407   0.191   4.709
 2173SOL    HW2 6545   2.414   0.292   4.580
 2174SOL     OW 6546   2.870   1.456   4.201
 2174SOL    HW1 6547   2.824   1.528   4.149
 2174SOL    HW2 6548   2.866   1.476   4.299
 2175SOL     OW 6549   2.213   1.801   4.577
 2175SOL    HW1 6550   2.263   1.715   4.583
 2175SOL    HW2 6551   2.278   1.878   4.574
 2176SOL     OW 6552   3.657   1.066   4.597
 2176SOL    HW1 6553   3.595   1.051   4.521
 2176SOL    HW2 6554   3.605   1.077   4.682
 2177SOL     OW 6555   2.183   0.943   3.966
 2177SOL    HW1 6556   2.265   0.982   3.924
 2177SOL    HW2 6557   2.156   0.861   3.917
 2178SOL     OW 6558   3.320   0.735   4.452
 2178SOL    HW1 6559   3.315   0.670   4.527
 2178SOL    HW2 6560   3.400   0.794   4.465
 2179SOL     OW 6561   2.973   1.776   3.961
 2179SOL    HW1 6562   2.913   1.714   4.011
 2179SOL    HW2 6563   3.004   1.732   3.876
 2180SOL     OW 6564   2.064   0.285   5.222
 2180SOL    HW1 6565   1.984   0.345   5.209
 2180SOL    HW2 6566   2.054   0.236   5.308
 2181SOL     OW 6567   3.494   1.377   3.805
 2181SOL    HW1 6568   3.462   1.471   3.795
 2181SOL    HW2 6569   3.418   1.314   3.793
 2182SOL     OW 6570   2.326   1.743   4.047
 2182SOL    HW1 6571   2.359   1.782   4.133
 2182SOL    HW2 6572   2.402   1.736   3.982
 2183SOL     OW 6573   3.262   0.107   4.150
 2183SOL    HW1 6574   3.238   0.070   4.060
 2183SOL    HW2 6575   3.361   0.123   4.154
 2184SOL     OW 6576   2.111   1.785   4.965
 2184SOL    HW1 6577   2.168   1.720   5.015
 2184SOL    HW2 6578   2.095   1.752   4.872
 2185SOL     OW 6579   2.802   1.698   4.628
 2185SOL    HW1 6580   2.882   1.641   4.649
 2185SOL    HW2 6581   2.753   1.658   4.551
 2186SOL     OW 6582   2.244   0.700   4.204
 2186SOL    HW1 6583   2.289   0.610   4.201
 2186SOL    HW2 6584   2.150   0.689   4.237
 2187SOL     OW 6585   2.476   0.122   3.841
 2187SOL    HW1 6586   2.574   0.100   3.848
 2187SOL    HW2 6587   2.445   0.105   3.748
 2188SOL     OW 6588   2.750   1.514   4.919
 2188SOL    HW1 6589   2.727   1.489   4.825
 2188SOL    HW2 6590   2.811   1.445   4.958
 2189SOL     OW 6591   2.665   1.402   4.648
 2189SOL    HW1 6592   2.755   1.416   4.606
 2189SOL    HW2 6593   2.594   1.404   4.577
 2190SOL     OW 6594   2.784   0.503   4.623
 2190SOL    HW1 6595   2.759   0.494   4.527
 2190SOL    HW2 6596   2.832   0.421   4.654
 2191SOL     OW 6597   2.401   0.064   4.236
 2191SOL    HW1 6598   2.320   0.065   4.294
 2191SOL    HW2 6599   2.404   0.147   4.181
 2192SOL     OW 6600   3.296   1.188   3.765
 2192SOL    HW1 6601   3.328   1.112   3.822
 2192SOL    HW2 6602   3.204   1.215   3.795
 2193SOL     OW 6603   2.159   0.035   3.895
 2193SOL    HW1 6604   2.208   0.119   3.874
 2193SOL    HW2 6605   2.221  -0.030   3.940
 2194SOL     OW 6606   2.797   0.236   4.204
 2194SOL    HW1 6607   2.749   0.277   4.126
 2194SOL    HW2 6608   2.896   0.234   4.185
 2195SOL     OW 6609   3.089   1.570   4.517
 2195SOL    HW1 6610   3.110   1.644   4.452
 2195SOL    HW2 6611   3.157   1.570   4.590
 2196SOL     OW 6612   2.321   1.152   4.465
 2196SOL    HW1 6613   2.250   1.125   4.530
 2196SOL    HW2 6614   2.295   1.124   4.372
 2197SOL     OW 6615   3.133   1.797   4.315
 2197SOL    HW1 6616   3.177   1.861   4.251
 2197SOL    HW2 6617   3.083   1.849   4.385
 2198SOL     OW 6618   2.894   0.549   3.740
 2198SOL    HW1 6619   2.853   0.631   3.701
 2198SOL    HW2 6620   2.958   0.575   3.813
 2199SOL     OW 6621   1.940   0.556   5.110
 2199SOL    HW1 6622   2.032   0.555   5.069
 2199SOL    HW2 6623   1.934   0.630   5.177
 2200SOL     OW 6624   2.423   0.222   4.871
 2200SOL    HW1 6625   2.461   0.138   4.908
 2200SOL    HW2 6626   2.335   0.241   4.915
 2201SOL     OW 6627   2.728   0.454   4.366
 2201SOL    HW1 6628   2.696   0.526   4.304
 2201SOL    HW2 6629   2.752   0.373   4.313
 2202SOL     OW 6630   2.879   0.039   4.477
 2202SOL    HW1 6631   2.807   0.044   4.408
 2202SOL    HW2 6632   2.855  -0.030   4.546
 2203SOL     OW 6633   3.291   1.173   4.591
 2203SOL    HW1 6634   3.236   1.089   4.584
 2203SOL    HW2 6635   3.317   1.202   4.499
 2204SOL     OW 6636   3.328   0.590   4.716
 2204SOL    HW1 6637   3.298   0.495   4.723
 2204SOL    HW2 6638   3.401   0.606   4.782
 2205SOL     OW 6639   3.719   0.833   4.101
 2205SOL    HW1 6640   3.761   0.769   4.165
 2205SOL    HW2 6641   3.681   0.782   4.023
 2206SOL     OW 6642   2.350   1.385   3.898
 2206SOL    HW1 6643   2.263   1.370   3.945
 2206SOL    HW2 6644   2.333   1.411   3.803
 2207SOL     OW 6645   3.526   1.280   4.381
 2207SOL    HW1 6646   3.625   1.288   4.395
 2207SOL    HW2 6647   3.481   1.364   4.412
 2208SOL     OW 6648   3.252   0.575   3.802
 2208SOL    HW1 6649   3.198   0.554   3.883
 2208SOL    HW2 6650   3.343   0.534   3.811
 2209SOL     OW 6651   2.389   0.256   4.052
 2209SOL    HW1 6652   2.416   0.197   3.977
 2209SOL    HW2 6653   2.389   0.351   4.021
 2210SOL     OW 6654   2.926   1.347   5.064
 2210SOL    HW1 6655   2.846   1.324   5.119
 2210SOL    HW2 6656   3.009   1.321   5.113
 2211SOL     OW 6657   2.973   1.195   4.824
 2211SOL    HW1 6658   2.933   1.239   4.905
 2211SOL    HW2 6659   2.932   1.232   4.741
 2212SOL     OW 6660   3.500   1.099   4.803
 2212SOL    HW1 6661   3.505   1.180   4.862
 2212SOL    HW2 6662   3.414   1.101   4.752
 2213SOL     OW 6663   2.777   0.089   5.126
 2213SOL    HW1 6664   2.802   0.069   5.031
 2213SOL    HW2 6665   2.849   0.145   5.168
 2214SOL     OW 6666   2.567   1.050   4.092
 2214SOL    HW1 6667   2.553   1.057   4.191
 2214SOL    HW2 6668   2.651   0.999   4.074
 2215SOL     OW 6669   2.272   0.813   4.975
 2215SOL    HW1 6670   2.358   0.825   5.025
 2215SOL    HW2 6671   2.230   0.726   5.002
 2216SOL     OW 6672   3.136   0.386   4.986
 2216SOL    HW1 6673   3.157   0.460   5.050
 2216SOL    HW2 6674   3.047   0.403   4.943
 2217SOL     OW 6675   1.926   1.564   5.055
 2217SOL    HW1 6676   1.880   1.646   5.021
 2217SOL    HW2 6677   2.024   1.583   5.064
 2218SOL     OW 6678   2.229   1.100   4.225
 2218SOL    HW1 6679   2.222   1.183   4.169
 2218SOL    HW2 6680   2.233   1.020   4.165
 2219SOL     OW 6681   2.428   0.537   4.589
 2219SOL    HW1 6682   2.440   0.603   4.515
 2219SOL    HW2 6683   2.474   0.571   4.672
 2220SOL     OW 6684   3.114   1.348   4.112
 2220SOL    HW1 6685   3.164   1.425   4.152
 2220SOL    HW2 6686   3.019   1.350   4.144
 2221SOL     OW 6687   3.134   1.445   4.866
 2221SOL    HW1 6688   3.181   1.458   4.953
 2221SOL    HW2 6689   3.068   1.371   4.875
 2222SOL     OW 6690   3.444   0.639   4.196
 2222SOL    HW1 6691   3.413   0.700   4.269
 2222SOL    HW2 6692   3.494   0.691   4.127
 2223SOL     OW 6693   2.216   1.510   5.053
 2223SOL    HW1 6694   2.195   1.466   4.966
 2223SOL    HW2 6695   2.313   1.536   5.056
 2224SOL     OW 6696   2.264   0.751   5.322
 2224SOL    HW1 6697   2.332   0.806   5.275
 2224SOL    HW2 6698   2.304   0.663   5.349
 2225SOL     OW 6699   3.449   0.779   5.394
 2225SOL    HW1 6700   3.357   0.817   5.389
 2225SOL    HW2 6701   3.509   0.826   5.329
 2226SOL     OW 6702   2.435   0.870   4.753
 2226SOL    HW1 6703   2.479   0.959   4.744
 2226SOL    HW2 6704   2.372   0.870   4.830
 2227SOL     OW 6705   3.222   0.862   4.769
 2227SOL    HW1 6706   3.147   0.862   4.703
 2227SOL    HW2 6707   3.259   0.770   4.778
 2228SOL     OW 6708   3.071   0.525   3.999
 2228SOL    HW1 6709   3.084   0.441   4.053
 2228SOL    HW2 6710   3.042   0.599   4.059
 2229SOL     OW 6711   2.169   0.213   4.955
 2229SOL    HW1 6712   2.146   0.250   5.045
 2229SOL    HW2 6713   2.139   0.118   4.949
 2230SOL     OW 6714   1.899   1.310   5.006
 2230SOL    HW1 6715   1.952   1.261   5.074
 2230SOL    HW2 6716   1.921   1.408   5.011
 2231SOL     OW 6717   2.594   0.634   4.788
 2231SOL    HW1 6718   2.653   0.608   4.712
 2231SOL    HW2 6719   2.566   0.730   4.777
 2232SOL     OW 6720   2.169   0.063   4.342
 2232SOL    HW1 6721   2.158   0.157   4.375
 2232SOL    HW2 6722   2.164   0.000   4.419
 2233SOL     OW 6723   3.484   0.367   4.098
 2233SOL    HW1 6724   3.486   0.291   4.162
 2233SOL    HW2 6725   3.436   0.444   4.138
 2234SOL     OW 6726   2.885   0.766   4.690
 2234SOL    HW1 6727   2.900   0.787   4.786
 2234SOL    HW2 6728   2.855   0.671   4.681
 2235SOL     OW 6729   2.842   1.573   5.424
 2235SOL    HW1 6730   2.822   1.617   5.336
 2235SOL    HW2 6731   2.881   1.482   5.408
 2236SOL     OW 6732   3.402   0.274   3.849
 2236SOL    HW1 6733   3.341   0.199   3.872
 2236SOL    HW2 6734   3.424   0.326   3.932
 2237SOL     OW 6735   3.165   0.838   3.766
 2237SOL    HW1 6736   3.199   0.745   3.781
 2237SOL    HW2 6737   3.183   0.865   3.671
 2238SOL     OW 6738   2.930   1.333   4.573
 2238SOL    HW1 6739   2.937   1.249   4.518
 2238SOL    HW2 6740   2.992   1.402   4.537
 2239SOL     OW 6741   2.181   0.810   4.673
 2239SOL    HW1 6742   2.274   0.846   4.678
 2239SOL    HW2 6743   2.175   0.725   4.725
 2240SOL     OW 6744   2.201   0.509   4.730
 2240SOL    HW1 6745   2.149   0.426   4.713
 2240SOL    HW2 6746   2.278   0.514   4.666
 2241SOL     OW 6747   3.000   0.380   5.402
 2241SOL    HW1 6748   2.955   0.443   5.466
 2241SOL    HW2 6749   3.093   0.411   5.385
 2242SOL     OW 6750   3.022   0.207   5.201
 2242SOL    HW1 6751   3.022   0.271   5.278
 2242SOL    HW2 6752   3.050   0.255   5.118
 2243SOL     OW 6753   1.870   1.326   3.924
 2243SOL    HW1 6754   1.777   1.347   3.893
 2243SOL    HW2 6755   1.880   1.227   3.937
 2244SOL     OW 6756   1.950   1.801   4.651
 2244SOL    HW1 6757   1.908   1.715   4.624
 2244SOL    HW2 6758   2.044   1.804   4.617
 2245SOL     OW 6759   2.366   1.568   4.634
 2245SOL    HW1 6760   2.432   1.642   4.643
 2245SOL    HW2 6761   2.410   1.489   4.592
 2246SOL     OW 6762   2.864   0.796   4.962
 2246SOL    HW1 6763   2.905   0.764   5.048
 2246SOL    HW2 6764   2.768   0.769   4.959
 2247SOL     OW 6765   1.902   0.544   4.838
 2247SOL    HW1 6766   1.987   0.511   4.797
 2247SOL    HW2 6767   1.915   0.559   4.936
 2248SOL     OW 6768   2.677   0.572   4.049
 2248SOL    HW1 6769   2.684   0.483   4.003
 2248SOL    HW2 6770   2.583   0.606   4.041
 2249SOL     OW 6771   3.519   0.604   4.930
 2249SOL    HW1 6772   3.481   0.535   4.992
 2249SOL    HW2 6773   3.601   0.568   4.886
 2250SOL     OW 6774   2.533   0.464   4.993
 2250SOL    HW1 6775   2.499   0.375   4.963
 2250SOL    HW2 6776   2.559   0.518   4.913
 2251SOL     OW 6777   2.792   1.678   5.189
 2251SOL    HW1 6778   2.768   1.660   5.094
 2251SOL    HW2 6779   2.822   1.772   5.199
 2252SOL     OW 6780   2.335   0.500   3.915
 2252SOL    HW1 6781   2.396   0.580   3.919
 2252SOL    HW2 6782   2.240   0.531   3.922
 2253SOL     OW 6783   2.021   1.137   5.190
 2253SOL    HW1 6784   2.043   1.076   5.266
 2253SOL    HW2 6785   2.031   1.088   5.104
 2254SOL     OW 6786   3.209   1.059   4.958
 2254SOL    HW1 6787   3.233   0.996   4.884
 2254SOL    HW2 6788   3.119   1.099   4.940
 2255SOL     OW 6789   3.164   0.855   4.033
 2255SOL    HW1 6790   3.078   0.824   4.075
 2255SOL    HW2 6791   3.160   0.841   3.934
 2256SOL     OW 6792   3.621   1.747   4.878
 2256SOL    HW1 6793   3.682   1.777   4.805
 2256SOL    HW2 6794   3.583   1.658   4.856
 2257SOL     OW 6795   3.114   1.731   4.852
 2257SOL    HW1 6796   3.198   1.736   4.798
 2257SOL    HW2 6797   3.091   1.635   4.870
 2258SOL     OW 6798   1.945   1.258   4.746
 2258SOL    HW1 6799   1.940   1.257   4.846
 2258SOL    HW2 6800   1.862   1.217   4.708
 2259SOL     OW 6801   3.588   0.135   4.247
 2259SOL    HW1 6802   3.661   0.118   4.180
 2259SOL    HW2 6803   3.557   0.048   4.285
 2260SOL     OW 6804   3.250   1.573   4.201
 2260SOL    HW1 6805   3.317   1.585   4.127
 2260SOL    HW2 6806   3.210   1.662   4.224
 2261SOL     OW 6807   3.142   0.927   4.396
 2261SOL    HW1 6808   3.202   0.846   4.398
 2261SOL    HW2 6809   3.182   0.996   4.336
 2262SOL     OW 6810   2.534   1.616   3.878
 2262SOL    HW1 6811   2.543   1.626   3.779
 2262SOL    HW2 6812   2.494   1.527   3.899
 2263SOL     OW 6813   3.512   1.720   5.118
 2263SOL    HW1 6814   3.565   1.730   5.034
 2263SOL    HW2 6815   3.485   1.810   5.152
 2264SOL     OW 6816   3.703   0.175   4.687
 2264SOL    HW1 6817   3.742   0.090   4.651
 2264SOL    HW2 6818   3.605   0.177   4.668
 2265SOL     OW 6819   2.125   0.326   4.444
 2265SOL    HW1 6820   2.046   0.377   4.410
 2265SOL    HW2 6821   2.116   0.311   4.542
 2266SOL     OW 6822   3.056   1.612   3.755
 2266SOL    HW1 6823   3.062   1.519   3.792
 2266SOL    HW2 6824   2.997   1.612   3.675
 2267SOL     OW 6825   2.684   1.002   5.096
 2267SOL    HW1 6826   2.724   1.001   5.004
 2267SOL    HW2 6827   2.694   1.094   5.136
 2268SOL     OW 6828   2.778   0.910   4.015
 2268SOL    HW1 6829   2.841   0.948   3.947
 2268SOL    HW2 6830   2.818   0.827   4.054
 2269SOL     OW 6831   3.366   1.607   3.768
 2269SOL    HW1 6832   3.274   1.644   3.775
 2269SOL    HW2 6833   3.404   1.627   3.678
 2270SOL     OW 6834   2.234   1.288   5.214
 2270SOL    HW1 6835   2.221   1.381   5.180
 2270SOL    HW2 6836   2.150   1.236   5.201
 2271SOL     OW 6837   3.476   1.292   5.013
 2271SOL    HW1 6838   3.536   1.295   5.093
 2271SOL    HW2 6839   3.401   1.356   5.026
 2272SOL     OW 6840   2.901   1.098   4.420
 2272SOL    HW1 6841   2.831   1.051   4.474
 2272SOL    HW2 6842   2.960   1.030   4.377
 2273SOL     OW 6843   2.876   0.236   4.695
 2273SOL    HW1 6844   2.868   0.200   4.602
 2273SOL    HW2 6845   2.874   0.160   4.760
 2274SOL     OW 6846   2.452   1.487   4.215
 2274SOL    HW1 6847   2.494   1.429   4.145
 2274SOL    HW2 6848   2.408   1.566   4.171
 2275SOL     OW 6849   3.571   0.385   5.105
 2275SOL    HW1 6850   3.644   0.454   5.109
 2275SOL    HW2 6851   3.599   0.310   5.046
 2276SOL     OW 6852   2.117   1.348   4.014
 2276SOL    HW1 6853   2.021   1.349   3.987
 2276SOL    HW2 6854   2.129   1.401   4.098
 2277SOL     OW 6855   1.937   0.345   3.757
 2277SOL    HW1 6856   1.845   0.317   3.728
 2277SOL    HW2 6857   1.968   0.422   3.701
 2278SOL     OW 6858   3.302   0.856   5.122
 2278SOL    HW1 6859   3.245   0.908   5.059
 2278SOL    HW2 6860   3.398   0.868   5.098
 2279SOL     OW 6861   1.934   0.166   4.042
 2279SOL    HW1 6862   1.917   0.249   3.988
 2279SOL    HW2 6863   2.024   0.129   4.020
 2280SOL     OW 6864   3.045   1.335   3.843
 2280SOL    HW1 6865   2.946   1.324   3.845
 2280SOL    HW2 6866   3.079   1.350   3.936
 2281SOL     OW 6867   2.475   0.842   5.155
 2281SOL    HW1 6868   2.531   0.923   5.138
 2281SOL    HW2 6869   2.534   0.762   5.158
 2282SOL     OW 6870   3.355   1.767   4.683
 2282SOL    HW1 6871   3.388   1.831   4.614
 2282SOL    HW2 6872   3.421   1.761   4.758
 2283SOL     OW 6873   2.252   1.741   5.284
 2283SOL    HW1 6874   2.161   1.782   5.282
 2283SOL    HW2 6875   2.245   1.647   5.316
 2284SOL     OW 6876   3.536   0.883   4.978
 2284SOL    HW1 6877   3.509   0.794   4.941
 2284SOL    HW2 6878   3.537   0.951   4.905
 2285SOL     OW 6879   3.087   0.325   4.173
 2285SOL    HW1 6880   3.152   0.251   4.162
 2285SOL    HW2 6881   3.107   0.375   4.257
 2286SOL     OW 6882   2.456   0.745   4.376
 2286SOL    HW1 6883   2.506   0.830   4.357
 2286SOL    HW2 6884   2.368   0.747   4.328
 2287SOL     OW 6885   3.639   0.342   5.366
 2287SOL    HW1 6886   3.622   0.373   5.272
 2287SOL    HW2 6887   3.555   0.305   5.404
 2288SOL     OW 6888   3.592   0.934   5.241
 2288SOL    HW1 6889   3.630   1.025   5.256
 2288SOL    HW2 6890   3.584   0.917   5.142
 2289SOL     OW 6891   2.721   1.374   3.740
 2289SOL    HW1 6892   2.675   1.389   3.828
 2289SOL    HW2 6893   2.765   1.459   3.710
 2290SOL     OW 6894   2.523   1.790   4.677
 2290SOL    HW1 6895   2.477   1.878   4.664
 2290SOL    HW2 6896   2.622   1.802   4.670
 2291SOL     OW 6897   2.721   0.956   4.585
 2291SOL    HW1 6898   2.775   0.887   4.633
 2291SOL    HW2 6899   2.689   1.025   4.651
 2292SOL     OW 6900   2.945   0.984   3.811
 2292SOL    HW1 6901   2.922   1.037   3.729
 2292SOL    HW2 6902   3.026   0.928   3.792
 2293SOL     OW 6903   3.723   1.569   4.575
 2293SOL    HW1 6904   3.652   1.557   4.505
 2293SOL    HW2 6905   3.724   1.490   4.635
 2294SOL     OW 6906   1.941   1.240   4.377
 2294SOL    HW1 6907   1.940   1.193   4.465
 2294SOL    HW2 6908   2.023   1.212   4.326
 2295SOL     OW 6909   3.686   0.192   4.951
 2295SOL    HW1 6910   3.682   0.102   4.995
 2295SOL    HW2 6911   3.689   0.181   4.852
 2296SOL     OW 6912   2.290   0.424   4.244
 2296SOL    HW1 6913   2.320   0.352   4.182
 2296SOL    HW2 6914   2.251   0.384   4.327
 2297SOL     OW 6915   3.567   1.487   4.828
 2297SOL    HW1 6916   3.474   1.462   4.801
 2297SOL    HW2 6917   3.593   1.437   4.910
 2298SOL     OW 6918   2.179   0.547   5.004
 2298SOL    HW1 6919   2.217   0.488   5.076
 2298SOL    HW2 6920   2.219   0.521   4.916
 2299SOL     OW 6921   2.674   1.586   4.411
 2299SOL    HW1 6922   2.706   1.596   4.317
 2299SOL    HW2 6923   2.595   1.524   4.413
 2300SOL     OW 6924   3.286   0.214   4.836
 2300SOL    HW1 6925   3.338   0.149   4.891
 2300SOL    HW2 6926   3.237   0.277   4.897
 2301SOL     OW 6927   2.863   0.034   4.878
 2301SOL    HW1 6928   2.800  -0.038   4.847
 2301SOL    HW2 6929   2.956  -0.002   4.878
 2302SOL     OW 6930   2.632   1.330   4.025
 2302SOL    HW1 6931   2.586   1.243   4.042
 2302SOL    HW2 6932   2.723   1.327   4.066
 2303SOL     OW 6933   2.480   1.567   5.008
 2303SOL    HW1 6934   2.475   1.649   5.065
 2303SOL    HW2 6935   2.569   1.564   4.963
 2304SOL     OW 6936   3.214   0.052   3.892
 2304SOL    HW1 6937   3.249   0.011   3.808
 2304SOL    HW2 6938   3.124   0.014   3.912
 2305SOL     OW 6939   3.162   0.453   4.415
 2305SOL    HW1 6940   3.103   0.533   4.419
 2305SOL    HW2 6941   3.177   0.418   4.508
 2306SOL     OW 6942   3.455   0.221   4.606
 2306SOL    HW1 6943   3.371   0.220   4.660
 2306SOL    HW2 6944   3.457   0.304   4.550
 2307SOL     OW 6945   1.901   1.077   4.024
 2307SOL    HW1 6946   2.000   1.066   4.015
 2307SOL    HW2 6947   1.861   0.991   4.056
 2308SOL     OW 6948   2.737   1.646   4.061
 2308SOL    HW1 6949   2.660   1.611   4.007
 2308SOL    HW2 6950   2.705   1.717   4.123
 2309SOL     OW 6951   2.092   2.490   0.113
 2309SOL    HW1 6952   1.999   2.488   0.150
 2309SOL    HW2 6953   2.093   2.451   0.021
 2310SOL     OW 6954   2.087   2.137   0.996
 2310SOL    HW1 6955   2.122   2.120   1.088
 2310SOL    HW2 6956   1.999   2.092   0.984
 2311SOL     OW 6957   1.881   2.230   0.647
 2311SOL    HW1 6958   1.799   2.273   0.686
 2311SOL    HW2 6959   1.853   2.157   0.584
 2312SOL     OW 6960   2.431   3.137   1.165
 2312SOL    HW1 6961   2.338   3.130   1.128
 2312SOL    HW2 6962   2.442   3.226   1.209
 2313SOL     OW 6963   3.417   3.373   0.703
 2313SOL    HW1 6964   3.360   3.357   0.784
 2313SOL    HW2 6965   3.358   3.383   0.623
 2314SOL     OW 6966   2.997   2.565   0.717
 2314SOL    HW1 6967   3.054   2.643   0.692
 2314SOL    HW2 6968   2.937   2.591   0.793
 2315SOL     OW 6969   3.617   2.469   0.231
 2315SOL    HW1 6970   3.605   2.456   0.132
 2315SOL    HW2 6971   3.587   2.388   0.280
 2316SOL     OW 6972   2.630   3.006   1.023
 2316SOL    HW1 6973   2.552   3.023   1.083
 2316SOL    HW2 6974   2.664   3.093   0.987
 2317SOL     OW 6975   2.712   2.660   1.823
 2317SOL    HW1 6976   2.708   2.736   1.888
 2317SOL    HW2 6977   2.734   2.696   1.732
 2318SOL     OW 6978   2.547   2.874   0.665
 2318SOL    HW1 6979   2.616   2.858   0.735
 2318SOL    HW2 6980   2.474   2.931   0.703
 2319SOL     OW 6981   2.548   3.023   1.803
 2319SOL    HW1 6982   2.608   3.102   1.817
 2319SOL    HW2 6983   2.462   3.054   1.762
 2320SOL     OW 6984   2.197   3.297   1.061
 2320SOL    HW1 6985   2.119   3.266   1.008
 2320SOL    HW2 6986   2.255   3.355   1.004
 2321SOL     OW 6987   3.322   3.367   1.339
 2321SOL    HW1 6988   3.346   3.461   1.365
 2321SOL    HW2 6989   3.306   3.313   1.421
 2322SOL     OW 6990   2.300   2.254   1.499
 2322SOL    HW1 6991   2.382   2.198   1.508
 2322SOL    HW2 6992   2.219   2.196   1.503
 2323SOL     OW 6993   3.465   2.309   0.737
 2323SOL    HW1 6994   3.391   2.355   0.687
 2323SOL    HW2 6995   3.516   2.377   0.790
 2324SOL     OW 6996   2.093   3.575   0.483
 2324SOL    HW1 6997   2.127   3.652   0.537
 2324SOL    HW2 6998   2.137   3.575   0.393
 2325SOL     OW 6999   2.989   3.203   1.690
 2325SOL    HW1 7000   3.036   3.203   1.778
 2325SOL    HW2 7001   2.941   3.116   1.679
 2326SOL     OW 7002   2.092   3.296   0.538
 2326SOL    HW1 7003   2.066   3.392   0.538
 2326SOL    HW2 7004   2.021   3.242   0.583
 2327SOL     OW 7005   2.102   2.953   0.886
 2327SOL    HW1 7006   2.116   2.869   0.938
 2327SOL    HW2 7007   2.047   3.017   0.941
 2328SOL     OW 7008   2.482   3.648   1.439
 2328SOL    HW1 7009   2.390   3.631   1.474
 2328SOL    HW2 7010   2.510   3.740   1.465
 2329SOL     OW 7011   2.468   2.826   0.123
 2329SOL    HW1 7012   2.475   2.910   0.069
 2329SOL    HW2 7013   2.514   2.839   0.211
 2330SOL     OW 7014   3.456   1.976   1.480
 2330SOL    HW1 7015   3.438   2.043   1.408
 2330SOL    HW2 7016   3.453   2.022   1.569
 2331SOL     OW 7017   1.984   2.505   0.563
 2331SOL    HW1 7018   1.939   2.417   0.580
 2331SOL    HW2 7019   1.983   2.559   0.647
 2332SOL     OW 7020   3.704   3.629   0.359
 2332SOL    HW1 7021   3.758   3.600   0.439
 2332SOL    HW2 7022   3.734   3.719   0.330
 2333SOL     OW 7023   1.889   3.458   0.117
 2333SOL    HW1 7024   1.870   3.362   0.138
 2333SOL    HW2 7025   1.856   3.516   0.192
 2334SOL     OW 7026   3.551   2.784   0.612
 2334SOL    HW1 7027   3.646   2.755   0.620
 2334SOL    HW2 7028   3.543   2.849   0.537
 2335SOL     OW 7029   3.503   2.970   0.432
 2335SOL    HW1 7030   3.589   2.972   0.380
 2335SOL    HW2 7031   3.517   3.017   0.520
 2336SOL     OW 7032   1.975   2.599   1.597
 2336SOL    HW1 7033   2.063   2.586   1.642
 2336SOL    HW2 7034   1.962   2.696   1.575
 2337SOL     OW 7035   2.475   3.227   0.726
 2337SOL    HW1 7036   2.426   3.140   0.735
 2337SOL    HW2 7037   2.452   3.270   0.639
 2338SOL     OW 7038   3.155   3.090   1.423
 2338SOL    HW1 7039   3.192   3.017   1.365
 2338SOL    HW2 7040   3.207   3.095   1.508
 2339SOL     OW 7041   2.671   1.866   0.502
 2339SOL    HW1 7042   2.711   1.957   0.493
 2339SOL    HW2 7043   2.571   1.874   0.508
 2340SOL     OW 7044   2.059   2.838   1.264
 2340SOL    HW1 7045   2.148   2.793   1.250
 2340SOL    HW2 7046   1.986   2.773   1.245
 2341SOL     OW 7047   3.387   2.861   0.190
 2341SOL    HW1 7048   3.324   2.785   0.203
 2341SOL    HW2 7049   3.435   2.879   0.276
 2342SOL     OW 7050   3.049   3.654   1.616
 2342SOL    HW1 7051   3.073   3.714   1.540
 2342SOL    HW2 7052   3.056   3.559   1.586
 2343SOL     OW 7053   2.179   2.113   1.801
 2343SOL    HW1 7054   2.250   2.184   1.807
 2343SOL    HW2 7055   2.091   2.152   1.829
 2344SOL     OW 7056   3.328   3.279   0.953
 2344SOL    HW1 7057   3.269   3.285   1.033
 2344SOL    HW2 7058   3.313   3.191   0.907
 2345SOL     OW 7059   3.529   3.576   0.572
 2345SOL    HW1 7060   3.488   3.553   0.484
 2345SOL    HW2 7061   3.511   3.502   0.637
 2346SOL     OW 7062   2.460   2.591   0.270
 2346SOL    HW1 7063   2.484   2.660   0.202
 2346SOL    HW2 7064   2.382   2.624   0.324
 2347SOL     OW 7065   3.143   2.207   0.944
 2347SOL    HW1 7066   3.057   2.157   0.931
 2347SOL    HW2 7067   3.205   2.153   1.000
 2348SOL     OW 7068   3.438   3.524   0.307
 2348SOL    HW1 7069   3.527   3.570   0.310
 2348SOL    HW2 7070   3.417   3.500   0.212
 2349SOL     OW 7071   2.669   2.467   1.465
 2349SOL    HW1 7072   2.622   2.464   1.554
 2349SOL    HW2 7073   2.618   2.412   1.399
 2350SOL     OW 7074   3.256   2.331   1.674
 2350SOL    HW1 7075   3.236   2.374   1.762
 2350SOL    HW2 7076   3.334   2.269   1.683
 2351SOL     OW 7077   2.835   2.752   1.572
 2351SOL    HW1 7078   2.881   2.668   1.543
 2351SOL    HW2 7079   2.779   2.786   1.497
 2352SOL     OW 7080   2.853   2.272   1.242
 2352SOL    HW1 7081   2.776   2.306   1.296
 2352SOL    HW2 7082   2.819   2.221   1.163
 2353SOL     OW 7083   2.903   2.563   0.429
 2353SOL    HW1 7084   2.929   2.559   0.525
 2353SOL    HW2 7085   2.818   2.512   0.415
 2354SOL     OW 7086   1.938   2.673   0.789
 2354SOL    HW1 7087   2.037   2.661   0.798
 2354SOL    HW2 7088   1.914   2.768   0.810
 2355SOL     OW 7089   1.992   3.683   1.571
 2355SOL    HW1 7090   1.982   3.668   1.670
 2355SOL    HW2 7091   1.906   3.719   1.535
 2356SOL     OW 7092   2.727   2.210   0.195
 2356SOL    HW1 7093   2.786   2.273   0.146
 2356SOL    HW2 7094   2.746   2.116   0.166
 2357SOL     OW 7095   3.581   2.447   1.831
 2357SOL    HW1 7096   3.555   2.536   1.795
 2357SOL    HW2 7097   3.579   2.379   1.758
 2358SOL     OW 7098   3.224   3.006   0.545
 2358SOL    HW1 7099   3.307   2.977   0.497
 2358SOL    HW2 7100   3.175   3.073   0.489
 2359SOL     OW 7101   2.412   2.058   0.885
 2359SOL    HW1 7102   2.407   2.053   0.985
 2359SOL    HW2 7103   2.414   2.154   0.856
 2360SOL     OW 7104   2.870   3.318   0.477
 2360SOL    HW1 7105   2.824   3.390   0.425
 2360SOL    HW2 7106   2.866   3.338   0.575
 2361SOL     OW 7107   2.213   3.663   0.853
 2361SOL    HW1 7108   2.263   3.577   0.859
 2361SOL    HW2 7109   2.278   3.740   0.850
 2362SOL     OW 7110   3.657   2.928   0.873
 2362SOL    HW1 7111   3.595   2.913   0.797
 2362SOL    HW2 7112   3.605   2.939   0.958
 2363SOL     OW 7113   3.089   3.412   1.506
 2363SOL    HW1 7114   3.095   3.335   1.570
 2363SOL    HW2 7115   3.037   3.386   1.426
 2364SOL     OW 7116   2.183   2.805   0.242
 2364SOL    HW1 7117   2.265   2.844   0.200
 2364SOL    HW2 7118   2.156   2.723   0.193
 2365SOL     OW 7119   3.320   2.597   0.728
 2365SOL    HW1 7120   3.315   2.532   0.803
 2365SOL    HW2 7121   3.400   2.656   0.741
 2366SOL     OW 7122   2.323   3.128   1.727
 2366SOL    HW1 7123   2.273   3.129   1.641
 2366SOL    HW2 7124   2.260   3.110   1.803
 2367SOL     OW 7125   2.973   3.638   0.237
 2367SOL    HW1 7126   2.913   3.576   0.287
 2367SOL    HW2 7127   3.004   3.594   0.152
 2368SOL     OW 7128   2.064   2.147   1.498
 2368SOL    HW1 7129   1.984   2.207   1.485
 2368SOL    HW2 7130   2.054   2.098   1.584
 2369SOL     OW 7131   3.494   3.239   0.081
 2369SOL    HW1 7132   3.462   3.333   0.071
 2369SOL    HW2 7133   3.418   3.176   0.069
 2370SOL     OW 7134   2.326   3.605   0.323
 2370SOL    HW1 7135   2.359   3.644   0.409
 2370SOL    HW2 7136   2.402   3.598   0.258
 2371SOL     OW 7137   3.262   1.969   0.426
 2371SOL    HW1 7138   3.238   1.932   0.336
 2371SOL    HW2 7139   3.361   1.985   0.430
 2372SOL     OW 7140   2.111   3.647   1.241
 2372SOL    HW1 7141   2.168   3.582   1.291
 2372SOL    HW2 7142   2.095   3.614   1.148
 2373SOL     OW 7143   2.802   3.560   0.904
 2373SOL    HW1 7144   2.882   3.503   0.925
 2373SOL    HW2 7145   2.753   3.520   0.827
 2374SOL     OW 7146   2.244   2.562   0.480
 2374SOL    HW1 7147   2.289   2.472   0.477
 2374SOL    HW2 7148   2.150   2.551   0.513
 2375SOL     OW 7149   3.409   2.084   1.729
 2375SOL    HW1 7150   3.404   2.121   1.821
 2375SOL    HW2 7151   3.337   2.015   1.717
 2376SOL     OW 7152   2.476   1.984   0.117
 2376SOL    HW1 7153   2.574   1.962   0.124
 2376SOL    HW2 7154   2.445   1.967   0.024
 2377SOL     OW 7155   2.643   2.126   1.749
 2377SOL    HW1 7156   2.710   2.065   1.792
 2377SOL    HW2 7157   2.570   2.145   1.814
 2378SOL     OW 7158   2.750   3.376   1.195
 2378SOL    HW1 7159   2.727   3.351   1.101
 2378SOL    HW2 7160   2.811   3.307   1.234
 2379SOL     OW 7161   3.213   2.452   1.433
 2379SOL    HW1 7162   3.241   2.409   1.518
 2379SOL    HW2 7163   3.238   2.548   1.434
 2380SOL     OW 7164   2.665   3.264   0.924
 2380SOL    HW1 7165   2.755   3.278   0.882
 2380SOL    HW2 7166   2.594   3.266   0.853
 2381SOL     OW 7167   2.784   2.365   0.899
 2381SOL    HW1 7168   2.759   2.356   0.803
 2381SOL    HW2 7169   2.832   2.283   0.930
 2382SOL     OW 7170   2.401   1.926   0.512
 2382SOL    HW1 7171   2.320   1.927   0.570
 2382SOL    HW2 7172   2.404   2.009   0.457
 2383SOL     OW 7173   3.296   3.050   0.041
 2383SOL    HW1 7174   3.328   2.974   0.098
 2383SOL    HW2 7175   3.204   3.077   0.071
 2384SOL     OW 7176   2.159   1.897   0.171
 2384SOL    HW1 7177   2.208   1.981   0.150
 2384SOL    HW2 7178   2.221   1.832   0.216
 2385SOL     OW 7179   2.797   2.098   0.480
 2385SOL    HW1 7180   2.749   2.139   0.402
 2385SOL    HW2 7181   2.896   2.096   0.461
 2386SOL     OW 7182   2.938   2.545   1.464
 2386SOL    HW1 7183   2.858   2.484   1.467
 2386SOL    HW2 7184   3.019   2.492   1.440
 2387SOL     OW 7185   3.089   3.432   0.793
 2387SOL    HW1 7186   3.110   3.506   0.728
 2387SOL    HW2 7187   3.157   3.432   0.866
 2388SOL     OW 7188   2.321   3.014   0.741
 2388SOL    HW1 7189   2.250   2.987   0.806
 2388SOL    HW2 7190   2.295   2.986   0.648
 2389SOL     OW 7191   3.133   3.659   0.591
 2389SOL    HW1 7192   3.177   3.723   0.527
 2389SOL    HW2 7193   3.083   3.711   0.661
 2390SOL     OW 7194   2.894   2.411   0.016
 2390SOL    HW1 7195   2.853   2.493  -0.023
 2390SOL    HW2 7196   2.958   2.437   0.089
 2391SOL     OW 7197   1.940   2.418   1.386
 2391SOL    HW1 7198   2.032   2.417   1.345
 2391SOL    HW2 7199   1.934   2.492   1.453
 2392SOL     OW 7200   2.423   2.084   1.147
 2392SOL    HW1 7201   2.461   2.000   1.184
 2392SOL    HW2 7202   2.335   2.103   1.191
 2393SOL     OW 7203   2.728   2.316   0.642
 2393SOL    HW1 7204   2.696   2.388   0.580
 2393SOL    HW2 7205   2.752   2.235   0.589
 2394SOL     OW 7206   2.879   1.901   0.753
 2394SOL    HW1 7207   2.807   1.906   0.684
 2394SOL    HW2 7208   2.855   1.832   0.822
 2395SOL     OW 7209   3.291   3.035   0.867
 2395SOL    HW1 7210   3.236   2.951   0.860
 2395SOL    HW2 7211   3.317   3.064   0.775
 2396SOL     OW 7212   3.328   2.452   0.992
 2396SOL    HW1 7213   3.298   2.357   0.999
 2396SOL    HW2 7214   3.401   2.468   1.058
 2397SOL     OW 7215   3.719   2.695   0.377
 2397SOL    HW1 7216   3.761   2.631   0.441
 2397SOL    HW2 7217   3.681   2.644   0.299
 2398SOL     OW 7218   2.350   3.247   0.174
 2398SOL    HW1 7219   2.263   3.232   0.221
 2398SOL    HW2 7220   2.333   3.273   0.079
 2399SOL     OW 7221   3.526   3.142   0.657
 2399SOL    HW1 7222   3.625   3.150   0.671
 2399SOL    HW2 7223   3.481   3.226   0.688
 2400SOL     OW 7224   3.252   2.437   0.078
 2400SOL    HW1 7225   3.198   2.416   0.159
 2400SOL    HW2 7226   3.343   2.396   0.087
 2401SOL     OW 7227   2.389   2.118   0.328
 2401SOL    HW1 7228   2.416   2.059   0.253
 2401SOL    HW2 7229   2.389   2.213   0.297
 2402SOL     OW 7230   3.616   3.085   1.588
 2402SOL    HW1 7231   3.707   3.046   1.575
 2402SOL    HW2 7232   3.624   3.181   1.612
 2403SOL     OW 7233   2.926   3.209   1.340
 2403SOL    HW1 7234   2.846   3.186   1.395
 2403SOL    HW2 7235   3.009   3.183   1.389
 2404SOL     OW 7236   3.454   3.491   1.625
 2404SOL    HW1 7237   3.481   3.525   1.535
 2404SOL    HW2 7238   3.533   3.453   1.671
 2405SOL     OW 7239   2.973   3.057   1.100
 2405SOL    HW1 7240   2.933   3.101   1.181
 2405SOL    HW2 7241   2.932   3.094   1.017
 2406SOL     OW 7242   3.500   2.961   1.079
 2406SOL    HW1 7243   3.505   3.042   1.138
 2406SOL    HW2 7244   3.414   2.963   1.028
 2407SOL     OW 7245   2.777   1.951   1.402
 2407SOL    HW1 7246   2.802   1.931   1.307
 2407SOL    HW2 7247   2.849   2.007   1.444
 2408SOL     OW 7248   2.842   2.978   1.719
 2408SOL    HW1 7249   2.743   2.984   1.729
 2408SOL    HW2 7250   2.865   2.898   1.663
 2409SOL     OW 7251   2.567   2.912   0.368
 2409SOL    HW1 7252   2.553   2.919   0.467
 2409SOL    HW2 7253   2.651   2.861   0.350
 2410SOL     OW 7254   2.272   2.675   1.251
 2410SOL    HW1 7255   2.358   2.687   1.301
 2410SOL    HW2 7256   2.230   2.588   1.278
 2411SOL     OW 7257   3.136   2.248   1.262
 2411SOL    HW1 7258   3.157   2.322   1.326
 2411SOL    HW2 7259   3.047   2.265   1.219
 2412SOL     OW 7260   1.926   3.426   1.331
 2412SOL    HW1 7261   1.880   3.508   1.297
 2412SOL    HW2 7262   2.024   3.445   1.340
 2413SOL     OW 7263   2.229   2.962   0.501
 2413SOL    HW1 7264   2.222   3.045   0.445
 2413SOL    HW2 7265   2.233   2.882   0.441
 2414SOL     OW 7266   2.428   2.399   0.865
 2414SOL    HW1 7267   2.440   2.465   0.791
 2414SOL    HW2 7268   2.474   2.433   0.948
 2415SOL     OW 7269   3.114   3.210   0.388
 2415SOL    HW1 7270   3.164   3.287   0.428
 2415SOL    HW2 7271   3.019   3.212   0.420
 2416SOL     OW 7272   3.134   3.307   1.142
 2416SOL    HW1 7273   3.181   3.320   1.229
 2416SOL    HW2 7274   3.068   3.233   1.151
 2417SOL     OW 7275   3.444   2.501   0.472
 2417SOL    HW1 7276   3.413   2.562   0.545
 2417SOL    HW2 7277   3.494   2.553   0.403
 2418SOL     OW 7278   2.216   3.372   1.329
 2418SOL    HW1 7279   2.195   3.328   1.242
 2418SOL    HW2 7280   2.313   3.398   1.332
 2419SOL     OW 7281   2.264   2.613   1.598
 2419SOL    HW1 7282   2.332   2.668   1.551
 2419SOL    HW2 7283   2.304   2.525   1.625
 2420SOL     OW 7284   3.449   2.641   1.670
 2420SOL    HW1 7285   3.357   2.679   1.665
 2420SOL    HW2 7286   3.509   2.688   1.605
 2421SOL     OW 7287   2.875   1.967   1.770
 2421SOL    HW1 7288   2.881   2.052   1.718
 2421SOL    HW2 7289   2.907   1.891   1.713
 2422SOL     OW 7290   2.366   1.912   1.740
 2422SOL    HW1 7291   2.324   1.855   1.670
 2422SOL    HW2 7292   2.300   1.981   1.772
 2423SOL     OW 7293   2.435   2.732   1.029
 2423SOL    HW1 7294   2.479   2.821   1.020
 2423SOL    HW2 7295   2.372   2.732   1.106
 2424SOL     OW 7296   3.222   2.724   1.045
 2424SOL    HW1 7297   3.147   2.724   0.979
 2424SOL    HW2 7298   3.259   2.632   1.054
 2425SOL     OW 7299   3.071   2.387   0.275
 2425SOL    HW1 7300   3.084   2.303   0.329
 2425SOL    HW2 7301   3.042   2.461   0.335
 2426SOL     OW 7302   2.169   2.075   1.231
 2426SOL    HW1 7303   2.146   2.112   1.321
 2426SOL    HW2 7304   2.139   1.980   1.225
 2427SOL     OW 7305   1.899   3.172   1.282
 2427SOL    HW1 7306   1.952   3.123   1.350
 2427SOL    HW2 7307   1.921   3.270   1.287
 2428SOL     OW 7308   2.594   2.496   1.064
 2428SOL    HW1 7309   2.653   2.470   0.988
 2428SOL    HW2 7310   2.566   2.592   1.053
 2429SOL     OW 7311   3.590   2.797   1.854
 2429SOL    HW1 7312   3.544   2.790   1.765
 2429SOL    HW2 7313   3.528   2.841   1.920
 2430SOL     OW 7314   2.169   1.925   0.618
 2430SOL    HW1 7315   2.158   2.019   0.651
 2430SOL    HW2 7316   2.164   1.862   0.695
 2431SOL     OW 7317   3.484   2.229   0.374
 2431SOL    HW1 7318   3.486   2.153   0.438
 2431SOL    HW2 7319   3.436   2.306   0.414
 2432SOL     OW 7320   2.885   2.628   0.966
 2432SOL    HW1 7321   2.900   2.649   1.062
 2432SOL    HW2 7322   2.855   2.533   0.957
 2433SOL     OW 7323   2.842   3.435   1.700
 2433SOL    HW1 7324   2.822   3.479   1.612
 2433SOL    HW2 7325   2.881   3.344   1.684
 2434SOL     OW 7326   3.721   3.380   1.605
 2434SOL    HW1 7327   3.735   3.407   1.510
 2434SOL    HW2 7328   3.804   3.402   1.658
 2435SOL     OW 7329   2.212   2.760   1.804
 2435SOL    HW1 7330   2.288   2.804   1.852
 2435SOL    HW2 7331   2.247   2.713   1.722
 2436SOL     OW 7332   3.402   2.136   0.125
 2436SOL    HW1 7333   3.341   2.061   0.148
 2436SOL    HW2 7334   3.424   2.188   0.208
 2437SOL     OW 7335   3.165   2.700   0.042
 2437SOL    HW1 7336   3.199   2.607   0.057
 2437SOL    HW2 7337   3.183   2.727  -0.053
 2438SOL     OW 7338   2.930   3.195   0.849
 2438SOL    HW1 7339   2.937   3.111   0.794
 2438SOL    HW2 7340   2.992   3.264   0.813
 2439SOL     OW 7341   2.181   2.672   0.949
 2439SOL    HW1 7342   2.274   2.708   0.954
 2439SOL    HW2 7343   2.175   2.587   1.001
 2440SOL     OW 7344   2.201   2.371   1.006
 2440SOL    HW1 7345   2.149   2.288   0.989
 2440SOL    HW2 7346   2.278   2.376   0.942
 2441SOL     OW 7347   3.000   2.242   1.678
 2441SOL    HW1 7348   2.955   2.305   1.742
 2441SOL    HW2 7349   3.093   2.273   1.661
 2442SOL     OW 7350   3.022   2.069   1.477
 2442SOL    HW1 7351   3.022   2.133   1.554
 2442SOL    HW2 7352   3.050   2.117   1.394
 2443SOL     OW 7353   1.870   3.188   0.200
 2443SOL    HW1 7354   1.777   3.209   0.169
 2443SOL    HW2 7355   1.880   3.089   0.213
 2444SOL     OW 7356   1.950   3.663   0.927
 2444SOL    HW1 7357   1.908   3.577   0.900
 2444SOL    HW2 7358   2.044   3.666   0.893
 2445SOL     OW 7359   2.366   3.430   0.910
 2445SOL    HW1 7360   2.432   3.504   0.919
 2445SOL    HW2 7361   2.410   3.351   0.868
 2446SOL     OW 7362   2.864   2.658   1.238
 2446SOL    HW1 7363   2.905   2.626   1.324
 2446SOL    HW2 7364   2.768   2.631   1.235
 2447SOL     OW 7365   1.902   2.406   1.114
 2447SOL    HW1 7366   1.987   2.373   1.073
 2447SOL    HW2 7367   1.915   2.421   1.212
 2448SOL     OW 7368   2.051   2.382   1.722
 2448SOL    HW1 7369   2.110   2.342   1.652
 2448SOL    HW2 7370   1.993   2.453   1.681
 2449SOL     OW 7371   3.231   2.812   1.660
 2449SOL    HW1 7372   3.270   2.901   1.680
 2449SOL    HW2 7373   3.241   2.792   1.563
 2450SOL     OW 7374   2.677   2.434   0.325
 2450SOL    HW1 7375   2.684   2.345   0.279
 2450SOL    HW2 7376   2.583   2.468   0.317
 2451SOL     OW 7377   3.519   2.466   1.206
 2451SOL    HW1 7378   3.481   2.397   1.268
 2451SOL    HW2 7379   3.601   2.430   1.162
 2452SOL     OW 7380   2.114   3.426   1.744
 2452SOL    HW1 7381   2.084   3.483   1.820
 2452SOL    HW2 7382   2.107   3.329   1.770
 2453SOL     OW 7383   2.533   2.326   1.269
 2453SOL    HW1 7384   2.499   2.237   1.239
 2453SOL    HW2 7385   2.559   2.380   1.189
 2454SOL     OW 7386   2.792   3.540   1.465
 2454SOL    HW1 7387   2.768   3.522   1.370
 2454SOL    HW2 7388   2.822   3.634   1.475
 2455SOL     OW 7389   2.335   2.362   0.191
 2455SOL    HW1 7390   2.396   2.442   0.195
 2455SOL    HW2 7391   2.240   2.393   0.198
 2456SOL     OW 7392   2.021   2.999   1.466
 2456SOL    HW1 7393   2.043   2.938   1.542
 2456SOL    HW2 7394   2.031   2.950   1.380
 2457SOL     OW 7395   3.209   2.921   1.234
 2457SOL    HW1 7396   3.233   2.858   1.160
 2457SOL    HW2 7397   3.119   2.961   1.216
 2458SOL     OW 7398   3.164   2.717   0.309
 2458SOL    HW1 7399   3.078   2.686   0.351
 2458SOL    HW2 7400   3.160   2.703   0.210
 2459SOL     OW 7401   3.621   3.609   1.154
 2459SOL    HW1 7402   3.682   3.639   1.081
 2459SOL    HW2 7403   3.583   3.520   1.132
 2460SOL     OW 7404   3.114   3.593   1.128
 2460SOL    HW1 7405   3.198   3.598   1.074
 2460SOL    HW2 7406   3.091   3.497   1.146
 2461SOL     OW 7407   1.945   3.120   1.022
 2461SOL    HW1 7408   1.940   3.119   1.122
 2461SOL    HW2 7409   1.862   3.079   0.984
 2462SOL     OW 7410   2.550   3.524   1.716
 2462SOL    HW1 7411   2.494   3.605   1.725
 2462SOL    HW2 7412   2.602   3.528   1.630
 2463SOL     OW 7413   2.765   1.948   0.133
 2463SOL    HW1 7414   2.816   1.949   0.047
 2463SOL    HW2 7415   2.821   1.906   0.204
 2464SOL     OW 7416   3.588   1.997   0.523
 2464SOL    HW1 7417   3.661   1.980   0.456
 2464SOL    HW2 7418   3.557   1.910   0.561
 2465SOL     OW 7419   3.250   3.435   0.477
 2465SOL    HW1 7420   3.317   3.447   0.403
 2465SOL    HW2 7421   3.210   3.524   0.500
 2466SOL     OW 7422   1.992   3.656   1.851
 2466SOL    HW1 7423   1.951   3.582   1.904
 2466SOL    HW2 7424   2.056   3.707   1.909
 2467SOL     OW 7425   3.142   2.789   0.672
 2467SOL    HW1 7426   3.202   2.708   0.674
 2467SOL    HW2 7427   3.182   2.858   0.612
 2468SOL     OW 7428   2.692   3.135   1.422
 2468SOL    HW1 7429   2.687   3.168   1.517
 2468SOL    HW2 7430   2.606   3.154   1.376
 2469SOL     OW 7431   2.534   3.478   0.154
 2469SOL    HW1 7432   2.543   3.488   0.055
 2469SOL    HW2 7433   2.494   3.389   0.175
 2470SOL     OW 7434   3.512   3.582   1.394
 2470SOL    HW1 7435   3.565   3.592   1.310
 2470SOL    HW2 7436   3.485   3.672   1.428
 2471SOL     OW 7437   3.703   2.037   0.963
 2471SOL    HW1 7438   3.742   1.952   0.927
 2471SOL    HW2 7439   3.605   2.039   0.944
 2472SOL     OW 7440   2.125   2.188   0.720
 2472SOL    HW1 7441   2.046   2.239   0.686
 2472SOL    HW2 7442   2.116   2.173   0.818
 2473SOL     OW 7443   3.056   3.474   0.031
 2473SOL    HW1 7444   3.062   3.381   0.068
 2473SOL    HW2 7445   2.997   3.474  -0.049
 2474SOL     OW 7446   2.684   2.864   1.372
 2474SOL    HW1 7447   2.724   2.863   1.280
 2474SOL    HW2 7448   2.694   2.956   1.412
 2475SOL     OW 7449   2.778   2.772   0.291
 2475SOL    HW1 7450   2.841   2.810   0.223
 2475SOL    HW2 7451   2.818   2.689   0.330
 2476SOL     OW 7452   3.366   3.469   0.044
 2476SOL    HW1 7453   3.274   3.506   0.051
 2476SOL    HW2 7454   3.404   3.489  -0.046
 2477SOL     OW 7455   2.234   3.150   1.490
 2477SOL    HW1 7456   2.221   3.243   1.456
 2477SOL    HW2 7457   2.150   3.098   1.477
 2478SOL     OW 7458   3.476   3.154   1.289
 2478SOL    HW1 7459   3.536   3.157   1.369
 2478SOL    HW2 7460   3.401   3.218   1.302
 2479SOL     OW 7461   2.901   2.960   0.696
 2479SOL    HW1 7462   2.831   2.913   0.750
 2479SOL    HW2 7463   2.960   2.892   0.653
 2480SOL     OW 7464   2.876   2.098   0.971
 2480SOL    HW1 7465   2.868   2.062   0.878
 2480SOL    HW2 7466   2.874   2.022   1.036
 2481SOL     OW 7467   2.452   3.349   0.491
 2481SOL    HW1 7468   2.494   3.291   0.421
 2481SOL    HW2 7469   2.408   3.428   0.447
 2482SOL     OW 7470   3.571   2.247   1.381
 2482SOL    HW1 7471   3.644   2.316   1.385
 2482SOL    HW2 7472   3.599   2.172   1.322
 2483SOL     OW 7473   2.117   3.210   0.290
 2483SOL    HW1 7474   2.021   3.211   0.263
 2483SOL    HW2 7475   2.129   3.263   0.374
 2484SOL     OW 7476   1.967   2.875   1.726
 2484SOL    HW1 7477   1.890   2.842   1.780
 2484SOL    HW2 7478   2.052   2.845   1.768
 2485SOL     OW 7479   2.534   2.065   1.489
 2485SOL    HW1 7480   2.624   2.049   1.449
 2485SOL    HW2 7481   2.542   2.070   1.588
 2486SOL     OW 7482   1.937   2.207   0.033
 2486SOL    HW1 7483   1.845   2.179   0.004
 2486SOL    HW2 7484   1.968   2.284  -0.023
 2487SOL     OW 7485   3.302   2.718   1.398
 2487SOL    HW1 7486   3.245   2.770   1.335
 2487SOL    HW2 7487   3.398   2.730   1.374
 2488SOL     OW 7488   1.934   2.028   0.318
 2488SOL    HW1 7489   1.917   2.111   0.264
 2488SOL    HW2 7490   2.024   1.991   0.296
 2489SOL     OW 7491   3.045   3.197   0.119
 2489SOL    HW1 7492   2.946   3.186   0.121
 2489SOL    HW2 7493   3.079   3.212   0.212
 2490SOL     OW 7494   2.475   2.704   1.431
 2490SOL    HW1 7495   2.531   2.785   1.414
 2490SOL    HW2 7496   2.534   2.624   1.434
 2491SOL     OW 7497   3.355   3.629   0.959
 2491SOL    HW1 7498   3.388   3.693   0.890
 2491SOL    HW2 7499   3.421   3.623   1.034
 2492SOL     OW 7500   2.578   2.427   1.708
 2492SOL    HW1 7501   2.597   2.492   1.782
 2492SOL    HW2 7502   2.638   2.347   1.717
 2493SOL     OW 7503   3.312   3.082   1.633
 2493SOL    HW1 7504   3.303   3.072   1.732
 2493SOL    HW2 7505   3.408   3.075   1.607
 2494SOL     OW 7506   2.252   3.603   1.560
 2494SOL    HW1 7507   2.161   3.644   1.558
 2494SOL    HW2 7508   2.245   3.509   1.592
 2495SOL     OW 7509   3.536   2.745   1.254
 2495SOL    HW1 7510   3.509   2.656   1.217
 2495SOL    HW2 7511   3.537   2.813   1.181
 2496SOL     OW 7512   3.087   2.187   0.449
 2496SOL    HW1 7513   3.152   2.113   0.438
 2496SOL    HW2 7514   3.107   2.237   0.533
 2497SOL     OW 7515   2.456   2.607   0.652
 2497SOL    HW1 7516   2.506   2.692   0.633
 2497SOL    HW2 7517   2.368   2.609   0.604
 2498SOL     OW 7518   3.639   2.204   1.642
 2498SOL    HW1 7519   3.622   2.235   1.548
 2498SOL    HW2 7520   3.555   2.167   1.680
 2499SOL     OW 7521   3.592   2.796   1.517
 2499SOL    HW1 7522   3.630   2.887   1.532
 2499SOL    HW2 7523   3.584   2.779   1.418
 2500SOL     OW 7524   2.721   3.236   0.016
 2500SOL    HW1 7525   2.675   3.251   0.104
 2500SOL    HW2 7526   2.765   3.321  -0.014
 2501SOL     OW 7527   2.523   3.652   0.953
 2501SOL    HW1 7528   2.477   3.740   0.940
 2501SOL    HW2 7529   2.622   3.664   0.946
 2502SOL     OW 7530   2.721   2.818   0.861
 2502SOL    HW1 7531   2.775   2.749   0.909
 2502SOL    HW2 7532   2.689   2.887   0.927
 2503SOL     OW 7533   2.945   2.846   0.087
 2503SOL    HW1 7534   2.922   2.899   0.005
 2503SOL    HW2 7535   3.026   2.790   0.068
 2504SOL     OW 7536   3.723   3.431   0.851
 2504SOL    HW1 7537   3.652   3.419   0.781
 2504SOL    HW2 7538   3.724   3.352   0.911
 2505SOL     OW 7539   2.083   3.176   1.844
 2505SOL    HW1 7540   2.018   3.103   1.823
 2505SOL    HW2 7541   2.087   3.190   1.942
 2506SOL     OW 7542   1.941   3.102   0.653
 2506SOL    HW1 7543   1.940   3.055   0.741
 2506SOL    HW2 7544   2.023   3.074   0.602
 2507SOL     OW 7545   2.534   3.253   1.624
 2507SOL    HW1 7546   2.456   3.203   1.662
 2507SOL    HW2 7547   2.531   3.348   1.655
 2508SOL     OW 7548   3.686   2.054   1.227
 2508SOL    HW1 7549   3.682   1.964   1.271
 2508SOL    HW2 7550   3.689   2.043   1.128
 2509SOL     OW 7551   2.290   2.286   0.520
 2509SOL    HW1 7552   2.320   2.214   0.458
 2509SOL    HW2 7553   2.251   2.246   0.603
 2510SOL     OW 7554   3.567   3.349   1.104
 2510SOL    HW1 7555   3.474   3.324   1.077
 2510SOL    HW2 7556   3.593   3.299   1.186
 2511SOL     OW 7557   2.179   2.409   1.280
 2511SOL    HW1 7558   2.217   2.350   1.352
 2511SOL    HW2 7559   2.219   2.383   1.192
 2512SOL     OW 7560   2.674   3.448   0.687
 2512SOL    HW1 7561   2.706   3.458   0.593
 2512SOL    HW2 7562   2.595   3.386   0.689
 2513SOL     OW 7563   3.286   2.076   1.112
 2513SOL    HW1 7564   3.338   2.011   1.167
 2513SOL    HW2 7565   3.237   2.139   1.173
 2514SOL     OW 7566   2.863   1.896   1.154
 2514SOL    HW1 7567   2.800   1.824   1.123
 2514SOL    HW2 7568   2.956   1.860   1.154
 2515SOL     OW 7569   2.632   3.192   0.301
 2515SOL    HW1 7570   2.586   3.105   0.318
 2515SOL    HW2 7571   2.723   3.189   0.342
 2516SOL     OW 7572   2.480   3.429   1.284
 2516SOL    HW1 7573   2.475   3.511   1.341
 2516SOL    HW2 7574   2.569   3.426   1.239
 2517SOL     OW 7575   3.214   1.914   0.168
 2517SOL    HW1 7576   3.249   1.873   0.084
 2517SOL    HW2 7577   3.124   1.876   0.188
 2518SOL     OW 7578   3.162   2.315   0.691
 2518SOL    HW1 7579   3.103   2.395   0.695
 2518SOL    HW2 7580   3.177   2.280   0.784
 2519SOL     OW 7581   3.455   2.083   0.882
 2519SOL    HW1 7582   3.371   2.082   0.936
 2519SOL    HW2 7583   3.457   2.166   0.826
 2520SOL     OW 7584   1.901   2.939   0.300
 2520SOL    HW1 7585   2.000   2.928   0.291
 2520SOL    HW2 7586   1.861   2.853   0.332
 2521SOL     OW 7587   2.737   3.508   0.337
 2521SOL    HW1 7588   2.660   3.473   0.283
 2521SOL    HW2 7589   2.705   3.579   0.399
 2522SOL     OW 7590   2.092   2.490   1.975
 2522SOL    HW1 7591   1.999   2.488   2.012
 2522SOL    HW2 7592   2.093   2.451   1.883
 2523SOL     OW 7593   2.087   2.137   2.858
 2523SOL    HW1 7594   2.122   2.120   2.950
 2523SOL    HW2 7595   1.999   2.092   2.846
 2524SOL     OW 7596   1.881   2.230   2.509
 2524SOL    HW1 7597   1.799   2.273   2.548
 2524SOL    HW2 7598   1.853   2.157   2.446
 2525SOL     OW 7599   2.431   3.137   3.027
 2525SOL    HW1 7600   2.338   3.130   2.990
 2525SOL    HW2 7601   2.442   3.226   3.071
 2526SOL     OW 7602   3.417   3.373   2.565
 2526SOL    HW1 7603   3.360   3.357   2.646
 2526SOL    HW2 7604   3.358   3.383   2.485
 2527SOL     OW 7605   2.997   2.565   2.579
 2527SOL    HW1 7606   3.054   2.643   2.554
 2527SOL    HW2 7607   2.937   2.591   2.655
 2528SOL     OW 7608   3.617   2.469   2.093
 2528SOL    HW1 7609   3.605   2.456   1.994
 2528SOL    HW2 7610   3.587   2.388   2.142
 2529SOL     OW 7611   2.630   3.006   2.885
 2529SOL    HW1 7612   2.552   3.023   2.945
 2529SOL    HW2 7613   2.664   3.093   2.849
 2530SOL     OW 7614   2.712   2.660   3.685
 2530SOL    HW1 7615   2.708   2.736   3.750
 2530SOL    HW2 7616   2.734   2.696   3.594
 2531SOL     OW 7617   2.548   3.023   3.665
 2531SOL    HW1 7618   2.608   3.102   3.679
 2531SOL    HW2 7619   2.462   3.054   3.624
 2532SOL     OW 7620   2.197   3.297   2.923
 2532SOL    HW1 7621   2.119   3.266   2.870
 2532SOL    HW2 7622   2.255   3.355   2.866
 2533SOL     OW 7623   3.322   3.367   3.201
 2533SOL    HW1 7624   3.346   3.461   3.227
 2533SOL    HW2 7625   3.306   3.313   3.283
 2534SOL     OW 7626   2.300   2.254   3.361
 2534SOL    HW1 7627   2.382   2.198   3.370
 2534SOL    HW2 7628   2.219   2.196   3.365
 2535SOL     OW 7629   3.465   2.309   2.599
 2535SOL    HW1 7630   3.391   2.355   2.549
 2535SOL    HW2 7631   3.516   2.377   2.652
 2536SOL     OW 7632   2.093   3.575   2.345
 2536SOL    HW1 7633   2.127   3.652   2.399
 2536SOL    HW2 7634   2.137   3.575   2.255
 2537SOL     OW 7635   2.989   3.203   3.552
 2537SOL    HW1 7636   3.036   3.203   3.640
 2537SOL    HW2 7637   2.941   3.116   3.541
 2538SOL     OW 7638   2.092   3.296   2.400
 2538SOL    HW1 7639   2.066   3.392   2.400
 2538SOL    HW2 7640   2.021   3.242   2.445
 2539SOL     OW 7641   2.102   2.953   2.748
 2539SOL    HW1 7642   2.116   2.869   2.800
 2539SOL    HW2 7643   2.047   3.017   2.803
 2540SOL     OW 7644   2.482   3.648   3.301
 2540SOL    HW1 7645   2.390   3.631   3.336
 2540SOL    HW2 7646   2.510   3.740   3.327
 2541SOL     OW 7647   2.468   2.826   1.985
 2541SOL    HW1 7648   2.475   2.910   1.931
 2541SOL    HW2 7649   2.514   2.839   2.073
 2542SOL     OW 7650   3.456   1.976   3.342
 2542SOL    HW1 7651   3.438   2.043   3.270
 2542SOL    HW2 7652   3.453   2.022   3.431
 2543SOL     OW 7653   1.984   2.505   2.425
 2543SOL    HW1 7654   1.939   2.417   2.442
 2543SOL    HW2 7655   1.983   2.559   2.509
 2544SOL     OW 7656   3.704   3.629   2.221
 2544SOL    HW1 7657   3.758   3.600   2.301
 2544SOL    HW2 7658   3.734   3.719   2.192
 2545SOL     OW 7659   1.889   3.458   1.979
 2545SOL    HW1 7660   1.870   3.362   2.000
 2545SOL    HW2 7661   1.856   3.516   2.054
 2546SOL     OW 7662   3.551   2.784   2.474
 2546SOL    HW1 7663   3.646   2.755   2.482
 2546SOL    HW2 7664   3.543   2.849   2.399
 2547SOL     OW 7665   3.503   2.970   2.294
 2547SOL    HW1 7666   3.589   2.972   2.242
 2547SOL    HW2 7667   3.517   3.017   2.382
 2548SOL     OW 7668   1.975   2.599   3.459
 2548SOL    HW1 7669   2.063   2.586   3.504
 2548SOL    HW2 7670   1.962   2.696   3.437
 2549SOL     OW 7671   3.155   3.090   3.285
 2549SOL    HW1 7672   3.192   3.017   3.227
 2549SOL    HW2 7673   3.207   3.095   3.370
 2550SOL     OW 7674   2.671   1.866   2.364
 2550SOL    HW1 7675   2.711   1.957   2.355
 2550SOL    HW2 7676   2.571   1.874   2.370
 2551SOL     OW 7677   2.059   2.838   3.126
 2551SOL    HW1 7678   2.148   2.793   3.112
 2551SOL    HW2 7679   1.986   2.773   3.107
 2552SOL     OW 7680   3.387   2.861   2.052
 2552SOL    HW1 7681   3.324   2.785   2.065
 2552SOL    HW2 7682   3.435   2.879   2.138
 2553SOL     OW 7683   3.049   3.654   3.478
 2553SOL    HW1 7684   3.073   3.714   3.402
 2553SOL    HW2 7685   3.056   3.559   3.448
 2554SOL     OW 7686   2.179   2.113   3.663
 2554SOL    HW1 7687   2.250   2.184   3.669
 2554SOL    HW2 7688   2.091   2.152   3.691
 2555SOL     OW 7689   3.328   3.279   2.815
 2555SOL    HW1 7690   3.269   3.285   2.895
 2555SOL    HW2 7691   3.313   3.191   2.769
 2556SOL     OW 7692   3.529   3.576   2.434
 2556SOL    HW1 7693   3.488   3.553   2.346
 2556SOL    HW2 7694   3.511   3.502   2.499
 2557SOL     OW 7695   2.460   2.591   2.132
 2557SOL    HW1 7696   2.484   2.660   2.064
 2557SOL    HW2 7697   2.382   2.624   2.186
 2558SOL     OW 7698   3.143   2.207   2.806
 2558SOL    HW1 7699   3.057   2.157   2.793
 2558SOL    HW2 7700   3.205   2.153   2.862
 2559SOL     OW 7701   3.438   3.524   2.169
 2559SOL    HW1 7702   3.527   3.570   2.172
 2559SOL    HW2 7703   3.417   3.500   2.074
 2560SOL     OW 7704   2.669   2.467   3.327
 2560SOL    HW1 7705   2.622   2.464   3.416
 2560SOL    HW2 7706   2.618   2.412   3.261
 2561SOL     OW 7707   3.256   2.331   3.536
 2561SOL    HW1 7708   3.236   2.374   3.624
 2561SOL    HW2 7709   3.334   2.269   3.545
 2562SOL     OW 7710   2.835   2.752   3.434
 2562SOL    HW1 7711   2.881   2.668   3.405
 2562SOL    HW2 7712   2.779   2.786   3.359
 2563SOL     OW 7713   2.853   2.272   3.104
 2563SOL    HW1 7714   2.776   2.306   3.158
 2563SOL    HW2 7715   2.819   2.221   3.025
 2564SOL     OW 7716   2.903   2.563   2.291
 2564SOL    HW1 7717   2.929   2.559   2.387
 2564SOL    HW2 7718   2.818   2.512   2.277
 2565SOL     OW 7719   1.938   2.673   2.651
 2565SOL    HW1 7720   2.037   2.661   2.660
 2565SOL    HW2 7721   1.914   2.768   2.672
 2566SOL     OW 7722   1.992   3.683   3.433
 2566SOL    HW1 7723   1.982   3.668   3.532
 2566SOL    HW2 7724   1.906   3.719   3.397
 2567SOL     OW 7725   2.727   2.210   2.057
 2567SOL    HW1 7726   2.786   2.273   2.008
 2567SOL    HW2 7727   2.746   2.116   2.028
 2568SOL     OW 7728   3.581   2.447   3.693
 2568SOL    HW1 7729   3.555   2.536   3.657
 2568SOL    HW2 7730   3.579   2.379   3.620
 2569SOL     OW 7731   3.224   3.006   2.407
 2569SOL    HW1 7732   3.307   2.977   2.359
 2569SOL    HW2 7733   3.175   3.073   2.351
 2570SOL     OW 7734   2.412   2.058   2.747
 2570SOL    HW1 7735   2.407   2.053   2.847
 2570SOL    HW2 7736   2.414   2.154   2.718
 2571SOL     OW 7737   2.870   3.318   2.339
 2571SOL    HW1 7738   2.824   3.390   2.287
 2571SOL    HW2 7739   2.866   3.338   2.437
 2572SOL     OW 7740   2.213   3.663   2.715
 2572SOL    HW1 7741   2.263   3.577   2.721
 2572SOL    HW2 7742   2.278   3.740   2.712
 2573SOL     OW 7743   3.657   2.928   2.735
 2573SOL    HW1 7744   3.595   2.913   2.659
 2573SOL    HW2 7745   3.605   2.939   2.820
 2574SOL     OW 7746   3.089   3.412   3.368
 2574SOL    HW1 7747   3.095   3.335   3.432
 2574SOL    HW2 7748   3.037   3.386   3.288
 2575SOL     OW 7749   2.183   2.805   2.104
 2575SOL    HW1 7750   2.265   2.844   2.062
 2575SOL    HW2 7751   2.156   2.723   2.055
 2576SOL     OW 7752   3.320   2.597   2.590
 2576SOL    HW1 7753   3.315   2.532   2.665
 2576SOL    HW2 7754   3.400   2.656   2.603
 2577SOL     OW 7755   2.323   3.128   3.589
 2577SOL    HW1 7756   2.273   3.129   3.503
 2577SOL    HW2 7757   2.260   3.110   3.665
 2578SOL     OW 7758   2.973   3.638   2.099
 2578SOL    HW1 7759   2.913   3.576   2.149
 2578SOL    HW2 7760   3.004   3.594   2.014
 2579SOL     OW 7761   2.064   2.147   3.360
 2579SOL    HW1 7762   1.984   2.207   3.347
 2579SOL    HW2 7763   2.054   2.098   3.446
 2580SOL     OW 7764   3.494   3.239   1.943
 2580SOL    HW1 7765   3.462   3.333   1.933
 2580SOL    HW2 7766   3.418   3.176   1.931
 2581SOL     OW 7767   2.326   3.605   2.185
 2581SOL    HW1 7768   2.359   3.644   2.271
 2581SOL    HW2 7769   2.402   3.598   2.120
 2582SOL     OW 7770   3.262   1.969   2.288
 2582SOL    HW1 7771   3.238   1.932   2.198
 2582SOL    HW2 7772   3.361   1.985   2.292
 2583SOL     OW 7773   2.111   3.647   3.103
 2583SOL    HW1 7774   2.168   3.582   3.153
 2583SOL    HW2 7775   2.095   3.614   3.010
 2584SOL     OW 7776   2.802   3.560   2.766
 2584SOL    HW1 7777   2.882   3.503   2.787
 2584SOL    HW2 7778   2.753   3.520   2.689
 2585SOL     OW 7779   2.244   2.562   2.342
 2585SOL    HW1 7780   2.289   2.472   2.339
 2585SOL    HW2 7781   2.150   2.551   2.375
 2586SOL     OW 7782   3.409   2.084   3.591
 2586SOL    HW1 7783   3.404   2.121   3.683
 2586SOL    HW2 7784   3.337   2.015   3.579
 2587SOL     OW 7785   2.476   1.984   1.979
 2587SOL    HW1 7786   2.574   1.962   1.986
 2587SOL    HW2 7787   2.445   1.967   1.886
 2588SOL     OW 7788   2.643   2.126   3.611
 2588SOL    HW1 7789   2.710   2.065   3.654
 2588SOL    HW2 7790   2.570   2.145   3.676
 2589SOL     OW 7791   2.750   3.376   3.057
 2589SOL    HW1 7792   2.727   3.351   2.963
 2589SOL    HW2 7793   2.811   3.307   3.096
 2590SOL     OW 7794   3.213   2.452   3.295
 2590SOL    HW1 7795   3.241   2.409   3.380
 2590SOL    HW2 7796   3.238   2.548   3.296
 2591SOL     OW 7797   2.401   1.926   2.374
 2591SOL    HW1 7798   2.320   1.927   2.432
 2591SOL    HW2 7799   2.404   2.009   2.319
 2592SOL     OW 7800   3.296   3.050   1.903
 2592SOL    HW1 7801   3.328   2.974   1.960
 2592SOL    HW2 7802   3.204   3.077   1.933
 2593SOL     OW 7803   2.159   1.897   2.033
 2593SOL    HW1 7804   2.208   1.981   2.012
 2593SOL    HW2 7805   2.221   1.832   2.078
 2594SOL     OW 7806   2.797   2.098   2.342
 2594SOL    HW1 7807   2.749   2.139   2.264
 2594SOL    HW2 7808   2.896   2.096   2.323
 2595SOL     OW 7809   2.938   2.545   3.326
 2595SOL    HW1 7810   2.858   2.484   3.329
 2595SOL    HW2 7811   3.019   2.492   3.302
 2596SOL     OW 7812   3.089   3.432   2.655
 2596SOL    HW1 7813   3.110   3.506   2.590
 2596SOL    HW2 7814   3.157   3.432   2.728
 2597SOL     OW 7815   3.133   3.659   2.453
 2597SOL    HW1 7816   3.177   3.723   2.389
 2597SOL    HW2 7817   3.083   3.711   2.523
 2598SOL     OW 7818   2.894   2.411   1.878
 2598SOL    HW1 7819   2.853   2.493   1.839
 2598SOL    HW2 7820   2.958   2.437   1.951
 2599SOL     OW 7821   1.940   2.418   3.248
 2599SOL    HW1 7822   2.032   2.417   3.207
 2599SOL    HW2 7823   1.934   2.492   3.315
 2600SOL     OW 7824   2.423   2.084   3.009
 2600SOL    HW1 7825   2.461   2.000   3.046
 2600SOL    HW2 7826   2.335   2.103   3.053
 2601SOL     OW 7827   2.879   1.901   2.615
 2601SOL    HW1 7828   2.807   1.906   2.546
 2601SOL    HW2 7829   2.855   1.832   2.684
 2602SOL     OW 7830   3.291   3.035   2.729
 2602SOL    HW1 7831   3.236   2.951   2.722
 2602SOL    HW2 7832   3.317   3.064   2.637
 2603SOL     OW 7833   3.328   2.452   2.854
 2603SOL    HW1 7834   3.298   2.357   2.861
 2603SOL    HW2 7835   3.401   2.468   2.920
 2604SOL     OW 7836   3.719   2.695   2.239
 2604SOL    HW1 7837   3.761   2.631   2.303
 2604SOL    HW2 7838   3.681   2.644   2.161
 2605SOL     OW 7839   2.350   3.247   2.036
 2605SOL    HW1 7840   2.263   3.232   2.083
 2605SOL    HW2 7841   2.333   3.273   1.941
 2606SOL     OW 7842   3.526   3.142   2.519
 2606SOL    HW1 7843   3.625   3.150   2.533
 2606SOL    HW2 7844   3.481   3.226   2.550
 2607SOL     OW 7845   3.252   2.437   1.940
 2607SOL    HW1 7846   3.198   2.416   2.021
 2607SOL    HW2 7847   3.343   2.396   1.949
 2608SOL     OW 7848   2.389   2.118   2.190
 2608SOL    HW1 7849   2.416   2.059   2.115
 2608SOL    HW2 7850   2.389   2.213   2.159
 2609SOL     OW 7851   3.616   3.085   3.450
 2609SOL    HW1 7852   3.707   3.046   3.437
 2609SOL    HW2 7853   3.624   3.181   3.474
 2610SOL     OW 7854   2.926   3.209   3.202
 2610SOL    HW1 7855   2.846   3.186   3.257
 2610SOL    HW2 7856   3.009   3.183   3.251
 2611SOL     OW 7857   3.454   3.491   3.487
 2611SOL    HW1 7858   3.481   3.525   3.397
 2611SOL    HW2 7859   3.533   3.453   3.533
 2612SOL     OW 7860   2.973   3.057   2.962
 2612SOL    HW1 7861   2.933   3.101   3.043
 2612SOL    HW2 7862   2.932   3.094   2.879
 2613SOL     OW 7863   3.500   2.961   2.941
 2613SOL    HW1 7864   3.505   3.042   3.000
 2613SOL    HW2 7865   3.414   2.963   2.890
 2614SOL     OW 7866   2.777   1.951   3.264
 2614SOL    HW1 7867   2.802   1.931   3.169
 2614SOL    HW2 7868   2.849   2.007   3.306
 2615SOL     OW 7869   2.842   2.978   3.581
 2615SOL    HW1 7870   2.743   2.984   3.591
 2615SOL    HW2 7871   2.865   2.898   3.525
 2616SOL     OW 7872   2.567   2.912   2.230
 2616SOL    HW1 7873   2.553   2.919   2.329
 2616SOL    HW2 7874   2.651   2.861   2.212
 2617SOL     OW 7875   2.272   2.675   3.113
 2617SOL    HW1 7876   2.358   2.687   3.163
 2617SOL    HW2 7877   2.230   2.588   3.140
 2618SOL     OW 7878   3.136   2.248   3.124
 2618SOL    HW1 7879   3.157   2.322   3.188
 2618SOL    HW2 7880   3.047   2.265   3.081
 2619SOL     OW 7881   1.926   3.426   3.193
 2619SOL    HW1 7882   1.880   3.508   3.159
 2619SOL    HW2 7883   2.024   3.445   3.202
 2620SOL     OW 7884   2.229   2.962   2.363
 2620SOL    HW1 7885   2.222   3.045   2.307
 2620SOL    HW2 7886   2.233   2.882   2.303
 2621SOL     OW 7887   2.428   2.399   2.727
 2621SOL    HW1 7888   2.440   2.465   2.653
 2621SOL    HW2 7889   2.474   2.433   2.810
 2622SOL     OW 7890   3.114   3.210   2.250
 2622SOL    HW1 7891   3.164   3.287   2.290
 2622SOL    HW2 7892   3.019   3.212   2.282
 2623SOL     OW 7893   3.134   3.307   3.004
 2623SOL    HW1 7894   3.181   3.320   3.091
 2623SOL    HW2 7895   3.068   3.233   3.013
 2624SOL     OW 7896   3.444   2.501   2.334
 2624SOL    HW1 7897   3.413   2.562   2.407
 2624SOL    HW2 7898   3.494   2.553   2.265
 2625SOL     OW 7899   2.216   3.372   3.191
 2625SOL    HW1 7900   2.195   3.328   3.104
 2625SOL    HW2 7901   2.313   3.398   3.194
 2626SOL     OW 7902   2.264   2.613   3.460
 2626SOL    HW1 7903   2.332   2.668   3.413
 2626SOL    HW2 7904   2.304   2.525   3.487
 2627SOL     OW 7905   3.449   2.641   3.532
 2627SOL    HW1 7906   3.357   2.679   3.527
 2627SOL    HW2 7907   3.509   2.688   3.467
 2628SOL     OW 7908   2.875   1.967   3.632
 2628SOL    HW1 7909   2.881   2.052   3.580
 2628SOL    HW2 7910   2.907   1.891   3.575
 2629SOL     OW 7911   2.366   1.912   3.602
 2629SOL    HW1 7912   2.324   1.855   3.532
 2629SOL    HW2 7913   2.300   1.981   3.634
 2630SOL     OW 7914   2.435   2.732   2.891
 2630SOL    HW1 7915   2.479   2.821   2.882
 2630SOL    HW2 7916   2.372   2.732   2.968
 2631SOL     OW 7917   3.222   2.724   2.907
 2631SOL    HW1 7918   3.147   2.724   2.841
 2631SOL    HW2 7919   3.259   2.632   2.916
 2632SOL     OW 7920   3.071   2.387   2.137
 2632SOL    HW1 7921   3.084   2.303   2.191
 2632SOL    HW2 7922   3.042   2.461   2.197
 2633SOL     OW 7923   2.169   2.075   3.093
 2633SOL    HW1 7924   2.146   2.112   3.183
 2633SOL    HW2 7925   2.139   1.980   3.087
 2634SOL     OW 7926   1.899   3.172   3.144
 2634SOL    HW1 7927   1.952   3.123   3.212
 2634SOL    HW2 7928   1.921   3.270   3.149
 2635SOL     OW 7929   3.590   2.797   3.716
 2635SOL    HW1 7930   3.544   2.790   3.627
 2635SOL    HW2 7931   3.528   2.841   3.782
 2636SOL     OW 7932   2.169   1.925   2.480
 2636SOL    HW1 7933   2.158   2.019   2.513
 2636SOL    HW2 7934   2.164   1.862   2.557
 2637SOL     OW 7935   3.484   2.229   2.236
 2637SOL    HW1 7936   3.486   2.153   2.300
 2637SOL    HW2 7937   3.436   2.306   2.276
 2638SOL     OW 7938   2.842   3.435   3.562
 2638SOL    HW1 7939   2.822   3.479   3.474
 2638SOL    HW2 7940   2.881   3.344   3.546
 2639SOL     OW 7941   3.721   3.380   3.467
 2639SOL    HW1 7942   3.735   3.407   3.372
 2639SOL    HW2 7943   3.804   3.402   3.520
 2640SOL     OW 7944   2.212   2.760   3.666
 2640SOL    HW1 7945   2.288   2.804   3.714
 2640SOL    HW2 7946   2.247   2.713   3.584
 2641SOL     OW 7947   3.402   2.136   1.987
 2641SOL    HW1 7948   3.341   2.061   2.010
 2641SOL    HW2 7949   3.424   2.188   2.070
 2642SOL     OW 7950   3.165   2.700   1.904
 2642SOL    HW1 7951   3.199   2.607   1.919
 2642SOL    HW2 7952   3.183   2.727   1.809
 2643SOL     OW 7953   2.930   3.195   2.711
 2643SOL    HW1 7954   2.937   3.111   2.656
 2643SOL    HW2 7955   2.992   3.264   2.675
 2644SOL     OW 7956   2.181   2.672   2.811
 2644SOL    HW1 7957   2.274   2.708   2.816
 2644SOL    HW2 7958   2.175   2.587   2.863
 2645SOL     OW 7959   2.201   2.371   2.868
 2645SOL    HW1 7960   2.149   2.288   2.851
 2645SOL    HW2 7961   2.278   2.376   2.804
 2646SOL     OW 7962   3.000   2.242   3.540
 2646SOL    HW1 7963   2.955   2.305   3.604
 2646SOL    HW2 7964   3.093   2.273   3.523
 2647SOL     OW 7965   3.022   2.069   3.339
 2647SOL    HW1 7966   3.022   2.133   3.416
 2647SOL    HW2 7967   3.050   2.117   3.256
 2648SOL     OW 7968   1.870   3.188   2.062
 2648SOL    HW1 7969   1.777   3.209   2.031
 2648SOL    HW2 7970   1.880   3.089   2.075
 2649SOL     OW 7971   1.950   3.663   2.789
 2649SOL    HW1 7972   1.908   3.577   2.762
 2649SOL    HW2 7973   2.044   3.666   2.755
 2650SOL     OW 7974   2.366   3.430   2.772
 2650SOL    HW1 7975   2.432   3.504   2.781
 2650SOL    HW2 7976   2.410   3.351   2.730
 2651SOL     OW 7977   2.864   2.658   3.100
 2651SOL    HW1 7978   2.905   2.626   3.186
 2651SOL    HW2 7979   2.768   2.631   3.097
 2652SOL     OW 7980   1.902   2.406   2.976
 2652SOL    HW1 7981   1.987   2.373   2.935
 2652SOL    HW2 7982   1.915   2.421   3.074
 2653SOL     OW 7983   2.051   2.382   3.584
 2653SOL    HW1 7984   2.110   2.342   3.514
 2653SOL    HW2 7985   1.993   2.453   3.543
 2654SOL     OW 7986   3.231   2.812   3.522
 2654SOL    HW1 7987   3.270   2.901   3.542
 2654SOL    HW2 7988   3.241   2.792   3.425
 2655SOL     OW 7989   2.677   2.434   2.187
 2655SOL    HW1 7990   2.684   2.345   2.141
 2655SOL    HW2 7991   2.583   2.468   2.179
 2656SOL     OW 7992   3.519   2.466   3.068
 2656SOL    HW1 7993   3.481   2.397   3.130
 2656SOL    HW2 7994   3.601   2.430   3.024
 2657SOL     OW 7995   2.114   3.426   3.606
 2657SOL    HW1 7996   2.084   3.483   3.682
 2657SOL    HW2 7997   2.107   3.329   3.632
 2658SOL     OW 7998   2.533   2.326   3.131
 2658SOL    HW1 7999   2.499   2.237   3.101
 2658SOL    HW2 8000   2.559   2.380   3.051
 2659SOL     OW 8001   2.792   3.540   3.327
 2659SOL    HW1 8002   2.768   3.522   3.232
 2659SOL    HW2 8003   2.822   3.634   3.337
 2660SOL     OW 8004   2.335   2.362   2.053
 2660SOL    HW1 8005   2.396   2.442   2.057
 2660SOL    HW2 8006   2.240   2.393   2.060
 2661SOL     OW 8007   2.021   2.999   3.328
 2661SOL    HW1 8008   2.043   2.938   3.404
 2661SOL    HW2 8009   2.031   2.950   3.242
 2662SOL     OW 8010   3.209   2.921   3.096
 2662SOL    HW1 8011   3.233   2.858   3.022
 2662SOL    HW2 8012   3.119   2.961   3.078
 2663SOL     OW 8013   3.164   2.717   2.171
 2663SOL    HW1 8014   3.078   2.686   2.213
 2663SOL    HW2 8015   3.160   2.703   2.072
 2664SOL     OW 8016   3.621   3.609   3.016
 2664SOL    HW1 8017   3.682   3.639   2.943
 2664SOL    HW2 8018   3.583   3.520   2.994
 2665SOL     OW 8019   3.114   3.593   2.990
 2665SOL    HW1 8020   3.198   3.598   2.936
 2665SOL    HW2 8021   3.091   3.497   3.008
 2666SOL     OW 8022   1.945   3.120   2.884
 2666SOL    HW1 8023   1.940   3.119   2.984
 2666SOL    HW2 8024   1.862   3.079   2.846
 2667SOL     OW 8025   2.550   3.524   3.578
 2667SOL    HW1 8026   2.494   3.605   3.587
 2667SOL    HW2 8027   2.602   3.528   3.492
 2668SOL     OW 8028   3.588   1.997   2.385
 2668SOL    HW1 8029   3.661   1.980   2.318
 2668SOL    HW2 8030   3.557   1.910   2.423
 2669SOL     OW 8031   3.250   3.435   2.339
 2669SOL    HW1 8032   3.317   3.447   2.265
 2669SOL    HW2 8033   3.210   3.524   2.362
 2670SOL     OW 8034   1.992   3.656   3.713
 2670SOL    HW1 8035   1.951   3.582   3.766
 2670SOL    HW2 8036   2.056   3.707   3.771
 2671SOL     OW 8037   3.142   2.789   2.534
 2671SOL    HW1 8038   3.202   2.708   2.536
 2671SOL    HW2 8039   3.182   2.858   2.474
 2672SOL     OW 8040   2.692   3.135   3.284
 2672SOL    HW1 8041   2.687   3.168   3.379
 2672SOL    HW2 8042   2.606   3.154   3.238
 2673SOL     OW 8043   2.534   3.478   2.016
 2673SOL    HW1 8044   2.543   3.488   1.917
 2673SOL    HW2 8045   2.494   3.389   2.037
 2674SOL     OW 8046   3.512   3.582   3.256
 2674SOL    HW1 8047   3.565   3.592   3.172
 2674SOL    HW2 8048   3.485   3.672   3.290
 2675SOL     OW 8049   3.703   2.037   2.825
 2675SOL    HW1 8050   3.742   1.952   2.789
 2675SOL    HW2 8051   3.605   2.039   2.806
 2676SOL     OW 8052   2.125   2.188   2.582
 2676SOL    HW1 8053   2.046   2.239   2.548
 2676SOL    HW2 8054   2.116   2.173   2.680
 2677SOL     OW 8055   3.056   3.474   1.893
 2677SOL    HW1 8056   3.062   3.381   1.930
 2677SOL    HW2 8057   2.997   3.474   1.813
 2678SOL     OW 8058   2.684   2.864   3.234
 2678SOL    HW1 8059   2.724   2.863   3.142
 2678SOL    HW2 8060   2.694   2.956   3.274
 2679SOL     OW 8061   2.778   2.772   2.153
 2679SOL    HW1 8062   2.841   2.810   2.085
 2679SOL    HW2 8063   2.818   2.689   2.192
 2680SOL     OW 8064   3.366   3.469   1.906
 2680SOL    HW1 8065   3.274   3.506   1.913
 2680SOL    HW2 8066   3.404   3.489   1.816
 2681SOL     OW 8067   2.234   3.150   3.352
 2681SOL    HW1 8068   2.221   3.243   3.318
 2681SOL    HW2 8069   2.150   3.098   3.339
 2682SOL     OW 8070   3.476   3.154   3.151
 2682SOL    HW1 8071   3.536   3.157   3.231
 2682SOL    HW2 8072   3.401   3.218   3.164
 2683SOL     OW 8073   2.901   2.960   2.558
 2683SOL    HW1 8074   2.831   2.913   2.612
 2683SOL    HW2 8075   2.960   2.892   2.515
 2684SOL     OW 8076   2.452   3.349   2.353
 2684SOL    HW1 8077   2.494   3.291   2.283
 2684SOL    HW2 8078   2.408   3.428   2.309
 2685SOL     OW 8079   3.571   2.247   3.243
 2685SOL    HW1 8080   3.644   2.316   3.247
 2685SOL    HW2 8081   3.599   2.172   3.184
 2686SOL     OW 8082   2.117   3.210   2.152
 2686SOL    HW1 8083   2.021   3.211   2.125
 2686SOL    HW2 8084   2.129   3.263   2.236
 2687SOL     OW 8085   1.967   2.875   3.588
 2687SOL    HW1 8086   1.890   2.842   3.642
 2687SOL    HW2 8087   2.052   2.845   3.630
 2688SOL     OW 8088   2.534   2.065   3.351
 2688SOL    HW1 8089   2.624   2.049   3.311
 2688SOL    HW2 8090   2.542   2.070   3.450
 2689SOL     OW 8091   1.937   2.207   1.895
 2689SOL    HW1 8092   1.845   2.179   1.866
 2689SOL    HW2 8093   1.968   2.284   1.839
 2690SOL     OW 8094   3.302   2.718   3.260
 2690SOL    HW1 8095   3.245   2.770   3.197
 2690SOL    HW2 8096   3.398   2.730   3.236
 2691SOL     OW 8097   1.934   2.028   2.180
 2691SOL    HW1 8098   1.917   2.111   2.126
 2691SOL    HW2 8099   2.024   1.991   2.158
 2692SOL     OW 8100   3.045   3.197   1.981
 2692SOL    HW1 8101   2.946   3.186   1.983
 2692SOL    HW2 8102   3.079   3.212   2.074
 2693SOL     OW 8103   2.475   2.704   3.293
 2693SOL    HW1 8104   2.531   2.785   3.276
 2693SOL    HW2 8105   2.534   2.624   3.296
 2694SOL     OW 8106   3.355   3.629   2.821
 2694SOL    HW1 8107   3.388   3.693   2.752
 2694SOL    HW2 8108   3.421   3.623   2.896
 2695SOL     OW 8109   2.578   2.427   3.570
 2695SOL    HW1 8110   2.597   2.492   3.644
 2695SOL    HW2 8111   2.638   2.347   3.579
 2696SOL     OW 8112   3.312   3.082   3.495
 2696SOL    HW1 8113   3.303   3.072   3.594
 2696SOL    HW2 8114   3.408   3.075   3.469
 2697SOL     OW 8115   2.252   3.603   3.422
 2697SOL    HW1 8116   2.161   3.644   3.420
 2697SOL    HW2 8117   2.245   3.509   3.454
 2698SOL     OW 8118   3.536   2.745   3.116
 2698SOL    HW1 8119   3.509   2.656   3.079
 2698SOL    HW2 8120   3.537   2.813   3.043
 2699SOL     OW 8121   3.087   2.187   2.311
 2699SOL    HW1 8122   3.152   2.113   2.300
 2699SOL    HW2 8123   3.107   2.237   2.395
 2700SOL     OW 8124   3.639   2.204   3.504
 2700SOL    HW1 8125   3.622   2.235   3.410
 2700SOL    HW2 8126   3.555   2.167   3.542
 2701SOL     OW 8127   3.592   2.796   3.379
 2701SOL    HW1 8128   3.630   2.887   3.394
 2701SOL    HW2 8129   3.584   2.779   3.280
 2702SOL     OW 8130   2.721   3.236   1.878
 2702SOL    HW1 8131   2.675   3.251   1.966
 2702SOL    HW2 8132   2.765   3.321   1.848
 2703SOL     OW 8133   2.523   3.652   2.815
 2703SOL    HW1 8134   2.477   3.740   2.802
 2703SOL    HW2 8135   2.622   3.664   2.808
 2704SOL     OW 8136   2.945   2.846   1.949
 2704SOL    HW1 8137   2.922   2.899   1.867
 2704SOL    HW2 8138   3.026   2.790   1.930
 2705SOL     OW 8139   3.723   3.431   2.713
 2705SOL    HW1 8140   3.652   3.419   2.643
 2705SOL    HW2 8141   3.724   3.352   2.773
 2706SOL     OW 8142   2.083   3.176   3.706
 2706SOL    HW1 8143   2.018   3.103   3.685
 2706SOL    HW2 8144   2.087   3.190   3.804
 2707SOL     OW 8145   1.941   3.102   2.515
 2707SOL    HW1 8146   1.940   3.055   2.603
 2707SOL    HW2 8147   2.023   3.074   2.464
 2708SOL     OW 8148   2.534   3.253   3.486
 2708SOL    HW1 8149   2.456   3.203   3.524
 2708SOL    HW2 8150   2.531   3.348   3.517
 2709SOL     OW 8151   3.686   2.054   3.089
 2709SOL    HW1 8152   3.682   1.964   3.133
 2709SOL    HW2 8153   3.689   2.043   2.990
 2710SOL     OW 8154   2.290   2.286   2.382
 2710SOL    HW1 8155   2.320   2.214   2.320
 2710SOL    HW2 8156   2.251   2.246   2.465
 2711SOL     OW 8157   3.567   3.349   2.966
 2711SOL    HW1 8158   3.474   3.324   2.939
 2711SOL    HW2 8159   3.593   3.299   3.048
 2712SOL     OW 8160   2.179   2.409   3.142
 2712SOL    HW1 8161   2.217   2.350   3.214
 2712SOL    HW2 8162   2.219   2.383   3.054
 2713SOL     OW 8163   2.674   3.448   2.549
 2713SOL    HW1 8164   2.706   3.458   2.455
 2713SOL    HW2 8165   2.595   3.386   2.551
 2714SOL     OW 8166   3.286   2.076   2.974
 2714SOL    HW1 8167   3.338   2.011   3.029
 2714SOL    HW2 8168   3.237   2.139   3.035
 2715SOL     OW 8169   2.863   1.896   3.016
 2715SOL    HW1 8170   2.800   1.824   2.985
 2715SOL    HW2 8171   2.956   1.860   3.016
 2716SOL     OW 8172   2.632   3.192   2.163
 2716SOL    HW1 8173   2.586   3.105   2.180
 2716SOL    HW2 8174   2.723   3.189   2.204
 2717SOL     OW 8175   2.480   3.429   3.146
 2717SOL    HW1 8176   2.475   3.511   3.203
 2717SOL    HW2 8177   2.569   3.426   3.101
 2718SOL     OW 8178   3.214   1.914   2.030
 2718SOL    HW1 8179   3.249   1.873   1.946
 2718SOL    HW2 8180   3.124   1.876   2.050
 2719SOL     OW 8181   3.162   2.315   2.553
 2719SOL    HW1 8182   3.103   2.395   2.557
 2719SOL    HW2 8183   3.177   2.280   2.646
 2720SOL     OW 8184   3.455   2.083   2.744
 2720SOL    HW1 8185   3.371   2.082   2.798
 2720SOL    HW2 8186   3.457   2.166   2.688
 2721SOL     OW 8187   1.901   2.939   2.162
 2721SOL    HW1 8188   2.000   2.928   2.153
 2721SOL    HW2 8189   1.861   2.853   2.194
 2722SOL     OW 8190   2.737   3.508   2.199
 2722SOL    HW1 8191   2.660   3.473   2.145
 2722SOL    HW2 8192   2.705   3.579   2.261
 2723SOL     OW 8193   2.092   2.490   3.837
 2723SOL    HW1 8194   1.999   2.488   3.874
 2723SOL    HW2 8195   2.093   2.451   3.745
 2724SOL     OW 8196   2.087   2.137   4.720
 2724SOL    HW1 8197   2.122   2.120   4.812
 2724SOL    HW2 8198   1.999   2.092   4.708
 2725SOL     OW 8199   1.881   2.230   4.371
 2725SOL    HW1 8200   1.799   2.273   4.410
 2725SOL    HW2 8201   1.853   2.157   4.308
 2726SOL     OW 8202   2.431   3.137   4.889
 2726SOL    HW1 8203   2.338   3.130   4.852
 2726SOL    HW2 8204   2.442   3.226   4.933
 2727SOL     OW 8205   3.417   3.373   4.427
 2727SOL    HW1 8206   3.360   3.357   4.508
 2727SOL    HW2 8207   3.358   3.383   4.347
 2728SOL     OW 8208   2.997   2.565   4.441
 2728SOL    HW1 8209   3.054   2.643   4.416
 2728SOL    HW2 8210   2.937   2.591   4.517
 2729SOL     OW 8211   3.617   2.469   3.955
 2729SOL    HW1 8212   3.605   2.456   3.856
 2729SOL    HW2 8213   3.587   2.388   4.004
 2730SOL     OW 8214   2.630   3.006   4.747
 2730SOL    HW1 8215   2.552   3.023   4.807
 2730SOL    HW2 8216   2.664   3.093   4.711
 2731SOL     OW 8217   2.547   2.874   4.389
 2731SOL    HW1 8218   2.616   2.858   4.459
 2731SOL    HW2 8219   2.474   2.931   4.427
 2732SOL     OW 8220   2.197   3.297   4.785
 2732SOL    HW1 8221   2.119   3.266   4.732
 2732SOL    HW2 8222   2.255   3.355   4.728
 2733SOL     OW 8223   3.322   3.367   5.063
 2733SOL    HW1 8224   3.346   3.461   5.089
 2733SOL    HW2 8225   3.306   3.313   5.145
 2734SOL     OW 8226   2.300   2.254   5.223
 2734SOL    HW1 8227   2.382   2.198   5.232
 2734SOL    HW2 8228   2.219   2.196   5.227
 2735SOL     OW 8229   3.465   2.309   4.461
 2735SOL    HW1 8230   3.391   2.355   4.411
 2735SOL    HW2 8231   3.516   2.377   4.514
 2736SOL     OW 8232   2.093   3.575   4.207
 2736SOL    HW1 8233   2.127   3.652   4.261
 2736SOL    HW2 8234   2.137   3.575   4.117
 2737SOL     OW 8235   2.092   3.296   4.262
 2737SOL    HW1 8236   2.066   3.392   4.262
 2737SOL    HW2 8237   2.021   3.242   4.307
 2738SOL     OW 8238   2.102   2.953   4.610
 2738SOL    HW1 8239   2.116   2.869   4.662
 2738SOL    HW2 8240   2.047   3.017   4.665
 2739SOL     OW 8241   2.482   3.648   5.163
 2739SOL    HW1 8242   2.390   3.631   5.198
 2739SOL    HW2 8243   2.510   3.740   5.189
 2740SOL     OW 8244   2.468   2.826   3.847
 2740SOL    HW1 8245   2.475   2.910   3.793
 2740SOL    HW2 8246   2.514   2.839   3.935
 2741SOL     OW 8247   3.456   1.976   5.204
 2741SOL    HW1 8248   3.438   2.043   5.132
 2741SOL    HW2 8249   3.453   2.022   5.293
 2742SOL     OW 8250   1.984   2.505   4.287
 2742SOL    HW1 8251   1.939   2.417   4.304
 2742SOL    HW2 8252   1.983   2.559   4.371
 2743SOL     OW 8253   3.704   3.629   4.083
 2743SOL    HW1 8254   3.758   3.600   4.163
 2743SOL    HW2 8255   3.734   3.719   4.054
 2744SOL     OW 8256   1.889   3.458   3.841
 2744SOL    HW1 8257   1.870   3.362   3.862
 2744SOL    HW2 8258   1.856   3.516   3.916
 2745SOL     OW 8259   3.551   2.784   4.336
 2745SOL    HW1 8260   3.646   2.755   4.344
 2745SOL    HW2 8261   3.543   2.849   4.261
 2746SOL     OW 8262   3.503   2.970   4.156
 2746SOL    HW1 8263   3.589   2.972   4.104
 2746SOL    HW2 8264   3.517   3.017   4.244
 2747SOL     OW 8265   2.475   3.227   4.450
 2747SOL    HW1 8266   2.426   3.140   4.459
 2747SOL    HW2 8267   2.452   3.270   4.363
 2748SOL     OW 8268   2.671   1.866   4.226
 2748SOL    HW1 8269   2.711   1.957   4.217
 2748SOL    HW2 8270   2.571   1.874   4.232
 2749SOL     OW 8271   2.059   2.838   4.988
 2749SOL    HW1 8272   2.148   2.793   4.974
 2749SOL    HW2 8273   1.986   2.773   4.969
 2750SOL     OW 8274   3.387   2.861   3.914
 2750SOL    HW1 8275   3.324   2.785   3.927
 2750SOL    HW2 8276   3.435   2.879   4.000
 2751SOL     OW 8277   2.179   2.113   5.525
 2751SOL    HW1 8278   2.250   2.184   5.531
 2751SOL    HW2 8279   2.091   2.152   5.553
 2752SOL     OW 8280   3.328   3.279   4.677
 2752SOL    HW1 8281   3.269   3.285   4.757
 2752SOL    HW2 8282   3.313   3.191   4.631
 2753SOL     OW 8283   3.529   3.576   4.296
 2753SOL    HW1 8284   3.488   3.553   4.208
 2753SOL    HW2 8285   3.511   3.502   4.361
 2754SOL     OW 8286   2.460   2.591   3.994
 2754SOL    HW1 8287   2.484   2.660   3.926
 2754SOL    HW2 8288   2.382   2.624   4.048
 2755SOL     OW 8289   3.143   2.207   4.668
 2755SOL    HW1 8290   3.057   2.157   4.655
 2755SOL    HW2 8291   3.205   2.153   4.724
 2756SOL     OW 8292   3.438   3.524   4.031
 2756SOL    HW1 8293   3.527   3.570   4.034
 2756SOL    HW2 8294   3.417   3.500   3.936
 2757SOL     OW 8295   2.669   2.467   5.189
 2757SOL    HW1 8296   2.622   2.464   5.278
 2757SOL    HW2 8297   2.618   2.412   5.123
 2758SOL     OW 8298   2.853   2.272   4.966
 2758SOL    HW1 8299   2.776   2.306   5.020
 2758SOL    HW2 8300   2.819   2.221   4.887
 2759SOL     OW 8301   2.903   2.563   4.153
 2759SOL    HW1 8302   2.929   2.559   4.249
 2759SOL    HW2 8303   2.818   2.512   4.139
 2760SOL     OW 8304   1.938   2.673   4.513
 2760SOL    HW1 8305   2.037   2.661   4.522
 2760SOL    HW2 8306   1.914   2.768   4.534
 2761SOL     OW 8307   1.992   3.683   5.295
 2761SOL    HW1 8308   1.982   3.668   5.394
 2761SOL    HW2 8309   1.906   3.719   5.259
 2762SOL     OW 8310   2.727   2.210   3.919
 2762SOL    HW1 8311   2.786   2.273   3.870
 2762SOL    HW2 8312   2.746   2.116   3.890
 2763SOL     OW 8313   3.224   3.006   4.269
 2763SOL    HW1 8314   3.307   2.977   4.221
 2763SOL    HW2 8315   3.175   3.073   4.213
 2764SOL     OW 8316   2.412   2.058   4.609
 2764SOL    HW1 8317   2.407   2.053   4.709
 2764SOL    HW2 8318   2.414   2.154   4.580
 2765SOL     OW 8319   2.870   3.318   4.201
 2765SOL    HW1 8320   2.824   3.390   4.149
 2765SOL    HW2 8321   2.866   3.338   4.299
 2766SOL     OW 8322   2.213   3.663   4.577
 2766SOL    HW1 8323   2.263   3.577   4.583
 2766SOL    HW2 8324   2.278   3.740   4.574
 2767SOL     OW 8325   3.657   2.928   4.597
 2767SOL    HW1 8326   3.595   2.913   4.521
 2767SOL    HW2 8327   3.605   2.939   4.682
 2768SOL     OW 8328   2.183   2.805   3.966
 2768SOL    HW1 8329   2.265   2.844   3.924
 2768SOL    HW2 8330   2.156   2.723   3.917
 2769SOL     OW 8331   3.320   2.597   4.452
 2769SOL    HW1 8332   3.315   2.532   4.527
 2769SOL    HW2 8333   3.400   2.656   4.465
 2770SOL     OW 8334   2.973   3.638   3.961
 2770SOL    HW1 8335   2.913   3.576   4.011
 2770SOL    HW2 8336   3.004   3.594   3.876
 2771SOL     OW 8337   3.494   3.239   3.805
 2771SOL    HW1 8338   3.462   3.333   3.795
 2771SOL    HW2 8339   3.418   3.176   3.793
 2772SOL     OW 8340   2.326   3.605   4.047
 2772SOL    HW1 8341   2.359   3.644   4.133
 2772SOL    HW2 8342   2.402   3.598   3.982
 2773SOL     OW 8343   3.262   1.969   4.150
 2773SOL    HW1 8344   3.238   1.932   4.060
 2773SOL    HW2 8345   3.361   1.985   4.154
 2774SOL     OW 8346   2.111   3.647   4.965
 2774SOL    HW1 8347   2.168   3.582   5.015
 2774SOL    HW2 8348   2.095   3.614   4.872
 2775SOL     OW 8349   2.802   3.560   4.628
 2775SOL    HW1 8350   2.882   3.503   4.649
 2775SOL    HW2 8351   2.753   3.520   4.551
 2776SOL     OW 8352   2.244   2.562   4.204
 2776SOL    HW1 8353   2.289   2.472   4.201
 2776SOL    HW2 8354   2.150   2.551   4.237
 2777SOL     OW 8355   2.476   1.984   3.841
 2777SOL    HW1 8356   2.574   1.962   3.848
 2777SOL    HW2 8357   2.445   1.967   3.748
 2778SOL     OW 8358   2.750   3.376   4.919
 2778SOL    HW1 8359   2.727   3.351   4.825
 2778SOL    HW2 8360   2.811   3.307   4.958
 2779SOL     OW 8361   2.665   3.264   4.648
 2779SOL    HW1 8362   2.755   3.278   4.606
 2779SOL    HW2 8363   2.594   3.266   4.577
 2780SOL     OW 8364   2.784   2.365   4.623
 2780SOL    HW1 8365   2.759   2.356   4.527
 2780SOL    HW2 8366   2.832   2.283   4.654
 2781SOL     OW 8367   2.401   1.926   4.236
 2781SOL    HW1 8368   2.320   1.927   4.294
 2781SOL    HW2 8369   2.404   2.009   4.181
 2782SOL     OW 8370   3.296   3.050   3.765
 2782SOL    HW1 8371   3.328   2.974   3.822
 2782SOL    HW2 8372   3.204   3.077   3.795
 2783SOL     OW 8373   2.159   1.897   3.895
 2783SOL    HW1 8374   2.208   1.981   3.874
 2783SOL    HW2 8375   2.221   1.832   3.940
 2784SOL     OW 8376   2.797   2.098   4.204
 2784SOL    HW1 8377   2.749   2.139   4.126
 2784SOL    HW2 8378   2.896   2.096   4.185
 2785SOL     OW 8379   3.089   3.432   4.517
 2785SOL    HW1 8380   3.110   3.506   4.452
 2785SOL    HW2 8381   3.157   3.432   4.590
 2786SOL     OW 8382   2.321   3.014   4.465
 2786SOL    HW1 8383   2.250   2.987   4.530
 2786SOL    HW2 8384   2.295   2.986   4.372
 2787SOL     OW 8385   3.133   3.659   4.315
 2787SOL    HW1 8386   3.177   3.723   4.251
 2787SOL    HW2 8387   3.083   3.711   4.385
 2788SOL     OW 8388   2.894   2.411   3.740
 2788SOL    HW1 8389   2.853   2.493   3.701
 2788SOL    HW2 8390   2.958   2.437   3.813
 2789SOL     OW 8391   1.940   2.418   5.110
 2789SOL    HW1 8392   2.032   2.417   5.069
 2789SOL    HW2 8393   1.934   2.492   5.177
 2790SOL     OW 8394   2.423   2.084   4.871
 2790SOL    HW1 8395   2.461   2.000   4.908
 2790SOL    HW2 8396   2.335   2.103   4.915
 2791SOL     OW 8397   2.728   2.316   4.366
 2791SOL    HW1 8398   2.696   2.388   4.304
 2791SOL    HW2 8399   2.752   2.235   4.313
 2792SOL     OW 8400   2.879   1.901   4.477
 2792SOL    HW1 8401   2.807   1.906   4.408
 2792SOL    HW2 8402   2.855   1.832   4.546
 2793SOL     OW 8403   3.291   3.035   4.591
 2793SOL    HW1 8404   3.236   2.951   4.584
 2793SOL    HW2 8405   3.317   3.064   4.499
 2794SOL     OW 8406   3.328   2.452   4.716
 2794SOL    HW1 8407   3.298   2.357   4.723
 2794SOL    HW2 8408   3.401   2.468   4.782
 2795SOL     OW 8409   3.719   2.695   4.101
 2795SOL    HW1 8410   3.761   2.631   4.165
 2795SOL    HW2 8411   3.681   2.644   4.023
 2796SOL     OW 8412   2.350   3.247   3.898
 2796SOL    HW1 8413   2.263   3.232   3.945
 2796SOL    HW2 8414   2.333   3.273   3.803
 2797SOL     OW 8415   3.526   3.142   4.381
 2797SOL    HW1 8416   3.625   3.150   4.395
 2797SOL    HW2 8417   3.481   3.226   4.412
 2798SOL     OW 8418   3.252   2.437   3.802
 2798SOL    HW1 8419   3.198   2.416   3.883
 2798SOL    HW2 8420   3.343   2.396   3.811
 2799SOL     OW 8421   2.389   2.118   4.052
 2799SOL    HW1 8422   2.416   2.059   3.977
 2799SOL    HW2 8423   2.389   2.213   4.021
 2800SOL     OW 8424   2.926   3.209   5.064
 2800SOL    HW1 8425   2.846   3.186   5.119
 2800SOL    HW2 8426   3.009   3.183   5.113
 2801SOL     OW 8427   2.973   3.057   4.824
 2801SOL    HW1 8428   2.933   3.101   4.905
 2801SOL    HW2 8429   2.932   3.094   4.741
 2802SOL     OW 8430   3.500   2.961   4.803
 2802SOL    HW1 8431   3.505   3.042   4.862
 2802SOL    HW2 8432   3.414   2.963   4.752
 2803SOL     OW 8433   2.777   1.951   5.126
 2803SOL    HW1 8434   2.802   1.931   5.031
 2803SOL    HW2 8435   2.849   2.007   5.168
 2804SOL     OW 8436   2.567   2.912   4.092
 2804SOL    HW1 8437   2.553   2.919   4.191
 2804SOL    HW2 8438   2.651   2.861   4.074
 2805SOL     OW 8439   2.272   2.675   4.975
 2805SOL    HW1 8440   2.358   2.687   5.025
 2805SOL    HW2 8441   2.230   2.588   5.002
 2806SOL     OW 8442   3.136   2.248   4.986
 2806SOL    HW1 8443   3.157   2.322   5.050
 2806SOL    HW2 8444   3.047   2.265   4.943
 2807SOL     OW 8445   1.926   3.426   5.055
 2807SOL    HW1 8446   1.880   3.508   5.021
 2807SOL    HW2 8447   2.024   3.445   5.064
 2808SOL     OW 8448   2.229   2.962   4.225
 2808SOL    HW1 8449   2.222   3.045   4.169
 2808SOL    HW2 8450   2.233   2.882   4.165
 2809SOL     OW 8451   2.428   2.399   4.589
 2809SOL    HW1 8452   2.440   2.465   4.515
 2809SOL    HW2 8453   2.474   2.433   4.672
 2810SOL     OW 8454   3.114   3.210   4.112
 2810SOL    HW1 8455   3.164   3.287   4.152
 2810SOL    HW2 8456   3.019   3.212   4.144
 2811SOL     OW 8457   3.134   3.307   4.866
 2811SOL    HW1 8458   3.181   3.320   4.953
 2811SOL    HW2 8459   3.068   3.233   4.875
 2812SOL     OW 8460   3.444   2.501   4.196
 2812SOL    HW1 8461   3.413   2.562   4.269
 2812SOL    HW2 8462   3.494   2.553   4.127
 2813SOL     OW 8463   2.216   3.372   5.053
 2813SOL    HW1 8464   2.195   3.328   4.966
 2813SOL    HW2 8465   2.313   3.398   5.056
 2814SOL     OW 8466   2.264   2.613   5.322
 2814SOL    HW1 8467   2.332   2.668   5.275
 2814SOL    HW2 8468   2.304   2.525   5.349
 2815SOL     OW 8469   3.449   2.641   5.394
 2815SOL    HW1 8470   3.357   2.679   5.389
 2815SOL    HW2 8471   3.509   2.688   5.329
 2816SOL     OW 8472   2.435   2.732   4.753
 2816SOL    HW1 8473   2.479   2.821   4.744
 2816SOL    HW2 8474   2.372   2.732   4.830
 2817SOL     OW 8475   3.222   2.724   4.769
 2817SOL    HW1 8476   3.147   2.724   4.703
 2817SOL    HW2 8477   3.259   2.632   4.778
 2818SOL     OW 8478   3.071   2.387   3.999
 2818SOL    HW1 8479   3.084   2.303   4.053
 2818SOL    HW2 8480   3.042   2.461   4.059
 2819SOL     OW 8481   2.169   2.075   4.955
 2819SOL    HW1 8482   2.146   2.112   5.045
 2819SOL    HW2 8483   2.139   1.980   4.949
 2820SOL     OW 8484   1.899   3.172   5.006
 2820SOL    HW1 8485   1.952   3.123   5.074
 2820SOL    HW2 8486   1.921   3.270   5.011
 2821SOL     OW 8487   2.594   2.496   4.788
 2821SOL    HW1 8488   2.653   2.470   4.712
 2821SOL    HW2 8489   2.566   2.592   4.777
 2822SOL     OW 8490   2.169   1.925   4.342
 2822SOL    HW1 8491   2.158   2.019   4.375
 2822SOL    HW2 8492   2.164   1.862   4.419
 2823SOL     OW 8493   3.484   2.229   4.098
 2823SOL    HW1 8494   3.486   2.153   4.162
 2823SOL    HW2 8495   3.436   2.306   4.138
 2824SOL     OW 8496   2.885   2.628   4.690
 2824SOL    HW1 8497   2.900   2.649   4.786
 2824SOL    HW2 8498   2.855   2.533   4.681
 2825SOL     OW 8499   2.842   3.435   5.424
 2825SOL    HW1 8500   2.822   3.479   5.336
 2825SOL    HW2 8501   2.881   3.344   5.408
 2826SOL     OW 8502   3.402   2.136   3.849
 2826SOL    HW1 8503   3.341   2.061   3.872
 2826SOL    HW2 8504   3.424   2.188   3.932
 2827SOL     OW 8505   3.165   2.700   3.766
 2827SOL    HW1 8506   3.199   2.607   3.781
 2827SOL    HW2 8507   3.183   2.727   3.671
 2828SOL     OW 8508   2.930   3.195   4.573
 2828SOL    HW1 8509   2.937   3.111   4.518
 2828SOL    HW2 8510   2.992   3.264   4.537
 2829SOL     OW 8511   2.181   2.672   4.673
 2829SOL    HW1 8512   2.274   2.708   4.678
 2829SOL    HW2 8513   2.175   2.587   4.725
 2830SOL     OW 8514   2.201   2.371   4.730
 2830SOL    HW1 8515   2.149   2.288   4.713
 2830SOL    HW2 8516   2.278   2.376   4.666
 2831SOL     OW 8517   3.000   2.242   5.402
 2831SOL    HW1 8518   2.955   2.305   5.466
 2831SOL    HW2 8519   3.093   2.273   5.385
 2832SOL     OW 8520   3.022   2.069   5.201
 2832SOL    HW1 8521   3.022   2.133   5.278
 2832SOL    HW2 8522   3.050   2.117   5.118
 2833SOL     OW 8523   1.870   3.188   3.924
 2833SOL    HW1 8524   1.777   3.209   3.893
 2833SOL    HW2 8525   1.880   3.089   3.937
 2834SOL     OW 8526   1.950   3.663   4.651
 2834SOL    HW1 8527   1.908   3.577   4.624
 2834SOL    HW2 8528   2.044   3.666   4.617
 2835SOL     OW 8529   2.366   3.430   4.634
 2835SOL    HW1 8530   2.432   3.504   4.643
 2835SOL    HW2 8531   2.410   3.351   4.592
 2836SOL     OW 8532   2.864   2.658   4.962
 2836SOL    HW1 8533   2.905   2.626   5.048
 2836SOL    HW2 8534   2.768   2.631   4.959
 2837SOL     OW 8535   1.902   2.406   4.838
 2837SOL    HW1 8536   1.987   2.373   4.797
 2837SOL    HW2 8537   1.915   2.421   4.936
 2838SOL     OW 8538   2.677   2.434   4.049
 2838SOL    HW1 8539   2.684   2.345   4.003
 2838SOL    HW2 8540   2.583   2.468   4.041
 2839SOL     OW 8541   3.519   2.466   4.930
 2839SOL    HW1 8542   3.481   2.397   4.992
 2839SOL    HW2 8543   3.601   2.430   4.886
 2840SOL     OW 8544   2.533   2.326   4.993
 2840SOL    HW1 8545   2.499   2.237   4.963
 2840SOL    HW2 8546   2.559   2.380   4.913
 2841SOL     OW 8547   2.792   3.540   5.189
 2841SOL    HW1 8548   2.768   3.522   5.094
 2841SOL    HW2 8549   2.822   3.634   5.199
 2842SOL     OW 8550   2.335   2.362   3.915
 2842SOL    HW1 8551   2.396   2.442   3.919
 2842SOL    HW2 8552   2.240   2.393   3.922
 2843SOL     OW 8553   2.021   2.999   5.190
 2843SOL    HW1 8554   2.043   2.938   5.266
 2843SOL    HW2 8555   2.031   2.950   5.104
 2844SOL     OW 8556   3.209   2.921   4.958
 2844SOL    HW1 8557   3.233   2.858   4.884
 2844SOL    HW2 8558   3.119   2.961   4.940
 2845SOL     OW 8559   3.164   2.717   4.033
 2845SOL    HW1 8560   3.078   2.686   4.075
 2845SOL    HW2 8561   3.160   2.703   3.934
 2846SOL     OW 8562   3.621   3.609   4.878
 2846SOL    HW1 8563   3.682   3.639   4.805
 2846SOL    HW2 8564   3.583   3.520   4.856
 2847SOL     OW 8565   3.114   3.593   4.852
 2847SOL    HW1 8566   3.198   3.598   4.798
 2847SOL    HW2 8567   3.091   3.497   4.870
 2848SOL     OW 8568   1.945   3.120   4.746
 2848SOL    HW1 8569   1.940   3.119   4.846
 2848SOL    HW2 8570   1.862   3.079   4.708
 2849SOL     OW 8571   3.588   1.997   4.247
 2849SOL    HW1 8572   3.661   1.980   4.180
 2849SOL    HW2 8573   3.557   1.910   4.285
 2850SOL     OW 8574   3.250   3.435   4.201
 2850SOL    HW1 8575   3.317   3.447   4.127
 2850SOL    HW2 8576   3.210   3.524   4.224
 2851SOL     OW 8577   3.142   2.789   4.396
 2851SOL    HW1 8578   3.202   2.708   4.398
 2851SOL    HW2 8579   3.182   2.858   4.336
 2852SOL     OW 8580   2.534   3.478   3.878
 2852SOL    HW1 8581   2.543   3.488   3.779
 2852SOL    HW2 8582   2.494   3.389   3.899
 2853SOL     OW 8583   3.512   3.582   5.118
 2853SOL    HW1 8584   3.565   3.592   5.034
 2853SOL    HW2 8585   3.485   3.672   5.152
 2854SOL     OW 8586   3.703   2.037   4.687
 2854SOL    HW1 8587   3.742   1.952   4.651
 2854SOL    HW2 8588   3.605   2.039   4.668
 2855SOL     OW 8589   2.125   2.188   4.444
 2855SOL    HW1 8590   2.046   2.239   4.410
 2855SOL    HW2 8591   2.116   2.173   4.542
 2856SOL     OW 8592   3.056   3.474   3.755
 2856SOL    HW1 8593   3.062   3.381   3.792
 2856SOL    HW2 8594   2.997   3.474   3.675
 2857SOL     OW 8595   2.684   2.864   5.096
 2857SOL    HW1 8596   2.724   2.863   5.004
 2857SOL    HW2 8597   2.694   2.956   5.136
 2858SOL     OW 8598   2.778   2.772   4.015
 2858SOL    HW1 8599   2.841   2.810   3.947
 2858SOL    HW2 8600   2.818   2.689   4.054
 2859SOL     OW 8601   3.366   3.469   3.768
 2859SOL    HW1 8602   3.274   3.506   3.775
 2859SOL    HW2 8603   3.404   3.489   3.678
 2860SOL     OW 8604   2.234   3.150   5.214
 2860SOL    HW1 8605   2.221   3.243   5.180
 2860SOL    HW2 8606   2.150   3.098   5.201
 2861SOL     OW 8607   3.476   3.154   5.013
 2861SOL    HW1 8608   3.536   3.157   5.093
 2861SOL    HW2 8609   3.401   3.218   5.026
 2862SOL     OW 8610   2.901   2.960   4.420
 2862SOL    HW1 8611   2.831   2.913   4.474
 2862SOL    HW2 8612   2.960   2.892   4.377
 2863SOL     OW 8613   2.876   2.098   4.695
 2863SOL    HW1 8614   2.868   2.062   4.602
 2863SOL    HW2 8615   2.874   2.022   4.760
 2864SOL     OW 8616   2.452   3.349   4.215
 2864SOL    HW1 8617   2.494   3.291   4.145
 2864SOL    HW2 8618   2.408   3.428   4.171
 2865SOL     OW 8619   3.571   2.247   5.105
 2865SOL    HW1 8620   3.644   2.316   5.109
 2865SOL    HW2 8621   3.599   2.172   5.046
 2866SOL     OW 8622   2.117   3.210   4.014
 2866SOL    HW1 8623   2.021   3.211   3.987
 2866SOL    HW2 8624   2.129   3.263   4.098
 2867SOL     OW 8625   1.937   2.207   3.757
 2867SOL    HW1 8626   1.845   2.179   3.728
 2867SOL    HW2 8627   1.968   2.284   3.701
 2868SOL     OW 8628   3.302   2.718   5.122
 2868SOL    HW1 8629   3.245   2.770   5.059
 2868SOL    HW2 8630   3.398   2.730   5.098
 2869SOL     OW 8631   1.934   2.028   4.042
 2869SOL    HW1 8632   1.917   2.111   3.988
 2869SOL    HW2 8633   2.024   1.991   4.020
 2870SOL     OW 8634   3.045   3.197   3.843
 2870SOL    HW1 8635   2.946   3.186   3.845
 2870SOL    HW2 8636   3.079   3.212   3.936
 2871SOL     OW 8637   2.475   2.704   5.155
 2871SOL    HW1 8638   2.531   2.785   5.138
 2871SOL    HW2 8639   2.534   2.624   5.158
 2872SOL     OW 8640   3.355   3.629   4.683
 2872SOL    HW1 8641   3.388   3.693   4.614
 2872SOL    HW2 8642   3.421   3.623   4.758
 2873SOL     OW 8643   2.252   3.603   5.284
 2873SOL    HW1 8644   2.161   3.644   5.282
 2873SOL    HW2 8645   2.245   3.509   5.316
 2874SOL     OW 8646   3.536   2.745   4.978
 2874SOL    HW1 8647   3.509   2.656   4.941
 2874SOL    HW2 8648   3.537   2.813   4.905
 2875SOL     OW 8649   3.087   2.187   4.173
 2875SOL    HW1 8650   3.152   2.113   4.162
 2875SOL    HW2 8651   3.107   2.237   4.257
 2876SOL     OW 8652   2.456   2.607   4.376
 2876SOL    HW1 8653   2.506   2.692   4.357
 2876SOL    HW2 8654   2.368   2.609   4.328
 2877SOL     OW 8655   3.592   2.796   5.241
 2877SOL    HW1 8656   3.630   2.887   5.256
 2877SOL    HW2 8657   3.584   2.779   5.142
 2878SOL     OW 8658   2.721   3.236   3.740
 2878SOL    HW1 8659   2.675   3.251   3.828
 2878SOL    HW2 8660   2.765   3.321   3.710
 2879SOL     OW 8661   2.523   3.652   4.677
 2879SOL    HW1 8662   2.477   3.740   4.664
 2879SOL    HW2 8663   2.622   3.664   4.670
 2880SOL     OW 8664   2.721   2.818   4.585
 2880SOL    HW1 8665   2.775   2.749   4.633
 2880SOL    HW2 8666   2.689   2.887   4.651
 2881SOL     OW 8667   2.945   2.846   3.811
 2881SOL    HW1 8668   2.922   2.899   3.729
 2881SOL    HW2 8669   3.026   2.790   3.792
 2882SOL     OW 8670   3.723   3.431   4.575
 2882SOL    HW1 8671   3.652   3.419   4.505
 2882SOL    HW2 8672   3.724   3.352   4.635
 2883SOL     OW 8673   1.941   3.102   4.377
 2883SOL    HW1 8674   1.940   3.055   4.465
 2883SOL    HW2 8675   2.023   3.074   4.326
 2884SOL     OW 8676   3.686   2.054   4.951
 2884SOL    HW1 8677   3.682   1.964   4.995
 2884SOL    HW2 8678   3.689   2.043   4.852
 2885SOL     OW 8679   2.290   2.286   4.244
 2885SOL    HW1 8680   2.320   2.214   4.182
 2885SOL    HW2 8681   2.251   2.246   4.327
 2886SOL     OW 8682   3.567   3.349   4.828
 2886SOL    HW1 8683   3.474   3.324   4.801
 2886SOL    HW2 8684   3.593   3.299   4.910
 2887SOL     OW 8685   2.179   2.409   5.004
 2887SOL    HW1 8686   2.217   2.350   5.076
 2887SOL    HW2 8687   2.219   2.383   4.916
 2888SOL     OW 8688   2.674   3.448   4.411
 2888SOL    HW1 8689   2.706   3.458   4.317
 2888SOL    HW2 8690   2.595   3.386   4.413
 2889SOL     OW 8691   3.286   2.076   4.836
 2889SOL    HW1 8692   3.338   2.011   4.891
 2889SOL    HW2 8693   3.237   2.139   4.897
 2890SOL     OW 8694   2.863   1.896   4.878
 2890SOL    HW1 8695   2.800   1.824   4.847
 2890SOL    HW2 8696   2.956   1.860   4.878
 2891SOL     OW 8697   2.632   3.192   4.025
 2891SOL    HW1 8698   2.586   3.105   4.042
 2891SOL    HW2 8699   2.723   3.189   4.066
 2892SOL     OW 8700   2.480   3.429   5.008
 2892SOL    HW1 8701   2.475   3.511   5.065
 2892SOL    HW2 8702   2.569   3.426   4.963
 2893SOL     OW 8703   3.214   1.914   3.892
 2893SOL    HW1 8704   3.249   1.873   3.808
 2893SOL    HW2 8705   3.124   1.876   3.912
 2894SOL     OW 8706   3.162   2.315   4.415
 2894SOL    HW1 8707   3.103   2.395   4.419
 2894SOL    HW2 8708   3.177   2.280   4.508
 2895SOL     OW 8709   3.455   2.083   4.606
 2895SOL    HW1 8710   3.371   2.082   4.660
 2895SOL    HW2 8711   3.457   2.166   4.550
 2896SOL     OW 8712   1.901   2.939   4.024
 2896SOL    HW1 8713   2.000   2.928   4.015
 2896SOL    HW2 8714   1.861   2.853   4.056
 2897SOL     OW 8715   2.737   3.508   4.061
 2897SOL    HW1 8716   2.660   3.473   4.007
 2897SOL    HW2 8717   2.705   3.579   4.123
 2898SOL     OW 8718   2.092   4.352   0.113
 2898SOL    HW1 8719   1.999   4.350   0.150
 2898SOL    HW2 8720   2.093   4.313   0.021
 2899SOL     OW 8721   2.087   3.999   0.996
 2899SOL    HW1 8722   2.122   3.982   1.088
 2899SOL    HW2 8723   1.999   3.954   0.984
 2900SOL     OW 8724   1.881   4.092   0.647
 2900SOL    HW1 8725   1.799   4.135   0.686
 2900SOL    HW2 8726   1.853   4.019   0.584
 2901SOL     OW 8727   2.431   4.999   1.165
 2901SOL    HW1 8728   2.338   4.992   1.128
 2901SOL    HW2 8729   2.442   5.088   1.209
 2902SOL     OW 8730   3.417   5.235   0.703
 2902SOL    HW1 8731   3.360   5.219   0.784
 2902SOL    HW2 8732   3.358   5.245   0.623
 2903SOL     OW 8733   2.997   4.427   0.717
 2903SOL    HW1 8734   3.054   4.505   0.692
 2903SOL    HW2 8735   2.937   4.453   0.793
 2904SOL     OW 8736   3.617   4.331   0.231
 2904SOL    HW1 8737   3.605   4.318   0.132
 2904SOL    HW2 8738   3.587   4.250   0.280
 2905SOL     OW 8739   2.630   4.868   1.023
 2905SOL    HW1 8740   2.552   4.885   1.083
 2905SOL    HW2 8741   2.664   4.955   0.987
 2906SOL     OW 8742   2.712   4.522   1.823
 2906SOL    HW1 8743   2.708   4.598   1.888
 2906SOL    HW2 8744   2.734   4.558   1.732
 2907SOL     OW 8745   2.547   4.736   0.665
 2907SOL    HW1 8746   2.616   4.720   0.735
 2907SOL    HW2 8747   2.474   4.793   0.703
 2908SOL     OW 8748   2.548   4.885   1.803
 2908SOL    HW1 8749   2.608   4.964   1.817
 2908SOL    HW2 8750   2.462   4.916   1.762
 2909SOL     OW 8751   2.197   5.159   1.061
 2909SOL    HW1 8752   2.119   5.128   1.008
 2909SOL    HW2 8753   2.255   5.217   1.004
 2910SOL     OW 8754   3.322   5.229   1.339
 2910SOL    HW1 8755   3.346   5.323   1.365
 2910SOL    HW2 8756   3.306   5.175   1.421
 2911SOL     OW 8757   2.300   4.116   1.499
 2911SOL    HW1 8758   2.382   4.060   1.508
 2911SOL    HW2 8759   2.219   4.058   1.503
 2912SOL     OW 8760   3.465   4.171   0.737
 2912SOL    HW1 8761   3.391   4.217   0.687
 2912SOL    HW2 8762   3.516   4.239   0.790
 2913SOL     OW 8763   2.989   5.065   1.690
 2913SOL    HW1 8764   3.036   5.065   1.778
 2913SOL    HW2 8765   2.941   4.978   1.679
 2914SOL     OW 8766   2.092   5.158   0.538
 2914SOL    HW1 8767   2.066   5.254   0.538
 2914SOL    HW2 8768   2.021   5.104   0.583
 2915SOL     OW 8769   2.102   4.815   0.886
 2915SOL    HW1 8770   2.116   4.731   0.938
 2915SOL    HW2 8771   2.047   4.879   0.941
 2916SOL     OW 8772   2.468   4.688   0.123
 2916SOL    HW1 8773   2.475   4.772   0.069
 2916SOL    HW2 8774   2.514   4.701   0.211
 2917SOL     OW 8775   3.456   3.838   1.480
 2917SOL    HW1 8776   3.438   3.905   1.408
 2917SOL    HW2 8777   3.453   3.884   1.569
 2918SOL     OW 8778   1.984   4.367   0.563
 2918SOL    HW1 8779   1.939   4.279   0.580
 2918SOL    HW2 8780   1.983   4.421   0.647
 2919SOL     OW 8781   1.889   5.320   0.117
 2919SOL    HW1 8782   1.870   5.224   0.138
 2919SOL    HW2 8783   1.856   5.378   0.192
 2920SOL     OW 8784   3.551   4.646   0.612
 2920SOL    HW1 8785   3.646   4.617   0.620
 2920SOL    HW2 8786   3.543   4.711   0.537
 2921SOL     OW 8787   3.503   4.832   0.432
 2921SOL    HW1 8788   3.589   4.834   0.380
 2921SOL    HW2 8789   3.517   4.879   0.520
 2922SOL     OW 8790   1.975   4.461   1.597
 2922SOL    HW1 8791   2.063   4.448   1.642
 2922SOL    HW2 8792   1.962   4.558   1.575
 2923SOL     OW 8793   2.475   5.089   0.726
 2923SOL    HW1 8794   2.426   5.002   0.735
 2923SOL    HW2 8795   2.452   5.132   0.639
 2924SOL     OW 8796   3.155   4.952   1.423
 2924SOL    HW1 8797   3.192   4.879   1.365
 2924SOL    HW2 8798   3.207   4.957   1.508
 2925SOL     OW 8799   2.671   3.728   0.502
 2925SOL    HW1 8800   2.711   3.819   0.493
 2925SOL    HW2 8801   2.571   3.736   0.508
 2926SOL     OW 8802   2.059   4.700   1.264
 2926SOL    HW1 8803   2.148   4.655   1.250
 2926SOL    HW2 8804   1.986   4.635   1.245
 2927SOL     OW 8805   3.387   4.723   0.190
 2927SOL    HW1 8806   3.324   4.647   0.203
 2927SOL    HW2 8807   3.435   4.741   0.276
 2928SOL     OW 8808   2.179   3.975   1.801
 2928SOL    HW1 8809   2.250   4.046   1.807
 2928SOL    HW2 8810   2.091   4.014   1.829
 2929SOL     OW 8811   3.328   5.141   0.953
 2929SOL    HW1 8812   3.269   5.147   1.033
 2929SOL    HW2 8813   3.313   5.053   0.907
 2930SOL     OW 8814   2.460   4.453   0.270
 2930SOL    HW1 8815   2.484   4.522   0.202
 2930SOL    HW2 8816   2.382   4.486   0.324
 2931SOL     OW 8817   3.143   4.069   0.944
 2931SOL    HW1 8818   3.057   4.019   0.931
 2931SOL    HW2 8819   3.205   4.015   1.000
 2932SOL     OW 8820   2.669   4.329   1.465
 2932SOL    HW1 8821   2.622   4.326   1.554
 2932SOL    HW2 8822   2.618   4.274   1.399
 2933SOL     OW 8823   3.256   4.193   1.674
 2933SOL    HW1 8824   3.236   4.236   1.762
 2933SOL    HW2 8825   3.334   4.131   1.683
 2934SOL     OW 8826   2.835   4.614   1.572
 2934SOL    HW1 8827   2.881   4.530   1.543
 2934SOL    HW2 8828   2.779   4.648   1.497
 2935SOL     OW 8829   2.853   4.134   1.242
 2935SOL    HW1 8830   2.776   4.168   1.296
 2935SOL    HW2 8831   2.819   4.083   1.163
 2936SOL     OW 8832   2.903   4.425   0.429
 2936SOL    HW1 8833   2.929   4.421   0.525
 2936SOL    HW2 8834   2.818   4.374   0.415
 2937SOL     OW 8835   1.938   4.535   0.789
 2937SOL    HW1 8836   2.037   4.523   0.798
 2937SOL    HW2 8837   1.914   4.630   0.810
 2938SOL     OW 8838   2.727   4.072   0.195
 2938SOL    HW1 8839   2.786   4.135   0.146
 2938SOL    HW2 8840   2.746   3.978   0.166
 2939SOL     OW 8841   3.581   4.309   1.831
 2939SOL    HW1 8842   3.555   4.398   1.795
 2939SOL    HW2 8843   3.579   4.241   1.758
 2940SOL     OW 8844   3.224   4.868   0.545
 2940SOL    HW1 8845   3.307   4.839   0.497
 2940SOL    HW2 8846   3.175   4.935   0.489
 2941SOL     OW 8847   2.412   3.920   0.885
 2941SOL    HW1 8848   2.407   3.915   0.985
 2941SOL    HW2 8849   2.414   4.016   0.856
 2942SOL     OW 8850   2.870   5.180   0.477
 2942SOL    HW1 8851   2.824   5.252   0.425
 2942SOL    HW2 8852   2.866   5.200   0.575
 2943SOL     OW 8853   3.657   4.790   0.873
 2943SOL    HW1 8854   3.595   4.775   0.797
 2943SOL    HW2 8855   3.605   4.801   0.958
 2944SOL     OW 8856   3.089   5.274   1.506
 2944SOL    HW1 8857   3.095   5.197   1.570
 2944SOL    HW2 8858   3.037   5.248   1.426
 2945SOL     OW 8859   2.183   4.667   0.242
 2945SOL    HW1 8860   2.265   4.706   0.200
 2945SOL    HW2 8861   2.156   4.585   0.193
 2946SOL     OW 8862   3.320   4.459   0.728
 2946SOL    HW1 8863   3.315   4.394   0.803
 2946SOL    HW2 8864   3.400   4.518   0.741
 2947SOL     OW 8865   2.323   4.990   1.727
 2947SOL    HW1 8866   2.273   4.991   1.641
 2947SOL    HW2 8867   2.260   4.972   1.803
 2948SOL     OW 8868   2.973   5.500   0.237
 2948SOL    HW1 8869   2.913   5.438   0.287
 2948SOL    HW2 8870   3.004   5.456   0.152
 2949SOL     OW 8871   2.064   4.009   1.498
 2949SOL    HW1 8872   1.984   4.069   1.485
 2949SOL    HW2 8873   2.054   3.960   1.584
 2950SOL     OW 8874   3.494   5.101   0.081
 2950SOL    HW1 8875   3.462   5.195   0.071
 2950SOL    HW2 8876   3.418   5.038   0.069
 2951SOL     OW 8877   3.262   3.831   0.426
 2951SOL    HW1 8878   3.238   3.794   0.336
 2951SOL    HW2 8879   3.361   3.847   0.430
 2952SOL     OW 8880   2.244   4.424   0.480
 2952SOL    HW1 8881   2.289   4.334   0.477
 2952SOL    HW2 8882   2.150   4.413   0.513
 2953SOL     OW 8883   3.409   3.946   1.729
 2953SOL    HW1 8884   3.404   3.983   1.821
 2953SOL    HW2 8885   3.337   3.877   1.717
 2954SOL     OW 8886   2.476   3.846   0.117
 2954SOL    HW1 8887   2.574   3.824   0.124
 2954SOL    HW2 8888   2.445   3.829   0.024
 2955SOL     OW 8889   2.643   3.988   1.749
 2955SOL    HW1 8890   2.710   3.927   1.792
 2955SOL    HW2 8891   2.570   4.007   1.814
 2956SOL     OW 8892   3.213   4.314   1.433
 2956SOL    HW1 8893   3.241   4.271   1.518
 2956SOL    HW2 8894   3.238   4.410   1.434
 2957SOL     OW 8895   2.665   5.126   0.924
 2957SOL    HW1 8896   2.755   5.140   0.882
 2957SOL    HW2 8897   2.594   5.128   0.853
 2958SOL     OW 8898   2.784   4.227   0.899
 2958SOL    HW1 8899   2.759   4.218   0.803
 2958SOL    HW2 8900   2.832   4.145   0.930
 2959SOL     OW 8901   2.401   3.788   0.512
 2959SOL    HW1 8902   2.320   3.789   0.570
 2959SOL    HW2 8903   2.404   3.871   0.457
 2960SOL     OW 8904   3.296   4.912   0.041
 2960SOL    HW1 8905   3.328   4.836   0.098
 2960SOL    HW2 8906   3.204   4.939   0.071
 2961SOL     OW 8907   2.159   3.759   0.171
 2961SOL    HW1 8908   2.208   3.843   0.150
 2961SOL    HW2 8909   2.221   3.694   0.216
 2962SOL     OW 8910   2.797   3.960   0.480
 2962SOL    HW1 8911   2.749   4.001   0.402
 2962SOL    HW2 8912   2.896   3.958   0.461
 2963SOL     OW 8913   2.938   4.407   1.464
 2963SOL    HW1 8914   2.858   4.346   1.467
 2963SOL    HW2 8915   3.019   4.354   1.440
 2964SOL     OW 8916   3.089   5.294   0.793
 2964SOL    HW1 8917   3.110   5.368   0.728
 2964SOL    HW2 8918   3.157   5.294   0.866
 2965SOL     OW 8919   2.321   4.876   0.741
 2965SOL    HW1 8920   2.250   4.849   0.806
 2965SOL    HW2 8921   2.295   4.848   0.648
 2966SOL     OW 8922   2.894   4.273   0.016
 2966SOL    HW1 8923   2.853   4.355  -0.023
 2966SOL    HW2 8924   2.958   4.299   0.089
 2967SOL     OW 8925   1.940   4.280   1.386
 2967SOL    HW1 8926   2.032   4.279   1.345
 2967SOL    HW2 8927   1.934   4.354   1.453
 2968SOL     OW 8928   2.423   3.946   1.147
 2968SOL    HW1 8929   2.461   3.862   1.184
 2968SOL    HW2 8930   2.335   3.965   1.191
 2969SOL     OW 8931   2.728   4.178   0.642
 2969SOL    HW1 8932   2.696   4.250   0.580
 2969SOL    HW2 8933   2.752   4.097   0.589
 2970SOL     OW 8934   2.879   3.763   0.753
 2970SOL    HW1 8935   2.807   3.768   0.684
 2970SOL    HW2 8936   2.855   3.694   0.822
 2971SOL     OW 8937   3.291   4.897   0.867
 2971SOL    HW1 8938   3.236   4.813   0.860
 2971SOL    HW2 8939   3.317   4.926   0.775
 2972SOL     OW 8940   3.328   4.314   0.992
 2972SOL    HW1 8941   3.298   4.219   0.999
 2972SOL    HW2 8942   3.401   4.330   1.058
 2973SOL     OW 8943   3.719   4.557   0.377
 2973SOL    HW1 8944   3.761   4.493   0.441
 2973SOL    HW2 8945   3.681   4.506   0.299
 2974SOL     OW 8946   2.350   5.109   0.174
 2974SOL    HW1 8947   2.263   5.094   0.221
 2974SOL    HW2 8948   2.333   5.135   0.079
 2975SOL     OW 8949   3.526   5.004   0.657
 2975SOL    HW1 8950   3.625   5.012   0.671
 2975SOL    HW2 8951   3.481   5.088   0.688
 2976SOL     OW 8952   3.252   4.299   0.078
 2976SOL    HW1 8953   3.198   4.278   0.159
 2976SOL    HW2 8954   3.343   4.258   0.087
 2977SOL     OW 8955   2.389   3.980   0.328
 2977SOL    HW1 8956   2.416   3.921   0.253
 2977SOL    HW2 8957   2.389   4.075   0.297
 2978SOL     OW 8958   3.616   4.947   1.588
 2978SOL    HW1 8959   3.707   4.908   1.575
 2978SOL    HW2 8960   3.624   5.043   1.612
 2979SOL     OW 8961   2.926   5.071   1.340
 2979SOL    HW1 8962   2.846   5.048   1.395
 2979SOL    HW2 8963   3.009   5.045   1.389
 2980SOL     OW 8964   2.973   4.919   1.100
 2980SOL    HW1 8965   2.933   4.963   1.181
 2980SOL    HW2 8966   2.932   4.956   1.017
 2981SOL     OW 8967   3.500   4.823   1.079
 2981SOL    HW1 8968   3.505   4.904   1.138
 2981SOL    HW2 8969   3.414   4.825   1.028
 2982SOL     OW 8970   2.777   3.813   1.402
 2982SOL    HW1 8971   2.802   3.793   1.307
 2982SOL    HW2 8972   2.849   3.869   1.444
 2983SOL     OW 8973   2.842   4.840   1.719
 2983SOL    HW1 8974   2.743   4.846   1.729
 2983SOL    HW2 8975   2.865   4.760   1.663
 2984SOL     OW 8976   2.567   4.774   0.368
 2984SOL    HW1 8977   2.553   4.781   0.467
 2984SOL    HW2 8978   2.651   4.723   0.350
 2985SOL     OW 8979   2.272   4.537   1.251
 2985SOL    HW1 8980   2.358   4.549   1.301
 2985SOL    HW2 8981   2.230   4.450   1.278
 2986SOL     OW 8982   3.136   4.110   1.262
 2986SOL    HW1 8983   3.157   4.184   1.326
 2986SOL    HW2 8984   3.047   4.127   1.219
 2987SOL     OW 8985   2.229   4.824   0.501
 2987SOL    HW1 8986   2.222   4.907   0.445
 2987SOL    HW2 8987   2.233   4.744   0.441
 2988SOL     OW 8988   2.428   4.261   0.865
 2988SOL    HW1 8989   2.440   4.327   0.791
 2988SOL    HW2 8990   2.474   4.295   0.948
 2989SOL     OW 8991   3.114   5.072   0.388
 2989SOL    HW1 8992   3.164   5.149   0.428
 2989SOL    HW2 8993   3.019   5.074   0.420
 2990SOL     OW 8994   3.134   5.169   1.142
 2990SOL    HW1 8995   3.181   5.182   1.229
 2990SOL    HW2 8996   3.068   5.095   1.151
 2991SOL     OW 8997   3.444   4.363   0.472
 2991SOL    HW1 8998   3.413   4.424   0.545
 2991SOL    HW2 8999   3.494   4.415   0.403
 2992SOL     OW 9000   2.216   5.234   1.329
 2992SOL    HW1 9001   2.195   5.190   1.242
 2992SOL    HW2 9002   2.313   5.260   1.332
 2993SOL     OW 9003   2.264   4.475   1.598
 2993SOL    HW1 9004   2.332   4.530   1.551
 2993SOL    HW2 9005   2.304   4.387   1.625
 2994SOL     OW 9006   3.449   4.503   1.670
 2994SOL    HW1 9007   3.357   4.541   1.665
 2994SOL    HW2 9008   3.509   4.550   1.605
 2995SOL     OW 9009   2.875   3.829   1.770
 2995SOL    HW1 9010   2.881   3.914   1.718
 2995SOL    HW2 9011   2.907   3.753   1.713
 2996SOL     OW 9012   2.366   3.774   1.740
 2996SOL    HW1 9013   2.324   3.717   1.670
 2996SOL    HW2 9014   2.300   3.843   1.772
 2997SOL     OW 9015   2.435   4.594   1.029
 2997SOL    HW1 9016   2.479   4.683   1.020
 2997SOL    HW2 9017   2.372   4.594   1.106
 2998SOL     OW 9018   3.222   4.586   1.045
 2998SOL    HW1 9019   3.147   4.586   0.979
 2998SOL    HW2 9020   3.259   4.494   1.054
 2999SOL     OW 9021   3.071   4.249   0.275
 2999SOL    HW1 9022   3.084   4.165   0.329
 2999SOL    HW2 9023   3.042   4.323   0.335
 3000SOL     OW 9024   2.169   3.937   1.231
 3000SOL    HW1 9025   2.146   3.974   1.321
 3000SOL    HW2 9026   2.139   3.842   1.225
 3001SOL     OW 9027   1.899   5.034   1.282
 3001SOL    HW1 9028   1.952   4.985   1.350
 3001SOL    HW2 9029   1.921   5.132   1.287
 3002SOL     OW 9030   2.594   4.358   1.064
 3002SOL    HW1 9031   2.653   4.332   0.988
 3002SOL    HW2 9032   2.566   4.454   1.053
 3003SOL     OW 9033   3.590   4.659   1.854
 3003SOL    HW1 9034   3.544   4.652   1.765
 3003SOL    HW2 9035   3.528   4.703   1.920
 3004SOL     OW 9036   2.169   3.787   0.618
 3004SOL    HW1 9037   2.158   3.881   0.651
 3004SOL    HW2 9038   2.164   3.724   0.695
 3005SOL     OW 9039   3.484   4.091   0.374
 3005SOL    HW1 9040   3.486   4.015   0.438
 3005SOL    HW2 9041   3.436   4.168   0.414
 3006SOL     OW 9042   2.885   4.490   0.966
 3006SOL    HW1 9043   2.900   4.511   1.062
 3006SOL    HW2 9044   2.855   4.395   0.957
 3007SOL     OW 9045   3.721   5.242   1.605
 3007SOL    HW1 9046   3.735   5.269   1.510
 3007SOL    HW2 9047   3.804   5.264   1.658
 3008SOL     OW 9048   2.212   4.622   1.804
 3008SOL    HW1 9049   2.288   4.666   1.852
 3008SOL    HW2 9050   2.247   4.575   1.722
 3009SOL     OW 9051   3.402   3.998   0.125
 3009SOL    HW1 9052   3.341   3.923   0.148
 3009SOL    HW2 9053   3.424   4.050   0.208
 3010SOL     OW 9054   3.165   4.562   0.042
 3010SOL    HW1 9055   3.199   4.469   0.057
 3010SOL    HW2 9056   3.183   4.589  -0.053
 3011SOL     OW 9057   2.930   5.057   0.849
 3011SOL    HW1 9058   2.937   4.973   0.794
 3011SOL    HW2 9059   2.992   5.126   0.813
 3012SOL     OW 9060   2.181   4.534   0.949
 3012SOL    HW1 9061   2.274   4.570   0.954
 3012SOL    HW2 9062   2.175   4.449   1.001
 3013SOL     OW 9063   2.201   4.233   1.006
 3013SOL    HW1 9064   2.149   4.150   0.989
 3013SOL    HW2 9065   2.278   4.238   0.942
 3014SOL     OW 9066   3.000   4.104   1.678
 3014SOL    HW1 9067   2.955   4.167   1.742
 3014SOL    HW2 9068   3.093   4.135   1.661
 3015SOL     OW 9069   3.022   3.931   1.477
 3015SOL    HW1 9070   3.022   3.995   1.554
 3015SOL    HW2 9071   3.050   3.979   1.394
 3016SOL     OW 9072   1.870   5.050   0.200
 3016SOL    HW1 9073   1.777   5.071   0.169
 3016SOL    HW2 9074   1.880   4.951   0.213
 3017SOL     OW 9075   2.864   4.520   1.238
 3017SOL    HW1 9076   2.905   4.488   1.324
 3017SOL    HW2 9077   2.768   4.493   1.235
 3018SOL     OW 9078   1.902   4.268   1.114
 3018SOL    HW1 9079   1.987   4.235   1.073
 3018SOL    HW2 9080   1.915   4.283   1.212
 3019SOL     OW 9081   2.051   4.244   1.722
 3019SOL    HW1 9082   2.110   4.204   1.652
 3019SOL    HW2 9083   1.993   4.315   1.681
 3020SOL     OW 9084   3.231   4.674   1.660
 3020SOL    HW1 9085   3.270   4.763   1.680
 3020SOL    HW2 9086   3.241   4.654   1.563
 3021SOL     OW 9087   2.677   4.296   0.325
 3021SOL    HW1 9088   2.684   4.207   0.279
 3021SOL    HW2 9089   2.583   4.330   0.317
 3022SOL     OW 9090   3.519   4.328   1.206
 3022SOL    HW1 9091   3.481   4.259   1.268
 3022SOL    HW2 9092   3.601   4.292   1.162
 3023SOL     OW 9093   2.114   5.288   1.744
 3023SOL    HW1 9094   2.084   5.345   1.820
 3023SOL    HW2 9095   2.107   5.191   1.770
 3024SOL     OW 9096   2.533   4.188   1.269
 3024SOL    HW1 9097   2.499   4.099   1.239
 3024SOL    HW2 9098   2.559   4.242   1.189
 3025SOL     OW 9099   2.335   4.224   0.191
 3025SOL    HW1 9100   2.396   4.304   0.195
 3025SOL    HW2 9101   2.240   4.255   0.198
 3026SOL     OW 9102   2.021   4.861   1.466
 3026SOL    HW1 9103   2.043   4.800   1.542
 3026SOL    HW2 9104   2.031   4.812   1.380
 3027SOL     OW 9105   3.209   4.783   1.234
 3027SOL    HW1 9106   3.233   4.720   1.160
 3027SOL    HW2 9107   3.119   4.823   1.216
 3028SOL     OW 9108   3.164   4.579   0.309
 3028SOL    HW1 9109   3.078   4.548   0.351
 3028SOL    HW2 9110   3.160   4.565   0.210
 3029SOL     OW 9111   1.945   4.982   1.022
 3029SOL    HW1 9112   1.940   4.981   1.122
 3029SOL    HW2 9113   1.862   4.941   0.984
 3030SOL     OW 9114   2.765   3.810   0.133
 3030SOL    HW1 9115   2.816   3.811   0.047
 3030SOL    HW2 9116   2.821   3.768   0.204
 3031SOL     OW 9117   3.588   3.859   0.523
 3031SOL    HW1 9118   3.661   3.842   0.456
 3031SOL    HW2 9119   3.557   3.772   0.561
 3032SOL     OW 9120   3.142   4.651   0.672
 3032SOL    HW1 9121   3.202   4.570   0.674
 3032SOL    HW2 9122   3.182   4.720   0.612
 3033SOL     OW 9123   2.692   4.997   1.422
 3033SOL    HW1 9124   2.687   5.030   1.517
 3033SOL    HW2 9125   2.606   5.016   1.376
 3034SOL     OW 9126   3.703   3.899   0.963
 3034SOL    HW1 9127   3.742   3.814   0.927
 3034SOL    HW2 9128   3.605   3.901   0.944
 3035SOL     OW 9129   2.125   4.050   0.720
 3035SOL    HW1 9130   2.046   4.101   0.686
 3035SOL    HW2 9131   2.116   4.035   0.818
 3036SOL     OW 9132   3.056   5.336   0.031
 3036SOL    HW1 9133   3.062   5.243   0.068
 3036SOL    HW2 9134   2.997   5.336  -0.049
 3037SOL     OW 9135   2.684   4.726   1.372
 3037SOL    HW1 9136   2.724   4.725   1.280
 3037SOL    HW2 9137   2.694   4.818   1.412
 3038SOL     OW 9138   2.778   4.634   0.291
 3038SOL    HW1 9139   2.841   4.672   0.223
 3038SOL    HW2 9140   2.818   4.551   0.330
 3039SOL     OW 9141   2.234   5.012   1.490
 3039SOL    HW1 9142   2.221   5.105   1.456
 3039SOL    HW2 9143   2.150   4.960   1.477
 3040SOL     OW 9144   3.476   5.016   1.289
 3040SOL    HW1 9145   3.536   5.019   1.369
 3040SOL    HW2 9146   3.401   5.080   1.302
 3041SOL     OW 9147   2.901   4.822   0.696
 3041SOL    HW1 9148   2.831   4.775   0.750
 3041SOL    HW2 9149   2.960   4.754   0.653
 3042SOL     OW 9150   2.876   3.960   0.971
 3042SOL    HW1 9151   2.868   3.924   0.878
 3042SOL    HW2 9152   2.874   3.884   1.036
 3043SOL     OW 9153   3.571   4.109   1.381
 3043SOL    HW1 9154   3.644   4.178   1.385
 3043SOL    HW2 9155   3.599   4.034   1.322
 3044SOL     OW 9156   2.117   5.072   0.290
 3044SOL    HW1 9157   2.021   5.073   0.263
 3044SOL    HW2 9158   2.129   5.125   0.374
 3045SOL     OW 9159   1.967   4.737   1.726
 3045SOL    HW1 9160   1.890   4.704   1.780
 3045SOL    HW2 9161   2.052   4.707   1.768
 3046SOL     OW 9162   2.534   3.927   1.489
 3046SOL    HW1 9163   2.624   3.911   1.449
 3046SOL    HW2 9164   2.542   3.932   1.588
 3047SOL     OW 9165   3.302   4.580   1.398
 3047SOL    HW1 9166   3.245   4.632   1.335
 3047SOL    HW2 9167   3.398   4.592   1.374
 3048SOL     OW 9168   1.934   3.890   0.318
 3048SOL    HW1 9169   1.917   3.973   0.264
 3048SOL    HW2 9170   2.024   3.853   0.296
 3049SOL     OW 9171   3.045   5.059   0.119
 3049SOL    HW1 9172   2.946   5.048   0.121
 3049SOL    HW2 9173   3.079   5.074   0.212
 3050SOL     OW 9174   2.475   4.566   1.431
 3050SOL    HW1 9175   2.531   4.647   1.414
 3050SOL    HW2 9176   2.534   4.486   1.434
 3051SOL     OW 9177   2.578   4.289   1.708
 3051SOL    HW1 9178   2.597   4.354   1.782
 3051SOL    HW2 9179   2.638   4.209   1.717
 3052SOL     OW 9180   3.312   4.944   1.633
 3052SOL    HW1 9181   3.303   4.934   1.732
 3052SOL    HW2 9182   3.408   4.937   1.607
 3053SOL     OW 9183   3.536   4.607   1.254
 3053SOL    HW1 9184   3.509   4.518   1.217
 3053SOL    HW2 9185   3.537   4.675   1.181
 3054SOL     OW 9186   3.087   4.049   0.449
 3054SOL    HW1 9187   3.152   3.975   0.438
 3054SOL    HW2 9188   3.107   4.099   0.533
 3055SOL     OW 9189   2.456   4.469   0.652
 3055SOL    HW1 9190   2.506   4.554   0.633
 3055SOL    HW2 9191   2.368   4.471   0.604
 3056SOL     OW 9192   3.639   4.066   1.642
 3056SOL    HW1 9193   3.622   4.097   1.548
 3056SOL    HW2 9194   3.555   4.029   1.680
 3057SOL     OW 9195   3.592   4.658   1.517
 3057SOL    HW1 9196   3.630   4.749   1.532
 3057SOL    HW2 9197   3.584   4.641   1.418
 3058SOL     OW 9198   2.721   5.098   0.016
 3058SOL    HW1 9199   2.675   5.113   0.104
 3058SOL    HW2 9200   2.765   5.183  -0.014
 3059SOL     OW 9201   2.721   4.680   0.861
 3059SOL    HW1 9202   2.775   4.611   0.909
 3059SOL    HW2 9203   2.689   4.749   0.927
 3060SOL     OW 9204   2.945   4.708   0.087
 3060SOL    HW1 9205   2.922   4.761   0.005
 3060SOL    HW2 9206   3.026   4.652   0.068
 3061SOL     OW 9207   2.083   5.038   1.844
 3061SOL    HW1 9208   2.018   4.965   1.823
 3061SOL    HW2 9209   2.087   5.052   1.942
 3062SOL     OW 9210   1.941   4.964   0.653
 3062SOL    HW1 9211   1.940   4.917   0.741
 3062SOL    HW2 9212   2.023   4.936   0.602
 3063SOL     OW 9213   2.534   5.115   1.624
 3063SOL    HW1 9214   2.456   5.065   1.662
 3063SOL    HW2 9215   2.531   5.210   1.655
 3064SOL     OW 9216   3.686   3.916   1.227
 3064SOL    HW1 9217   3.682   3.826   1.271
 3064SOL    HW2 9218   3.689   3.905   1.128
 3065SOL     OW 9219   2.290   4.148   0.520
 3065SOL    HW1 9220   2.320   4.076   0.458
 3065SOL    HW2 9221   2.251   4.108   0.603
 3066SOL     OW 9222   3.567   5.211   1.104
 3066SOL    HW1 9223   3.474   5.186   1.077
 3066SOL    HW2 9224   3.593   5.161   1.186
 3067SOL     OW 9225   2.179   4.271   1.280
 3067SOL    HW1 9226   2.217   4.212   1.352
 3067SOL    HW2 9227   2.219   4.245   1.192
 3068SOL     OW 9228   3.286   3.938   1.112
 3068SOL    HW1 9229   3.338   3.873   1.167
 3068SOL    HW2 9230   3.237   4.001   1.173
 3069SOL     OW 9231   2.863   3.758   1.154
 3069SOL    HW1 9232   2.800   3.686   1.123
 3069SOL    HW2 9233   2.956   3.722   1.154
 3070SOL     OW 9234   2.632   5.054   0.301
 3070SOL    HW1 9235   2.586   4.967   0.318
 3070SOL    HW2 9236   2.723   5.051   0.342
 3071SOL     OW 9237   2.480   5.291   1.284
 3071SOL    HW1 9238   2.475   5.373   1.341
 3071SOL    HW2 9239   2.569   5.288   1.239
 3072SOL     OW 9240   3.214   3.776   0.168
 3072SOL    HW1 9241   3.249   3.735   0.084
 3072SOL    HW2 9242   3.124   3.738   0.188
 3073SOL     OW 9243   3.162   4.177   0.691
 3073SOL    HW1 9244   3.103   4.257   0.695
 3073SOL    HW2 9245   3.177   4.142   0.784
 3074SOL     OW 9246   3.455   3.945   0.882
 3074SOL    HW1 9247   3.371   3.944   0.936
 3074SOL    HW2 9248   3.457   4.028   0.826
 3075SOL     OW 9249   1.901   4.801   0.300
 3075SOL    HW1 9250   2.000   4.790   0.291
 3075SOL    HW2 9251   1.861   4.715   0.332
 3076SOL     OW 9252   2.092   4.352   1.975
 3076SOL    HW1 9253   1.999   4.350   2.012
 3076SOL    HW2 9254   2.093   4.313   1.883
 3077SOL     OW 9255   2.087   3.999   2.858
 3077SOL    HW1 9256   2.122   3.982   2.950
 3077SOL    HW2 9257   1.999   3.954   2.846
 3078SOL     OW 9258   1.881   4.092   2.509
 3078SOL    HW1 9259   1.799   4.135   2.548
 3078SOL    HW2 9260   1.853   4.019   2.446
 3079SOL     OW 9261   2.431   4.999   3.027
 3079SOL    HW1 9262   2.338   4.992   2.990
 3079SOL    HW2 9263   2.442   5.088   3.071
 3080SOL     OW 9264   3.417   5.235   2.565
 3080SOL    HW1 9265   3.360   5.219   2.646
 3080SOL    HW2 9266   3.358   5.245   2.485
 3081SOL     OW 9267   2.997   4.427   2.579
 3081SOL    HW1 9268   3.054   4.505   2.554
 3081SOL    HW2 9269   2.937   4.453   2.655
 3082SOL     OW 9270   3.617   4.331   2.093
 3082SOL    HW1 9271   3.605   4.318   1.994
 3082SOL    HW2 9272   3.587   4.250   2.142
 3083SOL     OW 9273   2.630   4.868   2.885
 3083SOL    HW1 9274   2.552   4.885   2.945
 3083SOL    HW2 9275   2.664   4.955   2.849
 3084SOL     OW 9276   2.712   4.522   3.685
 3084SOL    HW1 9277   2.708   4.598   3.750
 3084SOL    HW2 9278   2.734   4.558   3.594
 3085SOL     OW 9279   2.547   4.736   2.527
 3085SOL    HW1 9280   2.616   4.720   2.597
 3085SOL    HW2 9281   2.474   4.793   2.565
 3086SOL     OW 9282   2.548   4.885   3.665
 3086SOL    HW1 9283   2.608   4.964   3.679
 3086SOL    HW2 9284   2.462   4.916   3.624
 3087SOL     OW 9285   2.197   5.159   2.923
 3087SOL    HW1 9286   2.119   5.128   2.870
 3087SOL    HW2 9287   2.255   5.217   2.866
 3088SOL     OW 9288   3.322   5.229   3.201
 3088SOL    HW1 9289   3.346   5.323   3.227
 3088SOL    HW2 9290   3.306   5.175   3.283
 3089SOL     OW 9291   2.300   4.116   3.361
 3089SOL    HW1 9292   2.382   4.060   3.370
 3089SOL    HW2 9293   2.219   4.058   3.365
 3090SOL     OW 9294   3.465   4.171   2.599
 3090SOL    HW1 9295   3.391   4.217   2.549
 3090SOL    HW2 9296   3.516   4.239   2.652
 3091SOL     OW 9297   2.989   5.065   3.552
 3091SOL    HW1 9298   3.036   5.065   3.640
 3091SOL    HW2 9299   2.941   4.978   3.541
 3092SOL     OW 9300   2.092   5.158   2.400
 3092SOL    HW1 9301   2.066   5.254   2.400
 3092SOL    HW2 9302   2.021   5.104   2.445
 3093SOL     OW 9303   2.102   4.815   2.748
 3093SOL    HW1 9304   2.116   4.731   2.800
 3093SOL    HW2 9305   2.047   4.879   2.803
 3094SOL     OW 9306   2.468   4.688   1.985
 3094SOL    HW1 9307   2.475   4.772   1.931
 3094SOL    HW2 9308   2.514   4.701   2.073
 3095SOL     OW 9309   3.456   3.838   3.342
 3095SOL    HW1 9310   3.438   3.905   3.270
 3095SOL    HW2 9311   3.453   3.884   3.431
 3096SOL     OW 9312   1.984   4.367   2.425
 3096SOL    HW1 9313   1.939   4.279   2.442
 3096SOL    HW2 9314   1.983   4.421   2.509
 3097SOL     OW 9315   1.889   5.320   1.979
 3097SOL    HW1 9316   1.870   5.224   2.000
 3097SOL    HW2 9317   1.856   5.378   2.054
 3098SOL     OW 9318   3.551   4.646   2.474
 3098SOL    HW1 9319   3.646   4.617   2.482
 3098SOL    HW2 9320   3.543   4.711   2.399
 3099SOL     OW 9321   3.503   4.832   2.294
 3099SOL    HW1 9322   3.589   4.834   2.242
 3099SOL    HW2 9323   3.517   4.879   2.382
 3100SOL     OW 9324   1.975   4.461   3.459
 3100SOL    HW1 9325   2.063   4.448   3.504
 3100SOL    HW2 9326   1.962   4.558   3.437
 3101SOL     OW 9327   2.475   5.089   2.588
 3101SOL    HW1 9328   2.426   5.002   2.597
 3101SOL    HW2 9329   2.452   5.132   2.501
 3102SOL     OW 9330   3.155   4.952   3.285
 3102SOL    HW1 9331   3.192   4.879   3.227
 3102SOL    HW2 9332   3.207   4.957   3.370
 3103SOL     OW 9333   2.671   3.728   2.364
 3103SOL    HW1 9334   2.711   3.819   2.355
 3103SOL    HW2 9335   2.571   3.736   2.370
 3104SOL     OW 9336   2.059   4.700   3.126
 3104SOL    HW1 9337   2.148   4.655   3.112
 3104SOL    HW2 9338   1.986   4.635   3.107
 3105SOL     OW 9339   3.387   4.723   2.052
 3105SOL    HW1 9340   3.324   4.647   2.065
 3105SOL    HW2 9341   3.435   4.741   2.138
 3106SOL     OW 9342   2.179   3.975   3.663
 3106SOL    HW1 9343   2.250   4.046   3.669
 3106SOL    HW2 9344   2.091   4.014   3.691
 3107SOL     OW 9345   3.328   5.141   2.815
 3107SOL    HW1 9346   3.269   5.147   2.895
 3107SOL    HW2 9347   3.313   5.053   2.769
 3108SOL     OW 9348   2.460   4.453   2.132
 3108SOL    HW1 9349   2.484   4.522   2.064
 3108SOL    HW2 9350   2.382   4.486   2.186
 3109SOL     OW 9351   3.143   4.069   2.806
 3109SOL    HW1 9352   3.057   4.019   2.793
 3109SOL    HW2 9353   3.205   4.015   2.862
 3110SOL     OW 9354   2.669   4.329   3.327
 3110SOL    HW1 9355   2.622   4.326   3.416
 3110SOL    HW2 9356   2.618   4.274   3.261
 3111SOL     OW 9357   3.256   4.193   3.536
 3111SOL    HW1 9358   3.236   4.236   3.624
 3111SOL    HW2 9359   3.334   4.131   3.545
 3112SOL     OW 9360   2.835   4.614   3.434
 3112SOL    HW1 9361   2.881   4.530   3.405
 3112SOL    HW2 9362   2.779   4.648   3.359
 3113SOL     OW 9363   2.853   4.134   3.104
 3113SOL    HW1 9364   2.776   4.168   3.158
 3113SOL    HW2 9365   2.819   4.083   3.025
 3114SOL     OW 9366   2.903   4.425   2.291
 3114SOL    HW1 9367   2.929   4.421   2.387
 3114SOL    HW2 9368   2.818   4.374   2.277
 3115SOL     OW 9369   1.938   4.535   2.651
 3115SOL    HW1 9370   2.037   4.523   2.660
 3115SOL    HW2 9371   1.914   4.630   2.672
 3116SOL     OW 9372   2.727   4.072   2.057
 3116SOL    HW1 9373   2.786   4.135   2.008
 3116SOL    HW2 9374   2.746   3.978   2.028
 3117SOL     OW 9375   3.581   4.309   3.693
 3117SOL    HW1 9376   3.555   4.398   3.657
 3117SOL    HW2 9377   3.579   4.241   3.620
 3118SOL     OW 9378   3.224   4.868   2.407
 3118SOL    HW1 9379   3.307   4.839   2.359
 3118SOL    HW2 9380   3.175   4.935   2.351
 3119SOL     OW 9381   2.412   3.920   2.747
 3119SOL    HW1 9382   2.407   3.915   2.847
 3119SOL    HW2 9383   2.414   4.016   2.718
 3120SOL     OW 9384   2.870   5.180   2.339
 3120SOL    HW1 9385   2.824   5.252   2.287
 3120SOL    HW2 9386   2.866   5.200   2.437
 3121SOL     OW 9387   3.657   4.790   2.735
 3121SOL    HW1 9388   3.595   4.775   2.659
 3121SOL    HW2 9389   3.605   4.801   2.820
 3122SOL     OW 9390   3.089   5.274   3.368
 3122SOL    HW1 9391   3.095   5.197   3.432
 3122SOL    HW2 9392   3.037   5.248   3.288
 3123SOL     OW 9393   2.183   4.667   2.104
 3123SOL    HW1 9394   2.265   4.706   2.062
 3123SOL    HW2 9395   2.156   4.585   2.055
 3124SOL     OW 9396   3.320   4.459   2.590
 3124SOL    HW1 9397   3.315   4.394   2.665
 3124SOL    HW2 9398   3.400   4.518   2.603
 3125SOL     OW 9399   2.323   4.990   3.589
 3125SOL    HW1 9400   2.273   4.991   3.503
 3125SOL    HW2 9401   2.260   4.972   3.665
 3126SOL     OW 9402   2.973   5.500   2.099
 3126SOL    HW1 9403   2.913   5.438   2.149
 3126SOL    HW2 9404   3.004   5.456   2.014
 3127SOL     OW 9405   2.064   4.009   3.360
 3127SOL    HW1 9406   1.984   4.069   3.347
 3127SOL    HW2 9407   2.054   3.960   3.446
 3128SOL     OW 9408   3.494   5.101   1.943
 3128SOL    HW1 9409   3.462   5.195   1.933
 3128SOL    HW2 9410   3.418   5.038   1.931
 3129SOL     OW 9411   3.262   3.831   2.288
 3129SOL    HW1 9412   3.238   3.794   2.198
 3129SOL    HW2 9413   3.361   3.847   2.292
 3130SOL     OW 9414   2.244   4.424   2.342
 3130SOL    HW1 9415   2.289   4.334   2.339
 3130SOL    HW2 9416   2.150   4.413   2.375
 3131SOL     OW 9417   3.409   3.946   3.591
 3131SOL    HW1 9418   3.404   3.983   3.683
 3131SOL    HW2 9419   3.337   3.877   3.579
 3132SOL     OW 9420   2.476   3.846   1.979
 3132SOL    HW1 9421   2.574   3.824   1.986
 3132SOL    HW2 9422   2.445   3.829   1.886
 3133SOL     OW 9423   2.643   3.988   3.611
 3133SOL    HW1 9424   2.710   3.927   3.654
 3133SOL    HW2 9425   2.570   4.007   3.676
 3134SOL     OW 9426   3.213   4.314   3.295
 3134SOL    HW1 9427   3.241   4.271   3.380
 3134SOL    HW2 9428   3.238   4.410   3.296
 3135SOL     OW 9429   2.665   5.126   2.786
 3135SOL    HW1 9430   2.755   5.140   2.744
 3135SOL    HW2 9431   2.594   5.128   2.715
 3136SOL     OW 9432   2.784   4.227   2.761
 3136SOL    HW1 9433   2.759   4.218   2.665
 3136SOL    HW2 9434   2.832   4.145   2.792
 3137SOL     OW 9435   2.401   3.788   2.374
 3137SOL    HW1 9436   2.320   3.789   2.432
 3137SOL    HW2 9437   2.404   3.871   2.319
 3138SOL     OW 9438   3.296   4.912   1.903
 3138SOL    HW1 9439   3.328   4.836   1.960
 3138SOL    HW2 9440   3.204   4.939   1.933
 3139SOL     OW 9441   2.159   3.759   2.033
 3139SOL    HW1 9442   2.208   3.843   2.012
 3139SOL    HW2 9443   2.221   3.694   2.078
 3140SOL     OW 9444   2.797   3.960   2.342
 3140SOL    HW1 9445   2.749   4.001   2.264
 3140SOL    HW2 9446   2.896   3.958   2.323
 3141SOL     OW 9447   2.938   4.407   3.326
 3141SOL    HW1 9448   2.858   4.346   3.329
 3141SOL    HW2 9449   3.019   4.354   3.302
 3142SOL     OW 9450   3.089   5.294   2.655
 3142SOL    HW1 9451   3.110   5.368   2.590
 3142SOL    HW2 9452   3.157   5.294   2.728
 3143SOL     OW 9453   2.321   4.876   2.603
 3143SOL    HW1 9454   2.250   4.849   2.668
 3143SOL    HW2 9455   2.295   4.848   2.510
 3144SOL     OW 9456   2.894   4.273   1.878
 3144SOL    HW1 9457   2.853   4.355   1.839
 3144SOL    HW2 9458   2.958   4.299   1.951
 3145SOL     OW 9459   1.940   4.280   3.248
 3145SOL    HW1 9460   2.032   4.279   3.207
 3145SOL    HW2 9461   1.934   4.354   3.315
 3146SOL     OW 9462   2.423   3.946   3.009
 3146SOL    HW1 9463   2.461   3.862   3.046
 3146SOL    HW2 9464   2.335   3.965   3.053
 3147SOL     OW 9465   2.728   4.178   2.504
 3147SOL    HW1 9466   2.696   4.250   2.442
 3147SOL    HW2 9467   2.752   4.097   2.451
 3148SOL     OW 9468   2.879   3.763   2.615
 3148SOL    HW1 9469   2.807   3.768   2.546
 3148SOL    HW2 9470   2.855   3.694   2.684
 3149SOL     OW 9471   3.291   4.897   2.729
 3149SOL    HW1 9472   3.236   4.813   2.722
 3149SOL    HW2 9473   3.317   4.926   2.637
 3150SOL     OW 9474   3.328   4.314   2.854
 3150SOL    HW1 9475   3.298   4.219   2.861
 3150SOL    HW2 9476   3.401   4.330   2.920
 3151SOL     OW 9477   3.719   4.557   2.239
 3151SOL    HW1 9478   3.761   4.493   2.303
 3151SOL    HW2 9479   3.681   4.506   2.161
 3152SOL     OW 9480   2.350   5.109   2.036
 3152SOL    HW1 9481   2.263   5.094   2.083
 3152SOL    HW2 9482   2.333   5.135   1.941
 3153SOL     OW 9483   3.526   5.004   2.519
 3153SOL    HW1 9484   3.625   5.012   2.533
 3153SOL    HW2 9485   3.481   5.088   2.550
 3154SOL     OW 9486   3.252   4.299   1.940
 3154SOL    HW1 9487   3.198   4.278   2.021
 3154SOL    HW2 9488   3.343   4.258   1.949
 3155SOL     OW 9489   2.389   3.980   2.190
 3155SOL    HW1 9490   2.416   3.921   2.115
 3155SOL    HW2 9491   2.389   4.075   2.159
 3156SOL     OW 9492   3.616   4.947   3.450
 3156SOL    HW1 9493   3.707   4.908   3.437
 3156SOL    HW2 9494   3.624   5.043   3.474
 3157SOL     OW 9495   2.926   5.071   3.202
 3157SOL    HW1 9496   2.846   5.048   3.257
 3157SOL    HW2 9497   3.009   5.045   3.251
 3158SOL     OW 9498   2.973   4.919   2.962
 3158SOL    HW1 9499   2.933   4.963   3.043
 3158SOL    HW2 9500   2.932   4.956   2.879
 3159SOL     OW 9501   3.500   4.823   2.941
 3159SOL    HW1 9502   3.505   4.904   3.000
 3159SOL    HW2 9503   3.414   4.825   2.890
 3160SOL     OW 9504   2.777   3.813   3.264
 3160SOL    HW1 9505   2.802   3.793   3.169
 3160SOL    HW2 9506   2.849   3.869   3.306
 3161SOL     OW 9507   2.842   4.840   3.581
 3161SOL    HW1 9508   2.743   4.846   3.591
 3161SOL    HW2 9509   2.865   4.760   3.525
 3162SOL     OW 9510   2.567   4.774   2.230
 3162SOL    HW1 9511   2.553   4.781   2.329
 3162SOL    HW2 9512   2.651   4.723   2.212
 3163SOL     OW 9513   2.272   4.537   3.113
 3163SOL    HW1 9514   2.358   4.549   3.163
 3163SOL    HW2 9515   2.230   4.450   3.140
 3164SOL     OW 9516   3.136   4.110   3.124
 3164SOL    HW1 9517   3.157   4.184   3.188
 3164SOL    HW2 9518   3.047   4.127   3.081
 3165SOL     OW 9519   2.229   4.824   2.363
 3165SOL    HW1 9520   2.222   4.907   2.307
 3165SOL    HW2 9521   2.233   4.744   2.303
 3166SOL     OW 9522   2.428   4.261   2.727
 3166SOL    HW1 9523   2.440   4.327   2.653
 3166SOL    HW2 9524   2.474   4.295   2.810
 3167SOL     OW 9525   3.114   5.072   2.250
 3167SOL    HW1 9526   3.164   5.149   2.290
 3167SOL    HW2 9527   3.019   5.074   2.282
 3168SOL     OW 9528   3.134   5.169   3.004
 3168SOL    HW1 9529   3.181   5.182   3.091
 3168SOL    HW2 9530   3.068   5.095   3.013
 3169SOL     OW 9531   3.444   4.363   2.334
 3169SOL    HW1 9532   3.413   4.424   2.407
 3169SOL    HW2 9533   3.494   4.415   2.265
 3170SOL     OW 9534   2.216   5.234   3.191
 3170SOL    HW1 9535   2.195   5.190   3.104
 3170SOL    HW2 9536   2.313   5.260   3.194
 3171SOL     OW 9537   2.264   4.475   3.460
 3171SOL    HW1 9538   2.332   4.530   3.413
 3171SOL    HW2 9539   2.304   4.387   3.487
 3172SOL     OW 9540   3.449   4.503   3.532
 3172SOL    HW1 9541   3.357   4.541   3.527
 3172SOL    HW2 9542   3.509   4.550   3.467
 3173SOL     OW 9543   2.875   3.829   3.632
 3173SOL    HW1 9544   2.881   3.914   3.580
 3173SOL    HW2 9545   2.907   3.753   3.575
 3174SOL     OW 9546   2.366   3.774   3.602
 3174SOL    HW1 9547   2.324   3.717   3.532
 3174SOL    HW2 9548   2.300   3.843   3.634
 3175SOL     OW 9549   2.435   4.594   2.891
 3175SOL    HW1 9550   2.479   4.683   2.882
 3175SOL    HW2 9551   2.372   4.594   2.968
 3176SOL     OW 9552   3.222   4.586   2.907
 3176SOL    HW1 9553   3.147   4.586   2.841
 3176SOL    HW2 9554   3.259   4.494   2.916
 3177SOL     OW 9555   3.071   4.249   2.137
 3177SOL    HW1 9556   3.084   4.165   2.191
 3177SOL    HW2 9557   3.042   4.323   2.197
 3178SOL     OW 9558   2.169   3.937   3.093
 3178SOL    HW1 9559   2.146   3.974   3.183
 3178SOL    HW2 9560   2.139   3.842   3.087
 3179SOL     OW 9561   1.899   5.034   3.144
 3179SOL    HW1 9562   1.952   4.985   3.212
 3179SOL    HW2 9563   1.921   5.132   3.149
 3180SOL     OW 9564   2.594   4.358   2.926
 3180SOL    HW1 9565   2.653   4.332   2.850
 3180SOL    HW2 9566   2.566   4.454   2.915
 3181SOL     OW 9567   3.590   4.659   3.716
 3181SOL    HW1 9568   3.544   4.652   3.627
 3181SOL    HW2 9569   3.528   4.703   3.782
 3182SOL     OW 9570   2.169   3.787   2.480
 3182SOL    HW1 9571   2.158   3.881   2.513
 3182SOL    HW2 9572   2.164   3.724   2.557
 3183SOL     OW 9573   3.484   4.091   2.236
 3183SOL    HW1 9574   3.486   4.015   2.300
 3183SOL    HW2 9575   3.436   4.168   2.276
 3184SOL     OW 9576   2.885   4.490   2.828
 3184SOL    HW1 9577   2.900   4.511   2.924
 3184SOL    HW2 9578   2.855   4.395   2.819
 3185SOL     OW 9579   3.721   5.242   3.467
 3185SOL    HW1 9580   3.735   5.269   3.372
 3185SOL    HW2 9581   3.804   5.264   3.520
 3186SOL     OW 9582   2.212   4.622   3.666
 3186SOL    HW1 9583   2.288   4.666   3.714
 3186SOL    HW2 9584   2.247   4.575   3.584
 3187SOL     OW 9585   3.402   3.998   1.987
 3187SOL    HW1 9586   3.341   3.923   2.010
 3187SOL    HW2 9587   3.424   4.050   2.070
 3188SOL     OW 9588   3.165   4.562   1.904
 3188SOL    HW1 9589   3.199   4.469   1.919
 3188SOL    HW2 9590   3.183   4.589   1.809
 3189SOL     OW 9591   2.930   5.057   2.711
 3189SOL    HW1 9592   2.937   4.973   2.656
 3189SOL    HW2 9593   2.992   5.126   2.675
 3190SOL     OW 9594   2.181   4.534   2.811
 3190SOL    HW1 9595   2.274   4.570   2.816
 3190SOL    HW2 9596   2.175   4.449   2.863
 3191SOL     OW 9597   2.201   4.233   2.868
 3191SOL    HW1 9598   2.149   4.150   2.851
 3191SOL    HW2 9599   2.278   4.238   2.804
 3192SOL     OW 9600   3.000   4.104   3.540
 3192SOL    HW1 9601   2.955   4.167   3.604
 3192SOL    HW2 9602   3.093   4.135   3.523
 3193SOL     OW 9603   3.022   3.931   3.339
 3193SOL    HW1 9604   3.022   3.995   3.416
 3193SOL    HW2 9605   3.050   3.979   3.256
 3194SOL     OW 9606   1.870   5.050   2.062
 3194SOL    HW1 9607   1.777   5.071   2.031
 3194SOL    HW2 9608   1.880   4.951   2.075
 3195SOL     OW 9609   2.864   4.520   3.100
 3195SOL    HW1 9610   2.905   4.488   3.186
 3195SOL    HW2 9611   2.768   4.493   3.097
 3196SOL     OW 9612   1.902   4.268   2.976
 3196SOL    HW1 9613   1.987   4.235   2.935
 3196SOL    HW2 9614   1.915   4.283   3.074
 3197SOL     OW 9615   2.051   4.244   3.584
 3197SOL    HW1 9616   2.110   4.204   3.514
 3197SOL    HW2 9617   1.993   4.315   3.543
 3198SOL     OW 9618   3.231   4.674   3.522
 3198SOL    HW1 9619   3.270   4.763   3.542
 3198SOL    HW2 9620   3.241   4.654   3.425
 3199SOL     OW 9621   2.677   4.296   2.187
 3199SOL    HW1 9622   2.684   4.207   2.141
 3199SOL    HW2 9623   2.583   4.330   2.179
 3200SOL     OW 9624   3.519   4.328   3.068
 3200SOL    HW1 9625   3.481   4.259   3.130
 3200SOL    HW2 9626   3.601   4.292   3.024
 3201SOL     OW 9627   2.114   5.288   3.606
 3201SOL    HW1 9628   2.084   5.345   3.682
 3201SOL    HW2 9629   2.107   5.191   3.632
 3202SOL     OW 9630   2.533   4.188   3.131
 3202SOL    HW1 9631   2.499   4.099   3.101
 3202SOL    HW2 9632   2.559   4.242   3.051
 3203SOL     OW 9633   2.335   4.224   2.053
 3203SOL    HW1 9634   2.396   4.304   2.057
 3203SOL    HW2 9635   2.240   4.255   2.060
 3204SOL     OW 9636   2.021   4.861   3.328
 3204SOL    HW1 9637   2.043   4.800   3.404
 3204SOL    HW2 9638   2.031   4.812   3.242
 3205SOL     OW 9639   3.209   4.783   3.096
 3205SOL    HW1 9640   3.233   4.720   3.022
 3205SOL    HW2 9641   3.119   4.823   3.078
 3206SOL     OW 9642   3.164   4.579   2.171
 3206SOL    HW1 9643   3.078   4.548   2.213
 3206SOL    HW2 9644   3.160   4.565   2.072
 3207SOL     OW 9645   1.945   4.982   2.884
 3207SOL    HW1 9646   1.940   4.981   2.984
 3207SOL    HW2 9647   1.862   4.941   2.846
 3208SOL     OW 9648   3.588   3.859   2.385
 3208SOL    HW1 9649   3.661   3.842   2.318
 3208SOL    HW2 9650   3.557   3.772   2.423
 3209SOL     OW 9651   3.142   4.651   2.534
 3209SOL    HW1 9652   3.202   4.570   2.536
 3209SOL    HW2 9653   3.182   4.720   2.474
 3210SOL     OW 9654   2.692   4.997   3.284
 3210SOL    HW1 9655   2.687   5.030   3.379
 3210SOL    HW2 9656   2.606   5.016   3.238
 3211SOL     OW 9657   3.703   3.899   2.825
 3211SOL    HW1 9658   3.742   3.814   2.789
 3211SOL    HW2 9659   3.605   3.901   2.806
 3212SOL     OW 9660   2.125   4.050   2.582
 3212SOL    HW1 9661   2.046   4.101   2.548
 3212SOL    HW2 9662   2.116   4.035   2.680
 3213SOL     OW 9663   2.684   4.726   3.234
 3213SOL    HW1 9664   2.724   4.725   3.142
 3213SOL    HW2 9665   2.694   4.818   3.274
 3214SOL     OW 9666   2.778   4.634   2.153
 3214SOL    HW1 9667   2.841   4.672   2.085
 3214SOL    HW2 9668   2.818   4.551   2.192
 3215SOL     OW 9669   2.234   5.012   3.352
 3215SOL    HW1 9670   2.221   5.105   3.318
 3215SOL    HW2 9671   2.150   4.960   3.339
 3216SOL     OW 9672   3.476   5.016   3.151
 3216SOL    HW1 9673   3.536   5.019   3.231
 3216SOL    HW2 9674   3.401   5.080   3.164
 3217SOL     OW 9675   2.901   4.822   2.558
 3217SOL    HW1 9676   2.831   4.775   2.612
 3217SOL    HW2 9677   2.960   4.754   2.515
 3218SOL     OW 9678   2.876   3.960   2.833
 3218SOL    HW1 9679   2.868   3.924   2.740
 3218SOL    HW2 9680   2.874   3.884   2.898
 3219SOL     OW 9681   3.571   4.109   3.243
 3219SOL    HW1 9682   3.644   4.178   3.247
 3219SOL    HW2 9683   3.599   4.034   3.184
 3220SOL     OW 9684   2.117   5.072   2.152
 3220SOL    HW1 9685   2.021   5.073   2.125
 3220SOL    HW2 9686   2.129   5.125   2.236
 3221SOL     OW 9687   1.967   4.737   3.588
 3221SOL    HW1 9688   1.890   4.704   3.642
 3221SOL    HW2 9689   2.052   4.707   3.630
 3222SOL     OW 9690   2.534   3.927   3.351
 3222SOL    HW1 9691   2.624   3.911   3.311
 3222SOL    HW2 9692   2.542   3.932   3.450
 3223SOL     OW 9693   1.937   4.069   1.895
 3223SOL    HW1 9694   1.845   4.041   1.866
 3223SOL    HW2 9695   1.968   4.146   1.839
 3224SOL     OW 9696   3.302   4.580   3.260
 3224SOL    HW1 9697   3.245   4.632   3.197
 3224SOL    HW2 9698   3.398   4.592   3.236
 3225SOL     OW 9699   1.934   3.890   2.180
 3225SOL    HW1 9700   1.917   3.973   2.126
 3225SOL    HW2 9701   2.024   3.853   2.158
 3226SOL     OW 9702   3.045   5.059   1.981
 3226SOL    HW1 9703   2.946   5.048   1.983
 3226SOL    HW2 9704   3.079   5.074   2.074
 3227SOL     OW 9705   2.475   4.566   3.293
 3227SOL    HW1 9706   2.531   4.647   3.276
 3227SOL    HW2 9707   2.534   4.486   3.296
 3228SOL     OW 9708   2.578   4.289   3.570
 3228SOL    HW1 9709   2.597   4.354   3.644
 3228SOL    HW2 9710   2.638   4.209   3.579
 3229SOL     OW 9711   3.312   4.944   3.495
 3229SOL    HW1 9712   3.303   4.934   3.594
 3229SOL    HW2 9713   3.408   4.937   3.469
 3230SOL     OW 9714   3.536   4.607   3.116
 3230SOL    HW1 9715   3.509   4.518   3.079
 3230SOL    HW2 9716   3.537   4.675   3.043
 3231SOL     OW 9717   3.087   4.049   2.311
 3231SOL    HW1 9718   3.152   3.975   2.300
 3231SOL    HW2 9719   3.107   4.099   2.395
 3232SOL     OW 9720   2.456   4.469   2.514
 3232SOL    HW1 9721   2.506   4.554   2.495
 3232SOL    HW2 9722   2.368   4.471   2.466
 3233SOL     OW 9723   3.639   4.066   3.504
 3233SOL    HW1 9724   3.622   4.097   3.410
 3233SOL    HW2 9725   3.555   4.029   3.542
 3234SOL     OW 9726   3.592   4.658   3.379
 3234SOL    HW1 9727   3.630   4.749   3.394
 3234SOL    HW2 9728   3.584   4.641   3.280
 3235SOL     OW 9729   2.721   5.098   1.878
 3235SOL    HW1 9730   2.675   5.113   1.966
 3235SOL    HW2 9731   2.765   5.183   1.848
 3236SOL     OW 9732   2.721   4.680   2.723
 3236SOL    HW1 9733   2.775   4.611   2.771
 3236SOL    HW2 9734   2.689   4.749   2.789
 3237SOL     OW 9735   2.945   4.708   1.949
 3237SOL    HW1 9736   2.922   4.761   1.867
 3237SOL    HW2 9737   3.026   4.652   1.930
 3238SOL     OW 9738   2.083   5.038   3.706
 3238SOL    HW1 9739   2.018   4.965   3.685
 3238SOL    HW2 9740   2.087   5.052   3.804
 3239SOL     OW 9741   1.941   4.964   2.515
 3239SOL    HW1 9742   1.940   4.917   2.603
 3239SOL    HW2 9743   2.023   4.936   2.464
 3240SOL     OW 9744   2.534   5.115   3.486
 3240SOL    HW1 9745   2.456   5.065   3.524
 3240SOL    HW2 9746   2.531   5.210   3.517
 3241SOL     OW 9747   3.686   3.916   3.089
 3241SOL    HW1 9748   3.682   3.826   3.133
 3241SOL    HW2 9749   3.689   3.905   2.990
 3242SOL     OW 9750   2.290   4.148   2.382
 3242SOL    HW1 9751   2.320   4.076   2.320
 3242SOL    HW2 9752   2.251   4.108   2.465
 3243SOL     OW 9753   3.567   5.211   2.966
 3243SOL    HW1 9754   3.474   5.186   2.939
 3243SOL    HW2 9755   3.593   5.161   3.048
 3244SOL     OW 9756   2.179   4.271   3.142
 3244SOL    HW1 9757   2.217   4.212   3.214
 3244SOL    HW2 9758   2.219   4.245   3.054
 3245SOL     OW 9759   3.286   3.938   2.974
 3245SOL    HW1 9760   3.338   3.873   3.029
 3245SOL    HW2 9761   3.237   4.001   3.035
 3246SOL     OW 9762   2.863   3.758   3.016
 3246SOL    HW1 9763   2.800   3.686   2.985
 3246SOL    HW2 9764   2.956   3.722   3.016
 3247SOL     OW 9765   2.632   5.054   2.163
 3247SOL    HW1 9766   2.586   4.967   2.180
 3247SOL    HW2 9767   2.723   5.051   2.204
 3248SOL     OW 9768   2.480   5.291   3.146
 3248SOL    HW1 9769   2.475   5.373   3.203
 3248SOL    HW2 9770   2.569   5.288   3.101
 3249SOL     OW 9771   3.214   3.776   2.030
 3249SOL    HW1 9772   3.249   3.735   1.946
 3249SOL    HW2 9773   3.124   3.738   2.050
 3250SOL     OW 9774   3.162   4.177   2.553
 3250SOL    HW1 9775   3.103   4.257   2.557
 3250SOL    HW2 9776   3.177   4.142   2.646
 3251SOL     OW 9777   3.455   3.945   2.744
 3251SOL    HW1 9778   3.371   3.944   2.798
 3251SOL    HW2 9779   3.457   4.028   2.688
 3252SOL     OW 9780   1.901   4.801   2.162
 3252SOL    HW1 9781   2.000   4.790   2.153
 3252SOL    HW2 9782   1.861   4.715   2.194
 3253SOL     OW 9783   2.092   4.352   3.837
 3253SOL    HW1 9784   1.999   4.350   3.874
 3253SOL    HW2 9785   2.093   4.313   3.745
 3254SOL     OW 9786   2.087   3.999   4.720
 3254SOL    HW1 9787   2.122   3.982   4.812
 3254SOL    HW2 9788   1.999   3.954   4.708
 3255SOL     OW 9789   1.881   4.092   4.371
 3255SOL    HW1 9790   1.799   4.135   4.410
 3255SOL    HW2 9791   1.853   4.019   4.308
 3256SOL     OW 9792   2.431   4.999   4.889
 3256SOL    HW1 9793   2.338   4.992   4.852
 3256SOL    HW2 9794   2.442   5.088   4.933
 3257SOL     OW 9795   3.417   5.235   4.427
 3257SOL    HW1 9796   3.360   5.219   4.508
 3257SOL    HW2 9797   3.358   5.245   4.347
 3258SOL     OW 9798   2.997   4.427   4.441
 3258SOL    HW1 9799   3.054   4.505   4.416
 3258SOL    HW2 9800   2.937   4.453   4.517
 3259SOL     OW 9801   3.617   4.331   3.955
 3259SOL    HW1 9802   3.605   4.318   3.856
 3259SOL    HW2 9803   3.587   4.250   4.004
 3260SOL     OW 9804   2.630   4.868   4.747
 3260SOL    HW1 9805   2.552   4.885   4.807
 3260SOL    HW2 9806   2.664   4.955   4.711
 3261SOL     OW 9807   2.547   4.736   4.389
 3261SOL    HW1 9808   2.616   4.720   4.459
 3261SOL    HW2 9809   2.474   4.793   4.427
 3262SOL     OW 9810   2.197   5.159   4.785
 3262SOL    HW1 9811   2.119   5.128   4.732
 3262SOL    HW2 9812   2.255   5.217   4.728
 3263SOL     OW 9813   3.322   5.229   5.063
 3263SOL    HW1 9814   3.346   5.323   5.089
 3263SOL    HW2 9815   3.306   5.175   5.145
 3264SOL     OW 9816   2.300   4.116   5.223
 3264SOL    HW1 9817   2.382   4.060   5.232
 3264SOL    HW2 9818   2.219   4.058   5.227
 3265SOL     OW 9819   3.465   4.171   4.461
 3265SOL    HW1 9820   3.391   4.217   4.411
 3265SOL    HW2 9821   3.516   4.239   4.514
 3266SOL     OW 9822   2.092   5.158   4.262
 3266SOL    HW1 9823   2.066   5.254   4.262
 3266SOL    HW2 9824   2.021   5.104   4.307
 3267SOL     OW 9825   2.102   4.815   4.610
 3267SOL    HW1 9826   2.116   4.731   4.662
 3267SOL    HW2 9827   2.047   4.879   4.665
 3268SOL     OW 9828   2.482   5.510   5.163
 3268SOL    HW1 9829   2.390   5.493   5.198
 3268SOL    HW2 9830   2.510   5.602   5.189
 3269SOL     OW 9831   2.468   4.688   3.847
 3269SOL    HW1 9832   2.475   4.772   3.793
 3269SOL    HW2 9833   2.514   4.701   3.935
 3270SOL     OW 9834   3.456   3.838   5.204
 3270SOL    HW1 9835   3.438   3.905   5.132
 3270SOL    HW2 9836   3.453   3.884   5.293
 3271SOL     OW 9837   1.984   4.367   4.287
 3271SOL    HW1 9838   1.939   4.279   4.304
 3271SOL    HW2 9839   1.983   4.421   4.371
 3272SOL     OW 9840   1.889   5.320   3.841
 3272SOL    HW1 9841   1.870   5.224   3.862
 3272SOL    HW2 9842   1.856   5.378   3.916
 3273SOL     OW 9843   3.551   4.646   4.336
 3273SOL    HW1 9844   3.646   4.617   4.344
 3273SOL    HW2 9845   3.543   4.711   4.261
 3274SOL     OW 9846   3.503   4.832   4.156
 3274SOL    HW1 9847   3.589   4.834   4.104
 3274SOL    HW2 9848   3.517   4.879   4.244
 3275SOL     OW 9849   2.475   5.089   4.450
 3275SOL    HW1 9850   2.426   5.002   4.459
 3275SOL    HW2 9851   2.452   5.132   4.363
 3276SOL     OW 9852   2.671   3.728   4.226
 3276SOL    HW1 9853   2.711   3.819   4.217
 3276SOL    HW2 9854   2.571   3.736   4.232
 3277SOL     OW 9855   2.059   4.700   4.988
 3277SOL    HW1 9856   2.148   4.655   4.974
 3277SOL    HW2 9857   1.986   4.635   4.969
 3278SOL     OW 9858   3.387   4.723   3.914
 3278SOL    HW1 9859   3.324   4.647   3.927
 3278SOL    HW2 9860   3.435   4.741   4.000
 3279SOL     OW 9861   2.179   3.975   5.525
 3279SOL    HW1 9862   2.250   4.046   5.531
 3279SOL    HW2 9863   2.091   4.014   5.553
 3280SOL     OW 9864   3.328   5.141   4.677
 3280SOL    HW1 9865   3.269   5.147   4.757
 3280SOL    HW2 9866   3.313   5.053   4.631
 3281SOL     OW 9867   2.460   4.453   3.994
 3281SOL    HW1 9868   2.484   4.522   3.926
 3281SOL    HW2 9869   2.382   4.486   4.048
 3282SOL     OW 9870   3.143   4.069   4.668
 3282SOL    HW1 9871   3.057   4.019   4.655
 3282SOL    HW2 9872   3.205   4.015   4.724
 3283SOL     OW 9873   2.669   4.329   5.189
 3283SOL    HW1 9874   2.622   4.326   5.278
 3283SOL    HW2 9875   2.618   4.274   5.123
 3284SOL     OW 9876   2.853   4.134   4.966
 3284SOL    HW1 9877   2.776   4.168   5.020
 3284SOL    HW2 9878   2.819   4.083   4.887
 3285SOL     OW 9879   2.903   4.425   4.153
 3285SOL    HW1 9880   2.929   4.421   4.249
 3285SOL    HW2 9881   2.818   4.374   4.139
 3286SOL     OW 9882   1.938   4.535   4.513
 3286SOL    HW1 9883   2.037   4.523   4.522
 3286SOL    HW2 9884   1.914   4.630   4.534
 3287SOL     OW 9885   2.727   4.072   3.919
 3287SOL    HW1 9886   2.786   4.135   3.870
 3287SOL    HW2 9887   2.746   3.978   3.890
 3288SOL     OW 9888   3.224   4.868   4.269
 3288SOL    HW1 9889   3.307   4.839   4.221
 3288SOL    HW2 9890   3.175   4.935   4.213
 3289SOL     OW 9891   2.412   3.920   4.609
 3289SOL    HW1 9892   2.407   3.915   4.709
 3289SOL    HW2 9893   2.414   4.016   4.580
 3290SOL     OW 9894   2.870   5.180   4.201
 3290SOL    HW1 9895   2.824   5.252   4.149
 3290SOL    HW2 9896   2.866   5.200   4.299
 3291SOL     OW 9897   3.657   4.790   4.597
 3291SOL    HW1 9898   3.595   4.775   4.521
 3291SOL    HW2 9899   3.605   4.801   4.682
 3292SOL     OW 9900   2.183   4.667   3.966
 3292SOL    HW1 9901   2.265   4.706   3.924
 3292SOL    HW2 9902   2.156   4.585   3.917
 3293SOL     OW 9903   3.320   4.459   4.452
 3293SOL    HW1 9904   3.315   4.394   4.527
 3293SOL    HW2 9905   3.400   4.518   4.465
 3294SOL     OW 9906   2.973   5.500   3.961
 3294SOL    HW1 9907   2.913   5.438   4.011
 3294SOL    HW2 9908   3.004   5.456   3.876
 3295SOL     OW 9909   2.064   4.009   5.222
 3295SOL    HW1 9910   1.984   4.069   5.209
 3295SOL    HW2 9911   2.054   3.960   5.308
 3296SOL     OW 9912   3.494   5.101   3.805
 3296SOL    HW1 9913   3.462   5.195   3.795
 3296SOL    HW2 9914   3.418   5.038   3.793
 3297SOL     OW 9915   3.262   3.831   4.150
 3297SOL    HW1 9916   3.238   3.794   4.060
 3297SOL    HW2 9917   3.361   3.847   4.154
 3298SOL     OW 9918   2.244   4.424   4.204
 3298SOL    HW1 9919   2.289   4.334   4.201
 3298SOL    HW2 9920   2.150   4.413   4.237
 3299SOL     OW 9921   2.476   3.846   3.841
 3299SOL    HW1 9922   2.574   3.824   3.848
 3299SOL    HW2 9923   2.445   3.829   3.748
 3300SOL     OW 9924   2.665   5.126   4.648
 3300SOL    HW1 9925   2.755   5.140   4.606
 3300SOL    HW2 9926   2.594   5.128   4.577
 3301SOL     OW 9927   2.784   4.227   4.623
 3301SOL    HW1 9928   2.759   4.218   4.527
 3301SOL    HW2 9929   2.832   4.145   4.654
 3302SOL     OW 9930   2.401   3.788   4.236
 3302SOL    HW1 9931   2.320   3.789   4.294
 3302SOL    HW2 9932   2.404   3.871   4.181
 3303SOL     OW 9933   3.296   4.912   3.765
 3303SOL    HW1 9934   3.328   4.836   3.822
 3303SOL    HW2 9935   3.204   4.939   3.795
 3304SOL     OW 9936   2.159   3.759   3.895
 3304SOL    HW1 9937   2.208   3.843   3.874
 3304SOL    HW2 9938   2.221   3.694   3.940
 3305SOL     OW 9939   2.797   3.960   4.204
 3305SOL    HW1 9940   2.749   4.001   4.126
 3305SOL    HW2 9941   2.896   3.958   4.185
 3306SOL     OW 9942   3.089   5.294   4.517
 3306SOL    HW1 9943   3.110   5.368   4.452
 3306SOL    HW2 9944   3.157   5.294   4.590
 3307SOL     OW 9945   2.321   4.876   4.465
 3307SOL    HW1 9946   2.250   4.849   4.530
 3307SOL    HW2 9947   2.295   4.848   4.372
 3308SOL     OW 9948   2.894   4.273   3.740
 3308SOL    HW1 9949   2.853   4.355   3.701
 3308SOL    HW2 9950   2.958   4.299   3.813
 3309SOL     OW 9951   1.940   4.280   5.110
 3309SOL    HW1 9952   2.032   4.279   5.069
 3309SOL    HW2 9953   1.934   4.354   5.177
 3310SOL     OW 9954   2.423   3.946   4.871
 3310SOL    HW1 9955   2.461   3.862   4.908
 3310SOL    HW2 9956   2.335   3.965   4.915
 3311SOL     OW 9957   2.728   4.178   4.366
 3311SOL    HW1 9958   2.696   4.250   4.304
 3311SOL    HW2 9959   2.752   4.097   4.313
 3312SOL     OW 9960   2.879   3.763   4.477
 3312SOL    HW1 9961   2.807   3.768   4.408
 3312SOL    HW2 9962   2.855   3.694   4.546
 3313SOL     OW 9963   3.291   4.897   4.591
 3313SOL    HW1 9964   3.236   4.813   4.584
 3313SOL    HW2 9965   3.317   4.926   4.499
 3314SOL     OW 9966   3.328   4.314   4.716
 3314SOL    HW1 9967   3.298   4.219   4.723
 3314SOL    HW2 9968   3.401   4.330   4.782
 3315SOL     OW 9969   3.719   4.557   4.101
 3315SOL    HW1 9970   3.761   4.493   4.165
 3315SOL    HW2 9971   3.681   4.506   4.023
 3316SOL     OW 9972   2.350   5.109   3.898
 3316SOL    HW1 9973   2.263   5.094   3.945
 3316SOL    HW2 9974   2.333   5.135   3.803
 3317SOL     OW 9975   3.526   5.004   4.381
 3317SOL    HW1 9976   3.625   5.012   4.395
 3317SOL    HW2 9977   3.481   5.088   4.412
 3318SOL     OW 9978   3.252   4.299   3.802
 3318SOL    HW1 9979   3.198   4.278   3.883
 3318SOL    HW2 9980   3.343   4.258   3.811
 3319SOL     OW 9981   2.389   3.980   4.052
 3319SOL    HW1 9982   2.416   3.921   3.977
 3319SOL    HW2 9983   2.389   4.075   4.021
 3320SOL     OW 9984   2.926   5.071   5.064
 3320SOL    HW1 9985   2.846   5.048   5.119
 3320SOL    HW2 9986   3.009   5.045   5.113
 3321SOL     OW 9987   2.973   4.919   4.824
 3321SOL    HW1 9988   2.933   4.963   4.905
 3321SOL    HW2 9989   2.932   4.956   4.741
 3322SOL     OW 9990   3.500   4.823   4.803
 3322SOL    HW1 9991   3.505   4.904   4.862
 3322SOL    HW2 9992   3.414   4.825   4.752
 3323SOL     OW 9993   2.777   3.813   5.126
 3323SOL    HW1 9994   2.802   3.793   5.031
 3323SOL    HW2 9995   2.849   3.869   5.168
 3324SOL     OW 9996   2.567   4.774   4.092
 3324SOL    HW1 9997   2.553   4.781   4.191
 3324SOL    HW2 9998   2.651   4.723   4.074
 3325SOL     OW 9999   2.272   4.537   4.975
 3325SOL    HW110000   2.358   4.549   5.025
 3325SOL    HW210001   2.230   4.450   5.002
 3326SOL     OW10002   3.136   4.110   4.986
 3326SOL    HW110003   3.157   4.184   5.050
 3326SOL    HW210004   3.047   4.127   4.943
 3327SOL     OW10005   2.229   4.824   4.225
 3327SOL    HW110006   2.222   4.907   4.169
 3327SOL    HW210007   2.233   4.744   4.165
 3328SOL     OW10008   2.428   4.261   4.589
 3328SOL    HW110009   2.440   4.327   4.515
 3328SOL    HW210010   2.474   4.295   4.672
 3329SOL     OW10011   3.114   5.072   4.112
 3329SOL    HW110012   3.164   5.149   4.152
 3329SOL    HW210013   3.019   5.074   4.144
 3330SOL     OW10014   3.134   5.169   4.866
 3330SOL    HW110015   3.181   5.182   4.953
 3330SOL    HW210016   3.068   5.095   4.875
 3331SOL     OW10017   3.444   4.363   4.196
 3331SOL    HW110018   3.413   4.424   4.269
 3331SOL    HW210019   3.494   4.415   4.127
 3332SOL     OW10020   2.216   5.234   5.053
 3332SOL    HW110021   2.195   5.190   4.966
 3332SOL    HW210022   2.313   5.260   5.056
 3333SOL     OW10023   2.264   4.475   5.322
 3333SOL    HW110024   2.332   4.530   5.275
 3333SOL    HW210025   2.304   4.387   5.349
 3334SOL     OW10026   3.449   4.503   5.394
 3334SOL    HW110027   3.357   4.541   5.389
 3334SOL    HW210028   3.509   4.550   5.329
 3335SOL     OW10029   2.435   4.594   4.753
 3335SOL    HW110030   2.479   4.683   4.744
 3335SOL    HW210031   2.372   4.594   4.830
 3336SOL     OW10032   3.222   4.586   4.769
 3336SOL    HW110033   3.147   4.586   4.703
 3336SOL    HW210034   3.259   4.494   4.778
 3337SOL     OW10035   3.071   4.249   3.999
 3337SOL    HW110036   3.084   4.165   4.053
 3337SOL    HW210037   3.042   4.323   4.059
 3338SOL     OW10038   2.169   3.937   4.955
 3338SOL    HW110039   2.146   3.974   5.045
 3338SOL    HW210040   2.139   3.842   4.949
 3339SOL     OW10041   1.899   5.034   5.006
 3339SOL    HW110042   1.952   4.985   5.074
 3339SOL    HW210043   1.921   5.132   5.011
 3340SOL     OW10044   2.594   4.358   4.788
 3340SOL    HW110045   2.653   4.332   4.712
 3340SOL    HW210046   2.566   4.454   4.777
 3341SOL     OW10047   2.169   3.787   4.342
 3341SOL    HW110048   2.158   3.881   4.375
 3341SOL    HW210049   2.164   3.724   4.419
 3342SOL     OW10050   3.484   4.091   4.098
 3342SOL    HW110051   3.486   4.015   4.162
 3342SOL    HW210052   3.436   4.168   4.138
 3343SOL     OW10053   2.885   4.490   4.690
 3343SOL    HW110054   2.900   4.511   4.786
 3343SOL    HW210055   2.855   4.395   4.681
 3344SOL     OW10056   3.402   3.998   3.849
 3344SOL    HW110057   3.341   3.923   3.872
 3344SOL    HW210058   3.424   4.050   3.932
 3345SOL     OW10059   3.165   4.562   3.766
 3345SOL    HW110060   3.199   4.469   3.781
 3345SOL    HW210061   3.183   4.589   3.671
 3346SOL     OW10062   2.930   5.057   4.573
 3346SOL    HW110063   2.937   4.973   4.518
 3346SOL    HW210064   2.992   5.126   4.537
 3347SOL     OW10065   2.181   4.534   4.673
 3347SOL    HW110066   2.274   4.570   4.678
 3347SOL    HW210067   2.175   4.449   4.725
 3348SOL     OW10068   2.201   4.233   4.730
 3348SOL    HW110069   2.149   4.150   4.713
 3348SOL    HW210070   2.278   4.238   4.666
 3349SOL     OW10071   3.000   4.104   5.402
 3349SOL    HW110072   2.955   4.167   5.466
 3349SOL    HW210073   3.093   4.135   5.385
 3350SOL     OW10074   3.022   3.931   5.201
 3350SOL    HW110075   3.022   3.995   5.278
 3350SOL    HW210076   3.050   3.979   5.118
 3351SOL     OW10077   1.870   5.050   3.924
 3351SOL    HW110078   1.777   5.071   3.893
 3351SOL    HW210079   1.880   4.951   3.937
 3352SOL     OW10080   2.864   4.520   4.962
 3352SOL    HW110081   2.905   4.488   5.048
 3352SOL    HW210082   2.768   4.493   4.959
 3353SOL     OW10083   1.902   4.268   4.838
 3353SOL    HW110084   1.987   4.235   4.797
 3353SOL    HW210085   1.915   4.283   4.936
 3354SOL     OW10086   2.677   4.296   4.049
 3354SOL    HW110087   2.684   4.207   4.003
 3354SOL    HW210088   2.583   4.330   4.041
 3355SOL     OW10089   3.519   4.328   4.930
 3355SOL    HW110090   3.481   4.259   4.992
 3355SOL    HW210091   3.601   4.292   4.886
 3356SOL     OW10092   2.533   4.188   4.993
 3356SOL    HW110093   2.499   4.099   4.963
 3356SOL    HW210094   2.559   4.242   4.913
 3357SOL     OW10095   2.335   4.224   3.915
 3357SOL    HW110096   2.396   4.304   3.919
 3357SOL    HW210097   2.240   4.255   3.922
 3358SOL     OW10098   2.021   4.861   5.190
 3358SOL    HW110099   2.043   4.800   5.266
 3358SOL    HW210100   2.031   4.812   5.104
 3359SOL     OW10101   3.209   4.783   4.958
 3359SOL    HW110102   3.233   4.720   4.884
 3359SOL    HW210103   3.119   4.823   4.940
 3360SOL     OW10104   3.164   4.579   4.033
 3360SOL    HW110105   3.078   4.548   4.075
 3360SOL    HW210106   3.160   4.565   3.934
 3361SOL     OW10107   1.945   4.982   4.746
 3361SOL    HW110108   1.940   4.981   4.846
 3361SOL    HW210109   1.862   4.941   4.708
 3362SOL     OW10110   3.588   3.859   4.247
 3362SOL    HW110111   3.661   3.842   4.180
 3362SOL    HW210112   3.557   3.772   4.285
 3363SOL     OW10113   3.142   4.651   4.396
 3363SOL    HW110114   3.202   4.570   4.398
 3363SOL    HW210115   3.182   4.720   4.336
 3364SOL     OW10116   3.703   3.899   4.687
 3364SOL    HW110117   3.742   3.814   4.651
 3364SOL    HW210118   3.605   3.901   4.668
 3365SOL     OW10119   2.125   4.050   4.444
 3365SOL    HW110120   2.046   4.101   4.410
 3365SOL    HW210121   2.116   4.035   4.542
 3366SOL     OW10122   2.684   4.726   5.096
 3366SOL    HW110123   2.724   4.725   5.004
 3366SOL    HW210124   2.694   4.818   5.136
 3367SOL     OW10125   2.778   4.634   4.015
 3367SOL    HW110126   2.841   4.672   3.947
 3367SOL    HW210127   2.818   4.551   4.054
 3368SOL     OW10128   2.234   5.012   5.214
 3368SOL    HW110129   2.221   5.105   5.180
 3368SOL    HW210130   2.150   4.960   5.201
 3369SOL     OW10131   3.476   5.016   5.013
 3369SOL    HW110132   3.536   5.019   5.093
 3369SOL    HW210133   3.401   5.080   5.026
 3370SOL     OW10134   2.901   4.822   4.420
 3370SOL    HW110135   2.831   4.775   4.474
 3370SOL    HW210136   2.960   4.754   4.377
 3371SOL     OW10137   2.876   3.960   4.695
 3371SOL    HW110138   2.868   3.924   4.602
 3371SOL    HW210139   2.874   3.884   4.760
 3372SOL     OW10140   3.571   4.109   5.105
 3372SOL    HW110141   3.644   4.178   5.109
 3372SOL    HW210142   3.599   4.034   5.046
 3373SOL     OW10143   2.117   5.072   4.014
 3373SOL    HW110144   2.021   5.073   3.987
 3373SOL    HW210145   2.129   5.125   4.098
 3374SOL     OW10146   1.937   4.069   3.757
 3374SOL    HW110147   1.845   4.041   3.728
 3374SOL    HW210148   1.968   4.146   3.701
 3375SOL     OW10149   3.302   4.580   5.122
 3375SOL    HW110150   3.245   4.632   5.059
 3375SOL    HW210151   3.398   4.592   5.098
 3376SOL     OW10152   1.934   3.890   4.042
 3376SOL    HW110153   1.917   3.973   3.988
 3376SOL    HW210154   2.024   3.853   4.020
 3377SOL     OW10155   3.045   5.059   3.843
 3377SOL    HW110156   2.946   5.048   3.845
 3377SOL    HW210157   3.079   5.074   3.936
 3378SOL     OW10158   2.475   4.566   5.155
 3378SOL    HW110159   2.531   4.647   5.138
 3378SOL    HW210160   2.534   4.486   5.158
 3379SOL     OW10161   3.536   4.607   4.978
 3379SOL    HW110162   3.509   4.518   4.941
 3379SOL    HW210163   3.537   4.675   4.905
 3380SOL     OW10164   3.087   4.049   4.173
 3380SOL    HW110165   3.152   3.975   4.162
 3380SOL    HW210166   3.107   4.099   4.257
 3381SOL     OW10167   2.456   4.469   4.376
 3381SOL    HW110168   2.506   4.554   4.357
 3381SOL    HW210169   2.368   4.471   4.328
 3382SOL     OW10170   3.639   4.066   5.366
 3382SOL    HW110171   3.622   4.097   5.272
 3382SOL    HW210172   3.555   4.029   5.404
 3383SOL     OW10173   3.592   4.658   5.241
 3383SOL    HW110174   3.630   4.749   5.256
 3383SOL    HW210175   3.584   4.641   5.142
 3384SOL     OW10176   2.721   5.098   3.740
 3384SOL    HW110177   2.675   5.113   3.828
 3384SOL    HW210178   2.765   5.183   3.710
 3385SOL     OW10179   2.721   4.680   4.585
 3385SOL    HW110180   2.775   4.611   4.633
 3385SOL    HW210181   2.689   4.749   4.651
 3386SOL     OW10182   2.945   4.708   3.811
 3386SOL    HW110183   2.922   4.761   3.729
 3386SOL    HW210184   3.026   4.652   3.792
 3387SOL     OW10185   1.941   4.964   4.377
 3387SOL    HW110186   1.940   4.917   4.465
 3387SOL    HW210187   2.023   4.936   4.326
 3388SOL     OW10188   3.686   3.916   4.951
 3388SOL    HW110189   3.682   3.826   4.995
 3388SOL    HW210190   3.689   3.905   4.852
 3389SOL     OW10191   2.290   4.148   4.244
 3389SOL    HW110192   2.320   4.076   4.182
 3389SOL    HW210193   2.251   4.108   4.327
 3390SOL     OW10194   3.567   5.211   4.828
 3390SOL    HW110195   3.474   5.186   4.801
 3390SOL    HW210196   3.593   5.161   4.910
 3391SOL     OW10197   2.179   4.271   5.004
 3391SOL    HW110198   2.217   4.212   5.076
 3391SOL    HW210199   2.219   4.245   4.916
 3392SOL     OW10200   3.286   3.938   4.836
 3392SOL    HW110201   3.338   3.873   4.891
 3392SOL    HW210202   3.237   4.001   4.897
 3393SOL     OW10203   2.863   3.758   4.878
 3393SOL    HW110204   2.800   3.686   4.847
 3393SOL    HW210205   2.956   3.722   4.878
 3394SOL     OW10206   2.632   5.054   4.025
 3394SOL    HW110207   2.586   4.967   4.042
 3394SOL    HW210208   2.723   5.051   4.066
 3395SOL     OW10209   2.480   5.291   5.008
 3395SOL    HW110210   2.475   5.373   5.065
 3395SOL    HW210211   2.569   5.288   4.963
 3396SOL     OW10212   3.214   3.776   3.892
 3396SOL    HW110213   3.249   3.735   3.808
 3396SOL    HW210214   3.124   3.738   3.912
 3397SOL     OW10215   3.162   4.177   4.415
 3397SOL    HW110216   3.103   4.257   4.419
 3397SOL    HW210217   3.177   4.142   4.508
 3398SOL     OW10218   3.455   3.945   4.606
 3398SOL    HW110219   3.371   3.944   4.660
 3398SOL    HW210220   3.457   4.028   4.550
 3399SOL     OW10221   1.901   4.801   4.024
 3399SOL    HW110222   2.000   4.790   4.015
 3399SOL    HW210223   1.861   4.715   4.056
 3400SOL     OW10224   3.954   0.628   0.113
 3400SOL    HW110225   3.861   0.626   0.150
 3400SOL    HW210226   3.955   0.589   0.021
 3401SOL     OW10227   3.949   0.275   0.996
 3401SOL    HW110228   3.984   0.258   1.088
 3401SOL    HW210229   3.861   0.230   0.984
 3402SOL     OW10230   3.743   0.368   0.647
 3402SOL    HW110231   3.661   0.411   0.686
 3402SOL    HW210232   3.715   0.295   0.584
 3403SOL     OW10233   4.293   1.275   1.165
 3403SOL    HW110234   4.200   1.268   1.128
 3403SOL    HW210235   4.304   1.364   1.209
 3404SOL     OW10236   5.279   1.511   0.703
 3404SOL    HW110237   5.222   1.495   0.784
 3404SOL    HW210238   5.220   1.521   0.623
 3405SOL     OW10239   4.859   0.703   0.717
 3405SOL    HW110240   4.916   0.781   0.692
 3405SOL    HW210241   4.799   0.729   0.793
 3406SOL     OW10242   4.492   1.144   1.023
 3406SOL    HW110243   4.414   1.161   1.083
 3406SOL    HW210244   4.526   1.231   0.987
 3407SOL     OW10245   4.574   0.798   1.823
 3407SOL    HW110246   4.570   0.874   1.888
 3407SOL    HW210247   4.596   0.834   1.732
 3408SOL     OW10248   4.409   1.012   0.665
 3408SOL    HW110249   4.478   0.996   0.735
 3408SOL    HW210250   4.336   1.069   0.703
 3409SOL     OW10251   4.410   1.161   1.803
 3409SOL    HW110252   4.470   1.240   1.817
 3409SOL    HW210253   4.324   1.192   1.762
 3410SOL     OW10254   4.059   1.435   1.061
 3410SOL    HW110255   3.981   1.404   1.008
 3410SOL    HW210256   4.117   1.493   1.004
 3411SOL     OW10257   4.162   0.392   1.499
 3411SOL    HW110258   4.244   0.336   1.508
 3411SOL    HW210259   4.081   0.334   1.503
 3412SOL     OW10260   3.955   1.713   0.483
 3412SOL    HW110261   3.989   1.790   0.537
 3412SOL    HW210262   3.999   1.713   0.393
 3413SOL     OW10263   4.851   1.341   1.690
 3413SOL    HW110264   4.898   1.341   1.778
 3413SOL    HW210265   4.803   1.254   1.679
 3414SOL     OW10266   3.954   1.434   0.538
 3414SOL    HW110267   3.928   1.530   0.538
 3414SOL    HW210268   3.883   1.380   0.583
 3415SOL     OW10269   3.964   1.091   0.886
 3415SOL    HW110270   3.978   1.007   0.938
 3415SOL    HW210271   3.909   1.155   0.941
 3416SOL     OW10272   4.344   1.786   1.439
 3416SOL    HW110273   4.252   1.769   1.474
 3416SOL    HW210274   4.372   1.878   1.465
 3417SOL     OW10275   4.330   0.964   0.123
 3417SOL    HW110276   4.337   1.048   0.069
 3417SOL    HW210277   4.376   0.977   0.211
 3418SOL     OW10278   5.318   0.114   1.480
 3418SOL    HW110279   5.300   0.181   1.408
 3418SOL    HW210280   5.315   0.160   1.569
 3419SOL     OW10281   3.846   0.643   0.563
 3419SOL    HW110282   3.801   0.555   0.580
 3419SOL    HW210283   3.845   0.697   0.647
 3420SOL     OW10284   3.751   1.596   0.117
 3420SOL    HW110285   3.732   1.500   0.138
 3420SOL    HW210286   3.718   1.654   0.192
 3421SOL     OW10287   5.413   0.922   0.612
 3421SOL    HW110288   5.508   0.893   0.620
 3421SOL    HW210289   5.405   0.987   0.537
 3422SOL     OW10290   3.837   0.737   1.597
 3422SOL    HW110291   3.925   0.724   1.642
 3422SOL    HW210292   3.824   0.834   1.575
 3423SOL     OW10293   4.337   1.365   0.726
 3423SOL    HW110294   4.288   1.278   0.735
 3423SOL    HW210295   4.314   1.408   0.639
 3424SOL     OW10296   5.017   1.228   1.423
 3424SOL    HW110297   5.054   1.155   1.365
 3424SOL    HW210298   5.069   1.233   1.508
 3425SOL     OW10299   4.533   0.004   0.502
 3425SOL    HW110300   4.573   0.095   0.493
 3425SOL    HW210301   4.433   0.012   0.508
 3426SOL     OW10302   3.921   0.976   1.264
 3426SOL    HW110303   4.010   0.931   1.250
 3426SOL    HW210304   3.848   0.911   1.245
 3427SOL     OW10305   4.911   1.792   1.616
 3427SOL    HW110306   4.935   1.852   1.540
 3427SOL    HW210307   4.918   1.697   1.586
 3428SOL     OW10308   4.041   0.251   1.801
 3428SOL    HW110309   4.112   0.322   1.807
 3428SOL    HW210310   3.953   0.290   1.829
 3429SOL     OW10311   5.190   1.417   0.953
 3429SOL    HW110312   5.131   1.423   1.033
 3429SOL    HW210313   5.175   1.329   0.907
 3430SOL     OW10314   4.322   0.729   0.270
 3430SOL    HW110315   4.346   0.798   0.202
 3430SOL    HW210316   4.244   0.762   0.324
 3431SOL     OW10317   5.005   0.345   0.944
 3431SOL    HW110318   4.919   0.295   0.931
 3431SOL    HW210319   5.067   0.291   1.000
 3432SOL     OW10320   4.531   0.605   1.465
 3432SOL    HW110321   4.484   0.602   1.554
 3432SOL    HW210322   4.480   0.550   1.399
 3433SOL     OW10323   5.118   0.469   1.674
 3433SOL    HW110324   5.098   0.512   1.762
 3433SOL    HW210325   5.196   0.407   1.683
 3434SOL     OW10326   4.697   0.890   1.572
 3434SOL    HW110327   4.743   0.806   1.543
 3434SOL    HW210328   4.641   0.924   1.497
 3435SOL     OW10329   4.715   0.410   1.242
 3435SOL    HW110330   4.638   0.444   1.296
 3435SOL    HW210331   4.681   0.359   1.163
 3436SOL     OW10332   4.765   0.701   0.429
 3436SOL    HW110333   4.791   0.697   0.525
 3436SOL    HW210334   4.680   0.650   0.415
 3437SOL     OW10335   3.800   0.811   0.789
 3437SOL    HW110336   3.899   0.799   0.798
 3437SOL    HW210337   3.776   0.906   0.810
 3438SOL     OW10338   3.854   1.821   1.571
 3438SOL    HW110339   3.844   1.806   1.670
 3438SOL    HW210340   3.768   1.857   1.535
 3439SOL     OW10341   4.589   0.348   0.195
 3439SOL    HW110342   4.648   0.411   0.146
 3439SOL    HW210343   4.608   0.254   0.166
 3440SOL     OW10344   5.086   1.144   0.545
 3440SOL    HW110345   5.169   1.115   0.497
 3440SOL    HW210346   5.037   1.211   0.489
 3441SOL     OW10347   4.274   0.196   0.885
 3441SOL    HW110348   4.269   0.191   0.985
 3441SOL    HW210349   4.276   0.292   0.856
 3442SOL     OW10350   4.732   1.456   0.477
 3442SOL    HW110351   4.686   1.528   0.425
 3442SOL    HW210352   4.728   1.476   0.575
 3443SOL     OW10353   4.075   1.801   0.853
 3443SOL    HW110354   4.125   1.715   0.859
 3443SOL    HW210355   4.140   1.878   0.850
 3444SOL     OW10356   4.951   1.550   1.506
 3444SOL    HW110357   4.957   1.473   1.570
 3444SOL    HW210358   4.899   1.524   1.426
 3445SOL     OW10359   4.045   0.943   0.242
 3445SOL    HW110360   4.127   0.982   0.200
 3445SOL    HW210361   4.018   0.861   0.193
 3446SOL     OW10362   4.185   1.266   1.727
 3446SOL    HW110363   4.135   1.267   1.641
 3446SOL    HW210364   4.122   1.248   1.803
 3447SOL     OW10365   4.835   1.776   0.237
 3447SOL    HW110366   4.775   1.714   0.287
 3447SOL    HW210367   4.866   1.732   0.152
 3448SOL     OW10368   3.926   0.285   1.498
 3448SOL    HW110369   3.846   0.345   1.485
 3448SOL    HW210370   3.916   0.236   1.584
 3449SOL     OW10371   4.188   1.743   0.323
 3449SOL    HW110372   4.221   1.782   0.409
 3449SOL    HW210373   4.264   1.736   0.258
 3450SOL     OW10374   5.124   0.107   0.426
 3450SOL    HW110375   5.100   0.070   0.336
 3450SOL    HW210376   5.223   0.123   0.430
 3451SOL     OW10377   3.973   1.785   1.241
 3451SOL    HW110378   4.030   1.720   1.291
 3451SOL    HW210379   3.957   1.752   1.148
 3452SOL     OW10380   4.664   1.698   0.904
 3452SOL    HW110381   4.744   1.641   0.925
 3452SOL    HW210382   4.615   1.658   0.827
 3453SOL     OW10383   4.106   0.700   0.480
 3453SOL    HW110384   4.151   0.610   0.477
 3453SOL    HW210385   4.012   0.689   0.513
 3454SOL     OW10386   4.338   0.122   0.117
 3454SOL    HW110387   4.436   0.100   0.124
 3454SOL    HW210388   4.307   0.105   0.024
 3455SOL     OW10389   4.505   0.264   1.749
 3455SOL    HW110390   4.572   0.203   1.792
 3455SOL    HW210391   4.432   0.283   1.814
 3456SOL     OW10392   4.612   1.514   1.195
 3456SOL    HW110393   4.589   1.489   1.101
 3456SOL    HW210394   4.673   1.445   1.234
 3457SOL     OW10395   5.075   0.590   1.433
 3457SOL    HW110396   5.103   0.547   1.518
 3457SOL    HW210397   5.100   0.686   1.434
 3458SOL     OW10398   4.527   1.402   0.924
 3458SOL    HW110399   4.617   1.416   0.882
 3458SOL    HW210400   4.456   1.404   0.853
 3459SOL     OW10401   4.646   0.503   0.899
 3459SOL    HW110402   4.621   0.494   0.803
 3459SOL    HW210403   4.694   0.421   0.930
 3460SOL     OW10404   4.263   0.064   0.512
 3460SOL    HW110405   4.182   0.065   0.570
 3460SOL    HW210406   4.266   0.147   0.457
 3461SOL     OW10407   5.158   1.188   0.041
 3461SOL    HW110408   5.190   1.112   0.098
 3461SOL    HW210409   5.066   1.215   0.071
 3462SOL     OW10410   4.021   0.035   0.171
 3462SOL    HW110411   4.070   0.119   0.150
 3462SOL    HW210412   4.083  -0.030   0.216
 3463SOL     OW10413   4.659   0.236   0.480
 3463SOL    HW110414   4.611   0.277   0.402
 3463SOL    HW210415   4.758   0.234   0.461
 3464SOL     OW10416   4.800   0.683   1.464
 3464SOL    HW110417   4.720   0.622   1.467
 3464SOL    HW210418   4.881   0.630   1.440
 3465SOL     OW10419   4.951   1.570   0.793
 3465SOL    HW110420   4.972   1.644   0.728
 3465SOL    HW210421   5.019   1.570   0.866
 3466SOL     OW10422   4.183   1.152   0.741
 3466SOL    HW110423   4.112   1.125   0.806
 3466SOL    HW210424   4.157   1.124   0.648
 3467SOL     OW10425   4.995   1.797   0.591
 3467SOL    HW110426   5.039   1.861   0.527
 3467SOL    HW210427   4.945   1.849   0.661
 3468SOL     OW10428   4.756   0.549   0.016
 3468SOL    HW110429   4.715   0.631  -0.023
 3468SOL    HW210430   4.820   0.575   0.089
 3469SOL     OW10431   3.802   0.556   1.386
 3469SOL    HW110432   3.894   0.555   1.345
 3469SOL    HW210433   3.796   0.630   1.453
 3470SOL     OW10434   4.285   0.222   1.147
 3470SOL    HW110435   4.323   0.138   1.184
 3470SOL    HW210436   4.197   0.241   1.191
 3471SOL     OW10437   4.590   0.454   0.642
 3471SOL    HW110438   4.558   0.526   0.580
 3471SOL    HW210439   4.614   0.373   0.589
 3472SOL     OW10440   4.741   0.039   0.753
 3472SOL    HW110441   4.669   0.044   0.684
 3472SOL    HW210442   4.717  -0.030   0.822
 3473SOL     OW10443   5.153   1.173   0.867
 3473SOL    HW110444   5.098   1.089   0.860
 3473SOL    HW210445   5.179   1.202   0.775
 3474SOL     OW10446   4.212   1.385   0.174
 3474SOL    HW110447   4.125   1.370   0.221
 3474SOL    HW210448   4.195   1.411   0.079
 3475SOL     OW10449   5.114   0.575   0.078
 3475SOL    HW110450   5.060   0.554   0.159
 3475SOL    HW210451   5.205   0.534   0.087
 3476SOL     OW10452   4.251   0.256   0.328
 3476SOL    HW110453   4.278   0.197   0.253
 3476SOL    HW210454   4.251   0.351   0.297
 3477SOL     OW10455   4.788   1.347   1.340
 3477SOL    HW110456   4.708   1.324   1.395
 3477SOL    HW210457   4.871   1.321   1.389
 3478SOL     OW10458   5.316   1.629   1.625
 3478SOL    HW110459   5.343   1.663   1.535
 3478SOL    HW210460   5.395   1.591   1.671
 3479SOL     OW10461   4.835   1.195   1.100
 3479SOL    HW110462   4.795   1.239   1.181
 3479SOL    HW210463   4.794   1.232   1.017
 3480SOL     OW10464   4.639   0.089   1.402
 3480SOL    HW110465   4.664   0.069   1.307
 3480SOL    HW210466   4.711   0.145   1.444
 3481SOL     OW10467   4.704   1.116   1.719
 3481SOL    HW110468   4.605   1.122   1.729
 3481SOL    HW210469   4.727   1.036   1.663
 3482SOL     OW10470   4.429   1.050   0.368
 3482SOL    HW110471   4.415   1.057   0.467
 3482SOL    HW210472   4.513   0.999   0.350
 3483SOL     OW10473   4.134   0.813   1.251
 3483SOL    HW110474   4.220   0.825   1.301
 3483SOL    HW210475   4.092   0.726   1.278
 3484SOL     OW10476   4.998   0.386   1.262
 3484SOL    HW110477   5.019   0.460   1.326
 3484SOL    HW210478   4.909   0.403   1.219
 3485SOL     OW10479   3.788   1.564   1.331
 3485SOL    HW110480   3.742   1.646   1.297
 3485SOL    HW210481   3.886   1.583   1.340
 3486SOL     OW10482   4.091   1.100   0.501
 3486SOL    HW110483   4.084   1.183   0.445
 3486SOL    HW210484   4.095   1.020   0.441
 3487SOL     OW10485   4.290   0.537   0.865
 3487SOL    HW110486   4.302   0.603   0.791
 3487SOL    HW210487   4.336   0.571   0.948
 3488SOL     OW10488   4.976   1.348   0.388
 3488SOL    HW110489   5.026   1.425   0.428
 3488SOL    HW210490   4.881   1.350   0.420
 3489SOL     OW10491   4.996   1.445   1.142
 3489SOL    HW110492   5.043   1.458   1.229
 3489SOL    HW210493   4.930   1.371   1.151
 3490SOL     OW10494   4.078   1.510   1.329
 3490SOL    HW110495   4.057   1.466   1.242
 3490SOL    HW210496   4.175   1.536   1.332
 3491SOL     OW10497   4.126   0.751   1.598
 3491SOL    HW110498   4.194   0.806   1.551
 3491SOL    HW210499   4.166   0.663   1.625
 3492SOL     OW10500   4.737   0.105   1.770
 3492SOL    HW110501   4.743   0.190   1.718
 3492SOL    HW210502   4.769   0.029   1.713
 3493SOL     OW10503   4.228   0.050   1.740
 3493SOL    HW110504   4.186  -0.007   1.670
 3493SOL    HW210505   4.162   0.119   1.772
 3494SOL     OW10506   4.297   0.870   1.029
 3494SOL    HW110507   4.341   0.959   1.020
 3494SOL    HW210508   4.234   0.870   1.106
 3495SOL     OW10509   5.084   0.862   1.045
 3495SOL    HW110510   5.009   0.862   0.979
 3495SOL    HW210511   5.121   0.770   1.054
 3496SOL     OW10512   4.933   0.525   0.275
 3496SOL    HW110513   4.946   0.441   0.329
 3496SOL    HW210514   4.904   0.599   0.335
 3497SOL     OW10515   4.031   0.213   1.231
 3497SOL    HW110516   4.008   0.250   1.321
 3497SOL    HW210517   4.001   0.118   1.225
 3498SOL     OW10518   3.761   1.310   1.282
 3498SOL    HW110519   3.814   1.261   1.350
 3498SOL    HW210520   3.783   1.408   1.287
 3499SOL     OW10521   4.456   0.634   1.064
 3499SOL    HW110522   4.515   0.608   0.988
 3499SOL    HW210523   4.428   0.730   1.053
 3500SOL     OW10524   4.031   0.063   0.618
 3500SOL    HW110525   4.020   0.157   0.651
 3500SOL    HW210526   4.026   0.000   0.695
 3501SOL     OW10527   5.346   0.367   0.374
 3501SOL    HW110528   5.348   0.291   0.438
 3501SOL    HW210529   5.298   0.444   0.414
 3502SOL     OW10530   4.747   0.766   0.966
 3502SOL    HW110531   4.762   0.787   1.062
 3502SOL    HW210532   4.717   0.671   0.957
 3503SOL     OW10533   4.704   1.573   1.700
 3503SOL    HW110534   4.684   1.617   1.612
 3503SOL    HW210535   4.743   1.482   1.684
 3504SOL     OW10536   4.074   0.898   1.804
 3504SOL    HW110537   4.150   0.942   1.852
 3504SOL    HW210538   4.109   0.851   1.722
 3505SOL     OW10539   5.027   0.838   0.042
 3505SOL    HW110540   5.061   0.745   0.057
 3505SOL    HW210541   5.045   0.865  -0.053
 3506SOL     OW10542   4.792   1.333   0.849
 3506SOL    HW110543   4.799   1.249   0.794
 3506SOL    HW210544   4.854   1.402   0.813
 3507SOL     OW10545   4.043   0.810   0.949
 3507SOL    HW110546   4.136   0.846   0.954
 3507SOL    HW210547   4.037   0.725   1.001
 3508SOL     OW10548   4.063   0.509   1.006
 3508SOL    HW110549   4.011   0.426   0.989
 3508SOL    HW210550   4.140   0.514   0.942
 3509SOL     OW10551   4.862   0.380   1.678
 3509SOL    HW110552   4.817   0.443   1.742
 3509SOL    HW210553   4.955   0.411   1.661
 3510SOL     OW10554   4.884   0.207   1.477
 3510SOL    HW110555   4.884   0.271   1.554
 3510SOL    HW210556   4.912   0.255   1.394
 3511SOL     OW10557   3.732   1.326   0.200
 3511SOL    HW110558   3.639   1.347   0.169
 3511SOL    HW210559   3.742   1.227   0.213
 3512SOL     OW10560   3.812   1.801   0.927
 3512SOL    HW110561   3.770   1.715   0.900
 3512SOL    HW210562   3.906   1.804   0.893
 3513SOL     OW10563   4.228   1.568   0.910
 3513SOL    HW110564   4.294   1.642   0.919
 3513SOL    HW210565   4.272   1.489   0.868
 3514SOL     OW10566   4.726   0.796   1.238
 3514SOL    HW110567   4.767   0.764   1.324
 3514SOL    HW210568   4.630   0.769   1.235
 3515SOL     OW10569   3.764   0.544   1.114
 3515SOL    HW110570   3.849   0.511   1.073
 3515SOL    HW210571   3.777   0.559   1.212
 3516SOL     OW10572   3.913   0.520   1.722
 3516SOL    HW110573   3.972   0.480   1.652
 3516SOL    HW210574   3.855   0.591   1.681
 3517SOL     OW10575   5.093   0.950   1.660
 3517SOL    HW110576   5.132   1.039   1.680
 3517SOL    HW210577   5.103   0.930   1.563
 3518SOL     OW10578   4.539   0.572   0.325
 3518SOL    HW110579   4.546   0.483   0.279
 3518SOL    HW210580   4.445   0.606   0.317
 3519SOL     OW10581   3.976   1.564   1.744
 3519SOL    HW110582   3.946   1.621   1.820
 3519SOL    HW210583   3.969   1.467   1.770
 3520SOL     OW10584   4.395   0.464   1.269
 3520SOL    HW110585   4.361   0.375   1.239
 3520SOL    HW210586   4.421   0.518   1.189
 3521SOL     OW10587   4.654   1.678   1.465
 3521SOL    HW110588   4.630   1.660   1.370
 3521SOL    HW210589   4.684   1.772   1.475
 3522SOL     OW10590   4.197   0.500   0.191
 3522SOL    HW110591   4.258   0.580   0.195
 3522SOL    HW210592   4.102   0.531   0.198
 3523SOL     OW10593   3.883   1.137   1.466
 3523SOL    HW110594   3.905   1.076   1.542
 3523SOL    HW210595   3.893   1.088   1.380
 3524SOL     OW10596   5.071   1.059   1.234
 3524SOL    HW110597   5.095   0.996   1.160
 3524SOL    HW210598   4.981   1.099   1.216
 3525SOL     OW10599   5.026   0.855   0.309
 3525SOL    HW110600   4.940   0.824   0.351
 3525SOL    HW210601   5.022   0.841   0.210
 3526SOL     OW10602   4.976   1.731   1.128
 3526SOL    HW110603   5.060   1.736   1.074
 3526SOL    HW210604   4.953   1.635   1.146
 3527SOL     OW10605   3.807   1.258   1.022
 3527SOL    HW110606   3.802   1.257   1.122
 3527SOL    HW210607   3.724   1.217   0.984
 3528SOL     OW10608   4.412   1.662   1.716
 3528SOL    HW110609   4.356   1.743   1.725
 3528SOL    HW210610   4.464   1.666   1.630
 3529SOL     OW10611   4.627   0.086   0.133
 3529SOL    HW110612   4.678   0.087   0.047
 3529SOL    HW210613   4.683   0.044   0.204
 3530SOL     OW10614   5.112   1.573   0.477
 3530SOL    HW110615   5.179   1.585   0.403
 3530SOL    HW210616   5.072   1.662   0.500
 3531SOL     OW10617   3.854   1.794   1.851
 3531SOL    HW110618   3.813   1.720   1.904
 3531SOL    HW210619   3.918   1.845   1.909
 3532SOL     OW10620   5.004   0.927   0.672
 3532SOL    HW110621   5.064   0.846   0.674
 3532SOL    HW210622   5.044   0.996   0.612
 3533SOL     OW10623   4.554   1.273   1.422
 3533SOL    HW110624   4.549   1.306   1.517
 3533SOL    HW210625   4.468   1.292   1.376
 3534SOL     OW10626   4.396   1.616   0.154
 3534SOL    HW110627   4.405   1.626   0.055
 3534SOL    HW210628   4.356   1.527   0.175
 3535SOL     OW10629   3.987   0.326   0.720
 3535SOL    HW110630   3.908   0.377   0.686
 3535SOL    HW210631   3.978   0.311   0.818
 3536SOL     OW10632   4.918   1.612   0.031
 3536SOL    HW110633   4.924   1.519   0.068
 3536SOL    HW210634   4.859   1.612  -0.049
 3537SOL     OW10635   4.546   1.002   1.372
 3537SOL    HW110636   4.586   1.001   1.280
 3537SOL    HW210637   4.556   1.094   1.412
 3538SOL     OW10638   4.640   0.910   0.291
 3538SOL    HW110639   4.703   0.948   0.223
 3538SOL    HW210640   4.680   0.827   0.330
 3539SOL     OW10641   4.096   1.288   1.490
 3539SOL    HW110642   4.083   1.381   1.456
 3539SOL    HW210643   4.012   1.236   1.477
 3540SOL     OW10644   4.763   1.098   0.696
 3540SOL    HW110645   4.693   1.051   0.750
 3540SOL    HW210646   4.822   1.030   0.653
 3541SOL     OW10647   4.738   0.236   0.971
 3541SOL    HW110648   4.730   0.200   0.878
 3541SOL    HW210649   4.736   0.160   1.036
 3542SOL     OW10650   4.314   1.487   0.491
 3542SOL    HW110651   4.356   1.429   0.421
 3542SOL    HW210652   4.270   1.566   0.447
 3543SOL     OW10653   3.979   1.348   0.290
 3543SOL    HW110654   3.883   1.349   0.263
 3543SOL    HW210655   3.991   1.401   0.374
 3544SOL     OW10656   3.829   1.013   1.726
 3544SOL    HW110657   3.752   0.980   1.780
 3544SOL    HW210658   3.914   0.983   1.768
 3545SOL     OW10659   4.396   0.203   1.489
 3545SOL    HW110660   4.486   0.187   1.449
 3545SOL    HW210661   4.404   0.208   1.588
 3546SOL     OW10662   5.164   0.856   1.398
 3546SOL    HW110663   5.107   0.908   1.335
 3546SOL    HW210664   5.260   0.868   1.374
 3547SOL     OW10665   3.796   0.166   0.318
 3547SOL    HW110666   3.779   0.249   0.264
 3547SOL    HW210667   3.886   0.129   0.296
 3548SOL     OW10668   4.907   1.335   0.119
 3548SOL    HW110669   4.808   1.324   0.121
 3548SOL    HW210670   4.941   1.350   0.212
 3549SOL     OW10671   4.337   0.842   1.431
 3549SOL    HW110672   4.393   0.923   1.414
 3549SOL    HW210673   4.396   0.762   1.434
 3550SOL     OW10674   4.440   0.565   1.708
 3550SOL    HW110675   4.459   0.630   1.782
 3550SOL    HW210676   4.500   0.485   1.717
 3551SOL     OW10677   5.174   1.220   1.633
 3551SOL    HW110678   5.165   1.210   1.732
 3551SOL    HW210679   5.270   1.213   1.607
 3552SOL     OW10680   4.114   1.741   1.560
 3552SOL    HW110681   4.023   1.782   1.558
 3552SOL    HW210682   4.107   1.647   1.592
 3553SOL     OW10683   4.949   0.325   0.449
 3553SOL    HW110684   5.014   0.251   0.438
 3553SOL    HW210685   4.969   0.375   0.533
 3554SOL     OW10686   4.318   0.745   0.652
 3554SOL    HW110687   4.368   0.830   0.633
 3554SOL    HW210688   4.230   0.747   0.604
 3555SOL     OW10689   4.583   1.374   0.016
 3555SOL    HW110690   4.537   1.389   0.104
 3555SOL    HW210691   4.627   1.459  -0.014
 3556SOL     OW10692   4.385   1.790   0.953
 3556SOL    HW110693   4.339   1.878   0.940
 3556SOL    HW210694   4.484   1.802   0.946
 3557SOL     OW10695   4.583   0.956   0.861
 3557SOL    HW110696   4.637   0.887   0.909
 3557SOL    HW210697   4.551   1.025   0.927
 3558SOL     OW10698   4.807   0.984   0.087
 3558SOL    HW110699   4.784   1.037   0.005
 3558SOL    HW210700   4.888   0.928   0.068
 3559SOL     OW10701   3.945   1.314   1.844
 3559SOL    HW110702   3.880   1.241   1.823
 3559SOL    HW210703   3.949   1.328   1.942
 3560SOL     OW10704   3.803   1.240   0.653
 3560SOL    HW110705   3.802   1.193   0.741
 3560SOL    HW210706   3.885   1.212   0.602
 3561SOL     OW10707   4.396   1.391   1.624
 3561SOL    HW110708   4.318   1.341   1.662
 3561SOL    HW210709   4.393   1.486   1.655
 3562SOL     OW10710   4.152   0.424   0.520
 3562SOL    HW110711   4.182   0.352   0.458
 3562SOL    HW210712   4.113   0.384   0.603
 3563SOL     OW10713   5.429   1.487   1.104
 3563SOL    HW110714   5.336   1.462   1.077
 3563SOL    HW210715   5.455   1.437   1.186
 3564SOL     OW10716   4.041   0.547   1.280
 3564SOL    HW110717   4.079   0.488   1.352
 3564SOL    HW210718   4.081   0.521   1.192
 3565SOL     OW10719   4.536   1.586   0.687
 3565SOL    HW110720   4.568   1.596   0.593
 3565SOL    HW210721   4.457   1.524   0.689
 3566SOL     OW10722   5.148   0.214   1.112
 3566SOL    HW110723   5.200   0.149   1.167
 3566SOL    HW210724   5.099   0.277   1.173
 3567SOL     OW10725   4.725   0.034   1.154
 3567SOL    HW110726   4.662  -0.038   1.123
 3567SOL    HW210727   4.818  -0.002   1.154
 3568SOL     OW10728   4.494   1.330   0.301
 3568SOL    HW110729   4.448   1.243   0.318
 3568SOL    HW210730   4.585   1.327   0.342
 3569SOL     OW10731   4.342   1.567   1.284
 3569SOL    HW110732   4.337   1.649   1.341
 3569SOL    HW210733   4.431   1.564   1.239
 3570SOL     OW10734   5.076   0.052   0.168
 3570SOL    HW110735   5.111   0.011   0.084
 3570SOL    HW210736   4.986   0.014   0.188
 3571SOL     OW10737   5.024   0.453   0.691
 3571SOL    HW110738   4.965   0.533   0.695
 3571SOL    HW210739   5.039   0.418   0.784
 3572SOL     OW10740   3.763   1.077   0.300
 3572SOL    HW110741   3.862   1.066   0.291
 3572SOL    HW210742   3.723   0.991   0.332
 3573SOL     OW10743   4.599   1.646   0.337
 3573SOL    HW110744   4.522   1.611   0.283
 3573SOL    HW210745   4.567   1.717   0.399
 3574SOL     OW10746   3.954   0.628   1.975
 3574SOL    HW110747   3.861   0.626   2.012
 3574SOL    HW210748   3.955   0.589   1.883
 3575SOL     OW10749   3.949   0.275   2.858
 3575SOL    HW110750   3.984   0.258   2.950
 3575SOL    HW210751   3.861   0.230   2.846
 3576SOL     OW10752   3.743   0.368   2.509
 3576SOL    HW110753   3.661   0.411   2.548
 3576SOL    HW210754   3.715   0.295   2.446
 3577SOL     OW10755   4.293   1.275   3.027
 3577SOL    HW110756   4.200   1.268   2.990
 3577SOL    HW210757   4.304   1.364   3.071
 3578SOL     OW10758   5.279   1.511   2.565
 3578SOL    HW110759   5.222   1.495   2.646
 3578SOL    HW210760   5.220   1.521   2.485
 3579SOL     OW10761   4.859   0.703   2.579
 3579SOL    HW110762   4.916   0.781   2.554
 3579SOL    HW210763   4.799   0.729   2.655
 3580SOL     OW10764   4.492   1.144   2.885
 3580SOL    HW110765   4.414   1.161   2.945
 3580SOL    HW210766   4.526   1.231   2.849
 3581SOL     OW10767   4.574   0.798   3.685
 3581SOL    HW110768   4.570   0.874   3.750
 3581SOL    HW210769   4.596   0.834   3.594
 3582SOL     OW10770   4.409   1.012   2.527
 3582SOL    HW110771   4.478   0.996   2.597
 3582SOL    HW210772   4.336   1.069   2.565
 3583SOL     OW10773   4.410   1.161   3.665
 3583SOL    HW110774   4.470   1.240   3.679
 3583SOL    HW210775   4.324   1.192   3.624
 3584SOL     OW10776   4.059   1.435   2.923
 3584SOL    HW110777   3.981   1.404   2.870
 3584SOL    HW210778   4.117   1.493   2.866
 3585SOL     OW10779   4.162   0.392   3.361
 3585SOL    HW110780   4.244   0.336   3.370
 3585SOL    HW210781   4.081   0.334   3.365
 3586SOL     OW10782   3.955   1.713   2.345
 3586SOL    HW110783   3.989   1.790   2.399
 3586SOL    HW210784   3.999   1.713   2.255
 3587SOL     OW10785   4.851   1.341   3.552
 3587SOL    HW110786   4.898   1.341   3.640
 3587SOL    HW210787   4.803   1.254   3.541
 3588SOL     OW10788   3.954   1.434   2.400
 3588SOL    HW110789   3.928   1.530   2.400
 3588SOL    HW210790   3.883   1.380   2.445
 3589SOL     OW10791   3.964   1.091   2.748
 3589SOL    HW110792   3.978   1.007   2.800
 3589SOL    HW210793   3.909   1.155   2.803
 3590SOL     OW10794   4.344   1.786   3.301
 3590SOL    HW110795   4.252   1.769   3.336
 3590SOL    HW210796   4.372   1.878   3.327
 3591SOL     OW10797   4.330   0.964   1.985
 3591SOL    HW110798   4.337   1.048   1.931
 3591SOL    HW210799   4.376   0.977   2.073
 3592SOL     OW10800   5.318   0.114   3.342
 3592SOL    HW110801   5.300   0.181   3.270
 3592SOL    HW210802   5.315   0.160   3.431
 3593SOL     OW10803   3.846   0.643   2.425
 3593SOL    HW110804   3.801   0.555   2.442
 3593SOL    HW210805   3.845   0.697   2.509
 3594SOL     OW10806   3.751   1.596   1.979
 3594SOL    HW110807   3.732   1.500   2.000
 3594SOL    HW210808   3.718   1.654   2.054
 3595SOL     OW10809   5.413   0.922   2.474
 3595SOL    HW110810   5.508   0.893   2.482
 3595SOL    HW210811   5.405   0.987   2.399
 3596SOL     OW10812   3.837   0.737   3.459
 3596SOL    HW110813   3.925   0.724   3.504
 3596SOL    HW210814   3.824   0.834   3.437
 3597SOL     OW10815   4.337   1.365   2.588
 3597SOL    HW110816   4.288   1.278   2.597
 3597SOL    HW210817   4.314   1.408   2.501
 3598SOL     OW10818   5.017   1.228   3.285
 3598SOL    HW110819   5.054   1.155   3.227
 3598SOL    HW210820   5.069   1.233   3.370
 3599SOL     OW10821   4.533   0.004   2.364
 3599SOL    HW110822   4.573   0.095   2.355
 3599SOL    HW210823   4.433   0.012   2.370
 3600SOL     OW10824   3.921   0.976   3.126
 3600SOL    HW110825   4.010   0.931   3.112
 3600SOL    HW210826   3.848   0.911   3.107
 3601SOL     OW10827   4.911   1.792   3.478
 3601SOL    HW110828   4.935   1.852   3.402
 3601SOL    HW210829   4.918   1.697   3.448
 3602SOL     OW10830   4.041   0.251   3.663
 3602SOL    HW110831   4.112   0.322   3.669
 3602SOL    HW210832   3.953   0.290   3.691
 3603SOL     OW10833   5.190   1.417   2.815
 3603SOL    HW110834   5.131   1.423   2.895
 3603SOL    HW210835   5.175   1.329   2.769
 3604SOL     OW10836   4.322   0.729   2.132
 3604SOL    HW110837   4.346   0.798   2.064
 3604SOL    HW210838   4.244   0.762   2.186
 3605SOL     OW10839   5.005   0.345   2.806
 3605SOL    HW110840   4.919   0.295   2.793
 3605SOL    HW210841   5.067   0.291   2.862
 3606SOL     OW10842   4.531   0.605   3.327
 3606SOL    HW110843   4.484   0.602   3.416
 3606SOL    HW210844   4.480   0.550   3.261
 3607SOL     OW10845   5.118   0.469   3.536
 3607SOL    HW110846   5.098   0.512   3.624
 3607SOL    HW210847   5.196   0.407   3.545
 3608SOL     OW10848   4.697   0.890   3.434
 3608SOL    HW110849   4.743   0.806   3.405
 3608SOL    HW210850   4.641   0.924   3.359
 3609SOL     OW10851   4.715   0.410   3.104
 3609SOL    HW110852   4.638   0.444   3.158
 3609SOL    HW210853   4.681   0.359   3.025
 3610SOL     OW10854   4.765   0.701   2.291
 3610SOL    HW110855   4.791   0.697   2.387
 3610SOL    HW210856   4.680   0.650   2.277
 3611SOL     OW10857   3.800   0.811   2.651
 3611SOL    HW110858   3.899   0.799   2.660
 3611SOL    HW210859   3.776   0.906   2.672
 3612SOL     OW10860   3.854   1.821   3.433
 3612SOL    HW110861   3.844   1.806   3.532
 3612SOL    HW210862   3.768   1.857   3.397
 3613SOL     OW10863   4.589   0.348   2.057
 3613SOL    HW110864   4.648   0.411   2.008
 3613SOL    HW210865   4.608   0.254   2.028
 3614SOL     OW10866   5.086   1.144   2.407
 3614SOL    HW110867   5.169   1.115   2.359
 3614SOL    HW210868   5.037   1.211   2.351
 3615SOL     OW10869   4.274   0.196   2.747
 3615SOL    HW110870   4.269   0.191   2.847
 3615SOL    HW210871   4.276   0.292   2.718
 3616SOL     OW10872   4.732   1.456   2.339
 3616SOL    HW110873   4.686   1.528   2.287
 3616SOL    HW210874   4.728   1.476   2.437
 3617SOL     OW10875   4.075   1.801   2.715
 3617SOL    HW110876   4.125   1.715   2.721
 3617SOL    HW210877   4.140   1.878   2.712
 3618SOL     OW10878   4.951   1.550   3.368
 3618SOL    HW110879   4.957   1.473   3.432
 3618SOL    HW210880   4.899   1.524   3.288
 3619SOL     OW10881   4.045   0.943   2.104
 3619SOL    HW110882   4.127   0.982   2.062
 3619SOL    HW210883   4.018   0.861   2.055
 3620SOL     OW10884   4.185   1.266   3.589
 3620SOL    HW110885   4.135   1.267   3.503
 3620SOL    HW210886   4.122   1.248   3.665
 3621SOL     OW10887   4.835   1.776   2.099
 3621SOL    HW110888   4.775   1.714   2.149
 3621SOL    HW210889   4.866   1.732   2.014
 3622SOL     OW10890   3.926   0.285   3.360
 3622SOL    HW110891   3.846   0.345   3.347
 3622SOL    HW210892   3.916   0.236   3.446
 3623SOL     OW10893   4.188   1.743   2.185
 3623SOL    HW110894   4.221   1.782   2.271
 3623SOL    HW210895   4.264   1.736   2.120
 3624SOL     OW10896   5.124   0.107   2.288
 3624SOL    HW110897   5.100   0.070   2.198
 3624SOL    HW210898   5.223   0.123   2.292
 3625SOL     OW10899   3.973   1.785   3.103
 3625SOL    HW110900   4.030   1.720   3.153
 3625SOL    HW210901   3.957   1.752   3.010
 3626SOL     OW10902   4.664   1.698   2.766
 3626SOL    HW110903   4.744   1.641   2.787
 3626SOL    HW210904   4.615   1.658   2.689
 3627SOL     OW10905   4.106   0.700   2.342
 3627SOL    HW110906   4.151   0.610   2.339
 3627SOL    HW210907   4.012   0.689   2.375
 3628SOL     OW10908   4.338   0.122   1.979
 3628SOL    HW110909   4.436   0.100   1.986
 3628SOL    HW210910   4.307   0.105   1.886
 3629SOL     OW10911   4.505   0.264   3.611
 3629SOL    HW110912   4.572   0.203   3.654
 3629SOL    HW210913   4.432   0.283   3.676
 3630SOL     OW10914   4.612   1.514   3.057
 3630SOL    HW110915   4.589   1.489   2.963
 3630SOL    HW210916   4.673   1.445   3.096
 3631SOL     OW10917   5.075   0.590   3.295
 3631SOL    HW110918   5.103   0.547   3.380
 3631SOL    HW210919   5.100   0.686   3.296
 3632SOL     OW10920   4.527   1.402   2.786
 3632SOL    HW110921   4.617   1.416   2.744
 3632SOL    HW210922   4.456   1.404   2.715
 3633SOL     OW10923   4.646   0.503   2.761
 3633SOL    HW110924   4.621   0.494   2.665
 3633SOL    HW210925   4.694   0.421   2.792
 3634SOL     OW10926   4.263   0.064   2.374
 3634SOL    HW110927   4.182   0.065   2.432
 3634SOL    HW210928   4.266   0.147   2.319
 3635SOL     OW10929   5.158   1.188   1.903
 3635SOL    HW110930   5.190   1.112   1.960
 3635SOL    HW210931   5.066   1.215   1.933
 3636SOL     OW10932   4.021   0.035   2.033
 3636SOL    HW110933   4.070   0.119   2.012
 3636SOL    HW210934   4.083  -0.030   2.078
 3637SOL     OW10935   4.659   0.236   2.342
 3637SOL    HW110936   4.611   0.277   2.264
 3637SOL    HW210937   4.758   0.234   2.323
 3638SOL     OW10938   4.800   0.683   3.326
 3638SOL    HW110939   4.720   0.622   3.329
 3638SOL    HW210940   4.881   0.630   3.302
 3639SOL     OW10941   4.951   1.570   2.655
 3639SOL    HW110942   4.972   1.644   2.590
 3639SOL    HW210943   5.019   1.570   2.728
 3640SOL     OW10944   4.183   1.152   2.603
 3640SOL    HW110945   4.112   1.125   2.668
 3640SOL    HW210946   4.157   1.124   2.510
 3641SOL     OW10947   4.995   1.797   2.453
 3641SOL    HW110948   5.039   1.861   2.389
 3641SOL    HW210949   4.945   1.849   2.523
 3642SOL     OW10950   4.756   0.549   1.878
 3642SOL    HW110951   4.715   0.631   1.839
 3642SOL    HW210952   4.820   0.575   1.951
 3643SOL     OW10953   3.802   0.556   3.248
 3643SOL    HW110954   3.894   0.555   3.207
 3643SOL    HW210955   3.796   0.630   3.315
 3644SOL     OW10956   4.285   0.222   3.009
 3644SOL    HW110957   4.323   0.138   3.046
 3644SOL    HW210958   4.197   0.241   3.053
 3645SOL     OW10959   4.590   0.454   2.504
 3645SOL    HW110960   4.558   0.526   2.442
 3645SOL    HW210961   4.614   0.373   2.451
 3646SOL     OW10962   4.741   0.039   2.615
 3646SOL    HW110963   4.669   0.044   2.546
 3646SOL    HW210964   4.717  -0.030   2.684
 3647SOL     OW10965   5.153   1.173   2.729
 3647SOL    HW110966   5.098   1.089   2.722
 3647SOL    HW210967   5.179   1.202   2.637
 3648SOL     OW10968   4.212   1.385   2.036
 3648SOL    HW110969   4.125   1.370   2.083
 3648SOL    HW210970   4.195   1.411   1.941
 3649SOL     OW10971   5.114   0.575   1.940
 3649SOL    HW110972   5.060   0.554   2.021
 3649SOL    HW210973   5.205   0.534   1.949
 3650SOL     OW10974   4.251   0.256   2.190
 3650SOL    HW110975   4.278   0.197   2.115
 3650SOL    HW210976   4.251   0.351   2.159
 3651SOL     OW10977   4.788   1.347   3.202
 3651SOL    HW110978   4.708   1.324   3.257
 3651SOL    HW210979   4.871   1.321   3.251
 3652SOL     OW10980   5.316   1.629   3.487
 3652SOL    HW110981   5.343   1.663   3.397
 3652SOL    HW210982   5.395   1.591   3.533
 3653SOL     OW10983   4.835   1.195   2.962
 3653SOL    HW110984   4.795   1.239   3.043
 3653SOL    HW210985   4.794   1.232   2.879
 3654SOL     OW10986   4.639   0.089   3.264
 3654SOL    HW110987   4.664   0.069   3.169
 3654SOL    HW210988   4.711   0.145   3.306
 3655SOL     OW10989   4.704   1.116   3.581
 3655SOL    HW110990   4.605   1.122   3.591
 3655SOL    HW210991   4.727   1.036   3.525
 3656SOL     OW10992   4.429   1.050   2.230
 3656SOL    HW110993   4.415   1.057   2.329
 3656SOL    HW210994   4.513   0.999   2.212
 3657SOL     OW10995   4.134   0.813   3.113
 3657SOL    HW110996   4.220   0.825   3.163
 3657SOL    HW210997   4.092   0.726   3.140
 3658SOL     OW10998   4.998   0.386   3.124
 3658SOL    HW110999   5.019   0.460   3.188
 3658SOL    HW211000   4.909   0.403   3.081
 3659SOL     OW11001   3.788   1.564   3.193
 3659SOL    HW111002   3.742   1.646   3.159
 3659SOL    HW211003   3.886   1.583   3.202
 3660SOL     OW11004   4.091   1.100   2.363
 3660SOL    HW111005   4.084   1.183   2.307
 3660SOL    HW211006   4.095   1.020   2.303
 3661SOL     OW11007   4.290   0.537   2.727
 3661SOL    HW111008   4.302   0.603   2.653
 3661SOL    HW211009   4.336   0.571   2.810
 3662SOL     OW11010   4.976   1.348   2.250
 3662SOL    HW111011   5.026   1.425   2.290
 3662SOL    HW211012   4.881   1.350   2.282
 3663SOL     OW11013   4.996   1.445   3.004
 3663SOL    HW111014   5.043   1.458   3.091
 3663SOL    HW211015   4.930   1.371   3.013
 3664SOL     OW11016   4.078   1.510   3.191
 3664SOL    HW111017   4.057   1.466   3.104
 3664SOL    HW211018   4.175   1.536   3.194
 3665SOL     OW11019   4.126   0.751   3.460
 3665SOL    HW111020   4.194   0.806   3.413
 3665SOL    HW211021   4.166   0.663   3.487
 3666SOL     OW11022   4.737   0.105   3.632
 3666SOL    HW111023   4.743   0.190   3.580
 3666SOL    HW211024   4.769   0.029   3.575
 3667SOL     OW11025   4.228   0.050   3.602
 3667SOL    HW111026   4.186  -0.007   3.532
 3667SOL    HW211027   4.162   0.119   3.634
 3668SOL     OW11028   4.297   0.870   2.891
 3668SOL    HW111029   4.341   0.959   2.882
 3668SOL    HW211030   4.234   0.870   2.968
 3669SOL     OW11031   5.084   0.862   2.907
 3669SOL    HW111032   5.009   0.862   2.841
 3669SOL    HW211033   5.121   0.770   2.916
 3670SOL     OW11034   4.933   0.525   2.137
 3670SOL    HW111035   4.946   0.441   2.191
 3670SOL    HW211036   4.904   0.599   2.197
 3671SOL     OW11037   4.031   0.213   3.093
 3671SOL    HW111038   4.008   0.250   3.183
 3671SOL    HW211039   4.001   0.118   3.087
 3672SOL     OW11040   3.761   1.310   3.144
 3672SOL    HW111041   3.814   1.261   3.212
 3672SOL    HW211042   3.783   1.408   3.149
 3673SOL     OW11043   4.456   0.634   2.926
 3673SOL    HW111044   4.515   0.608   2.850
 3673SOL    HW211045   4.428   0.730   2.915
 3674SOL     OW11046   4.031   0.063   2.480
 3674SOL    HW111047   4.020   0.157   2.513
 3674SOL    HW211048   4.026   0.000   2.557
 3675SOL     OW11049   5.346   0.367   2.236
 3675SOL    HW111050   5.348   0.291   2.300
 3675SOL    HW211051   5.298   0.444   2.276
 3676SOL     OW11052   4.747   0.766   2.828
 3676SOL    HW111053   4.762   0.787   2.924
 3676SOL    HW211054   4.717   0.671   2.819
 3677SOL     OW11055   4.704   1.573   3.562
 3677SOL    HW111056   4.684   1.617   3.474
 3677SOL    HW211057   4.743   1.482   3.546
 3678SOL     OW11058   4.074   0.898   3.666
 3678SOL    HW111059   4.150   0.942   3.714
 3678SOL    HW211060   4.109   0.851   3.584
 3679SOL     OW11061   5.027   0.838   1.904
 3679SOL    HW111062   5.061   0.745   1.919
 3679SOL    HW211063   5.045   0.865   1.809
 3680SOL     OW11064   4.792   1.333   2.711
 3680SOL    HW111065   4.799   1.249   2.656
 3680SOL    HW211066   4.854   1.402   2.675
 3681SOL     OW11067   4.043   0.810   2.811
 3681SOL    HW111068   4.136   0.846   2.816
 3681SOL    HW211069   4.037   0.725   2.863
 3682SOL     OW11070   4.063   0.509   2.868
 3682SOL    HW111071   4.011   0.426   2.851
 3682SOL    HW211072   4.140   0.514   2.804
 3683SOL     OW11073   4.862   0.380   3.540
 3683SOL    HW111074   4.817   0.443   3.604
 3683SOL    HW211075   4.955   0.411   3.523
 3684SOL     OW11076   4.884   0.207   3.339
 3684SOL    HW111077   4.884   0.271   3.416
 3684SOL    HW211078   4.912   0.255   3.256
 3685SOL     OW11079   3.732   1.326   2.062
 3685SOL    HW111080   3.639   1.347   2.031
 3685SOL    HW211081   3.742   1.227   2.075
 3686SOL     OW11082   3.812   1.801   2.789
 3686SOL    HW111083   3.770   1.715   2.762
 3686SOL    HW211084   3.906   1.804   2.755
 3687SOL     OW11085   4.228   1.568   2.772
 3687SOL    HW111086   4.294   1.642   2.781
 3687SOL    HW211087   4.272   1.489   2.730
 3688SOL     OW11088   4.726   0.796   3.100
 3688SOL    HW111089   4.767   0.764   3.186
 3688SOL    HW211090   4.630   0.769   3.097
 3689SOL     OW11091   3.764   0.544   2.976
 3689SOL    HW111092   3.849   0.511   2.935
 3689SOL    HW211093   3.777   0.559   3.074
 3690SOL     OW11094   3.913   0.520   3.584
 3690SOL    HW111095   3.972   0.480   3.514
 3690SOL    HW211096   3.855   0.591   3.543
 3691SOL     OW11097   5.093   0.950   3.522
 3691SOL    HW111098   5.132   1.039   3.542
 3691SOL    HW211099   5.103   0.930   3.425
 3692SOL     OW11100   4.539   0.572   2.187
 3692SOL    HW111101   4.546   0.483   2.141
 3692SOL    HW211102   4.445   0.606   2.179
 3693SOL     OW11103   3.976   1.564   3.606
 3693SOL    HW111104   3.946   1.621   3.682
 3693SOL    HW211105   3.969   1.467   3.632
 3694SOL     OW11106   4.395   0.464   3.131
 3694SOL    HW111107   4.361   0.375   3.101
 3694SOL    HW211108   4.421   0.518   3.051
 3695SOL     OW11109   4.654   1.678   3.327
 3695SOL    HW111110   4.630   1.660   3.232
 3695SOL    HW211111   4.684   1.772   3.337
 3696SOL     OW11112   4.197   0.500   2.053
 3696SOL    HW111113   4.258   0.580   2.057
 3696SOL    HW211114   4.102   0.531   2.060
 3697SOL     OW11115   3.883   1.137   3.328
 3697SOL    HW111116   3.905   1.076   3.404
 3697SOL    HW211117   3.893   1.088   3.242
 3698SOL     OW11118   5.071   1.059   3.096
 3698SOL    HW111119   5.095   0.996   3.022
 3698SOL    HW211120   4.981   1.099   3.078
 3699SOL     OW11121   5.026   0.855   2.171
 3699SOL    HW111122   4.940   0.824   2.213
 3699SOL    HW211123   5.022   0.841   2.072
 3700SOL     OW11124   4.976   1.731   2.990
 3700SOL    HW111125   5.060   1.736   2.936
 3700SOL    HW211126   4.953   1.635   3.008
 3701SOL     OW11127   3.807   1.258   2.884
 3701SOL    HW111128   3.802   1.257   2.984
 3701SOL    HW211129   3.724   1.217   2.846
 3702SOL     OW11130   4.412   1.662   3.578
 3702SOL    HW111131   4.356   1.743   3.587
 3702SOL    HW211132   4.464   1.666   3.492
 3703SOL     OW11133   5.112   1.573   2.339
 3703SOL    HW111134   5.179   1.585   2.265
 3703SOL    HW211135   5.072   1.662   2.362
 3704SOL     OW11136   3.854   1.794   3.713
 3704SOL    HW111137   3.813   1.720   3.766
 3704SOL    HW211138   3.918   1.845   3.771
 3705SOL     OW11139   5.004   0.927   2.534
 3705SOL    HW111140   5.064   0.846   2.536
 3705SOL    HW211141   5.044   0.996   2.474
 3706SOL     OW11142   4.554   1.273   3.284
 3706SOL    HW111143   4.549   1.306   3.379
 3706SOL    HW211144   4.468   1.292   3.238
 3707SOL     OW11145   4.396   1.616   2.016
 3707SOL    HW111146   4.405   1.626   1.917
 3707SOL    HW211147   4.356   1.527   2.037
 3708SOL     OW11148   3.987   0.326   2.582
 3708SOL    HW111149   3.908   0.377   2.548
 3708SOL    HW211150   3.978   0.311   2.680
 3709SOL     OW11151   4.918   1.612   1.893
 3709SOL    HW111152   4.924   1.519   1.930
 3709SOL    HW211153   4.859   1.612   1.813
 3710SOL     OW11154   4.546   1.002   3.234
 3710SOL    HW111155   4.586   1.001   3.142
 3710SOL    HW211156   4.556   1.094   3.274
 3711SOL     OW11157   4.640   0.910   2.153
 3711SOL    HW111158   4.703   0.948   2.085
 3711SOL    HW211159   4.680   0.827   2.192
 3712SOL     OW11160   4.096   1.288   3.352
 3712SOL    HW111161   4.083   1.381   3.318
 3712SOL    HW211162   4.012   1.236   3.339
 3713SOL     OW11163   4.763   1.098   2.558
 3713SOL    HW111164   4.693   1.051   2.612
 3713SOL    HW211165   4.822   1.030   2.515
 3714SOL     OW11166   4.738   0.236   2.833
 3714SOL    HW111167   4.730   0.200   2.740
 3714SOL    HW211168   4.736   0.160   2.898
 3715SOL     OW11169   4.314   1.487   2.353
 3715SOL    HW111170   4.356   1.429   2.283
 3715SOL    HW211171   4.270   1.566   2.309
 3716SOL     OW11172   3.979   1.348   2.152
 3716SOL    HW111173   3.883   1.349   2.125
 3716SOL    HW211174   3.991   1.401   2.236
 3717SOL     OW11175   3.829   1.013   3.588
 3717SOL    HW111176   3.752   0.980   3.642
 3717SOL    HW211177   3.914   0.983   3.630
 3718SOL     OW11178   4.396   0.203   3.351
 3718SOL    HW111179   4.486   0.187   3.311
 3718SOL    HW211180   4.404   0.208   3.450
 3719SOL     OW11181   3.799   0.345   1.895
 3719SOL    HW111182   3.707   0.317   1.866
 3719SOL    HW211183   3.830   0.422   1.839
 3720SOL     OW11184   5.164   0.856   3.260
 3720SOL    HW111185   5.107   0.908   3.197
 3720SOL    HW211186   5.260   0.868   3.236
 3721SOL     OW11187   3.796   0.166   2.180
 3721SOL    HW111188   3.779   0.249   2.126
 3721SOL    HW211189   3.886   0.129   2.158
 3722SOL     OW11190   4.907   1.335   1.981
 3722SOL    HW111191   4.808   1.324   1.983
 3722SOL    HW211192   4.941   1.350   2.074
 3723SOL     OW11193   4.337   0.842   3.293
 3723SOL    HW111194   4.393   0.923   3.276
 3723SOL    HW211195   4.396   0.762   3.296
 3724SOL     OW11196   4.440   0.565   3.570
 3724SOL    HW111197   4.459   0.630   3.644
 3724SOL    HW211198   4.500   0.485   3.579
 3725SOL     OW11199   5.174   1.220   3.495
 3725SOL    HW111200   5.165   1.210   3.594
 3725SOL    HW211201   5.270   1.213   3.469
 3726SOL     OW11202   4.114   1.741   3.422
 3726SOL    HW111203   4.023   1.782   3.420
 3726SOL    HW211204   4.107   1.647   3.454
 3727SOL     OW11205   4.949   0.325   2.311
 3727SOL    HW111206   5.014   0.251   2.300
 3727SOL    HW211207   4.969   0.375   2.395
 3728SOL     OW11208   4.318   0.745   2.514
 3728SOL    HW111209   4.368   0.830   2.495
 3728SOL    HW211210   4.230   0.747   2.466
 3729SOL     OW11211   4.583   1.374   1.878
 3729SOL    HW111212   4.537   1.389   1.966
 3729SOL    HW211213   4.627   1.459   1.848
 3730SOL     OW11214   4.385   1.790   2.815
 3730SOL    HW111215   4.339   1.878   2.802
 3730SOL    HW211216   4.484   1.802   2.808
 3731SOL     OW11217   4.583   0.956   2.723
 3731SOL    HW111218   4.637   0.887   2.771
 3731SOL    HW211219   4.551   1.025   2.789
 3732SOL     OW11220   4.807   0.984   1.949
 3732SOL    HW111221   4.784   1.037   1.867
 3732SOL    HW211222   4.888   0.928   1.930
 3733SOL     OW11223   3.945   1.314   3.706
 3733SOL    HW111224   3.880   1.241   3.685
 3733SOL    HW211225   3.949   1.328   3.804
 3734SOL     OW11226   3.803   1.240   2.515
 3734SOL    HW111227   3.802   1.193   2.603
 3734SOL    HW211228   3.885   1.212   2.464
 3735SOL     OW11229   4.396   1.391   3.486
 3735SOL    HW111230   4.318   1.341   3.524
 3735SOL    HW211231   4.393   1.486   3.517
 3736SOL     OW11232   4.152   0.424   2.382
 3736SOL    HW111233   4.182   0.352   2.320
 3736SOL    HW211234   4.113   0.384   2.465
 3737SOL     OW11235   5.429   1.487   2.966
 3737SOL    HW111236   5.336   1.462   2.939
 3737SOL    HW211237   5.455   1.437   3.048
 3738SOL     OW11238   4.041   0.547   3.142
 3738SOL    HW111239   4.079   0.488   3.214
 3738SOL    HW211240   4.081   0.521   3.054
 3739SOL     OW11241   4.536   1.586   2.549
 3739SOL    HW111242   4.568   1.596   2.455
 3739SOL    HW211243   4.457   1.524   2.551
 3740SOL     OW11244   5.148   0.214   2.974
 3740SOL    HW111245   5.200   0.149   3.029
 3740SOL    HW211246   5.099   0.277   3.035
 3741SOL     OW11247   4.725   0.034   3.016
 3741SOL    HW111248   4.662  -0.038   2.985
 3741SOL    HW211249   4.818  -0.002   3.016
 3742SOL     OW11250   4.494   1.330   2.163
 3742SOL    HW111251   4.448   1.243   2.180
 3742SOL    HW211252   4.585   1.327   2.204
 3743SOL     OW11253   4.342   1.567   3.146
 3743SOL    HW111254   4.337   1.649   3.203
 3743SOL    HW211255   4.431   1.564   3.101
 3744SOL     OW11256   5.076   0.052   2.030
 3744SOL    HW111257   5.111   0.011   1.946
 3744SOL    HW211258   4.986   0.014   2.050
 3745SOL     OW11259   5.024   0.453   2.553
 3745SOL    HW111260   4.965   0.533   2.557
 3745SOL    HW211261   5.039   0.418   2.646
 3746SOL     OW11262   3.763   1.077   2.162
 3746SOL    HW111263   3.862   1.066   2.153
 3746SOL    HW211264   3.723   0.991   2.194
 3747SOL     OW11265   4.599   1.646   2.199
 3747SOL    HW111266   4.522   1.611   2.145
 3747SOL    HW211267   4.567   1.717   2.261
 3748SOL     OW11268   3.954   0.628   3.837
 3748SOL    HW111269   3.861   0.626   3.874
 3748SOL    HW211270   3.955   0.589   3.745
 3749SOL     OW11271   3.949   0.275   4.720
 3749SOL    HW111272   3.984   0.258   4.812
 3749SOL    HW211273   3.861   0.230   4.708
 3750SOL     OW11274   3.743   0.368   4.371
 3750SOL    HW111275   3.661   0.411   4.410
 3750SOL    HW211276   3.715   0.295   4.308
 3751SOL     OW11277   4.293   1.275   4.889
 3751SOL    HW111278   4.200   1.268   4.852
 3751SOL    HW211279   4.304   1.364   4.933
 3752SOL     OW11280   5.279   1.511   4.427
 3752SOL    HW111281   5.222   1.495   4.508
 3752SOL    HW211282   5.220   1.521   4.347
 3753SOL     OW11283   4.859   0.703   4.441
 3753SOL    HW111284   4.916   0.781   4.416
 3753SOL    HW211285   4.799   0.729   4.517
 3754SOL     OW11286   4.492   1.144   4.747
 3754SOL    HW111287   4.414   1.161   4.807
 3754SOL    HW211288   4.526   1.231   4.711
 3755SOL     OW11289   4.409   1.012   4.389
 3755SOL    HW111290   4.478   0.996   4.459
 3755SOL    HW211291   4.336   1.069   4.427
 3756SOL     OW11292   4.059   1.435   4.785
 3756SOL    HW111293   3.981   1.404   4.732
 3756SOL    HW211294   4.117   1.493   4.728
 3757SOL     OW11295   4.162   0.392   5.223
 3757SOL    HW111296   4.244   0.336   5.232
 3757SOL    HW211297   4.081   0.334   5.227
 3758SOL     OW11298   3.955   1.713   4.207
 3758SOL    HW111299   3.989   1.790   4.261
 3758SOL    HW211300   3.999   1.713   4.117
 3759SOL     OW11301   3.954   1.434   4.262
 3759SOL    HW111302   3.928   1.530   4.262
 3759SOL    HW211303   3.883   1.380   4.307
 3760SOL     OW11304   3.964   1.091   4.610
 3760SOL    HW111305   3.978   1.007   4.662
 3760SOL    HW211306   3.909   1.155   4.665
 3761SOL     OW11307   4.344   1.786   5.163
 3761SOL    HW111308   4.252   1.769   5.198
 3761SOL    HW211309   4.372   1.878   5.189
 3762SOL     OW11310   4.330   0.964   3.847
 3762SOL    HW111311   4.337   1.048   3.793
 3762SOL    HW211312   4.376   0.977   3.935
 3763SOL     OW11313   5.318   0.114   5.204
 3763SOL    HW111314   5.300   0.181   5.132
 3763SOL    HW211315   5.315   0.160   5.293
 3764SOL     OW11316   3.846   0.643   4.287
 3764SOL    HW111317   3.801   0.555   4.304
 3764SOL    HW211318   3.845   0.697   4.371
 3765SOL     OW11319   3.751   1.596   3.841
 3765SOL    HW111320   3.732   1.500   3.862
 3765SOL    HW211321   3.718   1.654   3.916
 3766SOL     OW11322   5.413   0.922   4.336
 3766SOL    HW111323   5.508   0.893   4.344
 3766SOL    HW211324   5.405   0.987   4.261
 3767SOL     OW11325   4.337   1.365   4.450
 3767SOL    HW111326   4.288   1.278   4.459
 3767SOL    HW211327   4.314   1.408   4.363
 3768SOL     OW11328   4.533   0.004   4.226
 3768SOL    HW111329   4.573   0.095   4.217
 3768SOL    HW211330   4.433   0.012   4.232
 3769SOL     OW11331   3.921   0.976   4.988
 3769SOL    HW111332   4.010   0.931   4.974
 3769SOL    HW211333   3.848   0.911   4.969
 3770SOL     OW11334   4.041   0.251   5.525
 3770SOL    HW111335   4.112   0.322   5.531
 3770SOL    HW211336   3.953   0.290   5.553
 3771SOL     OW11337   5.190   1.417   4.677
 3771SOL    HW111338   5.131   1.423   4.757
 3771SOL    HW211339   5.175   1.329   4.631
 3772SOL     OW11340   4.322   0.729   3.994
 3772SOL    HW111341   4.346   0.798   3.926
 3772SOL    HW211342   4.244   0.762   4.048
 3773SOL     OW11343   5.005   0.345   4.668
 3773SOL    HW111344   4.919   0.295   4.655
 3773SOL    HW211345   5.067   0.291   4.724
 3774SOL     OW11346   4.531   0.605   5.189
 3774SOL    HW111347   4.484   0.602   5.278
 3774SOL    HW211348   4.480   0.550   5.123
 3775SOL     OW11349   4.715   0.410   4.966
 3775SOL    HW111350   4.638   0.444   5.020
 3775SOL    HW211351   4.681   0.359   4.887
 3776SOL     OW11352   4.765   0.701   4.153
 3776SOL    HW111353   4.791   0.697   4.249
 3776SOL    HW211354   4.680   0.650   4.139
 3777SOL     OW11355   3.800   0.811   4.513
 3777SOL    HW111356   3.899   0.799   4.522
 3777SOL    HW211357   3.776   0.906   4.534
 3778SOL     OW11358   3.854   1.821   5.295
 3778SOL    HW111359   3.844   1.806   5.394
 3778SOL    HW211360   3.768   1.857   5.259
 3779SOL     OW11361   4.589   0.348   3.919
 3779SOL    HW111362   4.648   0.411   3.870
 3779SOL    HW211363   4.608   0.254   3.890
 3780SOL     OW11364   5.086   1.144   4.269
 3780SOL    HW111365   5.169   1.115   4.221
 3780SOL    HW211366   5.037   1.211   4.213
 3781SOL     OW11367   4.274   0.196   4.609
 3781SOL    HW111368   4.269   0.191   4.709
 3781SOL    HW211369   4.276   0.292   4.580
 3782SOL     OW11370   4.732   1.456   4.201
 3782SOL    HW111371   4.686   1.528   4.149
 3782SOL    HW211372   4.728   1.476   4.299
 3783SOL     OW11373   4.075   1.801   4.577
 3783SOL    HW111374   4.125   1.715   4.583
 3783SOL    HW211375   4.140   1.878   4.574
 3784SOL     OW11376   4.045   0.943   3.966
 3784SOL    HW111377   4.127   0.982   3.924
 3784SOL    HW211378   4.018   0.861   3.917
 3785SOL     OW11379   4.835   1.776   3.961
 3785SOL    HW111380   4.775   1.714   4.011
 3785SOL    HW211381   4.866   1.732   3.876
 3786SOL     OW11382   3.926   0.285   5.222
 3786SOL    HW111383   3.846   0.345   5.209
 3786SOL    HW211384   3.916   0.236   5.308
 3787SOL     OW11385   4.188   1.743   4.047
 3787SOL    HW111386   4.221   1.782   4.133
 3787SOL    HW211387   4.264   1.736   3.982
 3788SOL     OW11388   5.124   0.107   4.150
 3788SOL    HW111389   5.100   0.070   4.060
 3788SOL    HW211390   5.223   0.123   4.154
 3789SOL     OW11391   3.973   1.785   4.965
 3789SOL    HW111392   4.030   1.720   5.015
 3789SOL    HW211393   3.957   1.752   4.872
 3790SOL     OW11394   4.664   1.698   4.628
 3790SOL    HW111395   4.744   1.641   4.649
 3790SOL    HW211396   4.615   1.658   4.551
 3791SOL     OW11397   4.106   0.700   4.204
 3791SOL    HW111398   4.151   0.610   4.201
 3791SOL    HW211399   4.012   0.689   4.237
 3792SOL     OW11400   4.338   0.122   3.841
 3792SOL    HW111401   4.436   0.100   3.848
 3792SOL    HW211402   4.307   0.105   3.748
 3793SOL     OW11403   4.612   1.514   4.919
 3793SOL    HW111404   4.589   1.489   4.825
 3793SOL    HW211405   4.673   1.445   4.958
 3794SOL     OW11406   4.527   1.402   4.648
 3794SOL    HW111407   4.617   1.416   4.606
 3794SOL    HW211408   4.456   1.404   4.577
 3795SOL     OW11409   4.646   0.503   4.623
 3795SOL    HW111410   4.621   0.494   4.527
 3795SOL    HW211411   4.694   0.421   4.654
 3796SOL     OW11412   4.263   0.064   4.236
 3796SOL    HW111413   4.182   0.065   4.294
 3796SOL    HW211414   4.266   0.147   4.181
 3797SOL     OW11415   5.158   1.188   3.765
 3797SOL    HW111416   5.190   1.112   3.822
 3797SOL    HW211417   5.066   1.215   3.795
 3798SOL     OW11418   4.021   0.035   3.895
 3798SOL    HW111419   4.070   0.119   3.874
 3798SOL    HW211420   4.083  -0.030   3.940
 3799SOL     OW11421   4.659   0.236   4.204
 3799SOL    HW111422   4.611   0.277   4.126
 3799SOL    HW211423   4.758   0.234   4.185
 3800SOL     OW11424   4.951   1.570   4.517
 3800SOL    HW111425   4.972   1.644   4.452
 3800SOL    HW211426   5.019   1.570   4.590
 3801SOL     OW11427   4.183   1.152   4.465
 3801SOL    HW111428   4.112   1.125   4.530
 3801SOL    HW211429   4.157   1.124   4.372
 3802SOL     OW11430   4.995   1.797   4.315
 3802SOL    HW111431   5.039   1.861   4.251
 3802SOL    HW211432   4.945   1.849   4.385
 3803SOL     OW11433   4.756   0.549   3.740
 3803SOL    HW111434   4.715   0.631   3.701
 3803SOL    HW211435   4.820   0.575   3.813
 3804SOL     OW11436   3.802   0.556   5.110
 3804SOL    HW111437   3.894   0.555   5.069
 3804SOL    HW211438   3.796   0.630   5.177
 3805SOL     OW11439   4.285   0.222   4.871
 3805SOL    HW111440   4.323   0.138   4.908
 3805SOL    HW211441   4.197   0.241   4.915
 3806SOL     OW11442   4.590   0.454   4.366
 3806SOL    HW111443   4.558   0.526   4.304
 3806SOL    HW211444   4.614   0.373   4.313
 3807SOL     OW11445   4.741   0.039   4.477
 3807SOL    HW111446   4.669   0.044   4.408
 3807SOL    HW211447   4.717  -0.030   4.546
 3808SOL     OW11448   5.153   1.173   4.591
 3808SOL    HW111449   5.098   1.089   4.584
 3808SOL    HW211450   5.179   1.202   4.499
 3809SOL     OW11451   4.212   1.385   3.898
 3809SOL    HW111452   4.125   1.370   3.945
 3809SOL    HW211453   4.195   1.411   3.803
 3810SOL     OW11454   5.114   0.575   3.802
 3810SOL    HW111455   5.060   0.554   3.883
 3810SOL    HW211456   5.205   0.534   3.811
 3811SOL     OW11457   4.251   0.256   4.052
 3811SOL    HW111458   4.278   0.197   3.977
 3811SOL    HW211459   4.251   0.351   4.021
 3812SOL     OW11460   4.788   1.347   5.064
 3812SOL    HW111461   4.708   1.324   5.119
 3812SOL    HW211462   4.871   1.321   5.113
 3813SOL     OW11463   4.835   1.195   4.824
 3813SOL    HW111464   4.795   1.239   4.905
 3813SOL    HW211465   4.794   1.232   4.741
 3814SOL     OW11466   4.639   0.089   5.126
 3814SOL    HW111467   4.664   0.069   5.031
 3814SOL    HW211468   4.711   0.145   5.168
 3815SOL     OW11469   4.429   1.050   4.092
 3815SOL    HW111470   4.415   1.057   4.191
 3815SOL    HW211471   4.513   0.999   4.074
 3816SOL     OW11472   4.134   0.813   4.975
 3816SOL    HW111473   4.220   0.825   5.025
 3816SOL    HW211474   4.092   0.726   5.002
 3817SOL     OW11475   4.998   0.386   4.986
 3817SOL    HW111476   5.019   0.460   5.050
 3817SOL    HW211477   4.909   0.403   4.943
 3818SOL     OW11478   3.788   1.564   5.055
 3818SOL    HW111479   3.742   1.646   5.021
 3818SOL    HW211480   3.886   1.583   5.064
 3819SOL     OW11481   4.091   1.100   4.225
 3819SOL    HW111482   4.084   1.183   4.169
 3819SOL    HW211483   4.095   1.020   4.165
 3820SOL     OW11484   4.290   0.537   4.589
 3820SOL    HW111485   4.302   0.603   4.515
 3820SOL    HW211486   4.336   0.571   4.672
 3821SOL     OW11487   4.976   1.348   4.112
 3821SOL    HW111488   5.026   1.425   4.152
 3821SOL    HW211489   4.881   1.350   4.144
 3822SOL     OW11490   4.996   1.445   4.866
 3822SOL    HW111491   5.043   1.458   4.953
 3822SOL    HW211492   4.930   1.371   4.875
 3823SOL     OW11493   4.078   1.510   5.053
 3823SOL    HW111494   4.057   1.466   4.966
 3823SOL    HW211495   4.175   1.536   5.056
 3824SOL     OW11496   4.126   0.751   5.322
 3824SOL    HW111497   4.194   0.806   5.275
 3824SOL    HW211498   4.166   0.663   5.349
 3825SOL     OW11499   5.311   0.779   5.394
 3825SOL    HW111500   5.219   0.817   5.389
 3825SOL    HW211501   5.371   0.826   5.329
 3826SOL     OW11502   4.297   0.870   4.753
 3826SOL    HW111503   4.341   0.959   4.744
 3826SOL    HW211504   4.234   0.870   4.830
 3827SOL     OW11505   5.084   0.862   4.769
 3827SOL    HW111506   5.009   0.862   4.703
 3827SOL    HW211507   5.121   0.770   4.778
 3828SOL     OW11508   4.933   0.525   3.999
 3828SOL    HW111509   4.946   0.441   4.053
 3828SOL    HW211510   4.904   0.599   4.059
 3829SOL     OW11511   4.031   0.213   4.955
 3829SOL    HW111512   4.008   0.250   5.045
 3829SOL    HW211513   4.001   0.118   4.949
 3830SOL     OW11514   3.761   1.310   5.006
 3830SOL    HW111515   3.814   1.261   5.074
 3830SOL    HW211516   3.783   1.408   5.011
 3831SOL     OW11517   4.456   0.634   4.788
 3831SOL    HW111518   4.515   0.608   4.712
 3831SOL    HW211519   4.428   0.730   4.777
 3832SOL     OW11520   4.031   0.063   4.342
 3832SOL    HW111521   4.020   0.157   4.375
 3832SOL    HW211522   4.026   0.000   4.419
 3833SOL     OW11523   5.346   0.367   4.098
 3833SOL    HW111524   5.348   0.291   4.162
 3833SOL    HW211525   5.298   0.444   4.138
 3834SOL     OW11526   4.747   0.766   4.690
 3834SOL    HW111527   4.762   0.787   4.786
 3834SOL    HW211528   4.717   0.671   4.681
 3835SOL     OW11529   4.704   1.573   5.424
 3835SOL    HW111530   4.684   1.617   5.336
 3835SOL    HW211531   4.743   1.482   5.408
 3836SOL     OW11532   5.027   0.838   3.766
 3836SOL    HW111533   5.061   0.745   3.781
 3836SOL    HW211534   5.045   0.865   3.671
 3837SOL     OW11535   4.792   1.333   4.573
 3837SOL    HW111536   4.799   1.249   4.518
 3837SOL    HW211537   4.854   1.402   4.537
 3838SOL     OW11538   4.043   0.810   4.673
 3838SOL    HW111539   4.136   0.846   4.678
 3838SOL    HW211540   4.037   0.725   4.725
 3839SOL     OW11541   4.063   0.509   4.730
 3839SOL    HW111542   4.011   0.426   4.713
 3839SOL    HW211543   4.140   0.514   4.666
 3840SOL     OW11544   4.862   0.380   5.402
 3840SOL    HW111545   4.817   0.443   5.466
 3840SOL    HW211546   4.955   0.411   5.385
 3841SOL     OW11547   4.884   0.207   5.201
 3841SOL    HW111548   4.884   0.271   5.278
 3841SOL    HW211549   4.912   0.255   5.118
 3842SOL     OW11550   3.732   1.326   3.924
 3842SOL    HW111551   3.639   1.347   3.893
 3842SOL    HW211552   3.742   1.227   3.937
 3843SOL     OW11553   3.812   1.801   4.651
 3843SOL    HW111554   3.770   1.715   4.624
 3843SOL    HW211555   3.906   1.804   4.617
 3844SOL     OW11556   4.228   1.568   4.634
 3844SOL    HW111557   4.294   1.642   4.643
 3844SOL    HW211558   4.272   1.489   4.592
 3845SOL     OW11559   4.726   0.796   4.962
 3845SOL    HW111560   4.767   0.764   5.048
 3845SOL    HW211561   4.630   0.769   4.959
 3846SOL     OW11562   3.764   0.544   4.838
 3846SOL    HW111563   3.849   0.511   4.797
 3846SOL    HW211564   3.777   0.559   4.936
 3847SOL     OW11565   4.539   0.572   4.049
 3847SOL    HW111566   4.546   0.483   4.003
 3847SOL    HW211567   4.445   0.606   4.041
 3848SOL     OW11568   4.395   0.464   4.993
 3848SOL    HW111569   4.361   0.375   4.963
 3848SOL    HW211570   4.421   0.518   4.913
 3849SOL     OW11571   4.654   1.678   5.189
 3849SOL    HW111572   4.630   1.660   5.094
 3849SOL    HW211573   4.684   1.772   5.199
 3850SOL     OW11574   4.197   0.500   3.915
 3850SOL    HW111575   4.258   0.580   3.919
 3850SOL    HW211576   4.102   0.531   3.922
 3851SOL     OW11577   3.883   1.137   5.190
 3851SOL    HW111578   3.905   1.076   5.266
 3851SOL    HW211579   3.893   1.088   5.104
 3852SOL     OW11580   5.071   1.059   4.958
 3852SOL    HW111581   5.095   0.996   4.884
 3852SOL    HW211582   4.981   1.099   4.940
 3853SOL     OW11583   5.026   0.855   4.033
 3853SOL    HW111584   4.940   0.824   4.075
 3853SOL    HW211585   5.022   0.841   3.934
 3854SOL     OW11586   4.976   1.731   4.852
 3854SOL    HW111587   5.060   1.736   4.798
 3854SOL    HW211588   4.953   1.635   4.870
 3855SOL     OW11589   3.807   1.258   4.746
 3855SOL    HW111590   3.802   1.257   4.846
 3855SOL    HW211591   3.724   1.217   4.708
 3856SOL     OW11592   5.112   1.573   4.201
 3856SOL    HW111593   5.179   1.585   4.127
 3856SOL    HW211594   5.072   1.662   4.224
 3857SOL     OW11595   5.004   0.927   4.396
 3857SOL    HW111596   5.064   0.846   4.398
 3857SOL    HW211597   5.044   0.996   4.336
 3858SOL     OW11598   4.396   1.616   3.878
 3858SOL    HW111599   4.405   1.626   3.779
 3858SOL    HW211600   4.356   1.527   3.899
 3859SOL     OW11601   3.987   0.326   4.444
 3859SOL    HW111602   3.908   0.377   4.410
 3859SOL    HW211603   3.978   0.311   4.542
 3860SOL     OW11604   4.918   1.612   3.755
 3860SOL    HW111605   4.924   1.519   3.792
 3860SOL    HW211606   4.859   1.612   3.675
 3861SOL     OW11607   4.546   1.002   5.096
 3861SOL    HW111608   4.586   1.001   5.004
 3861SOL    HW211609   4.556   1.094   5.136
 3862SOL     OW11610   4.640   0.910   4.015
 3862SOL    HW111611   4.703   0.948   3.947
 3862SOL    HW211612   4.680   0.827   4.054
 3863SOL     OW11613   4.096   1.288   5.214
 3863SOL    HW111614   4.083   1.381   5.180
 3863SOL    HW211615   4.012   1.236   5.201
 3864SOL     OW11616   4.763   1.098   4.420
 3864SOL    HW111617   4.693   1.051   4.474
 3864SOL    HW211618   4.822   1.030   4.377
 3865SOL     OW11619   4.738   0.236   4.695
 3865SOL    HW111620   4.730   0.200   4.602
 3865SOL    HW211621   4.736   0.160   4.760
 3866SOL     OW11622   4.314   1.487   4.215
 3866SOL    HW111623   4.356   1.429   4.145
 3866SOL    HW211624   4.270   1.566   4.171
 3867SOL     OW11625   3.979   1.348   4.014
 3867SOL    HW111626   3.883   1.349   3.987
 3867SOL    HW211627   3.991   1.401   4.098
 3868SOL     OW11628   3.799   0.345   3.757
 3868SOL    HW111629   3.707   0.317   3.728
 3868SOL    HW211630   3.830   0.422   3.701
 3869SOL     OW11631   5.164   0.856   5.122
 3869SOL    HW111632   5.107   0.908   5.059
 3869SOL    HW211633   5.260   0.868   5.098
 3870SOL     OW11634   3.796   0.166   4.042
 3870SOL    HW111635   3.779   0.249   3.988
 3870SOL    HW211636   3.886   0.129   4.020
 3871SOL     OW11637   4.907   1.335   3.843
 3871SOL    HW111638   4.808   1.324   3.845
 3871SOL    HW211639   4.941   1.350   3.936
 3872SOL     OW11640   4.337   0.842   5.155
 3872SOL    HW111641   4.393   0.923   5.138
 3872SOL    HW211642   4.396   0.762   5.158
 3873SOL     OW11643   4.114   1.741   5.284
 3873SOL    HW111644   4.023   1.782   5.282
 3873SOL    HW211645   4.107   1.647   5.316
 3874SOL     OW11646   4.949   0.325   4.173
 3874SOL    HW111647   5.014   0.251   4.162
 3874SOL    HW211648   4.969   0.375   4.257
 3875SOL     OW11649   4.318   0.745   4.376
 3875SOL    HW111650   4.368   0.830   4.357
 3875SOL    HW211651   4.230   0.747   4.328
 3876SOL     OW11652   4.583   1.374   3.740
 3876SOL    HW111653   4.537   1.389   3.828
 3876SOL    HW211654   4.627   1.459   3.710
 3877SOL     OW11655   4.385   1.790   4.677
 3877SOL    HW111656   4.339   1.878   4.664
 3877SOL    HW211657   4.484   1.802   4.670
 3878SOL     OW11658   4.583   0.956   4.585
 3878SOL    HW111659   4.637   0.887   4.633
 3878SOL    HW211660   4.551   1.025   4.651
 3879SOL     OW11661   4.807   0.984   3.811
 3879SOL    HW111662   4.784   1.037   3.729
 3879SOL    HW211663   4.888   0.928   3.792
 3880SOL     OW11664   3.803   1.240   4.377
 3880SOL    HW111665   3.802   1.193   4.465
 3880SOL    HW211666   3.885   1.212   4.326
 3881SOL     OW11667   4.152   0.424   4.244
 3881SOL    HW111668   4.182   0.352   4.182
 3881SOL    HW211669   4.113   0.384   4.327
 3882SOL     OW11670   5.429   1.487   4.828
 3882SOL    HW111671   5.336   1.462   4.801
 3882SOL    HW211672   5.455   1.437   4.910
 3883SOL     OW11673   4.041   0.547   5.004
 3883SOL    HW111674   4.079   0.488   5.076
 3883SOL    HW211675   4.081   0.521   4.916
 3884SOL     OW11676   4.536   1.586   4.411
 3884SOL    HW111677   4.568   1.596   4.317
 3884SOL    HW211678   4.457   1.524   4.413
 3885SOL     OW11679   5.148   0.214   4.836
 3885SOL    HW111680   5.200   0.149   4.891
 3885SOL    HW211681   5.099   0.277   4.897
 3886SOL     OW11682   4.725   0.034   4.878
 3886SOL    HW111683   4.662  -0.038   4.847
 3886SOL    HW211684   4.818  -0.002   4.878
 3887SOL     OW11685   4.494   1.330   4.025
 3887SOL    HW111686   4.448   1.243   4.042
 3887SOL    HW211687   4.585   1.327   4.066
 3888SOL     OW11688   4.342   1.567   5.008
 3888SOL    HW111689   4.337   1.649   5.065
 3888SOL    HW211690   4.431   1.564   4.963
 3889SOL     OW11691   5.076   0.052   3.892
 3889SOL    HW111692   5.111   0.011   3.808
 3889SOL    HW211693   4.986   0.014   3.912
 3890SOL     OW11694   5.024   0.453   4.415
 3890SOL    HW111695   4.965   0.533   4.419
 3890SOL    HW211696   5.039   0.418   4.508
 3891SOL     OW11697   3.763   1.077   4.024
 3891SOL    HW111698   3.862   1.066   4.015
 3891SOL    HW211699   3.723   0.991   4.056
 3892SOL     OW11700   4.599   1.646   4.061
 3892SOL    HW111701   4.522   1.611   4.007
 3892SOL    HW211702   4.567   1.717   4.123
 3893SOL     OW11703   3.954   2.490   0.113
 3893SOL    HW111704   3.861   2.488   0.150
 3893SOL    HW211705   3.955   2.451   0.021
 3894SOL     OW11706   3.949   2.137   0.996
 3894SOL    HW111707   3.984   2.120   1.088
 3894SOL    HW211708   3.861   2.092   0.984
 3895SOL     OW11709   3.743   2.230   0.647
 3895SOL    HW111710   3.661   2.273   0.686
 3895SOL    HW211711   3.715   2.157   0.584
 3896SOL     OW11712   4.293   3.137   1.165
 3896SOL    HW111713   4.200   3.130   1.128
 3896SOL    HW211714   4.304   3.226   1.209
 3897SOL     OW11715   5.279   3.373   0.703
 3897SOL    HW111716   5.222   3.357   0.784
 3897SOL    HW211717   5.220   3.383   0.623
 3898SOL     OW11718   4.859   2.565   0.717
 3898SOL    HW111719   4.916   2.643   0.692
 3898SOL    HW211720   4.799   2.591   0.793
 3899SOL     OW11721   4.492   3.006   1.023
 3899SOL    HW111722   4.414   3.023   1.083
 3899SOL    HW211723   4.526   3.093   0.987
 3900SOL     OW11724   4.574   2.660   1.823
 3900SOL    HW111725   4.570   2.736   1.888
 3900SOL    HW211726   4.596   2.696   1.732
 3901SOL     OW11727   4.409   2.874   0.665
 3901SOL    HW111728   4.478   2.858   0.735
 3901SOL    HW211729   4.336   2.931   0.703
 3902SOL     OW11730   4.410   3.023   1.803
 3902SOL    HW111731   4.470   3.102   1.817
 3902SOL    HW211732   4.324   3.054   1.762
 3903SOL     OW11733   4.059   3.297   1.061
 3903SOL    HW111734   3.981   3.266   1.008
 3903SOL    HW211735   4.117   3.355   1.004
 3904SOL     OW11736   4.162   2.254   1.499
 3904SOL    HW111737   4.244   2.198   1.508
 3904SOL    HW211738   4.081   2.196   1.503
 3905SOL     OW11739   3.955   3.575   0.483
 3905SOL    HW111740   3.989   3.652   0.537
 3905SOL    HW211741   3.999   3.575   0.393
 3906SOL     OW11742   4.851   3.203   1.690
 3906SOL    HW111743   4.898   3.203   1.778
 3906SOL    HW211744   4.803   3.116   1.679
 3907SOL     OW11745   3.954   3.296   0.538
 3907SOL    HW111746   3.928   3.392   0.538
 3907SOL    HW211747   3.883   3.242   0.583
 3908SOL     OW11748   3.964   2.953   0.886
 3908SOL    HW111749   3.978   2.869   0.938
 3908SOL    HW211750   3.909   3.017   0.941
 3909SOL     OW11751   4.344   3.648   1.439
 3909SOL    HW111752   4.252   3.631   1.474
 3909SOL    HW211753   4.372   3.740   1.465
 3910SOL     OW11754   4.330   2.826   0.123
 3910SOL    HW111755   4.337   2.910   0.069
 3910SOL    HW211756   4.376   2.839   0.211
 3911SOL     OW11757   3.846   2.505   0.563
 3911SOL    HW111758   3.801   2.417   0.580
 3911SOL    HW211759   3.845   2.559   0.647
 3912SOL     OW11760   3.751   3.458   0.117
 3912SOL    HW111761   3.732   3.362   0.138
 3912SOL    HW211762   3.718   3.516   0.192
 3913SOL     OW11763   5.413   2.784   0.612
 3913SOL    HW111764   5.508   2.755   0.620
 3913SOL    HW211765   5.405   2.849   0.537
 3914SOL     OW11766   3.837   2.599   1.597
 3914SOL    HW111767   3.925   2.586   1.642
 3914SOL    HW211768   3.824   2.696   1.575
 3915SOL     OW11769   4.337   3.227   0.726
 3915SOL    HW111770   4.288   3.140   0.735
 3915SOL    HW211771   4.314   3.270   0.639
 3916SOL     OW11772   5.017   3.090   1.423
 3916SOL    HW111773   5.054   3.017   1.365
 3916SOL    HW211774   5.069   3.095   1.508
 3917SOL     OW11775   4.533   1.866   0.502
 3917SOL    HW111776   4.573   1.957   0.493
 3917SOL    HW211777   4.433   1.874   0.508
 3918SOL     OW11778   3.921   2.838   1.264
 3918SOL    HW111779   4.010   2.793   1.250
 3918SOL    HW211780   3.848   2.773   1.245
 3919SOL     OW11781   4.911   3.654   1.616
 3919SOL    HW111782   4.935   3.714   1.540
 3919SOL    HW211783   4.918   3.559   1.586
 3920SOL     OW11784   4.041   2.113   1.801
 3920SOL    HW111785   4.112   2.184   1.807
 3920SOL    HW211786   3.953   2.152   1.829
 3921SOL     OW11787   5.190   3.279   0.953
 3921SOL    HW111788   5.131   3.285   1.033
 3921SOL    HW211789   5.175   3.191   0.907
 3922SOL     OW11790   4.322   2.591   0.270
 3922SOL    HW111791   4.346   2.660   0.202
 3922SOL    HW211792   4.244   2.624   0.324
 3923SOL     OW11793   5.005   2.207   0.944
 3923SOL    HW111794   4.919   2.157   0.931
 3923SOL    HW211795   5.067   2.153   1.000
 3924SOL     OW11796   4.531   2.467   1.465
 3924SOL    HW111797   4.484   2.464   1.554
 3924SOL    HW211798   4.480   2.412   1.399
 3925SOL     OW11799   5.118   2.331   1.674
 3925SOL    HW111800   5.098   2.374   1.762
 3925SOL    HW211801   5.196   2.269   1.683
 3926SOL     OW11802   4.697   2.752   1.572
 3926SOL    HW111803   4.743   2.668   1.543
 3926SOL    HW211804   4.641   2.786   1.497
 3927SOL     OW11805   4.715   2.272   1.242
 3927SOL    HW111806   4.638   2.306   1.296
 3927SOL    HW211807   4.681   2.221   1.163
 3928SOL     OW11808   4.765   2.563   0.429
 3928SOL    HW111809   4.791   2.559   0.525
 3928SOL    HW211810   4.680   2.512   0.415
 3929SOL     OW11811   3.800   2.673   0.789
 3929SOL    HW111812   3.899   2.661   0.798
 3929SOL    HW211813   3.776   2.768   0.810
 3930SOL     OW11814   3.854   3.683   1.571
 3930SOL    HW111815   3.844   3.668   1.670
 3930SOL    HW211816   3.768   3.719   1.535
 3931SOL     OW11817   4.589   2.210   0.195
 3931SOL    HW111818   4.648   2.273   0.146
 3931SOL    HW211819   4.608   2.116   0.166
 3932SOL     OW11820   5.086   3.006   0.545
 3932SOL    HW111821   5.169   2.977   0.497
 3932SOL    HW211822   5.037   3.073   0.489
 3933SOL     OW11823   4.274   2.058   0.885
 3933SOL    HW111824   4.269   2.053   0.985
 3933SOL    HW211825   4.276   2.154   0.856
 3934SOL     OW11826   4.732   3.318   0.477
 3934SOL    HW111827   4.686   3.390   0.425
 3934SOL    HW211828   4.728   3.338   0.575
 3935SOL     OW11829   4.075   3.663   0.853
 3935SOL    HW111830   4.125   3.577   0.859
 3935SOL    HW211831   4.140   3.740   0.850
 3936SOL     OW11832   4.951   3.412   1.506
 3936SOL    HW111833   4.957   3.335   1.570
 3936SOL    HW211834   4.899   3.386   1.426
 3937SOL     OW11835   4.045   2.805   0.242
 3937SOL    HW111836   4.127   2.844   0.200
 3937SOL    HW211837   4.018   2.723   0.193
 3938SOL     OW11838   4.185   3.128   1.727
 3938SOL    HW111839   4.135   3.129   1.641
 3938SOL    HW211840   4.122   3.110   1.803
 3939SOL     OW11841   4.835   3.638   0.237
 3939SOL    HW111842   4.775   3.576   0.287
 3939SOL    HW211843   4.866   3.594   0.152
 3940SOL     OW11844   3.926   2.147   1.498
 3940SOL    HW111845   3.846   2.207   1.485
 3940SOL    HW211846   3.916   2.098   1.584
 3941SOL     OW11847   4.188   3.605   0.323
 3941SOL    HW111848   4.221   3.644   0.409
 3941SOL    HW211849   4.264   3.598   0.258
 3942SOL     OW11850   5.124   1.969   0.426
 3942SOL    HW111851   5.100   1.932   0.336
 3942SOL    HW211852   5.223   1.985   0.430
 3943SOL     OW11853   3.973   3.647   1.241
 3943SOL    HW111854   4.030   3.582   1.291
 3943SOL    HW211855   3.957   3.614   1.148
 3944SOL     OW11856   4.664   3.560   0.904
 3944SOL    HW111857   4.744   3.503   0.925
 3944SOL    HW211858   4.615   3.520   0.827
 3945SOL     OW11859   4.106   2.562   0.480
 3945SOL    HW111860   4.151   2.472   0.477
 3945SOL    HW211861   4.012   2.551   0.513
 3946SOL     OW11862   4.338   1.984   0.117
 3946SOL    HW111863   4.436   1.962   0.124
 3946SOL    HW211864   4.307   1.967   0.024
 3947SOL     OW11865   4.505   2.126   1.749
 3947SOL    HW111866   4.572   2.065   1.792
 3947SOL    HW211867   4.432   2.145   1.814
 3948SOL     OW11868   4.612   3.376   1.195
 3948SOL    HW111869   4.589   3.351   1.101
 3948SOL    HW211870   4.673   3.307   1.234
 3949SOL     OW11871   5.075   2.452   1.433
 3949SOL    HW111872   5.103   2.409   1.518
 3949SOL    HW211873   5.100   2.548   1.434
 3950SOL     OW11874   4.527   3.264   0.924
 3950SOL    HW111875   4.617   3.278   0.882
 3950SOL    HW211876   4.456   3.266   0.853
 3951SOL     OW11877   4.646   2.365   0.899
 3951SOL    HW111878   4.621   2.356   0.803
 3951SOL    HW211879   4.694   2.283   0.930
 3952SOL     OW11880   4.263   1.926   0.512
 3952SOL    HW111881   4.182   1.927   0.570
 3952SOL    HW211882   4.266   2.009   0.457
 3953SOL     OW11883   5.158   3.050   0.041
 3953SOL    HW111884   5.190   2.974   0.098
 3953SOL    HW211885   5.066   3.077   0.071
 3954SOL     OW11886   4.021   1.897   0.171
 3954SOL    HW111887   4.070   1.981   0.150
 3954SOL    HW211888   4.083   1.832   0.216
 3955SOL     OW11889   4.659   2.098   0.480
 3955SOL    HW111890   4.611   2.139   0.402
 3955SOL    HW211891   4.758   2.096   0.461
 3956SOL     OW11892   4.800   2.545   1.464
 3956SOL    HW111893   4.720   2.484   1.467
 3956SOL    HW211894   4.881   2.492   1.440
 3957SOL     OW11895   4.951   3.432   0.793
 3957SOL    HW111896   4.972   3.506   0.728
 3957SOL    HW211897   5.019   3.432   0.866
 3958SOL     OW11898   4.183   3.014   0.741
 3958SOL    HW111899   4.112   2.987   0.806
 3958SOL    HW211900   4.157   2.986   0.648
 3959SOL     OW11901   4.995   3.659   0.591
 3959SOL    HW111902   5.039   3.723   0.527
 3959SOL    HW211903   4.945   3.711   0.661
 3960SOL     OW11904   4.756   2.411   0.016
 3960SOL    HW111905   4.715   2.493  -0.023
 3960SOL    HW211906   4.820   2.437   0.089
 3961SOL     OW11907   3.802   2.418   1.386
 3961SOL    HW111908   3.894   2.417   1.345
 3961SOL    HW211909   3.796   2.492   1.453
 3962SOL     OW11910   4.285   2.084   1.147
 3962SOL    HW111911   4.323   2.000   1.184
 3962SOL    HW211912   4.197   2.103   1.191
 3963SOL     OW11913   4.590   2.316   0.642
 3963SOL    HW111914   4.558   2.388   0.580
 3963SOL    HW211915   4.614   2.235   0.589
 3964SOL     OW11916   4.741   1.901   0.753
 3964SOL    HW111917   4.669   1.906   0.684
 3964SOL    HW211918   4.717   1.832   0.822
 3965SOL     OW11919   5.153   3.035   0.867
 3965SOL    HW111920   5.098   2.951   0.860
 3965SOL    HW211921   5.179   3.064   0.775
 3966SOL     OW11922   4.212   3.247   0.174
 3966SOL    HW111923   4.125   3.232   0.221
 3966SOL    HW211924   4.195   3.273   0.079
 3967SOL     OW11925   5.114   2.437   0.078
 3967SOL    HW111926   5.060   2.416   0.159
 3967SOL    HW211927   5.205   2.396   0.087
 3968SOL     OW11928   4.251   2.118   0.328
 3968SOL    HW111929   4.278   2.059   0.253
 3968SOL    HW211930   4.251   2.213   0.297
 3969SOL     OW11931   4.788   3.209   1.340
 3969SOL    HW111932   4.708   3.186   1.395
 3969SOL    HW211933   4.871   3.183   1.389
 3970SOL     OW11934   5.316   3.491   1.625
 3970SOL    HW111935   5.343   3.525   1.535
 3970SOL    HW211936   5.395   3.453   1.671
 3971SOL     OW11937   4.835   3.057   1.100
 3971SOL    HW111938   4.795   3.101   1.181
 3971SOL    HW211939   4.794   3.094   1.017
 3972SOL     OW11940   4.639   1.951   1.402
 3972SOL    HW111941   4.664   1.931   1.307
 3972SOL    HW211942   4.711   2.007   1.444
 3973SOL     OW11943   4.704   2.978   1.719
 3973SOL    HW111944   4.605   2.984   1.729
 3973SOL    HW211945   4.727   2.898   1.663
 3974SOL     OW11946   4.429   2.912   0.368
 3974SOL    HW111947   4.415   2.919   0.467
 3974SOL    HW211948   4.513   2.861   0.350
 3975SOL     OW11949   4.134   2.675   1.251
 3975SOL    HW111950   4.220   2.687   1.301
 3975SOL    HW211951   4.092   2.588   1.278
 3976SOL     OW11952   4.998   2.248   1.262
 3976SOL    HW111953   5.019   2.322   1.326
 3976SOL    HW211954   4.909   2.265   1.219
 3977SOL     OW11955   3.788   3.426   1.331
 3977SOL    HW111956   3.742   3.508   1.297
 3977SOL    HW211957   3.886   3.445   1.340
 3978SOL     OW11958   4.091   2.962   0.501
 3978SOL    HW111959   4.084   3.045   0.445
 3978SOL    HW211960   4.095   2.882   0.441
 3979SOL     OW11961   4.290   2.399   0.865
 3979SOL    HW111962   4.302   2.465   0.791
 3979SOL    HW211963   4.336   2.433   0.948
 3980SOL     OW11964   4.976   3.210   0.388
 3980SOL    HW111965   5.026   3.287   0.428
 3980SOL    HW211966   4.881   3.212   0.420
 3981SOL     OW11967   4.996   3.307   1.142
 3981SOL    HW111968   5.043   3.320   1.229
 3981SOL    HW211969   4.930   3.233   1.151
 3982SOL     OW11970   4.078   3.372   1.329
 3982SOL    HW111971   4.057   3.328   1.242
 3982SOL    HW211972   4.175   3.398   1.332
 3983SOL     OW11973   4.126   2.613   1.598
 3983SOL    HW111974   4.194   2.668   1.551
 3983SOL    HW211975   4.166   2.525   1.625
 3984SOL     OW11976   4.737   1.967   1.770
 3984SOL    HW111977   4.743   2.052   1.718
 3984SOL    HW211978   4.769   1.891   1.713
 3985SOL     OW11979   4.228   1.912   1.740
 3985SOL    HW111980   4.186   1.855   1.670
 3985SOL    HW211981   4.162   1.981   1.772
 3986SOL     OW11982   4.297   2.732   1.029
 3986SOL    HW111983   4.341   2.821   1.020
 3986SOL    HW211984   4.234   2.732   1.106
 3987SOL     OW11985   5.084   2.724   1.045
 3987SOL    HW111986   5.009   2.724   0.979
 3987SOL    HW211987   5.121   2.632   1.054
 3988SOL     OW11988   4.933   2.387   0.275
 3988SOL    HW111989   4.946   2.303   0.329
 3988SOL    HW211990   4.904   2.461   0.335
 3989SOL     OW11991   4.031   2.075   1.231
 3989SOL    HW111992   4.008   2.112   1.321
 3989SOL    HW211993   4.001   1.980   1.225
 3990SOL     OW11994   3.761   3.172   1.282
 3990SOL    HW111995   3.814   3.123   1.350
 3990SOL    HW211996   3.783   3.270   1.287
 3991SOL     OW11997   4.456   2.496   1.064
 3991SOL    HW111998   4.515   2.470   0.988
 3991SOL    HW211999   4.428   2.592   1.053
 3992SOL     OW12000   4.031   1.925   0.618
 3992SOL    HW112001   4.020   2.019   0.651
 3992SOL    HW212002   4.026   1.862   0.695
 3993SOL     OW12003   5.346   2.229   0.374
 3993SOL    HW112004   5.348   2.153   0.438
 3993SOL    HW212005   5.298   2.306   0.414
 3994SOL     OW12006   4.747   2.628   0.966
 3994SOL    HW112007   4.762   2.649   1.062
 3994SOL    HW212008   4.717   2.533   0.957
 3995SOL     OW12009   4.704   3.435   1.700
 3995SOL    HW112010   4.684   3.479   1.612
 3995SOL    HW212011   4.743   3.344   1.684
 3996SOL     OW12012   4.074   2.760   1.804
 3996SOL    HW112013   4.150   2.804   1.852
 3996SOL    HW212014   4.109   2.713   1.722
 3997SOL     OW12015   5.027   2.700   0.042
 3997SOL    HW112016   5.061   2.607   0.057
 3997SOL    HW212017   5.045   2.727  -0.053
 3998SOL     OW12018   4.792   3.195   0.849
 3998SOL    HW112019   4.799   3.111   0.794
 3998SOL    HW212020   4.854   3.264   0.813
 3999SOL     OW12021   4.043   2.672   0.949
 3999SOL    HW112022   4.136   2.708   0.954
 3999SOL    HW212023   4.037   2.587   1.001
 4000SOL     OW12024   4.063   2.371   1.006
 4000SOL    HW112025   4.011   2.288   0.989
 4000SOL    HW212026   4.140   2.376   0.942
 4001SOL     OW12027   4.862   2.242   1.678
 4001SOL    HW112028   4.817   2.305   1.742
 4001SOL    HW212029   4.955   2.273   1.661
 4002SOL     OW12030   4.884   2.069   1.477
 4002SOL    HW112031   4.884   2.133   1.554
 4002SOL    HW212032   4.912   2.117   1.394
 4003SOL     OW12033   3.732   3.188   0.200
 4003SOL    HW112034   3.639   3.209   0.169
 4003SOL    HW212035   3.742   3.089   0.213
 4004SOL     OW12036   3.812   3.663   0.927
 4004SOL    HW112037   3.770   3.577   0.900
 4004SOL    HW212038   3.906   3.666   0.893
 4005SOL     OW12039   4.228   3.430   0.910
 4005SOL    HW112040   4.294   3.504   0.919
 4005SOL    HW212041   4.272   3.351   0.868
 4006SOL     OW12042   4.726   2.658   1.238
 4006SOL    HW112043   4.767   2.626   1.324
 4006SOL    HW212044   4.630   2.631   1.235
 4007SOL     OW12045   3.764   2.406   1.114
 4007SOL    HW112046   3.849   2.373   1.073
 4007SOL    HW212047   3.777   2.421   1.212
 4008SOL     OW12048   3.913   2.382   1.722
 4008SOL    HW112049   3.972   2.342   1.652
 4008SOL    HW212050   3.855   2.453   1.681
 4009SOL     OW12051   5.093   2.812   1.660
 4009SOL    HW112052   5.132   2.901   1.680
 4009SOL    HW212053   5.103   2.792   1.563
 4010SOL     OW12054   4.539   2.434   0.325
 4010SOL    HW112055   4.546   2.345   0.279
 4010SOL    HW212056   4.445   2.468   0.317
 4011SOL     OW12057   3.976   3.426   1.744
 4011SOL    HW112058   3.946   3.483   1.820
 4011SOL    HW212059   3.969   3.329   1.770
 4012SOL     OW12060   4.395   2.326   1.269
 4012SOL    HW112061   4.361   2.237   1.239
 4012SOL    HW212062   4.421   2.380   1.189
 4013SOL     OW12063   4.654   3.540   1.465
 4013SOL    HW112064   4.630   3.522   1.370
 4013SOL    HW212065   4.684   3.634   1.475
 4014SOL     OW12066   4.197   2.362   0.191
 4014SOL    HW112067   4.258   2.442   0.195
 4014SOL    HW212068   4.102   2.393   0.198
 4015SOL     OW12069   3.883   2.999   1.466
 4015SOL    HW112070   3.905   2.938   1.542
 4015SOL    HW212071   3.893   2.950   1.380
 4016SOL     OW12072   5.071   2.921   1.234
 4016SOL    HW112073   5.095   2.858   1.160
 4016SOL    HW212074   4.981   2.961   1.216
 4017SOL     OW12075   5.026   2.717   0.309
 4017SOL    HW112076   4.940   2.686   0.351
 4017SOL    HW212077   5.022   2.703   0.210
 4018SOL     OW12078   4.976   3.593   1.128
 4018SOL    HW112079   5.060   3.598   1.074
 4018SOL    HW212080   4.953   3.497   1.146
 4019SOL     OW12081   3.807   3.120   1.022
 4019SOL    HW112082   3.802   3.119   1.122
 4019SOL    HW212083   3.724   3.079   0.984
 4020SOL     OW12084   4.412   3.524   1.716
 4020SOL    HW112085   4.356   3.605   1.725
 4020SOL    HW212086   4.464   3.528   1.630
 4021SOL     OW12087   4.627   1.948   0.133
 4021SOL    HW112088   4.678   1.949   0.047
 4021SOL    HW212089   4.683   1.906   0.204
 4022SOL     OW12090   5.450   1.997   0.523
 4022SOL    HW112091   5.523   1.980   0.456
 4022SOL    HW212092   5.419   1.910   0.561
 4023SOL     OW12093   5.112   3.435   0.477
 4023SOL    HW112094   5.179   3.447   0.403
 4023SOL    HW212095   5.072   3.524   0.500
 4024SOL     OW12096   3.854   3.656   1.851
 4024SOL    HW112097   3.813   3.582   1.904
 4024SOL    HW212098   3.918   3.707   1.909
 4025SOL     OW12099   5.004   2.789   0.672
 4025SOL    HW112100   5.064   2.708   0.674
 4025SOL    HW212101   5.044   2.858   0.612
 4026SOL     OW12102   4.554   3.135   1.422
 4026SOL    HW112103   4.549   3.168   1.517
 4026SOL    HW212104   4.468   3.154   1.376
 4027SOL     OW12105   4.396   3.478   0.154
 4027SOL    HW112106   4.405   3.488   0.055
 4027SOL    HW212107   4.356   3.389   0.175
 4028SOL     OW12108   3.987   2.188   0.720
 4028SOL    HW112109   3.908   2.239   0.686
 4028SOL    HW212110   3.978   2.173   0.818
 4029SOL     OW12111   4.918   3.474   0.031
 4029SOL    HW112112   4.924   3.381   0.068
 4029SOL    HW212113   4.859   3.474  -0.049
 4030SOL     OW12114   4.546   2.864   1.372
 4030SOL    HW112115   4.586   2.863   1.280
 4030SOL    HW212116   4.556   2.956   1.412
 4031SOL     OW12117   4.640   2.772   0.291
 4031SOL    HW112118   4.703   2.810   0.223
 4031SOL    HW212119   4.680   2.689   0.330
 4032SOL     OW12120   4.096   3.150   1.490
 4032SOL    HW112121   4.083   3.243   1.456
 4032SOL    HW212122   4.012   3.098   1.477
 4033SOL     OW12123   4.763   2.960   0.696
 4033SOL    HW112124   4.693   2.913   0.750
 4033SOL    HW212125   4.822   2.892   0.653
 4034SOL     OW12126   4.738   2.098   0.971
 4034SOL    HW112127   4.730   2.062   0.878
 4034SOL    HW212128   4.736   2.022   1.036
 4035SOL     OW12129   4.314   3.349   0.491
 4035SOL    HW112130   4.356   3.291   0.421
 4035SOL    HW212131   4.270   3.428   0.447
 4036SOL     OW12132   3.979   3.210   0.290
 4036SOL    HW112133   3.883   3.211   0.263
 4036SOL    HW212134   3.991   3.263   0.374
 4037SOL     OW12135   3.829   2.875   1.726
 4037SOL    HW112136   3.752   2.842   1.780
 4037SOL    HW212137   3.914   2.845   1.768
 4038SOL     OW12138   4.396   2.065   1.489
 4038SOL    HW112139   4.486   2.049   1.449
 4038SOL    HW212140   4.404   2.070   1.588
 4039SOL     OW12141   3.799   2.207   0.033
 4039SOL    HW112142   3.707   2.179   0.004
 4039SOL    HW212143   3.830   2.284  -0.023
 4040SOL     OW12144   5.164   2.718   1.398
 4040SOL    HW112145   5.107   2.770   1.335
 4040SOL    HW212146   5.260   2.730   1.374
 4041SOL     OW12147   3.796   2.028   0.318
 4041SOL    HW112148   3.779   2.111   0.264
 4041SOL    HW212149   3.886   1.991   0.296
 4042SOL     OW12150   4.907   3.197   0.119
 4042SOL    HW112151   4.808   3.186   0.121
 4042SOL    HW212152   4.941   3.212   0.212
 4043SOL     OW12153   4.337   2.704   1.431
 4043SOL    HW112154   4.393   2.785   1.414
 4043SOL    HW212155   4.396   2.624   1.434
 4044SOL     OW12156   4.440   2.427   1.708
 4044SOL    HW112157   4.459   2.492   1.782
 4044SOL    HW212158   4.500   2.347   1.717
 4045SOL     OW12159   5.174   3.082   1.633
 4045SOL    HW112160   5.165   3.072   1.732
 4045SOL    HW212161   5.270   3.075   1.607
 4046SOL     OW12162   4.114   3.603   1.560
 4046SOL    HW112163   4.023   3.644   1.558
 4046SOL    HW212164   4.107   3.509   1.592
 4047SOL     OW12165   4.949   2.187   0.449
 4047SOL    HW112166   5.014   2.113   0.438
 4047SOL    HW212167   4.969   2.237   0.533
 4048SOL     OW12168   4.318   2.607   0.652
 4048SOL    HW112169   4.368   2.692   0.633
 4048SOL    HW212170   4.230   2.609   0.604
 4049SOL     OW12171   4.583   3.236   0.016
 4049SOL    HW112172   4.537   3.251   0.104
 4049SOL    HW212173   4.627   3.321  -0.014
 4050SOL     OW12174   4.385   3.652   0.953
 4050SOL    HW112175   4.339   3.740   0.940
 4050SOL    HW212176   4.484   3.664   0.946
 4051SOL     OW12177   4.583   2.818   0.861
 4051SOL    HW112178   4.637   2.749   0.909
 4051SOL    HW212179   4.551   2.887   0.927
 4052SOL     OW12180   4.807   2.846   0.087
 4052SOL    HW112181   4.784   2.899   0.005
 4052SOL    HW212182   4.888   2.790   0.068
 4053SOL     OW12183   3.945   3.176   1.844
 4053SOL    HW112184   3.880   3.103   1.823
 4053SOL    HW212185   3.949   3.190   1.942
 4054SOL     OW12186   3.803   3.102   0.653
 4054SOL    HW112187   3.802   3.055   0.741
 4054SOL    HW212188   3.885   3.074   0.602
 4055SOL     OW12189   4.396   3.253   1.624
 4055SOL    HW112190   4.318   3.203   1.662
 4055SOL    HW212191   4.393   3.348   1.655
 4056SOL     OW12192   4.152   2.286   0.520
 4056SOL    HW112193   4.182   2.214   0.458
 4056SOL    HW212194   4.113   2.246   0.603
 4057SOL     OW12195   5.429   3.349   1.104
 4057SOL    HW112196   5.336   3.324   1.077
 4057SOL    HW212197   5.455   3.299   1.186
 4058SOL     OW12198   4.041   2.409   1.280
 4058SOL    HW112199   4.079   2.350   1.352
 4058SOL    HW212200   4.081   2.383   1.192
 4059SOL     OW12201   4.536   3.448   0.687
 4059SOL    HW112202   4.568   3.458   0.593
 4059SOL    HW212203   4.457   3.386   0.689
 4060SOL     OW12204   5.148   2.076   1.112
 4060SOL    HW112205   5.200   2.011   1.167
 4060SOL    HW212206   5.099   2.139   1.173
 4061SOL     OW12207   4.725   1.896   1.154
 4061SOL    HW112208   4.662   1.824   1.123
 4061SOL    HW212209   4.818   1.860   1.154
 4062SOL     OW12210   4.494   3.192   0.301
 4062SOL    HW112211   4.448   3.105   0.318
 4062SOL    HW212212   4.585   3.189   0.342
 4063SOL     OW12213   4.342   3.429   1.284
 4063SOL    HW112214   4.337   3.511   1.341
 4063SOL    HW212215   4.431   3.426   1.239
 4064SOL     OW12216   5.076   1.914   0.168
 4064SOL    HW112217   5.111   1.873   0.084
 4064SOL    HW212218   4.986   1.876   0.188
 4065SOL     OW12219   5.024   2.315   0.691
 4065SOL    HW112220   4.965   2.395   0.695
 4065SOL    HW212221   5.039   2.280   0.784
 4066SOL     OW12222   3.763   2.939   0.300
 4066SOL    HW112223   3.862   2.928   0.291
 4066SOL    HW212224   3.723   2.853   0.332
 4067SOL     OW12225   4.599   3.508   0.337
 4067SOL    HW112226   4.522   3.473   0.283
 4067SOL    HW212227   4.567   3.579   0.399
 4068SOL     OW12228   3.954   2.490   1.975
 4068SOL    HW112229   3.861   2.488   2.012
 4068SOL    HW212230   3.955   2.451   1.883
 4069SOL     OW12231   3.949   2.137   2.858
 4069SOL    HW112232   3.984   2.120   2.950
 4069SOL    HW212233   3.861   2.092   2.846
 4070SOL     OW12234   3.743   2.230   2.509
 4070SOL    HW112235   3.661   2.273   2.548
 4070SOL    HW212236   3.715   2.157   2.446
 4071SOL     OW12237   4.293   3.137   3.027
 4071SOL    HW112238   4.200   3.130   2.990
 4071SOL    HW212239   4.304   3.226   3.071
 4072SOL     OW12240   5.279   3.373   2.565
 4072SOL    HW112241   5.222   3.357   2.646
 4072SOL    HW212242   5.220   3.383   2.485
 4073SOL     OW12243   4.859   2.565   2.579
 4073SOL    HW112244   4.916   2.643   2.554
 4073SOL    HW212245   4.799   2.591   2.655
 4074SOL     OW12246   4.492   3.006   2.885
 4074SOL    HW112247   4.414   3.023   2.945
 4074SOL    HW212248   4.526   3.093   2.849
 4075SOL     OW12249   4.574   2.660   3.685
 4075SOL    HW112250   4.570   2.736   3.750
 4075SOL    HW212251   4.596   2.696   3.594
 4076SOL     OW12252   4.409   2.874   2.527
 4076SOL    HW112253   4.478   2.858   2.597
 4076SOL    HW212254   4.336   2.931   2.565
 4077SOL     OW12255   4.410   3.023   3.665
 4077SOL    HW112256   4.470   3.102   3.679
 4077SOL    HW212257   4.324   3.054   3.624
 4078SOL     OW12258   4.059   3.297   2.923
 4078SOL    HW112259   3.981   3.266   2.870
 4078SOL    HW212260   4.117   3.355   2.866
 4079SOL     OW12261   4.162   2.254   3.361
 4079SOL    HW112262   4.244   2.198   3.370
 4079SOL    HW212263   4.081   2.196   3.365
 4080SOL     OW12264   3.955   3.575   2.345
 4080SOL    HW112265   3.989   3.652   2.399
 4080SOL    HW212266   3.999   3.575   2.255
 4081SOL     OW12267   4.851   3.203   3.552
 4081SOL    HW112268   4.898   3.203   3.640
 4081SOL    HW212269   4.803   3.116   3.541
 4082SOL     OW12270   3.954   3.296   2.400
 4082SOL    HW112271   3.928   3.392   2.400
 4082SOL    HW212272   3.883   3.242   2.445
 4083SOL     OW12273   3.964   2.953   2.748
 4083SOL    HW112274   3.978   2.869   2.800
 4083SOL    HW212275   3.909   3.017   2.803
 4084SOL     OW12276   4.344   3.648   3.301
 4084SOL    HW112277   4.252   3.631   3.336
 4084SOL    HW212278   4.372   3.740   3.327
 4085SOL     OW12279   4.330   2.826   1.985
 4085SOL    HW112280   4.337   2.910   1.931
 4085SOL    HW212281   4.376   2.839   2.073
 4086SOL     OW12282   3.846   2.505   2.425
 4086SOL    HW112283   3.801   2.417   2.442
 4086SOL    HW212284   3.845   2.559   2.509
 4087SOL     OW12285   3.751   3.458   1.979
 4087SOL    HW112286   3.732   3.362   2.000
 4087SOL    HW212287   3.718   3.516   2.054
 4088SOL     OW12288   5.413   2.784   2.474
 4088SOL    HW112289   5.508   2.755   2.482
 4088SOL    HW212290   5.405   2.849   2.399
 4089SOL     OW12291   3.837   2.599   3.459
 4089SOL    HW112292   3.925   2.586   3.504
 4089SOL    HW212293   3.824   2.696   3.437
 4090SOL     OW12294   4.337   3.227   2.588
 4090SOL    HW112295   4.288   3.140   2.597
 4090SOL    HW212296   4.314   3.270   2.501
 4091SOL     OW12297   5.017   3.090   3.285
 4091SOL    HW112298   5.054   3.017   3.227
 4091SOL    HW212299   5.069   3.095   3.370
 4092SOL     OW12300   4.533   1.866   2.364
 4092SOL    HW112301   4.573   1.957   2.355
 4092SOL    HW212302   4.433   1.874   2.370
 4093SOL     OW12303   3.921   2.838   3.126
 4093SOL    HW112304   4.010   2.793   3.112
 4093SOL    HW212305   3.848   2.773   3.107
 4094SOL     OW12306   4.911   3.654   3.478
 4094SOL    HW112307   4.935   3.714   3.402
 4094SOL    HW212308   4.918   3.559   3.448
 4095SOL     OW12309   4.041   2.113   3.663
 4095SOL    HW112310   4.112   2.184   3.669
 4095SOL    HW212311   3.953   2.152   3.691
 4096SOL     OW12312   5.190   3.279   2.815
 4096SOL    HW112313   5.131   3.285   2.895
 4096SOL    HW212314   5.175   3.191   2.769
 4097SOL     OW12315   4.322   2.591   2.132
 4097SOL    HW112316   4.346   2.660   2.064
 4097SOL    HW212317   4.244   2.624   2.186
 4098SOL     OW12318   5.005   2.207   2.806
 4098SOL    HW112319   4.919   2.157   2.793
 4098SOL    HW212320   5.067   2.153   2.862
 4099SOL     OW12321   4.531   2.467   3.327
 4099SOL    HW112322   4.484   2.464   3.416
 4099SOL    HW212323   4.480   2.412   3.261
 4100SOL     OW12324   5.118   2.331   3.536
 4100SOL    HW112325   5.098   2.374   3.624
 4100SOL    HW212326   5.196   2.269   3.545
 4101SOL     OW12327   4.697   2.752   3.434
 4101SOL    HW112328   4.743   2.668   3.405
 4101SOL    HW212329   4.641   2.786   3.359
 4102SOL     OW12330   4.715   2.272   3.104
 4102SOL    HW112331   4.638   2.306   3.158
 4102SOL    HW212332   4.681   2.221   3.025
 4103SOL     OW12333   4.765   2.563   2.291
 4103SOL    HW112334   4.791   2.559   2.387
 4103SOL    HW212335   4.680   2.512   2.277
 4104SOL     OW12336   3.800   2.673   2.651
 4104SOL    HW112337   3.899   2.661   2.660
 4104SOL    HW212338   3.776   2.768   2.672
 4105SOL     OW12339   3.854   3.683   3.433
 4105SOL    HW112340   3.844   3.668   3.532
 4105SOL    HW212341   3.768   3.719   3.397
 4106SOL     OW12342   4.589   2.210   2.057
 4106SOL    HW112343   4.648   2.273   2.008
 4106SOL    HW212344   4.608   2.116   2.028
 4107SOL     OW12345   5.086   3.006   2.407
 4107SOL    HW112346   5.169   2.977   2.359
 4107SOL    HW212347   5.037   3.073   2.351
 4108SOL     OW12348   4.274   2.058   2.747
 4108SOL    HW112349   4.269   2.053   2.847
 4108SOL    HW212350   4.276   2.154   2.718
 4109SOL     OW12351   4.732   3.318   2.339
 4109SOL    HW112352   4.686   3.390   2.287
 4109SOL    HW212353   4.728   3.338   2.437
 4110SOL     OW12354   4.075   3.663   2.715
 4110SOL    HW112355   4.125   3.577   2.721
 4110SOL    HW212356   4.140   3.740   2.712
 4111SOL     OW12357   4.951   3.412   3.368
 4111SOL    HW112358   4.957   3.335   3.432
 4111SOL    HW212359   4.899   3.386   3.288
 4112SOL     OW12360   4.045   2.805   2.104
 4112SOL    HW112361   4.127   2.844   2.062
 4112SOL    HW212362   4.018   2.723   2.055
 4113SOL     OW12363   4.185   3.128   3.589
 4113SOL    HW112364   4.135   3.129   3.503
 4113SOL    HW212365   4.122   3.110   3.665
 4114SOL     OW12366   4.835   3.638   2.099
 4114SOL    HW112367   4.775   3.576   2.149
 4114SOL    HW212368   4.866   3.594   2.014
 4115SOL     OW12369   3.926   2.147   3.360
 4115SOL    HW112370   3.846   2.207   3.347
 4115SOL    HW212371   3.916   2.098   3.446
 4116SOL     OW12372   4.188   3.605   2.185
 4116SOL    HW112373   4.221   3.644   2.271
 4116SOL    HW212374   4.264   3.598   2.120
 4117SOL     OW12375   5.124   1.969   2.288
 4117SOL    HW112376   5.100   1.932   2.198
 4117SOL    HW212377   5.223   1.985   2.292
 4118SOL     OW12378   3.973   3.647   3.103
 4118SOL    HW112379   4.030   3.582   3.153
 4118SOL    HW212380   3.957   3.614   3.010
 4119SOL     OW12381   4.664   3.560   2.766
 4119SOL    HW112382   4.744   3.503   2.787
 4119SOL    HW212383   4.615   3.520   2.689
 4120SOL     OW12384   4.106   2.562   2.342
 4120SOL    HW112385   4.151   2.472   2.339
 4120SOL    HW212386   4.012   2.551   2.375
 4121SOL     OW12387   4.338   1.984   1.979
 4121SOL    HW112388   4.436   1.962   1.986
 4121SOL    HW212389   4.307   1.967   1.886
 4122SOL     OW12390   4.505   2.126   3.611
 4122SOL    HW112391   4.572   2.065   3.654
 4122SOL    HW212392   4.432   2.145   3.676
 4123SOL     OW12393   4.612   3.376   3.057
 4123SOL    HW112394   4.589   3.351   2.963
 4123SOL    HW212395   4.673   3.307   3.096
 4124SOL     OW12396   5.075   2.452   3.295
 4124SOL    HW112397   5.103   2.409   3.380
 4124SOL    HW212398   5.100   2.548   3.296
 4125SOL     OW12399   4.527   3.264   2.786
 4125SOL    HW112400   4.617   3.278   2.744
 4125SOL    HW212401   4.456   3.266   2.715
 4126SOL     OW12402   4.646   2.365   2.761
 4126SOL    HW112403   4.621   2.356   2.665
 4126SOL    HW212404   4.694   2.283   2.792
 4127SOL     OW12405   4.263   1.926   2.374
 4127SOL    HW112406   4.182   1.927   2.432
 4127SOL    HW212407   4.266   2.009   2.319
 4128SOL     OW12408   5.158   3.050   1.903
 4128SOL    HW112409   5.190   2.974   1.960
 4128SOL    HW212410   5.066   3.077   1.933
 4129SOL     OW12411   4.021   1.897   2.033
 4129SOL    HW112412   4.070   1.981   2.012
 4129SOL    HW212413   4.083   1.832   2.078
 4130SOL     OW12414   4.659   2.098   2.342
 4130SOL    HW112415   4.611   2.139   2.264
 4130SOL    HW212416   4.758   2.096   2.323
 4131SOL     OW12417   4.800   2.545   3.326
 4131SOL    HW112418   4.720   2.484   3.329
 4131SOL    HW212419   4.881   2.492   3.302
 4132SOL     OW12420   4.951   3.432   2.655
 4132SOL    HW112421   4.972   3.506   2.590
 4132SOL    HW212422   5.019   3.432   2.728
 4133SOL     OW12423   4.183   3.014   2.603
 4133SOL    HW112424   4.112   2.987   2.668
 4133SOL    HW212425   4.157   2.986   2.510
 4134SOL     OW12426   4.995   3.659   2.453
 4134SOL    HW112427   5.039   3.723   2.389
 4134SOL    HW212428   4.945   3.711   2.523
 4135SOL     OW12429   4.756   2.411   1.878
 4135SOL    HW112430   4.715   2.493   1.839
 4135SOL    HW212431   4.820   2.437   1.951
 4136SOL     OW12432   3.802   2.418   3.248
 4136SOL    HW112433   3.894   2.417   3.207
 4136SOL    HW212434   3.796   2.492   3.315
 4137SOL     OW12435   4.285   2.084   3.009
 4137SOL    HW112436   4.323   2.000   3.046
 4137SOL    HW212437   4.197   2.103   3.053
 4138SOL     OW12438   4.590   2.316   2.504
 4138SOL    HW112439   4.558   2.388   2.442
 4138SOL    HW212440   4.614   2.235   2.451
 4139SOL     OW12441   4.741   1.901   2.615
 4139SOL    HW112442   4.669   1.906   2.546
 4139SOL    HW212443   4.717   1.832   2.684
 4140SOL     OW12444   5.153   3.035   2.729
 4140SOL    HW112445   5.098   2.951   2.722
 4140SOL    HW212446   5.179   3.064   2.637
 4141SOL     OW12447   4.212   3.247   2.036
 4141SOL    HW112448   4.125   3.232   2.083
 4141SOL    HW212449   4.195   3.273   1.941
 4142SOL     OW12450   5.114   2.437   1.940
 4142SOL    HW112451   5.060   2.416   2.021
 4142SOL    HW212452   5.205   2.396   1.949
 4143SOL     OW12453   4.251   2.118   2.190
 4143SOL    HW112454   4.278   2.059   2.115
 4143SOL    HW212455   4.251   2.213   2.159
 4144SOL     OW12456   4.788   3.209   3.202
 4144SOL    HW112457   4.708   3.186   3.257
 4144SOL    HW212458   4.871   3.183   3.251
 4145SOL     OW12459   5.316   3.491   3.487
 4145SOL    HW112460   5.343   3.525   3.397
 4145SOL    HW212461   5.395   3.453   3.533
 4146SOL     OW12462   4.835   3.057   2.962
 4146SOL    HW112463   4.795   3.101   3.043
 4146SOL    HW212464   4.794   3.094   2.879
 4147SOL     OW12465   4.639   1.951   3.264
 4147SOL    HW112466   4.664   1.931   3.169
 4147SOL    HW212467   4.711   2.007   3.306
 4148SOL     OW12468   4.704   2.978   3.581
 4148SOL    HW112469   4.605   2.984   3.591
 4148SOL    HW212470   4.727   2.898   3.525
 4149SOL     OW12471   4.429   2.912   2.230
 4149SOL    HW112472   4.415   2.919   2.329
 4149SOL    HW212473   4.513   2.861   2.212
 4150SOL     OW12474   4.134   2.675   3.113
 4150SOL    HW112475   4.220   2.687   3.163
 4150SOL    HW212476   4.092   2.588   3.140
 4151SOL     OW12477   4.998   2.248   3.124
 4151SOL    HW112478   5.019   2.322   3.188
 4151SOL    HW212479   4.909   2.265   3.081
 4152SOL     OW12480   3.788   3.426   3.193
 4152SOL    HW112481   3.742   3.508   3.159
 4152SOL    HW212482   3.886   3.445   3.202
 4153SOL     OW12483   4.091   2.962   2.363
 4153SOL    HW112484   4.084   3.045   2.307
 4153SOL    HW212485   4.095   2.882   2.303
 4154SOL     OW12486   4.290   2.399   2.727
 4154SOL    HW112487   4.302   2.465   2.653
 4154SOL    HW212488   4.336   2.433   2.810
 4155SOL     OW12489   4.976   3.210   2.250
 4155SOL    HW112490   5.026   3.287   2.290
 4155SOL    HW212491   4.881   3.212   2.282
 4156SOL     OW12492   4.996   3.307   3.004
 4156SOL    HW112493   5.043   3.320   3.091
 4156SOL    HW212494   4.930   3.233   3.013
 4157SOL     OW12495   4.078   3.372   3.191
 4157SOL    HW112496   4.057   3.328   3.104
 4157SOL    HW212497   4.175   3.398   3.194
 4158SOL     OW12498   4.126   2.613   3.460
 4158SOL    HW112499   4.194   2.668   3.413
 4158SOL    HW212500   4.166   2.525   3.487
 4159SOL     OW12501   4.737   1.967   3.632
 4159SOL    HW112502   4.743   2.052   3.580
 4159SOL    HW212503   4.769   1.891   3.575
 4160SOL     OW12504   4.228   1.912   3.602
 4160SOL    HW112505   4.186   1.855   3.532
 4160SOL    HW212506   4.162   1.981   3.634
 4161SOL     OW12507   4.297   2.732   2.891
 4161SOL    HW112508   4.341   2.821   2.882
 4161SOL    HW212509   4.234   2.732   2.968
 4162SOL     OW12510   5.084   2.724   2.907
 4162SOL    HW112511   5.009   2.724   2.841
 4162SOL    HW212512   5.121   2.632   2.916
 4163SOL     OW12513   4.933   2.387   2.137
 4163SOL    HW112514   4.946   2.303   2.191
 4163SOL    HW212515   4.904   2.461   2.197
 4164SOL     OW12516   4.031   2.075   3.093
 4164SOL    HW112517   4.008   2.112   3.183
 4164SOL    HW212518   4.001   1.980   3.087
 4165SOL     OW12519   3.761   3.172   3.144
 4165SOL    HW112520   3.814   3.123   3.212
 4165SOL    HW212521   3.783   3.270   3.149
 4166SOL     OW12522   4.456   2.496   2.926
 4166SOL    HW112523   4.515   2.470   2.850
 4166SOL    HW212524   4.428   2.592   2.915
 4167SOL     OW12525   4.031   1.925   2.480
 4167SOL    HW112526   4.020   2.019   2.513
 4167SOL    HW212527   4.026   1.862   2.557
 4168SOL     OW12528   5.346   2.229   2.236
 4168SOL    HW112529   5.348   2.153   2.300
 4168SOL    HW212530   5.298   2.306   2.276
 4169SOL     OW12531   4.747   2.628   2.828
 4169SOL    HW112532   4.762   2.649   2.924
 4169SOL    HW212533   4.717   2.533   2.819
 4170SOL     OW12534   4.704   3.435   3.562
 4170SOL    HW112535   4.684   3.479   3.474
 4170SOL    HW212536   4.743   3.344   3.546
 4171SOL     OW12537   4.074   2.760   3.666
 4171SOL    HW112538   4.150   2.804   3.714
 4171SOL    HW212539   4.109   2.713   3.584
 4172SOL     OW12540   5.027   2.700   1.904
 4172SOL    HW112541   5.061   2.607   1.919
 4172SOL    HW212542   5.045   2.727   1.809
 4173SOL     OW12543   4.792   3.195   2.711
 4173SOL    HW112544   4.799   3.111   2.656
 4173SOL    HW212545   4.854   3.264   2.675
 4174SOL     OW12546   4.043   2.672   2.811
 4174SOL    HW112547   4.136   2.708   2.816
 4174SOL    HW212548   4.037   2.587   2.863
 4175SOL     OW12549   4.063   2.371   2.868
 4175SOL    HW112550   4.011   2.288   2.851
 4175SOL    HW212551   4.140   2.376   2.804
 4176SOL     OW12552   4.862   2.242   3.540
 4176SOL    HW112553   4.817   2.305   3.604
 4176SOL    HW212554   4.955   2.273   3.523
 4177SOL     OW12555   4.884   2.069   3.339
 4177SOL    HW112556   4.884   2.133   3.416
 4177SOL    HW212557   4.912   2.117   3.256
 4178SOL     OW12558   3.732   3.188   2.062
 4178SOL    HW112559   3.639   3.209   2.031
 4178SOL    HW212560   3.742   3.089   2.075
 4179SOL     OW12561   3.812   3.663   2.789
 4179SOL    HW112562   3.770   3.577   2.762
 4179SOL    HW212563   3.906   3.666   2.755
 4180SOL     OW12564   4.228   3.430   2.772
 4180SOL    HW112565   4.294   3.504   2.781
 4180SOL    HW212566   4.272   3.351   2.730
 4181SOL     OW12567   4.726   2.658   3.100
 4181SOL    HW112568   4.767   2.626   3.186
 4181SOL    HW212569   4.630   2.631   3.097
 4182SOL     OW12570   3.764   2.406   2.976
 4182SOL    HW112571   3.849   2.373   2.935
 4182SOL    HW212572   3.777   2.421   3.074
 4183SOL     OW12573   3.913   2.382   3.584
 4183SOL    HW112574   3.972   2.342   3.514
 4183SOL    HW212575   3.855   2.453   3.543
 4184SOL     OW12576   5.093   2.812   3.522
 4184SOL    HW112577   5.132   2.901   3.542
 4184SOL    HW212578   5.103   2.792   3.425
 4185SOL     OW12579   4.539   2.434   2.187
 4185SOL    HW112580   4.546   2.345   2.141
 4185SOL    HW212581   4.445   2.468   2.179
 4186SOL     OW12582   3.976   3.426   3.606
 4186SOL    HW112583   3.946   3.483   3.682
 4186SOL    HW212584   3.969   3.329   3.632
 4187SOL     OW12585   4.395   2.326   3.131
 4187SOL    HW112586   4.361   2.237   3.101
 4187SOL    HW212587   4.421   2.380   3.051
 4188SOL     OW12588   4.654   3.540   3.327
 4188SOL    HW112589   4.630   3.522   3.232
 4188SOL    HW212590   4.684   3.634   3.337
 4189SOL     OW12591   4.197   2.362   2.053
 4189SOL    HW112592   4.258   2.442   2.057
 4189SOL    HW212593   4.102   2.393   2.060
 4190SOL     OW12594   3.883   2.999   3.328
 4190SOL    HW112595   3.905   2.938   3.404
 4190SOL    HW212596   3.893   2.950   3.242
 4191SOL     OW12597   5.071   2.921   3.096
 4191SOL    HW112598   5.095   2.858   3.022
 4191SOL    HW212599   4.981   2.961   3.078
 4192SOL     OW12600   5.026   2.717   2.171
 4192SOL    HW112601   4.940   2.686   2.213
 4192SOL    HW212602   5.022   2.703   2.072
 4193SOL     OW12603   4.976   3.593   2.990
 4193SOL    HW112604   5.060   3.598   2.936
 4193SOL    HW212605   4.953   3.497   3.008
 4194SOL     OW12606   3.807   3.120   2.884
 4194SOL    HW112607   3.802   3.119   2.984
 4194SOL    HW212608   3.724   3.079   2.846
 4195SOL     OW12609   4.412   3.524   3.578
 4195SOL    HW112610   4.356   3.605   3.587
 4195SOL    HW212611   4.464   3.528   3.492
 4196SOL     OW12612   5.450   1.997   2.385
 4196SOL    HW112613   5.523   1.980   2.318
 4196SOL    HW212614   5.419   1.910   2.423
 4197SOL     OW12615   5.112   3.435   2.339
 4197SOL    HW112616   5.179   3.447   2.265
 4197SOL    HW212617   5.072   3.524   2.362
 4198SOL     OW12618   3.854   3.656   3.713
 4198SOL    HW112619   3.813   3.582   3.766
 4198SOL    HW212620   3.918   3.707   3.771
 4199SOL     OW12621   5.004   2.789   2.534
 4199SOL    HW112622   5.064   2.708   2.536
 4199SOL    HW212623   5.044   2.858   2.474
 4200SOL     OW12624   4.554   3.135   3.284
 4200SOL    HW112625   4.549   3.168   3.379
 4200SOL    HW212626   4.468   3.154   3.238
 4201SOL     OW12627   4.396   3.478   2.016
 4201SOL    HW112628   4.405   3.488   1.917
 4201SOL    HW212629   4.356   3.389   2.037
 4202SOL     OW12630   3.987   2.188   2.582
 4202SOL    HW112631   3.908   2.239   2.548
 4202SOL    HW212632   3.978   2.173   2.680
 4203SOL     OW12633   4.918   3.474   1.893
 4203SOL    HW112634   4.924   3.381   1.930
 4203SOL    HW212635   4.859   3.474   1.813
 4204SOL     OW12636   4.546   2.864   3.234
 4204SOL    HW112637   4.586   2.863   3.142
 4204SOL    HW212638   4.556   2.956   3.274
 4205SOL     OW12639   4.640   2.772   2.153
 4205SOL    HW112640   4.703   2.810   2.085
 4205SOL    HW212641   4.680   2.689   2.192
 4206SOL     OW12642   4.096   3.150   3.352
 4206SOL    HW112643   4.083   3.243   3.318
 4206SOL    HW212644   4.012   3.098   3.339
 4207SOL     OW12645   4.763   2.960   2.558
 4207SOL    HW112646   4.693   2.913   2.612
 4207SOL    HW212647   4.822   2.892   2.515
 4208SOL     OW12648   4.738   2.098   2.833
 4208SOL    HW112649   4.730   2.062   2.740
 4208SOL    HW212650   4.736   2.022   2.898
 4209SOL     OW12651   4.314   3.349   2.353
 4209SOL    HW112652   4.356   3.291   2.283
 4209SOL    HW212653   4.270   3.428   2.309
 4210SOL     OW12654   3.979   3.210   2.152
 4210SOL    HW112655   3.883   3.211   2.125
 4210SOL    HW212656   3.991   3.263   2.236
 4211SOL     OW12657   3.829   2.875   3.588
 4211SOL    HW112658   3.752   2.842   3.642
 4211SOL    HW212659   3.914   2.845   3.630
 4212SOL     OW12660   4.396   2.065   3.351
 4212SOL    HW112661   4.486   2.049   3.311
 4212SOL    HW212662   4.404   2.070   3.450
 4213SOL     OW12663   3.799   2.207   1.895
 4213SOL    HW112664   3.707   2.179   1.866
 4213SOL    HW212665   3.830   2.284   1.839
 4214SOL     OW12666   5.164   2.718   3.260
 4214SOL    HW112667   5.107   2.770   3.197
 4214SOL    HW212668   5.260   2.730   3.236
 4215SOL     OW12669   3.796   2.028   2.180
 4215SOL    HW112670   3.779   2.111   2.126
 4215SOL    HW212671   3.886   1.991   2.158
 4216SOL     OW12672   4.907   3.197   1.981
 4216SOL    HW112673   4.808   3.186   1.983
 4216SOL    HW212674   4.941   3.212   2.074
 4217SOL     OW12675   4.337   2.704   3.293
 4217SOL    HW112676   4.393   2.785   3.276
 4217SOL    HW212677   4.396   2.624   3.296
 4218SOL     OW12678   4.440   2.427   3.570
 4218SOL    HW112679   4.459   2.492   3.644
 4218SOL    HW212680   4.500   2.347   3.579
 4219SOL     OW12681   5.174   3.082   3.495
 4219SOL    HW112682   5.165   3.072   3.594
 4219SOL    HW212683   5.270   3.075   3.469
 4220SOL     OW12684   4.114   3.603   3.422
 4220SOL    HW112685   4.023   3.644   3.420
 4220SOL    HW212686   4.107   3.509   3.454
 4221SOL     OW12687   4.949   2.187   2.311
 4221SOL    HW112688   5.014   2.113   2.300
 4221SOL    HW212689   4.969   2.237   2.395
 4222SOL     OW12690   4.318   2.607   2.514
 4222SOL    HW112691   4.368   2.692   2.495
 4222SOL    HW212692   4.230   2.609   2.466
 4223SOL     OW12693   4.583   3.236   1.878
 4223SOL    HW112694   4.537   3.251   1.966
 4223SOL    HW212695   4.627   3.321   1.848
 4224SOL     OW12696   4.385   3.652   2.815
 4224SOL    HW112697   4.339   3.740   2.802
 4224SOL    HW212698   4.484   3.664   2.808
 4225SOL     OW12699   4.583   2.818   2.723
 4225SOL    HW112700   4.637   2.749   2.771
 4225SOL    HW212701   4.551   2.887   2.789
 4226SOL     OW12702   4.807   2.846   1.949
 4226SOL    HW112703   4.784   2.899   1.867
 4226SOL    HW212704   4.888   2.790   1.930
 4227SOL     OW12705   3.945   3.176   3.706
 4227SOL    HW112706   3.880   3.103   3.685
 4227SOL    HW212707   3.949   3.190   3.804
 4228SOL     OW12708   3.803   3.102   2.515
 4228SOL    HW112709   3.802   3.055   2.603
 4228SOL    HW212710   3.885   3.074   2.464
 4229SOL     OW12711   4.396   3.253   3.486
 4229SOL    HW112712   4.318   3.203   3.524
 4229SOL    HW212713   4.393   3.348   3.517
 4230SOL     OW12714   4.152   2.286   2.382
 4230SOL    HW112715   4.182   2.214   2.320
 4230SOL    HW212716   4.113   2.246   2.465
 4231SOL     OW12717   5.429   3.349   2.966
 4231SOL    HW112718   5.336   3.324   2.939
 4231SOL    HW212719   5.455   3.299   3.048
 4232SOL     OW12720   4.041   2.409   3.142
 4232SOL    HW112721   4.079   2.350   3.214
 4232SOL    HW212722   4.081   2.383   3.054
 4233SOL     OW12723   4.536   3.448   2.549
 4233SOL    HW112724   4.568   3.458   2.455
 4233SOL    HW212725   4.457   3.386   2.551
 4234SOL     OW12726   5.148   2.076   2.974
 4234SOL    HW112727   5.200   2.011   3.029
 4234SOL    HW212728   5.099   2.139   3.035
 4235SOL     OW12729   4.725   1.896   3.016
 4235SOL    HW112730   4.662   1.824   2.985
 4235SOL    HW212731   4.818   1.860   3.016
 4236SOL     OW12732   4.494   3.192   2.163
 4236SOL    HW112733   4.448   3.105   2.180
 4236SOL    HW212734   4.585   3.189   2.204
 4237SOL     OW12735   4.342   3.429   3.146
 4237SOL    HW112736   4.337   3.511   3.203
 4237SOL    HW212737   4.431   3.426   3.101
 4238SOL     OW12738   5.076   1.914   2.030
 4238SOL    HW112739   5.111   1.873   1.946
 4238SOL    HW212740   4.986   1.876   2.050
 4239SOL     OW12741   5.024   2.315   2.553
 4239SOL    HW112742   4.965   2.395   2.557
 4239SOL    HW212743   5.039   2.280   2.646
 4240SOL     OW12744   3.763   2.939   2.162
 4240SOL    HW112745   3.862   2.928   2.153
 4240SOL    HW212746   3.723   2.853   2.194
 4241SOL     OW12747   4.599   3.508   2.199
 4241SOL    HW112748   4.522   3.473   2.145
 4241SOL    HW212749   4.567   3.579   2.261
 4242SOL     OW12750   3.954   2.490   3.837
 4242SOL    HW112751   3.861   2.488   3.874
 4242SOL    HW212752   3.955   2.451   3.745
 4243SOL     OW12753   3.949   2.137   4.720
 4243SOL    HW112754   3.984   2.120   4.812
 4243SOL    HW212755   3.861   2.092   4.708
 4244SOL     OW12756   3.743   2.230   4.371
 4244SOL    HW112757   3.661   2.273   4.410
 4244SOL    HW212758   3.715   2.157   4.308
 4245SOL     OW12759   4.293   3.137   4.889
 4245SOL    HW112760   4.200   3.130   4.852
 4245SOL    HW212761   4.304   3.226   4.933
 4246SOL     OW12762   5.279   3.373   4.427
 4246SOL    HW112763   5.222   3.357   4.508
 4246SOL    HW212764   5.220   3.383   4.347
 4247SOL     OW12765   4.859   2.565   4.441
 4247SOL    HW112766   4.916   2.643   4.416
 4247SOL    HW212767   4.799   2.591   4.517
 4248SOL     OW12768   4.492   3.006   4.747
 4248SOL    HW112769   4.414   3.023   4.807
 4248SOL    HW212770   4.526   3.093   4.711
 4249SOL     OW12771   4.409   2.874   4.389
 4249SOL    HW112772   4.478   2.858   4.459
 4249SOL    HW212773   4.336   2.931   4.427
 4250SOL     OW12774   4.059   3.297   4.785
 4250SOL    HW112775   3.981   3.266   4.732
 4250SOL    HW212776   4.117   3.355   4.728
 4251SOL     OW12777   4.162   2.254   5.223
 4251SOL    HW112778   4.244   2.198   5.232
 4251SOL    HW212779   4.081   2.196   5.227
 4252SOL     OW12780   3.955   3.575   4.207
 4252SOL    HW112781   3.989   3.652   4.261
 4252SOL    HW212782   3.999   3.575   4.117
 4253SOL     OW12783   3.954   3.296   4.262
 4253SOL    HW112784   3.928   3.392   4.262
 4253SOL    HW212785   3.883   3.242   4.307
 4254SOL     OW12786   3.964   2.953   4.610
 4254SOL    HW112787   3.978   2.869   4.662
 4254SOL    HW212788   3.909   3.017   4.665
 4255SOL     OW12789   4.344   3.648   5.163
 4255SOL    HW112790   4.252   3.631   5.198
 4255SOL    HW212791   4.372   3.740   5.189
 4256SOL     OW12792   4.330   2.826   3.847
 4256SOL    HW112793   4.337   2.910   3.793
 4256SOL    HW212794   4.376   2.839   3.935
 4257SOL     OW12795   3.846   2.505   4.287
 4257SOL    HW112796   3.801   2.417   4.304
 4257SOL    HW212797   3.845   2.559   4.371
 4258SOL     OW12798   3.751   3.458   3.841
 4258SOL    HW112799   3.732   3.362   3.862
 4258SOL    HW212800   3.718   3.516   3.916
 4259SOL     OW12801   5.413   2.784   4.336
 4259SOL    HW112802   5.508   2.755   4.344
 4259SOL    HW212803   5.405   2.849   4.261
 4260SOL     OW12804   4.337   3.227   4.450
 4260SOL    HW112805   4.288   3.140   4.459
 4260SOL    HW212806   4.314   3.270   4.363
 4261SOL     OW12807   4.533   1.866   4.226
 4261SOL    HW112808   4.573   1.957   4.217
 4261SOL    HW212809   4.433   1.874   4.232
 4262SOL     OW12810   3.921   2.838   4.988
 4262SOL    HW112811   4.010   2.793   4.974
 4262SOL    HW212812   3.848   2.773   4.969
 4263SOL     OW12813   4.041   2.113   5.525
 4263SOL    HW112814   4.112   2.184   5.531
 4263SOL    HW212815   3.953   2.152   5.553
 4264SOL     OW12816   5.190   3.279   4.677
 4264SOL    HW112817   5.131   3.285   4.757
 4264SOL    HW212818   5.175   3.191   4.631
 4265SOL     OW12819   4.322   2.591   3.994
 4265SOL    HW112820   4.346   2.660   3.926
 4265SOL    HW212821   4.244   2.624   4.048
 4266SOL     OW12822   5.005   2.207   4.668
 4266SOL    HW112823   4.919   2.157   4.655
 4266SOL    HW212824   5.067   2.153   4.724
 4267SOL     OW12825   4.531   2.467   5.189
 4267SOL    HW112826   4.484   2.464   5.278
 4267SOL    HW212827   4.480   2.412   5.123
 4268SOL     OW12828   4.715   2.272   4.966
 4268SOL    HW112829   4.638   2.306   5.020
 4268SOL    HW212830   4.681   2.221   4.887
 4269SOL     OW12831   4.765   2.563   4.153
 4269SOL    HW112832   4.791   2.559   4.249
 4269SOL    HW212833   4.680   2.512   4.139
 4270SOL     OW12834   3.800   2.673   4.513
 4270SOL    HW112835   3.899   2.661   4.522
 4270SOL    HW212836   3.776   2.768   4.534
 4271SOL     OW12837   3.854   3.683   5.295
 4271SOL    HW112838   3.844   3.668   5.394
 4271SOL    HW212839   3.768   3.719   5.259
 4272SOL     OW12840   4.589   2.210   3.919
 4272SOL    HW112841   4.648   2.273   3.870
 4272SOL    HW212842   4.608   2.116   3.890
 4273SOL     OW12843   5.086   3.006   4.269
 4273SOL    HW112844   5.169   2.977   4.221
 4273SOL    HW212845   5.037   3.073   4.213
 4274SOL     OW12846   4.274   2.058   4.609
 4274SOL    HW112847   4.269   2.053   4.709
 4274SOL    HW212848   4.276   2.154   4.580
 4275SOL     OW12849   4.732   3.318   4.201
 4275SOL    HW112850   4.686   3.390   4.149
 4275SOL    HW212851   4.728   3.338   4.299
 4276SOL     OW12852   4.075   3.663   4.577
 4276SOL    HW112853   4.125   3.577   4.583
 4276SOL    HW212854   4.140   3.740   4.574
 4277SOL     OW12855   4.045   2.805   3.966
 4277SOL    HW112856   4.127   2.844   3.924
 4277SOL    HW212857   4.018   2.723   3.917
 4278SOL     OW12858   4.835   3.638   3.961
 4278SOL    HW112859   4.775   3.576   4.011
 4278SOL    HW212860   4.866   3.594   3.876
 4279SOL     OW12861   4.188   3.605   4.047
 4279SOL    HW112862   4.221   3.644   4.133
 4279SOL    HW212863   4.264   3.598   3.982
 4280SOL     OW12864   5.124   1.969   4.150
 4280SOL    HW112865   5.100   1.932   4.060
 4280SOL    HW212866   5.223   1.985   4.154
 4281SOL     OW12867   3.973   3.647   4.965
 4281SOL    HW112868   4.030   3.582   5.015
 4281SOL    HW212869   3.957   3.614   4.872
 4282SOL     OW12870   4.664   3.560   4.628
 4282SOL    HW112871   4.744   3.503   4.649
 4282SOL    HW212872   4.615   3.520   4.551
 4283SOL     OW12873   4.106   2.562   4.204
 4283SOL    HW112874   4.151   2.472   4.201
 4283SOL    HW212875   4.012   2.551   4.237
 4284SOL     OW12876   4.338   1.984   3.841
 4284SOL    HW112877   4.436   1.962   3.848
 4284SOL    HW212878   4.307   1.967   3.748
 4285SOL     OW12879   4.612   3.376   4.919
 4285SOL    HW112880   4.589   3.351   4.825
 4285SOL    HW212881   4.673   3.307   4.958
 4286SOL     OW12882   4.527   3.264   4.648
 4286SOL    HW112883   4.617   3.278   4.606
 4286SOL    HW212884   4.456   3.266   4.577
 4287SOL     OW12885   4.646   2.365   4.623
 4287SOL    HW112886   4.621   2.356   4.527
 4287SOL    HW212887   4.694   2.283   4.654
 4288SOL     OW12888   4.263   1.926   4.236
 4288SOL    HW112889   4.182   1.927   4.294
 4288SOL    HW212890   4.266   2.009   4.181
 4289SOL     OW12891   5.158   3.050   3.765
 4289SOL    HW112892   5.190   2.974   3.822
 4289SOL    HW212893   5.066   3.077   3.795
 4290SOL     OW12894   4.021   1.897   3.895
 4290SOL    HW112895   4.070   1.981   3.874
 4290SOL    HW212896   4.083   1.832   3.940
 4291SOL     OW12897   4.659   2.098   4.204
 4291SOL    HW112898   4.611   2.139   4.126
 4291SOL    HW212899   4.758   2.096   4.185
 4292SOL     OW12900   4.951   3.432   4.517
 4292SOL    HW112901   4.972   3.506   4.452
 4292SOL    HW212902   5.019   3.432   4.590
 4293SOL     OW12903   4.183   3.014   4.465
 4293SOL    HW112904   4.112   2.987   4.530
 4293SOL    HW212905   4.157   2.986   4.372
 4294SOL     OW12906   4.995   3.659   4.315
 4294SOL    HW112907   5.039   3.723   4.251
 4294SOL    HW212908   4.945   3.711   4.385
 4295SOL     OW12909   4.756   2.411   3.740
 4295SOL    HW112910   4.715   2.493   3.701
 4295SOL    HW212911   4.820   2.437   3.813
 4296SOL     OW12912   3.802   2.418   5.110
 4296SOL    HW112913   3.894   2.417   5.069
 4296SOL    HW212914   3.796   2.492   5.177
 4297SOL     OW12915   4.285   2.084   4.871
 4297SOL    HW112916   4.323   2.000   4.908
 4297SOL    HW212917   4.197   2.103   4.915
 4298SOL     OW12918   4.590   2.316   4.366
 4298SOL    HW112919   4.558   2.388   4.304
 4298SOL    HW212920   4.614   2.235   4.313
 4299SOL     OW12921   4.741   1.901   4.477
 4299SOL    HW112922   4.669   1.906   4.408
 4299SOL    HW212923   4.717   1.832   4.546
 4300SOL     OW12924   5.153   3.035   4.591
 4300SOL    HW112925   5.098   2.951   4.584
 4300SOL    HW212926   5.179   3.064   4.499
 4301SOL     OW12927   4.212   3.247   3.898
 4301SOL    HW112928   4.125   3.232   3.945
 4301SOL    HW212929   4.195   3.273   3.803
 4302SOL     OW12930   5.114   2.437   3.802
 4302SOL    HW112931   5.060   2.416   3.883
 4302SOL    HW212932   5.205   2.396   3.811
 4303SOL     OW12933   4.251   2.118   4.052
 4303SOL    HW112934   4.278   2.059   3.977
 4303SOL    HW212935   4.251   2.213   4.021
 4304SOL     OW12936   4.788   3.209   5.064
 4304SOL    HW112937   4.708   3.186   5.119
 4304SOL    HW212938   4.871   3.183   5.113
 4305SOL     OW12939   4.835   3.057   4.824
 4305SOL    HW112940   4.795   3.101   4.905
 4305SOL    HW212941   4.794   3.094   4.741
 4306SOL     OW12942   4.639   1.951   5.126
 4306SOL    HW112943   4.664   1.931   5.031
 4306SOL    HW212944   4.711   2.007   5.168
 4307SOL     OW12945   4.429   2.912   4.092
 4307SOL    HW112946   4.415   2.919   4.191
 4307SOL    HW212947   4.513   2.861   4.074
 4308SOL     OW12948   4.134   2.675   4.975
 4308SOL    HW112949   4.220   2.687   5.025
 4308SOL    HW212950   4.092   2.588   5.002
 4309SOL     OW12951   4.998   2.248   4.986
 4309SOL    HW112952   5.019   2.322   5.050
 4309SOL    HW212953   4.909   2.265   4.943
 4310SOL     OW12954   3.788   3.426   5.055
 4310SOL    HW112955   3.742   3.508   5.021
 4310SOL    HW212956   3.886   3.445   5.064
 4311SOL     OW12957   4.091   2.962   4.225
 4311SOL    HW112958   4.084   3.045   4.169
 4311SOL    HW212959   4.095   2.882   4.165
 4312SOL     OW12960   4.290   2.399   4.589
 4312SOL    HW112961   4.302   2.465   4.515
 4312SOL    HW212962   4.336   2.433   4.672
 4313SOL     OW12963   4.976   3.210   4.112
 4313SOL    HW112964   5.026   3.287   4.152
 4313SOL    HW212965   4.881   3.212   4.144
 4314SOL     OW12966   4.996   3.307   4.866
 4314SOL    HW112967   5.043   3.320   4.953
 4314SOL    HW212968   4.930   3.233   4.875
 4315SOL     OW12969   4.078   3.372   5.053
 4315SOL    HW112970   4.057   3.328   4.966
 4315SOL    HW212971   4.175   3.398   5.056
 4316SOL     OW12972   4.126   2.613   5.322
 4316SOL    HW112973   4.194   2.668   5.275
 4316SOL    HW212974   4.166   2.525   5.349
 4317SOL     OW12975   5.311   2.641   5.394
 4317SOL    HW112976   5.219   2.679   5.389
 4317SOL    HW212977   5.371   2.688   5.329
 4318SOL     OW12978   4.297   2.732   4.753
 4318SOL    HW112979   4.341   2.821   4.744
 4318SOL    HW212980   4.234   2.732   4.830
 4319SOL     OW12981   5.084   2.724   4.769
 4319SOL    HW112982   5.009   2.724   4.703
 4319SOL    HW212983   5.121   2.632   4.778
 4320SOL     OW12984   4.933   2.387   3.999
 4320SOL    HW112985   4.946   2.303   4.053
 4320SOL    HW212986   4.904   2.461   4.059
 4321SOL     OW12987   4.031   2.075   4.955
 4321SOL    HW112988   4.008   2.112   5.045
 4321SOL    HW212989   4.001   1.980   4.949
 4322SOL     OW12990   3.761   3.172   5.006
 4322SOL    HW112991   3.814   3.123   5.074
 4322SOL    HW212992   3.783   3.270   5.011
 4323SOL     OW12993   4.456   2.496   4.788
 4323SOL    HW112994   4.515   2.470   4.712
 4323SOL    HW212995   4.428   2.592   4.777
 4324SOL     OW12996   4.031   1.925   4.342
 4324SOL    HW112997   4.020   2.019   4.375
 4324SOL    HW212998   4.026   1.862   4.419
 4325SOL     OW12999   5.346   2.229   4.098
 4325SOL    HW113000   5.348   2.153   4.162
 4325SOL    HW213001   5.298   2.306   4.138
 4326SOL     OW13002   4.747   2.628   4.690
 4326SOL    HW113003   4.762   2.649   4.786
 4326SOL    HW213004   4.717   2.533   4.681
 4327SOL     OW13005   4.704   3.435   5.424
 4327SOL    HW113006   4.684   3.479   5.336
 4327SOL    HW213007   4.743   3.344   5.408
 4328SOL     OW13008   5.027   2.700   3.766
 4328SOL    HW113009   5.061   2.607   3.781
 4328SOL    HW213010   5.045   2.727   3.671
 4329SOL     OW13011   4.792   3.195   4.573
 4329SOL    HW113012   4.799   3.111   4.518
 4329SOL    HW213013   4.854   3.264   4.537
 4330SOL     OW13014   4.043   2.672   4.673
 4330SOL    HW113015   4.136   2.708   4.678
 4330SOL    HW213016   4.037   2.587   4.725
 4331SOL     OW13017   4.063   2.371   4.730
 4331SOL    HW113018   4.011   2.288   4.713
 4331SOL    HW213019   4.140   2.376   4.666
 4332SOL     OW13020   4.862   2.242   5.402
 4332SOL    HW113021   4.817   2.305   5.466
 4332SOL    HW213022   4.955   2.273   5.385
 4333SOL     OW13023   4.884   2.069   5.201
 4333SOL    HW113024   4.884   2.133   5.278
 4333SOL    HW213025   4.912   2.117   5.118
 4334SOL     OW13026   3.732   3.188   3.924
 4334SOL    HW113027   3.639   3.209   3.893
 4334SOL    HW213028   3.742   3.089   3.937
 4335SOL     OW13029   3.812   3.663   4.651
 4335SOL    HW113030   3.770   3.577   4.624
 4335SOL    HW213031   3.906   3.666   4.617
 4336SOL     OW13032   4.228   3.430   4.634
 4336SOL    HW113033   4.294   3.504   4.643
 4336SOL    HW213034   4.272   3.351   4.592
 4337SOL     OW13035   4.726   2.658   4.962
 4337SOL    HW113036   4.767   2.626   5.048
 4337SOL    HW213037   4.630   2.631   4.959
 4338SOL     OW13038   3.764   2.406   4.838
 4338SOL    HW113039   3.849   2.373   4.797
 4338SOL    HW213040   3.777   2.421   4.936
 4339SOL     OW13041   4.539   2.434   4.049
 4339SOL    HW113042   4.546   2.345   4.003
 4339SOL    HW213043   4.445   2.468   4.041
 4340SOL     OW13044   4.395   2.326   4.993
 4340SOL    HW113045   4.361   2.237   4.963
 4340SOL    HW213046   4.421   2.380   4.913
 4341SOL     OW13047   4.654   3.540   5.189
 4341SOL    HW113048   4.630   3.522   5.094
 4341SOL    HW213049   4.684   3.634   5.199
 4342SOL     OW13050   4.197   2.362   3.915
 4342SOL    HW113051   4.258   2.442   3.919
 4342SOL    HW213052   4.102   2.393   3.922
 4343SOL     OW13053   3.883   2.999   5.190
 4343SOL    HW113054   3.905   2.938   5.266
 4343SOL    HW213055   3.893   2.950   5.104
 4344SOL     OW13056   5.071   2.921   4.958
 4344SOL    HW113057   5.095   2.858   4.884
 4344SOL    HW213058   4.981   2.961   4.940
 4345SOL     OW13059   5.026   2.717   4.033
 4345SOL    HW113060   4.940   2.686   4.075
 4345SOL    HW213061   5.022   2.703   3.934
 4346SOL     OW13062   4.976   3.593   4.852
 4346SOL    HW113063   5.060   3.598   4.798
 4346SOL    HW213064   4.953   3.497   4.870
 4347SOL     OW13065   3.807   3.120   4.746
 4347SOL    HW113066   3.802   3.119   4.846
 4347SOL    HW213067   3.724   3.079   4.708
 4348SOL     OW13068   5.450   1.997   4.247
 4348SOL    HW113069   5.523   1.980   4.180
 4348SOL    HW213070   5.419   1.910   4.285
 4349SOL     OW13071   5.112   3.435   4.201
 4349SOL    HW113072   5.179   3.447   4.127
 4349SOL    HW213073   5.072   3.524   4.224
 4350SOL     OW13074   5.004   2.789   4.396
 4350SOL    HW113075   5.064   2.708   4.398
 4350SOL    HW213076   5.044   2.858   4.336
 4351SOL     OW13077   4.396   3.478   3.878
 4351SOL    HW113078   4.405   3.488   3.779
 4351SOL    HW213079   4.356   3.389   3.899
 4352SOL     OW13080   3.987   2.188   4.444
 4352SOL    HW113081   3.908   2.239   4.410
 4352SOL    HW213082   3.978   2.173   4.542
 4353SOL     OW13083   4.918   3.474   3.755
 4353SOL    HW113084   4.924   3.381   3.792
 4353SOL    HW213085   4.859   3.474   3.675
 4354SOL     OW13086   4.546   2.864   5.096
 4354SOL    HW113087   4.586   2.863   5.004
 4354SOL    HW213088   4.556   2.956   5.136
 4355SOL     OW13089   4.640   2.772   4.015
 4355SOL    HW113090   4.703   2.810   3.947
 4355SOL    HW213091   4.680   2.689   4.054
 4356SOL     OW13092   4.096   3.150   5.214
 4356SOL    HW113093   4.083   3.243   5.180
 4356SOL    HW213094   4.012   3.098   5.201
 4357SOL     OW13095   4.763   2.960   4.420
 4357SOL    HW113096   4.693   2.913   4.474
 4357SOL    HW213097   4.822   2.892   4.377
 4358SOL     OW13098   4.738   2.098   4.695
 4358SOL    HW113099   4.730   2.062   4.602
 4358SOL    HW213100   4.736   2.022   4.760
 4359SOL     OW13101   4.314   3.349   4.215
 4359SOL    HW113102   4.356   3.291   4.145
 4359SOL    HW213103   4.270   3.428   4.171
 4360SOL     OW13104   3.979   3.210   4.014
 4360SOL    HW113105   3.883   3.211   3.987
 4360SOL    HW213106   3.991   3.263   4.098
 4361SOL     OW13107   3.799   2.207   3.757
 4361SOL    HW113108   3.707   2.179   3.728
 4361SOL    HW213109   3.830   2.284   3.701
 4362SOL     OW13110   5.164   2.718   5.122
 4362SOL    HW113111   5.107   2.770   5.059
 4362SOL    HW213112   5.260   2.730   5.098
 4363SOL     OW13113   3.796   2.028   4.042
 4363SOL    HW113114   3.779   2.111   3.988
 4363SOL    HW213115   3.886   1.991   4.020
 4364SOL     OW13116   4.907   3.197   3.843
 4364SOL    HW113117   4.808   3.186   3.845
 4364SOL    HW213118   4.941   3.212   3.936
 4365SOL     OW13119   4.337   2.704   5.155
 4365SOL    HW113120   4.393   2.785   5.138
 4365SOL    HW213121   4.396   2.624   5.158
 4366SOL     OW13122   4.114   3.603   5.284
 4366SOL    HW113123   4.023   3.644   5.282
 4366SOL    HW213124   4.107   3.509   5.316
 4367SOL     OW13125   4.949   2.187   4.173
 4367SOL    HW113126   5.014   2.113   4.162
 4367SOL    HW213127   4.969   2.237   4.257
 4368SOL     OW13128   4.318   2.607   4.376
 4368SOL    HW113129   4.368   2.692   4.357
 4368SOL    HW213130   4.230   2.609   4.328
 4369SOL     OW13131   4.583   3.236   3.740
 4369SOL    HW113132   4.537   3.251   3.828
 4369SOL    HW213133   4.627   3.321   3.710
 4370SOL     OW13134   4.385   3.652   4.677
 4370SOL    HW113135   4.339   3.740   4.664
 4370SOL    HW213136   4.484   3.664   4.670
 4371SOL     OW13137   4.583   2.818   4.585
 4371SOL    HW113138   4.637   2.749   4.633
 4371SOL    HW213139   4.551   2.887   4.651
 4372SOL     OW13140   4.807   2.846   3.811
 4372SOL    HW113141   4.784   2.899   3.729
 4372SOL    HW213142   4.888   2.790   3.792
 4373SOL     OW13143   3.803   3.102   4.377
 4373SOL    HW113144   3.802   3.055   4.465
 4373SOL    HW213145   3.885   3.074   4.326
 4374SOL     OW13146   4.152   2.286   4.244
 4374SOL    HW113147   4.182   2.214   4.182
 4374SOL    HW213148   4.113   2.246   4.327
 4375SOL     OW13149   5.429   3.349   4.828
 4375SOL    HW113150   5.336   3.324   4.801
 4375SOL    HW213151   5.455   3.299   4.910
 4376SOL     OW13152   4.041   2.409   5.004
 4376SOL    HW113153   4.079   2.350   5.076
 4376SOL    HW213154   4.081   2.383   4.916
 4377SOL     OW13155   4.536   3.448   4.411
 4377SOL    HW113156   4.568   3.458   4.317
 4377SOL    HW213157   4.457   3.386   4.413
 4378SOL     OW13158   5.148   2.076   4.836
 4378SOL    HW113159   5.200   2.011   4.891
 4378SOL    HW213160   5.099   2.139   4.897
 4379SOL     OW13161   4.725   1.896   4.878
 4379SOL    HW113162   4.662   1.824   4.847
 4379SOL    HW213163   4.818   1.860   4.878
 4380SOL     OW13164   4.494   3.192   4.025
 4380SOL    HW113165   4.448   3.105   4.042
 4380SOL    HW213166   4.585   3.189   4.066
 4381SOL     OW13167   4.342   3.429   5.008
 4381SOL    HW113168   4.337   3.511   5.065
 4381SOL    HW213169   4.431   3.426   4.963
 4382SOL     OW13170   5.076   1.914   3.892
 4382SOL    HW113171   5.111   1.873   3.808
 4382SOL    HW213172   4.986   1.876   3.912
 4383SOL     OW13173   5.024   2.315   4.415
 4383SOL    HW113174   4.965   2.395   4.419
 4383SOL    HW213175   5.039   2.280   4.508
 4384SOL     OW13176   3.763   2.939   4.024
 4384SOL    HW113177   3.862   2.928   4.015
 4384SOL    HW213178   3.723   2.853   4.056
 4385SOL     OW13179   4.599   3.508   4.061
 4385SOL    HW113180   4.522   3.473   4.007
 4385SOL    HW213181   4.567   3.579   4.123
 4386SOL     OW13182   3.954   4.352   0.113
 4386SOL    HW113183   3.861   4.350   0.150
 4386SOL    HW213184   3.955   4.313   0.021
 4387SOL     OW13185   3.949   3.999   0.996
 4387SOL    HW113186   3.984   3.982   1.088
 4387SOL    HW213187   3.861   3.954   0.984
 4388SOL     OW13188   3.743   4.092   0.647
 4388SOL    HW113189   3.661   4.135   0.686
 4388SOL    HW213190   3.715   4.019   0.584
 4389SOL     OW13191   4.293   4.999   1.165
 4389SOL    HW113192   4.200   4.992   1.128
 4389SOL    HW213193   4.304   5.088   1.209
 4390SOL     OW13194   5.279   5.235   0.703
 4390SOL    HW113195   5.222   5.219   0.784
 4390SOL    HW213196   5.220   5.245   0.623
 4391SOL     OW13197   4.859   4.427   0.717
 4391SOL    HW113198   4.916   4.505   0.692
 4391SOL    HW213199   4.799   4.453   0.793
 4392SOL     OW13200   4.492   4.868   1.023
 4392SOL    HW113201   4.414   4.885   1.083
 4392SOL    HW213202   4.526   4.955   0.987
 4393SOL     OW13203   4.574   4.522   1.823
 4393SOL    HW113204   4.570   4.598   1.888
 4393SOL    HW213205   4.596   4.558   1.732
 4394SOL     OW13206   4.409   4.736   0.665
 4394SOL    HW113207   4.478   4.720   0.735
 4394SOL    HW213208   4.336   4.793   0.703
 4395SOL     OW13209   4.410   4.885   1.803
 4395SOL    HW113210   4.470   4.964   1.817
 4395SOL    HW213211   4.324   4.916   1.762
 4396SOL     OW13212   4.059   5.159   1.061
 4396SOL    HW113213   3.981   5.128   1.008
 4396SOL    HW213214   4.117   5.217   1.004
 4397SOL     OW13215   4.162   4.116   1.499
 4397SOL    HW113216   4.244   4.060   1.508
 4397SOL    HW213217   4.081   4.058   1.503
 4398SOL     OW13218   4.851   5.065   1.690
 4398SOL    HW113219   4.898   5.065   1.778
 4398SOL    HW213220   4.803   4.978   1.679
 4399SOL     OW13221   3.954   5.158   0.538
 4399SOL    HW113222   3.928   5.254   0.538
 4399SOL    HW213223   3.883   5.104   0.583
 4400SOL     OW13224   3.964   4.815   0.886
 4400SOL    HW113225   3.978   4.731   0.938
 4400SOL    HW213226   3.909   4.879   0.941
 4401SOL     OW13227   4.330   4.688   0.123
 4401SOL    HW113228   4.337   4.772   0.069
 4401SOL    HW213229   4.376   4.701   0.211
 4402SOL     OW13230   3.846   4.367   0.563
 4402SOL    HW113231   3.801   4.279   0.580
 4402SOL    HW213232   3.845   4.421   0.647
 4403SOL     OW13233   3.751   5.320   0.117
 4403SOL    HW113234   3.732   5.224   0.138
 4403SOL    HW213235   3.718   5.378   0.192
 4404SOL     OW13236   5.413   4.646   0.612
 4404SOL    HW113237   5.508   4.617   0.620
 4404SOL    HW213238   5.405   4.711   0.537
 4405SOL     OW13239   3.837   4.461   1.597
 4405SOL    HW113240   3.925   4.448   1.642
 4405SOL    HW213241   3.824   4.558   1.575
 4406SOL     OW13242   4.337   5.089   0.726
 4406SOL    HW113243   4.288   5.002   0.735
 4406SOL    HW213244   4.314   5.132   0.639
 4407SOL     OW13245   5.017   4.952   1.423
 4407SOL    HW113246   5.054   4.879   1.365
 4407SOL    HW213247   5.069   4.957   1.508
 4408SOL     OW13248   4.533   3.728   0.502
 4408SOL    HW113249   4.573   3.819   0.493
 4408SOL    HW213250   4.433   3.736   0.508
 4409SOL     OW13251   3.921   4.700   1.264
 4409SOL    HW113252   4.010   4.655   1.250
 4409SOL    HW213253   3.848   4.635   1.245
 4410SOL     OW13254   4.041   3.975   1.801
 4410SOL    HW113255   4.112   4.046   1.807
 4410SOL    HW213256   3.953   4.014   1.829
 4411SOL     OW13257   5.190   5.141   0.953
 4411SOL    HW113258   5.131   5.147   1.033
 4411SOL    HW213259   5.175   5.053   0.907
 4412SOL     OW13260   5.391   5.438   0.572
 4412SOL    HW113261   5.350   5.415   0.484
 4412SOL    HW213262   5.373   5.364   0.637
 4413SOL     OW13263   4.322   4.453   0.270
 4413SOL    HW113264   4.346   4.522   0.202
 4413SOL    HW213265   4.244   4.486   0.324
 4414SOL     OW13266   5.005   4.069   0.944
 4414SOL    HW113267   4.919   4.019   0.931
 4414SOL    HW213268   5.067   4.015   1.000
 4415SOL     OW13269   4.531   4.329   1.465
 4415SOL    HW113270   4.484   4.326   1.554
 4415SOL    HW213271   4.480   4.274   1.399
 4416SOL     OW13272   5.118   4.193   1.674
 4416SOL    HW113273   5.098   4.236   1.762
 4416SOL    HW213274   5.196   4.131   1.683
 4417SOL     OW13275   4.697   4.614   1.572
 4417SOL    HW113276   4.743   4.530   1.543
 4417SOL    HW213277   4.641   4.648   1.497
 4418SOL     OW13278   4.715   4.134   1.242
 4418SOL    HW113279   4.638   4.168   1.296
 4418SOL    HW213280   4.681   4.083   1.163
 4419SOL     OW13281   4.765   4.425   0.429
 4419SOL    HW113282   4.791   4.421   0.525
 4419SOL    HW213283   4.680   4.374   0.415
 4420SOL     OW13284   3.800   4.535   0.789
 4420SOL    HW113285   3.899   4.523   0.798
 4420SOL    HW213286   3.776   4.630   0.810
 4421SOL     OW13287   4.589   4.072   0.195
 4421SOL    HW113288   4.648   4.135   0.146
 4421SOL    HW213289   4.608   3.978   0.166
 4422SOL     OW13290   5.086   4.868   0.545
 4422SOL    HW113291   5.169   4.839   0.497
 4422SOL    HW213292   5.037   4.935   0.489
 4423SOL     OW13293   4.274   3.920   0.885
 4423SOL    HW113294   4.269   3.915   0.985
 4423SOL    HW213295   4.276   4.016   0.856
 4424SOL     OW13296   4.732   5.180   0.477
 4424SOL    HW113297   4.686   5.252   0.425
 4424SOL    HW213298   4.728   5.200   0.575
 4425SOL     OW13299   4.951   5.274   1.506
 4425SOL    HW113300   4.957   5.197   1.570
 4425SOL    HW213301   4.899   5.248   1.426
 4426SOL     OW13302   4.045   4.667   0.242
 4426SOL    HW113303   4.127   4.706   0.200
 4426SOL    HW213304   4.018   4.585   0.193
 4427SOL     OW13305   4.185   4.990   1.727
 4427SOL    HW113306   4.135   4.991   1.641
 4427SOL    HW213307   4.122   4.972   1.803
 4428SOL     OW13308   4.835   5.500   0.237
 4428SOL    HW113309   4.775   5.438   0.287
 4428SOL    HW213310   4.866   5.456   0.152
 4429SOL     OW13311   3.926   4.009   1.498
 4429SOL    HW113312   3.846   4.069   1.485
 4429SOL    HW213313   3.916   3.960   1.584
 4430SOL     OW13314   5.124   3.831   0.426
 4430SOL    HW113315   5.100   3.794   0.336
 4430SOL    HW213316   5.223   3.847   0.430
 4431SOL     OW13317   4.106   4.424   0.480
 4431SOL    HW113318   4.151   4.334   0.477
 4431SOL    HW213319   4.012   4.413   0.513
 4432SOL     OW13320   4.338   3.846   0.117
 4432SOL    HW113321   4.436   3.824   0.124
 4432SOL    HW213322   4.307   3.829   0.024
 4433SOL     OW13323   4.505   3.988   1.749
 4433SOL    HW113324   4.572   3.927   1.792
 4433SOL    HW213325   4.432   4.007   1.814
 4434SOL     OW13326   5.075   4.314   1.433
 4434SOL    HW113327   5.103   4.271   1.518
 4434SOL    HW213328   5.100   4.410   1.434
 4435SOL     OW13329   4.527   5.126   0.924
 4435SOL    HW113330   4.617   5.140   0.882
 4435SOL    HW213331   4.456   5.128   0.853
 4436SOL     OW13332   4.646   4.227   0.899
 4436SOL    HW113333   4.621   4.218   0.803
 4436SOL    HW213334   4.694   4.145   0.930
 4437SOL     OW13335   4.263   3.788   0.512
 4437SOL    HW113336   4.182   3.789   0.570
 4437SOL    HW213337   4.266   3.871   0.457
 4438SOL     OW13338   5.158   4.912   0.041
 4438SOL    HW113339   5.190   4.836   0.098
 4438SOL    HW213340   5.066   4.939   0.071
 4439SOL     OW13341   4.021   3.759   0.171
 4439SOL    HW113342   4.070   3.843   0.150
 4439SOL    HW213343   4.083   3.694   0.216
 4440SOL     OW13344   4.659   3.960   0.480
 4440SOL    HW113345   4.611   4.001   0.402
 4440SOL    HW213346   4.758   3.958   0.461
 4441SOL     OW13347   4.800   4.407   1.464
 4441SOL    HW113348   4.720   4.346   1.467
 4441SOL    HW213349   4.881   4.354   1.440
 4442SOL     OW13350   4.951   5.294   0.793
 4442SOL    HW113351   4.972   5.368   0.728
 4442SOL    HW213352   5.019   5.294   0.866
 4443SOL     OW13353   4.183   4.876   0.741
 4443SOL    HW113354   4.112   4.849   0.806
 4443SOL    HW213355   4.157   4.848   0.648
 4444SOL     OW13356   4.756   4.273   0.016
 4444SOL    HW113357   4.715   4.355  -0.023
 4444SOL    HW213358   4.820   4.299   0.089
 4445SOL     OW13359   3.802   4.280   1.386
 4445SOL    HW113360   3.894   4.279   1.345
 4445SOL    HW213361   3.796   4.354   1.453
 4446SOL     OW13362   4.285   3.946   1.147
 4446SOL    HW113363   4.323   3.862   1.184
 4446SOL    HW213364   4.197   3.965   1.191
 4447SOL     OW13365   4.590   4.178   0.642
 4447SOL    HW113366   4.558   4.250   0.580
 4447SOL    HW213367   4.614   4.097   0.589
 4448SOL     OW13368   4.741   3.763   0.753
 4448SOL    HW113369   4.669   3.768   0.684
 4448SOL    HW213370   4.717   3.694   0.822
 4449SOL     OW13371   5.153   4.897   0.867
 4449SOL    HW113372   5.098   4.813   0.860
 4449SOL    HW213373   5.179   4.926   0.775
 4450SOL     OW13374   4.212   5.109   0.174
 4450SOL    HW113375   4.125   5.094   0.221
 4450SOL    HW213376   4.195   5.135   0.079
 4451SOL     OW13377   5.114   4.299   0.078
 4451SOL    HW113378   5.060   4.278   0.159
 4451SOL    HW213379   5.205   4.258   0.087
 4452SOL     OW13380   4.251   3.980   0.328
 4452SOL    HW113381   4.278   3.921   0.253
 4452SOL    HW213382   4.251   4.075   0.297
 4453SOL     OW13383   4.788   5.071   1.340
 4453SOL    HW113384   4.708   5.048   1.395
 4453SOL    HW213385   4.871   5.045   1.389
 4454SOL     OW13386   4.835   4.919   1.100
 4454SOL    HW113387   4.795   4.963   1.181
 4454SOL    HW213388   4.794   4.956   1.017
 4455SOL     OW13389   4.639   3.813   1.402
 4455SOL    HW113390   4.664   3.793   1.307
 4455SOL    HW213391   4.711   3.869   1.444
 4456SOL     OW13392   4.704   4.840   1.719
 4456SOL    HW113393   4.605   4.846   1.729
 4456SOL    HW213394   4.727   4.760   1.663
 4457SOL     OW13395   4.429   4.774   0.368
 4457SOL    HW113396   4.415   4.781   0.467
 4457SOL    HW213397   4.513   4.723   0.350
 4458SOL     OW13398   4.134   4.537   1.251
 4458SOL    HW113399   4.220   4.549   1.301
 4458SOL    HW213400   4.092   4.450   1.278
 4459SOL     OW13401   4.998   4.110   1.262
 4459SOL    HW113402   5.019   4.184   1.326
 4459SOL    HW213403   4.909   4.127   1.219
 4460SOL     OW13404   4.091   4.824   0.501
 4460SOL    HW113405   4.084   4.907   0.445
 4460SOL    HW213406   4.095   4.744   0.441
 4461SOL     OW13407   4.290   4.261   0.865
 4461SOL    HW113408   4.302   4.327   0.791
 4461SOL    HW213409   4.336   4.295   0.948
 4462SOL     OW13410   4.976   5.072   0.388
 4462SOL    HW113411   5.026   5.149   0.428
 4462SOL    HW213412   4.881   5.074   0.420
 4463SOL     OW13413   4.996   5.169   1.142
 4463SOL    HW113414   5.043   5.182   1.229
 4463SOL    HW213415   4.930   5.095   1.151
 4464SOL     OW13416   4.078   5.234   1.329
 4464SOL    HW113417   4.057   5.190   1.242
 4464SOL    HW213418   4.175   5.260   1.332
 4465SOL     OW13419   4.126   4.475   1.598
 4465SOL    HW113420   4.194   4.530   1.551
 4465SOL    HW213421   4.166   4.387   1.625
 4466SOL     OW13422   4.737   3.829   1.770
 4466SOL    HW113423   4.743   3.914   1.718
 4466SOL    HW213424   4.769   3.753   1.713
 4467SOL     OW13425   4.228   3.774   1.740
 4467SOL    HW113426   4.186   3.717   1.670
 4467SOL    HW213427   4.162   3.843   1.772
 4468SOL     OW13428   4.297   4.594   1.029
 4468SOL    HW113429   4.341   4.683   1.020
 4468SOL    HW213430   4.234   4.594   1.106
 4469SOL     OW13431   5.084   4.586   1.045
 4469SOL    HW113432   5.009   4.586   0.979
 4469SOL    HW213433   5.121   4.494   1.054
 4470SOL     OW13434   4.933   4.249   0.275
 4470SOL    HW113435   4.946   4.165   0.329
 4470SOL    HW213436   4.904   4.323   0.335
 4471SOL     OW13437   4.031   3.937   1.231
 4471SOL    HW113438   4.008   3.974   1.321
 4471SOL    HW213439   4.001   3.842   1.225
 4472SOL     OW13440   3.761   5.034   1.282
 4472SOL    HW113441   3.814   4.985   1.350
 4472SOL    HW213442   3.783   5.132   1.287
 4473SOL     OW13443   4.456   4.358   1.064
 4473SOL    HW113444   4.515   4.332   0.988
 4473SOL    HW213445   4.428   4.454   1.053
 4474SOL     OW13446   4.031   3.787   0.618
 4474SOL    HW113447   4.020   3.881   0.651
 4474SOL    HW213448   4.026   3.724   0.695
 4475SOL     OW13449   5.346   4.091   0.374
 4475SOL    HW113450   5.348   4.015   0.438
 4475SOL    HW213451   5.298   4.168   0.414
 4476SOL     OW13452   4.747   4.490   0.966
 4476SOL    HW113453   4.762   4.511   1.062
 4476SOL    HW213454   4.717   4.395   0.957
 4477SOL     OW13455   4.074   4.622   1.804
 4477SOL    HW113456   4.150   4.666   1.852
 4477SOL    HW213457   4.109   4.575   1.722
 4478SOL     OW13458   5.027   4.562   0.042
 4478SOL    HW113459   5.061   4.469   0.057
 4478SOL    HW213460   5.045   4.589  -0.053
 4479SOL     OW13461   4.792   5.057   0.849
 4479SOL    HW113462   4.799   4.973   0.794
 4479SOL    HW213463   4.854   5.126   0.813
 4480SOL     OW13464   4.043   4.534   0.949
 4480SOL    HW113465   4.136   4.570   0.954
 4480SOL    HW213466   4.037   4.449   1.001
 4481SOL     OW13467   4.063   4.233   1.006
 4481SOL    HW113468   4.011   4.150   0.989
 4481SOL    HW213469   4.140   4.238   0.942
 4482SOL     OW13470   4.862   4.104   1.678
 4482SOL    HW113471   4.817   4.167   1.742
 4482SOL    HW213472   4.955   4.135   1.661
 4483SOL     OW13473   4.884   3.931   1.477
 4483SOL    HW113474   4.884   3.995   1.554
 4483SOL    HW213475   4.912   3.979   1.394
 4484SOL     OW13476   3.732   5.050   0.200
 4484SOL    HW113477   3.639   5.071   0.169
 4484SOL    HW213478   3.742   4.951   0.213
 4485SOL     OW13479   4.726   4.520   1.238
 4485SOL    HW113480   4.767   4.488   1.324
 4485SOL    HW213481   4.630   4.493   1.235
 4486SOL     OW13482   3.764   4.268   1.114
 4486SOL    HW113483   3.849   4.235   1.073
 4486SOL    HW213484   3.777   4.283   1.212
 4487SOL     OW13485   3.913   4.244   1.722
 4487SOL    HW113486   3.972   4.204   1.652
 4487SOL    HW213487   3.855   4.315   1.681
 4488SOL     OW13488   5.093   4.674   1.660
 4488SOL    HW113489   5.132   4.763   1.680
 4488SOL    HW213490   5.103   4.654   1.563
 4489SOL     OW13491   4.539   4.296   0.325
 4489SOL    HW113492   4.546   4.207   0.279
 4489SOL    HW213493   4.445   4.330   0.317
 4490SOL     OW13494   3.976   5.288   1.744
 4490SOL    HW113495   3.946   5.345   1.820
 4490SOL    HW213496   3.969   5.191   1.770
 4491SOL     OW13497   4.395   4.188   1.269
 4491SOL    HW113498   4.361   4.099   1.239
 4491SOL    HW213499   4.421   4.242   1.189
 4492SOL     OW13500   4.197   4.224   0.191
 4492SOL    HW113501   4.258   4.304   0.195
 4492SOL    HW213502   4.102   4.255   0.198
 4493SOL     OW13503   3.883   4.861   1.466
 4493SOL    HW113504   3.905   4.800   1.542
 4493SOL    HW213505   3.893   4.812   1.380
 4494SOL     OW13506   5.071   4.783   1.234
 4494SOL    HW113507   5.095   4.720   1.160
 4494SOL    HW213508   4.981   4.823   1.216
 4495SOL     OW13509   5.026   4.579   0.309
 4495SOL    HW113510   4.940   4.548   0.351
 4495SOL    HW213511   5.022   4.565   0.210
 4496SOL     OW13512   3.807   4.982   1.022
 4496SOL    HW113513   3.802   4.981   1.122
 4496SOL    HW213514   3.724   4.941   0.984
 4497SOL     OW13515   4.627   3.810   0.133
 4497SOL    HW113516   4.678   3.811   0.047
 4497SOL    HW213517   4.683   3.768   0.204
 4498SOL     OW13518   5.450   3.859   0.523
 4498SOL    HW113519   5.523   3.842   0.456
 4498SOL    HW213520   5.419   3.772   0.561
 4499SOL     OW13521   5.004   4.651   0.672
 4499SOL    HW113522   5.064   4.570   0.674
 4499SOL    HW213523   5.044   4.720   0.612
 4500SOL     OW13524   4.554   4.997   1.422
 4500SOL    HW113525   4.549   5.030   1.517
 4500SOL    HW213526   4.468   5.016   1.376
 4501SOL     OW13527   3.987   4.050   0.720
 4501SOL    HW113528   3.908   4.101   0.686
 4501SOL    HW213529   3.978   4.035   0.818
 4502SOL     OW13530   4.918   5.336   0.031
 4502SOL    HW113531   4.924   5.243   0.068
 4502SOL    HW213532   4.859   5.336  -0.049
 4503SOL     OW13533   4.546   4.726   1.372
 4503SOL    HW113534   4.586   4.725   1.280
 4503SOL    HW213535   4.556   4.818   1.412
 4504SOL     OW13536   4.640   4.634   0.291
 4504SOL    HW113537   4.703   4.672   0.223
 4504SOL    HW213538   4.680   4.551   0.330
 4505SOL     OW13539   4.096   5.012   1.490
 4505SOL    HW113540   4.083   5.105   1.456
 4505SOL    HW213541   4.012   4.960   1.477
 4506SOL     OW13542   4.763   4.822   0.696
 4506SOL    HW113543   4.693   4.775   0.750
 4506SOL    HW213544   4.822   4.754   0.653
 4507SOL     OW13545   4.738   3.960   0.971
 4507SOL    HW113546   4.730   3.924   0.878
 4507SOL    HW213547   4.736   3.884   1.036
 4508SOL     OW13548   3.979   5.072   0.290
 4508SOL    HW113549   3.883   5.073   0.263
 4508SOL    HW213550   3.991   5.125   0.374
 4509SOL     OW13551   3.829   4.737   1.726
 4509SOL    HW113552   3.752   4.704   1.780
 4509SOL    HW213553   3.914   4.707   1.768
 4510SOL     OW13554   4.396   3.927   1.489
 4510SOL    HW113555   4.486   3.911   1.449
 4510SOL    HW213556   4.404   3.932   1.588
 4511SOL     OW13557   5.164   4.580   1.398
 4511SOL    HW113558   5.107   4.632   1.335
 4511SOL    HW213559   5.260   4.592   1.374
 4512SOL     OW13560   3.796   3.890   0.318
 4512SOL    HW113561   3.779   3.973   0.264
 4512SOL    HW213562   3.886   3.853   0.296
 4513SOL     OW13563   4.907   5.059   0.119
 4513SOL    HW113564   4.808   5.048   0.121
 4513SOL    HW213565   4.941   5.074   0.212
 4514SOL     OW13566   4.337   4.566   1.431
 4514SOL    HW113567   4.393   4.647   1.414
 4514SOL    HW213568   4.396   4.486   1.434
 4515SOL     OW13569   4.440   4.289   1.708
 4515SOL    HW113570   4.459   4.354   1.782
 4515SOL    HW213571   4.500   4.209   1.717
 4516SOL     OW13572   5.174   4.944   1.633
 4516SOL    HW113573   5.165   4.934   1.732
 4516SOL    HW213574   5.270   4.937   1.607
 4517SOL     OW13575   4.949   4.049   0.449
 4517SOL    HW113576   5.014   3.975   0.438
 4517SOL    HW213577   4.969   4.099   0.533
 4518SOL     OW13578   4.318   4.469   0.652
 4518SOL    HW113579   4.368   4.554   0.633
 4518SOL    HW213580   4.230   4.471   0.604
 4519SOL     OW13581   4.583   5.098   0.016
 4519SOL    HW113582   4.537   5.113   0.104
 4519SOL    HW213583   4.627   5.183  -0.014
 4520SOL     OW13584   4.583   4.680   0.861
 4520SOL    HW113585   4.637   4.611   0.909
 4520SOL    HW213586   4.551   4.749   0.927
 4521SOL     OW13587   4.807   4.708   0.087
 4521SOL    HW113588   4.784   4.761   0.005
 4521SOL    HW213589   4.888   4.652   0.068
 4522SOL     OW13590   3.945   5.038   1.844
 4522SOL    HW113591   3.880   4.965   1.823
 4522SOL    HW213592   3.949   5.052   1.942
 4523SOL     OW13593   3.803   4.964   0.653
 4523SOL    HW113594   3.802   4.917   0.741
 4523SOL    HW213595   3.885   4.936   0.602
 4524SOL     OW13596   4.396   5.115   1.624
 4524SOL    HW113597   4.318   5.065   1.662
 4524SOL    HW213598   4.393   5.210   1.655
 4525SOL     OW13599   4.152   4.148   0.520
 4525SOL    HW113600   4.182   4.076   0.458
 4525SOL    HW213601   4.113   4.108   0.603
 4526SOL     OW13602   5.429   5.211   1.104
 4526SOL    HW113603   5.336   5.186   1.077
 4526SOL    HW213604   5.455   5.161   1.186
 4527SOL     OW13605   4.041   4.271   1.280
 4527SOL    HW113606   4.079   4.212   1.352
 4527SOL    HW213607   4.081   4.245   1.192
 4528SOL     OW13608   5.148   3.938   1.112
 4528SOL    HW113609   5.200   3.873   1.167
 4528SOL    HW213610   5.099   4.001   1.173
 4529SOL     OW13611   4.725   3.758   1.154
 4529SOL    HW113612   4.662   3.686   1.123
 4529SOL    HW213613   4.818   3.722   1.154
 4530SOL     OW13614   4.494   5.054   0.301
 4530SOL    HW113615   4.448   4.967   0.318
 4530SOL    HW213616   4.585   5.051   0.342
 4531SOL     OW13617   4.342   5.291   1.284
 4531SOL    HW113618   4.337   5.373   1.341
 4531SOL    HW213619   4.431   5.288   1.239
 4532SOL     OW13620   5.076   3.776   0.168
 4532SOL    HW113621   5.111   3.735   0.084
 4532SOL    HW213622   4.986   3.738   0.188
 4533SOL     OW13623   5.024   4.177   0.691
 4533SOL    HW113624   4.965   4.257   0.695
 4533SOL    HW213625   5.039   4.142   0.784
 4534SOL     OW13626   3.763   4.801   0.300
 4534SOL    HW113627   3.862   4.790   0.291
 4534SOL    HW213628   3.723   4.715   0.332
 4535SOL     OW13629   3.954   4.352   1.975
 4535SOL    HW113630   3.861   4.350   2.012
 4535SOL    HW213631   3.955   4.313   1.883
 4536SOL     OW13632   3.949   3.999   2.858
 4536SOL    HW113633   3.984   3.982   2.950
 4536SOL    HW213634   3.861   3.954   2.846
 4537SOL     OW13635   3.743   4.092   2.509
 4537SOL    HW113636   3.661   4.135   2.548
 4537SOL    HW213637   3.715   4.019   2.446
 4538SOL     OW13638   4.293   4.999   3.027
 4538SOL    HW113639   4.200   4.992   2.990
 4538SOL    HW213640   4.304   5.088   3.071
 4539SOL     OW13641   5.279   5.235   2.565
 4539SOL    HW113642   5.222   5.219   2.646
 4539SOL    HW213643   5.220   5.245   2.485
 4540SOL     OW13644   4.859   4.427   2.579
 4540SOL    HW113645   4.916   4.505   2.554
 4540SOL    HW213646   4.799   4.453   2.655
 4541SOL     OW13647   4.492   4.868   2.885
 4541SOL    HW113648   4.414   4.885   2.945
 4541SOL    HW213649   4.526   4.955   2.849
 4542SOL     OW13650   4.574   4.522   3.685
 4542SOL    HW113651   4.570   4.598   3.750
 4542SOL    HW213652   4.596   4.558   3.594
 4543SOL     OW13653   4.409   4.736   2.527
 4543SOL    HW113654   4.478   4.720   2.597
 4543SOL    HW213655   4.336   4.793   2.565
 4544SOL     OW13656   4.410   4.885   3.665
 4544SOL    HW113657   4.470   4.964   3.679
 4544SOL    HW213658   4.324   4.916   3.624
 4545SOL     OW13659   4.059   5.159   2.923
 4545SOL    HW113660   3.981   5.128   2.870
 4545SOL    HW213661   4.117   5.217   2.866
 4546SOL     OW13662   4.162   4.116   3.361
 4546SOL    HW113663   4.244   4.060   3.370
 4546SOL    HW213664   4.081   4.058   3.365
 4547SOL     OW13665   4.851   5.065   3.552
 4547SOL    HW113666   4.898   5.065   3.640
 4547SOL    HW213667   4.803   4.978   3.541
 4548SOL     OW13668   3.954   5.158   2.400
 4548SOL    HW113669   3.928   5.254   2.400
 4548SOL    HW213670   3.883   5.104   2.445
 4549SOL     OW13671   3.964   4.815   2.748
 4549SOL    HW113672   3.978   4.731   2.800
 4549SOL    HW213673   3.909   4.879   2.803
 4550SOL     OW13674   4.330   4.688   1.985
 4550SOL    HW113675   4.337   4.772   1.931
 4550SOL    HW213676   4.376   4.701   2.073
 4551SOL     OW13677   3.846   4.367   2.425
 4551SOL    HW113678   3.801   4.279   2.442
 4551SOL    HW213679   3.845   4.421   2.509
 4552SOL     OW13680   3.751   5.320   1.979
 4552SOL    HW113681   3.732   5.224   2.000
 4552SOL    HW213682   3.718   5.378   2.054
 4553SOL     OW13683   5.413   4.646   2.474
 4553SOL    HW113684   5.508   4.617   2.482
 4553SOL    HW213685   5.405   4.711   2.399
 4554SOL     OW13686   3.837   4.461   3.459
 4554SOL    HW113687   3.925   4.448   3.504
 4554SOL    HW213688   3.824   4.558   3.437
 4555SOL     OW13689   4.337   5.089   2.588
 4555SOL    HW113690   4.288   5.002   2.597
 4555SOL    HW213691   4.314   5.132   2.501
 4556SOL     OW13692   5.017   4.952   3.285
 4556SOL    HW113693   5.054   4.879   3.227
 4556SOL    HW213694   5.069   4.957   3.370
 4557SOL     OW13695   4.533   3.728   2.364
 4557SOL    HW113696   4.573   3.819   2.355
 4557SOL    HW213697   4.433   3.736   2.370
 4558SOL     OW13698   3.921   4.700   3.126
 4558SOL    HW113699   4.010   4.655   3.112
 4558SOL    HW213700   3.848   4.635   3.107
 4559SOL     OW13701   4.041   3.975   3.663
 4559SOL    HW113702   4.112   4.046   3.669
 4559SOL    HW213703   3.953   4.014   3.691
 4560SOL     OW13704   5.190   5.141   2.815
 4560SOL    HW113705   5.131   5.147   2.895
 4560SOL    HW213706   5.175   5.053   2.769
 4561SOL     OW13707   5.391   5.438   2.434
 4561SOL    HW113708   5.350   5.415   2.346
 4561SOL    HW213709   5.373   5.364   2.499
 4562SOL     OW13710   4.322   4.453   2.132
 4562SOL    HW113711   4.346   4.522   2.064
 4562SOL    HW213712   4.244   4.486   2.186
 4563SOL     OW13713   5.005   4.069   2.806
 4563SOL    HW113714   4.919   4.019   2.793
 4563SOL    HW213715   5.067   4.015   2.862
 4564SOL     OW13716   4.531   4.329   3.327
 4564SOL    HW113717   4.484   4.326   3.416
 4564SOL    HW213718   4.480   4.274   3.261
 4565SOL     OW13719   5.118   4.193   3.536
 4565SOL    HW113720   5.098   4.236   3.624
 4565SOL    HW213721   5.196   4.131   3.545
 4566SOL     OW13722   4.697   4.614   3.434
 4566SOL    HW113723   4.743   4.530   3.405
 4566SOL    HW213724   4.641   4.648   3.359
 4567SOL     OW13725   4.715   4.134   3.104
 4567SOL    HW113726   4.638   4.168   3.158
 4567SOL    HW213727   4.681   4.083   3.025
 4568SOL     OW13728   4.765   4.425   2.291
 4568SOL    HW113729   4.791   4.421   2.387
 4568SOL    HW213730   4.680   4.374   2.277
 4569SOL     OW13731   3.800   4.535   2.651
 4569SOL    HW113732   3.899   4.523   2.660
 4569SOL    HW213733   3.776   4.630   2.672
 4570SOL     OW13734   4.589   4.072   2.057
 4570SOL    HW113735   4.648   4.135   2.008
 4570SOL    HW213736   4.608   3.978   2.028
 4571SOL     OW13737   5.086   4.868   2.407
 4571SOL    HW113738   5.169   4.839   2.359
 4571SOL    HW213739   5.037   4.935   2.351
 4572SOL     OW13740   4.274   3.920   2.747
 4572SOL    HW113741   4.269   3.915   2.847
 4572SOL    HW213742   4.276   4.016   2.718
 4573SOL     OW13743   4.732   5.180   2.339
 4573SOL    HW113744   4.686   5.252   2.287
 4573SOL    HW213745   4.728   5.200   2.437
 4574SOL     OW13746   4.951   5.274   3.368
 4574SOL    HW113747   4.957   5.197   3.432
 4574SOL    HW213748   4.899   5.248   3.288
 4575SOL     OW13749   4.045   4.667   2.104
 4575SOL    HW113750   4.127   4.706   2.062
 4575SOL    HW213751   4.018   4.585   2.055
 4576SOL     OW13752   4.185   4.990   3.589
 4576SOL    HW113753   4.135   4.991   3.503
 4576SOL    HW213754   4.122   4.972   3.665
 4577SOL     OW13755   4.835   5.500   2.099
 4577SOL    HW113756   4.775   5.438   2.149
 4577SOL    HW213757   4.866   5.456   2.014
 4578SOL     OW13758   3.926   4.009   3.360
 4578SOL    HW113759   3.846   4.069   3.347
 4578SOL    HW213760   3.916   3.960   3.446
 4579SOL     OW13761   5.124   3.831   2.288
 4579SOL    HW113762   5.100   3.794   2.198
 4579SOL    HW213763   5.223   3.847   2.292
 4580SOL     OW13764   4.106   4.424   2.342
 4580SOL    HW113765   4.151   4.334   2.339
 4580SOL    HW213766   4.012   4.413   2.375
 4581SOL     OW13767   4.338   3.846   1.979
 4581SOL    HW113768   4.436   3.824   1.986
 4581SOL    HW213769   4.307   3.829   1.886
 4582SOL     OW13770   4.505   3.988   3.611
 4582SOL    HW113771   4.572   3.927   3.654
 4582SOL    HW213772   4.432   4.007   3.676
 4583SOL     OW13773   5.075   4.314   3.295
 4583SOL    HW113774   5.103   4.271   3.380
 4583SOL    HW213775   5.100   4.410   3.296
 4584SOL     OW13776   4.527   5.126   2.786
 4584SOL    HW113777   4.617   5.140   2.744
 4584SOL    HW213778   4.456   5.128   2.715
 4585SOL     OW13779   4.646   4.227   2.761
 4585SOL    HW113780   4.621   4.218   2.665
 4585SOL    HW213781   4.694   4.145   2.792
 4586SOL     OW13782   4.263   3.788   2.374
 4586SOL    HW113783   4.182   3.789   2.432
 4586SOL    HW213784   4.266   3.871   2.319
 4587SOL     OW13785   5.158   4.912   1.903
 4587SOL    HW113786   5.190   4.836   1.960
 4587SOL    HW213787   5.066   4.939   1.933
 4588SOL     OW13788   4.021   3.759   2.033
 4588SOL    HW113789   4.070   3.843   2.012
 4588SOL    HW213790   4.083   3.694   2.078
 4589SOL     OW13791   4.659   3.960   2.342
 4589SOL    HW113792   4.611   4.001   2.264
 4589SOL    HW213793   4.758   3.958   2.323
 4590SOL     OW13794   4.800   4.407   3.326
 4590SOL    HW113795   4.720   4.346   3.329
 4590SOL    HW213796   4.881   4.354   3.302
 4591SOL     OW13797   4.951   5.294   2.655
 4591SOL    HW113798   4.972   5.368   2.590
 4591SOL    HW213799   5.019   5.294   2.728
 4592SOL     OW13800   4.183   4.876   2.603
 4592SOL    HW113801   4.112   4.849   2.668
 4592SOL    HW213802   4.157   4.848   2.510
 4593SOL     OW13803   4.756   4.273   1.878
 4593SOL    HW113804   4.715   4.355   1.839
 4593SOL    HW213805   4.820   4.299   1.951
 4594SOL     OW13806   3.802   4.280   3.248
 4594SOL    HW113807   3.894   4.279   3.207
 4594SOL    HW213808   3.796   4.354   3.315
 4595SOL     OW13809   4.285   3.946   3.009
 4595SOL    HW113810   4.323   3.862   3.046
 4595SOL    HW213811   4.197   3.965   3.053
 4596SOL     OW13812   4.590   4.178   2.504
 4596SOL    HW113813   4.558   4.250   2.442
 4596SOL    HW213814   4.614   4.097   2.451
 4597SOL     OW13815   4.741   3.763   2.615
 4597SOL    HW113816   4.669   3.768   2.546
 4597SOL    HW213817   4.717   3.694   2.684
 4598SOL     OW13818   5.153   4.897   2.729
 4598SOL    HW113819   5.098   4.813   2.722
 4598SOL    HW213820   5.179   4.926   2.637
 4599SOL     OW13821   4.212   5.109   2.036
 4599SOL    HW113822   4.125   5.094   2.083
 4599SOL    HW213823   4.195   5.135   1.941
 4600SOL     OW13824   5.114   4.299   1.940
 4600SOL    HW113825   5.060   4.278   2.021
 4600SOL    HW213826   5.205   4.258   1.949
 4601SOL     OW13827   4.251   3.980   2.190
 4601SOL    HW113828   4.278   3.921   2.115
 4601SOL    HW213829   4.251   4.075   2.159
 4602SOL     OW13830   4.788   5.071   3.202
 4602SOL    HW113831   4.708   5.048   3.257
 4602SOL    HW213832   4.871   5.045   3.251
 4603SOL     OW13833   4.835   4.919   2.962
 4603SOL    HW113834   4.795   4.963   3.043
 4603SOL    HW213835   4.794   4.956   2.879
 4604SOL     OW13836   4.639   3.813   3.264
 4604SOL    HW113837   4.664   3.793   3.169
 4604SOL    HW213838   4.711   3.869   3.306
 4605SOL     OW13839   4.704   4.840   3.581
 4605SOL    HW113840   4.605   4.846   3.591
 4605SOL    HW213841   4.727   4.760   3.525
 4606SOL     OW13842   4.429   4.774   2.230
 4606SOL    HW113843   4.415   4.781   2.329
 4606SOL    HW213844   4.513   4.723   2.212
 4607SOL     OW13845   4.134   4.537   3.113
 4607SOL    HW113846   4.220   4.549   3.163
 4607SOL    HW213847   4.092   4.450   3.140
 4608SOL     OW13848   4.998   4.110   3.124
 4608SOL    HW113849   5.019   4.184   3.188
 4608SOL    HW213850   4.909   4.127   3.081
 4609SOL     OW13851   4.091   4.824   2.363
 4609SOL    HW113852   4.084   4.907   2.307
 4609SOL    HW213853   4.095   4.744   2.303
 4610SOL     OW13854   4.290   4.261   2.727
 4610SOL    HW113855   4.302   4.327   2.653
 4610SOL    HW213856   4.336   4.295   2.810
 4611SOL     OW13857   4.976   5.072   2.250
 4611SOL    HW113858   5.026   5.149   2.290
 4611SOL    HW213859   4.881   5.074   2.282
 4612SOL     OW13860   4.996   5.169   3.004
 4612SOL    HW113861   5.043   5.182   3.091
 4612SOL    HW213862   4.930   5.095   3.013
 4613SOL     OW13863   4.078   5.234   3.191
 4613SOL    HW113864   4.057   5.190   3.104
 4613SOL    HW213865   4.175   5.260   3.194
 4614SOL     OW13866   4.126   4.475   3.460
 4614SOL    HW113867   4.194   4.530   3.413
 4614SOL    HW213868   4.166   4.387   3.487
 4615SOL     OW13869   4.737   3.829   3.632
 4615SOL    HW113870   4.743   3.914   3.580
 4615SOL    HW213871   4.769   3.753   3.575
 4616SOL     OW13872   4.228   3.774   3.602
 4616SOL    HW113873   4.186   3.717   3.532
 4616SOL    HW213874   4.162   3.843   3.634
 4617SOL     OW13875   4.297   4.594   2.891
 4617SOL    HW113876   4.341   4.683   2.882
 4617SOL    HW213877   4.234   4.594   2.968
 4618SOL     OW13878   5.084   4.586   2.907
 4618SOL    HW113879   5.009   4.586   2.841
 4618SOL    HW213880   5.121   4.494   2.916
 4619SOL     OW13881   4.933   4.249   2.137
 4619SOL    HW113882   4.946   4.165   2.191
 4619SOL    HW213883   4.904   4.323   2.197
 4620SOL     OW13884   4.031   3.937   3.093
 4620SOL    HW113885   4.008   3.974   3.183
 4620SOL    HW213886   4.001   3.842   3.087
 4621SOL     OW13887   3.761   5.034   3.144
 4621SOL    HW113888   3.814   4.985   3.212
 4621SOL    HW213889   3.783   5.132   3.149
 4622SOL     OW13890   4.456   4.358   2.926
 4622SOL    HW113891   4.515   4.332   2.850
 4622SOL    HW213892   4.428   4.454   2.915
 4623SOL     OW13893   4.031   3.787   2.480
 4623SOL    HW113894   4.020   3.881   2.513
 4623SOL    HW213895   4.026   3.724   2.557
 4624SOL     OW13896   5.346   4.091   2.236
 4624SOL    HW113897   5.348   4.015   2.300
 4624SOL    HW213898   5.298   4.168   2.276
 4625SOL     OW13899   4.747   4.490   2.828
 4625SOL    HW113900   4.762   4.511   2.924
 4625SOL    HW213901   4.717   4.395   2.819
 4626SOL     OW13902   4.074   4.622   3.666
 4626SOL    HW113903   4.150   4.666   3.714
 4626SOL    HW213904   4.109   4.575   3.584
 4627SOL     OW13905   5.027   4.562   1.904
 4627SOL    HW113906   5.061   4.469   1.919
 4627SOL    HW213907   5.045   4.589   1.809
 4628SOL     OW13908   4.792   5.057   2.711
 4628SOL    HW113909   4.799   4.973   2.656
 4628SOL    HW213910   4.854   5.126   2.675
 4629SOL     OW13911   4.043   4.534   2.811
 4629SOL    HW113912   4.136   4.570   2.816
 4629SOL    HW213913   4.037   4.449   2.863
 4630SOL     OW13914   4.063   4.233   2.868
 4630SOL    HW113915   4.011   4.150   2.851
 4630SOL    HW213916   4.140   4.238   2.804
 4631SOL     OW13917   4.862   4.104   3.540
 4631SOL    HW113918   4.817   4.167   3.604
 4631SOL    HW213919   4.955   4.135   3.523
 4632SOL     OW13920   4.884   3.931   3.339
 4632SOL    HW113921   4.884   3.995   3.416
 4632SOL    HW213922   4.912   3.979   3.256
 4633SOL     OW13923   3.732   5.050   2.062
 4633SOL    HW113924   3.639   5.071   2.031
 4633SOL    HW213925   3.742   4.951   2.075
 4634SOL     OW13926   4.726   4.520   3.100
 4634SOL    HW113927   4.767   4.488   3.186
 4634SOL    HW213928   4.630   4.493   3.097
 4635SOL     OW13929   3.764   4.268   2.976
 4635SOL    HW113930   3.849   4.235   2.935
 4635SOL    HW213931   3.777   4.283   3.074
 4636SOL     OW13932   3.913   4.244   3.584
 4636SOL    HW113933   3.972   4.204   3.514
 4636SOL    HW213934   3.855   4.315   3.543
 4637SOL     OW13935   5.093   4.674   3.522
 4637SOL    HW113936   5.132   4.763   3.542
 4637SOL    HW213937   5.103   4.654   3.425
 4638SOL     OW13938   4.539   4.296   2.187
 4638SOL    HW113939   4.546   4.207   2.141
 4638SOL    HW213940   4.445   4.330   2.179
 4639SOL     OW13941   3.976   5.288   3.606
 4639SOL    HW113942   3.946   5.345   3.682
 4639SOL    HW213943   3.969   5.191   3.632
 4640SOL     OW13944   4.395   4.188   3.131
 4640SOL    HW113945   4.361   4.099   3.101
 4640SOL    HW213946   4.421   4.242   3.051
 4641SOL     OW13947   4.197   4.224   2.053
 4641SOL    HW113948   4.258   4.304   2.057
 4641SOL    HW213949   4.102   4.255   2.060
 4642SOL     OW13950   3.883   4.861   3.328
 4642SOL    HW113951   3.905   4.800   3.404
 4642SOL    HW213952   3.893   4.812   3.242
 4643SOL     OW13953   5.071   4.783   3.096
 4643SOL    HW113954   5.095   4.720   3.022
 4643SOL    HW213955   4.981   4.823   3.078
 4644SOL     OW13956   5.026   4.579   2.171
 4644SOL    HW113957   4.940   4.548   2.213
 4644SOL    HW213958   5.022   4.565   2.072
 4645SOL     OW13959   3.807   4.982   2.884
 4645SOL    HW113960   3.802   4.981   2.984
 4645SOL    HW213961   3.724   4.941   2.846
 4646SOL     OW13962   5.450   3.859   2.385
 4646SOL    HW113963   5.523   3.842   2.318
 4646SOL    HW213964   5.419   3.772   2.423
 4647SOL     OW13965   5.004   4.651   2.534
 4647SOL    HW113966   5.064   4.570   2.536
 4647SOL    HW213967   5.044   4.720   2.474
 4648SOL     OW13968   4.554   4.997   3.284
 4648SOL    HW113969   4.549   5.030   3.379
 4648SOL    HW213970   4.468   5.016   3.238
 4649SOL     OW13971   3.987   4.050   2.582
 4649SOL    HW113972   3.908   4.101   2.548
 4649SOL    HW213973   3.978   4.035   2.680
 4650SOL     OW13974   4.546   4.726   3.234
 4650SOL    HW113975   4.586   4.725   3.142
 4650SOL    HW213976   4.556   4.818   3.274
 4651SOL     OW13977   4.640   4.634   2.153
 4651SOL    HW113978   4.703   4.672   2.085
 4651SOL    HW213979   4.680   4.551   2.192
 4652SOL     OW13980   4.096   5.012   3.352
 4652SOL    HW113981   4.083   5.105   3.318
 4652SOL    HW213982   4.012   4.960   3.339
 4653SOL     OW13983   4.763   4.822   2.558
 4653SOL    HW113984   4.693   4.775   2.612
 4653SOL    HW213985   4.822   4.754   2.515
 4654SOL     OW13986   4.738   3.960   2.833
 4654SOL    HW113987   4.730   3.924   2.740
 4654SOL    HW213988   4.736   3.884   2.898
 4655SOL     OW13989   3.979   5.072   2.152
 4655SOL    HW113990   3.883   5.073   2.125
 4655SOL    HW213991   3.991   5.125   2.236
 4656SOL     OW13992   3.829   4.737   3.588
 4656SOL    HW113993   3.752   4.704   3.642
 4656SOL    HW213994   3.914   4.707   3.630
 4657SOL     OW13995   4.396   3.927   3.351
 4657SOL    HW113996   4.486   3.911   3.311
 4657SOL    HW213997   4.404   3.932   3.450
 4658SOL     OW13998   3.799   4.069   1.895
 4658SOL    HW113999   3.707   4.041   1.866
 4658SOL    HW214000   3.830   4.146   1.839
 4659SOL     OW14001   5.164   4.580   3.260
 4659SOL    HW114002   5.107   4.632   3.197
 4659SOL    HW214003   5.260   4.592   3.236
 4660SOL     OW14004   3.796   3.890   2.180
 4660SOL    HW114005   3.779   3.973   2.126
 4660SOL    HW214006   3.886   3.853   2.158
 4661SOL     OW14007   4.907   5.059   1.981
 4661SOL    HW114008   4.808   5.048   1.983
 4661SOL    HW214009   4.941   5.074   2.074
 4662SOL     OW14010   4.337   4.566   3.293
 4662SOL    HW114011   4.393   4.647   3.276
 4662SOL    HW214012   4.396   4.486   3.296
 4663SOL     OW14013   4.440   4.289   3.570
 4663SOL    HW114014   4.459   4.354   3.644
 4663SOL    HW214015   4.500   4.209   3.579
 4664SOL     OW14016   5.174   4.944   3.495
 4664SOL    HW114017   5.165   4.934   3.594
 4664SOL    HW214018   5.270   4.937   3.469
 4665SOL     OW14019   4.949   4.049   2.311
 4665SOL    HW114020   5.014   3.975   2.300
 4665SOL    HW214021   4.969   4.099   2.395
 4666SOL     OW14022   4.318   4.469   2.514
 4666SOL    HW114023   4.368   4.554   2.495
 4666SOL    HW214024   4.230   4.471   2.466
 4667SOL     OW14025   4.583   5.098   1.878
 4667SOL    HW114026   4.537   5.113   1.966
 4667SOL    HW214027   4.627   5.183   1.848
 4668SOL     OW14028   4.583   4.680   2.723
 4668SOL    HW114029   4.637   4.611   2.771
 4668SOL    HW214030   4.551   4.749   2.789
 4669SOL     OW14031   4.807   4.708   1.949
 4669SOL    HW114032   4.784   4.761   1.867
 4669SOL    HW214033   4.888   4.652   1.930
 4670SOL     OW14034   3.945   5.038   3.706
 4670SOL    HW114035   3.880   4.965   3.685
 4670SOL    HW214036   3.949   5.052   3.804
 4671SOL     OW14037   3.803   4.964   2.515
 4671SOL    HW114038   3.802   4.917   2.603
 4671SOL    HW214039   3.885   4.936   2.464
 4672SOL     OW14040   4.396   5.115   3.486
 4672SOL    HW114041   4.318   5.065   3.524
 4672SOL    HW214042   4.393   5.210   3.517
 4673SOL     OW14043   4.152   4.148   2.382
 4673SOL    HW114044   4.182   4.076   2.320
 4673SOL    HW214045   4.113   4.108   2.465
 4674SOL     OW14046   5.429   5.211   2.966
 4674SOL    HW114047   5.336   5.186   2.939
 4674SOL    HW214048   5.455   5.161   3.048
 4675SOL     OW14049   4.041   4.271   3.142
 4675SOL    HW114050   4.079   4.212   3.214
 4675SOL    HW214051   4.081   4.245   3.054
 4676SOL     OW14052   5.148   3.938   2.974
 4676SOL    HW114053   5.200   3.873   3.029
 4676SOL    HW214054   5.099   4.001   3.035
 4677SOL     OW14055   4.725   3.758   3.016
 4677SOL    HW114056   4.662   3.686   2.985
 4677SOL    HW214057   4.818   3.722   3.016
 4678SOL     OW14058   4.494   5.054   2.163
 4678SOL    HW114059   4.448   4.967   2.180
 4678SOL    HW214060   4.585   5.051   2.204
 4679SOL     OW14061   4.342   5.291   3.146
 4679SOL    HW114062   4.337   5.373   3.203
 4679SOL    HW214063   4.431   5.288   3.101
 4680SOL     OW14064   5.076   3.776   2.030
 4680SOL    HW114065   5.111   3.735   1.946
 4680SOL    HW214066   4.986   3.738   2.050
 4681SOL     OW14067   5.024   4.177   2.553
 4681SOL    HW114068   4.965   4.257   2.557
 4681SOL    HW214069   5.039   4.142   2.646
 4682SOL     OW14070   3.763   4.801   2.162
 4682SOL    HW114071   3.862   4.790   2.153
 4682SOL    HW214072   3.723   4.715   2.194
 4683SOL     OW14073   3.954   4.352   3.837
 4683SOL    HW114074   3.861   4.350   3.874
 4683SOL    HW214075   3.955   4.313   3.745
 4684SOL     OW14076   3.949   3.999   4.720
 4684SOL    HW114077   3.984   3.982   4.812
 4684SOL    HW214078   3.861   3.954   4.708
 4685SOL     OW14079   3.743   4.092   4.371
 4685SOL    HW114080   3.661   4.135   4.410
 4685SOL    HW214081   3.715   4.019   4.308
 4686SOL     OW14082   4.293   4.999   4.889
 4686SOL    HW114083   4.200   4.992   4.852
 4686SOL    HW214084   4.304   5.088   4.933
 4687SOL     OW14085   5.279   5.235   4.427
 4687SOL    HW114086   5.222   5.219   4.508
 4687SOL    HW214087   5.220   5.245   4.347
 4688SOL     OW14088   4.859   4.427   4.441
 4688SOL    HW114089   4.916   4.505   4.416
 4688SOL    HW214090   4.799   4.453   4.517
 4689SOL     OW14091   4.492   4.868   4.747
 4689SOL    HW114092   4.414   4.885   4.807
 4689SOL    HW214093   4.526   4.955   4.711
 4690SOL     OW14094   4.409   4.736   4.389
 4690SOL    HW114095   4.478   4.720   4.459
 4690SOL    HW214096   4.336   4.793   4.427
 4691SOL     OW14097   4.059   5.159   4.785
 4691SOL    HW114098   3.981   5.128   4.732
 4691SOL    HW214099   4.117   5.217   4.728
 4692SOL     OW14100   4.162   4.116   5.223
 4692SOL    HW114101   4.244   4.060   5.232
 4692SOL    HW214102   4.081   4.058   5.227
 4693SOL     OW14103   3.954   5.158   4.262
 4693SOL    HW114104   3.928   5.254   4.262
 4693SOL    HW214105   3.883   5.104   4.307
 4694SOL     OW14106   3.964   4.815   4.610
 4694SOL    HW114107   3.978   4.731   4.662
 4694SOL    HW214108   3.909   4.879   4.665
 4695SOL     OW14109   4.344   5.510   5.163
 4695SOL    HW114110   4.252   5.493   5.198
 4695SOL    HW214111   4.372   5.602   5.189
 4696SOL     OW14112   4.330   4.688   3.847
 4696SOL    HW114113   4.337   4.772   3.793
 4696SOL    HW214114   4.376   4.701   3.935
 4697SOL     OW14115   3.846   4.367   4.287
 4697SOL    HW114116   3.801   4.279   4.304
 4697SOL    HW214117   3.845   4.421   4.371
 4698SOL     OW14118   3.751   5.320   3.841
 4698SOL    HW114119   3.732   5.224   3.862
 4698SOL    HW214120   3.718   5.378   3.916
 4699SOL     OW14121   5.413   4.646   4.336
 4699SOL    HW114122   5.508   4.617   4.344
 4699SOL    HW214123   5.405   4.711   4.261
 4700SOL     OW14124   4.337   5.089   4.450
 4700SOL    HW114125   4.288   5.002   4.459
 4700SOL    HW214126   4.314   5.132   4.363
 4701SOL     OW14127   4.533   3.728   4.226
 4701SOL    HW114128   4.573   3.819   4.217
 4701SOL    HW214129   4.433   3.736   4.232
 4702SOL     OW14130   3.921   4.700   4.988
 4702SOL    HW114131   4.010   4.655   4.974
 4702SOL    HW214132   3.848   4.635   4.969
 4703SOL     OW14133   4.041   3.975   5.525
 4703SOL    HW114134   4.112   4.046   5.531
 4703SOL    HW214135   3.953   4.014   5.553
 4704SOL     OW14136   5.190   5.141   4.677
 4704SOL    HW114137   5.131   5.147   4.757
 4704SOL    HW214138   5.175   5.053   4.631
 4705SOL     OW14139   5.391   5.438   4.296
 4705SOL    HW114140   5.350   5.415   4.208
 4705SOL    HW214141   5.373   5.364   4.361
 4706SOL     OW14142   4.322   4.453   3.994
 4706SOL    HW114143   4.346   4.522   3.926
 4706SOL    HW214144   4.244   4.486   4.048
 4707SOL     OW14145   5.005   4.069   4.668
 4707SOL    HW114146   4.919   4.019   4.655
 4707SOL    HW214147   5.067   4.015   4.724
 4708SOL     OW14148   4.531   4.329   5.189
 4708SOL    HW114149   4.484   4.326   5.278
 4708SOL    HW214150   4.480   4.274   5.123
 4709SOL     OW14151   4.715   4.134   4.966
 4709SOL    HW114152   4.638   4.168   5.020
 4709SOL    HW214153   4.681   4.083   4.887
 4710SOL     OW14154   4.765   4.425   4.153
 4710SOL    HW114155   4.791   4.421   4.249
 4710SOL    HW214156   4.680   4.374   4.139
 4711SOL     OW14157   3.800   4.535   4.513
 4711SOL    HW114158   3.899   4.523   4.522
 4711SOL    HW214159   3.776   4.630   4.534
 4712SOL     OW14160   4.589   4.072   3.919
 4712SOL    HW114161   4.648   4.135   3.870
 4712SOL    HW214162   4.608   3.978   3.890
 4713SOL     OW14163   5.086   4.868   4.269
 4713SOL    HW114164   5.169   4.839   4.221
 4713SOL    HW214165   5.037   4.935   4.213
 4714SOL     OW14166   4.274   3.920   4.609
 4714SOL    HW114167   4.269   3.915   4.709
 4714SOL    HW214168   4.276   4.016   4.580
 4715SOL     OW14169   4.732   5.180   4.201
 4715SOL    HW114170   4.686   5.252   4.149
 4715SOL    HW214171   4.728   5.200   4.299
 4716SOL     OW14172   4.045   4.667   3.966
 4716SOL    HW114173   4.127   4.706   3.924
 4716SOL    HW214174   4.018   4.585   3.917
 4717SOL     OW14175   4.835   5.500   3.961
 4717SOL    HW114176   4.775   5.438   4.011
 4717SOL    HW214177   4.866   5.456   3.876
 4718SOL     OW14178   3.926   4.009   5.222
 4718SOL    HW114179   3.846   4.069   5.209
 4718SOL    HW214180   3.916   3.960   5.308
 4719SOL     OW14181   5.124   3.831   4.150
 4719SOL    HW114182   5.100   3.794   4.060
 4719SOL    HW214183   5.223   3.847   4.154
 4720SOL     OW14184   4.106   4.424   4.204
 4720SOL    HW114185   4.151   4.334   4.201
 4720SOL    HW214186   4.012   4.413   4.237
 4721SOL     OW14187   4.338   3.846   3.841
 4721SOL    HW114188   4.436   3.824   3.848
 4721SOL    HW214189   4.307   3.829   3.748
 4722SOL     OW14190   4.527   5.126   4.648
 4722SOL    HW114191   4.617   5.140   4.606
 4722SOL    HW214192   4.456   5.128   4.577
 4723SOL     OW14193   4.646   4.227   4.623
 4723SOL    HW114194   4.621   4.218   4.527
 4723SOL    HW214195   4.694   4.145   4.654
 4724SOL     OW14196   4.263   3.788   4.236
 4724SOL    HW114197   4.182   3.789   4.294
 4724SOL    HW214198   4.266   3.871   4.181
 4725SOL     OW14199   5.158   4.912   3.765
 4725SOL    HW114200   5.190   4.836   3.822
 4725SOL    HW214201   5.066   4.939   3.795
 4726SOL     OW14202   4.021   3.759   3.895
 4726SOL    HW114203   4.070   3.843   3.874
 4726SOL    HW214204   4.083   3.694   3.940
 4727SOL     OW14205   4.659   3.960   4.204
 4727SOL    HW114206   4.611   4.001   4.126
 4727SOL    HW214207   4.758   3.958   4.185
 4728SOL     OW14208   4.951   5.294   4.517
 4728SOL    HW114209   4.972   5.368   4.452
 4728SOL    HW214210   5.019   5.294   4.590
 4729SOL     OW14211   4.183   4.876   4.465
 4729SOL    HW114212   4.112   4.849   4.530
 4729SOL    HW214213   4.157   4.848   4.372
 4730SOL     OW14214   4.756   4.273   3.740
 4730SOL    HW114215   4.715   4.355   3.701
 4730SOL    HW214216   4.820   4.299   3.813
 4731SOL     OW14217   3.802   4.280   5.110
 4731SOL    HW114218   3.894   4.279   5.069
 4731SOL    HW214219   3.796   4.354   5.177
 4732SOL     OW14220   4.285   3.946   4.871
 4732SOL    HW114221   4.323   3.862   4.908
 4732SOL    HW214222   4.197   3.965   4.915
 4733SOL     OW14223   4.590   4.178   4.366
 4733SOL    HW114224   4.558   4.250   4.304
 4733SOL    HW214225   4.614   4.097   4.313
 4734SOL     OW14226   4.741   3.763   4.477
 4734SOL    HW114227   4.669   3.768   4.408
 4734SOL    HW214228   4.717   3.694   4.546
 4735SOL     OW14229   5.153   4.897   4.591
 4735SOL    HW114230   5.098   4.813   4.584
 4735SOL    HW214231   5.179   4.926   4.499
 4736SOL     OW14232   4.212   5.109   3.898
 4736SOL    HW114233   4.125   5.094   3.945
 4736SOL    HW214234   4.195   5.135   3.803
 4737SOL     OW14235   5.114   4.299   3.802
 4737SOL    HW114236   5.060   4.278   3.883
 4737SOL    HW214237   5.205   4.258   3.811
 4738SOL     OW14238   4.251   3.980   4.052
 4738SOL    HW114239   4.278   3.921   3.977
 4738SOL    HW214240   4.251   4.075   4.021
 4739SOL     OW14241   4.788   5.071   5.064
 4739SOL    HW114242   4.708   5.048   5.119
 4739SOL    HW214243   4.871   5.045   5.113
 4740SOL     OW14244   4.835   4.919   4.824
 4740SOL    HW114245   4.795   4.963   4.905
 4740SOL    HW214246   4.794   4.956   4.741
 4741SOL     OW14247   4.639   3.813   5.126
 4741SOL    HW114248   4.664   3.793   5.031
 4741SOL    HW214249   4.711   3.869   5.168
 4742SOL     OW14250   4.429   4.774   4.092
 4742SOL    HW114251   4.415   4.781   4.191
 4742SOL    HW214252   4.513   4.723   4.074
 4743SOL     OW14253   4.134   4.537   4.975
 4743SOL    HW114254   4.220   4.549   5.025
 4743SOL    HW214255   4.092   4.450   5.002
 4744SOL     OW14256   4.998   4.110   4.986
 4744SOL    HW114257   5.019   4.184   5.050
 4744SOL    HW214258   4.909   4.127   4.943
 4745SOL     OW14259   4.091   4.824   4.225
 4745SOL    HW114260   4.084   4.907   4.169
 4745SOL    HW214261   4.095   4.744   4.165
 4746SOL     OW14262   4.290   4.261   4.589
 4746SOL    HW114263   4.302   4.327   4.515
 4746SOL    HW214264   4.336   4.295   4.672
 4747SOL     OW14265   4.976   5.072   4.112
 4747SOL    HW114266   5.026   5.149   4.152
 4747SOL    HW214267   4.881   5.074   4.144
 4748SOL     OW14268   4.996   5.169   4.866
 4748SOL    HW114269   5.043   5.182   4.953
 4748SOL    HW214270   4.930   5.095   4.875
 4749SOL     OW14271   4.078   5.234   5.053
 4749SOL    HW114272   4.057   5.190   4.966
 4749SOL    HW214273   4.175   5.260   5.056
 4750SOL     OW14274   4.126   4.475   5.322
 4750SOL    HW114275   4.194   4.530   5.275
 4750SOL    HW214276   4.166   4.387   5.349
 4751SOL     OW14277   5.311   4.503   5.394
 4751SOL    HW114278   5.219   4.541   5.389
 4751SOL    HW214279   5.371   4.550   5.329
 4752SOL     OW14280   4.297   4.594   4.753
 4752SOL    HW114281   4.341   4.683   4.744
 4752SOL    HW214282   4.234   4.594   4.830
 4753SOL     OW14283   5.084   4.586   4.769
 4753SOL    HW114284   5.009   4.586   4.703
 4753SOL    HW214285   5.121   4.494   4.778
 4754SOL     OW14286   4.933   4.249   3.999
 4754SOL    HW114287   4.946   4.165   4.053
 4754SOL    HW214288   4.904   4.323   4.059
 4755SOL     OW14289   4.031   3.937   4.955
 4755SOL    HW114290   4.008   3.974   5.045
 4755SOL    HW214291   4.001   3.842   4.949
 4756SOL     OW14292   3.761   5.034   5.006
 4756SOL    HW114293   3.814   4.985   5.074
 4756SOL    HW214294   3.783   5.132   5.011
 4757SOL     OW14295   4.456   4.358   4.788
 4757SOL    HW114296   4.515   4.332   4.712
 4757SOL    HW214297   4.428   4.454   4.777
 4758SOL     OW14298   4.031   3.787   4.342
 4758SOL    HW114299   4.020   3.881   4.375
 4758SOL    HW214300   4.026   3.724   4.419
 4759SOL     OW14301   5.346   4.091   4.098
 4759SOL    HW114302   5.348   4.015   4.162
 4759SOL    HW214303   5.298   4.168   4.138
 4760SOL     OW14304   4.747   4.490   4.690
 4760SOL    HW114305   4.762   4.511   4.786
 4760SOL    HW214306   4.717   4.395   4.681
 4761SOL     OW14307   5.027   4.562   3.766
 4761SOL    HW114308   5.061   4.469   3.781
 4761SOL    HW214309   5.045   4.589   3.671
 4762SOL     OW14310   4.792   5.057   4.573
 4762SOL    HW114311   4.799   4.973   4.518
 4762SOL    HW214312   4.854   5.126   4.537
 4763SOL     OW14313   4.043   4.534   4.673
 4763SOL    HW114314   4.136   4.570   4.678
 4763SOL    HW214315   4.037   4.449   4.725
 4764SOL     OW14316   4.063   4.233   4.730
 4764SOL    HW114317   4.011   4.150   4.713
 4764SOL    HW214318   4.140   4.238   4.666
 4765SOL     OW14319   4.862   4.104   5.402
 4765SOL    HW114320   4.817   4.167   5.466
 4765SOL    HW214321   4.955   4.135   5.385
 4766SOL     OW14322   4.884   3.931   5.201
 4766SOL    HW114323   4.884   3.995   5.278
 4766SOL    HW214324   4.912   3.979   5.118
 4767SOL     OW14325   3.732   5.050   3.924
 4767SOL    HW114326   3.639   5.071   3.893
 4767SOL    HW214327   3.742   4.951   3.937
 4768SOL     OW14328   4.726   4.520   4.962
 4768SOL    HW114329   4.767   4.488   5.048
 4768SOL    HW214330   4.630   4.493   4.959
 4769SOL     OW14331   3.764   4.268   4.838
 4769SOL    HW114332   3.849   4.235   4.797
 4769SOL    HW214333   3.777   4.283   4.936
 4770SOL     OW14334   4.539   4.296   4.049
 4770SOL    HW114335   4.546   4.207   4.003
 4770SOL    HW214336   4.445   4.330   4.041
 4771SOL     OW14337   4.395   4.188   4.993
 4771SOL    HW114338   4.361   4.099   4.963
 4771SOL    HW214339   4.421   4.242   4.913
 4772SOL     OW14340   4.197   4.224   3.915
 4772SOL    HW114341   4.258   4.304   3.919
 4772SOL    HW214342   4.102   4.255   3.922
 4773SOL     OW14343   3.883   4.861   5.190
 4773SOL    HW114344   3.905   4.800   5.266
 4773SOL    HW214345   3.893   4.812   5.104
 4774SOL     OW14346   5.071   4.783   4.958
 4774SOL    HW114347   5.095   4.720   4.884
 4774SOL    HW214348   4.981   4.823   4.940
 4775SOL     OW14349   5.026   4.579   4.033
 4775SOL    HW114350   4.940   4.548   4.075
 4775SOL    HW214351   5.022   4.565   3.934
 4776SOL     OW14352   3.807   4.982   4.746
 4776SOL    HW114353   3.802   4.981   4.846
 4776SOL    HW214354   3.724   4.941   4.708
 4777SOL     OW14355   5.450   3.859   4.247
 4777SOL    HW114356   5.523   3.842   4.180
 4777SOL    HW214357   5.419   3.772   4.285
 4778SOL     OW14358   5.004   4.651   4.396
 4778SOL    HW114359   5.064   4.570   4.398
 4778SOL    HW214360   5.044   4.720   4.336
 4779SOL     OW14361   3.987   4.050   4.444
 4779SOL    HW114362   3.908   4.101   4.410
 4779SOL    HW214363   3.978   4.035   4.542
 4780SOL     OW14364   4.546   4.726   5.096
 4780SOL    HW114365   4.586   4.725   5.004
 4780SOL    HW214366   4.556   4.818   5.136
 4781SOL     OW14367   4.640   4.634   4.015
 4781SOL    HW114368   4.703   4.672   3.947
 4781SOL    HW214369   4.680   4.551   4.054
 4782SOL     OW14370   4.096   5.012   5.214
 4782SOL    HW114371   4.083   5.105   5.180
 4782SOL    HW214372   4.012   4.960   5.201
 4783SOL     OW14373   4.763   4.822   4.420
 4783SOL    HW114374   4.693   4.775   4.474
 4783SOL    HW214375   4.822   4.754   4.377
 4784SOL     OW14376   4.738   3.960   4.695
 4784SOL    HW114377   4.730   3.924   4.602
 4784SOL    HW214378   4.736   3.884   4.760
 4785SOL     OW14379   3.979   5.072   4.014
 4785SOL    HW114380   3.883   5.073   3.987
 4785SOL    HW214381   3.991   5.125   4.098
 4786SOL     OW14382   3.799   4.069   3.757
 4786SOL    HW114383   3.707   4.041   3.728
 4786SOL    HW214384   3.830   4.146   3.701
 4787SOL     OW14385   5.164   4.580   5.122
 4787SOL    HW114386   5.107   4.632   5.059
 4787SOL    HW214387   5.260   4.592   5.098
 4788SOL     OW14388   3.796   3.890   4.042
 4788SOL    HW114389   3.779   3.973   3.988
 4788SOL    HW214390   3.886   3.853   4.020
 4789SOL     OW14391   4.907   5.059   3.843
 4789SOL    HW114392   4.808   5.048   3.845
 4789SOL    HW214393   4.941   5.074   3.936
 4790SOL     OW14394   4.337   4.566   5.155
 4790SOL    HW114395   4.393   4.647   5.138
 4790SOL    HW214396   4.396   4.486   5.158
 4791SOL     OW14397   4.949   4.049   4.173
 4791SOL    HW114398   5.014   3.975   4.162
 4791SOL    HW214399   4.969   4.099   4.257
 4792SOL     OW14400   4.318   4.469   4.376
 4792SOL    HW114401   4.368   4.554   4.357
 4792SOL    HW214402   4.230   4.471   4.328
 4793SOL     OW14403   4.583   5.098   3.740
 4793SOL    HW114404   4.537   5.113   3.828
 4793SOL    HW214405   4.627   5.183   3.710
 4794SOL     OW14406   5.132   5.575   5.444
 4794SOL    HW114407   5.036   5.564   5.417
 4794SOL    HW214408   5.188   5.508   5.396
 4795SOL     OW14409   4.583   4.680   4.585
 4795SOL    HW114410   4.637   4.611   4.633
 4795SOL    HW214411   4.551   4.749   4.651
 4796SOL     OW14412   4.807   4.708   3.811
 4796SOL    HW114413   4.784   4.761   3.729
 4796SOL    HW214414   4.888   4.652   3.792
 4797SOL     OW14415   3.803   4.964   4.377
 4797SOL    HW114416   3.802   4.917   4.465
 4797SOL    HW214417   3.885   4.936   4.326
 4798SOL     OW14418   4.152   4.148   4.244
 4798SOL    HW114419   4.182   4.076   4.182
 4798SOL    HW214420   4.113   4.108   4.327
 4799SOL     OW14421   5.429   5.211   4.828
 4799SOL    HW114422   5.336   5.186   4.801
 4799SOL    HW214423   5.455   5.161   4.910
 4800SOL     OW14424   4.041   4.271   5.004
 4800SOL    HW114425   4.079   4.212   5.076
 4800SOL    HW214426   4.081   4.245   4.916
 4801SOL     OW14427   5.148   3.938   4.836
 4801SOL    HW114428   5.200   3.873   4.891
 4801SOL    HW214429   5.099   4.001   4.897
 4802SOL     OW14430   4.725   3.758   4.878
 4802SOL    HW114431   4.662   3.686   4.847
 4802SOL    HW214432   4.818   3.722   4.878
 4803SOL     OW14433   4.494   5.054   4.025
 4803SOL    HW114434   4.448   4.967   4.042
 4803SOL    HW214435   4.585   5.051   4.066
 4804SOL     OW14436   4.342   5.291   5.008
 4804SOL    HW114437   4.337   5.373   5.065
 4804SOL    HW214438   4.431   5.288   4.963
 4805SOL     OW14439   5.076   3.776   3.892
 4805SOL    HW114440   5.111   3.735   3.808
 4805SOL    HW214441   4.986   3.738   3.912
 4806SOL     OW14442   5.024   4.177   4.415
 4806SOL    HW114443   4.965   4.257   4.419
 4806SOL    HW214444   5.039   4.142   4.508
 4807SOL     OW14445   3.763   4.801   4.024
 4807SOL    HW114446   3.862   4.790   4.015
 4807SOL    HW214447   3.723   4.715   4.056
   5.29062   5.29062   5.29062
