mobley_7608435_GMX.gro created by acpype (v: 2023.10.27) on Wed May 20 23:52:37 2026
   29
    1MOL     C1    1   2.755   2.300   2.621
    1MOL     C2    2   2.479   3.144   2.669
    1MOL     C3    3   2.839   2.081   2.648
    1MOL     C4    4   2.722   2.426   2.699
    1MOL     C5    5   2.511   3.019   2.590
    1MOL     C6    6   2.673   2.540   2.610
    1MOL     C7    7   2.566   2.908   2.679
    1MOL     C8    8   2.647   2.669   2.690
    1MOL     C9    9   2.595   2.781   2.600
    1MOL     O1   10   2.746   2.288   2.499
    1MOL     O2   11   2.801   2.205   2.707
    1MOL     H1   12   2.568   3.183   2.718
    1MOL     H2   13   2.403   3.123   2.746
    1MOL     H3   14   2.440   3.222   2.603
    1MOL     H4   15   2.869   2.011   2.726
    1MOL     H5   16   2.922   2.098   2.578
    1MOL     H6   17   2.754   2.040   2.593
    1MOL     H7   18   2.814   2.457   2.750
    1MOL     H8   19   2.647   2.402   2.774
    1MOL     H9   20   2.421   2.984   2.539
    1MOL    H10   21   2.584   3.043   2.512
    1MOL    H11   22   2.582   2.511   2.557
    1MOL    H12   23   2.750   2.561   2.534
    1MOL    H13   24   2.658   2.942   2.728
    1MOL    H14   25   2.494   2.886   2.759
    1MOL    H15   26   2.740   2.701   2.739
    1MOL    H16   27   2.574   2.650   2.770
    1MOL    H17   28   2.670   2.802   2.522
    1MOL    H18   29   2.504   2.747   2.549
   5.29062   5.29062   5.29062
