mobley_5471704_GMX.gro created by acpype (v: 2023.10.27) on Thu May 21 00:01:27 2026
   23
    1MOL     C1    1   2.388   2.406   2.142
    1MOL     C2    2   2.436   2.472   2.016
    1MOL     C3    3   2.301   2.451   2.656
    1MOL     C4    4   2.499   2.298   2.652
    1MOL     C5    5   2.482   2.491   2.486
    1MOL     C6    6   2.409   2.413   2.377
    1MOL     C7    7   2.451   2.441   2.628
    1MOL     O1    8   2.309   2.313   2.145
    1MOL     O2    9   2.446   2.466   2.251
    1MOL     H1   10   2.545   2.460   2.007
    1MOL     H2   11   2.409   2.578   2.017
    1MOL     H3   12   2.389   2.424   1.930
    1MOL     H4   13   2.278   2.420   2.758
    1MOL     H5   14   2.244   2.387   2.587
    1MOL     H6   15   2.266   2.554   2.644
    1MOL     H7   16   2.455   2.229   2.579
    1MOL     H8   17   2.470   2.263   2.752
    1MOL     H9   18   2.608   2.290   2.645
    1MOL    H10   19   2.590   2.483   2.467
    1MOL    H11   20   2.458   2.597   2.477
    1MOL    H12   21   2.436   2.307   2.380
    1MOL    H13   22   2.300   2.423   2.387
    1MOL    H14   23   2.503   2.507   2.700
   4.84153   4.84153   4.84153
