mobley_7943327_GMX.gro created by acpype (v: 2023.10.27) on Wed May 20 23:45:55 2026
   17
    1MOL     C1    1   2.385   2.398   2.327
    1MOL     C2    2   2.504   2.321   2.119
    1MOL     C3    3   2.304   2.448   2.681
    1MOL     C4    4   2.504   2.323   2.271
    1MOL     C5    5   2.284   2.461   2.531
    1MOL     O1    6   2.298   2.452   2.260
    1MOL     O2    7   2.390   2.394   2.463
    1MOL     H1    8   2.507   2.423   2.079
    1MOL     H2    9   2.591   2.266   2.082
    1MOL     H3   10   2.414   2.272   2.081
    1MOL     H4   11   2.224   2.498   2.736
    1MOL     H5   12   2.307   2.343   2.710
    1MOL     H6   13   2.400   2.492   2.710
    1MOL     H7   14   2.595   2.372   2.307
    1MOL     H8   15   2.501   2.220   2.309
    1MOL     H9   16   2.284   2.566   2.502
    1MOL    H10   17   2.189   2.416   2.501
   4.78500   4.78500   4.78500
