mobley_4035953_GMX.gro created by acpype (v: 2023.10.27) on Thu May 21 00:02:05 2026
   16
    1MOL     C1    1   2.323   2.217   2.097
    1MOL     C2    2   2.293   2.269   2.235
    1MOL     C3    3   2.163   2.259   2.286
    1MOL     C4    4   2.132   2.306   2.414
    1MOL     C5    5   2.231   2.364   2.493
    1MOL     C6    6   2.361   2.375   2.444
    1MOL     C7    7   2.391   2.328   2.316
    1MOL     O1    8   2.521   2.342   2.275
    1MOL     H1    9   2.532   2.307   2.186
    1MOL     H2   10   2.234   2.175   2.050
    1MOL     H3   11   2.359   2.299   2.033
    1MOL     H4   12   2.399   2.138   2.102
    1MOL     H5   13   2.084   2.213   2.226
    1MOL     H6   14   2.030   2.297   2.452
    1MOL     H7   15   2.207   2.400   2.592
    1MOL     H8   16   2.438   2.420   2.505
   4.58804   4.58804   4.58804
