mobley_4035953_GMX.gro created by acpype (v: 2023.10.27) on Thu May 21 00:02:05 2026
 9448
    1MOL     C1    1   2.323   2.217   2.097
    1MOL     C2    2   2.293   2.269   2.235
    1MOL     C3    3   2.163   2.259   2.286
    1MOL     C4    4   2.132   2.306   2.414
    1MOL     C5    5   2.231   2.364   2.493
    1MOL     C6    6   2.361   2.375   2.444
    1MOL     C7    7   2.391   2.328   2.316
    1MOL     O1    8   2.521   2.342   2.275
    1MOL     H1    9   2.532   2.307   2.186
    1MOL     H2   10   2.234   2.175   2.050
    1MOL     H3   11   2.359   2.299   2.033
    1MOL     H4   12   2.399   2.138   2.102
    1MOL     H5   13   2.084   2.213   2.226
    1MOL     H6   14   2.030   2.297   2.452
    1MOL     H7   15   2.207   2.400   2.592
    1MOL     H8   16   2.438   2.420   2.505
    2SOL     OW   17   0.230   0.628   0.113
    2SOL    HW1   18   0.137   0.626   0.150
    2SOL    HW2   19   0.231   0.589   0.021
    3SOL     OW   20   0.225   0.275   0.996
    3SOL    HW1   21   0.260   0.258   1.088
    3SOL    HW2   22   0.137   0.230   0.984
    4SOL     OW   23   0.019   0.368   0.647
    4SOL    HW1   24  -0.063   0.411   0.686
    4SOL    HW2   25  -0.009   0.295   0.584
    5SOL     OW   26   0.569   1.275   1.165
    5SOL    HW1   27   0.476   1.268   1.128
    5SOL    HW2   28   0.580   1.364   1.209
    6SOL     OW   29   1.555   1.511   0.703
    6SOL    HW1   30   1.498   1.495   0.784
    6SOL    HW2   31   1.496   1.521   0.623
    7SOL     OW   32   1.135   0.703   0.717
    7SOL    HW1   33   1.192   0.781   0.692
    7SOL    HW2   34   1.075   0.729   0.793
    8SOL     OW   35   1.755   0.607   0.231
    8SOL    HW1   36   1.743   0.594   0.132
    8SOL    HW2   37   1.725   0.526   0.280
    9SOL     OW   38   0.768   1.144   1.023
    9SOL    HW1   39   0.690   1.161   1.083
    9SOL    HW2   40   0.802   1.231   0.987
   10SOL     OW   41   0.850   0.798   1.823
   10SOL    HW1   42   0.846   0.874   1.888
   10SOL    HW2   43   0.872   0.834   1.732
   11SOL     OW   44   0.685   1.012   0.665
   11SOL    HW1   45   0.754   0.996   0.735
   11SOL    HW2   46   0.612   1.069   0.703
   12SOL     OW   47   0.686   1.161   1.803
   12SOL    HW1   48   0.746   1.240   1.817
   12SOL    HW2   49   0.600   1.192   1.762
   13SOL     OW   50   0.335   1.435   1.061
   13SOL    HW1   51   0.257   1.404   1.008
   13SOL    HW2   52   0.393   1.493   1.004
   14SOL     OW   53   1.460   1.505   1.339
   14SOL    HW1   54   1.484   1.599   1.365
   14SOL    HW2   55   1.444   1.451   1.421
   15SOL     OW   56   0.438   0.392   1.499
   15SOL    HW1   57   0.520   0.336   1.508
   15SOL    HW2   58   0.357   0.334   1.503
   16SOL     OW   59   1.603   0.447   0.737
   16SOL    HW1   60   1.529   0.493   0.687
   16SOL    HW2   61   1.654   0.515   0.790
   17SOL     OW   62   0.231   1.713   0.483
   17SOL    HW1   63   0.265   1.790   0.537
   17SOL    HW2   64   0.275   1.713   0.393
   18SOL     OW   65   1.127   1.341   1.690
   18SOL    HW1   66   1.174   1.341   1.778
   18SOL    HW2   67   1.079   1.254   1.679
   19SOL     OW   68   0.230   1.434   0.538
   19SOL    HW1   69   0.204   1.530   0.538
   19SOL    HW2   70   0.159   1.380   0.583
   20SOL     OW   71   0.240   1.091   0.886
   20SOL    HW1   72   0.254   1.007   0.938
   20SOL    HW2   73   0.185   1.155   0.941
   21SOL     OW   74   0.620   1.786   1.439
   21SOL    HW1   75   0.528   1.769   1.474
   21SOL    HW2   76   0.648   1.878   1.465
   22SOL     OW   77   0.606   0.964   0.123
   22SOL    HW1   78   0.613   1.048   0.069
   22SOL    HW2   79   0.652   0.977   0.211
   23SOL     OW   80   1.594   0.114   1.480
   23SOL    HW1   81   1.576   0.181   1.408
   23SOL    HW2   82   1.591   0.160   1.569
   24SOL     OW   83   0.122   0.643   0.563
   24SOL    HW1   84   0.077   0.555   0.580
   24SOL    HW2   85   0.121   0.697   0.647
   25SOL     OW   86   1.842   1.767   0.359
   25SOL    HW1   87   1.896   1.738   0.439
   25SOL    HW2   88   1.872   1.857   0.330
   26SOL     OW   89   0.027   1.596   0.117
   26SOL    HW1   90   0.008   1.500   0.138
   26SOL    HW2   91  -0.006   1.654   0.192
   27SOL     OW   92   1.689   0.922   0.612
   27SOL    HW1   93   1.784   0.893   0.620
   27SOL    HW2   94   1.681   0.987   0.537
   28SOL     OW   95   1.641   1.108   0.432
   28SOL    HW1   96   1.727   1.110   0.380
   28SOL    HW2   97   1.655   1.155   0.520
   29SOL     OW   98   0.113   0.737   1.597
   29SOL    HW1   99   0.201   0.724   1.642
   29SOL    HW2  100   0.100   0.834   1.575
   30SOL     OW  101   0.613   1.365   0.726
   30SOL    HW1  102   0.564   1.278   0.735
   30SOL    HW2  103   0.590   1.408   0.639
   31SOL     OW  104   1.293   1.228   1.423
   31SOL    HW1  105   1.330   1.155   1.365
   31SOL    HW2  106   1.345   1.233   1.508
   32SOL     OW  107   0.809   0.004   0.502
   32SOL    HW1  108   0.849   0.095   0.493
   32SOL    HW2  109   0.709   0.012   0.508
   33SOL     OW  110   0.197   0.976   1.264
   33SOL    HW1  111   0.286   0.931   1.250
   33SOL    HW2  112   0.124   0.911   1.245
   34SOL     OW  113   1.525   0.999   0.190
   34SOL    HW1  114   1.462   0.923   0.203
   34SOL    HW2  115   1.573   1.017   0.276
   35SOL     OW  116   1.187   1.792   1.616
   35SOL    HW1  117   1.211   1.852   1.540
   35SOL    HW2  118   1.194   1.697   1.586
   36SOL     OW  119   0.317   0.251   1.801
   36SOL    HW1  120   0.388   0.322   1.807
   36SOL    HW2  121   0.229   0.290   1.829
   37SOL     OW  122   1.466   1.417   0.953
   37SOL    HW1  123   1.407   1.423   1.033
   37SOL    HW2  124   1.451   1.329   0.907
   38SOL     OW  125   1.667   1.714   0.572
   38SOL    HW1  126   1.626   1.691   0.484
   38SOL    HW2  127   1.649   1.640   0.637
   39SOL     OW  128   0.598   0.729   0.270
   39SOL    HW1  129   0.622   0.798   0.202
   39SOL    HW2  130   0.520   0.762   0.324
   40SOL     OW  131   1.281   0.345   0.944
   40SOL    HW1  132   1.195   0.295   0.931
   40SOL    HW2  133   1.343   0.291   1.000
   41SOL     OW  134   1.576   1.662   0.307
   41SOL    HW1  135   1.665   1.708   0.310
   41SOL    HW2  136   1.555   1.638   0.212
   42SOL     OW  137   0.807   0.605   1.465
   42SOL    HW1  138   0.760   0.602   1.554
   42SOL    HW2  139   0.756   0.550   1.399
   43SOL     OW  140   1.394   0.469   1.674
   43SOL    HW1  141   1.374   0.512   1.762
   43SOL    HW2  142   1.472   0.407   1.683
   44SOL     OW  143   0.973   0.890   1.572
   44SOL    HW1  144   1.019   0.806   1.543
   44SOL    HW2  145   0.917   0.924   1.497
   45SOL     OW  146   0.991   0.410   1.242
   45SOL    HW1  147   0.914   0.444   1.296
   45SOL    HW2  148   0.957   0.359   1.163
   46SOL     OW  149   1.041   0.701   0.429
   46SOL    HW1  150   1.067   0.697   0.525
   46SOL    HW2  151   0.956   0.650   0.415
   47SOL     OW  152   0.076   0.811   0.789
   47SOL    HW1  153   0.175   0.799   0.798
   47SOL    HW2  154   0.052   0.906   0.810
   48SOL     OW  155   0.130   1.821   1.571
   48SOL    HW1  156   0.120   1.806   1.670
   48SOL    HW2  157   0.044   1.857   1.535
   49SOL     OW  158   0.865   0.348   0.195
   49SOL    HW1  159   0.924   0.411   0.146
   49SOL    HW2  160   0.884   0.254   0.166
   50SOL     OW  161   1.719   0.585   1.831
   50SOL    HW1  162   1.693   0.674   1.795
   50SOL    HW2  163   1.717   0.517   1.758
   51SOL     OW  164   1.362   1.144   0.545
   51SOL    HW1  165   1.445   1.115   0.497
   51SOL    HW2  166   1.313   1.211   0.489
   52SOL     OW  167   0.550   0.196   0.885
   52SOL    HW1  168   0.545   0.191   0.985
   52SOL    HW2  169   0.552   0.292   0.856
   53SOL     OW  170   1.008   1.456   0.477
   53SOL    HW1  171   0.962   1.528   0.425
   53SOL    HW2  172   1.004   1.476   0.575
   54SOL     OW  173   0.351   1.801   0.853
   54SOL    HW1  174   0.401   1.715   0.859
   54SOL    HW2  175   0.416   1.878   0.850
   55SOL     OW  176   1.795   1.066   0.873
   55SOL    HW1  177   1.733   1.051   0.797
   55SOL    HW2  178   1.743   1.077   0.958
   56SOL     OW  179   1.227   1.550   1.506
   56SOL    HW1  180   1.233   1.473   1.570
   56SOL    HW2  181   1.175   1.524   1.426
   57SOL     OW  182   0.321   0.943   0.242
   57SOL    HW1  183   0.403   0.982   0.200
   57SOL    HW2  184   0.294   0.861   0.193
   58SOL     OW  185   1.458   0.735   0.728
   58SOL    HW1  186   1.453   0.670   0.803
   58SOL    HW2  187   1.538   0.794   0.741
   59SOL     OW  188   0.461   1.266   1.727
   59SOL    HW1  189   0.411   1.267   1.641
   59SOL    HW2  190   0.398   1.248   1.803
   60SOL     OW  191   1.111   1.776   0.237
   60SOL    HW1  192   1.051   1.714   0.287
   60SOL    HW2  193   1.142   1.732   0.152
   61SOL     OW  194   0.202   0.285   1.498
   61SOL    HW1  195   0.122   0.345   1.485
   61SOL    HW2  196   0.192   0.236   1.584
   62SOL     OW  197   1.632   1.377   0.081
   62SOL    HW1  198   1.600   1.471   0.071
   62SOL    HW2  199   1.556   1.314   0.069
   63SOL     OW  200   0.464   1.743   0.323
   63SOL    HW1  201   0.497   1.782   0.409
   63SOL    HW2  202   0.540   1.736   0.258
   64SOL     OW  203   1.400   0.107   0.426
   64SOL    HW1  204   1.376   0.070   0.336
   64SOL    HW2  205   1.499   0.123   0.430
   65SOL     OW  206   0.249   1.785   1.241
   65SOL    HW1  207   0.306   1.720   1.291
   65SOL    HW2  208   0.233   1.752   1.148
   66SOL     OW  209   0.940   1.698   0.904
   66SOL    HW1  210   1.020   1.641   0.925
   66SOL    HW2  211   0.891   1.658   0.827
   67SOL     OW  212   0.382   0.700   0.480
   67SOL    HW1  213   0.427   0.610   0.477
   67SOL    HW2  214   0.288   0.689   0.513
   68SOL     OW  215   1.547   0.222   1.729
   68SOL    HW1  216   1.542   0.259   1.821
   68SOL    HW2  217   1.475   0.153   1.717
   69SOL     OW  218   0.614   0.122   0.117
   69SOL    HW1  219   0.712   0.100   0.124
   69SOL    HW2  220   0.583   0.105   0.024
   70SOL     OW  221   0.781   0.264   1.749
   70SOL    HW1  222   0.848   0.203   1.792
   70SOL    HW2  223   0.708   0.283   1.814
   71SOL     OW  224   0.888   1.514   1.195
   71SOL    HW1  225   0.865   1.489   1.101
   71SOL    HW2  226   0.949   1.445   1.234
   72SOL     OW  227   1.351   0.590   1.433
   72SOL    HW1  228   1.379   0.547   1.518
   72SOL    HW2  229   1.376   0.686   1.434
   73SOL     OW  230   0.803   1.402   0.924
   73SOL    HW1  231   0.893   1.416   0.882
   73SOL    HW2  232   0.732   1.404   0.853
   74SOL     OW  233   0.922   0.503   0.899
   74SOL    HW1  234   0.897   0.494   0.803
   74SOL    HW2  235   0.970   0.421   0.930
   75SOL     OW  236   0.539   0.064   0.512
   75SOL    HW1  237   0.458   0.065   0.570
   75SOL    HW2  238   0.542   0.147   0.457
   76SOL     OW  239   1.434   1.188   0.041
   76SOL    HW1  240   1.466   1.112   0.098
   76SOL    HW2  241   1.342   1.215   0.071
   77SOL     OW  242   0.297   0.035   0.171
   77SOL    HW1  243   0.346   0.119   0.150
   77SOL    HW2  244   0.359  -0.030   0.216
   78SOL     OW  245   0.935   0.236   0.480
   78SOL    HW1  246   0.887   0.277   0.402
   78SOL    HW2  247   1.034   0.234   0.461
   79SOL     OW  248   1.076   0.683   1.464
   79SOL    HW1  249   0.996   0.622   1.467
   79SOL    HW2  250   1.157   0.630   1.440
   80SOL     OW  251   1.227   1.570   0.793
   80SOL    HW1  252   1.248   1.644   0.728
   80SOL    HW2  253   1.295   1.570   0.866
   81SOL     OW  254   0.459   1.152   0.741
   81SOL    HW1  255   0.388   1.125   0.806
   81SOL    HW2  256   0.433   1.124   0.648
   82SOL     OW  257   1.271   1.797   0.591
   82SOL    HW1  258   1.315   1.861   0.527
   82SOL    HW2  259   1.221   1.849   0.661
   83SOL     OW  260   1.032   0.549   0.016
   83SOL    HW1  261   0.991   0.631  -0.023
   83SOL    HW2  262   1.096   0.575   0.089
   84SOL     OW  263   0.078   0.556   1.386
   84SOL    HW1  264   0.170   0.555   1.345
   84SOL    HW2  265   0.072   0.630   1.453
   85SOL     OW  266   0.561   0.222   1.147
   85SOL    HW1  267   0.599   0.138   1.184
   85SOL    HW2  268   0.473   0.241   1.191
   86SOL     OW  269   0.866   0.454   0.642
   86SOL    HW1  270   0.834   0.526   0.580
   86SOL    HW2  271   0.890   0.373   0.589
   87SOL     OW  272   1.017   0.039   0.753
   87SOL    HW1  273   0.945   0.044   0.684
   87SOL    HW2  274   0.993  -0.030   0.822
   88SOL     OW  275   1.429   1.173   0.867
   88SOL    HW1  276   1.374   1.089   0.860
   88SOL    HW2  277   1.455   1.202   0.775
   89SOL     OW  278   1.466   0.590   0.992
   89SOL    HW1  279   1.436   0.495   0.999
   89SOL    HW2  280   1.539   0.606   1.058
   90SOL     OW  281   1.857   0.833   0.377
   90SOL    HW1  282   1.899   0.769   0.441
   90SOL    HW2  283   1.819   0.782   0.299
   91SOL     OW  284   0.488   1.385   0.174
   91SOL    HW1  285   0.401   1.370   0.221
   91SOL    HW2  286   0.471   1.411   0.079
   92SOL     OW  287   1.664   1.280   0.657
   92SOL    HW1  288   1.763   1.288   0.671
   92SOL    HW2  289   1.619   1.364   0.688
   93SOL     OW  290   1.390   0.575   0.078
   93SOL    HW1  291   1.336   0.554   0.159
   93SOL    HW2  292   1.481   0.534   0.087
   94SOL     OW  293   0.527   0.256   0.328
   94SOL    HW1  294   0.554   0.197   0.253
   94SOL    HW2  295   0.527   0.351   0.297
   95SOL     OW  296   1.754   1.223   1.588
   95SOL    HW1  297   1.845   1.184   1.575
   95SOL    HW2  298   1.762   1.319   1.612
   96SOL     OW  299   1.064   1.347   1.340
   96SOL    HW1  300   0.984   1.324   1.395
   96SOL    HW2  301   1.147   1.321   1.389
   97SOL     OW  302   1.592   1.629   1.625
   97SOL    HW1  303   1.619   1.663   1.535
   97SOL    HW2  304   1.671   1.591   1.671
   98SOL     OW  305   1.111   1.195   1.100
   98SOL    HW1  306   1.071   1.239   1.181
   98SOL    HW2  307   1.070   1.232   1.017
   99SOL     OW  308   1.638   1.099   1.079
   99SOL    HW1  309   1.643   1.180   1.138
   99SOL    HW2  310   1.552   1.101   1.028
  100SOL     OW  311   0.915   0.089   1.402
  100SOL    HW1  312   0.940   0.069   1.307
  100SOL    HW2  313   0.987   0.145   1.444
  101SOL     OW  314   0.980   1.116   1.719
  101SOL    HW1  315   0.881   1.122   1.729
  101SOL    HW2  316   1.003   1.036   1.663
  102SOL     OW  317   0.705   1.050   0.368
  102SOL    HW1  318   0.691   1.057   0.467
  102SOL    HW2  319   0.789   0.999   0.350
  103SOL     OW  320   0.410   0.813   1.251
  103SOL    HW1  321   0.496   0.825   1.301
  103SOL    HW2  322   0.368   0.726   1.278
  104SOL     OW  323   1.274   0.386   1.262
  104SOL    HW1  324   1.295   0.460   1.326
  104SOL    HW2  325   1.185   0.403   1.219
  105SOL     OW  326   0.064   1.564   1.331
  105SOL    HW1  327   0.018   1.646   1.297
  105SOL    HW2  328   0.162   1.583   1.340
  106SOL     OW  329   0.367   1.100   0.501
  106SOL    HW1  330   0.360   1.183   0.445
  106SOL    HW2  331   0.371   1.020   0.441
  107SOL     OW  332   0.566   0.537   0.865
  107SOL    HW1  333   0.578   0.603   0.791
  107SOL    HW2  334   0.612   0.571   0.948
  108SOL     OW  335   1.252   1.348   0.388
  108SOL    HW1  336   1.302   1.425   0.428
  108SOL    HW2  337   1.157   1.350   0.420
  109SOL     OW  338   1.272   1.445   1.142
  109SOL    HW1  339   1.319   1.458   1.229
  109SOL    HW2  340   1.206   1.371   1.151
  110SOL     OW  341   1.582   0.639   0.472
  110SOL    HW1  342   1.551   0.700   0.545
  110SOL    HW2  343   1.632   0.691   0.403
  111SOL     OW  344   0.354   1.510   1.329
  111SOL    HW1  345   0.333   1.466   1.242
  111SOL    HW2  346   0.451   1.536   1.332
  112SOL     OW  347   0.402   0.751   1.598
  112SOL    HW1  348   0.470   0.806   1.551
  112SOL    HW2  349   0.442   0.663   1.625
  113SOL     OW  350   1.587   0.779   1.670
  113SOL    HW1  351   1.495   0.817   1.665
  113SOL    HW2  352   1.647   0.826   1.605
  114SOL     OW  353   1.013   0.105   1.770
  114SOL    HW1  354   1.019   0.190   1.718
  114SOL    HW2  355   1.045   0.029   1.713
  115SOL     OW  356   0.504   0.050   1.740
  115SOL    HW1  357   0.462  -0.007   1.670
  115SOL    HW2  358   0.438   0.119   1.772
  116SOL     OW  359   0.573   0.870   1.029
  116SOL    HW1  360   0.617   0.959   1.020
  116SOL    HW2  361   0.510   0.870   1.106
  117SOL     OW  362   1.360   0.862   1.045
  117SOL    HW1  363   1.285   0.862   0.979
  117SOL    HW2  364   1.397   0.770   1.054
  118SOL     OW  365   1.209   0.525   0.275
  118SOL    HW1  366   1.222   0.441   0.329
  118SOL    HW2  367   1.180   0.599   0.335
  119SOL     OW  368   0.307   0.213   1.231
  119SOL    HW1  369   0.284   0.250   1.321
  119SOL    HW2  370   0.277   0.118   1.225
  120SOL     OW  371   0.037   1.310   1.282
  120SOL    HW1  372   0.090   1.261   1.350
  120SOL    HW2  373   0.059   1.408   1.287
  121SOL     OW  374   0.732   0.634   1.064
  121SOL    HW1  375   0.791   0.608   0.988
  121SOL    HW2  376   0.704   0.730   1.053
  122SOL     OW  377   1.728   0.935   1.854
  122SOL    HW1  378   1.682   0.928   1.765
  122SOL    HW2  379   1.666   0.979   1.920
  123SOL     OW  380   0.307   0.063   0.618
  123SOL    HW1  381   0.296   0.157   0.651
  123SOL    HW2  382   0.302   0.000   0.695
  124SOL     OW  383   1.622   0.367   0.374
  124SOL    HW1  384   1.624   0.291   0.438
  124SOL    HW2  385   1.574   0.444   0.414
  125SOL     OW  386   1.023   0.766   0.966
  125SOL    HW1  387   1.038   0.787   1.062
  125SOL    HW2  388   0.993   0.671   0.957
  126SOL     OW  389   0.980   1.573   1.700
  126SOL    HW1  390   0.960   1.617   1.612
  126SOL    HW2  391   1.019   1.482   1.684
  127SOL     OW  392   1.859   1.518   1.605
  127SOL    HW1  393   1.873   1.545   1.510
  127SOL    HW2  394   1.942   1.540   1.658
  128SOL     OW  395   0.350   0.898   1.804
  128SOL    HW1  396   0.426   0.942   1.852
  128SOL    HW2  397   0.385   0.851   1.722
  129SOL     OW  398   1.540   0.274   0.125
  129SOL    HW1  399   1.479   0.199   0.148
  129SOL    HW2  400   1.562   0.326   0.208
  130SOL     OW  401   1.303   0.838   0.042
  130SOL    HW1  402   1.337   0.745   0.057
  130SOL    HW2  403   1.321   0.865  -0.053
  131SOL     OW  404   1.068   1.333   0.849
  131SOL    HW1  405   1.075   1.249   0.794
  131SOL    HW2  406   1.130   1.402   0.813
  132SOL     OW  407   0.319   0.810   0.949
  132SOL    HW1  408   0.412   0.846   0.954
  132SOL    HW2  409   0.313   0.725   1.001
  133SOL     OW  410   0.339   0.509   1.006
  133SOL    HW1  411   0.287   0.426   0.989
  133SOL    HW2  412   0.416   0.514   0.942
  134SOL     OW  413   1.138   0.380   1.678
  134SOL    HW1  414   1.093   0.443   1.742
  134SOL    HW2  415   1.231   0.411   1.661
  135SOL     OW  416   1.160   0.207   1.477
  135SOL    HW1  417   1.160   0.271   1.554
  135SOL    HW2  418   1.188   0.255   1.394
  136SOL     OW  419   0.008   1.326   0.200
  136SOL    HW1  420  -0.085   1.347   0.169
  136SOL    HW2  421   0.018   1.227   0.213
  137SOL     OW  422   0.088   1.801   0.927
  137SOL    HW1  423   0.046   1.715   0.900
  137SOL    HW2  424   0.182   1.804   0.893
  138SOL     OW  425   0.504   1.568   0.910
  138SOL    HW1  426   0.570   1.642   0.919
  138SOL    HW2  427   0.548   1.489   0.868
  139SOL     OW  428   1.002   0.796   1.238
  139SOL    HW1  429   1.043   0.764   1.324
  139SOL    HW2  430   0.906   0.769   1.235
  140SOL     OW  431   0.040   0.544   1.114
  140SOL    HW1  432   0.125   0.511   1.073
  140SOL    HW2  433   0.053   0.559   1.212
  141SOL     OW  434   0.189   0.520   1.722
  141SOL    HW1  435   0.248   0.480   1.652
  141SOL    HW2  436   0.131   0.591   1.681
  142SOL     OW  437   1.369   0.950   1.660
  142SOL    HW1  438   1.408   1.039   1.680
  142SOL    HW2  439   1.379   0.930   1.563
  143SOL     OW  440   0.815   0.572   0.325
  143SOL    HW1  441   0.822   0.483   0.279
  143SOL    HW2  442   0.721   0.606   0.317
  144SOL     OW  443   1.657   0.604   1.206
  144SOL    HW1  444   1.619   0.535   1.268
  144SOL    HW2  445   1.739   0.568   1.162
  145SOL     OW  446   0.252   1.564   1.744
  145SOL    HW1  447   0.222   1.621   1.820
  145SOL    HW2  448   0.245   1.467   1.770
  146SOL     OW  449   0.671   0.464   1.269
  146SOL    HW1  450   0.637   0.375   1.239
  146SOL    HW2  451   0.697   0.518   1.189
  147SOL     OW  452   0.930   1.678   1.465
  147SOL    HW1  453   0.906   1.660   1.370
  147SOL    HW2  454   0.960   1.772   1.475
  148SOL     OW  455   0.473   0.500   0.191
  148SOL    HW1  456   0.534   0.580   0.195
  148SOL    HW2  457   0.378   0.531   0.198
  149SOL     OW  458   0.159   1.137   1.466
  149SOL    HW1  459   0.181   1.076   1.542
  149SOL    HW2  460   0.169   1.088   1.380
  150SOL     OW  461   1.347   1.059   1.234
  150SOL    HW1  462   1.371   0.996   1.160
  150SOL    HW2  463   1.257   1.099   1.216
  151SOL     OW  464   1.302   0.855   0.309
  151SOL    HW1  465   1.216   0.824   0.351
  151SOL    HW2  466   1.298   0.841   0.210
  152SOL     OW  467   1.759   1.747   1.154
  152SOL    HW1  468   1.820   1.777   1.081
  152SOL    HW2  469   1.721   1.658   1.132
  153SOL     OW  470   1.252   1.731   1.128
  153SOL    HW1  471   1.336   1.736   1.074
  153SOL    HW2  472   1.229   1.635   1.146
  154SOL     OW  473   0.083   1.258   1.022
  154SOL    HW1  474   0.078   1.257   1.122
  154SOL    HW2  475   0.000   1.217   0.984
  155SOL     OW  476   0.688   1.662   1.716
  155SOL    HW1  477   0.632   1.743   1.725
  155SOL    HW2  478   0.740   1.666   1.630
  156SOL     OW  479   0.903   0.086   0.133
  156SOL    HW1  480   0.954   0.087   0.047
  156SOL    HW2  481   0.959   0.044   0.204
  157SOL     OW  482   1.726   0.135   0.523
  157SOL    HW1  483   1.799   0.118   0.456
  157SOL    HW2  484   1.695   0.048   0.561
  158SOL     OW  485   1.388   1.573   0.477
  158SOL    HW1  486   1.455   1.585   0.403
  158SOL    HW2  487   1.348   1.662   0.500
  159SOL     OW  488   0.130   1.794   1.851
  159SOL    HW1  489   0.089   1.720   1.904
  159SOL    HW2  490   0.194   1.845   1.909
  160SOL     OW  491   1.280   0.927   0.672
  160SOL    HW1  492   1.340   0.846   0.674
  160SOL    HW2  493   1.320   0.996   0.612
  161SOL     OW  494   0.830   1.273   1.422
  161SOL    HW1  495   0.825   1.306   1.517
  161SOL    HW2  496   0.744   1.292   1.376
  162SOL     OW  497   0.672   1.616   0.154
  162SOL    HW1  498   0.681   1.626   0.055
  162SOL    HW2  499   0.632   1.527   0.175
  163SOL     OW  500   1.650   1.720   1.394
  163SOL    HW1  501   1.703   1.730   1.310
  163SOL    HW2  502   1.623   1.810   1.428
  164SOL     OW  503   1.841   0.175   0.963
  164SOL    HW1  504   1.880   0.090   0.927
  164SOL    HW2  505   1.743   0.177   0.944
  165SOL     OW  506   0.263   0.326   0.720
  165SOL    HW1  507   0.184   0.377   0.686
  165SOL    HW2  508   0.254   0.311   0.818
  166SOL     OW  509   1.194   1.612   0.031
  166SOL    HW1  510   1.200   1.519   0.068
  166SOL    HW2  511   1.135   1.612  -0.049
  167SOL     OW  512   0.822   1.002   1.372
  167SOL    HW1  513   0.862   1.001   1.280
  167SOL    HW2  514   0.832   1.094   1.412
  168SOL     OW  515   0.916   0.910   0.291
  168SOL    HW1  516   0.979   0.948   0.223
  168SOL    HW2  517   0.956   0.827   0.330
  169SOL     OW  518   1.504   1.607   0.044
  169SOL    HW1  519   1.412   1.644   0.051
  169SOL    HW2  520   1.542   1.627  -0.046
  170SOL     OW  521   0.372   1.288   1.490
  170SOL    HW1  522   0.359   1.381   1.456
  170SOL    HW2  523   0.288   1.236   1.477
  171SOL     OW  524   1.614   1.292   1.289
  171SOL    HW1  525   1.674   1.295   1.369
  171SOL    HW2  526   1.539   1.356   1.302
  172SOL     OW  527   1.039   1.098   0.696
  172SOL    HW1  528   0.969   1.051   0.750
  172SOL    HW2  529   1.098   1.030   0.653
  173SOL     OW  530   1.014   0.236   0.971
  173SOL    HW1  531   1.006   0.200   0.878
  173SOL    HW2  532   1.012   0.160   1.036
  174SOL     OW  533   0.590   1.487   0.491
  174SOL    HW1  534   0.632   1.429   0.421
  174SOL    HW2  535   0.546   1.566   0.447
  175SOL     OW  536   1.709   0.385   1.381
  175SOL    HW1  537   1.782   0.454   1.385
  175SOL    HW2  538   1.737   0.310   1.322
  176SOL     OW  539   0.255   1.348   0.290
  176SOL    HW1  540   0.159   1.349   0.263
  176SOL    HW2  541   0.267   1.401   0.374
  177SOL     OW  542   0.105   1.013   1.726
  177SOL    HW1  543   0.028   0.980   1.780
  177SOL    HW2  544   0.190   0.983   1.768
  178SOL     OW  545   0.672   0.203   1.489
  178SOL    HW1  546   0.762   0.187   1.449
  178SOL    HW2  547   0.680   0.208   1.588
  179SOL     OW  548   0.075   0.345   0.033
  179SOL    HW1  549  -0.017   0.317   0.004
  179SOL    HW2  550   0.106   0.422  -0.023
  180SOL     OW  551   1.440   0.856   1.398
  180SOL    HW1  552   1.383   0.908   1.335
  180SOL    HW2  553   1.536   0.868   1.374
  181SOL     OW  554   0.072   0.166   0.318
  181SOL    HW1  555   0.055   0.249   0.264
  181SOL    HW2  556   0.162   0.129   0.296
  182SOL     OW  557   1.183   1.335   0.119
  182SOL    HW1  558   1.084   1.324   0.121
  182SOL    HW2  559   1.217   1.350   0.212
  183SOL     OW  560   0.613   0.842   1.431
  183SOL    HW1  561   0.669   0.923   1.414
  183SOL    HW2  562   0.672   0.762   1.434
  184SOL     OW  563   1.493   1.767   0.959
  184SOL    HW1  564   1.526   1.831   0.890
  184SOL    HW2  565   1.559   1.761   1.034
  185SOL     OW  566   0.716   0.565   1.708
  185SOL    HW1  567   0.735   0.630   1.782
  185SOL    HW2  568   0.776   0.485   1.717
  186SOL     OW  569   1.450   1.220   1.633
  186SOL    HW1  570   1.441   1.210   1.732
  186SOL    HW2  571   1.546   1.213   1.607
  187SOL     OW  572   0.390   1.741   1.560
  187SOL    HW1  573   0.299   1.782   1.558
  187SOL    HW2  574   0.383   1.647   1.592
  188SOL     OW  575   1.674   0.883   1.254
  188SOL    HW1  576   1.647   0.794   1.217
  188SOL    HW2  577   1.675   0.951   1.181
  189SOL     OW  578   1.225   0.325   0.449
  189SOL    HW1  579   1.290   0.251   0.438
  189SOL    HW2  580   1.245   0.375   0.533
  190SOL     OW  581   0.594   0.745   0.652
  190SOL    HW1  582   0.644   0.830   0.633
  190SOL    HW2  583   0.506   0.747   0.604
  191SOL     OW  584   1.777   0.342   1.642
  191SOL    HW1  585   1.760   0.373   1.548
  191SOL    HW2  586   1.693   0.305   1.680
  192SOL     OW  587   1.730   0.934   1.517
  192SOL    HW1  588   1.768   1.025   1.532
  192SOL    HW2  589   1.722   0.917   1.418
  193SOL     OW  590   0.859   1.374   0.016
  193SOL    HW1  591   0.813   1.389   0.104
  193SOL    HW2  592   0.903   1.459  -0.014
  194SOL     OW  593   0.661   1.790   0.953
  194SOL    HW1  594   0.615   1.878   0.940
  194SOL    HW2  595   0.760   1.802   0.946
  195SOL     OW  596   0.859   0.956   0.861
  195SOL    HW1  597   0.913   0.887   0.909
  195SOL    HW2  598   0.827   1.025   0.927
  196SOL     OW  599   1.083   0.984   0.087
  196SOL    HW1  600   1.060   1.037   0.005
  196SOL    HW2  601   1.164   0.928   0.068
  197SOL     OW  602   1.861   1.569   0.851
  197SOL    HW1  603   1.790   1.557   0.781
  197SOL    HW2  604   1.862   1.490   0.911
  198SOL     OW  605   0.221   1.314   1.844
  198SOL    HW1  606   0.156   1.241   1.823
  198SOL    HW2  607   0.225   1.328   1.942
  199SOL     OW  608   0.079   1.240   0.653
  199SOL    HW1  609   0.078   1.193   0.741
  199SOL    HW2  610   0.161   1.212   0.602
  200SOL     OW  611   0.672   1.391   1.624
  200SOL    HW1  612   0.594   1.341   1.662
  200SOL    HW2  613   0.669   1.486   1.655
  201SOL     OW  614   1.824   0.192   1.227
  201SOL    HW1  615   1.820   0.102   1.271
  201SOL    HW2  616   1.827   0.181   1.128
  202SOL     OW  617   0.428   0.424   0.520
  202SOL    HW1  618   0.458   0.352   0.458
  202SOL    HW2  619   0.389   0.384   0.603
  203SOL     OW  620   1.705   1.487   1.104
  203SOL    HW1  621   1.612   1.462   1.077
  203SOL    HW2  622   1.731   1.437   1.186
  204SOL     OW  623   0.317   0.547   1.280
  204SOL    HW1  624   0.355   0.488   1.352
  204SOL    HW2  625   0.357   0.521   1.192
  205SOL     OW  626   0.812   1.586   0.687
  205SOL    HW1  627   0.844   1.596   0.593
  205SOL    HW2  628   0.733   1.524   0.689
  206SOL     OW  629   1.424   0.214   1.112
  206SOL    HW1  630   1.476   0.149   1.167
  206SOL    HW2  631   1.375   0.277   1.173
  207SOL     OW  632   1.001   0.034   1.154
  207SOL    HW1  633   0.938  -0.038   1.123
  207SOL    HW2  634   1.094  -0.002   1.154
  208SOL     OW  635   0.770   1.330   0.301
  208SOL    HW1  636   0.724   1.243   0.318
  208SOL    HW2  637   0.861   1.327   0.342
  209SOL     OW  638   0.618   1.567   1.284
  209SOL    HW1  639   0.613   1.649   1.341
  209SOL    HW2  640   0.707   1.564   1.239
  210SOL     OW  641   1.352   0.052   0.168
  210SOL    HW1  642   1.387   0.011   0.084
  210SOL    HW2  643   1.262   0.014   0.188
  211SOL     OW  644   1.300   0.453   0.691
  211SOL    HW1  645   1.241   0.533   0.695
  211SOL    HW2  646   1.315   0.418   0.784
  212SOL     OW  647   1.593   0.221   0.882
  212SOL    HW1  648   1.509   0.220   0.936
  212SOL    HW2  649   1.595   0.304   0.826
  213SOL     OW  650   0.039   1.077   0.300
  213SOL    HW1  651   0.138   1.066   0.291
  213SOL    HW2  652  -0.001   0.991   0.332
  214SOL     OW  653   0.875   1.646   0.337
  214SOL    HW1  654   0.798   1.611   0.283
  214SOL    HW2  655   0.843   1.717   0.399
  215SOL     OW  656   0.230   0.628   1.975
  215SOL    HW1  657   0.137   0.626   2.012
  215SOL    HW2  658   0.231   0.589   1.883
  216SOL     OW  659   0.225   0.275   2.858
  216SOL    HW1  660   0.260   0.258   2.950
  216SOL    HW2  661   0.137   0.230   2.846
  217SOL     OW  662   0.019   0.368   2.509
  217SOL    HW1  663  -0.063   0.411   2.548
  217SOL    HW2  664  -0.009   0.295   2.446
  218SOL     OW  665   0.569   1.275   3.027
  218SOL    HW1  666   0.476   1.268   2.990
  218SOL    HW2  667   0.580   1.364   3.071
  219SOL     OW  668   1.555   1.511   2.565
  219SOL    HW1  669   1.498   1.495   2.646
  219SOL    HW2  670   1.496   1.521   2.485
  220SOL     OW  671   1.135   0.703   2.579
  220SOL    HW1  672   1.192   0.781   2.554
  220SOL    HW2  673   1.075   0.729   2.655
  221SOL     OW  674   1.755   0.607   2.093
  221SOL    HW1  675   1.743   0.594   1.994
  221SOL    HW2  676   1.725   0.526   2.142
  222SOL     OW  677   0.768   1.144   2.885
  222SOL    HW1  678   0.690   1.161   2.945
  222SOL    HW2  679   0.802   1.231   2.849
  223SOL     OW  680   0.850   0.798   3.685
  223SOL    HW1  681   0.846   0.874   3.750
  223SOL    HW2  682   0.872   0.834   3.594
  224SOL     OW  683   0.685   1.012   2.527
  224SOL    HW1  684   0.754   0.996   2.597
  224SOL    HW2  685   0.612   1.069   2.565
  225SOL     OW  686   0.686   1.161   3.665
  225SOL    HW1  687   0.746   1.240   3.679
  225SOL    HW2  688   0.600   1.192   3.624
  226SOL     OW  689   0.335   1.435   2.923
  226SOL    HW1  690   0.257   1.404   2.870
  226SOL    HW2  691   0.393   1.493   2.866
  227SOL     OW  692   1.460   1.505   3.201
  227SOL    HW1  693   1.484   1.599   3.227
  227SOL    HW2  694   1.444   1.451   3.283
  228SOL     OW  695   0.438   0.392   3.361
  228SOL    HW1  696   0.520   0.336   3.370
  228SOL    HW2  697   0.357   0.334   3.365
  229SOL     OW  698   1.603   0.447   2.599
  229SOL    HW1  699   1.529   0.493   2.549
  229SOL    HW2  700   1.654   0.515   2.652
  230SOL     OW  701   0.231   1.713   2.345
  230SOL    HW1  702   0.265   1.790   2.399
  230SOL    HW2  703   0.275   1.713   2.255
  231SOL     OW  704   1.127   1.341   3.552
  231SOL    HW1  705   1.174   1.341   3.640
  231SOL    HW2  706   1.079   1.254   3.541
  232SOL     OW  707   0.230   1.434   2.400
  232SOL    HW1  708   0.204   1.530   2.400
  232SOL    HW2  709   0.159   1.380   2.445
  233SOL     OW  710   0.240   1.091   2.748
  233SOL    HW1  711   0.254   1.007   2.800
  233SOL    HW2  712   0.185   1.155   2.803
  234SOL     OW  713   0.620   1.786   3.301
  234SOL    HW1  714   0.528   1.769   3.336
  234SOL    HW2  715   0.648   1.878   3.327
  235SOL     OW  716   0.606   0.964   1.985
  235SOL    HW1  717   0.613   1.048   1.931
  235SOL    HW2  718   0.652   0.977   2.073
  236SOL     OW  719   1.594   0.114   3.342
  236SOL    HW1  720   1.576   0.181   3.270
  236SOL    HW2  721   1.591   0.160   3.431
  237SOL     OW  722   0.122   0.643   2.425
  237SOL    HW1  723   0.077   0.555   2.442
  237SOL    HW2  724   0.121   0.697   2.509
  238SOL     OW  725   1.842   1.767   2.221
  238SOL    HW1  726   1.896   1.738   2.301
  238SOL    HW2  727   1.872   1.857   2.192
  239SOL     OW  728   0.027   1.596   1.979
  239SOL    HW1  729   0.008   1.500   2.000
  239SOL    HW2  730  -0.006   1.654   2.054
  240SOL     OW  731   1.689   0.922   2.474
  240SOL    HW1  732   1.784   0.893   2.482
  240SOL    HW2  733   1.681   0.987   2.399
  241SOL     OW  734   1.641   1.108   2.294
  241SOL    HW1  735   1.727   1.110   2.242
  241SOL    HW2  736   1.655   1.155   2.382
  242SOL     OW  737   0.113   0.737   3.459
  242SOL    HW1  738   0.201   0.724   3.504
  242SOL    HW2  739   0.100   0.834   3.437
  243SOL     OW  740   0.613   1.365   2.588
  243SOL    HW1  741   0.564   1.278   2.597
  243SOL    HW2  742   0.590   1.408   2.501
  244SOL     OW  743   1.293   1.228   3.285
  244SOL    HW1  744   1.330   1.155   3.227
  244SOL    HW2  745   1.345   1.233   3.370
  245SOL     OW  746   0.809   0.004   2.364
  245SOL    HW1  747   0.849   0.095   2.355
  245SOL    HW2  748   0.709   0.012   2.370
  246SOL     OW  749   0.197   0.976   3.126
  246SOL    HW1  750   0.286   0.931   3.112
  246SOL    HW2  751   0.124   0.911   3.107
  247SOL     OW  752   1.525   0.999   2.052
  247SOL    HW1  753   1.462   0.923   2.065
  247SOL    HW2  754   1.573   1.017   2.138
  248SOL     OW  755   1.187   1.792   3.478
  248SOL    HW1  756   1.211   1.852   3.402
  248SOL    HW2  757   1.194   1.697   3.448
  249SOL     OW  758   0.317   0.251   3.663
  249SOL    HW1  759   0.388   0.322   3.669
  249SOL    HW2  760   0.229   0.290   3.691
  250SOL     OW  761   1.466   1.417   2.815
  250SOL    HW1  762   1.407   1.423   2.895
  250SOL    HW2  763   1.451   1.329   2.769
  251SOL     OW  764   1.667   1.714   2.434
  251SOL    HW1  765   1.626   1.691   2.346
  251SOL    HW2  766   1.649   1.640   2.499
  252SOL     OW  767   0.598   0.729   2.132
  252SOL    HW1  768   0.622   0.798   2.064
  252SOL    HW2  769   0.520   0.762   2.186
  253SOL     OW  770   1.281   0.345   2.806
  253SOL    HW1  771   1.195   0.295   2.793
  253SOL    HW2  772   1.343   0.291   2.862
  254SOL     OW  773   1.576   1.662   2.169
  254SOL    HW1  774   1.665   1.708   2.172
  254SOL    HW2  775   1.555   1.638   2.074
  255SOL     OW  776   0.807   0.605   3.327
  255SOL    HW1  777   0.760   0.602   3.416
  255SOL    HW2  778   0.756   0.550   3.261
  256SOL     OW  779   1.394   0.469   3.536
  256SOL    HW1  780   1.374   0.512   3.624
  256SOL    HW2  781   1.472   0.407   3.545
  257SOL     OW  782   0.973   0.890   3.434
  257SOL    HW1  783   1.019   0.806   3.405
  257SOL    HW2  784   0.917   0.924   3.359
  258SOL     OW  785   0.991   0.410   3.104
  258SOL    HW1  786   0.914   0.444   3.158
  258SOL    HW2  787   0.957   0.359   3.025
  259SOL     OW  788   1.041   0.701   2.291
  259SOL    HW1  789   1.067   0.697   2.387
  259SOL    HW2  790   0.956   0.650   2.277
  260SOL     OW  791   0.076   0.811   2.651
  260SOL    HW1  792   0.175   0.799   2.660
  260SOL    HW2  793   0.052   0.906   2.672
  261SOL     OW  794   0.130   1.821   3.433
  261SOL    HW1  795   0.120   1.806   3.532
  261SOL    HW2  796   0.044   1.857   3.397
  262SOL     OW  797   0.865   0.348   2.057
  262SOL    HW1  798   0.924   0.411   2.008
  262SOL    HW2  799   0.884   0.254   2.028
  263SOL     OW  800   1.719   0.585   3.693
  263SOL    HW1  801   1.693   0.674   3.657
  263SOL    HW2  802   1.717   0.517   3.620
  264SOL     OW  803   1.362   1.144   2.407
  264SOL    HW1  804   1.445   1.115   2.359
  264SOL    HW2  805   1.313   1.211   2.351
  265SOL     OW  806   0.550   0.196   2.747
  265SOL    HW1  807   0.545   0.191   2.847
  265SOL    HW2  808   0.552   0.292   2.718
  266SOL     OW  809   1.008   1.456   2.339
  266SOL    HW1  810   0.962   1.528   2.287
  266SOL    HW2  811   1.004   1.476   2.437
  267SOL     OW  812   0.351   1.801   2.715
  267SOL    HW1  813   0.401   1.715   2.721
  267SOL    HW2  814   0.416   1.878   2.712
  268SOL     OW  815   1.795   1.066   2.735
  268SOL    HW1  816   1.733   1.051   2.659
  268SOL    HW2  817   1.743   1.077   2.820
  269SOL     OW  818   1.227   1.550   3.368
  269SOL    HW1  819   1.233   1.473   3.432
  269SOL    HW2  820   1.175   1.524   3.288
  270SOL     OW  821   0.321   0.943   2.104
  270SOL    HW1  822   0.403   0.982   2.062
  270SOL    HW2  823   0.294   0.861   2.055
  271SOL     OW  824   1.458   0.735   2.590
  271SOL    HW1  825   1.453   0.670   2.665
  271SOL    HW2  826   1.538   0.794   2.603
  272SOL     OW  827   0.461   1.266   3.589
  272SOL    HW1  828   0.411   1.267   3.503
  272SOL    HW2  829   0.398   1.248   3.665
  273SOL     OW  830   1.111   1.776   2.099
  273SOL    HW1  831   1.051   1.714   2.149
  273SOL    HW2  832   1.142   1.732   2.014
  274SOL     OW  833   0.202   0.285   3.360
  274SOL    HW1  834   0.122   0.345   3.347
  274SOL    HW2  835   0.192   0.236   3.446
  275SOL     OW  836   1.632   1.377   1.943
  275SOL    HW1  837   1.600   1.471   1.933
  275SOL    HW2  838   1.556   1.314   1.931
  276SOL     OW  839   0.464   1.743   2.185
  276SOL    HW1  840   0.497   1.782   2.271
  276SOL    HW2  841   0.540   1.736   2.120
  277SOL     OW  842   1.400   0.107   2.288
  277SOL    HW1  843   1.376   0.070   2.198
  277SOL    HW2  844   1.499   0.123   2.292
  278SOL     OW  845   0.249   1.785   3.103
  278SOL    HW1  846   0.306   1.720   3.153
  278SOL    HW2  847   0.233   1.752   3.010
  279SOL     OW  848   0.940   1.698   2.766
  279SOL    HW1  849   1.020   1.641   2.787
  279SOL    HW2  850   0.891   1.658   2.689
  280SOL     OW  851   0.382   0.700   2.342
  280SOL    HW1  852   0.427   0.610   2.339
  280SOL    HW2  853   0.288   0.689   2.375
  281SOL     OW  854   1.547   0.222   3.591
  281SOL    HW1  855   1.542   0.259   3.683
  281SOL    HW2  856   1.475   0.153   3.579
  282SOL     OW  857   0.614   0.122   1.979
  282SOL    HW1  858   0.712   0.100   1.986
  282SOL    HW2  859   0.583   0.105   1.886
  283SOL     OW  860   0.781   0.264   3.611
  283SOL    HW1  861   0.848   0.203   3.654
  283SOL    HW2  862   0.708   0.283   3.676
  284SOL     OW  863   0.888   1.514   3.057
  284SOL    HW1  864   0.865   1.489   2.963
  284SOL    HW2  865   0.949   1.445   3.096
  285SOL     OW  866   1.351   0.590   3.295
  285SOL    HW1  867   1.379   0.547   3.380
  285SOL    HW2  868   1.376   0.686   3.296
  286SOL     OW  869   0.803   1.402   2.786
  286SOL    HW1  870   0.893   1.416   2.744
  286SOL    HW2  871   0.732   1.404   2.715
  287SOL     OW  872   0.922   0.503   2.761
  287SOL    HW1  873   0.897   0.494   2.665
  287SOL    HW2  874   0.970   0.421   2.792
  288SOL     OW  875   0.539   0.064   2.374
  288SOL    HW1  876   0.458   0.065   2.432
  288SOL    HW2  877   0.542   0.147   2.319
  289SOL     OW  878   1.434   1.188   1.903
  289SOL    HW1  879   1.466   1.112   1.960
  289SOL    HW2  880   1.342   1.215   1.933
  290SOL     OW  881   0.297   0.035   2.033
  290SOL    HW1  882   0.346   0.119   2.012
  290SOL    HW2  883   0.359  -0.030   2.078
  291SOL     OW  884   0.935   0.236   2.342
  291SOL    HW1  885   0.887   0.277   2.264
  291SOL    HW2  886   1.034   0.234   2.323
  292SOL     OW  887   1.076   0.683   3.326
  292SOL    HW1  888   0.996   0.622   3.329
  292SOL    HW2  889   1.157   0.630   3.302
  293SOL     OW  890   1.227   1.570   2.655
  293SOL    HW1  891   1.248   1.644   2.590
  293SOL    HW2  892   1.295   1.570   2.728
  294SOL     OW  893   0.459   1.152   2.603
  294SOL    HW1  894   0.388   1.125   2.668
  294SOL    HW2  895   0.433   1.124   2.510
  295SOL     OW  896   1.271   1.797   2.453
  295SOL    HW1  897   1.315   1.861   2.389
  295SOL    HW2  898   1.221   1.849   2.523
  296SOL     OW  899   1.032   0.549   1.878
  296SOL    HW1  900   0.991   0.631   1.839
  296SOL    HW2  901   1.096   0.575   1.951
  297SOL     OW  902   0.078   0.556   3.248
  297SOL    HW1  903   0.170   0.555   3.207
  297SOL    HW2  904   0.072   0.630   3.315
  298SOL     OW  905   0.561   0.222   3.009
  298SOL    HW1  906   0.599   0.138   3.046
  298SOL    HW2  907   0.473   0.241   3.053
  299SOL     OW  908   0.866   0.454   2.504
  299SOL    HW1  909   0.834   0.526   2.442
  299SOL    HW2  910   0.890   0.373   2.451
  300SOL     OW  911   1.017   0.039   2.615
  300SOL    HW1  912   0.945   0.044   2.546
  300SOL    HW2  913   0.993  -0.030   2.684
  301SOL     OW  914   1.429   1.173   2.729
  301SOL    HW1  915   1.374   1.089   2.722
  301SOL    HW2  916   1.455   1.202   2.637
  302SOL     OW  917   1.466   0.590   2.854
  302SOL    HW1  918   1.436   0.495   2.861
  302SOL    HW2  919   1.539   0.606   2.920
  303SOL     OW  920   1.857   0.833   2.239
  303SOL    HW1  921   1.899   0.769   2.303
  303SOL    HW2  922   1.819   0.782   2.161
  304SOL     OW  923   0.488   1.385   2.036
  304SOL    HW1  924   0.401   1.370   2.083
  304SOL    HW2  925   0.471   1.411   1.941
  305SOL     OW  926   1.664   1.280   2.519
  305SOL    HW1  927   1.763   1.288   2.533
  305SOL    HW2  928   1.619   1.364   2.550
  306SOL     OW  929   1.390   0.575   1.940
  306SOL    HW1  930   1.336   0.554   2.021
  306SOL    HW2  931   1.481   0.534   1.949
  307SOL     OW  932   0.527   0.256   2.190
  307SOL    HW1  933   0.554   0.197   2.115
  307SOL    HW2  934   0.527   0.351   2.159
  308SOL     OW  935   1.754   1.223   3.450
  308SOL    HW1  936   1.845   1.184   3.437
  308SOL    HW2  937   1.762   1.319   3.474
  309SOL     OW  938   1.064   1.347   3.202
  309SOL    HW1  939   0.984   1.324   3.257
  309SOL    HW2  940   1.147   1.321   3.251
  310SOL     OW  941   1.592   1.629   3.487
  310SOL    HW1  942   1.619   1.663   3.397
  310SOL    HW2  943   1.671   1.591   3.533
  311SOL     OW  944   1.111   1.195   2.962
  311SOL    HW1  945   1.071   1.239   3.043
  311SOL    HW2  946   1.070   1.232   2.879
  312SOL     OW  947   1.638   1.099   2.941
  312SOL    HW1  948   1.643   1.180   3.000
  312SOL    HW2  949   1.552   1.101   2.890
  313SOL     OW  950   0.915   0.089   3.264
  313SOL    HW1  951   0.940   0.069   3.169
  313SOL    HW2  952   0.987   0.145   3.306
  314SOL     OW  953   0.980   1.116   3.581
  314SOL    HW1  954   0.881   1.122   3.591
  314SOL    HW2  955   1.003   1.036   3.525
  315SOL     OW  956   0.705   1.050   2.230
  315SOL    HW1  957   0.691   1.057   2.329
  315SOL    HW2  958   0.789   0.999   2.212
  316SOL     OW  959   0.410   0.813   3.113
  316SOL    HW1  960   0.496   0.825   3.163
  316SOL    HW2  961   0.368   0.726   3.140
  317SOL     OW  962   1.274   0.386   3.124
  317SOL    HW1  963   1.295   0.460   3.188
  317SOL    HW2  964   1.185   0.403   3.081
  318SOL     OW  965   0.064   1.564   3.193
  318SOL    HW1  966   0.018   1.646   3.159
  318SOL    HW2  967   0.162   1.583   3.202
  319SOL     OW  968   0.367   1.100   2.363
  319SOL    HW1  969   0.360   1.183   2.307
  319SOL    HW2  970   0.371   1.020   2.303
  320SOL     OW  971   0.566   0.537   2.727
  320SOL    HW1  972   0.578   0.603   2.653
  320SOL    HW2  973   0.612   0.571   2.810
  321SOL     OW  974   1.252   1.348   2.250
  321SOL    HW1  975   1.302   1.425   2.290
  321SOL    HW2  976   1.157   1.350   2.282
  322SOL     OW  977   1.272   1.445   3.004
  322SOL    HW1  978   1.319   1.458   3.091
  322SOL    HW2  979   1.206   1.371   3.013
  323SOL     OW  980   1.582   0.639   2.334
  323SOL    HW1  981   1.551   0.700   2.407
  323SOL    HW2  982   1.632   0.691   2.265
  324SOL     OW  983   0.354   1.510   3.191
  324SOL    HW1  984   0.333   1.466   3.104
  324SOL    HW2  985   0.451   1.536   3.194
  325SOL     OW  986   0.402   0.751   3.460
  325SOL    HW1  987   0.470   0.806   3.413
  325SOL    HW2  988   0.442   0.663   3.487
  326SOL     OW  989   1.587   0.779   3.532
  326SOL    HW1  990   1.495   0.817   3.527
  326SOL    HW2  991   1.647   0.826   3.467
  327SOL     OW  992   1.013   0.105   3.632
  327SOL    HW1  993   1.019   0.190   3.580
  327SOL    HW2  994   1.045   0.029   3.575
  328SOL     OW  995   0.504   0.050   3.602
  328SOL    HW1  996   0.462  -0.007   3.532
  328SOL    HW2  997   0.438   0.119   3.634
  329SOL     OW  998   0.573   0.870   2.891
  329SOL    HW1  999   0.617   0.959   2.882
  329SOL    HW2 1000   0.510   0.870   2.968
  330SOL     OW 1001   1.360   0.862   2.907
  330SOL    HW1 1002   1.285   0.862   2.841
  330SOL    HW2 1003   1.397   0.770   2.916
  331SOL     OW 1004   1.209   0.525   2.137
  331SOL    HW1 1005   1.222   0.441   2.191
  331SOL    HW2 1006   1.180   0.599   2.197
  332SOL     OW 1007   0.307   0.213   3.093
  332SOL    HW1 1008   0.284   0.250   3.183
  332SOL    HW2 1009   0.277   0.118   3.087
  333SOL     OW 1010   0.037   1.310   3.144
  333SOL    HW1 1011   0.090   1.261   3.212
  333SOL    HW2 1012   0.059   1.408   3.149
  334SOL     OW 1013   0.732   0.634   2.926
  334SOL    HW1 1014   0.791   0.608   2.850
  334SOL    HW2 1015   0.704   0.730   2.915
  335SOL     OW 1016   1.728   0.935   3.716
  335SOL    HW1 1017   1.682   0.928   3.627
  335SOL    HW2 1018   1.666   0.979   3.782
  336SOL     OW 1019   0.307   0.063   2.480
  336SOL    HW1 1020   0.296   0.157   2.513
  336SOL    HW2 1021   0.302   0.000   2.557
  337SOL     OW 1022   1.622   0.367   2.236
  337SOL    HW1 1023   1.624   0.291   2.300
  337SOL    HW2 1024   1.574   0.444   2.276
  338SOL     OW 1025   1.023   0.766   2.828
  338SOL    HW1 1026   1.038   0.787   2.924
  338SOL    HW2 1027   0.993   0.671   2.819
  339SOL     OW 1028   0.980   1.573   3.562
  339SOL    HW1 1029   0.960   1.617   3.474
  339SOL    HW2 1030   1.019   1.482   3.546
  340SOL     OW 1031   1.859   1.518   3.467
  340SOL    HW1 1032   1.873   1.545   3.372
  340SOL    HW2 1033   1.942   1.540   3.520
  341SOL     OW 1034   0.350   0.898   3.666
  341SOL    HW1 1035   0.426   0.942   3.714
  341SOL    HW2 1036   0.385   0.851   3.584
  342SOL     OW 1037   1.540   0.274   1.987
  342SOL    HW1 1038   1.479   0.199   2.010
  342SOL    HW2 1039   1.562   0.326   2.070
  343SOL     OW 1040   1.303   0.838   1.904
  343SOL    HW1 1041   1.337   0.745   1.919
  343SOL    HW2 1042   1.321   0.865   1.809
  344SOL     OW 1043   1.068   1.333   2.711
  344SOL    HW1 1044   1.075   1.249   2.656
  344SOL    HW2 1045   1.130   1.402   2.675
  345SOL     OW 1046   0.319   0.810   2.811
  345SOL    HW1 1047   0.412   0.846   2.816
  345SOL    HW2 1048   0.313   0.725   2.863
  346SOL     OW 1049   0.339   0.509   2.868
  346SOL    HW1 1050   0.287   0.426   2.851
  346SOL    HW2 1051   0.416   0.514   2.804
  347SOL     OW 1052   1.138   0.380   3.540
  347SOL    HW1 1053   1.093   0.443   3.604
  347SOL    HW2 1054   1.231   0.411   3.523
  348SOL     OW 1055   1.160   0.207   3.339
  348SOL    HW1 1056   1.160   0.271   3.416
  348SOL    HW2 1057   1.188   0.255   3.256
  349SOL     OW 1058   0.008   1.326   2.062
  349SOL    HW1 1059  -0.085   1.347   2.031
  349SOL    HW2 1060   0.018   1.227   2.075
  350SOL     OW 1061   0.088   1.801   2.789
  350SOL    HW1 1062   0.046   1.715   2.762
  350SOL    HW2 1063   0.182   1.804   2.755
  351SOL     OW 1064   0.504   1.568   2.772
  351SOL    HW1 1065   0.570   1.642   2.781
  351SOL    HW2 1066   0.548   1.489   2.730
  352SOL     OW 1067   1.002   0.796   3.100
  352SOL    HW1 1068   1.043   0.764   3.186
  352SOL    HW2 1069   0.906   0.769   3.097
  353SOL     OW 1070   0.040   0.544   2.976
  353SOL    HW1 1071   0.125   0.511   2.935
  353SOL    HW2 1072   0.053   0.559   3.074
  354SOL     OW 1073   0.189   0.520   3.584
  354SOL    HW1 1074   0.248   0.480   3.514
  354SOL    HW2 1075   0.131   0.591   3.543
  355SOL     OW 1076   1.369   0.950   3.522
  355SOL    HW1 1077   1.408   1.039   3.542
  355SOL    HW2 1078   1.379   0.930   3.425
  356SOL     OW 1079   0.815   0.572   2.187
  356SOL    HW1 1080   0.822   0.483   2.141
  356SOL    HW2 1081   0.721   0.606   2.179
  357SOL     OW 1082   1.657   0.604   3.068
  357SOL    HW1 1083   1.619   0.535   3.130
  357SOL    HW2 1084   1.739   0.568   3.024
  358SOL     OW 1085   0.252   1.564   3.606
  358SOL    HW1 1086   0.222   1.621   3.682
  358SOL    HW2 1087   0.245   1.467   3.632
  359SOL     OW 1088   0.671   0.464   3.131
  359SOL    HW1 1089   0.637   0.375   3.101
  359SOL    HW2 1090   0.697   0.518   3.051
  360SOL     OW 1091   0.930   1.678   3.327
  360SOL    HW1 1092   0.906   1.660   3.232
  360SOL    HW2 1093   0.960   1.772   3.337
  361SOL     OW 1094   0.473   0.500   2.053
  361SOL    HW1 1095   0.534   0.580   2.057
  361SOL    HW2 1096   0.378   0.531   2.060
  362SOL     OW 1097   0.159   1.137   3.328
  362SOL    HW1 1098   0.181   1.076   3.404
  362SOL    HW2 1099   0.169   1.088   3.242
  363SOL     OW 1100   1.347   1.059   3.096
  363SOL    HW1 1101   1.371   0.996   3.022
  363SOL    HW2 1102   1.257   1.099   3.078
  364SOL     OW 1103   1.302   0.855   2.171
  364SOL    HW1 1104   1.216   0.824   2.213
  364SOL    HW2 1105   1.298   0.841   2.072
  365SOL     OW 1106   1.759   1.747   3.016
  365SOL    HW1 1107   1.820   1.777   2.943
  365SOL    HW2 1108   1.721   1.658   2.994
  366SOL     OW 1109   1.252   1.731   2.990
  366SOL    HW1 1110   1.336   1.736   2.936
  366SOL    HW2 1111   1.229   1.635   3.008
  367SOL     OW 1112   0.083   1.258   2.884
  367SOL    HW1 1113   0.078   1.257   2.984
  367SOL    HW2 1114   0.000   1.217   2.846
  368SOL     OW 1115   0.688   1.662   3.578
  368SOL    HW1 1116   0.632   1.743   3.587
  368SOL    HW2 1117   0.740   1.666   3.492
  369SOL     OW 1118   1.726   0.135   2.385
  369SOL    HW1 1119   1.799   0.118   2.318
  369SOL    HW2 1120   1.695   0.048   2.423
  370SOL     OW 1121   1.388   1.573   2.339
  370SOL    HW1 1122   1.455   1.585   2.265
  370SOL    HW2 1123   1.348   1.662   2.362
  371SOL     OW 1124   0.130   1.794   3.713
  371SOL    HW1 1125   0.089   1.720   3.766
  371SOL    HW2 1126   0.194   1.845   3.771
  372SOL     OW 1127   1.280   0.927   2.534
  372SOL    HW1 1128   1.340   0.846   2.536
  372SOL    HW2 1129   1.320   0.996   2.474
  373SOL     OW 1130   0.830   1.273   3.284
  373SOL    HW1 1131   0.825   1.306   3.379
  373SOL    HW2 1132   0.744   1.292   3.238
  374SOL     OW 1133   0.672   1.616   2.016
  374SOL    HW1 1134   0.681   1.626   1.917
  374SOL    HW2 1135   0.632   1.527   2.037
  375SOL     OW 1136   1.650   1.720   3.256
  375SOL    HW1 1137   1.703   1.730   3.172
  375SOL    HW2 1138   1.623   1.810   3.290
  376SOL     OW 1139   1.841   0.175   2.825
  376SOL    HW1 1140   1.880   0.090   2.789
  376SOL    HW2 1141   1.743   0.177   2.806
  377SOL     OW 1142   0.263   0.326   2.582
  377SOL    HW1 1143   0.184   0.377   2.548
  377SOL    HW2 1144   0.254   0.311   2.680
  378SOL     OW 1145   1.194   1.612   1.893
  378SOL    HW1 1146   1.200   1.519   1.930
  378SOL    HW2 1147   1.135   1.612   1.813
  379SOL     OW 1148   0.822   1.002   3.234
  379SOL    HW1 1149   0.862   1.001   3.142
  379SOL    HW2 1150   0.832   1.094   3.274
  380SOL     OW 1151   0.916   0.910   2.153
  380SOL    HW1 1152   0.979   0.948   2.085
  380SOL    HW2 1153   0.956   0.827   2.192
  381SOL     OW 1154   1.504   1.607   1.906
  381SOL    HW1 1155   1.412   1.644   1.913
  381SOL    HW2 1156   1.542   1.627   1.816
  382SOL     OW 1157   0.372   1.288   3.352
  382SOL    HW1 1158   0.359   1.381   3.318
  382SOL    HW2 1159   0.288   1.236   3.339
  383SOL     OW 1160   1.614   1.292   3.151
  383SOL    HW1 1161   1.674   1.295   3.231
  383SOL    HW2 1162   1.539   1.356   3.164
  384SOL     OW 1163   1.039   1.098   2.558
  384SOL    HW1 1164   0.969   1.051   2.612
  384SOL    HW2 1165   1.098   1.030   2.515
  385SOL     OW 1166   1.014   0.236   2.833
  385SOL    HW1 1167   1.006   0.200   2.740
  385SOL    HW2 1168   1.012   0.160   2.898
  386SOL     OW 1169   0.590   1.487   2.353
  386SOL    HW1 1170   0.632   1.429   2.283
  386SOL    HW2 1171   0.546   1.566   2.309
  387SOL     OW 1172   1.709   0.385   3.243
  387SOL    HW1 1173   1.782   0.454   3.247
  387SOL    HW2 1174   1.737   0.310   3.184
  388SOL     OW 1175   0.255   1.348   2.152
  388SOL    HW1 1176   0.159   1.349   2.125
  388SOL    HW2 1177   0.267   1.401   2.236
  389SOL     OW 1178   0.105   1.013   3.588
  389SOL    HW1 1179   0.028   0.980   3.642
  389SOL    HW2 1180   0.190   0.983   3.630
  390SOL     OW 1181   0.672   0.203   3.351
  390SOL    HW1 1182   0.762   0.187   3.311
  390SOL    HW2 1183   0.680   0.208   3.450
  391SOL     OW 1184   0.075   0.345   1.895
  391SOL    HW1 1185  -0.017   0.317   1.866
  391SOL    HW2 1186   0.106   0.422   1.839
  392SOL     OW 1187   1.440   0.856   3.260
  392SOL    HW1 1188   1.383   0.908   3.197
  392SOL    HW2 1189   1.536   0.868   3.236
  393SOL     OW 1190   0.072   0.166   2.180
  393SOL    HW1 1191   0.055   0.249   2.126
  393SOL    HW2 1192   0.162   0.129   2.158
  394SOL     OW 1193   1.183   1.335   1.981
  394SOL    HW1 1194   1.084   1.324   1.983
  394SOL    HW2 1195   1.217   1.350   2.074
  395SOL     OW 1196   0.613   0.842   3.293
  395SOL    HW1 1197   0.669   0.923   3.276
  395SOL    HW2 1198   0.672   0.762   3.296
  396SOL     OW 1199   1.493   1.767   2.821
  396SOL    HW1 1200   1.526   1.831   2.752
  396SOL    HW2 1201   1.559   1.761   2.896
  397SOL     OW 1202   0.716   0.565   3.570
  397SOL    HW1 1203   0.735   0.630   3.644
  397SOL    HW2 1204   0.776   0.485   3.579
  398SOL     OW 1205   1.450   1.220   3.495
  398SOL    HW1 1206   1.441   1.210   3.594
  398SOL    HW2 1207   1.546   1.213   3.469
  399SOL     OW 1208   0.390   1.741   3.422
  399SOL    HW1 1209   0.299   1.782   3.420
  399SOL    HW2 1210   0.383   1.647   3.454
  400SOL     OW 1211   1.674   0.883   3.116
  400SOL    HW1 1212   1.647   0.794   3.079
  400SOL    HW2 1213   1.675   0.951   3.043
  401SOL     OW 1214   1.225   0.325   2.311
  401SOL    HW1 1215   1.290   0.251   2.300
  401SOL    HW2 1216   1.245   0.375   2.395
  402SOL     OW 1217   0.594   0.745   2.514
  402SOL    HW1 1218   0.644   0.830   2.495
  402SOL    HW2 1219   0.506   0.747   2.466
  403SOL     OW 1220   1.777   0.342   3.504
  403SOL    HW1 1221   1.760   0.373   3.410
  403SOL    HW2 1222   1.693   0.305   3.542
  404SOL     OW 1223   1.730   0.934   3.379
  404SOL    HW1 1224   1.768   1.025   3.394
  404SOL    HW2 1225   1.722   0.917   3.280
  405SOL     OW 1226   0.859   1.374   1.878
  405SOL    HW1 1227   0.813   1.389   1.966
  405SOL    HW2 1228   0.903   1.459   1.848
  406SOL     OW 1229   0.661   1.790   2.815
  406SOL    HW1 1230   0.615   1.878   2.802
  406SOL    HW2 1231   0.760   1.802   2.808
  407SOL     OW 1232   0.859   0.956   2.723
  407SOL    HW1 1233   0.913   0.887   2.771
  407SOL    HW2 1234   0.827   1.025   2.789
  408SOL     OW 1235   1.083   0.984   1.949
  408SOL    HW1 1236   1.060   1.037   1.867
  408SOL    HW2 1237   1.164   0.928   1.930
  409SOL     OW 1238   1.861   1.569   2.713
  409SOL    HW1 1239   1.790   1.557   2.643
  409SOL    HW2 1240   1.862   1.490   2.773
  410SOL     OW 1241   0.221   1.314   3.706
  410SOL    HW1 1242   0.156   1.241   3.685
  410SOL    HW2 1243   0.225   1.328   3.804
  411SOL     OW 1244   0.079   1.240   2.515
  411SOL    HW1 1245   0.078   1.193   2.603
  411SOL    HW2 1246   0.161   1.212   2.464
  412SOL     OW 1247   0.672   1.391   3.486
  412SOL    HW1 1248   0.594   1.341   3.524
  412SOL    HW2 1249   0.669   1.486   3.517
  413SOL     OW 1250   1.824   0.192   3.089
  413SOL    HW1 1251   1.820   0.102   3.133
  413SOL    HW2 1252   1.827   0.181   2.990
  414SOL     OW 1253   0.428   0.424   2.382
  414SOL    HW1 1254   0.458   0.352   2.320
  414SOL    HW2 1255   0.389   0.384   2.465
  415SOL     OW 1256   1.705   1.487   2.966
  415SOL    HW1 1257   1.612   1.462   2.939
  415SOL    HW2 1258   1.731   1.437   3.048
  416SOL     OW 1259   0.317   0.547   3.142
  416SOL    HW1 1260   0.355   0.488   3.214
  416SOL    HW2 1261   0.357   0.521   3.054
  417SOL     OW 1262   0.812   1.586   2.549
  417SOL    HW1 1263   0.844   1.596   2.455
  417SOL    HW2 1264   0.733   1.524   2.551
  418SOL     OW 1265   1.424   0.214   2.974
  418SOL    HW1 1266   1.476   0.149   3.029
  418SOL    HW2 1267   1.375   0.277   3.035
  419SOL     OW 1268   1.001   0.034   3.016
  419SOL    HW1 1269   0.938  -0.038   2.985
  419SOL    HW2 1270   1.094  -0.002   3.016
  420SOL     OW 1271   0.770   1.330   2.163
  420SOL    HW1 1272   0.724   1.243   2.180
  420SOL    HW2 1273   0.861   1.327   2.204
  421SOL     OW 1274   0.618   1.567   3.146
  421SOL    HW1 1275   0.613   1.649   3.203
  421SOL    HW2 1276   0.707   1.564   3.101
  422SOL     OW 1277   1.352   0.052   2.030
  422SOL    HW1 1278   1.387   0.011   1.946
  422SOL    HW2 1279   1.262   0.014   2.050
  423SOL     OW 1280   1.300   0.453   2.553
  423SOL    HW1 1281   1.241   0.533   2.557
  423SOL    HW2 1282   1.315   0.418   2.646
  424SOL     OW 1283   1.593   0.221   2.744
  424SOL    HW1 1284   1.509   0.220   2.798
  424SOL    HW2 1285   1.595   0.304   2.688
  425SOL     OW 1286   0.039   1.077   2.162
  425SOL    HW1 1287   0.138   1.066   2.153
  425SOL    HW2 1288  -0.001   0.991   2.194
  426SOL     OW 1289   0.875   1.646   2.199
  426SOL    HW1 1290   0.798   1.611   2.145
  426SOL    HW2 1291   0.843   1.717   2.261
  427SOL     OW 1292   0.230   0.628   3.837
  427SOL    HW1 1293   0.137   0.626   3.874
  427SOL    HW2 1294   0.231   0.589   3.745
  428SOL     OW 1295   0.225   0.275   4.720
  428SOL    HW1 1296   0.260   0.258   4.812
  428SOL    HW2 1297   0.137   0.230   4.708
  429SOL     OW 1298   0.019   0.368   4.371
  429SOL    HW1 1299  -0.063   0.411   4.410
  429SOL    HW2 1300  -0.009   0.295   4.308
  430SOL     OW 1301   1.555   1.511   4.427
  430SOL    HW1 1302   1.498   1.495   4.508
  430SOL    HW2 1303   1.496   1.521   4.347
  431SOL     OW 1304   1.135   0.703   4.441
  431SOL    HW1 1305   1.192   0.781   4.416
  431SOL    HW2 1306   1.075   0.729   4.517
  432SOL     OW 1307   1.755   0.607   3.955
  432SOL    HW1 1308   1.743   0.594   3.856
  432SOL    HW2 1309   1.725   0.526   4.004
  433SOL     OW 1310   0.685   1.012   4.389
  433SOL    HW1 1311   0.754   0.996   4.459
  433SOL    HW2 1312   0.612   1.069   4.427
  434SOL     OW 1313   1.603   0.447   4.461
  434SOL    HW1 1314   1.529   0.493   4.411
  434SOL    HW2 1315   1.654   0.515   4.514
  435SOL     OW 1316   0.231   1.713   4.207
  435SOL    HW1 1317   0.265   1.790   4.261
  435SOL    HW2 1318   0.275   1.713   4.117
  436SOL     OW 1319   0.230   1.434   4.262
  436SOL    HW1 1320   0.204   1.530   4.262
  436SOL    HW2 1321   0.159   1.380   4.307
  437SOL     OW 1322   0.240   1.091   4.610
  437SOL    HW1 1323   0.254   1.007   4.662
  437SOL    HW2 1324   0.185   1.155   4.665
  438SOL     OW 1325   0.606   0.964   3.847
  438SOL    HW1 1326   0.613   1.048   3.793
  438SOL    HW2 1327   0.652   0.977   3.935
  439SOL     OW 1328   0.122   0.643   4.287
  439SOL    HW1 1329   0.077   0.555   4.304
  439SOL    HW2 1330   0.121   0.697   4.371
  440SOL     OW 1331   1.842   1.767   4.083
  440SOL    HW1 1332   1.896   1.738   4.163
  440SOL    HW2 1333   1.872   1.857   4.054
  441SOL     OW 1334   0.027   1.596   3.841
  441SOL    HW1 1335   0.008   1.500   3.862
  441SOL    HW2 1336  -0.006   1.654   3.916
  442SOL     OW 1337   1.689   0.922   4.336
  442SOL    HW1 1338   1.784   0.893   4.344
  442SOL    HW2 1339   1.681   0.987   4.261
  443SOL     OW 1340   1.641   1.108   4.156
  443SOL    HW1 1341   1.727   1.110   4.104
  443SOL    HW2 1342   1.655   1.155   4.244
  444SOL     OW 1343   0.613   1.365   4.450
  444SOL    HW1 1344   0.564   1.278   4.459
  444SOL    HW2 1345   0.590   1.408   4.363
  445SOL     OW 1346   0.809   0.004   4.226
  445SOL    HW1 1347   0.849   0.095   4.217
  445SOL    HW2 1348   0.709   0.012   4.232
  446SOL     OW 1349   1.525   0.999   3.914
  446SOL    HW1 1350   1.462   0.923   3.927
  446SOL    HW2 1351   1.573   1.017   4.000
  447SOL     OW 1352   1.667   1.714   4.296
  447SOL    HW1 1353   1.626   1.691   4.208
  447SOL    HW2 1354   1.649   1.640   4.361
  448SOL     OW 1355   0.598   0.729   3.994
  448SOL    HW1 1356   0.622   0.798   3.926
  448SOL    HW2 1357   0.520   0.762   4.048
  449SOL     OW 1358   1.281   0.345   4.668
  449SOL    HW1 1359   1.195   0.295   4.655
  449SOL    HW2 1360   1.343   0.291   4.724
  450SOL     OW 1361   1.576   1.662   4.031
  450SOL    HW1 1362   1.665   1.708   4.034
  450SOL    HW2 1363   1.555   1.638   3.936
  451SOL     OW 1364   1.041   0.701   4.153
  451SOL    HW1 1365   1.067   0.697   4.249
  451SOL    HW2 1366   0.956   0.650   4.139
  452SOL     OW 1367   0.076   0.811   4.513
  452SOL    HW1 1368   0.175   0.799   4.522
  452SOL    HW2 1369   0.052   0.906   4.534
  453SOL     OW 1370   0.865   0.348   3.919
  453SOL    HW1 1371   0.924   0.411   3.870
  453SOL    HW2 1372   0.884   0.254   3.890
  454SOL     OW 1373   1.362   1.144   4.269
  454SOL    HW1 1374   1.445   1.115   4.221
  454SOL    HW2 1375   1.313   1.211   4.213
  455SOL     OW 1376   1.008   1.456   4.201
  455SOL    HW1 1377   0.962   1.528   4.149
  455SOL    HW2 1378   1.004   1.476   4.299
  456SOL     OW 1379   0.351   1.801   4.577
  456SOL    HW1 1380   0.401   1.715   4.583
  456SOL    HW2 1381   0.416   1.878   4.574
  457SOL     OW 1382   1.795   1.066   4.597
  457SOL    HW1 1383   1.733   1.051   4.521
  457SOL    HW2 1384   1.743   1.077   4.682
  458SOL     OW 1385   0.321   0.943   3.966
  458SOL    HW1 1386   0.403   0.982   3.924
  458SOL    HW2 1387   0.294   0.861   3.917
  459SOL     OW 1388   1.458   0.735   4.452
  459SOL    HW1 1389   1.453   0.670   4.527
  459SOL    HW2 1390   1.538   0.794   4.465
  460SOL     OW 1391   1.111   1.776   3.961
  460SOL    HW1 1392   1.051   1.714   4.011
  460SOL    HW2 1393   1.142   1.732   3.876
  461SOL     OW 1394   1.632   1.377   3.805
  461SOL    HW1 1395   1.600   1.471   3.795
  461SOL    HW2 1396   1.556   1.314   3.793
  462SOL     OW 1397   0.464   1.743   4.047
  462SOL    HW1 1398   0.497   1.782   4.133
  462SOL    HW2 1399   0.540   1.736   3.982
  463SOL     OW 1400   1.400   0.107   4.150
  463SOL    HW1 1401   1.376   0.070   4.060
  463SOL    HW2 1402   1.499   0.123   4.154
  464SOL     OW 1403   0.940   1.698   4.628
  464SOL    HW1 1404   1.020   1.641   4.649
  464SOL    HW2 1405   0.891   1.658   4.551
  465SOL     OW 1406   0.382   0.700   4.204
  465SOL    HW1 1407   0.427   0.610   4.201
  465SOL    HW2 1408   0.288   0.689   4.237
  466SOL     OW 1409   0.614   0.122   3.841
  466SOL    HW1 1410   0.712   0.100   3.848
  466SOL    HW2 1411   0.583   0.105   3.748
  467SOL     OW 1412   0.539   0.064   4.236
  467SOL    HW1 1413   0.458   0.065   4.294
  467SOL    HW2 1414   0.542   0.147   4.181
  468SOL     OW 1415   1.434   1.188   3.765
  468SOL    HW1 1416   1.466   1.112   3.822
  468SOL    HW2 1417   1.342   1.215   3.795
  469SOL     OW 1418   0.297   0.035   3.895
  469SOL    HW1 1419   0.346   0.119   3.874
  469SOL    HW2 1420   0.359  -0.030   3.940
  470SOL     OW 1421   0.935   0.236   4.204
  470SOL    HW1 1422   0.887   0.277   4.126
  470SOL    HW2 1423   1.034   0.234   4.185
  471SOL     OW 1424   0.459   1.152   4.465
  471SOL    HW1 1425   0.388   1.125   4.530
  471SOL    HW2 1426   0.433   1.124   4.372
  472SOL     OW 1427   1.271   1.797   4.315
  472SOL    HW1 1428   1.315   1.861   4.251
  472SOL    HW2 1429   1.221   1.849   4.385
  473SOL     OW 1430   1.032   0.549   3.740
  473SOL    HW1 1431   0.991   0.631   3.701
  473SOL    HW2 1432   1.096   0.575   3.813
  474SOL     OW 1433   0.866   0.454   4.366
  474SOL    HW1 1434   0.834   0.526   4.304
  474SOL    HW2 1435   0.890   0.373   4.313
  475SOL     OW 1436   1.017   0.039   4.477
  475SOL    HW1 1437   0.945   0.044   4.408
  475SOL    HW2 1438   0.993  -0.030   4.546
  476SOL     OW 1439   1.857   0.833   4.101
  476SOL    HW1 1440   1.899   0.769   4.165
  476SOL    HW2 1441   1.819   0.782   4.023
  477SOL     OW 1442   0.488   1.385   3.898
  477SOL    HW1 1443   0.401   1.370   3.945
  477SOL    HW2 1444   0.471   1.411   3.803
  478SOL     OW 1445   1.664   1.280   4.381
  478SOL    HW1 1446   1.763   1.288   4.395
  478SOL    HW2 1447   1.619   1.364   4.412
  479SOL     OW 1448   1.390   0.575   3.802
  479SOL    HW1 1449   1.336   0.554   3.883
  479SOL    HW2 1450   1.481   0.534   3.811
  480SOL     OW 1451   0.527   0.256   4.052
  480SOL    HW1 1452   0.554   0.197   3.977
  480SOL    HW2 1453   0.527   0.351   4.021
  481SOL     OW 1454   0.705   1.050   4.092
  481SOL    HW1 1455   0.691   1.057   4.191
  481SOL    HW2 1456   0.789   0.999   4.074
  482SOL     OW 1457   0.367   1.100   4.225
  482SOL    HW1 1458   0.360   1.183   4.169
  482SOL    HW2 1459   0.371   1.020   4.165
  483SOL     OW 1460   1.252   1.348   4.112
  483SOL    HW1 1461   1.302   1.425   4.152
  483SOL    HW2 1462   1.157   1.350   4.144
  484SOL     OW 1463   1.582   0.639   4.196
  484SOL    HW1 1464   1.551   0.700   4.269
  484SOL    HW2 1465   1.632   0.691   4.127
  485SOL     OW 1466   1.209   0.525   3.999
  485SOL    HW1 1467   1.222   0.441   4.053
  485SOL    HW2 1468   1.180   0.599   4.059
  486SOL     OW 1469   0.307   0.063   4.342
  486SOL    HW1 1470   0.296   0.157   4.375
  486SOL    HW2 1471   0.302   0.000   4.419
  487SOL     OW 1472   1.622   0.367   4.098
  487SOL    HW1 1473   1.624   0.291   4.162
  487SOL    HW2 1474   1.574   0.444   4.138
  488SOL     OW 1475   1.540   0.274   3.849
  488SOL    HW1 1476   1.479   0.199   3.872
  488SOL    HW2 1477   1.562   0.326   3.932
  489SOL     OW 1478   1.303   0.838   3.766
  489SOL    HW1 1479   1.337   0.745   3.781
  489SOL    HW2 1480   1.321   0.865   3.671
  490SOL     OW 1481   0.008   1.326   3.924
  490SOL    HW1 1482  -0.085   1.347   3.893
  490SOL    HW2 1483   0.018   1.227   3.937
  491SOL     OW 1484   0.815   0.572   4.049
  491SOL    HW1 1485   0.822   0.483   4.003
  491SOL    HW2 1486   0.721   0.606   4.041
  492SOL     OW 1487   0.473   0.500   3.915
  492SOL    HW1 1488   0.534   0.580   3.919
  492SOL    HW2 1489   0.378   0.531   3.922
  493SOL     OW 1490   1.302   0.855   4.033
  493SOL    HW1 1491   1.216   0.824   4.075
  493SOL    HW2 1492   1.298   0.841   3.934
  494SOL     OW 1493   1.726   0.135   4.247
  494SOL    HW1 1494   1.799   0.118   4.180
  494SOL    HW2 1495   1.695   0.048   4.285
  495SOL     OW 1496   1.388   1.573   4.201
  495SOL    HW1 1497   1.455   1.585   4.127
  495SOL    HW2 1498   1.348   1.662   4.224
  496SOL     OW 1499   1.280   0.927   4.396
  496SOL    HW1 1500   1.340   0.846   4.398
  496SOL    HW2 1501   1.320   0.996   4.336
  497SOL     OW 1502   0.672   1.616   3.878
  497SOL    HW1 1503   0.681   1.626   3.779
  497SOL    HW2 1504   0.632   1.527   3.899
  498SOL     OW 1505   1.841   0.175   4.687
  498SOL    HW1 1506   1.880   0.090   4.651
  498SOL    HW2 1507   1.743   0.177   4.668
  499SOL     OW 1508   0.263   0.326   4.444
  499SOL    HW1 1509   0.184   0.377   4.410
  499SOL    HW2 1510   0.254   0.311   4.542
  500SOL     OW 1511   1.194   1.612   3.755
  500SOL    HW1 1512   1.200   1.519   3.792
  500SOL    HW2 1513   1.135   1.612   3.675
  501SOL     OW 1514   0.916   0.910   4.015
  501SOL    HW1 1515   0.979   0.948   3.947
  501SOL    HW2 1516   0.956   0.827   4.054
  502SOL     OW 1517   1.504   1.607   3.768
  502SOL    HW1 1518   1.412   1.644   3.775
  502SOL    HW2 1519   1.542   1.627   3.678
  503SOL     OW 1520   1.039   1.098   4.420
  503SOL    HW1 1521   0.969   1.051   4.474
  503SOL    HW2 1522   1.098   1.030   4.377
  504SOL     OW 1523   0.590   1.487   4.215
  504SOL    HW1 1524   0.632   1.429   4.145
  504SOL    HW2 1525   0.546   1.566   4.171
  505SOL     OW 1526   0.255   1.348   4.014
  505SOL    HW1 1527   0.159   1.349   3.987
  505SOL    HW2 1528   0.267   1.401   4.098
  506SOL     OW 1529   0.075   0.345   3.757
  506SOL    HW1 1530  -0.017   0.317   3.728
  506SOL    HW2 1531   0.106   0.422   3.701
  507SOL     OW 1532   0.072   0.166   4.042
  507SOL    HW1 1533   0.055   0.249   3.988
  507SOL    HW2 1534   0.162   0.129   4.020
  508SOL     OW 1535   1.183   1.335   3.843
  508SOL    HW1 1536   1.084   1.324   3.845
  508SOL    HW2 1537   1.217   1.350   3.936
  509SOL     OW 1538   1.225   0.325   4.173
  509SOL    HW1 1539   1.290   0.251   4.162
  509SOL    HW2 1540   1.245   0.375   4.257
  510SOL     OW 1541   0.594   0.745   4.376
  510SOL    HW1 1542   0.644   0.830   4.357
  510SOL    HW2 1543   0.506   0.747   4.328
  511SOL     OW 1544   0.859   1.374   3.740
  511SOL    HW1 1545   0.813   1.389   3.828
  511SOL    HW2 1546   0.903   1.459   3.710
  512SOL     OW 1547   0.661   1.790   4.677
  512SOL    HW1 1548   0.615   1.878   4.664
  512SOL    HW2 1549   0.760   1.802   4.670
  513SOL     OW 1550   0.859   0.956   4.585
  513SOL    HW1 1551   0.913   0.887   4.633
  513SOL    HW2 1552   0.827   1.025   4.651
  514SOL     OW 1553   1.083   0.984   3.811
  514SOL    HW1 1554   1.060   1.037   3.729
  514SOL    HW2 1555   1.164   0.928   3.792
  515SOL     OW 1556   0.079   1.240   4.377
  515SOL    HW1 1557   0.078   1.193   4.465
  515SOL    HW2 1558   0.161   1.212   4.326
  516SOL     OW 1559   0.428   0.424   4.244
  516SOL    HW1 1560   0.458   0.352   4.182
  516SOL    HW2 1561   0.389   0.384   4.327
  517SOL     OW 1562   1.705   1.487   4.828
  517SOL    HW1 1563   1.612   1.462   4.801
  517SOL    HW2 1564   1.731   1.437   4.910
  518SOL     OW 1565   0.812   1.586   4.411
  518SOL    HW1 1566   0.844   1.596   4.317
  518SOL    HW2 1567   0.733   1.524   4.413
  519SOL     OW 1568   0.770   1.330   4.025
  519SOL    HW1 1569   0.724   1.243   4.042
  519SOL    HW2 1570   0.861   1.327   4.066
  520SOL     OW 1571   1.352   0.052   3.892
  520SOL    HW1 1572   1.387   0.011   3.808
  520SOL    HW2 1573   1.262   0.014   3.912
  521SOL     OW 1574   1.300   0.453   4.415
  521SOL    HW1 1575   1.241   0.533   4.419
  521SOL    HW2 1576   1.315   0.418   4.508
  522SOL     OW 1577   0.039   1.077   4.024
  522SOL    HW1 1578   0.138   1.066   4.015
  522SOL    HW2 1579  -0.001   0.991   4.056
  523SOL     OW 1580   0.875   1.646   4.061
  523SOL    HW1 1581   0.798   1.611   4.007
  523SOL    HW2 1582   0.843   1.717   4.123
  524SOL     OW 1583   0.230   2.490   0.113
  524SOL    HW1 1584   0.137   2.488   0.150
  524SOL    HW2 1585   0.231   2.451   0.021
  525SOL     OW 1586   0.225   2.137   0.996
  525SOL    HW1 1587   0.260   2.120   1.088
  525SOL    HW2 1588   0.137   2.092   0.984
  526SOL     OW 1589   0.019   2.230   0.647
  526SOL    HW1 1590  -0.063   2.273   0.686
  526SOL    HW2 1591  -0.009   2.157   0.584
  527SOL     OW 1592   0.569   3.137   1.165
  527SOL    HW1 1593   0.476   3.130   1.128
  527SOL    HW2 1594   0.580   3.226   1.209
  528SOL     OW 1595   1.555   3.373   0.703
  528SOL    HW1 1596   1.498   3.357   0.784
  528SOL    HW2 1597   1.496   3.383   0.623
  529SOL     OW 1598   1.135   2.565   0.717
  529SOL    HW1 1599   1.192   2.643   0.692
  529SOL    HW2 1600   1.075   2.591   0.793
  530SOL     OW 1601   1.755   2.469   0.231
  530SOL    HW1 1602   1.743   2.456   0.132
  530SOL    HW2 1603   1.725   2.388   0.280
  531SOL     OW 1604   0.768   3.006   1.023
  531SOL    HW1 1605   0.690   3.023   1.083
  531SOL    HW2 1606   0.802   3.093   0.987
  532SOL     OW 1607   0.850   2.660   1.823
  532SOL    HW1 1608   0.846   2.736   1.888
  532SOL    HW2 1609   0.872   2.696   1.732
  533SOL     OW 1610   0.685   2.874   0.665
  533SOL    HW1 1611   0.754   2.858   0.735
  533SOL    HW2 1612   0.612   2.931   0.703
  534SOL     OW 1613   0.686   3.023   1.803
  534SOL    HW1 1614   0.746   3.102   1.817
  534SOL    HW2 1615   0.600   3.054   1.762
  535SOL     OW 1616   0.335   3.297   1.061
  535SOL    HW1 1617   0.257   3.266   1.008
  535SOL    HW2 1618   0.393   3.355   1.004
  536SOL     OW 1619   1.460   3.367   1.339
  536SOL    HW1 1620   1.484   3.461   1.365
  536SOL    HW2 1621   1.444   3.313   1.421
  537SOL     OW 1622   0.438   2.254   1.499
  537SOL    HW1 1623   0.520   2.198   1.508
  537SOL    HW2 1624   0.357   2.196   1.503
  538SOL     OW 1625   1.603   2.309   0.737
  538SOL    HW1 1626   1.529   2.355   0.687
  538SOL    HW2 1627   1.654   2.377   0.790
  539SOL     OW 1628   0.231   3.575   0.483
  539SOL    HW1 1629   0.265   3.652   0.537
  539SOL    HW2 1630   0.275   3.575   0.393
  540SOL     OW 1631   1.127   3.203   1.690
  540SOL    HW1 1632   1.174   3.203   1.778
  540SOL    HW2 1633   1.079   3.116   1.679
  541SOL     OW 1634   0.230   3.296   0.538
  541SOL    HW1 1635   0.204   3.392   0.538
  541SOL    HW2 1636   0.159   3.242   0.583
  542SOL     OW 1637   0.240   2.953   0.886
  542SOL    HW1 1638   0.254   2.869   0.938
  542SOL    HW2 1639   0.185   3.017   0.941
  543SOL     OW 1640   0.620   3.648   1.439
  543SOL    HW1 1641   0.528   3.631   1.474
  543SOL    HW2 1642   0.648   3.740   1.465
  544SOL     OW 1643   0.606   2.826   0.123
  544SOL    HW1 1644   0.613   2.910   0.069
  544SOL    HW2 1645   0.652   2.839   0.211
  545SOL     OW 1646   1.594   1.976   1.480
  545SOL    HW1 1647   1.576   2.043   1.408
  545SOL    HW2 1648   1.591   2.022   1.569
  546SOL     OW 1649   0.122   2.505   0.563
  546SOL    HW1 1650   0.077   2.417   0.580
  546SOL    HW2 1651   0.121   2.559   0.647
  547SOL     OW 1652   1.842   3.629   0.359
  547SOL    HW1 1653   1.896   3.600   0.439
  547SOL    HW2 1654   1.872   3.719   0.330
  548SOL     OW 1655   0.027   3.458   0.117
  548SOL    HW1 1656   0.008   3.362   0.138
  548SOL    HW2 1657  -0.006   3.516   0.192
  549SOL     OW 1658   1.689   2.784   0.612
  549SOL    HW1 1659   1.784   2.755   0.620
  549SOL    HW2 1660   1.681   2.849   0.537
  550SOL     OW 1661   1.641   2.970   0.432
  550SOL    HW1 1662   1.727   2.972   0.380
  550SOL    HW2 1663   1.655   3.017   0.520
  551SOL     OW 1664   0.113   2.599   1.597
  551SOL    HW1 1665   0.201   2.586   1.642
  551SOL    HW2 1666   0.100   2.696   1.575
  552SOL     OW 1667   0.613   3.227   0.726
  552SOL    HW1 1668   0.564   3.140   0.735
  552SOL    HW2 1669   0.590   3.270   0.639
  553SOL     OW 1670   1.293   3.090   1.423
  553SOL    HW1 1671   1.330   3.017   1.365
  553SOL    HW2 1672   1.345   3.095   1.508
  554SOL     OW 1673   0.809   1.866   0.502
  554SOL    HW1 1674   0.849   1.957   0.493
  554SOL    HW2 1675   0.709   1.874   0.508
  555SOL     OW 1676   0.197   2.838   1.264
  555SOL    HW1 1677   0.286   2.793   1.250
  555SOL    HW2 1678   0.124   2.773   1.245
  556SOL     OW 1679   1.525   2.861   0.190
  556SOL    HW1 1680   1.462   2.785   0.203
  556SOL    HW2 1681   1.573   2.879   0.276
  557SOL     OW 1682   1.187   3.654   1.616
  557SOL    HW1 1683   1.211   3.714   1.540
  557SOL    HW2 1684   1.194   3.559   1.586
  558SOL     OW 1685   0.317   2.113   1.801
  558SOL    HW1 1686   0.388   2.184   1.807
  558SOL    HW2 1687   0.229   2.152   1.829
  559SOL     OW 1688   1.466   3.279   0.953
  559SOL    HW1 1689   1.407   3.285   1.033
  559SOL    HW2 1690   1.451   3.191   0.907
  560SOL     OW 1691   1.667   3.576   0.572
  560SOL    HW1 1692   1.626   3.553   0.484
  560SOL    HW2 1693   1.649   3.502   0.637
  561SOL     OW 1694   0.598   2.591   0.270
  561SOL    HW1 1695   0.622   2.660   0.202
  561SOL    HW2 1696   0.520   2.624   0.324
  562SOL     OW 1697   1.281   2.207   0.944
  562SOL    HW1 1698   1.195   2.157   0.931
  562SOL    HW2 1699   1.343   2.153   1.000
  563SOL     OW 1700   1.576   3.524   0.307
  563SOL    HW1 1701   1.665   3.570   0.310
  563SOL    HW2 1702   1.555   3.500   0.212
  564SOL     OW 1703   0.807   2.467   1.465
  564SOL    HW1 1704   0.760   2.464   1.554
  564SOL    HW2 1705   0.756   2.412   1.399
  565SOL     OW 1706   1.394   2.331   1.674
  565SOL    HW1 1707   1.374   2.374   1.762
  565SOL    HW2 1708   1.472   2.269   1.683
  566SOL     OW 1709   0.973   2.752   1.572
  566SOL    HW1 1710   1.019   2.668   1.543
  566SOL    HW2 1711   0.917   2.786   1.497
  567SOL     OW 1712   0.991   2.272   1.242
  567SOL    HW1 1713   0.914   2.306   1.296
  567SOL    HW2 1714   0.957   2.221   1.163
  568SOL     OW 1715   1.041   2.563   0.429
  568SOL    HW1 1716   1.067   2.559   0.525
  568SOL    HW2 1717   0.956   2.512   0.415
  569SOL     OW 1718   0.076   2.673   0.789
  569SOL    HW1 1719   0.175   2.661   0.798
  569SOL    HW2 1720   0.052   2.768   0.810
  570SOL     OW 1721   0.130   3.683   1.571
  570SOL    HW1 1722   0.120   3.668   1.670
  570SOL    HW2 1723   0.044   3.719   1.535
  571SOL     OW 1724   0.865   2.210   0.195
  571SOL    HW1 1725   0.924   2.273   0.146
  571SOL    HW2 1726   0.884   2.116   0.166
  572SOL     OW 1727   1.719   2.447   1.831
  572SOL    HW1 1728   1.693   2.536   1.795
  572SOL    HW2 1729   1.717   2.379   1.758
  573SOL     OW 1730   1.362   3.006   0.545
  573SOL    HW1 1731   1.445   2.977   0.497
  573SOL    HW2 1732   1.313   3.073   0.489
  574SOL     OW 1733   0.550   2.058   0.885
  574SOL    HW1 1734   0.545   2.053   0.985
  574SOL    HW2 1735   0.552   2.154   0.856
  575SOL     OW 1736   1.008   3.318   0.477
  575SOL    HW1 1737   0.962   3.390   0.425
  575SOL    HW2 1738   1.004   3.338   0.575
  576SOL     OW 1739   0.351   3.663   0.853
  576SOL    HW1 1740   0.401   3.577   0.859
  576SOL    HW2 1741   0.416   3.740   0.850
  577SOL     OW 1742   1.795   2.928   0.873
  577SOL    HW1 1743   1.733   2.913   0.797
  577SOL    HW2 1744   1.743   2.939   0.958
  578SOL     OW 1745   1.227   3.412   1.506
  578SOL    HW1 1746   1.233   3.335   1.570
  578SOL    HW2 1747   1.175   3.386   1.426
  579SOL     OW 1748   0.321   2.805   0.242
  579SOL    HW1 1749   0.403   2.844   0.200
  579SOL    HW2 1750   0.294   2.723   0.193
  580SOL     OW 1751   1.458   2.597   0.728
  580SOL    HW1 1752   1.453   2.532   0.803
  580SOL    HW2 1753   1.538   2.656   0.741
  581SOL     OW 1754   0.461   3.128   1.727
  581SOL    HW1 1755   0.411   3.129   1.641
  581SOL    HW2 1756   0.398   3.110   1.803
  582SOL     OW 1757   1.111   3.638   0.237
  582SOL    HW1 1758   1.051   3.576   0.287
  582SOL    HW2 1759   1.142   3.594   0.152
  583SOL     OW 1760   0.202   2.147   1.498
  583SOL    HW1 1761   0.122   2.207   1.485
  583SOL    HW2 1762   0.192   2.098   1.584
  584SOL     OW 1763   1.632   3.239   0.081
  584SOL    HW1 1764   1.600   3.333   0.071
  584SOL    HW2 1765   1.556   3.176   0.069
  585SOL     OW 1766   0.464   3.605   0.323
  585SOL    HW1 1767   0.497   3.644   0.409
  585SOL    HW2 1768   0.540   3.598   0.258
  586SOL     OW 1769   1.400   1.969   0.426
  586SOL    HW1 1770   1.376   1.932   0.336
  586SOL    HW2 1771   1.499   1.985   0.430
  587SOL     OW 1772   0.249   3.647   1.241
  587SOL    HW1 1773   0.306   3.582   1.291
  587SOL    HW2 1774   0.233   3.614   1.148
  588SOL     OW 1775   0.940   3.560   0.904
  588SOL    HW1 1776   1.020   3.503   0.925
  588SOL    HW2 1777   0.891   3.520   0.827
  589SOL     OW 1778   0.382   2.562   0.480
  589SOL    HW1 1779   0.427   2.472   0.477
  589SOL    HW2 1780   0.288   2.551   0.513
  590SOL     OW 1781   1.547   2.084   1.729
  590SOL    HW1 1782   1.542   2.121   1.821
  590SOL    HW2 1783   1.475   2.015   1.717
  591SOL     OW 1784   0.781   2.126   1.749
  591SOL    HW1 1785   0.848   2.065   1.792
  591SOL    HW2 1786   0.708   2.145   1.814
  592SOL     OW 1787   0.888   3.376   1.195
  592SOL    HW1 1788   0.865   3.351   1.101
  592SOL    HW2 1789   0.949   3.307   1.234
  593SOL     OW 1790   1.351   2.452   1.433
  593SOL    HW1 1791   1.379   2.409   1.518
  593SOL    HW2 1792   1.376   2.548   1.434
  594SOL     OW 1793   0.803   3.264   0.924
  594SOL    HW1 1794   0.893   3.278   0.882
  594SOL    HW2 1795   0.732   3.266   0.853
  595SOL     OW 1796   0.922   2.365   0.899
  595SOL    HW1 1797   0.897   2.356   0.803
  595SOL    HW2 1798   0.970   2.283   0.930
  596SOL     OW 1799   0.539   1.926   0.512
  596SOL    HW1 1800   0.458   1.927   0.570
  596SOL    HW2 1801   0.542   2.009   0.457
  597SOL     OW 1802   1.434   3.050   0.041
  597SOL    HW1 1803   1.466   2.974   0.098
  597SOL    HW2 1804   1.342   3.077   0.071
  598SOL     OW 1805   0.297   1.897   0.171
  598SOL    HW1 1806   0.346   1.981   0.150
  598SOL    HW2 1807   0.359   1.832   0.216
  599SOL     OW 1808   0.935   2.098   0.480
  599SOL    HW1 1809   0.887   2.139   0.402
  599SOL    HW2 1810   1.034   2.096   0.461
  600SOL     OW 1811   1.076   2.545   1.464
  600SOL    HW1 1812   0.996   2.484   1.467
  600SOL    HW2 1813   1.157   2.492   1.440
  601SOL     OW 1814   1.227   3.432   0.793
  601SOL    HW1 1815   1.248   3.506   0.728
  601SOL    HW2 1816   1.295   3.432   0.866
  602SOL     OW 1817   0.459   3.014   0.741
  602SOL    HW1 1818   0.388   2.987   0.806
  602SOL    HW2 1819   0.433   2.986   0.648
  603SOL     OW 1820   1.271   3.659   0.591
  603SOL    HW1 1821   1.315   3.723   0.527
  603SOL    HW2 1822   1.221   3.711   0.661
  604SOL     OW 1823   1.032   2.411   0.016
  604SOL    HW1 1824   0.991   2.493  -0.023
  604SOL    HW2 1825   1.096   2.437   0.089
  605SOL     OW 1826   0.078   2.418   1.386
  605SOL    HW1 1827   0.170   2.417   1.345
  605SOL    HW2 1828   0.072   2.492   1.453
  606SOL     OW 1829   0.561   2.084   1.147
  606SOL    HW1 1830   0.599   2.000   1.184
  606SOL    HW2 1831   0.473   2.103   1.191
  607SOL     OW 1832   0.866   2.316   0.642
  607SOL    HW1 1833   0.834   2.388   0.580
  607SOL    HW2 1834   0.890   2.235   0.589
  608SOL     OW 1835   1.017   1.901   0.753
  608SOL    HW1 1836   0.945   1.906   0.684
  608SOL    HW2 1837   0.993   1.832   0.822
  609SOL     OW 1838   1.429   3.035   0.867
  609SOL    HW1 1839   1.374   2.951   0.860
  609SOL    HW2 1840   1.455   3.064   0.775
  610SOL     OW 1841   1.466   2.452   0.992
  610SOL    HW1 1842   1.436   2.357   0.999
  610SOL    HW2 1843   1.539   2.468   1.058
  611SOL     OW 1844   1.857   2.695   0.377
  611SOL    HW1 1845   1.899   2.631   0.441
  611SOL    HW2 1846   1.819   2.644   0.299
  612SOL     OW 1847   0.488   3.247   0.174
  612SOL    HW1 1848   0.401   3.232   0.221
  612SOL    HW2 1849   0.471   3.273   0.079
  613SOL     OW 1850   1.664   3.142   0.657
  613SOL    HW1 1851   1.763   3.150   0.671
  613SOL    HW2 1852   1.619   3.226   0.688
  614SOL     OW 1853   1.390   2.437   0.078
  614SOL    HW1 1854   1.336   2.416   0.159
  614SOL    HW2 1855   1.481   2.396   0.087
  615SOL     OW 1856   0.527   2.118   0.328
  615SOL    HW1 1857   0.554   2.059   0.253
  615SOL    HW2 1858   0.527   2.213   0.297
  616SOL     OW 1859   1.754   3.085   1.588
  616SOL    HW1 1860   1.845   3.046   1.575
  616SOL    HW2 1861   1.762   3.181   1.612
  617SOL     OW 1862   1.064   3.209   1.340
  617SOL    HW1 1863   0.984   3.186   1.395
  617SOL    HW2 1864   1.147   3.183   1.389
  618SOL     OW 1865   1.592   3.491   1.625
  618SOL    HW1 1866   1.619   3.525   1.535
  618SOL    HW2 1867   1.671   3.453   1.671
  619SOL     OW 1868   1.111   3.057   1.100
  619SOL    HW1 1869   1.071   3.101   1.181
  619SOL    HW2 1870   1.070   3.094   1.017
  620SOL     OW 1871   1.638   2.961   1.079
  620SOL    HW1 1872   1.643   3.042   1.138
  620SOL    HW2 1873   1.552   2.963   1.028
  621SOL     OW 1874   0.915   1.951   1.402
  621SOL    HW1 1875   0.940   1.931   1.307
  621SOL    HW2 1876   0.987   2.007   1.444
  622SOL     OW 1877   0.980   2.978   1.719
  622SOL    HW1 1878   0.881   2.984   1.729
  622SOL    HW2 1879   1.003   2.898   1.663
  623SOL     OW 1880   0.705   2.912   0.368
  623SOL    HW1 1881   0.691   2.919   0.467
  623SOL    HW2 1882   0.789   2.861   0.350
  624SOL     OW 1883   0.410   2.675   1.251
  624SOL    HW1 1884   0.496   2.687   1.301
  624SOL    HW2 1885   0.368   2.588   1.278
  625SOL     OW 1886   1.274   2.248   1.262
  625SOL    HW1 1887   1.295   2.322   1.326
  625SOL    HW2 1888   1.185   2.265   1.219
  626SOL     OW 1889   0.064   3.426   1.331
  626SOL    HW1 1890   0.018   3.508   1.297
  626SOL    HW2 1891   0.162   3.445   1.340
  627SOL     OW 1892   0.367   2.962   0.501
  627SOL    HW1 1893   0.360   3.045   0.445
  627SOL    HW2 1894   0.371   2.882   0.441
  628SOL     OW 1895   0.566   2.399   0.865
  628SOL    HW1 1896   0.578   2.465   0.791
  628SOL    HW2 1897   0.612   2.433   0.948
  629SOL     OW 1898   1.252   3.210   0.388
  629SOL    HW1 1899   1.302   3.287   0.428
  629SOL    HW2 1900   1.157   3.212   0.420
  630SOL     OW 1901   1.272   3.307   1.142
  630SOL    HW1 1902   1.319   3.320   1.229
  630SOL    HW2 1903   1.206   3.233   1.151
  631SOL     OW 1904   1.582   2.501   0.472
  631SOL    HW1 1905   1.551   2.562   0.545
  631SOL    HW2 1906   1.632   2.553   0.403
  632SOL     OW 1907   0.354   3.372   1.329
  632SOL    HW1 1908   0.333   3.328   1.242
  632SOL    HW2 1909   0.451   3.398   1.332
  633SOL     OW 1910   0.402   2.613   1.598
  633SOL    HW1 1911   0.470   2.668   1.551
  633SOL    HW2 1912   0.442   2.525   1.625
  634SOL     OW 1913   1.587   2.641   1.670
  634SOL    HW1 1914   1.495   2.679   1.665
  634SOL    HW2 1915   1.647   2.688   1.605
  635SOL     OW 1916   1.013   1.967   1.770
  635SOL    HW1 1917   1.019   2.052   1.718
  635SOL    HW2 1918   1.045   1.891   1.713
  636SOL     OW 1919   0.504   1.912   1.740
  636SOL    HW1 1920   0.462   1.855   1.670
  636SOL    HW2 1921   0.438   1.981   1.772
  637SOL     OW 1922   0.573   2.732   1.029
  637SOL    HW1 1923   0.617   2.821   1.020
  637SOL    HW2 1924   0.510   2.732   1.106
  638SOL     OW 1925   1.360   2.724   1.045
  638SOL    HW1 1926   1.285   2.724   0.979
  638SOL    HW2 1927   1.397   2.632   1.054
  639SOL     OW 1928   1.209   2.387   0.275
  639SOL    HW1 1929   1.222   2.303   0.329
  639SOL    HW2 1930   1.180   2.461   0.335
  640SOL     OW 1931   0.307   2.075   1.231
  640SOL    HW1 1932   0.284   2.112   1.321
  640SOL    HW2 1933   0.277   1.980   1.225
  641SOL     OW 1934   0.037   3.172   1.282
  641SOL    HW1 1935   0.090   3.123   1.350
  641SOL    HW2 1936   0.059   3.270   1.287
  642SOL     OW 1937   0.732   2.496   1.064
  642SOL    HW1 1938   0.791   2.470   0.988
  642SOL    HW2 1939   0.704   2.592   1.053
  643SOL     OW 1940   1.728   2.797   1.854
  643SOL    HW1 1941   1.682   2.790   1.765
  643SOL    HW2 1942   1.666   2.841   1.920
  644SOL     OW 1943   0.307   1.925   0.618
  644SOL    HW1 1944   0.296   2.019   0.651
  644SOL    HW2 1945   0.302   1.862   0.695
  645SOL     OW 1946   1.622   2.229   0.374
  645SOL    HW1 1947   1.624   2.153   0.438
  645SOL    HW2 1948   1.574   2.306   0.414
  646SOL     OW 1949   1.023   2.628   0.966
  646SOL    HW1 1950   1.038   2.649   1.062
  646SOL    HW2 1951   0.993   2.533   0.957
  647SOL     OW 1952   0.980   3.435   1.700
  647SOL    HW1 1953   0.960   3.479   1.612
  647SOL    HW2 1954   1.019   3.344   1.684
  648SOL     OW 1955   1.859   3.380   1.605
  648SOL    HW1 1956   1.873   3.407   1.510
  648SOL    HW2 1957   1.942   3.402   1.658
  649SOL     OW 1958   0.350   2.760   1.804
  649SOL    HW1 1959   0.426   2.804   1.852
  649SOL    HW2 1960   0.385   2.713   1.722
  650SOL     OW 1961   1.540   2.136   0.125
  650SOL    HW1 1962   1.479   2.061   0.148
  650SOL    HW2 1963   1.562   2.188   0.208
  651SOL     OW 1964   1.303   2.700   0.042
  651SOL    HW1 1965   1.337   2.607   0.057
  651SOL    HW2 1966   1.321   2.727  -0.053
  652SOL     OW 1967   1.068   3.195   0.849
  652SOL    HW1 1968   1.075   3.111   0.794
  652SOL    HW2 1969   1.130   3.264   0.813
  653SOL     OW 1970   0.319   2.672   0.949
  653SOL    HW1 1971   0.412   2.708   0.954
  653SOL    HW2 1972   0.313   2.587   1.001
  654SOL     OW 1973   0.339   2.371   1.006
  654SOL    HW1 1974   0.287   2.288   0.989
  654SOL    HW2 1975   0.416   2.376   0.942
  655SOL     OW 1976   1.138   2.242   1.678
  655SOL    HW1 1977   1.093   2.305   1.742
  655SOL    HW2 1978   1.231   2.273   1.661
  656SOL     OW 1979   1.160   2.069   1.477
  656SOL    HW1 1980   1.160   2.133   1.554
  656SOL    HW2 1981   1.188   2.117   1.394
  657SOL     OW 1982   0.008   3.188   0.200
  657SOL    HW1 1983  -0.085   3.209   0.169
  657SOL    HW2 1984   0.018   3.089   0.213
  658SOL     OW 1985   0.088   3.663   0.927
  658SOL    HW1 1986   0.046   3.577   0.900
  658SOL    HW2 1987   0.182   3.666   0.893
  659SOL     OW 1988   0.504   3.430   0.910
  659SOL    HW1 1989   0.570   3.504   0.919
  659SOL    HW2 1990   0.548   3.351   0.868
  660SOL     OW 1991   1.002   2.658   1.238
  660SOL    HW1 1992   1.043   2.626   1.324
  660SOL    HW2 1993   0.906   2.631   1.235
  661SOL     OW 1994   0.040   2.406   1.114
  661SOL    HW1 1995   0.125   2.373   1.073
  661SOL    HW2 1996   0.053   2.421   1.212
  662SOL     OW 1997   0.189   2.382   1.722
  662SOL    HW1 1998   0.248   2.342   1.652
  662SOL    HW2 1999   0.131   2.453   1.681
  663SOL     OW 2000   1.369   2.812   1.660
  663SOL    HW1 2001   1.408   2.901   1.680
  663SOL    HW2 2002   1.379   2.792   1.563
  664SOL     OW 2003   0.815   2.434   0.325
  664SOL    HW1 2004   0.822   2.345   0.279
  664SOL    HW2 2005   0.721   2.468   0.317
  665SOL     OW 2006   1.657   2.466   1.206
  665SOL    HW1 2007   1.619   2.397   1.268
  665SOL    HW2 2008   1.739   2.430   1.162
  666SOL     OW 2009   0.252   3.426   1.744
  666SOL    HW1 2010   0.222   3.483   1.820
  666SOL    HW2 2011   0.245   3.329   1.770
  667SOL     OW 2012   0.671   2.326   1.269
  667SOL    HW1 2013   0.637   2.237   1.239
  667SOL    HW2 2014   0.697   2.380   1.189
  668SOL     OW 2015   0.930   3.540   1.465
  668SOL    HW1 2016   0.906   3.522   1.370
  668SOL    HW2 2017   0.960   3.634   1.475
  669SOL     OW 2018   0.473   2.362   0.191
  669SOL    HW1 2019   0.534   2.442   0.195
  669SOL    HW2 2020   0.378   2.393   0.198
  670SOL     OW 2021   0.159   2.999   1.466
  670SOL    HW1 2022   0.181   2.938   1.542
  670SOL    HW2 2023   0.169   2.950   1.380
  671SOL     OW 2024   1.347   2.921   1.234
  671SOL    HW1 2025   1.371   2.858   1.160
  671SOL    HW2 2026   1.257   2.961   1.216
  672SOL     OW 2027   1.302   2.717   0.309
  672SOL    HW1 2028   1.216   2.686   0.351
  672SOL    HW2 2029   1.298   2.703   0.210
  673SOL     OW 2030   1.759   3.609   1.154
  673SOL    HW1 2031   1.820   3.639   1.081
  673SOL    HW2 2032   1.721   3.520   1.132
  674SOL     OW 2033   1.252   3.593   1.128
  674SOL    HW1 2034   1.336   3.598   1.074
  674SOL    HW2 2035   1.229   3.497   1.146
  675SOL     OW 2036   0.083   3.120   1.022
  675SOL    HW1 2037   0.078   3.119   1.122
  675SOL    HW2 2038   0.000   3.079   0.984
  676SOL     OW 2039   0.688   3.524   1.716
  676SOL    HW1 2040   0.632   3.605   1.725
  676SOL    HW2 2041   0.740   3.528   1.630
  677SOL     OW 2042   0.903   1.948   0.133
  677SOL    HW1 2043   0.954   1.949   0.047
  677SOL    HW2 2044   0.959   1.906   0.204
  678SOL     OW 2045   1.726   1.997   0.523
  678SOL    HW1 2046   1.799   1.980   0.456
  678SOL    HW2 2047   1.695   1.910   0.561
  679SOL     OW 2048   1.388   3.435   0.477
  679SOL    HW1 2049   1.455   3.447   0.403
  679SOL    HW2 2050   1.348   3.524   0.500
  680SOL     OW 2051   0.130   3.656   1.851
  680SOL    HW1 2052   0.089   3.582   1.904
  680SOL    HW2 2053   0.194   3.707   1.909
  681SOL     OW 2054   1.280   2.789   0.672
  681SOL    HW1 2055   1.340   2.708   0.674
  681SOL    HW2 2056   1.320   2.858   0.612
  682SOL     OW 2057   0.830   3.135   1.422
  682SOL    HW1 2058   0.825   3.168   1.517
  682SOL    HW2 2059   0.744   3.154   1.376
  683SOL     OW 2060   0.672   3.478   0.154
  683SOL    HW1 2061   0.681   3.488   0.055
  683SOL    HW2 2062   0.632   3.389   0.175
  684SOL     OW 2063   1.650   3.582   1.394
  684SOL    HW1 2064   1.703   3.592   1.310
  684SOL    HW2 2065   1.623   3.672   1.428
  685SOL     OW 2066   1.841   2.037   0.963
  685SOL    HW1 2067   1.880   1.952   0.927
  685SOL    HW2 2068   1.743   2.039   0.944
  686SOL     OW 2069   0.263   2.188   0.720
  686SOL    HW1 2070   0.184   2.239   0.686
  686SOL    HW2 2071   0.254   2.173   0.818
  687SOL     OW 2072   1.194   3.474   0.031
  687SOL    HW1 2073   1.200   3.381   0.068
  687SOL    HW2 2074   1.135   3.474  -0.049
  688SOL     OW 2075   0.822   2.864   1.372
  688SOL    HW1 2076   0.862   2.863   1.280
  688SOL    HW2 2077   0.832   2.956   1.412
  689SOL     OW 2078   0.916   2.772   0.291
  689SOL    HW1 2079   0.979   2.810   0.223
  689SOL    HW2 2080   0.956   2.689   0.330
  690SOL     OW 2081   1.504   3.469   0.044
  690SOL    HW1 2082   1.412   3.506   0.051
  690SOL    HW2 2083   1.542   3.489  -0.046
  691SOL     OW 2084   0.372   3.150   1.490
  691SOL    HW1 2085   0.359   3.243   1.456
  691SOL    HW2 2086   0.288   3.098   1.477
  692SOL     OW 2087   1.614   3.154   1.289
  692SOL    HW1 2088   1.674   3.157   1.369
  692SOL    HW2 2089   1.539   3.218   1.302
  693SOL     OW 2090   1.039   2.960   0.696
  693SOL    HW1 2091   0.969   2.913   0.750
  693SOL    HW2 2092   1.098   2.892   0.653
  694SOL     OW 2093   1.014   2.098   0.971
  694SOL    HW1 2094   1.006   2.062   0.878
  694SOL    HW2 2095   1.012   2.022   1.036
  695SOL     OW 2096   0.590   3.349   0.491
  695SOL    HW1 2097   0.632   3.291   0.421
  695SOL    HW2 2098   0.546   3.428   0.447
  696SOL     OW 2099   1.709   2.247   1.381
  696SOL    HW1 2100   1.782   2.316   1.385
  696SOL    HW2 2101   1.737   2.172   1.322
  697SOL     OW 2102   0.255   3.210   0.290
  697SOL    HW1 2103   0.159   3.211   0.263
  697SOL    HW2 2104   0.267   3.263   0.374
  698SOL     OW 2105   0.105   2.875   1.726
  698SOL    HW1 2106   0.028   2.842   1.780
  698SOL    HW2 2107   0.190   2.845   1.768
  699SOL     OW 2108   0.672   2.065   1.489
  699SOL    HW1 2109   0.762   2.049   1.449
  699SOL    HW2 2110   0.680   2.070   1.588
  700SOL     OW 2111   0.075   2.207   0.033
  700SOL    HW1 2112  -0.017   2.179   0.004
  700SOL    HW2 2113   0.106   2.284  -0.023
  701SOL     OW 2114   1.440   2.718   1.398
  701SOL    HW1 2115   1.383   2.770   1.335
  701SOL    HW2 2116   1.536   2.730   1.374
  702SOL     OW 2117   0.072   2.028   0.318
  702SOL    HW1 2118   0.055   2.111   0.264
  702SOL    HW2 2119   0.162   1.991   0.296
  703SOL     OW 2120   1.183   3.197   0.119
  703SOL    HW1 2121   1.084   3.186   0.121
  703SOL    HW2 2122   1.217   3.212   0.212
  704SOL     OW 2123   0.613   2.704   1.431
  704SOL    HW1 2124   0.669   2.785   1.414
  704SOL    HW2 2125   0.672   2.624   1.434
  705SOL     OW 2126   1.493   3.629   0.959
  705SOL    HW1 2127   1.526   3.693   0.890
  705SOL    HW2 2128   1.559   3.623   1.034
  706SOL     OW 2129   0.716   2.427   1.708
  706SOL    HW1 2130   0.735   2.492   1.782
  706SOL    HW2 2131   0.776   2.347   1.717
  707SOL     OW 2132   1.450   3.082   1.633
  707SOL    HW1 2133   1.441   3.072   1.732
  707SOL    HW2 2134   1.546   3.075   1.607
  708SOL     OW 2135   0.390   3.603   1.560
  708SOL    HW1 2136   0.299   3.644   1.558
  708SOL    HW2 2137   0.383   3.509   1.592
  709SOL     OW 2138   1.674   2.745   1.254
  709SOL    HW1 2139   1.647   2.656   1.217
  709SOL    HW2 2140   1.675   2.813   1.181
  710SOL     OW 2141   1.225   2.187   0.449
  710SOL    HW1 2142   1.290   2.113   0.438
  710SOL    HW2 2143   1.245   2.237   0.533
  711SOL     OW 2144   0.594   2.607   0.652
  711SOL    HW1 2145   0.644   2.692   0.633
  711SOL    HW2 2146   0.506   2.609   0.604
  712SOL     OW 2147   1.777   2.204   1.642
  712SOL    HW1 2148   1.760   2.235   1.548
  712SOL    HW2 2149   1.693   2.167   1.680
  713SOL     OW 2150   1.730   2.796   1.517
  713SOL    HW1 2151   1.768   2.887   1.532
  713SOL    HW2 2152   1.722   2.779   1.418
  714SOL     OW 2153   0.859   3.236   0.016
  714SOL    HW1 2154   0.813   3.251   0.104
  714SOL    HW2 2155   0.903   3.321  -0.014
  715SOL     OW 2156   0.661   3.652   0.953
  715SOL    HW1 2157   0.615   3.740   0.940
  715SOL    HW2 2158   0.760   3.664   0.946
  716SOL     OW 2159   0.859   2.818   0.861
  716SOL    HW1 2160   0.913   2.749   0.909
  716SOL    HW2 2161   0.827   2.887   0.927
  717SOL     OW 2162   1.083   2.846   0.087
  717SOL    HW1 2163   1.060   2.899   0.005
  717SOL    HW2 2164   1.164   2.790   0.068
  718SOL     OW 2165   1.861   3.431   0.851
  718SOL    HW1 2166   1.790   3.419   0.781
  718SOL    HW2 2167   1.862   3.352   0.911
  719SOL     OW 2168   0.221   3.176   1.844
  719SOL    HW1 2169   0.156   3.103   1.823
  719SOL    HW2 2170   0.225   3.190   1.942
  720SOL     OW 2171   0.079   3.102   0.653
  720SOL    HW1 2172   0.078   3.055   0.741
  720SOL    HW2 2173   0.161   3.074   0.602
  721SOL     OW 2174   0.672   3.253   1.624
  721SOL    HW1 2175   0.594   3.203   1.662
  721SOL    HW2 2176   0.669   3.348   1.655
  722SOL     OW 2177   1.824   2.054   1.227
  722SOL    HW1 2178   1.820   1.964   1.271
  722SOL    HW2 2179   1.827   2.043   1.128
  723SOL     OW 2180   0.428   2.286   0.520
  723SOL    HW1 2181   0.458   2.214   0.458
  723SOL    HW2 2182   0.389   2.246   0.603
  724SOL     OW 2183   1.705   3.349   1.104
  724SOL    HW1 2184   1.612   3.324   1.077
  724SOL    HW2 2185   1.731   3.299   1.186
  725SOL     OW 2186   0.317   2.409   1.280
  725SOL    HW1 2187   0.355   2.350   1.352
  725SOL    HW2 2188   0.357   2.383   1.192
  726SOL     OW 2189   0.812   3.448   0.687
  726SOL    HW1 2190   0.844   3.458   0.593
  726SOL    HW2 2191   0.733   3.386   0.689
  727SOL     OW 2192   1.424   2.076   1.112
  727SOL    HW1 2193   1.476   2.011   1.167
  727SOL    HW2 2194   1.375   2.139   1.173
  728SOL     OW 2195   1.001   1.896   1.154
  728SOL    HW1 2196   0.938   1.824   1.123
  728SOL    HW2 2197   1.094   1.860   1.154
  729SOL     OW 2198   0.770   3.192   0.301
  729SOL    HW1 2199   0.724   3.105   0.318
  729SOL    HW2 2200   0.861   3.189   0.342
  730SOL     OW 2201   0.618   3.429   1.284
  730SOL    HW1 2202   0.613   3.511   1.341
  730SOL    HW2 2203   0.707   3.426   1.239
  731SOL     OW 2204   1.352   1.914   0.168
  731SOL    HW1 2205   1.387   1.873   0.084
  731SOL    HW2 2206   1.262   1.876   0.188
  732SOL     OW 2207   1.300   2.315   0.691
  732SOL    HW1 2208   1.241   2.395   0.695
  732SOL    HW2 2209   1.315   2.280   0.784
  733SOL     OW 2210   1.593   2.083   0.882
  733SOL    HW1 2211   1.509   2.082   0.936
  733SOL    HW2 2212   1.595   2.166   0.826
  734SOL     OW 2213   0.039   2.939   0.300
  734SOL    HW1 2214   0.138   2.928   0.291
  734SOL    HW2 2215  -0.001   2.853   0.332
  735SOL     OW 2216   0.875   3.508   0.337
  735SOL    HW1 2217   0.798   3.473   0.283
  735SOL    HW2 2218   0.843   3.579   0.399
  736SOL     OW 2219   0.230   2.490   1.975
  736SOL    HW1 2220   0.137   2.488   2.012
  736SOL    HW2 2221   0.231   2.451   1.883
  737SOL     OW 2222   0.225   2.137   2.858
  737SOL    HW1 2223   0.260   2.120   2.950
  737SOL    HW2 2224   0.137   2.092   2.846
  738SOL     OW 2225   0.019   2.230   2.509
  738SOL    HW1 2226  -0.063   2.273   2.548
  738SOL    HW2 2227  -0.009   2.157   2.446
  739SOL     OW 2228   0.569   3.137   3.027
  739SOL    HW1 2229   0.476   3.130   2.990
  739SOL    HW2 2230   0.580   3.226   3.071
  740SOL     OW 2231   1.555   3.373   2.565
  740SOL    HW1 2232   1.498   3.357   2.646
  740SOL    HW2 2233   1.496   3.383   2.485
  741SOL     OW 2234   1.135   2.565   2.579
  741SOL    HW1 2235   1.192   2.643   2.554
  741SOL    HW2 2236   1.075   2.591   2.655
  742SOL     OW 2237   1.755   2.469   2.093
  742SOL    HW1 2238   1.743   2.456   1.994
  742SOL    HW2 2239   1.725   2.388   2.142
  743SOL     OW 2240   0.768   3.006   2.885
  743SOL    HW1 2241   0.690   3.023   2.945
  743SOL    HW2 2242   0.802   3.093   2.849
  744SOL     OW 2243   0.850   2.660   3.685
  744SOL    HW1 2244   0.846   2.736   3.750
  744SOL    HW2 2245   0.872   2.696   3.594
  745SOL     OW 2246   0.685   2.874   2.527
  745SOL    HW1 2247   0.754   2.858   2.597
  745SOL    HW2 2248   0.612   2.931   2.565
  746SOL     OW 2249   0.686   3.023   3.665
  746SOL    HW1 2250   0.746   3.102   3.679
  746SOL    HW2 2251   0.600   3.054   3.624
  747SOL     OW 2252   0.335   3.297   2.923
  747SOL    HW1 2253   0.257   3.266   2.870
  747SOL    HW2 2254   0.393   3.355   2.866
  748SOL     OW 2255   1.460   3.367   3.201
  748SOL    HW1 2256   1.484   3.461   3.227
  748SOL    HW2 2257   1.444   3.313   3.283
  749SOL     OW 2258   0.438   2.254   3.361
  749SOL    HW1 2259   0.520   2.198   3.370
  749SOL    HW2 2260   0.357   2.196   3.365
  750SOL     OW 2261   1.603   2.309   2.599
  750SOL    HW1 2262   1.529   2.355   2.549
  750SOL    HW2 2263   1.654   2.377   2.652
  751SOL     OW 2264   0.231   3.575   2.345
  751SOL    HW1 2265   0.265   3.652   2.399
  751SOL    HW2 2266   0.275   3.575   2.255
  752SOL     OW 2267   1.127   3.203   3.552
  752SOL    HW1 2268   1.174   3.203   3.640
  752SOL    HW2 2269   1.079   3.116   3.541
  753SOL     OW 2270   0.230   3.296   2.400
  753SOL    HW1 2271   0.204   3.392   2.400
  753SOL    HW2 2272   0.159   3.242   2.445
  754SOL     OW 2273   0.240   2.953   2.748
  754SOL    HW1 2274   0.254   2.869   2.800
  754SOL    HW2 2275   0.185   3.017   2.803
  755SOL     OW 2276   0.620   3.648   3.301
  755SOL    HW1 2277   0.528   3.631   3.336
  755SOL    HW2 2278   0.648   3.740   3.327
  756SOL     OW 2279   0.606   2.826   1.985
  756SOL    HW1 2280   0.613   2.910   1.931
  756SOL    HW2 2281   0.652   2.839   2.073
  757SOL     OW 2282   1.594   1.976   3.342
  757SOL    HW1 2283   1.576   2.043   3.270
  757SOL    HW2 2284   1.591   2.022   3.431
  758SOL     OW 2285   0.122   2.505   2.425
  758SOL    HW1 2286   0.077   2.417   2.442
  758SOL    HW2 2287   0.121   2.559   2.509
  759SOL     OW 2288   1.842   3.629   2.221
  759SOL    HW1 2289   1.896   3.600   2.301
  759SOL    HW2 2290   1.872   3.719   2.192
  760SOL     OW 2291   0.027   3.458   1.979
  760SOL    HW1 2292   0.008   3.362   2.000
  760SOL    HW2 2293  -0.006   3.516   2.054
  761SOL     OW 2294   1.689   2.784   2.474
  761SOL    HW1 2295   1.784   2.755   2.482
  761SOL    HW2 2296   1.681   2.849   2.399
  762SOL     OW 2297   1.641   2.970   2.294
  762SOL    HW1 2298   1.727   2.972   2.242
  762SOL    HW2 2299   1.655   3.017   2.382
  763SOL     OW 2300   0.113   2.599   3.459
  763SOL    HW1 2301   0.201   2.586   3.504
  763SOL    HW2 2302   0.100   2.696   3.437
  764SOL     OW 2303   0.613   3.227   2.588
  764SOL    HW1 2304   0.564   3.140   2.597
  764SOL    HW2 2305   0.590   3.270   2.501
  765SOL     OW 2306   1.293   3.090   3.285
  765SOL    HW1 2307   1.330   3.017   3.227
  765SOL    HW2 2308   1.345   3.095   3.370
  766SOL     OW 2309   0.809   1.866   2.364
  766SOL    HW1 2310   0.849   1.957   2.355
  766SOL    HW2 2311   0.709   1.874   2.370
  767SOL     OW 2312   0.197   2.838   3.126
  767SOL    HW1 2313   0.286   2.793   3.112
  767SOL    HW2 2314   0.124   2.773   3.107
  768SOL     OW 2315   1.525   2.861   2.052
  768SOL    HW1 2316   1.462   2.785   2.065
  768SOL    HW2 2317   1.573   2.879   2.138
  769SOL     OW 2318   1.187   3.654   3.478
  769SOL    HW1 2319   1.211   3.714   3.402
  769SOL    HW2 2320   1.194   3.559   3.448
  770SOL     OW 2321   0.317   2.113   3.663
  770SOL    HW1 2322   0.388   2.184   3.669
  770SOL    HW2 2323   0.229   2.152   3.691
  771SOL     OW 2324   1.466   3.279   2.815
  771SOL    HW1 2325   1.407   3.285   2.895
  771SOL    HW2 2326   1.451   3.191   2.769
  772SOL     OW 2327   1.667   3.576   2.434
  772SOL    HW1 2328   1.626   3.553   2.346
  772SOL    HW2 2329   1.649   3.502   2.499
  773SOL     OW 2330   0.598   2.591   2.132
  773SOL    HW1 2331   0.622   2.660   2.064
  773SOL    HW2 2332   0.520   2.624   2.186
  774SOL     OW 2333   1.281   2.207   2.806
  774SOL    HW1 2334   1.195   2.157   2.793
  774SOL    HW2 2335   1.343   2.153   2.862
  775SOL     OW 2336   1.576   3.524   2.169
  775SOL    HW1 2337   1.665   3.570   2.172
  775SOL    HW2 2338   1.555   3.500   2.074
  776SOL     OW 2339   0.807   2.467   3.327
  776SOL    HW1 2340   0.760   2.464   3.416
  776SOL    HW2 2341   0.756   2.412   3.261
  777SOL     OW 2342   1.394   2.331   3.536
  777SOL    HW1 2343   1.374   2.374   3.624
  777SOL    HW2 2344   1.472   2.269   3.545
  778SOL     OW 2345   0.973   2.752   3.434
  778SOL    HW1 2346   1.019   2.668   3.405
  778SOL    HW2 2347   0.917   2.786   3.359
  779SOL     OW 2348   0.991   2.272   3.104
  779SOL    HW1 2349   0.914   2.306   3.158
  779SOL    HW2 2350   0.957   2.221   3.025
  780SOL     OW 2351   1.041   2.563   2.291
  780SOL    HW1 2352   1.067   2.559   2.387
  780SOL    HW2 2353   0.956   2.512   2.277
  781SOL     OW 2354   0.076   2.673   2.651
  781SOL    HW1 2355   0.175   2.661   2.660
  781SOL    HW2 2356   0.052   2.768   2.672
  782SOL     OW 2357   0.130   3.683   3.433
  782SOL    HW1 2358   0.120   3.668   3.532
  782SOL    HW2 2359   0.044   3.719   3.397
  783SOL     OW 2360   0.865   2.210   2.057
  783SOL    HW1 2361   0.924   2.273   2.008
  783SOL    HW2 2362   0.884   2.116   2.028
  784SOL     OW 2363   1.719   2.447   3.693
  784SOL    HW1 2364   1.693   2.536   3.657
  784SOL    HW2 2365   1.717   2.379   3.620
  785SOL     OW 2366   1.362   3.006   2.407
  785SOL    HW1 2367   1.445   2.977   2.359
  785SOL    HW2 2368   1.313   3.073   2.351
  786SOL     OW 2369   0.550   2.058   2.747
  786SOL    HW1 2370   0.545   2.053   2.847
  786SOL    HW2 2371   0.552   2.154   2.718
  787SOL     OW 2372   1.008   3.318   2.339
  787SOL    HW1 2373   0.962   3.390   2.287
  787SOL    HW2 2374   1.004   3.338   2.437
  788SOL     OW 2375   0.351   3.663   2.715
  788SOL    HW1 2376   0.401   3.577   2.721
  788SOL    HW2 2377   0.416   3.740   2.712
  789SOL     OW 2378   1.795   2.928   2.735
  789SOL    HW1 2379   1.733   2.913   2.659
  789SOL    HW2 2380   1.743   2.939   2.820
  790SOL     OW 2381   1.227   3.412   3.368
  790SOL    HW1 2382   1.233   3.335   3.432
  790SOL    HW2 2383   1.175   3.386   3.288
  791SOL     OW 2384   0.321   2.805   2.104
  791SOL    HW1 2385   0.403   2.844   2.062
  791SOL    HW2 2386   0.294   2.723   2.055
  792SOL     OW 2387   1.458   2.597   2.590
  792SOL    HW1 2388   1.453   2.532   2.665
  792SOL    HW2 2389   1.538   2.656   2.603
  793SOL     OW 2390   0.461   3.128   3.589
  793SOL    HW1 2391   0.411   3.129   3.503
  793SOL    HW2 2392   0.398   3.110   3.665
  794SOL     OW 2393   1.111   3.638   2.099
  794SOL    HW1 2394   1.051   3.576   2.149
  794SOL    HW2 2395   1.142   3.594   2.014
  795SOL     OW 2396   0.202   2.147   3.360
  795SOL    HW1 2397   0.122   2.207   3.347
  795SOL    HW2 2398   0.192   2.098   3.446
  796SOL     OW 2399   1.632   3.239   1.943
  796SOL    HW1 2400   1.600   3.333   1.933
  796SOL    HW2 2401   1.556   3.176   1.931
  797SOL     OW 2402   0.464   3.605   2.185
  797SOL    HW1 2403   0.497   3.644   2.271
  797SOL    HW2 2404   0.540   3.598   2.120
  798SOL     OW 2405   1.400   1.969   2.288
  798SOL    HW1 2406   1.376   1.932   2.198
  798SOL    HW2 2407   1.499   1.985   2.292
  799SOL     OW 2408   0.249   3.647   3.103
  799SOL    HW1 2409   0.306   3.582   3.153
  799SOL    HW2 2410   0.233   3.614   3.010
  800SOL     OW 2411   0.940   3.560   2.766
  800SOL    HW1 2412   1.020   3.503   2.787
  800SOL    HW2 2413   0.891   3.520   2.689
  801SOL     OW 2414   0.382   2.562   2.342
  801SOL    HW1 2415   0.427   2.472   2.339
  801SOL    HW2 2416   0.288   2.551   2.375
  802SOL     OW 2417   1.547   2.084   3.591
  802SOL    HW1 2418   1.542   2.121   3.683
  802SOL    HW2 2419   1.475   2.015   3.579
  803SOL     OW 2420   0.614   1.984   1.979
  803SOL    HW1 2421   0.712   1.962   1.986
  803SOL    HW2 2422   0.583   1.967   1.886
  804SOL     OW 2423   0.781   2.126   3.611
  804SOL    HW1 2424   0.848   2.065   3.654
  804SOL    HW2 2425   0.708   2.145   3.676
  805SOL     OW 2426   0.888   3.376   3.057
  805SOL    HW1 2427   0.865   3.351   2.963
  805SOL    HW2 2428   0.949   3.307   3.096
  806SOL     OW 2429   1.351   2.452   3.295
  806SOL    HW1 2430   1.379   2.409   3.380
  806SOL    HW2 2431   1.376   2.548   3.296
  807SOL     OW 2432   0.803   3.264   2.786
  807SOL    HW1 2433   0.893   3.278   2.744
  807SOL    HW2 2434   0.732   3.266   2.715
  808SOL     OW 2435   0.922   2.365   2.761
  808SOL    HW1 2436   0.897   2.356   2.665
  808SOL    HW2 2437   0.970   2.283   2.792
  809SOL     OW 2438   0.539   1.926   2.374
  809SOL    HW1 2439   0.458   1.927   2.432
  809SOL    HW2 2440   0.542   2.009   2.319
  810SOL     OW 2441   1.434   3.050   1.903
  810SOL    HW1 2442   1.466   2.974   1.960
  810SOL    HW2 2443   1.342   3.077   1.933
  811SOL     OW 2444   0.297   1.897   2.033
  811SOL    HW1 2445   0.346   1.981   2.012
  811SOL    HW2 2446   0.359   1.832   2.078
  812SOL     OW 2447   0.935   2.098   2.342
  812SOL    HW1 2448   0.887   2.139   2.264
  812SOL    HW2 2449   1.034   2.096   2.323
  813SOL     OW 2450   1.076   2.545   3.326
  813SOL    HW1 2451   0.996   2.484   3.329
  813SOL    HW2 2452   1.157   2.492   3.302
  814SOL     OW 2453   1.227   3.432   2.655
  814SOL    HW1 2454   1.248   3.506   2.590
  814SOL    HW2 2455   1.295   3.432   2.728
  815SOL     OW 2456   0.459   3.014   2.603
  815SOL    HW1 2457   0.388   2.987   2.668
  815SOL    HW2 2458   0.433   2.986   2.510
  816SOL     OW 2459   1.271   3.659   2.453
  816SOL    HW1 2460   1.315   3.723   2.389
  816SOL    HW2 2461   1.221   3.711   2.523
  817SOL     OW 2462   1.032   2.411   1.878
  817SOL    HW1 2463   0.991   2.493   1.839
  817SOL    HW2 2464   1.096   2.437   1.951
  818SOL     OW 2465   0.078   2.418   3.248
  818SOL    HW1 2466   0.170   2.417   3.207
  818SOL    HW2 2467   0.072   2.492   3.315
  819SOL     OW 2468   0.561   2.084   3.009
  819SOL    HW1 2469   0.599   2.000   3.046
  819SOL    HW2 2470   0.473   2.103   3.053
  820SOL     OW 2471   0.866   2.316   2.504
  820SOL    HW1 2472   0.834   2.388   2.442
  820SOL    HW2 2473   0.890   2.235   2.451
  821SOL     OW 2474   1.017   1.901   2.615
  821SOL    HW1 2475   0.945   1.906   2.546
  821SOL    HW2 2476   0.993   1.832   2.684
  822SOL     OW 2477   1.429   3.035   2.729
  822SOL    HW1 2478   1.374   2.951   2.722
  822SOL    HW2 2479   1.455   3.064   2.637
  823SOL     OW 2480   1.466   2.452   2.854
  823SOL    HW1 2481   1.436   2.357   2.861
  823SOL    HW2 2482   1.539   2.468   2.920
  824SOL     OW 2483   1.857   2.695   2.239
  824SOL    HW1 2484   1.899   2.631   2.303
  824SOL    HW2 2485   1.819   2.644   2.161
  825SOL     OW 2486   0.488   3.247   2.036
  825SOL    HW1 2487   0.401   3.232   2.083
  825SOL    HW2 2488   0.471   3.273   1.941
  826SOL     OW 2489   1.664   3.142   2.519
  826SOL    HW1 2490   1.763   3.150   2.533
  826SOL    HW2 2491   1.619   3.226   2.550
  827SOL     OW 2492   1.390   2.437   1.940
  827SOL    HW1 2493   1.336   2.416   2.021
  827SOL    HW2 2494   1.481   2.396   1.949
  828SOL     OW 2495   0.527   2.118   2.190
  828SOL    HW1 2496   0.554   2.059   2.115
  828SOL    HW2 2497   0.527   2.213   2.159
  829SOL     OW 2498   1.754   3.085   3.450
  829SOL    HW1 2499   1.845   3.046   3.437
  829SOL    HW2 2500   1.762   3.181   3.474
  830SOL     OW 2501   1.064   3.209   3.202
  830SOL    HW1 2502   0.984   3.186   3.257
  830SOL    HW2 2503   1.147   3.183   3.251
  831SOL     OW 2504   1.592   3.491   3.487
  831SOL    HW1 2505   1.619   3.525   3.397
  831SOL    HW2 2506   1.671   3.453   3.533
  832SOL     OW 2507   1.111   3.057   2.962
  832SOL    HW1 2508   1.071   3.101   3.043
  832SOL    HW2 2509   1.070   3.094   2.879
  833SOL     OW 2510   1.638   2.961   2.941
  833SOL    HW1 2511   1.643   3.042   3.000
  833SOL    HW2 2512   1.552   2.963   2.890
  834SOL     OW 2513   0.915   1.951   3.264
  834SOL    HW1 2514   0.940   1.931   3.169
  834SOL    HW2 2515   0.987   2.007   3.306
  835SOL     OW 2516   0.980   2.978   3.581
  835SOL    HW1 2517   0.881   2.984   3.591
  835SOL    HW2 2518   1.003   2.898   3.525
  836SOL     OW 2519   0.705   2.912   2.230
  836SOL    HW1 2520   0.691   2.919   2.329
  836SOL    HW2 2521   0.789   2.861   2.212
  837SOL     OW 2522   0.410   2.675   3.113
  837SOL    HW1 2523   0.496   2.687   3.163
  837SOL    HW2 2524   0.368   2.588   3.140
  838SOL     OW 2525   1.274   2.248   3.124
  838SOL    HW1 2526   1.295   2.322   3.188
  838SOL    HW2 2527   1.185   2.265   3.081
  839SOL     OW 2528   0.064   3.426   3.193
  839SOL    HW1 2529   0.018   3.508   3.159
  839SOL    HW2 2530   0.162   3.445   3.202
  840SOL     OW 2531   0.367   2.962   2.363
  840SOL    HW1 2532   0.360   3.045   2.307
  840SOL    HW2 2533   0.371   2.882   2.303
  841SOL     OW 2534   0.566   2.399   2.727
  841SOL    HW1 2535   0.578   2.465   2.653
  841SOL    HW2 2536   0.612   2.433   2.810
  842SOL     OW 2537   1.252   3.210   2.250
  842SOL    HW1 2538   1.302   3.287   2.290
  842SOL    HW2 2539   1.157   3.212   2.282
  843SOL     OW 2540   1.272   3.307   3.004
  843SOL    HW1 2541   1.319   3.320   3.091
  843SOL    HW2 2542   1.206   3.233   3.013
  844SOL     OW 2543   1.582   2.501   2.334
  844SOL    HW1 2544   1.551   2.562   2.407
  844SOL    HW2 2545   1.632   2.553   2.265
  845SOL     OW 2546   0.354   3.372   3.191
  845SOL    HW1 2547   0.333   3.328   3.104
  845SOL    HW2 2548   0.451   3.398   3.194
  846SOL     OW 2549   0.402   2.613   3.460
  846SOL    HW1 2550   0.470   2.668   3.413
  846SOL    HW2 2551   0.442   2.525   3.487
  847SOL     OW 2552   1.587   2.641   3.532
  847SOL    HW1 2553   1.495   2.679   3.527
  847SOL    HW2 2554   1.647   2.688   3.467
  848SOL     OW 2555   1.013   1.967   3.632
  848SOL    HW1 2556   1.019   2.052   3.580
  848SOL    HW2 2557   1.045   1.891   3.575
  849SOL     OW 2558   0.504   1.912   3.602
  849SOL    HW1 2559   0.462   1.855   3.532
  849SOL    HW2 2560   0.438   1.981   3.634
  850SOL     OW 2561   0.573   2.732   2.891
  850SOL    HW1 2562   0.617   2.821   2.882
  850SOL    HW2 2563   0.510   2.732   2.968
  851SOL     OW 2564   1.360   2.724   2.907
  851SOL    HW1 2565   1.285   2.724   2.841
  851SOL    HW2 2566   1.397   2.632   2.916
  852SOL     OW 2567   1.209   2.387   2.137
  852SOL    HW1 2568   1.222   2.303   2.191
  852SOL    HW2 2569   1.180   2.461   2.197
  853SOL     OW 2570   0.307   2.075   3.093
  853SOL    HW1 2571   0.284   2.112   3.183
  853SOL    HW2 2572   0.277   1.980   3.087
  854SOL     OW 2573   0.037   3.172   3.144
  854SOL    HW1 2574   0.090   3.123   3.212
  854SOL    HW2 2575   0.059   3.270   3.149
  855SOL     OW 2576   0.732   2.496   2.926
  855SOL    HW1 2577   0.791   2.470   2.850
  855SOL    HW2 2578   0.704   2.592   2.915
  856SOL     OW 2579   1.728   2.797   3.716
  856SOL    HW1 2580   1.682   2.790   3.627
  856SOL    HW2 2581   1.666   2.841   3.782
  857SOL     OW 2582   0.307   1.925   2.480
  857SOL    HW1 2583   0.296   2.019   2.513
  857SOL    HW2 2584   0.302   1.862   2.557
  858SOL     OW 2585   1.622   2.229   2.236
  858SOL    HW1 2586   1.624   2.153   2.300
  858SOL    HW2 2587   1.574   2.306   2.276
  859SOL     OW 2588   1.023   2.628   2.828
  859SOL    HW1 2589   1.038   2.649   2.924
  859SOL    HW2 2590   0.993   2.533   2.819
  860SOL     OW 2591   0.980   3.435   3.562
  860SOL    HW1 2592   0.960   3.479   3.474
  860SOL    HW2 2593   1.019   3.344   3.546
  861SOL     OW 2594   1.859   3.380   3.467
  861SOL    HW1 2595   1.873   3.407   3.372
  861SOL    HW2 2596   1.942   3.402   3.520
  862SOL     OW 2597   0.350   2.760   3.666
  862SOL    HW1 2598   0.426   2.804   3.714
  862SOL    HW2 2599   0.385   2.713   3.584
  863SOL     OW 2600   1.540   2.136   1.987
  863SOL    HW1 2601   1.479   2.061   2.010
  863SOL    HW2 2602   1.562   2.188   2.070
  864SOL     OW 2603   1.303   2.700   1.904
  864SOL    HW1 2604   1.337   2.607   1.919
  864SOL    HW2 2605   1.321   2.727   1.809
  865SOL     OW 2606   1.068   3.195   2.711
  865SOL    HW1 2607   1.075   3.111   2.656
  865SOL    HW2 2608   1.130   3.264   2.675
  866SOL     OW 2609   0.319   2.672   2.811
  866SOL    HW1 2610   0.412   2.708   2.816
  866SOL    HW2 2611   0.313   2.587   2.863
  867SOL     OW 2612   0.339   2.371   2.868
  867SOL    HW1 2613   0.287   2.288   2.851
  867SOL    HW2 2614   0.416   2.376   2.804
  868SOL     OW 2615   1.138   2.242   3.540
  868SOL    HW1 2616   1.093   2.305   3.604
  868SOL    HW2 2617   1.231   2.273   3.523
  869SOL     OW 2618   1.160   2.069   3.339
  869SOL    HW1 2619   1.160   2.133   3.416
  869SOL    HW2 2620   1.188   2.117   3.256
  870SOL     OW 2621   0.008   3.188   2.062
  870SOL    HW1 2622  -0.085   3.209   2.031
  870SOL    HW2 2623   0.018   3.089   2.075
  871SOL     OW 2624   0.088   3.663   2.789
  871SOL    HW1 2625   0.046   3.577   2.762
  871SOL    HW2 2626   0.182   3.666   2.755
  872SOL     OW 2627   0.504   3.430   2.772
  872SOL    HW1 2628   0.570   3.504   2.781
  872SOL    HW2 2629   0.548   3.351   2.730
  873SOL     OW 2630   1.002   2.658   3.100
  873SOL    HW1 2631   1.043   2.626   3.186
  873SOL    HW2 2632   0.906   2.631   3.097
  874SOL     OW 2633   0.040   2.406   2.976
  874SOL    HW1 2634   0.125   2.373   2.935
  874SOL    HW2 2635   0.053   2.421   3.074
  875SOL     OW 2636   0.189   2.382   3.584
  875SOL    HW1 2637   0.248   2.342   3.514
  875SOL    HW2 2638   0.131   2.453   3.543
  876SOL     OW 2639   1.369   2.812   3.522
  876SOL    HW1 2640   1.408   2.901   3.542
  876SOL    HW2 2641   1.379   2.792   3.425
  877SOL     OW 2642   0.815   2.434   2.187
  877SOL    HW1 2643   0.822   2.345   2.141
  877SOL    HW2 2644   0.721   2.468   2.179
  878SOL     OW 2645   1.657   2.466   3.068
  878SOL    HW1 2646   1.619   2.397   3.130
  878SOL    HW2 2647   1.739   2.430   3.024
  879SOL     OW 2648   0.252   3.426   3.606
  879SOL    HW1 2649   0.222   3.483   3.682
  879SOL    HW2 2650   0.245   3.329   3.632
  880SOL     OW 2651   0.671   2.326   3.131
  880SOL    HW1 2652   0.637   2.237   3.101
  880SOL    HW2 2653   0.697   2.380   3.051
  881SOL     OW 2654   0.930   3.540   3.327
  881SOL    HW1 2655   0.906   3.522   3.232
  881SOL    HW2 2656   0.960   3.634   3.337
  882SOL     OW 2657   0.473   2.362   2.053
  882SOL    HW1 2658   0.534   2.442   2.057
  882SOL    HW2 2659   0.378   2.393   2.060
  883SOL     OW 2660   0.159   2.999   3.328
  883SOL    HW1 2661   0.181   2.938   3.404
  883SOL    HW2 2662   0.169   2.950   3.242
  884SOL     OW 2663   1.347   2.921   3.096
  884SOL    HW1 2664   1.371   2.858   3.022
  884SOL    HW2 2665   1.257   2.961   3.078
  885SOL     OW 2666   1.302   2.717   2.171
  885SOL    HW1 2667   1.216   2.686   2.213
  885SOL    HW2 2668   1.298   2.703   2.072
  886SOL     OW 2669   1.759   3.609   3.016
  886SOL    HW1 2670   1.820   3.639   2.943
  886SOL    HW2 2671   1.721   3.520   2.994
  887SOL     OW 2672   1.252   3.593   2.990
  887SOL    HW1 2673   1.336   3.598   2.936
  887SOL    HW2 2674   1.229   3.497   3.008
  888SOL     OW 2675   0.083   3.120   2.884
  888SOL    HW1 2676   0.078   3.119   2.984
  888SOL    HW2 2677   0.000   3.079   2.846
  889SOL     OW 2678   0.688   3.524   3.578
  889SOL    HW1 2679   0.632   3.605   3.587
  889SOL    HW2 2680   0.740   3.528   3.492
  890SOL     OW 2681   1.726   1.997   2.385
  890SOL    HW1 2682   1.799   1.980   2.318
  890SOL    HW2 2683   1.695   1.910   2.423
  891SOL     OW 2684   1.388   3.435   2.339
  891SOL    HW1 2685   1.455   3.447   2.265
  891SOL    HW2 2686   1.348   3.524   2.362
  892SOL     OW 2687   0.130   3.656   3.713
  892SOL    HW1 2688   0.089   3.582   3.766
  892SOL    HW2 2689   0.194   3.707   3.771
  893SOL     OW 2690   1.280   2.789   2.534
  893SOL    HW1 2691   1.340   2.708   2.536
  893SOL    HW2 2692   1.320   2.858   2.474
  894SOL     OW 2693   0.830   3.135   3.284
  894SOL    HW1 2694   0.825   3.168   3.379
  894SOL    HW2 2695   0.744   3.154   3.238
  895SOL     OW 2696   0.672   3.478   2.016
  895SOL    HW1 2697   0.681   3.488   1.917
  895SOL    HW2 2698   0.632   3.389   2.037
  896SOL     OW 2699   1.650   3.582   3.256
  896SOL    HW1 2700   1.703   3.592   3.172
  896SOL    HW2 2701   1.623   3.672   3.290
  897SOL     OW 2702   1.841   2.037   2.825
  897SOL    HW1 2703   1.880   1.952   2.789
  897SOL    HW2 2704   1.743   2.039   2.806
  898SOL     OW 2705   0.263   2.188   2.582
  898SOL    HW1 2706   0.184   2.239   2.548
  898SOL    HW2 2707   0.254   2.173   2.680
  899SOL     OW 2708   1.194   3.474   1.893
  899SOL    HW1 2709   1.200   3.381   1.930
  899SOL    HW2 2710   1.135   3.474   1.813
  900SOL     OW 2711   0.822   2.864   3.234
  900SOL    HW1 2712   0.862   2.863   3.142
  900SOL    HW2 2713   0.832   2.956   3.274
  901SOL     OW 2714   0.916   2.772   2.153
  901SOL    HW1 2715   0.979   2.810   2.085
  901SOL    HW2 2716   0.956   2.689   2.192
  902SOL     OW 2717   1.504   3.469   1.906
  902SOL    HW1 2718   1.412   3.506   1.913
  902SOL    HW2 2719   1.542   3.489   1.816
  903SOL     OW 2720   0.372   3.150   3.352
  903SOL    HW1 2721   0.359   3.243   3.318
  903SOL    HW2 2722   0.288   3.098   3.339
  904SOL     OW 2723   1.614   3.154   3.151
  904SOL    HW1 2724   1.674   3.157   3.231
  904SOL    HW2 2725   1.539   3.218   3.164
  905SOL     OW 2726   1.039   2.960   2.558
  905SOL    HW1 2727   0.969   2.913   2.612
  905SOL    HW2 2728   1.098   2.892   2.515
  906SOL     OW 2729   1.014   2.098   2.833
  906SOL    HW1 2730   1.006   2.062   2.740
  906SOL    HW2 2731   1.012   2.022   2.898
  907SOL     OW 2732   0.590   3.349   2.353
  907SOL    HW1 2733   0.632   3.291   2.283
  907SOL    HW2 2734   0.546   3.428   2.309
  908SOL     OW 2735   1.709   2.247   3.243
  908SOL    HW1 2736   1.782   2.316   3.247
  908SOL    HW2 2737   1.737   2.172   3.184
  909SOL     OW 2738   0.255   3.210   2.152
  909SOL    HW1 2739   0.159   3.211   2.125
  909SOL    HW2 2740   0.267   3.263   2.236
  910SOL     OW 2741   0.105   2.875   3.588
  910SOL    HW1 2742   0.028   2.842   3.642
  910SOL    HW2 2743   0.190   2.845   3.630
  911SOL     OW 2744   0.672   2.065   3.351
  911SOL    HW1 2745   0.762   2.049   3.311
  911SOL    HW2 2746   0.680   2.070   3.450
  912SOL     OW 2747   0.075   2.207   1.895
  912SOL    HW1 2748  -0.017   2.179   1.866
  912SOL    HW2 2749   0.106   2.284   1.839
  913SOL     OW 2750   1.440   2.718   3.260
  913SOL    HW1 2751   1.383   2.770   3.197
  913SOL    HW2 2752   1.536   2.730   3.236
  914SOL     OW 2753   0.072   2.028   2.180
  914SOL    HW1 2754   0.055   2.111   2.126
  914SOL    HW2 2755   0.162   1.991   2.158
  915SOL     OW 2756   1.183   3.197   1.981
  915SOL    HW1 2757   1.084   3.186   1.983
  915SOL    HW2 2758   1.217   3.212   2.074
  916SOL     OW 2759   0.613   2.704   3.293
  916SOL    HW1 2760   0.669   2.785   3.276
  916SOL    HW2 2761   0.672   2.624   3.296
  917SOL     OW 2762   1.493   3.629   2.821
  917SOL    HW1 2763   1.526   3.693   2.752
  917SOL    HW2 2764   1.559   3.623   2.896
  918SOL     OW 2765   0.716   2.427   3.570
  918SOL    HW1 2766   0.735   2.492   3.644
  918SOL    HW2 2767   0.776   2.347   3.579
  919SOL     OW 2768   1.450   3.082   3.495
  919SOL    HW1 2769   1.441   3.072   3.594
  919SOL    HW2 2770   1.546   3.075   3.469
  920SOL     OW 2771   0.390   3.603   3.422
  920SOL    HW1 2772   0.299   3.644   3.420
  920SOL    HW2 2773   0.383   3.509   3.454
  921SOL     OW 2774   1.674   2.745   3.116
  921SOL    HW1 2775   1.647   2.656   3.079
  921SOL    HW2 2776   1.675   2.813   3.043
  922SOL     OW 2777   1.225   2.187   2.311
  922SOL    HW1 2778   1.290   2.113   2.300
  922SOL    HW2 2779   1.245   2.237   2.395
  923SOL     OW 2780   0.594   2.607   2.514
  923SOL    HW1 2781   0.644   2.692   2.495
  923SOL    HW2 2782   0.506   2.609   2.466
  924SOL     OW 2783   1.777   2.204   3.504
  924SOL    HW1 2784   1.760   2.235   3.410
  924SOL    HW2 2785   1.693   2.167   3.542
  925SOL     OW 2786   1.730   2.796   3.379
  925SOL    HW1 2787   1.768   2.887   3.394
  925SOL    HW2 2788   1.722   2.779   3.280
  926SOL     OW 2789   0.859   3.236   1.878
  926SOL    HW1 2790   0.813   3.251   1.966
  926SOL    HW2 2791   0.903   3.321   1.848
  927SOL     OW 2792   0.661   3.652   2.815
  927SOL    HW1 2793   0.615   3.740   2.802
  927SOL    HW2 2794   0.760   3.664   2.808
  928SOL     OW 2795   0.859   2.818   2.723
  928SOL    HW1 2796   0.913   2.749   2.771
  928SOL    HW2 2797   0.827   2.887   2.789
  929SOL     OW 2798   1.083   2.846   1.949
  929SOL    HW1 2799   1.060   2.899   1.867
  929SOL    HW2 2800   1.164   2.790   1.930
  930SOL     OW 2801   1.861   3.431   2.713
  930SOL    HW1 2802   1.790   3.419   2.643
  930SOL    HW2 2803   1.862   3.352   2.773
  931SOL     OW 2804   0.221   3.176   3.706
  931SOL    HW1 2805   0.156   3.103   3.685
  931SOL    HW2 2806   0.225   3.190   3.804
  932SOL     OW 2807   0.079   3.102   2.515
  932SOL    HW1 2808   0.078   3.055   2.603
  932SOL    HW2 2809   0.161   3.074   2.464
  933SOL     OW 2810   0.672   3.253   3.486
  933SOL    HW1 2811   0.594   3.203   3.524
  933SOL    HW2 2812   0.669   3.348   3.517
  934SOL     OW 2813   1.824   2.054   3.089
  934SOL    HW1 2814   1.820   1.964   3.133
  934SOL    HW2 2815   1.827   2.043   2.990
  935SOL     OW 2816   0.428   2.286   2.382
  935SOL    HW1 2817   0.458   2.214   2.320
  935SOL    HW2 2818   0.389   2.246   2.465
  936SOL     OW 2819   1.705   3.349   2.966
  936SOL    HW1 2820   1.612   3.324   2.939
  936SOL    HW2 2821   1.731   3.299   3.048
  937SOL     OW 2822   0.317   2.409   3.142
  937SOL    HW1 2823   0.355   2.350   3.214
  937SOL    HW2 2824   0.357   2.383   3.054
  938SOL     OW 2825   0.812   3.448   2.549
  938SOL    HW1 2826   0.844   3.458   2.455
  938SOL    HW2 2827   0.733   3.386   2.551
  939SOL     OW 2828   1.424   2.076   2.974
  939SOL    HW1 2829   1.476   2.011   3.029
  939SOL    HW2 2830   1.375   2.139   3.035
  940SOL     OW 2831   1.001   1.896   3.016
  940SOL    HW1 2832   0.938   1.824   2.985
  940SOL    HW2 2833   1.094   1.860   3.016
  941SOL     OW 2834   0.770   3.192   2.163
  941SOL    HW1 2835   0.724   3.105   2.180
  941SOL    HW2 2836   0.861   3.189   2.204
  942SOL     OW 2837   0.618   3.429   3.146
  942SOL    HW1 2838   0.613   3.511   3.203
  942SOL    HW2 2839   0.707   3.426   3.101
  943SOL     OW 2840   1.352   1.914   2.030
  943SOL    HW1 2841   1.387   1.873   1.946
  943SOL    HW2 2842   1.262   1.876   2.050
  944SOL     OW 2843   1.300   2.315   2.553
  944SOL    HW1 2844   1.241   2.395   2.557
  944SOL    HW2 2845   1.315   2.280   2.646
  945SOL     OW 2846   1.593   2.083   2.744
  945SOL    HW1 2847   1.509   2.082   2.798
  945SOL    HW2 2848   1.595   2.166   2.688
  946SOL     OW 2849   0.039   2.939   2.162
  946SOL    HW1 2850   0.138   2.928   2.153
  946SOL    HW2 2851  -0.001   2.853   2.194
  947SOL     OW 2852   0.875   3.508   2.199
  947SOL    HW1 2853   0.798   3.473   2.145
  947SOL    HW2 2854   0.843   3.579   2.261
  948SOL     OW 2855   0.230   2.490   3.837
  948SOL    HW1 2856   0.137   2.488   3.874
  948SOL    HW2 2857   0.231   2.451   3.745
  949SOL     OW 2858   0.225   2.137   4.720
  949SOL    HW1 2859   0.260   2.120   4.812
  949SOL    HW2 2860   0.137   2.092   4.708
  950SOL     OW 2861   0.019   2.230   4.371
  950SOL    HW1 2862  -0.063   2.273   4.410
  950SOL    HW2 2863  -0.009   2.157   4.308
  951SOL     OW 2864   1.555   3.373   4.427
  951SOL    HW1 2865   1.498   3.357   4.508
  951SOL    HW2 2866   1.496   3.383   4.347
  952SOL     OW 2867   1.135   2.565   4.441
  952SOL    HW1 2868   1.192   2.643   4.416
  952SOL    HW2 2869   1.075   2.591   4.517
  953SOL     OW 2870   1.755   2.469   3.955
  953SOL    HW1 2871   1.743   2.456   3.856
  953SOL    HW2 2872   1.725   2.388   4.004
  954SOL     OW 2873   0.685   2.874   4.389
  954SOL    HW1 2874   0.754   2.858   4.459
  954SOL    HW2 2875   0.612   2.931   4.427
  955SOL     OW 2876   1.603   2.309   4.461
  955SOL    HW1 2877   1.529   2.355   4.411
  955SOL    HW2 2878   1.654   2.377   4.514
  956SOL     OW 2879   0.231   3.575   4.207
  956SOL    HW1 2880   0.265   3.652   4.261
  956SOL    HW2 2881   0.275   3.575   4.117
  957SOL     OW 2882   0.230   3.296   4.262
  957SOL    HW1 2883   0.204   3.392   4.262
  957SOL    HW2 2884   0.159   3.242   4.307
  958SOL     OW 2885   0.240   2.953   4.610
  958SOL    HW1 2886   0.254   2.869   4.662
  958SOL    HW2 2887   0.185   3.017   4.665
  959SOL     OW 2888   0.606   2.826   3.847
  959SOL    HW1 2889   0.613   2.910   3.793
  959SOL    HW2 2890   0.652   2.839   3.935
  960SOL     OW 2891   0.122   2.505   4.287
  960SOL    HW1 2892   0.077   2.417   4.304
  960SOL    HW2 2893   0.121   2.559   4.371
  961SOL     OW 2894   1.842   3.629   4.083
  961SOL    HW1 2895   1.896   3.600   4.163
  961SOL    HW2 2896   1.872   3.719   4.054
  962SOL     OW 2897   0.027   3.458   3.841
  962SOL    HW1 2898   0.008   3.362   3.862
  962SOL    HW2 2899  -0.006   3.516   3.916
  963SOL     OW 2900   1.689   2.784   4.336
  963SOL    HW1 2901   1.784   2.755   4.344
  963SOL    HW2 2902   1.681   2.849   4.261
  964SOL     OW 2903   1.641   2.970   4.156
  964SOL    HW1 2904   1.727   2.972   4.104
  964SOL    HW2 2905   1.655   3.017   4.244
  965SOL     OW 2906   0.613   3.227   4.450
  965SOL    HW1 2907   0.564   3.140   4.459
  965SOL    HW2 2908   0.590   3.270   4.363
  966SOL     OW 2909   0.809   1.866   4.226
  966SOL    HW1 2910   0.849   1.957   4.217
  966SOL    HW2 2911   0.709   1.874   4.232
  967SOL     OW 2912   1.525   2.861   3.914
  967SOL    HW1 2913   1.462   2.785   3.927
  967SOL    HW2 2914   1.573   2.879   4.000
  968SOL     OW 2915   1.667   3.576   4.296
  968SOL    HW1 2916   1.626   3.553   4.208
  968SOL    HW2 2917   1.649   3.502   4.361
  969SOL     OW 2918   0.598   2.591   3.994
  969SOL    HW1 2919   0.622   2.660   3.926
  969SOL    HW2 2920   0.520   2.624   4.048
  970SOL     OW 2921   1.281   2.207   4.668
  970SOL    HW1 2922   1.195   2.157   4.655
  970SOL    HW2 2923   1.343   2.153   4.724
  971SOL     OW 2924   1.576   3.524   4.031
  971SOL    HW1 2925   1.665   3.570   4.034
  971SOL    HW2 2926   1.555   3.500   3.936
  972SOL     OW 2927   1.041   2.563   4.153
  972SOL    HW1 2928   1.067   2.559   4.249
  972SOL    HW2 2929   0.956   2.512   4.139
  973SOL     OW 2930   0.076   2.673   4.513
  973SOL    HW1 2931   0.175   2.661   4.522
  973SOL    HW2 2932   0.052   2.768   4.534
  974SOL     OW 2933   0.865   2.210   3.919
  974SOL    HW1 2934   0.924   2.273   3.870
  974SOL    HW2 2935   0.884   2.116   3.890
  975SOL     OW 2936   1.362   3.006   4.269
  975SOL    HW1 2937   1.445   2.977   4.221
  975SOL    HW2 2938   1.313   3.073   4.213
  976SOL     OW 2939   1.008   3.318   4.201
  976SOL    HW1 2940   0.962   3.390   4.149
  976SOL    HW2 2941   1.004   3.338   4.299
  977SOL     OW 2942   0.351   3.663   4.577
  977SOL    HW1 2943   0.401   3.577   4.583
  977SOL    HW2 2944   0.416   3.740   4.574
  978SOL     OW 2945   1.795   2.928   4.597
  978SOL    HW1 2946   1.733   2.913   4.521
  978SOL    HW2 2947   1.743   2.939   4.682
  979SOL     OW 2948   0.321   2.805   3.966
  979SOL    HW1 2949   0.403   2.844   3.924
  979SOL    HW2 2950   0.294   2.723   3.917
  980SOL     OW 2951   1.458   2.597   4.452
  980SOL    HW1 2952   1.453   2.532   4.527
  980SOL    HW2 2953   1.538   2.656   4.465
  981SOL     OW 2954   1.111   3.638   3.961
  981SOL    HW1 2955   1.051   3.576   4.011
  981SOL    HW2 2956   1.142   3.594   3.876
  982SOL     OW 2957   1.632   3.239   3.805
  982SOL    HW1 2958   1.600   3.333   3.795
  982SOL    HW2 2959   1.556   3.176   3.793
  983SOL     OW 2960   0.464   3.605   4.047
  983SOL    HW1 2961   0.497   3.644   4.133
  983SOL    HW2 2962   0.540   3.598   3.982
  984SOL     OW 2963   1.400   1.969   4.150
  984SOL    HW1 2964   1.376   1.932   4.060
  984SOL    HW2 2965   1.499   1.985   4.154
  985SOL     OW 2966   0.940   3.560   4.628
  985SOL    HW1 2967   1.020   3.503   4.649
  985SOL    HW2 2968   0.891   3.520   4.551
  986SOL     OW 2969   0.382   2.562   4.204
  986SOL    HW1 2970   0.427   2.472   4.201
  986SOL    HW2 2971   0.288   2.551   4.237
  987SOL     OW 2972   0.614   1.984   3.841
  987SOL    HW1 2973   0.712   1.962   3.848
  987SOL    HW2 2974   0.583   1.967   3.748
  988SOL     OW 2975   0.539   1.926   4.236
  988SOL    HW1 2976   0.458   1.927   4.294
  988SOL    HW2 2977   0.542   2.009   4.181
  989SOL     OW 2978   1.434   3.050   3.765
  989SOL    HW1 2979   1.466   2.974   3.822
  989SOL    HW2 2980   1.342   3.077   3.795
  990SOL     OW 2981   0.297   1.897   3.895
  990SOL    HW1 2982   0.346   1.981   3.874
  990SOL    HW2 2983   0.359   1.832   3.940
  991SOL     OW 2984   0.935   2.098   4.204
  991SOL    HW1 2985   0.887   2.139   4.126
  991SOL    HW2 2986   1.034   2.096   4.185
  992SOL     OW 2987   0.459   3.014   4.465
  992SOL    HW1 2988   0.388   2.987   4.530
  992SOL    HW2 2989   0.433   2.986   4.372
  993SOL     OW 2990   1.271   3.659   4.315
  993SOL    HW1 2991   1.315   3.723   4.251
  993SOL    HW2 2992   1.221   3.711   4.385
  994SOL     OW 2993   1.032   2.411   3.740
  994SOL    HW1 2994   0.991   2.493   3.701
  994SOL    HW2 2995   1.096   2.437   3.813
  995SOL     OW 2996   0.866   2.316   4.366
  995SOL    HW1 2997   0.834   2.388   4.304
  995SOL    HW2 2998   0.890   2.235   4.313
  996SOL     OW 2999   1.017   1.901   4.477
  996SOL    HW1 3000   0.945   1.906   4.408
  996SOL    HW2 3001   0.993   1.832   4.546
  997SOL     OW 3002   1.857   2.695   4.101
  997SOL    HW1 3003   1.899   2.631   4.165
  997SOL    HW2 3004   1.819   2.644   4.023
  998SOL     OW 3005   0.488   3.247   3.898
  998SOL    HW1 3006   0.401   3.232   3.945
  998SOL    HW2 3007   0.471   3.273   3.803
  999SOL     OW 3008   1.664   3.142   4.381
  999SOL    HW1 3009   1.763   3.150   4.395
  999SOL    HW2 3010   1.619   3.226   4.412
 1000SOL     OW 3011   1.390   2.437   3.802
 1000SOL    HW1 3012   1.336   2.416   3.883
 1000SOL    HW2 3013   1.481   2.396   3.811
 1001SOL     OW 3014   0.527   2.118   4.052
 1001SOL    HW1 3015   0.554   2.059   3.977
 1001SOL    HW2 3016   0.527   2.213   4.021
 1002SOL     OW 3017   0.705   2.912   4.092
 1002SOL    HW1 3018   0.691   2.919   4.191
 1002SOL    HW2 3019   0.789   2.861   4.074
 1003SOL     OW 3020   0.367   2.962   4.225
 1003SOL    HW1 3021   0.360   3.045   4.169
 1003SOL    HW2 3022   0.371   2.882   4.165
 1004SOL     OW 3023   1.252   3.210   4.112
 1004SOL    HW1 3024   1.302   3.287   4.152
 1004SOL    HW2 3025   1.157   3.212   4.144
 1005SOL     OW 3026   1.582   2.501   4.196
 1005SOL    HW1 3027   1.551   2.562   4.269
 1005SOL    HW2 3028   1.632   2.553   4.127
 1006SOL     OW 3029   1.209   2.387   3.999
 1006SOL    HW1 3030   1.222   2.303   4.053
 1006SOL    HW2 3031   1.180   2.461   4.059
 1007SOL     OW 3032   0.307   1.925   4.342
 1007SOL    HW1 3033   0.296   2.019   4.375
 1007SOL    HW2 3034   0.302   1.862   4.419
 1008SOL     OW 3035   1.622   2.229   4.098
 1008SOL    HW1 3036   1.624   2.153   4.162
 1008SOL    HW2 3037   1.574   2.306   4.138
 1009SOL     OW 3038   1.540   2.136   3.849
 1009SOL    HW1 3039   1.479   2.061   3.872
 1009SOL    HW2 3040   1.562   2.188   3.932
 1010SOL     OW 3041   1.303   2.700   3.766
 1010SOL    HW1 3042   1.337   2.607   3.781
 1010SOL    HW2 3043   1.321   2.727   3.671
 1011SOL     OW 3044   0.008   3.188   3.924
 1011SOL    HW1 3045  -0.085   3.209   3.893
 1011SOL    HW2 3046   0.018   3.089   3.937
 1012SOL     OW 3047   0.815   2.434   4.049
 1012SOL    HW1 3048   0.822   2.345   4.003
 1012SOL    HW2 3049   0.721   2.468   4.041
 1013SOL     OW 3050   0.473   2.362   3.915
 1013SOL    HW1 3051   0.534   2.442   3.919
 1013SOL    HW2 3052   0.378   2.393   3.922
 1014SOL     OW 3053   1.302   2.717   4.033
 1014SOL    HW1 3054   1.216   2.686   4.075
 1014SOL    HW2 3055   1.298   2.703   3.934
 1015SOL     OW 3056   1.726   1.997   4.247
 1015SOL    HW1 3057   1.799   1.980   4.180
 1015SOL    HW2 3058   1.695   1.910   4.285
 1016SOL     OW 3059   1.388   3.435   4.201
 1016SOL    HW1 3060   1.455   3.447   4.127
 1016SOL    HW2 3061   1.348   3.524   4.224
 1017SOL     OW 3062   1.280   2.789   4.396
 1017SOL    HW1 3063   1.340   2.708   4.398
 1017SOL    HW2 3064   1.320   2.858   4.336
 1018SOL     OW 3065   0.672   3.478   3.878
 1018SOL    HW1 3066   0.681   3.488   3.779
 1018SOL    HW2 3067   0.632   3.389   3.899
 1019SOL     OW 3068   1.841   2.037   4.687
 1019SOL    HW1 3069   1.880   1.952   4.651
 1019SOL    HW2 3070   1.743   2.039   4.668
 1020SOL     OW 3071   0.263   2.188   4.444
 1020SOL    HW1 3072   0.184   2.239   4.410
 1020SOL    HW2 3073   0.254   2.173   4.542
 1021SOL     OW 3074   1.194   3.474   3.755
 1021SOL    HW1 3075   1.200   3.381   3.792
 1021SOL    HW2 3076   1.135   3.474   3.675
 1022SOL     OW 3077   0.916   2.772   4.015
 1022SOL    HW1 3078   0.979   2.810   3.947
 1022SOL    HW2 3079   0.956   2.689   4.054
 1023SOL     OW 3080   1.504   3.469   3.768
 1023SOL    HW1 3081   1.412   3.506   3.775
 1023SOL    HW2 3082   1.542   3.489   3.678
 1024SOL     OW 3083   1.039   2.960   4.420
 1024SOL    HW1 3084   0.969   2.913   4.474
 1024SOL    HW2 3085   1.098   2.892   4.377
 1025SOL     OW 3086   0.590   3.349   4.215
 1025SOL    HW1 3087   0.632   3.291   4.145
 1025SOL    HW2 3088   0.546   3.428   4.171
 1026SOL     OW 3089   0.255   3.210   4.014
 1026SOL    HW1 3090   0.159   3.211   3.987
 1026SOL    HW2 3091   0.267   3.263   4.098
 1027SOL     OW 3092   0.075   2.207   3.757
 1027SOL    HW1 3093  -0.017   2.179   3.728
 1027SOL    HW2 3094   0.106   2.284   3.701
 1028SOL     OW 3095   0.072   2.028   4.042
 1028SOL    HW1 3096   0.055   2.111   3.988
 1028SOL    HW2 3097   0.162   1.991   4.020
 1029SOL     OW 3098   1.183   3.197   3.843
 1029SOL    HW1 3099   1.084   3.186   3.845
 1029SOL    HW2 3100   1.217   3.212   3.936
 1030SOL     OW 3101   1.225   2.187   4.173
 1030SOL    HW1 3102   1.290   2.113   4.162
 1030SOL    HW2 3103   1.245   2.237   4.257
 1031SOL     OW 3104   0.594   2.607   4.376
 1031SOL    HW1 3105   0.644   2.692   4.357
 1031SOL    HW2 3106   0.506   2.609   4.328
 1032SOL     OW 3107   0.859   3.236   3.740
 1032SOL    HW1 3108   0.813   3.251   3.828
 1032SOL    HW2 3109   0.903   3.321   3.710
 1033SOL     OW 3110   0.661   3.652   4.677
 1033SOL    HW1 3111   0.615   3.740   4.664
 1033SOL    HW2 3112   0.760   3.664   4.670
 1034SOL     OW 3113   0.859   2.818   4.585
 1034SOL    HW1 3114   0.913   2.749   4.633
 1034SOL    HW2 3115   0.827   2.887   4.651
 1035SOL     OW 3116   1.083   2.846   3.811
 1035SOL    HW1 3117   1.060   2.899   3.729
 1035SOL    HW2 3118   1.164   2.790   3.792
 1036SOL     OW 3119   0.079   3.102   4.377
 1036SOL    HW1 3120   0.078   3.055   4.465
 1036SOL    HW2 3121   0.161   3.074   4.326
 1037SOL     OW 3122   0.428   2.286   4.244
 1037SOL    HW1 3123   0.458   2.214   4.182
 1037SOL    HW2 3124   0.389   2.246   4.327
 1038SOL     OW 3125   1.705   3.349   4.828
 1038SOL    HW1 3126   1.612   3.324   4.801
 1038SOL    HW2 3127   1.731   3.299   4.910
 1039SOL     OW 3128   0.812   3.448   4.411
 1039SOL    HW1 3129   0.844   3.458   4.317
 1039SOL    HW2 3130   0.733   3.386   4.413
 1040SOL     OW 3131   0.770   3.192   4.025
 1040SOL    HW1 3132   0.724   3.105   4.042
 1040SOL    HW2 3133   0.861   3.189   4.066
 1041SOL     OW 3134   1.352   1.914   3.892
 1041SOL    HW1 3135   1.387   1.873   3.808
 1041SOL    HW2 3136   1.262   1.876   3.912
 1042SOL     OW 3137   1.300   2.315   4.415
 1042SOL    HW1 3138   1.241   2.395   4.419
 1042SOL    HW2 3139   1.315   2.280   4.508
 1043SOL     OW 3140   0.039   2.939   4.024
 1043SOL    HW1 3141   0.138   2.928   4.015
 1043SOL    HW2 3142  -0.001   2.853   4.056
 1044SOL     OW 3143   0.875   3.508   4.061
 1044SOL    HW1 3144   0.798   3.473   4.007
 1044SOL    HW2 3145   0.843   3.579   4.123
 1045SOL     OW 3146   0.230   4.352   0.113
 1045SOL    HW1 3147   0.137   4.350   0.150
 1045SOL    HW2 3148   0.231   4.313   0.021
 1046SOL     OW 3149   0.225   3.999   0.996
 1046SOL    HW1 3150   0.260   3.982   1.088
 1046SOL    HW2 3151   0.137   3.954   0.984
 1047SOL     OW 3152   0.019   4.092   0.647
 1047SOL    HW1 3153  -0.063   4.135   0.686
 1047SOL    HW2 3154  -0.009   4.019   0.584
 1048SOL     OW 3155   1.755   4.331   0.231
 1048SOL    HW1 3156   1.743   4.318   0.132
 1048SOL    HW2 3157   1.725   4.250   0.280
 1049SOL     OW 3158   0.850   4.522   1.823
 1049SOL    HW1 3159   0.846   4.598   1.888
 1049SOL    HW2 3160   0.872   4.558   1.732
 1050SOL     OW 3161   0.685   4.736   0.665
 1050SOL    HW1 3162   0.754   4.720   0.735
 1050SOL    HW2 3163   0.612   4.793   0.703
 1051SOL     OW 3164   0.438   4.116   1.499
 1051SOL    HW1 3165   0.520   4.060   1.508
 1051SOL    HW2 3166   0.357   4.058   1.503
 1052SOL     OW 3167   1.603   4.171   0.737
 1052SOL    HW1 3168   1.529   4.217   0.687
 1052SOL    HW2 3169   1.654   4.239   0.790
 1053SOL     OW 3170   1.594   3.838   1.480
 1053SOL    HW1 3171   1.576   3.905   1.408
 1053SOL    HW2 3172   1.591   3.884   1.569
 1054SOL     OW 3173   0.122   4.367   0.563
 1054SOL    HW1 3174   0.077   4.279   0.580
 1054SOL    HW2 3175   0.121   4.421   0.647
 1055SOL     OW 3176   0.113   4.461   1.597
 1055SOL    HW1 3177   0.201   4.448   1.642
 1055SOL    HW2 3178   0.100   4.558   1.575
 1056SOL     OW 3179   0.809   3.728   0.502
 1056SOL    HW1 3180   0.849   3.819   0.493
 1056SOL    HW2 3181   0.709   3.736   0.508
 1057SOL     OW 3182   0.317   3.975   1.801
 1057SOL    HW1 3183   0.388   4.046   1.807
 1057SOL    HW2 3184   0.229   4.014   1.829
 1058SOL     OW 3185   0.598   4.453   0.270
 1058SOL    HW1 3186   0.622   4.522   0.202
 1058SOL    HW2 3187   0.520   4.486   0.324
 1059SOL     OW 3188   1.281   4.069   0.944
 1059SOL    HW1 3189   1.195   4.019   0.931
 1059SOL    HW2 3190   1.343   4.015   1.000
 1060SOL     OW 3191   0.807   4.329   1.465
 1060SOL    HW1 3192   0.760   4.326   1.554
 1060SOL    HW2 3193   0.756   4.274   1.399
 1061SOL     OW 3194   1.394   4.193   1.674
 1061SOL    HW1 3195   1.374   4.236   1.762
 1061SOL    HW2 3196   1.472   4.131   1.683
 1062SOL     OW 3197   0.991   4.134   1.242
 1062SOL    HW1 3198   0.914   4.168   1.296
 1062SOL    HW2 3199   0.957   4.083   1.163
 1063SOL     OW 3200   1.041   4.425   0.429
 1063SOL    HW1 3201   1.067   4.421   0.525
 1063SOL    HW2 3202   0.956   4.374   0.415
 1064SOL     OW 3203   0.076   4.535   0.789
 1064SOL    HW1 3204   0.175   4.523   0.798
 1064SOL    HW2 3205   0.052   4.630   0.810
 1065SOL     OW 3206   0.865   4.072   0.195
 1065SOL    HW1 3207   0.924   4.135   0.146
 1065SOL    HW2 3208   0.884   3.978   0.166
 1066SOL     OW 3209   1.719   4.309   1.831
 1066SOL    HW1 3210   1.693   4.398   1.795
 1066SOL    HW2 3211   1.717   4.241   1.758
 1067SOL     OW 3212   0.550   3.920   0.885
 1067SOL    HW1 3213   0.545   3.915   0.985
 1067SOL    HW2 3214   0.552   4.016   0.856
 1068SOL     OW 3215   1.458   4.459   0.728
 1068SOL    HW1 3216   1.453   4.394   0.803
 1068SOL    HW2 3217   1.538   4.518   0.741
 1069SOL     OW 3218   0.202   4.009   1.498
 1069SOL    HW1 3219   0.122   4.069   1.485
 1069SOL    HW2 3220   0.192   3.960   1.584
 1070SOL     OW 3221   1.400   3.831   0.426
 1070SOL    HW1 3222   1.376   3.794   0.336
 1070SOL    HW2 3223   1.499   3.847   0.430
 1071SOL     OW 3224   0.382   4.424   0.480
 1071SOL    HW1 3225   0.427   4.334   0.477
 1071SOL    HW2 3226   0.288   4.413   0.513
 1072SOL     OW 3227   1.547   3.946   1.729
 1072SOL    HW1 3228   1.542   3.983   1.821
 1072SOL    HW2 3229   1.475   3.877   1.717
 1073SOL     OW 3230   0.781   3.988   1.749
 1073SOL    HW1 3231   0.848   3.927   1.792
 1073SOL    HW2 3232   0.708   4.007   1.814
 1074SOL     OW 3233   1.351   4.314   1.433
 1074SOL    HW1 3234   1.379   4.271   1.518
 1074SOL    HW2 3235   1.376   4.410   1.434
 1075SOL     OW 3236   0.922   4.227   0.899
 1075SOL    HW1 3237   0.897   4.218   0.803
 1075SOL    HW2 3238   0.970   4.145   0.930
 1076SOL     OW 3239   0.539   3.788   0.512
 1076SOL    HW1 3240   0.458   3.789   0.570
 1076SOL    HW2 3241   0.542   3.871   0.457
 1077SOL     OW 3242   0.297   3.759   0.171
 1077SOL    HW1 3243   0.346   3.843   0.150
 1077SOL    HW2 3244   0.359   3.694   0.216
 1078SOL     OW 3245   0.935   3.960   0.480
 1078SOL    HW1 3246   0.887   4.001   0.402
 1078SOL    HW2 3247   1.034   3.958   0.461
 1079SOL     OW 3248   1.076   4.407   1.464
 1079SOL    HW1 3249   0.996   4.346   1.467
 1079SOL    HW2 3250   1.157   4.354   1.440
 1080SOL     OW 3251   1.032   4.273   0.016
 1080SOL    HW1 3252   0.991   4.355  -0.023
 1080SOL    HW2 3253   1.096   4.299   0.089
 1081SOL     OW 3254   0.078   4.280   1.386
 1081SOL    HW1 3255   0.170   4.279   1.345
 1081SOL    HW2 3256   0.072   4.354   1.453
 1082SOL     OW 3257   0.561   3.946   1.147
 1082SOL    HW1 3258   0.599   3.862   1.184
 1082SOL    HW2 3259   0.473   3.965   1.191
 1083SOL     OW 3260   0.866   4.178   0.642
 1083SOL    HW1 3261   0.834   4.250   0.580
 1083SOL    HW2 3262   0.890   4.097   0.589
 1084SOL     OW 3263   1.017   3.763   0.753
 1084SOL    HW1 3264   0.945   3.768   0.684
 1084SOL    HW2 3265   0.993   3.694   0.822
 1085SOL     OW 3266   1.466   4.314   0.992
 1085SOL    HW1 3267   1.436   4.219   0.999
 1085SOL    HW2 3268   1.539   4.330   1.058
 1086SOL     OW 3269   1.857   4.557   0.377
 1086SOL    HW1 3270   1.899   4.493   0.441
 1086SOL    HW2 3271   1.819   4.506   0.299
 1087SOL     OW 3272   1.390   4.299   0.078
 1087SOL    HW1 3273   1.336   4.278   0.159
 1087SOL    HW2 3274   1.481   4.258   0.087
 1088SOL     OW 3275   0.527   3.980   0.328
 1088SOL    HW1 3276   0.554   3.921   0.253
 1088SOL    HW2 3277   0.527   4.075   0.297
 1089SOL     OW 3278   0.915   3.813   1.402
 1089SOL    HW1 3279   0.940   3.793   1.307
 1089SOL    HW2 3280   0.987   3.869   1.444
 1090SOL     OW 3281   0.705   4.774   0.368
 1090SOL    HW1 3282   0.691   4.781   0.467
 1090SOL    HW2 3283   0.789   4.723   0.350
 1091SOL     OW 3284   0.410   4.537   1.251
 1091SOL    HW1 3285   0.496   4.549   1.301
 1091SOL    HW2 3286   0.368   4.450   1.278
 1092SOL     OW 3287   1.274   4.110   1.262
 1092SOL    HW1 3288   1.295   4.184   1.326
 1092SOL    HW2 3289   1.185   4.127   1.219
 1093SOL     OW 3290   0.566   4.261   0.865
 1093SOL    HW1 3291   0.578   4.327   0.791
 1093SOL    HW2 3292   0.612   4.295   0.948
 1094SOL     OW 3293   1.582   4.363   0.472
 1094SOL    HW1 3294   1.551   4.424   0.545
 1094SOL    HW2 3295   1.632   4.415   0.403
 1095SOL     OW 3296   1.587   4.503   1.670
 1095SOL    HW1 3297   1.495   4.541   1.665
 1095SOL    HW2 3298   1.647   4.550   1.605
 1096SOL     OW 3299   1.013   3.829   1.770
 1096SOL    HW1 3300   1.019   3.914   1.718
 1096SOL    HW2 3301   1.045   3.753   1.713
 1097SOL     OW 3302   0.504   3.774   1.740
 1097SOL    HW1 3303   0.462   3.717   1.670
 1097SOL    HW2 3304   0.438   3.843   1.772
 1098SOL     OW 3305   1.360   4.586   1.045
 1098SOL    HW1 3306   1.285   4.586   0.979
 1098SOL    HW2 3307   1.397   4.494   1.054
 1099SOL     OW 3308   1.209   4.249   0.275
 1099SOL    HW1 3309   1.222   4.165   0.329
 1099SOL    HW2 3310   1.180   4.323   0.335
 1100SOL     OW 3311   0.307   3.937   1.231
 1100SOL    HW1 3312   0.284   3.974   1.321
 1100SOL    HW2 3313   0.277   3.842   1.225
 1101SOL     OW 3314   0.732   4.358   1.064
 1101SOL    HW1 3315   0.791   4.332   0.988
 1101SOL    HW2 3316   0.704   4.454   1.053
 1102SOL     OW 3317   1.728   4.659   1.854
 1102SOL    HW1 3318   1.682   4.652   1.765
 1102SOL    HW2 3319   1.666   4.703   1.920
 1103SOL     OW 3320   0.307   3.787   0.618
 1103SOL    HW1 3321   0.296   3.881   0.651
 1103SOL    HW2 3322   0.302   3.724   0.695
 1104SOL     OW 3323   1.622   4.091   0.374
 1104SOL    HW1 3324   1.624   4.015   0.438
 1104SOL    HW2 3325   1.574   4.168   0.414
 1105SOL     OW 3326   1.540   3.998   0.125
 1105SOL    HW1 3327   1.479   3.923   0.148
 1105SOL    HW2 3328   1.562   4.050   0.208
 1106SOL     OW 3329   0.319   4.534   0.949
 1106SOL    HW1 3330   0.412   4.570   0.954
 1106SOL    HW2 3331   0.313   4.449   1.001
 1107SOL     OW 3332   0.339   4.233   1.006
 1107SOL    HW1 3333   0.287   4.150   0.989
 1107SOL    HW2 3334   0.416   4.238   0.942
 1108SOL     OW 3335   1.138   4.104   1.678
 1108SOL    HW1 3336   1.093   4.167   1.742
 1108SOL    HW2 3337   1.231   4.135   1.661
 1109SOL     OW 3338   1.160   3.931   1.477
 1109SOL    HW1 3339   1.160   3.995   1.554
 1109SOL    HW2 3340   1.188   3.979   1.394
 1110SOL     OW 3341   0.040   4.268   1.114
 1110SOL    HW1 3342   0.125   4.235   1.073
 1110SOL    HW2 3343   0.053   4.283   1.212
 1111SOL     OW 3344   0.189   4.244   1.722
 1111SOL    HW1 3345   0.248   4.204   1.652
 1111SOL    HW2 3346   0.131   4.315   1.681
 1112SOL     OW 3347   0.815   4.296   0.325
 1112SOL    HW1 3348   0.822   4.207   0.279
 1112SOL    HW2 3349   0.721   4.330   0.317
 1113SOL     OW 3350   1.657   4.328   1.206
 1113SOL    HW1 3351   1.619   4.259   1.268
 1113SOL    HW2 3352   1.739   4.292   1.162
 1114SOL     OW 3353   0.671   4.188   1.269
 1114SOL    HW1 3354   0.637   4.099   1.239
 1114SOL    HW2 3355   0.697   4.242   1.189
 1115SOL     OW 3356   0.473   4.224   0.191
 1115SOL    HW1 3357   0.534   4.304   0.195
 1115SOL    HW2 3358   0.378   4.255   0.198
 1116SOL     OW 3359   0.903   3.810   0.133
 1116SOL    HW1 3360   0.954   3.811   0.047
 1116SOL    HW2 3361   0.959   3.768   0.204
 1117SOL     OW 3362   1.726   3.859   0.523
 1117SOL    HW1 3363   1.799   3.842   0.456
 1117SOL    HW2 3364   1.695   3.772   0.561
 1118SOL     OW 3365   1.280   4.651   0.672
 1118SOL    HW1 3366   1.340   4.570   0.674
 1118SOL    HW2 3367   1.320   4.720   0.612
 1119SOL     OW 3368   1.841   3.899   0.963
 1119SOL    HW1 3369   1.880   3.814   0.927
 1119SOL    HW2 3370   1.743   3.901   0.944
 1120SOL     OW 3371   0.263   4.050   0.720
 1120SOL    HW1 3372   0.184   4.101   0.686
 1120SOL    HW2 3373   0.254   4.035   0.818
 1121SOL     OW 3374   1.014   3.960   0.971
 1121SOL    HW1 3375   1.006   3.924   0.878
 1121SOL    HW2 3376   1.012   3.884   1.036
 1122SOL     OW 3377   1.709   4.109   1.381
 1122SOL    HW1 3378   1.782   4.178   1.385
 1122SOL    HW2 3379   1.737   4.034   1.322
 1123SOL     OW 3380   0.105   4.737   1.726
 1123SOL    HW1 3381   0.028   4.704   1.780
 1123SOL    HW2 3382   0.190   4.707   1.768
 1124SOL     OW 3383   0.672   3.927   1.489
 1124SOL    HW1 3384   0.762   3.911   1.449
 1124SOL    HW2 3385   0.680   3.932   1.588
 1125SOL     OW 3386   0.075   4.069   0.033
 1125SOL    HW1 3387  -0.017   4.041   0.004
 1125SOL    HW2 3388   0.106   4.146  -0.023
 1126SOL     OW 3389   1.440   4.580   1.398
 1126SOL    HW1 3390   1.383   4.632   1.335
 1126SOL    HW2 3391   1.536   4.592   1.374
 1127SOL     OW 3392   0.072   3.890   0.318
 1127SOL    HW1 3393   0.055   3.973   0.264
 1127SOL    HW2 3394   0.162   3.853   0.296
 1128SOL     OW 3395   0.613   4.566   1.431
 1128SOL    HW1 3396   0.669   4.647   1.414
 1128SOL    HW2 3397   0.672   4.486   1.434
 1129SOL     OW 3398   0.716   4.289   1.708
 1129SOL    HW1 3399   0.735   4.354   1.782
 1129SOL    HW2 3400   0.776   4.209   1.717
 1130SOL     OW 3401   1.674   4.607   1.254
 1130SOL    HW1 3402   1.647   4.518   1.217
 1130SOL    HW2 3403   1.675   4.675   1.181
 1131SOL     OW 3404   1.225   4.049   0.449
 1131SOL    HW1 3405   1.290   3.975   0.438
 1131SOL    HW2 3406   1.245   4.099   0.533
 1132SOL     OW 3407   0.594   4.469   0.652
 1132SOL    HW1 3408   0.644   4.554   0.633
 1132SOL    HW2 3409   0.506   4.471   0.604
 1133SOL     OW 3410   1.777   4.066   1.642
 1133SOL    HW1 3411   1.760   4.097   1.548
 1133SOL    HW2 3412   1.693   4.029   1.680
 1134SOL     OW 3413   1.824   3.916   1.227
 1134SOL    HW1 3414   1.820   3.826   1.271
 1134SOL    HW2 3415   1.827   3.905   1.128
 1135SOL     OW 3416   0.428   4.148   0.520
 1135SOL    HW1 3417   0.458   4.076   0.458
 1135SOL    HW2 3418   0.389   4.108   0.603
 1136SOL     OW 3419   0.317   4.271   1.280
 1136SOL    HW1 3420   0.355   4.212   1.352
 1136SOL    HW2 3421   0.357   4.245   1.192
 1137SOL     OW 3422   1.424   3.938   1.112
 1137SOL    HW1 3423   1.476   3.873   1.167
 1137SOL    HW2 3424   1.375   4.001   1.173
 1138SOL     OW 3425   1.001   3.758   1.154
 1138SOL    HW1 3426   0.938   3.686   1.123
 1138SOL    HW2 3427   1.094   3.722   1.154
 1139SOL     OW 3428   1.352   3.776   0.168
 1139SOL    HW1 3429   1.387   3.735   0.084
 1139SOL    HW2 3430   1.262   3.738   0.188
 1140SOL     OW 3431   1.300   4.177   0.691
 1140SOL    HW1 3432   1.241   4.257   0.695
 1140SOL    HW2 3433   1.315   4.142   0.784
 1141SOL     OW 3434   1.593   3.945   0.882
 1141SOL    HW1 3435   1.509   3.944   0.936
 1141SOL    HW2 3436   1.595   4.028   0.826
 1142SOL     OW 3437   0.230   4.352   1.975
 1142SOL    HW1 3438   0.137   4.350   2.012
 1142SOL    HW2 3439   0.231   4.313   1.883
 1143SOL     OW 3440   0.225   3.999   2.858
 1143SOL    HW1 3441   0.260   3.982   2.950
 1143SOL    HW2 3442   0.137   3.954   2.846
 1144SOL     OW 3443   0.019   4.092   2.509
 1144SOL    HW1 3444  -0.063   4.135   2.548
 1144SOL    HW2 3445  -0.009   4.019   2.446
 1145SOL     OW 3446   1.755   4.331   2.093
 1145SOL    HW1 3447   1.743   4.318   1.994
 1145SOL    HW2 3448   1.725   4.250   2.142
 1146SOL     OW 3449   0.850   4.522   3.685
 1146SOL    HW1 3450   0.846   4.598   3.750
 1146SOL    HW2 3451   0.872   4.558   3.594
 1147SOL     OW 3452   0.685   4.736   2.527
 1147SOL    HW1 3453   0.754   4.720   2.597
 1147SOL    HW2 3454   0.612   4.793   2.565
 1148SOL     OW 3455   0.438   4.116   3.361
 1148SOL    HW1 3456   0.520   4.060   3.370
 1148SOL    HW2 3457   0.357   4.058   3.365
 1149SOL     OW 3458   1.603   4.171   2.599
 1149SOL    HW1 3459   1.529   4.217   2.549
 1149SOL    HW2 3460   1.654   4.239   2.652
 1150SOL     OW 3461   1.594   3.838   3.342
 1150SOL    HW1 3462   1.576   3.905   3.270
 1150SOL    HW2 3463   1.591   3.884   3.431
 1151SOL     OW 3464   0.122   4.367   2.425
 1151SOL    HW1 3465   0.077   4.279   2.442
 1151SOL    HW2 3466   0.121   4.421   2.509
 1152SOL     OW 3467   0.113   4.461   3.459
 1152SOL    HW1 3468   0.201   4.448   3.504
 1152SOL    HW2 3469   0.100   4.558   3.437
 1153SOL     OW 3470   0.809   3.728   2.364
 1153SOL    HW1 3471   0.849   3.819   2.355
 1153SOL    HW2 3472   0.709   3.736   2.370
 1154SOL     OW 3473   0.317   3.975   3.663
 1154SOL    HW1 3474   0.388   4.046   3.669
 1154SOL    HW2 3475   0.229   4.014   3.691
 1155SOL     OW 3476   0.598   4.453   2.132
 1155SOL    HW1 3477   0.622   4.522   2.064
 1155SOL    HW2 3478   0.520   4.486   2.186
 1156SOL     OW 3479   1.281   4.069   2.806
 1156SOL    HW1 3480   1.195   4.019   2.793
 1156SOL    HW2 3481   1.343   4.015   2.862
 1157SOL     OW 3482   0.807   4.329   3.327
 1157SOL    HW1 3483   0.760   4.326   3.416
 1157SOL    HW2 3484   0.756   4.274   3.261
 1158SOL     OW 3485   1.394   4.193   3.536
 1158SOL    HW1 3486   1.374   4.236   3.624
 1158SOL    HW2 3487   1.472   4.131   3.545
 1159SOL     OW 3488   0.991   4.134   3.104
 1159SOL    HW1 3489   0.914   4.168   3.158
 1159SOL    HW2 3490   0.957   4.083   3.025
 1160SOL     OW 3491   1.041   4.425   2.291
 1160SOL    HW1 3492   1.067   4.421   2.387
 1160SOL    HW2 3493   0.956   4.374   2.277
 1161SOL     OW 3494   0.076   4.535   2.651
 1161SOL    HW1 3495   0.175   4.523   2.660
 1161SOL    HW2 3496   0.052   4.630   2.672
 1162SOL     OW 3497   0.865   4.072   2.057
 1162SOL    HW1 3498   0.924   4.135   2.008
 1162SOL    HW2 3499   0.884   3.978   2.028
 1163SOL     OW 3500   1.719   4.309   3.693
 1163SOL    HW1 3501   1.693   4.398   3.657
 1163SOL    HW2 3502   1.717   4.241   3.620
 1164SOL     OW 3503   0.550   3.920   2.747
 1164SOL    HW1 3504   0.545   3.915   2.847
 1164SOL    HW2 3505   0.552   4.016   2.718
 1165SOL     OW 3506   1.458   4.459   2.590
 1165SOL    HW1 3507   1.453   4.394   2.665
 1165SOL    HW2 3508   1.538   4.518   2.603
 1166SOL     OW 3509   0.202   4.009   3.360
 1166SOL    HW1 3510   0.122   4.069   3.347
 1166SOL    HW2 3511   0.192   3.960   3.446
 1167SOL     OW 3512   1.400   3.831   2.288
 1167SOL    HW1 3513   1.376   3.794   2.198
 1167SOL    HW2 3514   1.499   3.847   2.292
 1168SOL     OW 3515   0.382   4.424   2.342
 1168SOL    HW1 3516   0.427   4.334   2.339
 1168SOL    HW2 3517   0.288   4.413   2.375
 1169SOL     OW 3518   1.547   3.946   3.591
 1169SOL    HW1 3519   1.542   3.983   3.683
 1169SOL    HW2 3520   1.475   3.877   3.579
 1170SOL     OW 3521   0.614   3.846   1.979
 1170SOL    HW1 3522   0.712   3.824   1.986
 1170SOL    HW2 3523   0.583   3.829   1.886
 1171SOL     OW 3524   0.781   3.988   3.611
 1171SOL    HW1 3525   0.848   3.927   3.654
 1171SOL    HW2 3526   0.708   4.007   3.676
 1172SOL     OW 3527   1.351   4.314   3.295
 1172SOL    HW1 3528   1.379   4.271   3.380
 1172SOL    HW2 3529   1.376   4.410   3.296
 1173SOL     OW 3530   0.922   4.227   2.761
 1173SOL    HW1 3531   0.897   4.218   2.665
 1173SOL    HW2 3532   0.970   4.145   2.792
 1174SOL     OW 3533   0.539   3.788   2.374
 1174SOL    HW1 3534   0.458   3.789   2.432
 1174SOL    HW2 3535   0.542   3.871   2.319
 1175SOL     OW 3536   0.297   3.759   2.033
 1175SOL    HW1 3537   0.346   3.843   2.012
 1175SOL    HW2 3538   0.359   3.694   2.078
 1176SOL     OW 3539   0.935   3.960   2.342
 1176SOL    HW1 3540   0.887   4.001   2.264
 1176SOL    HW2 3541   1.034   3.958   2.323
 1177SOL     OW 3542   1.076   4.407   3.326
 1177SOL    HW1 3543   0.996   4.346   3.329
 1177SOL    HW2 3544   1.157   4.354   3.302
 1178SOL     OW 3545   1.032   4.273   1.878
 1178SOL    HW1 3546   0.991   4.355   1.839
 1178SOL    HW2 3547   1.096   4.299   1.951
 1179SOL     OW 3548   0.078   4.280   3.248
 1179SOL    HW1 3549   0.170   4.279   3.207
 1179SOL    HW2 3550   0.072   4.354   3.315
 1180SOL     OW 3551   0.561   3.946   3.009
 1180SOL    HW1 3552   0.599   3.862   3.046
 1180SOL    HW2 3553   0.473   3.965   3.053
 1181SOL     OW 3554   0.866   4.178   2.504
 1181SOL    HW1 3555   0.834   4.250   2.442
 1181SOL    HW2 3556   0.890   4.097   2.451
 1182SOL     OW 3557   1.017   3.763   2.615
 1182SOL    HW1 3558   0.945   3.768   2.546
 1182SOL    HW2 3559   0.993   3.694   2.684
 1183SOL     OW 3560   1.466   4.314   2.854
 1183SOL    HW1 3561   1.436   4.219   2.861
 1183SOL    HW2 3562   1.539   4.330   2.920
 1184SOL     OW 3563   1.857   4.557   2.239
 1184SOL    HW1 3564   1.899   4.493   2.303
 1184SOL    HW2 3565   1.819   4.506   2.161
 1185SOL     OW 3566   1.390   4.299   1.940
 1185SOL    HW1 3567   1.336   4.278   2.021
 1185SOL    HW2 3568   1.481   4.258   1.949
 1186SOL     OW 3569   0.527   3.980   2.190
 1186SOL    HW1 3570   0.554   3.921   2.115
 1186SOL    HW2 3571   0.527   4.075   2.159
 1187SOL     OW 3572   0.915   3.813   3.264
 1187SOL    HW1 3573   0.940   3.793   3.169
 1187SOL    HW2 3574   0.987   3.869   3.306
 1188SOL     OW 3575   0.705   4.774   2.230
 1188SOL    HW1 3576   0.691   4.781   2.329
 1188SOL    HW2 3577   0.789   4.723   2.212
 1189SOL     OW 3578   0.410   4.537   3.113
 1189SOL    HW1 3579   0.496   4.549   3.163
 1189SOL    HW2 3580   0.368   4.450   3.140
 1190SOL     OW 3581   1.274   4.110   3.124
 1190SOL    HW1 3582   1.295   4.184   3.188
 1190SOL    HW2 3583   1.185   4.127   3.081
 1191SOL     OW 3584   0.566   4.261   2.727
 1191SOL    HW1 3585   0.578   4.327   2.653
 1191SOL    HW2 3586   0.612   4.295   2.810
 1192SOL     OW 3587   1.582   4.363   2.334
 1192SOL    HW1 3588   1.551   4.424   2.407
 1192SOL    HW2 3589   1.632   4.415   2.265
 1193SOL     OW 3590   1.587   4.503   3.532
 1193SOL    HW1 3591   1.495   4.541   3.527
 1193SOL    HW2 3592   1.647   4.550   3.467
 1194SOL     OW 3593   1.013   3.829   3.632
 1194SOL    HW1 3594   1.019   3.914   3.580
 1194SOL    HW2 3595   1.045   3.753   3.575
 1195SOL     OW 3596   0.504   3.774   3.602
 1195SOL    HW1 3597   0.462   3.717   3.532
 1195SOL    HW2 3598   0.438   3.843   3.634
 1196SOL     OW 3599   1.360   4.586   2.907
 1196SOL    HW1 3600   1.285   4.586   2.841
 1196SOL    HW2 3601   1.397   4.494   2.916
 1197SOL     OW 3602   1.209   4.249   2.137
 1197SOL    HW1 3603   1.222   4.165   2.191
 1197SOL    HW2 3604   1.180   4.323   2.197
 1198SOL     OW 3605   0.307   3.937   3.093
 1198SOL    HW1 3606   0.284   3.974   3.183
 1198SOL    HW2 3607   0.277   3.842   3.087
 1199SOL     OW 3608   0.732   4.358   2.926
 1199SOL    HW1 3609   0.791   4.332   2.850
 1199SOL    HW2 3610   0.704   4.454   2.915
 1200SOL     OW 3611   1.728   4.659   3.716
 1200SOL    HW1 3612   1.682   4.652   3.627
 1200SOL    HW2 3613   1.666   4.703   3.782
 1201SOL     OW 3614   0.307   3.787   2.480
 1201SOL    HW1 3615   0.296   3.881   2.513
 1201SOL    HW2 3616   0.302   3.724   2.557
 1202SOL     OW 3617   1.622   4.091   2.236
 1202SOL    HW1 3618   1.624   4.015   2.300
 1202SOL    HW2 3619   1.574   4.168   2.276
 1203SOL     OW 3620   1.540   3.998   1.987
 1203SOL    HW1 3621   1.479   3.923   2.010
 1203SOL    HW2 3622   1.562   4.050   2.070
 1204SOL     OW 3623   0.319   4.534   2.811
 1204SOL    HW1 3624   0.412   4.570   2.816
 1204SOL    HW2 3625   0.313   4.449   2.863
 1205SOL     OW 3626   0.339   4.233   2.868
 1205SOL    HW1 3627   0.287   4.150   2.851
 1205SOL    HW2 3628   0.416   4.238   2.804
 1206SOL     OW 3629   1.138   4.104   3.540
 1206SOL    HW1 3630   1.093   4.167   3.604
 1206SOL    HW2 3631   1.231   4.135   3.523
 1207SOL     OW 3632   1.160   3.931   3.339
 1207SOL    HW1 3633   1.160   3.995   3.416
 1207SOL    HW2 3634   1.188   3.979   3.256
 1208SOL     OW 3635   0.040   4.268   2.976
 1208SOL    HW1 3636   0.125   4.235   2.935
 1208SOL    HW2 3637   0.053   4.283   3.074
 1209SOL     OW 3638   0.189   4.244   3.584
 1209SOL    HW1 3639   0.248   4.204   3.514
 1209SOL    HW2 3640   0.131   4.315   3.543
 1210SOL     OW 3641   0.815   4.296   2.187
 1210SOL    HW1 3642   0.822   4.207   2.141
 1210SOL    HW2 3643   0.721   4.330   2.179
 1211SOL     OW 3644   1.657   4.328   3.068
 1211SOL    HW1 3645   1.619   4.259   3.130
 1211SOL    HW2 3646   1.739   4.292   3.024
 1212SOL     OW 3647   0.671   4.188   3.131
 1212SOL    HW1 3648   0.637   4.099   3.101
 1212SOL    HW2 3649   0.697   4.242   3.051
 1213SOL     OW 3650   0.473   4.224   2.053
 1213SOL    HW1 3651   0.534   4.304   2.057
 1213SOL    HW2 3652   0.378   4.255   2.060
 1214SOL     OW 3653   1.726   3.859   2.385
 1214SOL    HW1 3654   1.799   3.842   2.318
 1214SOL    HW2 3655   1.695   3.772   2.423
 1215SOL     OW 3656   1.280   4.651   2.534
 1215SOL    HW1 3657   1.340   4.570   2.536
 1215SOL    HW2 3658   1.320   4.720   2.474
 1216SOL     OW 3659   1.841   3.899   2.825
 1216SOL    HW1 3660   1.880   3.814   2.789
 1216SOL    HW2 3661   1.743   3.901   2.806
 1217SOL     OW 3662   0.263   4.050   2.582
 1217SOL    HW1 3663   0.184   4.101   2.548
 1217SOL    HW2 3664   0.254   4.035   2.680
 1218SOL     OW 3665   0.916   4.634   2.153
 1218SOL    HW1 3666   0.979   4.672   2.085
 1218SOL    HW2 3667   0.956   4.551   2.192
 1219SOL     OW 3668   1.014   3.960   2.833
 1219SOL    HW1 3669   1.006   3.924   2.740
 1219SOL    HW2 3670   1.012   3.884   2.898
 1220SOL     OW 3671   1.709   4.109   3.243
 1220SOL    HW1 3672   1.782   4.178   3.247
 1220SOL    HW2 3673   1.737   4.034   3.184
 1221SOL     OW 3674   0.105   4.737   3.588
 1221SOL    HW1 3675   0.028   4.704   3.642
 1221SOL    HW2 3676   0.190   4.707   3.630
 1222SOL     OW 3677   0.672   3.927   3.351
 1222SOL    HW1 3678   0.762   3.911   3.311
 1222SOL    HW2 3679   0.680   3.932   3.450
 1223SOL     OW 3680   0.075   4.069   1.895
 1223SOL    HW1 3681  -0.017   4.041   1.866
 1223SOL    HW2 3682   0.106   4.146   1.839
 1224SOL     OW 3683   1.440   4.580   3.260
 1224SOL    HW1 3684   1.383   4.632   3.197
 1224SOL    HW2 3685   1.536   4.592   3.236
 1225SOL     OW 3686   0.072   3.890   2.180
 1225SOL    HW1 3687   0.055   3.973   2.126
 1225SOL    HW2 3688   0.162   3.853   2.158
 1226SOL     OW 3689   0.613   4.566   3.293
 1226SOL    HW1 3690   0.669   4.647   3.276
 1226SOL    HW2 3691   0.672   4.486   3.296
 1227SOL     OW 3692   0.716   4.289   3.570
 1227SOL    HW1 3693   0.735   4.354   3.644
 1227SOL    HW2 3694   0.776   4.209   3.579
 1228SOL     OW 3695   1.674   4.607   3.116
 1228SOL    HW1 3696   1.647   4.518   3.079
 1228SOL    HW2 3697   1.675   4.675   3.043
 1229SOL     OW 3698   1.225   4.049   2.311
 1229SOL    HW1 3699   1.290   3.975   2.300
 1229SOL    HW2 3700   1.245   4.099   2.395
 1230SOL     OW 3701   0.594   4.469   2.514
 1230SOL    HW1 3702   0.644   4.554   2.495
 1230SOL    HW2 3703   0.506   4.471   2.466
 1231SOL     OW 3704   1.777   4.066   3.504
 1231SOL    HW1 3705   1.760   4.097   3.410
 1231SOL    HW2 3706   1.693   4.029   3.542
 1232SOL     OW 3707   1.824   3.916   3.089
 1232SOL    HW1 3708   1.820   3.826   3.133
 1232SOL    HW2 3709   1.827   3.905   2.990
 1233SOL     OW 3710   0.428   4.148   2.382
 1233SOL    HW1 3711   0.458   4.076   2.320
 1233SOL    HW2 3712   0.389   4.108   2.465
 1234SOL     OW 3713   0.317   4.271   3.142
 1234SOL    HW1 3714   0.355   4.212   3.214
 1234SOL    HW2 3715   0.357   4.245   3.054
 1235SOL     OW 3716   1.424   3.938   2.974
 1235SOL    HW1 3717   1.476   3.873   3.029
 1235SOL    HW2 3718   1.375   4.001   3.035
 1236SOL     OW 3719   1.001   3.758   3.016
 1236SOL    HW1 3720   0.938   3.686   2.985
 1236SOL    HW2 3721   1.094   3.722   3.016
 1237SOL     OW 3722   1.352   3.776   2.030
 1237SOL    HW1 3723   1.387   3.735   1.946
 1237SOL    HW2 3724   1.262   3.738   2.050
 1238SOL     OW 3725   1.300   4.177   2.553
 1238SOL    HW1 3726   1.241   4.257   2.557
 1238SOL    HW2 3727   1.315   4.142   2.646
 1239SOL     OW 3728   1.593   3.945   2.744
 1239SOL    HW1 3729   1.509   3.944   2.798
 1239SOL    HW2 3730   1.595   4.028   2.688
 1240SOL     OW 3731   0.230   4.352   3.837
 1240SOL    HW1 3732   0.137   4.350   3.874
 1240SOL    HW2 3733   0.231   4.313   3.745
 1241SOL     OW 3734   0.225   3.999   4.720
 1241SOL    HW1 3735   0.260   3.982   4.812
 1241SOL    HW2 3736   0.137   3.954   4.708
 1242SOL     OW 3737   0.019   4.092   4.371
 1242SOL    HW1 3738  -0.063   4.135   4.410
 1242SOL    HW2 3739  -0.009   4.019   4.308
 1243SOL     OW 3740   1.755   4.331   3.955
 1243SOL    HW1 3741   1.743   4.318   3.856
 1243SOL    HW2 3742   1.725   4.250   4.004
 1244SOL     OW 3743   0.685   4.736   4.389
 1244SOL    HW1 3744   0.754   4.720   4.459
 1244SOL    HW2 3745   0.612   4.793   4.427
 1245SOL     OW 3746   1.603   4.171   4.461
 1245SOL    HW1 3747   1.529   4.217   4.411
 1245SOL    HW2 3748   1.654   4.239   4.514
 1246SOL     OW 3749   0.122   4.367   4.287
 1246SOL    HW1 3750   0.077   4.279   4.304
 1246SOL    HW2 3751   0.121   4.421   4.371
 1247SOL     OW 3752   0.809   3.728   4.226
 1247SOL    HW1 3753   0.849   3.819   4.217
 1247SOL    HW2 3754   0.709   3.736   4.232
 1248SOL     OW 3755   0.598   4.453   3.994
 1248SOL    HW1 3756   0.622   4.522   3.926
 1248SOL    HW2 3757   0.520   4.486   4.048
 1249SOL     OW 3758   1.281   4.069   4.668
 1249SOL    HW1 3759   1.195   4.019   4.655
 1249SOL    HW2 3760   1.343   4.015   4.724
 1250SOL     OW 3761   1.041   4.425   4.153
 1250SOL    HW1 3762   1.067   4.421   4.249
 1250SOL    HW2 3763   0.956   4.374   4.139
 1251SOL     OW 3764   0.076   4.535   4.513
 1251SOL    HW1 3765   0.175   4.523   4.522
 1251SOL    HW2 3766   0.052   4.630   4.534
 1252SOL     OW 3767   0.865   4.072   3.919
 1252SOL    HW1 3768   0.924   4.135   3.870
 1252SOL    HW2 3769   0.884   3.978   3.890
 1253SOL     OW 3770   1.458   4.459   4.452
 1253SOL    HW1 3771   1.453   4.394   4.527
 1253SOL    HW2 3772   1.538   4.518   4.465
 1254SOL     OW 3773   1.400   3.831   4.150
 1254SOL    HW1 3774   1.376   3.794   4.060
 1254SOL    HW2 3775   1.499   3.847   4.154
 1255SOL     OW 3776   0.382   4.424   4.204
 1255SOL    HW1 3777   0.427   4.334   4.201
 1255SOL    HW2 3778   0.288   4.413   4.237
 1256SOL     OW 3779   0.614   3.846   3.841
 1256SOL    HW1 3780   0.712   3.824   3.848
 1256SOL    HW2 3781   0.583   3.829   3.748
 1257SOL     OW 3782   0.539   3.788   4.236
 1257SOL    HW1 3783   0.458   3.789   4.294
 1257SOL    HW2 3784   0.542   3.871   4.181
 1258SOL     OW 3785   0.297   3.759   3.895
 1258SOL    HW1 3786   0.346   3.843   3.874
 1258SOL    HW2 3787   0.359   3.694   3.940
 1259SOL     OW 3788   0.935   3.960   4.204
 1259SOL    HW1 3789   0.887   4.001   4.126
 1259SOL    HW2 3790   1.034   3.958   4.185
 1260SOL     OW 3791   1.032   4.273   3.740
 1260SOL    HW1 3792   0.991   4.355   3.701
 1260SOL    HW2 3793   1.096   4.299   3.813
 1261SOL     OW 3794   0.866   4.178   4.366
 1261SOL    HW1 3795   0.834   4.250   4.304
 1261SOL    HW2 3796   0.890   4.097   4.313
 1262SOL     OW 3797   1.017   3.763   4.477
 1262SOL    HW1 3798   0.945   3.768   4.408
 1262SOL    HW2 3799   0.993   3.694   4.546
 1263SOL     OW 3800   1.857   4.557   4.101
 1263SOL    HW1 3801   1.899   4.493   4.165
 1263SOL    HW2 3802   1.819   4.506   4.023
 1264SOL     OW 3803   1.390   4.299   3.802
 1264SOL    HW1 3804   1.336   4.278   3.883
 1264SOL    HW2 3805   1.481   4.258   3.811
 1265SOL     OW 3806   0.527   3.980   4.052
 1265SOL    HW1 3807   0.554   3.921   3.977
 1265SOL    HW2 3808   0.527   4.075   4.021
 1266SOL     OW 3809   0.705   4.774   4.092
 1266SOL    HW1 3810   0.691   4.781   4.191
 1266SOL    HW2 3811   0.789   4.723   4.074
 1267SOL     OW 3812   1.582   4.363   4.196
 1267SOL    HW1 3813   1.551   4.424   4.269
 1267SOL    HW2 3814   1.632   4.415   4.127
 1268SOL     OW 3815   1.209   4.249   3.999
 1268SOL    HW1 3816   1.222   4.165   4.053
 1268SOL    HW2 3817   1.180   4.323   4.059
 1269SOL     OW 3818   0.307   3.787   4.342
 1269SOL    HW1 3819   0.296   3.881   4.375
 1269SOL    HW2 3820   0.302   3.724   4.419
 1270SOL     OW 3821   1.622   4.091   4.098
 1270SOL    HW1 3822   1.624   4.015   4.162
 1270SOL    HW2 3823   1.574   4.168   4.138
 1271SOL     OW 3824   1.540   3.998   3.849
 1271SOL    HW1 3825   1.479   3.923   3.872
 1271SOL    HW2 3826   1.562   4.050   3.932
 1272SOL     OW 3827   0.815   4.296   4.049
 1272SOL    HW1 3828   0.822   4.207   4.003
 1272SOL    HW2 3829   0.721   4.330   4.041
 1273SOL     OW 3830   0.473   4.224   3.915
 1273SOL    HW1 3831   0.534   4.304   3.919
 1273SOL    HW2 3832   0.378   4.255   3.922
 1274SOL     OW 3833   1.726   3.859   4.247
 1274SOL    HW1 3834   1.799   3.842   4.180
 1274SOL    HW2 3835   1.695   3.772   4.285
 1275SOL     OW 3836   1.280   4.651   4.396
 1275SOL    HW1 3837   1.340   4.570   4.398
 1275SOL    HW2 3838   1.320   4.720   4.336
 1276SOL     OW 3839   1.841   3.899   4.687
 1276SOL    HW1 3840   1.880   3.814   4.651
 1276SOL    HW2 3841   1.743   3.901   4.668
 1277SOL     OW 3842   0.263   4.050   4.444
 1277SOL    HW1 3843   0.184   4.101   4.410
 1277SOL    HW2 3844   0.254   4.035   4.542
 1278SOL     OW 3845   0.916   4.634   4.015
 1278SOL    HW1 3846   0.979   4.672   3.947
 1278SOL    HW2 3847   0.956   4.551   4.054
 1279SOL     OW 3848   1.039   4.822   4.420
 1279SOL    HW1 3849   0.969   4.775   4.474
 1279SOL    HW2 3850   1.098   4.754   4.377
 1280SOL     OW 3851   0.075   4.069   3.757
 1280SOL    HW1 3852  -0.017   4.041   3.728
 1280SOL    HW2 3853   0.106   4.146   3.701
 1281SOL     OW 3854   0.072   3.890   4.042
 1281SOL    HW1 3855   0.055   3.973   3.988
 1281SOL    HW2 3856   0.162   3.853   4.020
 1282SOL     OW 3857   1.225   4.049   4.173
 1282SOL    HW1 3858   1.290   3.975   4.162
 1282SOL    HW2 3859   1.245   4.099   4.257
 1283SOL     OW 3860   0.594   4.469   4.376
 1283SOL    HW1 3861   0.644   4.554   4.357
 1283SOL    HW2 3862   0.506   4.471   4.328
 1284SOL     OW 3863   0.428   4.148   4.244
 1284SOL    HW1 3864   0.458   4.076   4.182
 1284SOL    HW2 3865   0.389   4.108   4.327
 1285SOL     OW 3866   1.352   3.776   3.892
 1285SOL    HW1 3867   1.387   3.735   3.808
 1285SOL    HW2 3868   1.262   3.738   3.912
 1286SOL     OW 3869   1.300   4.177   4.415
 1286SOL    HW1 3870   1.241   4.257   4.419
 1286SOL    HW2 3871   1.315   4.142   4.508
 1287SOL     OW 3872   2.092   0.628   0.113
 1287SOL    HW1 3873   1.999   0.626   0.150
 1287SOL    HW2 3874   2.093   0.589   0.021
 1288SOL     OW 3875   2.087   0.275   0.996
 1288SOL    HW1 3876   2.122   0.258   1.088
 1288SOL    HW2 3877   1.999   0.230   0.984
 1289SOL     OW 3878   1.881   0.368   0.647
 1289SOL    HW1 3879   1.799   0.411   0.686
 1289SOL    HW2 3880   1.853   0.295   0.584
 1290SOL     OW 3881   2.431   1.275   1.165
 1290SOL    HW1 3882   2.338   1.268   1.128
 1290SOL    HW2 3883   2.442   1.364   1.209
 1291SOL     OW 3884   3.417   1.511   0.703
 1291SOL    HW1 3885   3.360   1.495   0.784
 1291SOL    HW2 3886   3.358   1.521   0.623
 1292SOL     OW 3887   2.997   0.703   0.717
 1292SOL    HW1 3888   3.054   0.781   0.692
 1292SOL    HW2 3889   2.937   0.729   0.793
 1293SOL     OW 3890   3.617   0.607   0.231
 1293SOL    HW1 3891   3.605   0.594   0.132
 1293SOL    HW2 3892   3.587   0.526   0.280
 1294SOL     OW 3893   2.630   1.144   1.023
 1294SOL    HW1 3894   2.552   1.161   1.083
 1294SOL    HW2 3895   2.664   1.231   0.987
 1295SOL     OW 3896   2.712   0.798   1.823
 1295SOL    HW1 3897   2.708   0.874   1.888
 1295SOL    HW2 3898   2.734   0.834   1.732
 1296SOL     OW 3899   2.547   1.012   0.665
 1296SOL    HW1 3900   2.616   0.996   0.735
 1296SOL    HW2 3901   2.474   1.069   0.703
 1297SOL     OW 3902   2.548   1.161   1.803
 1297SOL    HW1 3903   2.608   1.240   1.817
 1297SOL    HW2 3904   2.462   1.192   1.762
 1298SOL     OW 3905   2.197   1.435   1.061
 1298SOL    HW1 3906   2.119   1.404   1.008
 1298SOL    HW2 3907   2.255   1.493   1.004
 1299SOL     OW 3908   3.322   1.505   1.339
 1299SOL    HW1 3909   3.346   1.599   1.365
 1299SOL    HW2 3910   3.306   1.451   1.421
 1300SOL     OW 3911   2.300   0.392   1.499
 1300SOL    HW1 3912   2.382   0.336   1.508
 1300SOL    HW2 3913   2.219   0.334   1.503
 1301SOL     OW 3914   3.465   0.447   0.737
 1301SOL    HW1 3915   3.391   0.493   0.687
 1301SOL    HW2 3916   3.516   0.515   0.790
 1302SOL     OW 3917   2.093   1.713   0.483
 1302SOL    HW1 3918   2.127   1.790   0.537
 1302SOL    HW2 3919   2.137   1.713   0.393
 1303SOL     OW 3920   2.989   1.341   1.690
 1303SOL    HW1 3921   3.036   1.341   1.778
 1303SOL    HW2 3922   2.941   1.254   1.679
 1304SOL     OW 3923   2.092   1.434   0.538
 1304SOL    HW1 3924   2.066   1.530   0.538
 1304SOL    HW2 3925   2.021   1.380   0.583
 1305SOL     OW 3926   2.102   1.091   0.886
 1305SOL    HW1 3927   2.116   1.007   0.938
 1305SOL    HW2 3928   2.047   1.155   0.941
 1306SOL     OW 3929   2.482   1.786   1.439
 1306SOL    HW1 3930   2.390   1.769   1.474
 1306SOL    HW2 3931   2.510   1.878   1.465
 1307SOL     OW 3932   2.468   0.964   0.123
 1307SOL    HW1 3933   2.475   1.048   0.069
 1307SOL    HW2 3934   2.514   0.977   0.211
 1308SOL     OW 3935   3.456   0.114   1.480
 1308SOL    HW1 3936   3.438   0.181   1.408
 1308SOL    HW2 3937   3.453   0.160   1.569
 1309SOL     OW 3938   1.984   0.643   0.563
 1309SOL    HW1 3939   1.939   0.555   0.580
 1309SOL    HW2 3940   1.983   0.697   0.647
 1310SOL     OW 3941   3.704   1.767   0.359
 1310SOL    HW1 3942   3.758   1.738   0.439
 1310SOL    HW2 3943   3.734   1.857   0.330
 1311SOL     OW 3944   1.889   1.596   0.117
 1311SOL    HW1 3945   1.870   1.500   0.138
 1311SOL    HW2 3946   1.856   1.654   0.192
 1312SOL     OW 3947   3.551   0.922   0.612
 1312SOL    HW1 3948   3.646   0.893   0.620
 1312SOL    HW2 3949   3.543   0.987   0.537
 1313SOL     OW 3950   3.503   1.108   0.432
 1313SOL    HW1 3951   3.589   1.110   0.380
 1313SOL    HW2 3952   3.517   1.155   0.520
 1314SOL     OW 3953   1.975   0.737   1.597
 1314SOL    HW1 3954   2.063   0.724   1.642
 1314SOL    HW2 3955   1.962   0.834   1.575
 1315SOL     OW 3956   2.475   1.365   0.726
 1315SOL    HW1 3957   2.426   1.278   0.735
 1315SOL    HW2 3958   2.452   1.408   0.639
 1316SOL     OW 3959   3.155   1.228   1.423
 1316SOL    HW1 3960   3.192   1.155   1.365
 1316SOL    HW2 3961   3.207   1.233   1.508
 1317SOL     OW 3962   2.671   0.004   0.502
 1317SOL    HW1 3963   2.711   0.095   0.493
 1317SOL    HW2 3964   2.571   0.012   0.508
 1318SOL     OW 3965   2.059   0.976   1.264
 1318SOL    HW1 3966   2.148   0.931   1.250
 1318SOL    HW2 3967   1.986   0.911   1.245
 1319SOL     OW 3968   3.387   0.999   0.190
 1319SOL    HW1 3969   3.324   0.923   0.203
 1319SOL    HW2 3970   3.435   1.017   0.276
 1320SOL     OW 3971   3.049   1.792   1.616
 1320SOL    HW1 3972   3.073   1.852   1.540
 1320SOL    HW2 3973   3.056   1.697   1.586
 1321SOL     OW 3974   2.179   0.251   1.801
 1321SOL    HW1 3975   2.250   0.322   1.807
 1321SOL    HW2 3976   2.091   0.290   1.829
 1322SOL     OW 3977   3.328   1.417   0.953
 1322SOL    HW1 3978   3.269   1.423   1.033
 1322SOL    HW2 3979   3.313   1.329   0.907
 1323SOL     OW 3980   3.529   1.714   0.572
 1323SOL    HW1 3981   3.488   1.691   0.484
 1323SOL    HW2 3982   3.511   1.640   0.637
 1324SOL     OW 3983   2.460   0.729   0.270
 1324SOL    HW1 3984   2.484   0.798   0.202
 1324SOL    HW2 3985   2.382   0.762   0.324
 1325SOL     OW 3986   3.143   0.345   0.944
 1325SOL    HW1 3987   3.057   0.295   0.931
 1325SOL    HW2 3988   3.205   0.291   1.000
 1326SOL     OW 3989   3.438   1.662   0.307
 1326SOL    HW1 3990   3.527   1.708   0.310
 1326SOL    HW2 3991   3.417   1.638   0.212
 1327SOL     OW 3992   2.669   0.605   1.465
 1327SOL    HW1 3993   2.622   0.602   1.554
 1327SOL    HW2 3994   2.618   0.550   1.399
 1328SOL     OW 3995   3.256   0.469   1.674
 1328SOL    HW1 3996   3.236   0.512   1.762
 1328SOL    HW2 3997   3.334   0.407   1.683
 1329SOL     OW 3998   2.835   0.890   1.572
 1329SOL    HW1 3999   2.881   0.806   1.543
 1329SOL    HW2 4000   2.779   0.924   1.497
 1330SOL     OW 4001   2.853   0.410   1.242
 1330SOL    HW1 4002   2.776   0.444   1.296
 1330SOL    HW2 4003   2.819   0.359   1.163
 1331SOL     OW 4004   2.903   0.701   0.429
 1331SOL    HW1 4005   2.929   0.697   0.525
 1331SOL    HW2 4006   2.818   0.650   0.415
 1332SOL     OW 4007   1.938   0.811   0.789
 1332SOL    HW1 4008   2.037   0.799   0.798
 1332SOL    HW2 4009   1.914   0.906   0.810
 1333SOL     OW 4010   1.992   1.821   1.571
 1333SOL    HW1 4011   1.982   1.806   1.670
 1333SOL    HW2 4012   1.906   1.857   1.535
 1334SOL     OW 4013   2.727   0.348   0.195
 1334SOL    HW1 4014   2.786   0.411   0.146
 1334SOL    HW2 4015   2.746   0.254   0.166
 1335SOL     OW 4016   3.581   0.585   1.831
 1335SOL    HW1 4017   3.555   0.674   1.795
 1335SOL    HW2 4018   3.579   0.517   1.758
 1336SOL     OW 4019   3.224   1.144   0.545
 1336SOL    HW1 4020   3.307   1.115   0.497
 1336SOL    HW2 4021   3.175   1.211   0.489
 1337SOL     OW 4022   2.412   0.196   0.885
 1337SOL    HW1 4023   2.407   0.191   0.985
 1337SOL    HW2 4024   2.414   0.292   0.856
 1338SOL     OW 4025   2.870   1.456   0.477
 1338SOL    HW1 4026   2.824   1.528   0.425
 1338SOL    HW2 4027   2.866   1.476   0.575
 1339SOL     OW 4028   2.213   1.801   0.853
 1339SOL    HW1 4029   2.263   1.715   0.859
 1339SOL    HW2 4030   2.278   1.878   0.850
 1340SOL     OW 4031   3.657   1.066   0.873
 1340SOL    HW1 4032   3.595   1.051   0.797
 1340SOL    HW2 4033   3.605   1.077   0.958
 1341SOL     OW 4034   3.089   1.550   1.506
 1341SOL    HW1 4035   3.095   1.473   1.570
 1341SOL    HW2 4036   3.037   1.524   1.426
 1342SOL     OW 4037   2.183   0.943   0.242
 1342SOL    HW1 4038   2.265   0.982   0.200
 1342SOL    HW2 4039   2.156   0.861   0.193
 1343SOL     OW 4040   3.320   0.735   0.728
 1343SOL    HW1 4041   3.315   0.670   0.803
 1343SOL    HW2 4042   3.400   0.794   0.741
 1344SOL     OW 4043   2.323   1.266   1.727
 1344SOL    HW1 4044   2.273   1.267   1.641
 1344SOL    HW2 4045   2.260   1.248   1.803
 1345SOL     OW 4046   2.973   1.776   0.237
 1345SOL    HW1 4047   2.913   1.714   0.287
 1345SOL    HW2 4048   3.004   1.732   0.152
 1346SOL     OW 4049   2.064   0.285   1.498
 1346SOL    HW1 4050   1.984   0.345   1.485
 1346SOL    HW2 4051   2.054   0.236   1.584
 1347SOL     OW 4052   3.494   1.377   0.081
 1347SOL    HW1 4053   3.462   1.471   0.071
 1347SOL    HW2 4054   3.418   1.314   0.069
 1348SOL     OW 4055   2.326   1.743   0.323
 1348SOL    HW1 4056   2.359   1.782   0.409
 1348SOL    HW2 4057   2.402   1.736   0.258
 1349SOL     OW 4058   3.262   0.107   0.426
 1349SOL    HW1 4059   3.238   0.070   0.336
 1349SOL    HW2 4060   3.361   0.123   0.430
 1350SOL     OW 4061   2.111   1.785   1.241
 1350SOL    HW1 4062   2.168   1.720   1.291
 1350SOL    HW2 4063   2.095   1.752   1.148
 1351SOL     OW 4064   2.802   1.698   0.904
 1351SOL    HW1 4065   2.882   1.641   0.925
 1351SOL    HW2 4066   2.753   1.658   0.827
 1352SOL     OW 4067   2.244   0.700   0.480
 1352SOL    HW1 4068   2.289   0.610   0.477
 1352SOL    HW2 4069   2.150   0.689   0.513
 1353SOL     OW 4070   3.409   0.222   1.729
 1353SOL    HW1 4071   3.404   0.259   1.821
 1353SOL    HW2 4072   3.337   0.153   1.717
 1354SOL     OW 4073   2.476   0.122   0.117
 1354SOL    HW1 4074   2.574   0.100   0.124
 1354SOL    HW2 4075   2.445   0.105   0.024
 1355SOL     OW 4076   2.643   0.264   1.749
 1355SOL    HW1 4077   2.710   0.203   1.792
 1355SOL    HW2 4078   2.570   0.283   1.814
 1356SOL     OW 4079   2.750   1.514   1.195
 1356SOL    HW1 4080   2.727   1.489   1.101
 1356SOL    HW2 4081   2.811   1.445   1.234
 1357SOL     OW 4082   3.213   0.590   1.433
 1357SOL    HW1 4083   3.241   0.547   1.518
 1357SOL    HW2 4084   3.238   0.686   1.434
 1358SOL     OW 4085   2.665   1.402   0.924
 1358SOL    HW1 4086   2.755   1.416   0.882
 1358SOL    HW2 4087   2.594   1.404   0.853
 1359SOL     OW 4088   2.784   0.503   0.899
 1359SOL    HW1 4089   2.759   0.494   0.803
 1359SOL    HW2 4090   2.832   0.421   0.930
 1360SOL     OW 4091   2.401   0.064   0.512
 1360SOL    HW1 4092   2.320   0.065   0.570
 1360SOL    HW2 4093   2.404   0.147   0.457
 1361SOL     OW 4094   3.296   1.188   0.041
 1361SOL    HW1 4095   3.328   1.112   0.098
 1361SOL    HW2 4096   3.204   1.215   0.071
 1362SOL     OW 4097   2.159   0.035   0.171
 1362SOL    HW1 4098   2.208   0.119   0.150
 1362SOL    HW2 4099   2.221  -0.030   0.216
 1363SOL     OW 4100   2.797   0.236   0.480
 1363SOL    HW1 4101   2.749   0.277   0.402
 1363SOL    HW2 4102   2.896   0.234   0.461
 1364SOL     OW 4103   2.938   0.683   1.464
 1364SOL    HW1 4104   2.858   0.622   1.467
 1364SOL    HW2 4105   3.019   0.630   1.440
 1365SOL     OW 4106   3.089   1.570   0.793
 1365SOL    HW1 4107   3.110   1.644   0.728
 1365SOL    HW2 4108   3.157   1.570   0.866
 1366SOL     OW 4109   2.321   1.152   0.741
 1366SOL    HW1 4110   2.250   1.125   0.806
 1366SOL    HW2 4111   2.295   1.124   0.648
 1367SOL     OW 4112   3.133   1.797   0.591
 1367SOL    HW1 4113   3.177   1.861   0.527
 1367SOL    HW2 4114   3.083   1.849   0.661
 1368SOL     OW 4115   2.894   0.549   0.016
 1368SOL    HW1 4116   2.853   0.631  -0.023
 1368SOL    HW2 4117   2.958   0.575   0.089
 1369SOL     OW 4118   1.940   0.556   1.386
 1369SOL    HW1 4119   2.032   0.555   1.345
 1369SOL    HW2 4120   1.934   0.630   1.453
 1370SOL     OW 4121   2.423   0.222   1.147
 1370SOL    HW1 4122   2.461   0.138   1.184
 1370SOL    HW2 4123   2.335   0.241   1.191
 1371SOL     OW 4124   2.728   0.454   0.642
 1371SOL    HW1 4125   2.696   0.526   0.580
 1371SOL    HW2 4126   2.752   0.373   0.589
 1372SOL     OW 4127   2.879   0.039   0.753
 1372SOL    HW1 4128   2.807   0.044   0.684
 1372SOL    HW2 4129   2.855  -0.030   0.822
 1373SOL     OW 4130   3.291   1.173   0.867
 1373SOL    HW1 4131   3.236   1.089   0.860
 1373SOL    HW2 4132   3.317   1.202   0.775
 1374SOL     OW 4133   3.328   0.590   0.992
 1374SOL    HW1 4134   3.298   0.495   0.999
 1374SOL    HW2 4135   3.401   0.606   1.058
 1375SOL     OW 4136   3.719   0.833   0.377
 1375SOL    HW1 4137   3.761   0.769   0.441
 1375SOL    HW2 4138   3.681   0.782   0.299
 1376SOL     OW 4139   2.350   1.385   0.174
 1376SOL    HW1 4140   2.263   1.370   0.221
 1376SOL    HW2 4141   2.333   1.411   0.079
 1377SOL     OW 4142   3.526   1.280   0.657
 1377SOL    HW1 4143   3.625   1.288   0.671
 1377SOL    HW2 4144   3.481   1.364   0.688
 1378SOL     OW 4145   3.252   0.575   0.078
 1378SOL    HW1 4146   3.198   0.554   0.159
 1378SOL    HW2 4147   3.343   0.534   0.087
 1379SOL     OW 4148   2.389   0.256   0.328
 1379SOL    HW1 4149   2.416   0.197   0.253
 1379SOL    HW2 4150   2.389   0.351   0.297
 1380SOL     OW 4151   3.616   1.223   1.588
 1380SOL    HW1 4152   3.707   1.184   1.575
 1380SOL    HW2 4153   3.624   1.319   1.612
 1381SOL     OW 4154   2.926   1.347   1.340
 1381SOL    HW1 4155   2.846   1.324   1.395
 1381SOL    HW2 4156   3.009   1.321   1.389
 1382SOL     OW 4157   3.454   1.629   1.625
 1382SOL    HW1 4158   3.481   1.663   1.535
 1382SOL    HW2 4159   3.533   1.591   1.671
 1383SOL     OW 4160   2.973   1.195   1.100
 1383SOL    HW1 4161   2.933   1.239   1.181
 1383SOL    HW2 4162   2.932   1.232   1.017
 1384SOL     OW 4163   3.500   1.099   1.079
 1384SOL    HW1 4164   3.505   1.180   1.138
 1384SOL    HW2 4165   3.414   1.101   1.028
 1385SOL     OW 4166   2.777   0.089   1.402
 1385SOL    HW1 4167   2.802   0.069   1.307
 1385SOL    HW2 4168   2.849   0.145   1.444
 1386SOL     OW 4169   2.842   1.116   1.719
 1386SOL    HW1 4170   2.743   1.122   1.729
 1386SOL    HW2 4171   2.865   1.036   1.663
 1387SOL     OW 4172   2.567   1.050   0.368
 1387SOL    HW1 4173   2.553   1.057   0.467
 1387SOL    HW2 4174   2.651   0.999   0.350
 1388SOL     OW 4175   2.272   0.813   1.251
 1388SOL    HW1 4176   2.358   0.825   1.301
 1388SOL    HW2 4177   2.230   0.726   1.278
 1389SOL     OW 4178   3.136   0.386   1.262
 1389SOL    HW1 4179   3.157   0.460   1.326
 1389SOL    HW2 4180   3.047   0.403   1.219
 1390SOL     OW 4181   1.926   1.564   1.331
 1390SOL    HW1 4182   1.880   1.646   1.297
 1390SOL    HW2 4183   2.024   1.583   1.340
 1391SOL     OW 4184   2.229   1.100   0.501
 1391SOL    HW1 4185   2.222   1.183   0.445
 1391SOL    HW2 4186   2.233   1.020   0.441
 1392SOL     OW 4187   2.428   0.537   0.865
 1392SOL    HW1 4188   2.440   0.603   0.791
 1392SOL    HW2 4189   2.474   0.571   0.948
 1393SOL     OW 4190   3.114   1.348   0.388
 1393SOL    HW1 4191   3.164   1.425   0.428
 1393SOL    HW2 4192   3.019   1.350   0.420
 1394SOL     OW 4193   3.134   1.445   1.142
 1394SOL    HW1 4194   3.181   1.458   1.229
 1394SOL    HW2 4195   3.068   1.371   1.151
 1395SOL     OW 4196   3.444   0.639   0.472
 1395SOL    HW1 4197   3.413   0.700   0.545
 1395SOL    HW2 4198   3.494   0.691   0.403
 1396SOL     OW 4199   2.216   1.510   1.329
 1396SOL    HW1 4200   2.195   1.466   1.242
 1396SOL    HW2 4201   2.313   1.536   1.332
 1397SOL     OW 4202   2.264   0.751   1.598
 1397SOL    HW1 4203   2.332   0.806   1.551
 1397SOL    HW2 4204   2.304   0.663   1.625
 1398SOL     OW 4205   3.449   0.779   1.670
 1398SOL    HW1 4206   3.357   0.817   1.665
 1398SOL    HW2 4207   3.509   0.826   1.605
 1399SOL     OW 4208   2.875   0.105   1.770
 1399SOL    HW1 4209   2.881   0.190   1.718
 1399SOL    HW2 4210   2.907   0.029   1.713
 1400SOL     OW 4211   2.366   0.050   1.740
 1400SOL    HW1 4212   2.324  -0.007   1.670
 1400SOL    HW2 4213   2.300   0.119   1.772
 1401SOL     OW 4214   2.435   0.870   1.029
 1401SOL    HW1 4215   2.479   0.959   1.020
 1401SOL    HW2 4216   2.372   0.870   1.106
 1402SOL     OW 4217   3.222   0.862   1.045
 1402SOL    HW1 4218   3.147   0.862   0.979
 1402SOL    HW2 4219   3.259   0.770   1.054
 1403SOL     OW 4220   3.071   0.525   0.275
 1403SOL    HW1 4221   3.084   0.441   0.329
 1403SOL    HW2 4222   3.042   0.599   0.335
 1404SOL     OW 4223   2.169   0.213   1.231
 1404SOL    HW1 4224   2.146   0.250   1.321
 1404SOL    HW2 4225   2.139   0.118   1.225
 1405SOL     OW 4226   1.899   1.310   1.282
 1405SOL    HW1 4227   1.952   1.261   1.350
 1405SOL    HW2 4228   1.921   1.408   1.287
 1406SOL     OW 4229   2.594   0.634   1.064
 1406SOL    HW1 4230   2.653   0.608   0.988
 1406SOL    HW2 4231   2.566   0.730   1.053
 1407SOL     OW 4232   3.590   0.935   1.854
 1407SOL    HW1 4233   3.544   0.928   1.765
 1407SOL    HW2 4234   3.528   0.979   1.920
 1408SOL     OW 4235   2.169   0.063   0.618
 1408SOL    HW1 4236   2.158   0.157   0.651
 1408SOL    HW2 4237   2.164   0.000   0.695
 1409SOL     OW 4238   3.484   0.367   0.374
 1409SOL    HW1 4239   3.486   0.291   0.438
 1409SOL    HW2 4240   3.436   0.444   0.414
 1410SOL     OW 4241   2.885   0.766   0.966
 1410SOL    HW1 4242   2.900   0.787   1.062
 1410SOL    HW2 4243   2.855   0.671   0.957
 1411SOL     OW 4244   2.842   1.573   1.700
 1411SOL    HW1 4245   2.822   1.617   1.612
 1411SOL    HW2 4246   2.881   1.482   1.684
 1412SOL     OW 4247   3.721   1.518   1.605
 1412SOL    HW1 4248   3.735   1.545   1.510
 1412SOL    HW2 4249   3.804   1.540   1.658
 1413SOL     OW 4250   2.212   0.898   1.804
 1413SOL    HW1 4251   2.288   0.942   1.852
 1413SOL    HW2 4252   2.247   0.851   1.722
 1414SOL     OW 4253   3.402   0.274   0.125
 1414SOL    HW1 4254   3.341   0.199   0.148
 1414SOL    HW2 4255   3.424   0.326   0.208
 1415SOL     OW 4256   3.165   0.838   0.042
 1415SOL    HW1 4257   3.199   0.745   0.057
 1415SOL    HW2 4258   3.183   0.865  -0.053
 1416SOL     OW 4259   2.930   1.333   0.849
 1416SOL    HW1 4260   2.937   1.249   0.794
 1416SOL    HW2 4261   2.992   1.402   0.813
 1417SOL     OW 4262   2.181   0.810   0.949
 1417SOL    HW1 4263   2.274   0.846   0.954
 1417SOL    HW2 4264   2.175   0.725   1.001
 1418SOL     OW 4265   2.201   0.509   1.006
 1418SOL    HW1 4266   2.149   0.426   0.989
 1418SOL    HW2 4267   2.278   0.514   0.942
 1419SOL     OW 4268   3.000   0.380   1.678
 1419SOL    HW1 4269   2.955   0.443   1.742
 1419SOL    HW2 4270   3.093   0.411   1.661
 1420SOL     OW 4271   3.022   0.207   1.477
 1420SOL    HW1 4272   3.022   0.271   1.554
 1420SOL    HW2 4273   3.050   0.255   1.394
 1421SOL     OW 4274   1.870   1.326   0.200
 1421SOL    HW1 4275   1.777   1.347   0.169
 1421SOL    HW2 4276   1.880   1.227   0.213
 1422SOL     OW 4277   1.950   1.801   0.927
 1422SOL    HW1 4278   1.908   1.715   0.900
 1422SOL    HW2 4279   2.044   1.804   0.893
 1423SOL     OW 4280   2.366   1.568   0.910
 1423SOL    HW1 4281   2.432   1.642   0.919
 1423SOL    HW2 4282   2.410   1.489   0.868
 1424SOL     OW 4283   2.864   0.796   1.238
 1424SOL    HW1 4284   2.905   0.764   1.324
 1424SOL    HW2 4285   2.768   0.769   1.235
 1425SOL     OW 4286   1.902   0.544   1.114
 1425SOL    HW1 4287   1.987   0.511   1.073
 1425SOL    HW2 4288   1.915   0.559   1.212
 1426SOL     OW 4289   2.051   0.520   1.722
 1426SOL    HW1 4290   2.110   0.480   1.652
 1426SOL    HW2 4291   1.993   0.591   1.681
 1427SOL     OW 4292   3.231   0.950   1.660
 1427SOL    HW1 4293   3.270   1.039   1.680
 1427SOL    HW2 4294   3.241   0.930   1.563
 1428SOL     OW 4295   2.677   0.572   0.325
 1428SOL    HW1 4296   2.684   0.483   0.279
 1428SOL    HW2 4297   2.583   0.606   0.317
 1429SOL     OW 4298   3.519   0.604   1.206
 1429SOL    HW1 4299   3.481   0.535   1.268
 1429SOL    HW2 4300   3.601   0.568   1.162
 1430SOL     OW 4301   2.114   1.564   1.744
 1430SOL    HW1 4302   2.084   1.621   1.820
 1430SOL    HW2 4303   2.107   1.467   1.770
 1431SOL     OW 4304   2.533   0.464   1.269
 1431SOL    HW1 4305   2.499   0.375   1.239
 1431SOL    HW2 4306   2.559   0.518   1.189
 1432SOL     OW 4307   2.792   1.678   1.465
 1432SOL    HW1 4308   2.768   1.660   1.370
 1432SOL    HW2 4309   2.822   1.772   1.475
 1433SOL     OW 4310   2.335   0.500   0.191
 1433SOL    HW1 4311   2.396   0.580   0.195
 1433SOL    HW2 4312   2.240   0.531   0.198
 1434SOL     OW 4313   2.021   1.137   1.466
 1434SOL    HW1 4314   2.043   1.076   1.542
 1434SOL    HW2 4315   2.031   1.088   1.380
 1435SOL     OW 4316   3.209   1.059   1.234
 1435SOL    HW1 4317   3.233   0.996   1.160
 1435SOL    HW2 4318   3.119   1.099   1.216
 1436SOL     OW 4319   3.164   0.855   0.309
 1436SOL    HW1 4320   3.078   0.824   0.351
 1436SOL    HW2 4321   3.160   0.841   0.210
 1437SOL     OW 4322   3.621   1.747   1.154
 1437SOL    HW1 4323   3.682   1.777   1.081
 1437SOL    HW2 4324   3.583   1.658   1.132
 1438SOL     OW 4325   3.114   1.731   1.128
 1438SOL    HW1 4326   3.198   1.736   1.074
 1438SOL    HW2 4327   3.091   1.635   1.146
 1439SOL     OW 4328   1.945   1.258   1.022
 1439SOL    HW1 4329   1.940   1.257   1.122
 1439SOL    HW2 4330   1.862   1.217   0.984
 1440SOL     OW 4331   2.550   1.662   1.716
 1440SOL    HW1 4332   2.494   1.743   1.725
 1440SOL    HW2 4333   2.602   1.666   1.630
 1441SOL     OW 4334   2.765   0.086   0.133
 1441SOL    HW1 4335   2.816   0.087   0.047
 1441SOL    HW2 4336   2.821   0.044   0.204
 1442SOL     OW 4337   3.588   0.135   0.523
 1442SOL    HW1 4338   3.661   0.118   0.456
 1442SOL    HW2 4339   3.557   0.048   0.561
 1443SOL     OW 4340   3.250   1.573   0.477
 1443SOL    HW1 4341   3.317   1.585   0.403
 1443SOL    HW2 4342   3.210   1.662   0.500
 1444SOL     OW 4343   1.992   1.794   1.851
 1444SOL    HW1 4344   1.951   1.720   1.904
 1444SOL    HW2 4345   2.056   1.845   1.909
 1445SOL     OW 4346   3.142   0.927   0.672
 1445SOL    HW1 4347   3.202   0.846   0.674
 1445SOL    HW2 4348   3.182   0.996   0.612
 1446SOL     OW 4349   2.692   1.273   1.422
 1446SOL    HW1 4350   2.687   1.306   1.517
 1446SOL    HW2 4351   2.606   1.292   1.376
 1447SOL     OW 4352   2.534   1.616   0.154
 1447SOL    HW1 4353   2.543   1.626   0.055
 1447SOL    HW2 4354   2.494   1.527   0.175
 1448SOL     OW 4355   3.512   1.720   1.394
 1448SOL    HW1 4356   3.565   1.730   1.310
 1448SOL    HW2 4357   3.485   1.810   1.428
 1449SOL     OW 4358   3.703   0.175   0.963
 1449SOL    HW1 4359   3.742   0.090   0.927
 1449SOL    HW2 4360   3.605   0.177   0.944
 1450SOL     OW 4361   2.125   0.326   0.720
 1450SOL    HW1 4362   2.046   0.377   0.686
 1450SOL    HW2 4363   2.116   0.311   0.818
 1451SOL     OW 4364   3.056   1.612   0.031
 1451SOL    HW1 4365   3.062   1.519   0.068
 1451SOL    HW2 4366   2.997   1.612  -0.049
 1452SOL     OW 4367   2.684   1.002   1.372
 1452SOL    HW1 4368   2.724   1.001   1.280
 1452SOL    HW2 4369   2.694   1.094   1.412
 1453SOL     OW 4370   2.778   0.910   0.291
 1453SOL    HW1 4371   2.841   0.948   0.223
 1453SOL    HW2 4372   2.818   0.827   0.330
 1454SOL     OW 4373   3.366   1.607   0.044
 1454SOL    HW1 4374   3.274   1.644   0.051
 1454SOL    HW2 4375   3.404   1.627  -0.046
 1455SOL     OW 4376   2.234   1.288   1.490
 1455SOL    HW1 4377   2.221   1.381   1.456
 1455SOL    HW2 4378   2.150   1.236   1.477
 1456SOL     OW 4379   3.476   1.292   1.289
 1456SOL    HW1 4380   3.536   1.295   1.369
 1456SOL    HW2 4381   3.401   1.356   1.302
 1457SOL     OW 4382   2.901   1.098   0.696
 1457SOL    HW1 4383   2.831   1.051   0.750
 1457SOL    HW2 4384   2.960   1.030   0.653
 1458SOL     OW 4385   2.876   0.236   0.971
 1458SOL    HW1 4386   2.868   0.200   0.878
 1458SOL    HW2 4387   2.874   0.160   1.036
 1459SOL     OW 4388   2.452   1.487   0.491
 1459SOL    HW1 4389   2.494   1.429   0.421
 1459SOL    HW2 4390   2.408   1.566   0.447
 1460SOL     OW 4391   3.571   0.385   1.381
 1460SOL    HW1 4392   3.644   0.454   1.385
 1460SOL    HW2 4393   3.599   0.310   1.322
 1461SOL     OW 4394   2.117   1.348   0.290
 1461SOL    HW1 4395   2.021   1.349   0.263
 1461SOL    HW2 4396   2.129   1.401   0.374
 1462SOL     OW 4397   1.967   1.013   1.726
 1462SOL    HW1 4398   1.890   0.980   1.780
 1462SOL    HW2 4399   2.052   0.983   1.768
 1463SOL     OW 4400   2.534   0.203   1.489
 1463SOL    HW1 4401   2.624   0.187   1.449
 1463SOL    HW2 4402   2.542   0.208   1.588
 1464SOL     OW 4403   1.937   0.345   0.033
 1464SOL    HW1 4404   1.845   0.317   0.004
 1464SOL    HW2 4405   1.968   0.422  -0.023
 1465SOL     OW 4406   3.302   0.856   1.398
 1465SOL    HW1 4407   3.245   0.908   1.335
 1465SOL    HW2 4408   3.398   0.868   1.374
 1466SOL     OW 4409   1.934   0.166   0.318
 1466SOL    HW1 4410   1.917   0.249   0.264
 1466SOL    HW2 4411   2.024   0.129   0.296
 1467SOL     OW 4412   3.045   1.335   0.119
 1467SOL    HW1 4413   2.946   1.324   0.121
 1467SOL    HW2 4414   3.079   1.350   0.212
 1468SOL     OW 4415   2.475   0.842   1.431
 1468SOL    HW1 4416   2.531   0.923   1.414
 1468SOL    HW2 4417   2.534   0.762   1.434
 1469SOL     OW 4418   3.355   1.767   0.959
 1469SOL    HW1 4419   3.388   1.831   0.890
 1469SOL    HW2 4420   3.421   1.761   1.034
 1470SOL     OW 4421   2.578   0.565   1.708
 1470SOL    HW1 4422   2.597   0.630   1.782
 1470SOL    HW2 4423   2.638   0.485   1.717
 1471SOL     OW 4424   3.312   1.220   1.633
 1471SOL    HW1 4425   3.303   1.210   1.732
 1471SOL    HW2 4426   3.408   1.213   1.607
 1472SOL     OW 4427   2.252   1.741   1.560
 1472SOL    HW1 4428   2.161   1.782   1.558
 1472SOL    HW2 4429   2.245   1.647   1.592
 1473SOL     OW 4430   3.536   0.883   1.254
 1473SOL    HW1 4431   3.509   0.794   1.217
 1473SOL    HW2 4432   3.537   0.951   1.181
 1474SOL     OW 4433   3.087   0.325   0.449
 1474SOL    HW1 4434   3.152   0.251   0.438
 1474SOL    HW2 4435   3.107   0.375   0.533
 1475SOL     OW 4436   2.456   0.745   0.652
 1475SOL    HW1 4437   2.506   0.830   0.633
 1475SOL    HW2 4438   2.368   0.747   0.604
 1476SOL     OW 4439   3.639   0.342   1.642
 1476SOL    HW1 4440   3.622   0.373   1.548
 1476SOL    HW2 4441   3.555   0.305   1.680
 1477SOL     OW 4442   3.592   0.934   1.517
 1477SOL    HW1 4443   3.630   1.025   1.532
 1477SOL    HW2 4444   3.584   0.917   1.418
 1478SOL     OW 4445   2.721   1.374   0.016
 1478SOL    HW1 4446   2.675   1.389   0.104
 1478SOL    HW2 4447   2.765   1.459  -0.014
 1479SOL     OW 4448   2.523   1.790   0.953
 1479SOL    HW1 4449   2.477   1.878   0.940
 1479SOL    HW2 4450   2.622   1.802   0.946
 1480SOL     OW 4451   2.721   0.956   0.861
 1480SOL    HW1 4452   2.775   0.887   0.909
 1480SOL    HW2 4453   2.689   1.025   0.927
 1481SOL     OW 4454   2.945   0.984   0.087
 1481SOL    HW1 4455   2.922   1.037   0.005
 1481SOL    HW2 4456   3.026   0.928   0.068
 1482SOL     OW 4457   3.723   1.569   0.851
 1482SOL    HW1 4458   3.652   1.557   0.781
 1482SOL    HW2 4459   3.724   1.490   0.911
 1483SOL     OW 4460   2.083   1.314   1.844
 1483SOL    HW1 4461   2.018   1.241   1.823
 1483SOL    HW2 4462   2.087   1.328   1.942
 1484SOL     OW 4463   1.941   1.240   0.653
 1484SOL    HW1 4464   1.940   1.193   0.741
 1484SOL    HW2 4465   2.023   1.212   0.602
 1485SOL     OW 4466   2.534   1.391   1.624
 1485SOL    HW1 4467   2.456   1.341   1.662
 1485SOL    HW2 4468   2.531   1.486   1.655
 1486SOL     OW 4469   3.686   0.192   1.227
 1486SOL    HW1 4470   3.682   0.102   1.271
 1486SOL    HW2 4471   3.689   0.181   1.128
 1487SOL     OW 4472   2.290   0.424   0.520
 1487SOL    HW1 4473   2.320   0.352   0.458
 1487SOL    HW2 4474   2.251   0.384   0.603
 1488SOL     OW 4475   3.567   1.487   1.104
 1488SOL    HW1 4476   3.474   1.462   1.077
 1488SOL    HW2 4477   3.593   1.437   1.186
 1489SOL     OW 4478   2.179   0.547   1.280
 1489SOL    HW1 4479   2.217   0.488   1.352
 1489SOL    HW2 4480   2.219   0.521   1.192
 1490SOL     OW 4481   2.674   1.586   0.687
 1490SOL    HW1 4482   2.706   1.596   0.593
 1490SOL    HW2 4483   2.595   1.524   0.689
 1491SOL     OW 4484   3.286   0.214   1.112
 1491SOL    HW1 4485   3.338   0.149   1.167
 1491SOL    HW2 4486   3.237   0.277   1.173
 1492SOL     OW 4487   2.863   0.034   1.154
 1492SOL    HW1 4488   2.800  -0.038   1.123
 1492SOL    HW2 4489   2.956  -0.002   1.154
 1493SOL     OW 4490   2.632   1.330   0.301
 1493SOL    HW1 4491   2.586   1.243   0.318
 1493SOL    HW2 4492   2.723   1.327   0.342
 1494SOL     OW 4493   2.480   1.567   1.284
 1494SOL    HW1 4494   2.475   1.649   1.341
 1494SOL    HW2 4495   2.569   1.564   1.239
 1495SOL     OW 4496   3.214   0.052   0.168
 1495SOL    HW1 4497   3.249   0.011   0.084
 1495SOL    HW2 4498   3.124   0.014   0.188
 1496SOL     OW 4499   3.162   0.453   0.691
 1496SOL    HW1 4500   3.103   0.533   0.695
 1496SOL    HW2 4501   3.177   0.418   0.784
 1497SOL     OW 4502   3.455   0.221   0.882
 1497SOL    HW1 4503   3.371   0.220   0.936
 1497SOL    HW2 4504   3.457   0.304   0.826
 1498SOL     OW 4505   1.901   1.077   0.300
 1498SOL    HW1 4506   2.000   1.066   0.291
 1498SOL    HW2 4507   1.861   0.991   0.332
 1499SOL     OW 4508   2.737   1.646   0.337
 1499SOL    HW1 4509   2.660   1.611   0.283
 1499SOL    HW2 4510   2.705   1.717   0.399
 1500SOL     OW 4511   2.092   0.628   1.975
 1500SOL    HW1 4512   1.999   0.626   2.012
 1500SOL    HW2 4513   2.093   0.589   1.883
 1501SOL     OW 4514   2.087   0.275   2.858
 1501SOL    HW1 4515   2.122   0.258   2.950
 1501SOL    HW2 4516   1.999   0.230   2.846
 1502SOL     OW 4517   1.881   0.368   2.509
 1502SOL    HW1 4518   1.799   0.411   2.548
 1502SOL    HW2 4519   1.853   0.295   2.446
 1503SOL     OW 4520   2.431   1.275   3.027
 1503SOL    HW1 4521   2.338   1.268   2.990
 1503SOL    HW2 4522   2.442   1.364   3.071
 1504SOL     OW 4523   3.417   1.511   2.565
 1504SOL    HW1 4524   3.360   1.495   2.646
 1504SOL    HW2 4525   3.358   1.521   2.485
 1505SOL     OW 4526   2.997   0.703   2.579
 1505SOL    HW1 4527   3.054   0.781   2.554
 1505SOL    HW2 4528   2.937   0.729   2.655
 1506SOL     OW 4529   3.617   0.607   2.093
 1506SOL    HW1 4530   3.605   0.594   1.994
 1506SOL    HW2 4531   3.587   0.526   2.142
 1507SOL     OW 4532   2.630   1.144   2.885
 1507SOL    HW1 4533   2.552   1.161   2.945
 1507SOL    HW2 4534   2.664   1.231   2.849
 1508SOL     OW 4535   2.712   0.798   3.685
 1508SOL    HW1 4536   2.708   0.874   3.750
 1508SOL    HW2 4537   2.734   0.834   3.594
 1509SOL     OW 4538   2.547   1.012   2.527
 1509SOL    HW1 4539   2.616   0.996   2.597
 1509SOL    HW2 4540   2.474   1.069   2.565
 1510SOL     OW 4541   2.548   1.161   3.665
 1510SOL    HW1 4542   2.608   1.240   3.679
 1510SOL    HW2 4543   2.462   1.192   3.624
 1511SOL     OW 4544   2.197   1.435   2.923
 1511SOL    HW1 4545   2.119   1.404   2.870
 1511SOL    HW2 4546   2.255   1.493   2.866
 1512SOL     OW 4547   3.322   1.505   3.201
 1512SOL    HW1 4548   3.346   1.599   3.227
 1512SOL    HW2 4549   3.306   1.451   3.283
 1513SOL     OW 4550   2.300   0.392   3.361
 1513SOL    HW1 4551   2.382   0.336   3.370
 1513SOL    HW2 4552   2.219   0.334   3.365
 1514SOL     OW 4553   3.465   0.447   2.599
 1514SOL    HW1 4554   3.391   0.493   2.549
 1514SOL    HW2 4555   3.516   0.515   2.652
 1515SOL     OW 4556   2.093   1.713   2.345
 1515SOL    HW1 4557   2.127   1.790   2.399
 1515SOL    HW2 4558   2.137   1.713   2.255
 1516SOL     OW 4559   2.989   1.341   3.552
 1516SOL    HW1 4560   3.036   1.341   3.640
 1516SOL    HW2 4561   2.941   1.254   3.541
 1517SOL     OW 4562   2.092   1.434   2.400
 1517SOL    HW1 4563   2.066   1.530   2.400
 1517SOL    HW2 4564   2.021   1.380   2.445
 1518SOL     OW 4565   2.102   1.091   2.748
 1518SOL    HW1 4566   2.116   1.007   2.800
 1518SOL    HW2 4567   2.047   1.155   2.803
 1519SOL     OW 4568   2.482   1.786   3.301
 1519SOL    HW1 4569   2.390   1.769   3.336
 1519SOL    HW2 4570   2.510   1.878   3.327
 1520SOL     OW 4571   2.468   0.964   1.985
 1520SOL    HW1 4572   2.475   1.048   1.931
 1520SOL    HW2 4573   2.514   0.977   2.073
 1521SOL     OW 4574   3.456   0.114   3.342
 1521SOL    HW1 4575   3.438   0.181   3.270
 1521SOL    HW2 4576   3.453   0.160   3.431
 1522SOL     OW 4577   1.984   0.643   2.425
 1522SOL    HW1 4578   1.939   0.555   2.442
 1522SOL    HW2 4579   1.983   0.697   2.509
 1523SOL     OW 4580   3.704   1.767   2.221
 1523SOL    HW1 4581   3.758   1.738   2.301
 1523SOL    HW2 4582   3.734   1.857   2.192
 1524SOL     OW 4583   1.889   1.596   1.979
 1524SOL    HW1 4584   1.870   1.500   2.000
 1524SOL    HW2 4585   1.856   1.654   2.054
 1525SOL     OW 4586   3.551   0.922   2.474
 1525SOL    HW1 4587   3.646   0.893   2.482
 1525SOL    HW2 4588   3.543   0.987   2.399
 1526SOL     OW 4589   3.503   1.108   2.294
 1526SOL    HW1 4590   3.589   1.110   2.242
 1526SOL    HW2 4591   3.517   1.155   2.382
 1527SOL     OW 4592   1.975   0.737   3.459
 1527SOL    HW1 4593   2.063   0.724   3.504
 1527SOL    HW2 4594   1.962   0.834   3.437
 1528SOL     OW 4595   2.475   1.365   2.588
 1528SOL    HW1 4596   2.426   1.278   2.597
 1528SOL    HW2 4597   2.452   1.408   2.501
 1529SOL     OW 4598   3.155   1.228   3.285
 1529SOL    HW1 4599   3.192   1.155   3.227
 1529SOL    HW2 4600   3.207   1.233   3.370
 1530SOL     OW 4601   2.671   0.004   2.364
 1530SOL    HW1 4602   2.711   0.095   2.355
 1530SOL    HW2 4603   2.571   0.012   2.370
 1531SOL     OW 4604   2.059   0.976   3.126
 1531SOL    HW1 4605   2.148   0.931   3.112
 1531SOL    HW2 4606   1.986   0.911   3.107
 1532SOL     OW 4607   3.387   0.999   2.052
 1532SOL    HW1 4608   3.324   0.923   2.065
 1532SOL    HW2 4609   3.435   1.017   2.138
 1533SOL     OW 4610   3.049   1.792   3.478
 1533SOL    HW1 4611   3.073   1.852   3.402
 1533SOL    HW2 4612   3.056   1.697   3.448
 1534SOL     OW 4613   2.179   0.251   3.663
 1534SOL    HW1 4614   2.250   0.322   3.669
 1534SOL    HW2 4615   2.091   0.290   3.691
 1535SOL     OW 4616   3.328   1.417   2.815
 1535SOL    HW1 4617   3.269   1.423   2.895
 1535SOL    HW2 4618   3.313   1.329   2.769
 1536SOL     OW 4619   3.529   1.714   2.434
 1536SOL    HW1 4620   3.488   1.691   2.346
 1536SOL    HW2 4621   3.511   1.640   2.499
 1537SOL     OW 4622   2.460   0.729   2.132
 1537SOL    HW1 4623   2.484   0.798   2.064
 1537SOL    HW2 4624   2.382   0.762   2.186
 1538SOL     OW 4625   3.143   0.345   2.806
 1538SOL    HW1 4626   3.057   0.295   2.793
 1538SOL    HW2 4627   3.205   0.291   2.862
 1539SOL     OW 4628   3.438   1.662   2.169
 1539SOL    HW1 4629   3.527   1.708   2.172
 1539SOL    HW2 4630   3.417   1.638   2.074
 1540SOL     OW 4631   2.669   0.605   3.327
 1540SOL    HW1 4632   2.622   0.602   3.416
 1540SOL    HW2 4633   2.618   0.550   3.261
 1541SOL     OW 4634   3.256   0.469   3.536
 1541SOL    HW1 4635   3.236   0.512   3.624
 1541SOL    HW2 4636   3.334   0.407   3.545
 1542SOL     OW 4637   2.835   0.890   3.434
 1542SOL    HW1 4638   2.881   0.806   3.405
 1542SOL    HW2 4639   2.779   0.924   3.359
 1543SOL     OW 4640   2.853   0.410   3.104
 1543SOL    HW1 4641   2.776   0.444   3.158
 1543SOL    HW2 4642   2.819   0.359   3.025
 1544SOL     OW 4643   2.903   0.701   2.291
 1544SOL    HW1 4644   2.929   0.697   2.387
 1544SOL    HW2 4645   2.818   0.650   2.277
 1545SOL     OW 4646   1.938   0.811   2.651
 1545SOL    HW1 4647   2.037   0.799   2.660
 1545SOL    HW2 4648   1.914   0.906   2.672
 1546SOL     OW 4649   1.992   1.821   3.433
 1546SOL    HW1 4650   1.982   1.806   3.532
 1546SOL    HW2 4651   1.906   1.857   3.397
 1547SOL     OW 4652   2.727   0.348   2.057
 1547SOL    HW1 4653   2.786   0.411   2.008
 1547SOL    HW2 4654   2.746   0.254   2.028
 1548SOL     OW 4655   3.581   0.585   3.693
 1548SOL    HW1 4656   3.555   0.674   3.657
 1548SOL    HW2 4657   3.579   0.517   3.620
 1549SOL     OW 4658   3.224   1.144   2.407
 1549SOL    HW1 4659   3.307   1.115   2.359
 1549SOL    HW2 4660   3.175   1.211   2.351
 1550SOL     OW 4661   2.412   0.196   2.747
 1550SOL    HW1 4662   2.407   0.191   2.847
 1550SOL    HW2 4663   2.414   0.292   2.718
 1551SOL     OW 4664   2.870   1.456   2.339
 1551SOL    HW1 4665   2.824   1.528   2.287
 1551SOL    HW2 4666   2.866   1.476   2.437
 1552SOL     OW 4667   2.213   1.801   2.715
 1552SOL    HW1 4668   2.263   1.715   2.721
 1552SOL    HW2 4669   2.278   1.878   2.712
 1553SOL     OW 4670   3.657   1.066   2.735
 1553SOL    HW1 4671   3.595   1.051   2.659
 1553SOL    HW2 4672   3.605   1.077   2.820
 1554SOL     OW 4673   3.089   1.550   3.368
 1554SOL    HW1 4674   3.095   1.473   3.432
 1554SOL    HW2 4675   3.037   1.524   3.288
 1555SOL     OW 4676   2.183   0.943   2.104
 1555SOL    HW1 4677   2.265   0.982   2.062
 1555SOL    HW2 4678   2.156   0.861   2.055
 1556SOL     OW 4679   3.320   0.735   2.590
 1556SOL    HW1 4680   3.315   0.670   2.665
 1556SOL    HW2 4681   3.400   0.794   2.603
 1557SOL     OW 4682   2.323   1.266   3.589
 1557SOL    HW1 4683   2.273   1.267   3.503
 1557SOL    HW2 4684   2.260   1.248   3.665
 1558SOL     OW 4685   2.973   1.776   2.099
 1558SOL    HW1 4686   2.913   1.714   2.149
 1558SOL    HW2 4687   3.004   1.732   2.014
 1559SOL     OW 4688   2.064   0.285   3.360
 1559SOL    HW1 4689   1.984   0.345   3.347
 1559SOL    HW2 4690   2.054   0.236   3.446
 1560SOL     OW 4691   3.494   1.377   1.943
 1560SOL    HW1 4692   3.462   1.471   1.933
 1560SOL    HW2 4693   3.418   1.314   1.931
 1561SOL     OW 4694   2.326   1.743   2.185
 1561SOL    HW1 4695   2.359   1.782   2.271
 1561SOL    HW2 4696   2.402   1.736   2.120
 1562SOL     OW 4697   3.262   0.107   2.288
 1562SOL    HW1 4698   3.238   0.070   2.198
 1562SOL    HW2 4699   3.361   0.123   2.292
 1563SOL     OW 4700   2.111   1.785   3.103
 1563SOL    HW1 4701   2.168   1.720   3.153
 1563SOL    HW2 4702   2.095   1.752   3.010
 1564SOL     OW 4703   2.802   1.698   2.766
 1564SOL    HW1 4704   2.882   1.641   2.787
 1564SOL    HW2 4705   2.753   1.658   2.689
 1565SOL     OW 4706   2.244   0.700   2.342
 1565SOL    HW1 4707   2.289   0.610   2.339
 1565SOL    HW2 4708   2.150   0.689   2.375
 1566SOL     OW 4709   3.409   0.222   3.591
 1566SOL    HW1 4710   3.404   0.259   3.683
 1566SOL    HW2 4711   3.337   0.153   3.579
 1567SOL     OW 4712   2.476   0.122   1.979
 1567SOL    HW1 4713   2.574   0.100   1.986
 1567SOL    HW2 4714   2.445   0.105   1.886
 1568SOL     OW 4715   2.643   0.264   3.611
 1568SOL    HW1 4716   2.710   0.203   3.654
 1568SOL    HW2 4717   2.570   0.283   3.676
 1569SOL     OW 4718   2.750   1.514   3.057
 1569SOL    HW1 4719   2.727   1.489   2.963
 1569SOL    HW2 4720   2.811   1.445   3.096
 1570SOL     OW 4721   3.213   0.590   3.295
 1570SOL    HW1 4722   3.241   0.547   3.380
 1570SOL    HW2 4723   3.238   0.686   3.296
 1571SOL     OW 4724   2.665   1.402   2.786
 1571SOL    HW1 4725   2.755   1.416   2.744
 1571SOL    HW2 4726   2.594   1.404   2.715
 1572SOL     OW 4727   2.784   0.503   2.761
 1572SOL    HW1 4728   2.759   0.494   2.665
 1572SOL    HW2 4729   2.832   0.421   2.792
 1573SOL     OW 4730   2.401   0.064   2.374
 1573SOL    HW1 4731   2.320   0.065   2.432
 1573SOL    HW2 4732   2.404   0.147   2.319
 1574SOL     OW 4733   3.296   1.188   1.903
 1574SOL    HW1 4734   3.328   1.112   1.960
 1574SOL    HW2 4735   3.204   1.215   1.933
 1575SOL     OW 4736   2.159   0.035   2.033
 1575SOL    HW1 4737   2.208   0.119   2.012
 1575SOL    HW2 4738   2.221  -0.030   2.078
 1576SOL     OW 4739   2.797   0.236   2.342
 1576SOL    HW1 4740   2.749   0.277   2.264
 1576SOL    HW2 4741   2.896   0.234   2.323
 1577SOL     OW 4742   2.938   0.683   3.326
 1577SOL    HW1 4743   2.858   0.622   3.329
 1577SOL    HW2 4744   3.019   0.630   3.302
 1578SOL     OW 4745   3.089   1.570   2.655
 1578SOL    HW1 4746   3.110   1.644   2.590
 1578SOL    HW2 4747   3.157   1.570   2.728
 1579SOL     OW 4748   2.321   1.152   2.603
 1579SOL    HW1 4749   2.250   1.125   2.668
 1579SOL    HW2 4750   2.295   1.124   2.510
 1580SOL     OW 4751   3.133   1.797   2.453
 1580SOL    HW1 4752   3.177   1.861   2.389
 1580SOL    HW2 4753   3.083   1.849   2.523
 1581SOL     OW 4754   2.894   0.549   1.878
 1581SOL    HW1 4755   2.853   0.631   1.839
 1581SOL    HW2 4756   2.958   0.575   1.951
 1582SOL     OW 4757   1.940   0.556   3.248
 1582SOL    HW1 4758   2.032   0.555   3.207
 1582SOL    HW2 4759   1.934   0.630   3.315
 1583SOL     OW 4760   2.423   0.222   3.009
 1583SOL    HW1 4761   2.461   0.138   3.046
 1583SOL    HW2 4762   2.335   0.241   3.053
 1584SOL     OW 4763   2.728   0.454   2.504
 1584SOL    HW1 4764   2.696   0.526   2.442
 1584SOL    HW2 4765   2.752   0.373   2.451
 1585SOL     OW 4766   2.879   0.039   2.615
 1585SOL    HW1 4767   2.807   0.044   2.546
 1585SOL    HW2 4768   2.855  -0.030   2.684
 1586SOL     OW 4769   3.291   1.173   2.729
 1586SOL    HW1 4770   3.236   1.089   2.722
 1586SOL    HW2 4771   3.317   1.202   2.637
 1587SOL     OW 4772   3.328   0.590   2.854
 1587SOL    HW1 4773   3.298   0.495   2.861
 1587SOL    HW2 4774   3.401   0.606   2.920
 1588SOL     OW 4775   3.719   0.833   2.239
 1588SOL    HW1 4776   3.761   0.769   2.303
 1588SOL    HW2 4777   3.681   0.782   2.161
 1589SOL     OW 4778   2.350   1.385   2.036
 1589SOL    HW1 4779   2.263   1.370   2.083
 1589SOL    HW2 4780   2.333   1.411   1.941
 1590SOL     OW 4781   3.526   1.280   2.519
 1590SOL    HW1 4782   3.625   1.288   2.533
 1590SOL    HW2 4783   3.481   1.364   2.550
 1591SOL     OW 4784   3.252   0.575   1.940
 1591SOL    HW1 4785   3.198   0.554   2.021
 1591SOL    HW2 4786   3.343   0.534   1.949
 1592SOL     OW 4787   2.389   0.256   2.190
 1592SOL    HW1 4788   2.416   0.197   2.115
 1592SOL    HW2 4789   2.389   0.351   2.159
 1593SOL     OW 4790   3.616   1.223   3.450
 1593SOL    HW1 4791   3.707   1.184   3.437
 1593SOL    HW2 4792   3.624   1.319   3.474
 1594SOL     OW 4793   2.926   1.347   3.202
 1594SOL    HW1 4794   2.846   1.324   3.257
 1594SOL    HW2 4795   3.009   1.321   3.251
 1595SOL     OW 4796   3.454   1.629   3.487
 1595SOL    HW1 4797   3.481   1.663   3.397
 1595SOL    HW2 4798   3.533   1.591   3.533
 1596SOL     OW 4799   2.973   1.195   2.962
 1596SOL    HW1 4800   2.933   1.239   3.043
 1596SOL    HW2 4801   2.932   1.232   2.879
 1597SOL     OW 4802   3.500   1.099   2.941
 1597SOL    HW1 4803   3.505   1.180   3.000
 1597SOL    HW2 4804   3.414   1.101   2.890
 1598SOL     OW 4805   2.777   0.089   3.264
 1598SOL    HW1 4806   2.802   0.069   3.169
 1598SOL    HW2 4807   2.849   0.145   3.306
 1599SOL     OW 4808   2.842   1.116   3.581
 1599SOL    HW1 4809   2.743   1.122   3.591
 1599SOL    HW2 4810   2.865   1.036   3.525
 1600SOL     OW 4811   2.567   1.050   2.230
 1600SOL    HW1 4812   2.553   1.057   2.329
 1600SOL    HW2 4813   2.651   0.999   2.212
 1601SOL     OW 4814   2.272   0.813   3.113
 1601SOL    HW1 4815   2.358   0.825   3.163
 1601SOL    HW2 4816   2.230   0.726   3.140
 1602SOL     OW 4817   3.136   0.386   3.124
 1602SOL    HW1 4818   3.157   0.460   3.188
 1602SOL    HW2 4819   3.047   0.403   3.081
 1603SOL     OW 4820   1.926   1.564   3.193
 1603SOL    HW1 4821   1.880   1.646   3.159
 1603SOL    HW2 4822   2.024   1.583   3.202
 1604SOL     OW 4823   2.229   1.100   2.363
 1604SOL    HW1 4824   2.222   1.183   2.307
 1604SOL    HW2 4825   2.233   1.020   2.303
 1605SOL     OW 4826   2.428   0.537   2.727
 1605SOL    HW1 4827   2.440   0.603   2.653
 1605SOL    HW2 4828   2.474   0.571   2.810
 1606SOL     OW 4829   3.114   1.348   2.250
 1606SOL    HW1 4830   3.164   1.425   2.290
 1606SOL    HW2 4831   3.019   1.350   2.282
 1607SOL     OW 4832   3.134   1.445   3.004
 1607SOL    HW1 4833   3.181   1.458   3.091
 1607SOL    HW2 4834   3.068   1.371   3.013
 1608SOL     OW 4835   3.444   0.639   2.334
 1608SOL    HW1 4836   3.413   0.700   2.407
 1608SOL    HW2 4837   3.494   0.691   2.265
 1609SOL     OW 4838   2.216   1.510   3.191
 1609SOL    HW1 4839   2.195   1.466   3.104
 1609SOL    HW2 4840   2.313   1.536   3.194
 1610SOL     OW 4841   2.264   0.751   3.460
 1610SOL    HW1 4842   2.332   0.806   3.413
 1610SOL    HW2 4843   2.304   0.663   3.487
 1611SOL     OW 4844   3.449   0.779   3.532
 1611SOL    HW1 4845   3.357   0.817   3.527
 1611SOL    HW2 4846   3.509   0.826   3.467
 1612SOL     OW 4847   2.875   0.105   3.632
 1612SOL    HW1 4848   2.881   0.190   3.580
 1612SOL    HW2 4849   2.907   0.029   3.575
 1613SOL     OW 4850   2.366   0.050   3.602
 1613SOL    HW1 4851   2.324  -0.007   3.532
 1613SOL    HW2 4852   2.300   0.119   3.634
 1614SOL     OW 4853   2.435   0.870   2.891
 1614SOL    HW1 4854   2.479   0.959   2.882
 1614SOL    HW2 4855   2.372   0.870   2.968
 1615SOL     OW 4856   3.222   0.862   2.907
 1615SOL    HW1 4857   3.147   0.862   2.841
 1615SOL    HW2 4858   3.259   0.770   2.916
 1616SOL     OW 4859   3.071   0.525   2.137
 1616SOL    HW1 4860   3.084   0.441   2.191
 1616SOL    HW2 4861   3.042   0.599   2.197
 1617SOL     OW 4862   2.169   0.213   3.093
 1617SOL    HW1 4863   2.146   0.250   3.183
 1617SOL    HW2 4864   2.139   0.118   3.087
 1618SOL     OW 4865   1.899   1.310   3.144
 1618SOL    HW1 4866   1.952   1.261   3.212
 1618SOL    HW2 4867   1.921   1.408   3.149
 1619SOL     OW 4868   2.594   0.634   2.926
 1619SOL    HW1 4869   2.653   0.608   2.850
 1619SOL    HW2 4870   2.566   0.730   2.915
 1620SOL     OW 4871   3.590   0.935   3.716
 1620SOL    HW1 4872   3.544   0.928   3.627
 1620SOL    HW2 4873   3.528   0.979   3.782
 1621SOL     OW 4874   2.169   0.063   2.480
 1621SOL    HW1 4875   2.158   0.157   2.513
 1621SOL    HW2 4876   2.164   0.000   2.557
 1622SOL     OW 4877   3.484   0.367   2.236
 1622SOL    HW1 4878   3.486   0.291   2.300
 1622SOL    HW2 4879   3.436   0.444   2.276
 1623SOL     OW 4880   2.885   0.766   2.828
 1623SOL    HW1 4881   2.900   0.787   2.924
 1623SOL    HW2 4882   2.855   0.671   2.819
 1624SOL     OW 4883   2.842   1.573   3.562
 1624SOL    HW1 4884   2.822   1.617   3.474
 1624SOL    HW2 4885   2.881   1.482   3.546
 1625SOL     OW 4886   3.721   1.518   3.467
 1625SOL    HW1 4887   3.735   1.545   3.372
 1625SOL    HW2 4888   3.804   1.540   3.520
 1626SOL     OW 4889   2.212   0.898   3.666
 1626SOL    HW1 4890   2.288   0.942   3.714
 1626SOL    HW2 4891   2.247   0.851   3.584
 1627SOL     OW 4892   3.402   0.274   1.987
 1627SOL    HW1 4893   3.341   0.199   2.010
 1627SOL    HW2 4894   3.424   0.326   2.070
 1628SOL     OW 4895   3.165   0.838   1.904
 1628SOL    HW1 4896   3.199   0.745   1.919
 1628SOL    HW2 4897   3.183   0.865   1.809
 1629SOL     OW 4898   2.930   1.333   2.711
 1629SOL    HW1 4899   2.937   1.249   2.656
 1629SOL    HW2 4900   2.992   1.402   2.675
 1630SOL     OW 4901   2.181   0.810   2.811
 1630SOL    HW1 4902   2.274   0.846   2.816
 1630SOL    HW2 4903   2.175   0.725   2.863
 1631SOL     OW 4904   2.201   0.509   2.868
 1631SOL    HW1 4905   2.149   0.426   2.851
 1631SOL    HW2 4906   2.278   0.514   2.804
 1632SOL     OW 4907   3.000   0.380   3.540
 1632SOL    HW1 4908   2.955   0.443   3.604
 1632SOL    HW2 4909   3.093   0.411   3.523
 1633SOL     OW 4910   3.022   0.207   3.339
 1633SOL    HW1 4911   3.022   0.271   3.416
 1633SOL    HW2 4912   3.050   0.255   3.256
 1634SOL     OW 4913   1.870   1.326   2.062
 1634SOL    HW1 4914   1.777   1.347   2.031
 1634SOL    HW2 4915   1.880   1.227   2.075
 1635SOL     OW 4916   1.950   1.801   2.789
 1635SOL    HW1 4917   1.908   1.715   2.762
 1635SOL    HW2 4918   2.044   1.804   2.755
 1636SOL     OW 4919   2.366   1.568   2.772
 1636SOL    HW1 4920   2.432   1.642   2.781
 1636SOL    HW2 4921   2.410   1.489   2.730
 1637SOL     OW 4922   2.864   0.796   3.100
 1637SOL    HW1 4923   2.905   0.764   3.186
 1637SOL    HW2 4924   2.768   0.769   3.097
 1638SOL     OW 4925   1.902   0.544   2.976
 1638SOL    HW1 4926   1.987   0.511   2.935
 1638SOL    HW2 4927   1.915   0.559   3.074
 1639SOL     OW 4928   2.051   0.520   3.584
 1639SOL    HW1 4929   2.110   0.480   3.514
 1639SOL    HW2 4930   1.993   0.591   3.543
 1640SOL     OW 4931   3.231   0.950   3.522
 1640SOL    HW1 4932   3.270   1.039   3.542
 1640SOL    HW2 4933   3.241   0.930   3.425
 1641SOL     OW 4934   2.677   0.572   2.187
 1641SOL    HW1 4935   2.684   0.483   2.141
 1641SOL    HW2 4936   2.583   0.606   2.179
 1642SOL     OW 4937   3.519   0.604   3.068
 1642SOL    HW1 4938   3.481   0.535   3.130
 1642SOL    HW2 4939   3.601   0.568   3.024
 1643SOL     OW 4940   2.114   1.564   3.606
 1643SOL    HW1 4941   2.084   1.621   3.682
 1643SOL    HW2 4942   2.107   1.467   3.632
 1644SOL     OW 4943   2.533   0.464   3.131
 1644SOL    HW1 4944   2.499   0.375   3.101
 1644SOL    HW2 4945   2.559   0.518   3.051
 1645SOL     OW 4946   2.792   1.678   3.327
 1645SOL    HW1 4947   2.768   1.660   3.232
 1645SOL    HW2 4948   2.822   1.772   3.337
 1646SOL     OW 4949   2.335   0.500   2.053
 1646SOL    HW1 4950   2.396   0.580   2.057
 1646SOL    HW2 4951   2.240   0.531   2.060
 1647SOL     OW 4952   2.021   1.137   3.328
 1647SOL    HW1 4953   2.043   1.076   3.404
 1647SOL    HW2 4954   2.031   1.088   3.242
 1648SOL     OW 4955   3.209   1.059   3.096
 1648SOL    HW1 4956   3.233   0.996   3.022
 1648SOL    HW2 4957   3.119   1.099   3.078
 1649SOL     OW 4958   3.164   0.855   2.171
 1649SOL    HW1 4959   3.078   0.824   2.213
 1649SOL    HW2 4960   3.160   0.841   2.072
 1650SOL     OW 4961   3.621   1.747   3.016
 1650SOL    HW1 4962   3.682   1.777   2.943
 1650SOL    HW2 4963   3.583   1.658   2.994
 1651SOL     OW 4964   3.114   1.731   2.990
 1651SOL    HW1 4965   3.198   1.736   2.936
 1651SOL    HW2 4966   3.091   1.635   3.008
 1652SOL     OW 4967   1.945   1.258   2.884
 1652SOL    HW1 4968   1.940   1.257   2.984
 1652SOL    HW2 4969   1.862   1.217   2.846
 1653SOL     OW 4970   2.550   1.662   3.578
 1653SOL    HW1 4971   2.494   1.743   3.587
 1653SOL    HW2 4972   2.602   1.666   3.492
 1654SOL     OW 4973   3.588   0.135   2.385
 1654SOL    HW1 4974   3.661   0.118   2.318
 1654SOL    HW2 4975   3.557   0.048   2.423
 1655SOL     OW 4976   3.250   1.573   2.339
 1655SOL    HW1 4977   3.317   1.585   2.265
 1655SOL    HW2 4978   3.210   1.662   2.362
 1656SOL     OW 4979   1.992   1.794   3.713
 1656SOL    HW1 4980   1.951   1.720   3.766
 1656SOL    HW2 4981   2.056   1.845   3.771
 1657SOL     OW 4982   3.142   0.927   2.534
 1657SOL    HW1 4983   3.202   0.846   2.536
 1657SOL    HW2 4984   3.182   0.996   2.474
 1658SOL     OW 4985   2.692   1.273   3.284
 1658SOL    HW1 4986   2.687   1.306   3.379
 1658SOL    HW2 4987   2.606   1.292   3.238
 1659SOL     OW 4988   2.534   1.616   2.016
 1659SOL    HW1 4989   2.543   1.626   1.917
 1659SOL    HW2 4990   2.494   1.527   2.037
 1660SOL     OW 4991   3.512   1.720   3.256
 1660SOL    HW1 4992   3.565   1.730   3.172
 1660SOL    HW2 4993   3.485   1.810   3.290
 1661SOL     OW 4994   3.703   0.175   2.825
 1661SOL    HW1 4995   3.742   0.090   2.789
 1661SOL    HW2 4996   3.605   0.177   2.806
 1662SOL     OW 4997   2.125   0.326   2.582
 1662SOL    HW1 4998   2.046   0.377   2.548
 1662SOL    HW2 4999   2.116   0.311   2.680
 1663SOL     OW 5000   3.056   1.612   1.893
 1663SOL    HW1 5001   3.062   1.519   1.930
 1663SOL    HW2 5002   2.997   1.612   1.813
 1664SOL     OW 5003   2.684   1.002   3.234
 1664SOL    HW1 5004   2.724   1.001   3.142
 1664SOL    HW2 5005   2.694   1.094   3.274
 1665SOL     OW 5006   2.778   0.910   2.153
 1665SOL    HW1 5007   2.841   0.948   2.085
 1665SOL    HW2 5008   2.818   0.827   2.192
 1666SOL     OW 5009   3.366   1.607   1.906
 1666SOL    HW1 5010   3.274   1.644   1.913
 1666SOL    HW2 5011   3.404   1.627   1.816
 1667SOL     OW 5012   2.234   1.288   3.352
 1667SOL    HW1 5013   2.221   1.381   3.318
 1667SOL    HW2 5014   2.150   1.236   3.339
 1668SOL     OW 5015   3.476   1.292   3.151
 1668SOL    HW1 5016   3.536   1.295   3.231
 1668SOL    HW2 5017   3.401   1.356   3.164
 1669SOL     OW 5018   2.901   1.098   2.558
 1669SOL    HW1 5019   2.831   1.051   2.612
 1669SOL    HW2 5020   2.960   1.030   2.515
 1670SOL     OW 5021   2.876   0.236   2.833
 1670SOL    HW1 5022   2.868   0.200   2.740
 1670SOL    HW2 5023   2.874   0.160   2.898
 1671SOL     OW 5024   2.452   1.487   2.353
 1671SOL    HW1 5025   2.494   1.429   2.283
 1671SOL    HW2 5026   2.408   1.566   2.309
 1672SOL     OW 5027   3.571   0.385   3.243
 1672SOL    HW1 5028   3.644   0.454   3.247
 1672SOL    HW2 5029   3.599   0.310   3.184
 1673SOL     OW 5030   2.117   1.348   2.152
 1673SOL    HW1 5031   2.021   1.349   2.125
 1673SOL    HW2 5032   2.129   1.401   2.236
 1674SOL     OW 5033   1.967   1.013   3.588
 1674SOL    HW1 5034   1.890   0.980   3.642
 1674SOL    HW2 5035   2.052   0.983   3.630
 1675SOL     OW 5036   2.534   0.203   3.351
 1675SOL    HW1 5037   2.624   0.187   3.311
 1675SOL    HW2 5038   2.542   0.208   3.450
 1676SOL     OW 5039   1.937   0.345   1.895
 1676SOL    HW1 5040   1.845   0.317   1.866
 1676SOL    HW2 5041   1.968   0.422   1.839
 1677SOL     OW 5042   3.302   0.856   3.260
 1677SOL    HW1 5043   3.245   0.908   3.197
 1677SOL    HW2 5044   3.398   0.868   3.236
 1678SOL     OW 5045   1.934   0.166   2.180
 1678SOL    HW1 5046   1.917   0.249   2.126
 1678SOL    HW2 5047   2.024   0.129   2.158
 1679SOL     OW 5048   3.045   1.335   1.981
 1679SOL    HW1 5049   2.946   1.324   1.983
 1679SOL    HW2 5050   3.079   1.350   2.074
 1680SOL     OW 5051   2.475   0.842   3.293
 1680SOL    HW1 5052   2.531   0.923   3.276
 1680SOL    HW2 5053   2.534   0.762   3.296
 1681SOL     OW 5054   3.355   1.767   2.821
 1681SOL    HW1 5055   3.388   1.831   2.752
 1681SOL    HW2 5056   3.421   1.761   2.896
 1682SOL     OW 5057   2.578   0.565   3.570
 1682SOL    HW1 5058   2.597   0.630   3.644
 1682SOL    HW2 5059   2.638   0.485   3.579
 1683SOL     OW 5060   3.312   1.220   3.495
 1683SOL    HW1 5061   3.303   1.210   3.594
 1683SOL    HW2 5062   3.408   1.213   3.469
 1684SOL     OW 5063   2.252   1.741   3.422
 1684SOL    HW1 5064   2.161   1.782   3.420
 1684SOL    HW2 5065   2.245   1.647   3.454
 1685SOL     OW 5066   3.536   0.883   3.116
 1685SOL    HW1 5067   3.509   0.794   3.079
 1685SOL    HW2 5068   3.537   0.951   3.043
 1686SOL     OW 5069   3.087   0.325   2.311
 1686SOL    HW1 5070   3.152   0.251   2.300
 1686SOL    HW2 5071   3.107   0.375   2.395
 1687SOL     OW 5072   2.456   0.745   2.514
 1687SOL    HW1 5073   2.506   0.830   2.495
 1687SOL    HW2 5074   2.368   0.747   2.466
 1688SOL     OW 5075   3.639   0.342   3.504
 1688SOL    HW1 5076   3.622   0.373   3.410
 1688SOL    HW2 5077   3.555   0.305   3.542
 1689SOL     OW 5078   3.592   0.934   3.379
 1689SOL    HW1 5079   3.630   1.025   3.394
 1689SOL    HW2 5080   3.584   0.917   3.280
 1690SOL     OW 5081   2.721   1.374   1.878
 1690SOL    HW1 5082   2.675   1.389   1.966
 1690SOL    HW2 5083   2.765   1.459   1.848
 1691SOL     OW 5084   2.523   1.790   2.815
 1691SOL    HW1 5085   2.477   1.878   2.802
 1691SOL    HW2 5086   2.622   1.802   2.808
 1692SOL     OW 5087   2.721   0.956   2.723
 1692SOL    HW1 5088   2.775   0.887   2.771
 1692SOL    HW2 5089   2.689   1.025   2.789
 1693SOL     OW 5090   2.945   0.984   1.949
 1693SOL    HW1 5091   2.922   1.037   1.867
 1693SOL    HW2 5092   3.026   0.928   1.930
 1694SOL     OW 5093   3.723   1.569   2.713
 1694SOL    HW1 5094   3.652   1.557   2.643
 1694SOL    HW2 5095   3.724   1.490   2.773
 1695SOL     OW 5096   2.083   1.314   3.706
 1695SOL    HW1 5097   2.018   1.241   3.685
 1695SOL    HW2 5098   2.087   1.328   3.804
 1696SOL     OW 5099   1.941   1.240   2.515
 1696SOL    HW1 5100   1.940   1.193   2.603
 1696SOL    HW2 5101   2.023   1.212   2.464
 1697SOL     OW 5102   2.534   1.391   3.486
 1697SOL    HW1 5103   2.456   1.341   3.524
 1697SOL    HW2 5104   2.531   1.486   3.517
 1698SOL     OW 5105   3.686   0.192   3.089
 1698SOL    HW1 5106   3.682   0.102   3.133
 1698SOL    HW2 5107   3.689   0.181   2.990
 1699SOL     OW 5108   2.290   0.424   2.382
 1699SOL    HW1 5109   2.320   0.352   2.320
 1699SOL    HW2 5110   2.251   0.384   2.465
 1700SOL     OW 5111   3.567   1.487   2.966
 1700SOL    HW1 5112   3.474   1.462   2.939
 1700SOL    HW2 5113   3.593   1.437   3.048
 1701SOL     OW 5114   2.179   0.547   3.142
 1701SOL    HW1 5115   2.217   0.488   3.214
 1701SOL    HW2 5116   2.219   0.521   3.054
 1702SOL     OW 5117   2.674   1.586   2.549
 1702SOL    HW1 5118   2.706   1.596   2.455
 1702SOL    HW2 5119   2.595   1.524   2.551
 1703SOL     OW 5120   3.286   0.214   2.974
 1703SOL    HW1 5121   3.338   0.149   3.029
 1703SOL    HW2 5122   3.237   0.277   3.035
 1704SOL     OW 5123   2.863   0.034   3.016
 1704SOL    HW1 5124   2.800  -0.038   2.985
 1704SOL    HW2 5125   2.956  -0.002   3.016
 1705SOL     OW 5126   2.632   1.330   2.163
 1705SOL    HW1 5127   2.586   1.243   2.180
 1705SOL    HW2 5128   2.723   1.327   2.204
 1706SOL     OW 5129   2.480   1.567   3.146
 1706SOL    HW1 5130   2.475   1.649   3.203
 1706SOL    HW2 5131   2.569   1.564   3.101
 1707SOL     OW 5132   3.214   0.052   2.030
 1707SOL    HW1 5133   3.249   0.011   1.946
 1707SOL    HW2 5134   3.124   0.014   2.050
 1708SOL     OW 5135   3.162   0.453   2.553
 1708SOL    HW1 5136   3.103   0.533   2.557
 1708SOL    HW2 5137   3.177   0.418   2.646
 1709SOL     OW 5138   3.455   0.221   2.744
 1709SOL    HW1 5139   3.371   0.220   2.798
 1709SOL    HW2 5140   3.457   0.304   2.688
 1710SOL     OW 5141   1.901   1.077   2.162
 1710SOL    HW1 5142   2.000   1.066   2.153
 1710SOL    HW2 5143   1.861   0.991   2.194
 1711SOL     OW 5144   2.737   1.646   2.199
 1711SOL    HW1 5145   2.660   1.611   2.145
 1711SOL    HW2 5146   2.705   1.717   2.261
 1712SOL     OW 5147   2.092   0.628   3.837
 1712SOL    HW1 5148   1.999   0.626   3.874
 1712SOL    HW2 5149   2.093   0.589   3.745
 1713SOL     OW 5150   2.087   0.275   4.720
 1713SOL    HW1 5151   2.122   0.258   4.812
 1713SOL    HW2 5152   1.999   0.230   4.708
 1714SOL     OW 5153   1.881   0.368   4.371
 1714SOL    HW1 5154   1.799   0.411   4.410
 1714SOL    HW2 5155   1.853   0.295   4.308
 1715SOL     OW 5156   3.417   1.511   4.427
 1715SOL    HW1 5157   3.360   1.495   4.508
 1715SOL    HW2 5158   3.358   1.521   4.347
 1716SOL     OW 5159   2.997   0.703   4.441
 1716SOL    HW1 5160   3.054   0.781   4.416
 1716SOL    HW2 5161   2.937   0.729   4.517
 1717SOL     OW 5162   3.617   0.607   3.955
 1717SOL    HW1 5163   3.605   0.594   3.856
 1717SOL    HW2 5164   3.587   0.526   4.004
 1718SOL     OW 5165   2.547   1.012   4.389
 1718SOL    HW1 5166   2.616   0.996   4.459
 1718SOL    HW2 5167   2.474   1.069   4.427
 1719SOL     OW 5168   3.465   0.447   4.461
 1719SOL    HW1 5169   3.391   0.493   4.411
 1719SOL    HW2 5170   3.516   0.515   4.514
 1720SOL     OW 5171   2.093   1.713   4.207
 1720SOL    HW1 5172   2.127   1.790   4.261
 1720SOL    HW2 5173   2.137   1.713   4.117
 1721SOL     OW 5174   2.092   1.434   4.262
 1721SOL    HW1 5175   2.066   1.530   4.262
 1721SOL    HW2 5176   2.021   1.380   4.307
 1722SOL     OW 5177   2.102   1.091   4.610
 1722SOL    HW1 5178   2.116   1.007   4.662
 1722SOL    HW2 5179   2.047   1.155   4.665
 1723SOL     OW 5180   2.468   0.964   3.847
 1723SOL    HW1 5181   2.475   1.048   3.793
 1723SOL    HW2 5182   2.514   0.977   3.935
 1724SOL     OW 5183   1.984   0.643   4.287
 1724SOL    HW1 5184   1.939   0.555   4.304
 1724SOL    HW2 5185   1.983   0.697   4.371
 1725SOL     OW 5186   3.704   1.767   4.083
 1725SOL    HW1 5187   3.758   1.738   4.163
 1725SOL    HW2 5188   3.734   1.857   4.054
 1726SOL     OW 5189   1.889   1.596   3.841
 1726SOL    HW1 5190   1.870   1.500   3.862
 1726SOL    HW2 5191   1.856   1.654   3.916
 1727SOL     OW 5192   3.551   0.922   4.336
 1727SOL    HW1 5193   3.646   0.893   4.344
 1727SOL    HW2 5194   3.543   0.987   4.261
 1728SOL     OW 5195   3.503   1.108   4.156
 1728SOL    HW1 5196   3.589   1.110   4.104
 1728SOL    HW2 5197   3.517   1.155   4.244
 1729SOL     OW 5198   2.475   1.365   4.450
 1729SOL    HW1 5199   2.426   1.278   4.459
 1729SOL    HW2 5200   2.452   1.408   4.363
 1730SOL     OW 5201   2.671   0.004   4.226
 1730SOL    HW1 5202   2.711   0.095   4.217
 1730SOL    HW2 5203   2.571   0.012   4.232
 1731SOL     OW 5204   3.387   0.999   3.914
 1731SOL    HW1 5205   3.324   0.923   3.927
 1731SOL    HW2 5206   3.435   1.017   4.000
 1732SOL     OW 5207   3.529   1.714   4.296
 1732SOL    HW1 5208   3.488   1.691   4.208
 1732SOL    HW2 5209   3.511   1.640   4.361
 1733SOL     OW 5210   2.460   0.729   3.994
 1733SOL    HW1 5211   2.484   0.798   3.926
 1733SOL    HW2 5212   2.382   0.762   4.048
 1734SOL     OW 5213   3.143   0.345   4.668
 1734SOL    HW1 5214   3.057   0.295   4.655
 1734SOL    HW2 5215   3.205   0.291   4.724
 1735SOL     OW 5216   3.438   1.662   4.031
 1735SOL    HW1 5217   3.527   1.708   4.034
 1735SOL    HW2 5218   3.417   1.638   3.936
 1736SOL     OW 5219   2.903   0.701   4.153
 1736SOL    HW1 5220   2.929   0.697   4.249
 1736SOL    HW2 5221   2.818   0.650   4.139
 1737SOL     OW 5222   1.938   0.811   4.513
 1737SOL    HW1 5223   2.037   0.799   4.522
 1737SOL    HW2 5224   1.914   0.906   4.534
 1738SOL     OW 5225   2.727   0.348   3.919
 1738SOL    HW1 5226   2.786   0.411   3.870
 1738SOL    HW2 5227   2.746   0.254   3.890
 1739SOL     OW 5228   3.224   1.144   4.269
 1739SOL    HW1 5229   3.307   1.115   4.221
 1739SOL    HW2 5230   3.175   1.211   4.213
 1740SOL     OW 5231   2.870   1.456   4.201
 1740SOL    HW1 5232   2.824   1.528   4.149
 1740SOL    HW2 5233   2.866   1.476   4.299
 1741SOL     OW 5234   2.213   1.801   4.577
 1741SOL    HW1 5235   2.263   1.715   4.583
 1741SOL    HW2 5236   2.278   1.878   4.574
 1742SOL     OW 5237   3.657   1.066   4.597
 1742SOL    HW1 5238   3.595   1.051   4.521
 1742SOL    HW2 5239   3.605   1.077   4.682
 1743SOL     OW 5240   2.183   0.943   3.966
 1743SOL    HW1 5241   2.265   0.982   3.924
 1743SOL    HW2 5242   2.156   0.861   3.917
 1744SOL     OW 5243   3.320   0.735   4.452
 1744SOL    HW1 5244   3.315   0.670   4.527
 1744SOL    HW2 5245   3.400   0.794   4.465
 1745SOL     OW 5246   2.973   1.776   3.961
 1745SOL    HW1 5247   2.913   1.714   4.011
 1745SOL    HW2 5248   3.004   1.732   3.876
 1746SOL     OW 5249   3.494   1.377   3.805
 1746SOL    HW1 5250   3.462   1.471   3.795
 1746SOL    HW2 5251   3.418   1.314   3.793
 1747SOL     OW 5252   2.326   1.743   4.047
 1747SOL    HW1 5253   2.359   1.782   4.133
 1747SOL    HW2 5254   2.402   1.736   3.982
 1748SOL     OW 5255   3.262   0.107   4.150
 1748SOL    HW1 5256   3.238   0.070   4.060
 1748SOL    HW2 5257   3.361   0.123   4.154
 1749SOL     OW 5258   2.802   1.698   4.628
 1749SOL    HW1 5259   2.882   1.641   4.649
 1749SOL    HW2 5260   2.753   1.658   4.551
 1750SOL     OW 5261   2.244   0.700   4.204
 1750SOL    HW1 5262   2.289   0.610   4.201
 1750SOL    HW2 5263   2.150   0.689   4.237
 1751SOL     OW 5264   2.476   0.122   3.841
 1751SOL    HW1 5265   2.574   0.100   3.848
 1751SOL    HW2 5266   2.445   0.105   3.748
 1752SOL     OW 5267   2.401   0.064   4.236
 1752SOL    HW1 5268   2.320   0.065   4.294
 1752SOL    HW2 5269   2.404   0.147   4.181
 1753SOL     OW 5270   3.296   1.188   3.765
 1753SOL    HW1 5271   3.328   1.112   3.822
 1753SOL    HW2 5272   3.204   1.215   3.795
 1754SOL     OW 5273   2.159   0.035   3.895
 1754SOL    HW1 5274   2.208   0.119   3.874
 1754SOL    HW2 5275   2.221  -0.030   3.940
 1755SOL     OW 5276   2.797   0.236   4.204
 1755SOL    HW1 5277   2.749   0.277   4.126
 1755SOL    HW2 5278   2.896   0.234   4.185
 1756SOL     OW 5279   2.321   1.152   4.465
 1756SOL    HW1 5280   2.250   1.125   4.530
 1756SOL    HW2 5281   2.295   1.124   4.372
 1757SOL     OW 5282   3.133   1.797   4.315
 1757SOL    HW1 5283   3.177   1.861   4.251
 1757SOL    HW2 5284   3.083   1.849   4.385
 1758SOL     OW 5285   2.894   0.549   3.740
 1758SOL    HW1 5286   2.853   0.631   3.701
 1758SOL    HW2 5287   2.958   0.575   3.813
 1759SOL     OW 5288   2.728   0.454   4.366
 1759SOL    HW1 5289   2.696   0.526   4.304
 1759SOL    HW2 5290   2.752   0.373   4.313
 1760SOL     OW 5291   2.879   0.039   4.477
 1760SOL    HW1 5292   2.807   0.044   4.408
 1760SOL    HW2 5293   2.855  -0.030   4.546
 1761SOL     OW 5294   3.719   0.833   4.101
 1761SOL    HW1 5295   3.761   0.769   4.165
 1761SOL    HW2 5296   3.681   0.782   4.023
 1762SOL     OW 5297   2.350   1.385   3.898
 1762SOL    HW1 5298   2.263   1.370   3.945
 1762SOL    HW2 5299   2.333   1.411   3.803
 1763SOL     OW 5300   3.526   1.280   4.381
 1763SOL    HW1 5301   3.625   1.288   4.395
 1763SOL    HW2 5302   3.481   1.364   4.412
 1764SOL     OW 5303   3.252   0.575   3.802
 1764SOL    HW1 5304   3.198   0.554   3.883
 1764SOL    HW2 5305   3.343   0.534   3.811
 1765SOL     OW 5306   2.389   0.256   4.052
 1765SOL    HW1 5307   2.416   0.197   3.977
 1765SOL    HW2 5308   2.389   0.351   4.021
 1766SOL     OW 5309   2.567   1.050   4.092
 1766SOL    HW1 5310   2.553   1.057   4.191
 1766SOL    HW2 5311   2.651   0.999   4.074
 1767SOL     OW 5312   2.229   1.100   4.225
 1767SOL    HW1 5313   2.222   1.183   4.169
 1767SOL    HW2 5314   2.233   1.020   4.165
 1768SOL     OW 5315   3.114   1.348   4.112
 1768SOL    HW1 5316   3.164   1.425   4.152
 1768SOL    HW2 5317   3.019   1.350   4.144
 1769SOL     OW 5318   3.444   0.639   4.196
 1769SOL    HW1 5319   3.413   0.700   4.269
 1769SOL    HW2 5320   3.494   0.691   4.127
 1770SOL     OW 5321   3.071   0.525   3.999
 1770SOL    HW1 5322   3.084   0.441   4.053
 1770SOL    HW2 5323   3.042   0.599   4.059
 1771SOL     OW 5324   2.169   0.063   4.342
 1771SOL    HW1 5325   2.158   0.157   4.375
 1771SOL    HW2 5326   2.164   0.000   4.419
 1772SOL     OW 5327   3.484   0.367   4.098
 1772SOL    HW1 5328   3.486   0.291   4.162
 1772SOL    HW2 5329   3.436   0.444   4.138
 1773SOL     OW 5330   3.402   0.274   3.849
 1773SOL    HW1 5331   3.341   0.199   3.872
 1773SOL    HW2 5332   3.424   0.326   3.932
 1774SOL     OW 5333   3.165   0.838   3.766
 1774SOL    HW1 5334   3.199   0.745   3.781
 1774SOL    HW2 5335   3.183   0.865   3.671
 1775SOL     OW 5336   1.870   1.326   3.924
 1775SOL    HW1 5337   1.777   1.347   3.893
 1775SOL    HW2 5338   1.880   1.227   3.937
 1776SOL     OW 5339   2.677   0.572   4.049
 1776SOL    HW1 5340   2.684   0.483   4.003
 1776SOL    HW2 5341   2.583   0.606   4.041
 1777SOL     OW 5342   2.335   0.500   3.915
 1777SOL    HW1 5343   2.396   0.580   3.919
 1777SOL    HW2 5344   2.240   0.531   3.922
 1778SOL     OW 5345   3.164   0.855   4.033
 1778SOL    HW1 5346   3.078   0.824   4.075
 1778SOL    HW2 5347   3.160   0.841   3.934
 1779SOL     OW 5348   3.588   0.135   4.247
 1779SOL    HW1 5349   3.661   0.118   4.180
 1779SOL    HW2 5350   3.557   0.048   4.285
 1780SOL     OW 5351   3.250   1.573   4.201
 1780SOL    HW1 5352   3.317   1.585   4.127
 1780SOL    HW2 5353   3.210   1.662   4.224
 1781SOL     OW 5354   3.142   0.927   4.396
 1781SOL    HW1 5355   3.202   0.846   4.398
 1781SOL    HW2 5356   3.182   0.996   4.336
 1782SOL     OW 5357   2.534   1.616   3.878
 1782SOL    HW1 5358   2.543   1.626   3.779
 1782SOL    HW2 5359   2.494   1.527   3.899
 1783SOL     OW 5360   3.703   0.175   4.687
 1783SOL    HW1 5361   3.742   0.090   4.651
 1783SOL    HW2 5362   3.605   0.177   4.668
 1784SOL     OW 5363   2.125   0.326   4.444
 1784SOL    HW1 5364   2.046   0.377   4.410
 1784SOL    HW2 5365   2.116   0.311   4.542
 1785SOL     OW 5366   3.056   1.612   3.755
 1785SOL    HW1 5367   3.062   1.519   3.792
 1785SOL    HW2 5368   2.997   1.612   3.675
 1786SOL     OW 5369   2.778   0.910   4.015
 1786SOL    HW1 5370   2.841   0.948   3.947
 1786SOL    HW2 5371   2.818   0.827   4.054
 1787SOL     OW 5372   3.366   1.607   3.768
 1787SOL    HW1 5373   3.274   1.644   3.775
 1787SOL    HW2 5374   3.404   1.627   3.678
 1788SOL     OW 5375   2.901   1.098   4.420
 1788SOL    HW1 5376   2.831   1.051   4.474
 1788SOL    HW2 5377   2.960   1.030   4.377
 1789SOL     OW 5378   2.452   1.487   4.215
 1789SOL    HW1 5379   2.494   1.429   4.145
 1789SOL    HW2 5380   2.408   1.566   4.171
 1790SOL     OW 5381   2.117   1.348   4.014
 1790SOL    HW1 5382   2.021   1.349   3.987
 1790SOL    HW2 5383   2.129   1.401   4.098
 1791SOL     OW 5384   1.937   0.345   3.757
 1791SOL    HW1 5385   1.845   0.317   3.728
 1791SOL    HW2 5386   1.968   0.422   3.701
 1792SOL     OW 5387   1.934   0.166   4.042
 1792SOL    HW1 5388   1.917   0.249   3.988
 1792SOL    HW2 5389   2.024   0.129   4.020
 1793SOL     OW 5390   3.045   1.335   3.843
 1793SOL    HW1 5391   2.946   1.324   3.845
 1793SOL    HW2 5392   3.079   1.350   3.936
 1794SOL     OW 5393   3.087   0.325   4.173
 1794SOL    HW1 5394   3.152   0.251   4.162
 1794SOL    HW2 5395   3.107   0.375   4.257
 1795SOL     OW 5396   2.456   0.745   4.376
 1795SOL    HW1 5397   2.506   0.830   4.357
 1795SOL    HW2 5398   2.368   0.747   4.328
 1796SOL     OW 5399   2.721   1.374   3.740
 1796SOL    HW1 5400   2.675   1.389   3.828
 1796SOL    HW2 5401   2.765   1.459   3.710
 1797SOL     OW 5402   2.523   1.790   4.677
 1797SOL    HW1 5403   2.477   1.878   4.664
 1797SOL    HW2 5404   2.622   1.802   4.670
 1798SOL     OW 5405   2.721   0.956   4.585
 1798SOL    HW1 5406   2.775   0.887   4.633
 1798SOL    HW2 5407   2.689   1.025   4.651
 1799SOL     OW 5408   2.945   0.984   3.811
 1799SOL    HW1 5409   2.922   1.037   3.729
 1799SOL    HW2 5410   3.026   0.928   3.792
 1800SOL     OW 5411   1.941   1.240   4.377
 1800SOL    HW1 5412   1.940   1.193   4.465
 1800SOL    HW2 5413   2.023   1.212   4.326
 1801SOL     OW 5414   2.290   0.424   4.244
 1801SOL    HW1 5415   2.320   0.352   4.182
 1801SOL    HW2 5416   2.251   0.384   4.327
 1802SOL     OW 5417   3.567   1.487   4.828
 1802SOL    HW1 5418   3.474   1.462   4.801
 1802SOL    HW2 5419   3.593   1.437   4.910
 1803SOL     OW 5420   2.674   1.586   4.411
 1803SOL    HW1 5421   2.706   1.596   4.317
 1803SOL    HW2 5422   2.595   1.524   4.413
 1804SOL     OW 5423   2.632   1.330   4.025
 1804SOL    HW1 5424   2.586   1.243   4.042
 1804SOL    HW2 5425   2.723   1.327   4.066
 1805SOL     OW 5426   3.214   0.052   3.892
 1805SOL    HW1 5427   3.249   0.011   3.808
 1805SOL    HW2 5428   3.124   0.014   3.912
 1806SOL     OW 5429   3.162   0.453   4.415
 1806SOL    HW1 5430   3.103   0.533   4.419
 1806SOL    HW2 5431   3.177   0.418   4.508
 1807SOL     OW 5432   1.901   1.077   4.024
 1807SOL    HW1 5433   2.000   1.066   4.015
 1807SOL    HW2 5434   1.861   0.991   4.056
 1808SOL     OW 5435   2.737   1.646   4.061
 1808SOL    HW1 5436   2.660   1.611   4.007
 1808SOL    HW2 5437   2.705   1.717   4.123
 1809SOL     OW 5438   2.092   2.490   0.113
 1809SOL    HW1 5439   1.999   2.488   0.150
 1809SOL    HW2 5440   2.093   2.451   0.021
 1810SOL     OW 5441   2.087   2.137   0.996
 1810SOL    HW1 5442   2.122   2.120   1.088
 1810SOL    HW2 5443   1.999   2.092   0.984
 1811SOL     OW 5444   1.881   2.230   0.647
 1811SOL    HW1 5445   1.799   2.273   0.686
 1811SOL    HW2 5446   1.853   2.157   0.584
 1812SOL     OW 5447   2.431   3.137   1.165
 1812SOL    HW1 5448   2.338   3.130   1.128
 1812SOL    HW2 5449   2.442   3.226   1.209
 1813SOL     OW 5450   3.417   3.373   0.703
 1813SOL    HW1 5451   3.360   3.357   0.784
 1813SOL    HW2 5452   3.358   3.383   0.623
 1814SOL     OW 5453   2.997   2.565   0.717
 1814SOL    HW1 5454   3.054   2.643   0.692
 1814SOL    HW2 5455   2.937   2.591   0.793
 1815SOL     OW 5456   3.617   2.469   0.231
 1815SOL    HW1 5457   3.605   2.456   0.132
 1815SOL    HW2 5458   3.587   2.388   0.280
 1816SOL     OW 5459   2.630   3.006   1.023
 1816SOL    HW1 5460   2.552   3.023   1.083
 1816SOL    HW2 5461   2.664   3.093   0.987
 1817SOL     OW 5462   2.712   2.660   1.823
 1817SOL    HW1 5463   2.708   2.736   1.888
 1817SOL    HW2 5464   2.734   2.696   1.732
 1818SOL     OW 5465   2.547   2.874   0.665
 1818SOL    HW1 5466   2.616   2.858   0.735
 1818SOL    HW2 5467   2.474   2.931   0.703
 1819SOL     OW 5468   2.548   3.023   1.803
 1819SOL    HW1 5469   2.608   3.102   1.817
 1819SOL    HW2 5470   2.462   3.054   1.762
 1820SOL     OW 5471   2.197   3.297   1.061
 1820SOL    HW1 5472   2.119   3.266   1.008
 1820SOL    HW2 5473   2.255   3.355   1.004
 1821SOL     OW 5474   3.322   3.367   1.339
 1821SOL    HW1 5475   3.346   3.461   1.365
 1821SOL    HW2 5476   3.306   3.313   1.421
 1822SOL     OW 5477   2.300   2.254   1.499
 1822SOL    HW1 5478   2.382   2.198   1.508
 1822SOL    HW2 5479   2.219   2.196   1.503
 1823SOL     OW 5480   3.465   2.309   0.737
 1823SOL    HW1 5481   3.391   2.355   0.687
 1823SOL    HW2 5482   3.516   2.377   0.790
 1824SOL     OW 5483   2.093   3.575   0.483
 1824SOL    HW1 5484   2.127   3.652   0.537
 1824SOL    HW2 5485   2.137   3.575   0.393
 1825SOL     OW 5486   2.989   3.203   1.690
 1825SOL    HW1 5487   3.036   3.203   1.778
 1825SOL    HW2 5488   2.941   3.116   1.679
 1826SOL     OW 5489   2.092   3.296   0.538
 1826SOL    HW1 5490   2.066   3.392   0.538
 1826SOL    HW2 5491   2.021   3.242   0.583
 1827SOL     OW 5492   2.102   2.953   0.886
 1827SOL    HW1 5493   2.116   2.869   0.938
 1827SOL    HW2 5494   2.047   3.017   0.941
 1828SOL     OW 5495   2.482   3.648   1.439
 1828SOL    HW1 5496   2.390   3.631   1.474
 1828SOL    HW2 5497   2.510   3.740   1.465
 1829SOL     OW 5498   2.468   2.826   0.123
 1829SOL    HW1 5499   2.475   2.910   0.069
 1829SOL    HW2 5500   2.514   2.839   0.211
 1830SOL     OW 5501   3.456   1.976   1.480
 1830SOL    HW1 5502   3.438   2.043   1.408
 1830SOL    HW2 5503   3.453   2.022   1.569
 1831SOL     OW 5504   1.984   2.505   0.563
 1831SOL    HW1 5505   1.939   2.417   0.580
 1831SOL    HW2 5506   1.983   2.559   0.647
 1832SOL     OW 5507   3.704   3.629   0.359
 1832SOL    HW1 5508   3.758   3.600   0.439
 1832SOL    HW2 5509   3.734   3.719   0.330
 1833SOL     OW 5510   1.889   3.458   0.117
 1833SOL    HW1 5511   1.870   3.362   0.138
 1833SOL    HW2 5512   1.856   3.516   0.192
 1834SOL     OW 5513   3.551   2.784   0.612
 1834SOL    HW1 5514   3.646   2.755   0.620
 1834SOL    HW2 5515   3.543   2.849   0.537
 1835SOL     OW 5516   3.503   2.970   0.432
 1835SOL    HW1 5517   3.589   2.972   0.380
 1835SOL    HW2 5518   3.517   3.017   0.520
 1836SOL     OW 5519   1.975   2.599   1.597
 1836SOL    HW1 5520   2.063   2.586   1.642
 1836SOL    HW2 5521   1.962   2.696   1.575
 1837SOL     OW 5522   2.475   3.227   0.726
 1837SOL    HW1 5523   2.426   3.140   0.735
 1837SOL    HW2 5524   2.452   3.270   0.639
 1838SOL     OW 5525   3.155   3.090   1.423
 1838SOL    HW1 5526   3.192   3.017   1.365
 1838SOL    HW2 5527   3.207   3.095   1.508
 1839SOL     OW 5528   2.671   1.866   0.502
 1839SOL    HW1 5529   2.711   1.957   0.493
 1839SOL    HW2 5530   2.571   1.874   0.508
 1840SOL     OW 5531   2.059   2.838   1.264
 1840SOL    HW1 5532   2.148   2.793   1.250
 1840SOL    HW2 5533   1.986   2.773   1.245
 1841SOL     OW 5534   3.387   2.861   0.190
 1841SOL    HW1 5535   3.324   2.785   0.203
 1841SOL    HW2 5536   3.435   2.879   0.276
 1842SOL     OW 5537   3.049   3.654   1.616
 1842SOL    HW1 5538   3.073   3.714   1.540
 1842SOL    HW2 5539   3.056   3.559   1.586
 1843SOL     OW 5540   2.179   2.113   1.801
 1843SOL    HW1 5541   2.250   2.184   1.807
 1843SOL    HW2 5542   2.091   2.152   1.829
 1844SOL     OW 5543   3.328   3.279   0.953
 1844SOL    HW1 5544   3.269   3.285   1.033
 1844SOL    HW2 5545   3.313   3.191   0.907
 1845SOL     OW 5546   3.529   3.576   0.572
 1845SOL    HW1 5547   3.488   3.553   0.484
 1845SOL    HW2 5548   3.511   3.502   0.637
 1846SOL     OW 5549   2.460   2.591   0.270
 1846SOL    HW1 5550   2.484   2.660   0.202
 1846SOL    HW2 5551   2.382   2.624   0.324
 1847SOL     OW 5552   3.143   2.207   0.944
 1847SOL    HW1 5553   3.057   2.157   0.931
 1847SOL    HW2 5554   3.205   2.153   1.000
 1848SOL     OW 5555   3.438   3.524   0.307
 1848SOL    HW1 5556   3.527   3.570   0.310
 1848SOL    HW2 5557   3.417   3.500   0.212
 1849SOL     OW 5558   2.669   2.467   1.465
 1849SOL    HW1 5559   2.622   2.464   1.554
 1849SOL    HW2 5560   2.618   2.412   1.399
 1850SOL     OW 5561   3.256   2.331   1.674
 1850SOL    HW1 5562   3.236   2.374   1.762
 1850SOL    HW2 5563   3.334   2.269   1.683
 1851SOL     OW 5564   2.835   2.752   1.572
 1851SOL    HW1 5565   2.881   2.668   1.543
 1851SOL    HW2 5566   2.779   2.786   1.497
 1852SOL     OW 5567   2.853   2.272   1.242
 1852SOL    HW1 5568   2.776   2.306   1.296
 1852SOL    HW2 5569   2.819   2.221   1.163
 1853SOL     OW 5570   2.903   2.563   0.429
 1853SOL    HW1 5571   2.929   2.559   0.525
 1853SOL    HW2 5572   2.818   2.512   0.415
 1854SOL     OW 5573   1.938   2.673   0.789
 1854SOL    HW1 5574   2.037   2.661   0.798
 1854SOL    HW2 5575   1.914   2.768   0.810
 1855SOL     OW 5576   1.992   3.683   1.571
 1855SOL    HW1 5577   1.982   3.668   1.670
 1855SOL    HW2 5578   1.906   3.719   1.535
 1856SOL     OW 5579   2.727   2.210   0.195
 1856SOL    HW1 5580   2.786   2.273   0.146
 1856SOL    HW2 5581   2.746   2.116   0.166
 1857SOL     OW 5582   3.581   2.447   1.831
 1857SOL    HW1 5583   3.555   2.536   1.795
 1857SOL    HW2 5584   3.579   2.379   1.758
 1858SOL     OW 5585   3.224   3.006   0.545
 1858SOL    HW1 5586   3.307   2.977   0.497
 1858SOL    HW2 5587   3.175   3.073   0.489
 1859SOL     OW 5588   2.412   2.058   0.885
 1859SOL    HW1 5589   2.407   2.053   0.985
 1859SOL    HW2 5590   2.414   2.154   0.856
 1860SOL     OW 5591   2.870   3.318   0.477
 1860SOL    HW1 5592   2.824   3.390   0.425
 1860SOL    HW2 5593   2.866   3.338   0.575
 1861SOL     OW 5594   2.213   3.663   0.853
 1861SOL    HW1 5595   2.263   3.577   0.859
 1861SOL    HW2 5596   2.278   3.740   0.850
 1862SOL     OW 5597   3.657   2.928   0.873
 1862SOL    HW1 5598   3.595   2.913   0.797
 1862SOL    HW2 5599   3.605   2.939   0.958
 1863SOL     OW 5600   3.089   3.412   1.506
 1863SOL    HW1 5601   3.095   3.335   1.570
 1863SOL    HW2 5602   3.037   3.386   1.426
 1864SOL     OW 5603   2.183   2.805   0.242
 1864SOL    HW1 5604   2.265   2.844   0.200
 1864SOL    HW2 5605   2.156   2.723   0.193
 1865SOL     OW 5606   3.320   2.597   0.728
 1865SOL    HW1 5607   3.315   2.532   0.803
 1865SOL    HW2 5608   3.400   2.656   0.741
 1866SOL     OW 5609   2.323   3.128   1.727
 1866SOL    HW1 5610   2.273   3.129   1.641
 1866SOL    HW2 5611   2.260   3.110   1.803
 1867SOL     OW 5612   2.973   3.638   0.237
 1867SOL    HW1 5613   2.913   3.576   0.287
 1867SOL    HW2 5614   3.004   3.594   0.152
 1868SOL     OW 5615   2.064   2.147   1.498
 1868SOL    HW1 5616   1.984   2.207   1.485
 1868SOL    HW2 5617   2.054   2.098   1.584
 1869SOL     OW 5618   3.494   3.239   0.081
 1869SOL    HW1 5619   3.462   3.333   0.071
 1869SOL    HW2 5620   3.418   3.176   0.069
 1870SOL     OW 5621   2.326   3.605   0.323
 1870SOL    HW1 5622   2.359   3.644   0.409
 1870SOL    HW2 5623   2.402   3.598   0.258
 1871SOL     OW 5624   3.262   1.969   0.426
 1871SOL    HW1 5625   3.238   1.932   0.336
 1871SOL    HW2 5626   3.361   1.985   0.430
 1872SOL     OW 5627   2.111   3.647   1.241
 1872SOL    HW1 5628   2.168   3.582   1.291
 1872SOL    HW2 5629   2.095   3.614   1.148
 1873SOL     OW 5630   2.802   3.560   0.904
 1873SOL    HW1 5631   2.882   3.503   0.925
 1873SOL    HW2 5632   2.753   3.520   0.827
 1874SOL     OW 5633   2.244   2.562   0.480
 1874SOL    HW1 5634   2.289   2.472   0.477
 1874SOL    HW2 5635   2.150   2.551   0.513
 1875SOL     OW 5636   3.409   2.084   1.729
 1875SOL    HW1 5637   3.404   2.121   1.821
 1875SOL    HW2 5638   3.337   2.015   1.717
 1876SOL     OW 5639   2.643   2.126   1.749
 1876SOL    HW1 5640   2.710   2.065   1.792
 1876SOL    HW2 5641   2.570   2.145   1.814
 1877SOL     OW 5642   2.750   3.376   1.195
 1877SOL    HW1 5643   2.727   3.351   1.101
 1877SOL    HW2 5644   2.811   3.307   1.234
 1878SOL     OW 5645   3.213   2.452   1.433
 1878SOL    HW1 5646   3.241   2.409   1.518
 1878SOL    HW2 5647   3.238   2.548   1.434
 1879SOL     OW 5648   2.665   3.264   0.924
 1879SOL    HW1 5649   2.755   3.278   0.882
 1879SOL    HW2 5650   2.594   3.266   0.853
 1880SOL     OW 5651   2.784   2.365   0.899
 1880SOL    HW1 5652   2.759   2.356   0.803
 1880SOL    HW2 5653   2.832   2.283   0.930
 1881SOL     OW 5654   2.401   1.926   0.512
 1881SOL    HW1 5655   2.320   1.927   0.570
 1881SOL    HW2 5656   2.404   2.009   0.457
 1882SOL     OW 5657   3.296   3.050   0.041
 1882SOL    HW1 5658   3.328   2.974   0.098
 1882SOL    HW2 5659   3.204   3.077   0.071
 1883SOL     OW 5660   2.159   1.897   0.171
 1883SOL    HW1 5661   2.208   1.981   0.150
 1883SOL    HW2 5662   2.221   1.832   0.216
 1884SOL     OW 5663   2.797   2.098   0.480
 1884SOL    HW1 5664   2.749   2.139   0.402
 1884SOL    HW2 5665   2.896   2.096   0.461
 1885SOL     OW 5666   2.938   2.545   1.464
 1885SOL    HW1 5667   2.858   2.484   1.467
 1885SOL    HW2 5668   3.019   2.492   1.440
 1886SOL     OW 5669   3.089   3.432   0.793
 1886SOL    HW1 5670   3.110   3.506   0.728
 1886SOL    HW2 5671   3.157   3.432   0.866
 1887SOL     OW 5672   2.321   3.014   0.741
 1887SOL    HW1 5673   2.250   2.987   0.806
 1887SOL    HW2 5674   2.295   2.986   0.648
 1888SOL     OW 5675   3.133   3.659   0.591
 1888SOL    HW1 5676   3.177   3.723   0.527
 1888SOL    HW2 5677   3.083   3.711   0.661
 1889SOL     OW 5678   2.894   2.411   0.016
 1889SOL    HW1 5679   2.853   2.493  -0.023
 1889SOL    HW2 5680   2.958   2.437   0.089
 1890SOL     OW 5681   1.940   2.418   1.386
 1890SOL    HW1 5682   2.032   2.417   1.345
 1890SOL    HW2 5683   1.934   2.492   1.453
 1891SOL     OW 5684   2.423   2.084   1.147
 1891SOL    HW1 5685   2.461   2.000   1.184
 1891SOL    HW2 5686   2.335   2.103   1.191
 1892SOL     OW 5687   2.728   2.316   0.642
 1892SOL    HW1 5688   2.696   2.388   0.580
 1892SOL    HW2 5689   2.752   2.235   0.589
 1893SOL     OW 5690   2.879   1.901   0.753
 1893SOL    HW1 5691   2.807   1.906   0.684
 1893SOL    HW2 5692   2.855   1.832   0.822
 1894SOL     OW 5693   3.291   3.035   0.867
 1894SOL    HW1 5694   3.236   2.951   0.860
 1894SOL    HW2 5695   3.317   3.064   0.775
 1895SOL     OW 5696   3.328   2.452   0.992
 1895SOL    HW1 5697   3.298   2.357   0.999
 1895SOL    HW2 5698   3.401   2.468   1.058
 1896SOL     OW 5699   3.719   2.695   0.377
 1896SOL    HW1 5700   3.761   2.631   0.441
 1896SOL    HW2 5701   3.681   2.644   0.299
 1897SOL     OW 5702   2.350   3.247   0.174
 1897SOL    HW1 5703   2.263   3.232   0.221
 1897SOL    HW2 5704   2.333   3.273   0.079
 1898SOL     OW 5705   3.526   3.142   0.657
 1898SOL    HW1 5706   3.625   3.150   0.671
 1898SOL    HW2 5707   3.481   3.226   0.688
 1899SOL     OW 5708   3.252   2.437   0.078
 1899SOL    HW1 5709   3.198   2.416   0.159
 1899SOL    HW2 5710   3.343   2.396   0.087
 1900SOL     OW 5711   2.389   2.118   0.328
 1900SOL    HW1 5712   2.416   2.059   0.253
 1900SOL    HW2 5713   2.389   2.213   0.297
 1901SOL     OW 5714   3.616   3.085   1.588
 1901SOL    HW1 5715   3.707   3.046   1.575
 1901SOL    HW2 5716   3.624   3.181   1.612
 1902SOL     OW 5717   2.926   3.209   1.340
 1902SOL    HW1 5718   2.846   3.186   1.395
 1902SOL    HW2 5719   3.009   3.183   1.389
 1903SOL     OW 5720   3.454   3.491   1.625
 1903SOL    HW1 5721   3.481   3.525   1.535
 1903SOL    HW2 5722   3.533   3.453   1.671
 1904SOL     OW 5723   2.973   3.057   1.100
 1904SOL    HW1 5724   2.933   3.101   1.181
 1904SOL    HW2 5725   2.932   3.094   1.017
 1905SOL     OW 5726   3.500   2.961   1.079
 1905SOL    HW1 5727   3.505   3.042   1.138
 1905SOL    HW2 5728   3.414   2.963   1.028
 1906SOL     OW 5729   2.777   1.951   1.402
 1906SOL    HW1 5730   2.802   1.931   1.307
 1906SOL    HW2 5731   2.849   2.007   1.444
 1907SOL     OW 5732   2.842   2.978   1.719
 1907SOL    HW1 5733   2.743   2.984   1.729
 1907SOL    HW2 5734   2.865   2.898   1.663
 1908SOL     OW 5735   2.567   2.912   0.368
 1908SOL    HW1 5736   2.553   2.919   0.467
 1908SOL    HW2 5737   2.651   2.861   0.350
 1909SOL     OW 5738   2.272   2.675   1.251
 1909SOL    HW1 5739   2.358   2.687   1.301
 1909SOL    HW2 5740   2.230   2.588   1.278
 1910SOL     OW 5741   3.136   2.248   1.262
 1910SOL    HW1 5742   3.157   2.322   1.326
 1910SOL    HW2 5743   3.047   2.265   1.219
 1911SOL     OW 5744   1.926   3.426   1.331
 1911SOL    HW1 5745   1.880   3.508   1.297
 1911SOL    HW2 5746   2.024   3.445   1.340
 1912SOL     OW 5747   2.229   2.962   0.501
 1912SOL    HW1 5748   2.222   3.045   0.445
 1912SOL    HW2 5749   2.233   2.882   0.441
 1913SOL     OW 5750   2.428   2.399   0.865
 1913SOL    HW1 5751   2.440   2.465   0.791
 1913SOL    HW2 5752   2.474   2.433   0.948
 1914SOL     OW 5753   3.114   3.210   0.388
 1914SOL    HW1 5754   3.164   3.287   0.428
 1914SOL    HW2 5755   3.019   3.212   0.420
 1915SOL     OW 5756   3.134   3.307   1.142
 1915SOL    HW1 5757   3.181   3.320   1.229
 1915SOL    HW2 5758   3.068   3.233   1.151
 1916SOL     OW 5759   3.444   2.501   0.472
 1916SOL    HW1 5760   3.413   2.562   0.545
 1916SOL    HW2 5761   3.494   2.553   0.403
 1917SOL     OW 5762   2.216   3.372   1.329
 1917SOL    HW1 5763   2.195   3.328   1.242
 1917SOL    HW2 5764   2.313   3.398   1.332
 1918SOL     OW 5765   2.264   2.613   1.598
 1918SOL    HW1 5766   2.332   2.668   1.551
 1918SOL    HW2 5767   2.304   2.525   1.625
 1919SOL     OW 5768   3.449   2.641   1.670
 1919SOL    HW1 5769   3.357   2.679   1.665
 1919SOL    HW2 5770   3.509   2.688   1.605
 1920SOL     OW 5771   2.875   1.967   1.770
 1920SOL    HW1 5772   2.881   2.052   1.718
 1920SOL    HW2 5773   2.907   1.891   1.713
 1921SOL     OW 5774   2.366   1.912   1.740
 1921SOL    HW1 5775   2.324   1.855   1.670
 1921SOL    HW2 5776   2.300   1.981   1.772
 1922SOL     OW 5777   2.435   2.732   1.029
 1922SOL    HW1 5778   2.479   2.821   1.020
 1922SOL    HW2 5779   2.372   2.732   1.106
 1923SOL     OW 5780   3.222   2.724   1.045
 1923SOL    HW1 5781   3.147   2.724   0.979
 1923SOL    HW2 5782   3.259   2.632   1.054
 1924SOL     OW 5783   3.071   2.387   0.275
 1924SOL    HW1 5784   3.084   2.303   0.329
 1924SOL    HW2 5785   3.042   2.461   0.335
 1925SOL     OW 5786   2.169   2.075   1.231
 1925SOL    HW1 5787   2.146   2.112   1.321
 1925SOL    HW2 5788   2.139   1.980   1.225
 1926SOL     OW 5789   1.899   3.172   1.282
 1926SOL    HW1 5790   1.952   3.123   1.350
 1926SOL    HW2 5791   1.921   3.270   1.287
 1927SOL     OW 5792   2.594   2.496   1.064
 1927SOL    HW1 5793   2.653   2.470   0.988
 1927SOL    HW2 5794   2.566   2.592   1.053
 1928SOL     OW 5795   3.590   2.797   1.854
 1928SOL    HW1 5796   3.544   2.790   1.765
 1928SOL    HW2 5797   3.528   2.841   1.920
 1929SOL     OW 5798   2.169   1.925   0.618
 1929SOL    HW1 5799   2.158   2.019   0.651
 1929SOL    HW2 5800   2.164   1.862   0.695
 1930SOL     OW 5801   3.484   2.229   0.374
 1930SOL    HW1 5802   3.486   2.153   0.438
 1930SOL    HW2 5803   3.436   2.306   0.414
 1931SOL     OW 5804   2.885   2.628   0.966
 1931SOL    HW1 5805   2.900   2.649   1.062
 1931SOL    HW2 5806   2.855   2.533   0.957
 1932SOL     OW 5807   2.842   3.435   1.700
 1932SOL    HW1 5808   2.822   3.479   1.612
 1932SOL    HW2 5809   2.881   3.344   1.684
 1933SOL     OW 5810   3.721   3.380   1.605
 1933SOL    HW1 5811   3.735   3.407   1.510
 1933SOL    HW2 5812   3.804   3.402   1.658
 1934SOL     OW 5813   2.212   2.760   1.804
 1934SOL    HW1 5814   2.288   2.804   1.852
 1934SOL    HW2 5815   2.247   2.713   1.722
 1935SOL     OW 5816   3.402   2.136   0.125
 1935SOL    HW1 5817   3.341   2.061   0.148
 1935SOL    HW2 5818   3.424   2.188   0.208
 1936SOL     OW 5819   3.165   2.700   0.042
 1936SOL    HW1 5820   3.199   2.607   0.057
 1936SOL    HW2 5821   3.183   2.727  -0.053
 1937SOL     OW 5822   2.930   3.195   0.849
 1937SOL    HW1 5823   2.937   3.111   0.794
 1937SOL    HW2 5824   2.992   3.264   0.813
 1938SOL     OW 5825   2.181   2.672   0.949
 1938SOL    HW1 5826   2.274   2.708   0.954
 1938SOL    HW2 5827   2.175   2.587   1.001
 1939SOL     OW 5828   2.201   2.371   1.006
 1939SOL    HW1 5829   2.149   2.288   0.989
 1939SOL    HW2 5830   2.278   2.376   0.942
 1940SOL     OW 5831   3.000   2.242   1.678
 1940SOL    HW1 5832   2.955   2.305   1.742
 1940SOL    HW2 5833   3.093   2.273   1.661
 1941SOL     OW 5834   3.022   2.069   1.477
 1941SOL    HW1 5835   3.022   2.133   1.554
 1941SOL    HW2 5836   3.050   2.117   1.394
 1942SOL     OW 5837   1.870   3.188   0.200
 1942SOL    HW1 5838   1.777   3.209   0.169
 1942SOL    HW2 5839   1.880   3.089   0.213
 1943SOL     OW 5840   1.950   3.663   0.927
 1943SOL    HW1 5841   1.908   3.577   0.900
 1943SOL    HW2 5842   2.044   3.666   0.893
 1944SOL     OW 5843   2.366   3.430   0.910
 1944SOL    HW1 5844   2.432   3.504   0.919
 1944SOL    HW2 5845   2.410   3.351   0.868
 1945SOL     OW 5846   2.864   2.658   1.238
 1945SOL    HW1 5847   2.905   2.626   1.324
 1945SOL    HW2 5848   2.768   2.631   1.235
 1946SOL     OW 5849   1.902   2.406   1.114
 1946SOL    HW1 5850   1.987   2.373   1.073
 1946SOL    HW2 5851   1.915   2.421   1.212
 1947SOL     OW 5852   2.051   2.382   1.722
 1947SOL    HW1 5853   2.110   2.342   1.652
 1947SOL    HW2 5854   1.993   2.453   1.681
 1948SOL     OW 5855   3.231   2.812   1.660
 1948SOL    HW1 5856   3.270   2.901   1.680
 1948SOL    HW2 5857   3.241   2.792   1.563
 1949SOL     OW 5858   2.677   2.434   0.325
 1949SOL    HW1 5859   2.684   2.345   0.279
 1949SOL    HW2 5860   2.583   2.468   0.317
 1950SOL     OW 5861   3.519   2.466   1.206
 1950SOL    HW1 5862   3.481   2.397   1.268
 1950SOL    HW2 5863   3.601   2.430   1.162
 1951SOL     OW 5864   2.114   3.426   1.744
 1951SOL    HW1 5865   2.084   3.483   1.820
 1951SOL    HW2 5866   2.107   3.329   1.770
 1952SOL     OW 5867   2.533   2.326   1.269
 1952SOL    HW1 5868   2.499   2.237   1.239
 1952SOL    HW2 5869   2.559   2.380   1.189
 1953SOL     OW 5870   2.792   3.540   1.465
 1953SOL    HW1 5871   2.768   3.522   1.370
 1953SOL    HW2 5872   2.822   3.634   1.475
 1954SOL     OW 5873   2.335   2.362   0.191
 1954SOL    HW1 5874   2.396   2.442   0.195
 1954SOL    HW2 5875   2.240   2.393   0.198
 1955SOL     OW 5876   2.021   2.999   1.466
 1955SOL    HW1 5877   2.043   2.938   1.542
 1955SOL    HW2 5878   2.031   2.950   1.380
 1956SOL     OW 5879   3.209   2.921   1.234
 1956SOL    HW1 5880   3.233   2.858   1.160
 1956SOL    HW2 5881   3.119   2.961   1.216
 1957SOL     OW 5882   3.164   2.717   0.309
 1957SOL    HW1 5883   3.078   2.686   0.351
 1957SOL    HW2 5884   3.160   2.703   0.210
 1958SOL     OW 5885   3.621   3.609   1.154
 1958SOL    HW1 5886   3.682   3.639   1.081
 1958SOL    HW2 5887   3.583   3.520   1.132
 1959SOL     OW 5888   3.114   3.593   1.128
 1959SOL    HW1 5889   3.198   3.598   1.074
 1959SOL    HW2 5890   3.091   3.497   1.146
 1960SOL     OW 5891   1.945   3.120   1.022
 1960SOL    HW1 5892   1.940   3.119   1.122
 1960SOL    HW2 5893   1.862   3.079   0.984
 1961SOL     OW 5894   2.550   3.524   1.716
 1961SOL    HW1 5895   2.494   3.605   1.725
 1961SOL    HW2 5896   2.602   3.528   1.630
 1962SOL     OW 5897   2.765   1.948   0.133
 1962SOL    HW1 5898   2.816   1.949   0.047
 1962SOL    HW2 5899   2.821   1.906   0.204
 1963SOL     OW 5900   3.588   1.997   0.523
 1963SOL    HW1 5901   3.661   1.980   0.456
 1963SOL    HW2 5902   3.557   1.910   0.561
 1964SOL     OW 5903   3.250   3.435   0.477
 1964SOL    HW1 5904   3.317   3.447   0.403
 1964SOL    HW2 5905   3.210   3.524   0.500
 1965SOL     OW 5906   1.992   3.656   1.851
 1965SOL    HW1 5907   1.951   3.582   1.904
 1965SOL    HW2 5908   2.056   3.707   1.909
 1966SOL     OW 5909   3.142   2.789   0.672
 1966SOL    HW1 5910   3.202   2.708   0.674
 1966SOL    HW2 5911   3.182   2.858   0.612
 1967SOL     OW 5912   2.692   3.135   1.422
 1967SOL    HW1 5913   2.687   3.168   1.517
 1967SOL    HW2 5914   2.606   3.154   1.376
 1968SOL     OW 5915   2.534   3.478   0.154
 1968SOL    HW1 5916   2.543   3.488   0.055
 1968SOL    HW2 5917   2.494   3.389   0.175
 1969SOL     OW 5918   3.512   3.582   1.394
 1969SOL    HW1 5919   3.565   3.592   1.310
 1969SOL    HW2 5920   3.485   3.672   1.428
 1970SOL     OW 5921   3.703   2.037   0.963
 1970SOL    HW1 5922   3.742   1.952   0.927
 1970SOL    HW2 5923   3.605   2.039   0.944
 1971SOL     OW 5924   2.125   2.188   0.720
 1971SOL    HW1 5925   2.046   2.239   0.686
 1971SOL    HW2 5926   2.116   2.173   0.818
 1972SOL     OW 5927   3.056   3.474   0.031
 1972SOL    HW1 5928   3.062   3.381   0.068
 1972SOL    HW2 5929   2.997   3.474  -0.049
 1973SOL     OW 5930   2.684   2.864   1.372
 1973SOL    HW1 5931   2.724   2.863   1.280
 1973SOL    HW2 5932   2.694   2.956   1.412
 1974SOL     OW 5933   2.778   2.772   0.291
 1974SOL    HW1 5934   2.841   2.810   0.223
 1974SOL    HW2 5935   2.818   2.689   0.330
 1975SOL     OW 5936   3.366   3.469   0.044
 1975SOL    HW1 5937   3.274   3.506   0.051
 1975SOL    HW2 5938   3.404   3.489  -0.046
 1976SOL     OW 5939   2.234   3.150   1.490
 1976SOL    HW1 5940   2.221   3.243   1.456
 1976SOL    HW2 5941   2.150   3.098   1.477
 1977SOL     OW 5942   3.476   3.154   1.289
 1977SOL    HW1 5943   3.536   3.157   1.369
 1977SOL    HW2 5944   3.401   3.218   1.302
 1978SOL     OW 5945   2.901   2.960   0.696
 1978SOL    HW1 5946   2.831   2.913   0.750
 1978SOL    HW2 5947   2.960   2.892   0.653
 1979SOL     OW 5948   2.876   2.098   0.971
 1979SOL    HW1 5949   2.868   2.062   0.878
 1979SOL    HW2 5950   2.874   2.022   1.036
 1980SOL     OW 5951   2.452   3.349   0.491
 1980SOL    HW1 5952   2.494   3.291   0.421
 1980SOL    HW2 5953   2.408   3.428   0.447
 1981SOL     OW 5954   3.571   2.247   1.381
 1981SOL    HW1 5955   3.644   2.316   1.385
 1981SOL    HW2 5956   3.599   2.172   1.322
 1982SOL     OW 5957   2.117   3.210   0.290
 1982SOL    HW1 5958   2.021   3.211   0.263
 1982SOL    HW2 5959   2.129   3.263   0.374
 1983SOL     OW 5960   1.967   2.875   1.726
 1983SOL    HW1 5961   1.890   2.842   1.780
 1983SOL    HW2 5962   2.052   2.845   1.768
 1984SOL     OW 5963   2.534   2.065   1.489
 1984SOL    HW1 5964   2.624   2.049   1.449
 1984SOL    HW2 5965   2.542   2.070   1.588
 1985SOL     OW 5966   1.937   2.207   0.033
 1985SOL    HW1 5967   1.845   2.179   0.004
 1985SOL    HW2 5968   1.968   2.284  -0.023
 1986SOL     OW 5969   3.302   2.718   1.398
 1986SOL    HW1 5970   3.245   2.770   1.335
 1986SOL    HW2 5971   3.398   2.730   1.374
 1987SOL     OW 5972   1.934   2.028   0.318
 1987SOL    HW1 5973   1.917   2.111   0.264
 1987SOL    HW2 5974   2.024   1.991   0.296
 1988SOL     OW 5975   3.045   3.197   0.119
 1988SOL    HW1 5976   2.946   3.186   0.121
 1988SOL    HW2 5977   3.079   3.212   0.212
 1989SOL     OW 5978   2.475   2.704   1.431
 1989SOL    HW1 5979   2.531   2.785   1.414
 1989SOL    HW2 5980   2.534   2.624   1.434
 1990SOL     OW 5981   3.355   3.629   0.959
 1990SOL    HW1 5982   3.388   3.693   0.890
 1990SOL    HW2 5983   3.421   3.623   1.034
 1991SOL     OW 5984   2.578   2.427   1.708
 1991SOL    HW1 5985   2.597   2.492   1.782
 1991SOL    HW2 5986   2.638   2.347   1.717
 1992SOL     OW 5987   3.312   3.082   1.633
 1992SOL    HW1 5988   3.303   3.072   1.732
 1992SOL    HW2 5989   3.408   3.075   1.607
 1993SOL     OW 5990   2.252   3.603   1.560
 1993SOL    HW1 5991   2.161   3.644   1.558
 1993SOL    HW2 5992   2.245   3.509   1.592
 1994SOL     OW 5993   3.536   2.745   1.254
 1994SOL    HW1 5994   3.509   2.656   1.217
 1994SOL    HW2 5995   3.537   2.813   1.181
 1995SOL     OW 5996   3.087   2.187   0.449
 1995SOL    HW1 5997   3.152   2.113   0.438
 1995SOL    HW2 5998   3.107   2.237   0.533
 1996SOL     OW 5999   2.456   2.607   0.652
 1996SOL    HW1 6000   2.506   2.692   0.633
 1996SOL    HW2 6001   2.368   2.609   0.604
 1997SOL     OW 6002   3.639   2.204   1.642
 1997SOL    HW1 6003   3.622   2.235   1.548
 1997SOL    HW2 6004   3.555   2.167   1.680
 1998SOL     OW 6005   3.592   2.796   1.517
 1998SOL    HW1 6006   3.630   2.887   1.532
 1998SOL    HW2 6007   3.584   2.779   1.418
 1999SOL     OW 6008   2.721   3.236   0.016
 1999SOL    HW1 6009   2.675   3.251   0.104
 1999SOL    HW2 6010   2.765   3.321  -0.014
 2000SOL     OW 6011   2.523   3.652   0.953
 2000SOL    HW1 6012   2.477   3.740   0.940
 2000SOL    HW2 6013   2.622   3.664   0.946
 2001SOL     OW 6014   2.721   2.818   0.861
 2001SOL    HW1 6015   2.775   2.749   0.909
 2001SOL    HW2 6016   2.689   2.887   0.927
 2002SOL     OW 6017   2.945   2.846   0.087
 2002SOL    HW1 6018   2.922   2.899   0.005
 2002SOL    HW2 6019   3.026   2.790   0.068
 2003SOL     OW 6020   3.723   3.431   0.851
 2003SOL    HW1 6021   3.652   3.419   0.781
 2003SOL    HW2 6022   3.724   3.352   0.911
 2004SOL     OW 6023   2.083   3.176   1.844
 2004SOL    HW1 6024   2.018   3.103   1.823
 2004SOL    HW2 6025   2.087   3.190   1.942
 2005SOL     OW 6026   1.941   3.102   0.653
 2005SOL    HW1 6027   1.940   3.055   0.741
 2005SOL    HW2 6028   2.023   3.074   0.602
 2006SOL     OW 6029   2.534   3.253   1.624
 2006SOL    HW1 6030   2.456   3.203   1.662
 2006SOL    HW2 6031   2.531   3.348   1.655
 2007SOL     OW 6032   3.686   2.054   1.227
 2007SOL    HW1 6033   3.682   1.964   1.271
 2007SOL    HW2 6034   3.689   2.043   1.128
 2008SOL     OW 6035   2.290   2.286   0.520
 2008SOL    HW1 6036   2.320   2.214   0.458
 2008SOL    HW2 6037   2.251   2.246   0.603
 2009SOL     OW 6038   3.567   3.349   1.104
 2009SOL    HW1 6039   3.474   3.324   1.077
 2009SOL    HW2 6040   3.593   3.299   1.186
 2010SOL     OW 6041   2.179   2.409   1.280
 2010SOL    HW1 6042   2.217   2.350   1.352
 2010SOL    HW2 6043   2.219   2.383   1.192
 2011SOL     OW 6044   2.674   3.448   0.687
 2011SOL    HW1 6045   2.706   3.458   0.593
 2011SOL    HW2 6046   2.595   3.386   0.689
 2012SOL     OW 6047   3.286   2.076   1.112
 2012SOL    HW1 6048   3.338   2.011   1.167
 2012SOL    HW2 6049   3.237   2.139   1.173
 2013SOL     OW 6050   2.863   1.896   1.154
 2013SOL    HW1 6051   2.800   1.824   1.123
 2013SOL    HW2 6052   2.956   1.860   1.154
 2014SOL     OW 6053   2.632   3.192   0.301
 2014SOL    HW1 6054   2.586   3.105   0.318
 2014SOL    HW2 6055   2.723   3.189   0.342
 2015SOL     OW 6056   2.480   3.429   1.284
 2015SOL    HW1 6057   2.475   3.511   1.341
 2015SOL    HW2 6058   2.569   3.426   1.239
 2016SOL     OW 6059   3.214   1.914   0.168
 2016SOL    HW1 6060   3.249   1.873   0.084
 2016SOL    HW2 6061   3.124   1.876   0.188
 2017SOL     OW 6062   3.162   2.315   0.691
 2017SOL    HW1 6063   3.103   2.395   0.695
 2017SOL    HW2 6064   3.177   2.280   0.784
 2018SOL     OW 6065   3.455   2.083   0.882
 2018SOL    HW1 6066   3.371   2.082   0.936
 2018SOL    HW2 6067   3.457   2.166   0.826
 2019SOL     OW 6068   1.901   2.939   0.300
 2019SOL    HW1 6069   2.000   2.928   0.291
 2019SOL    HW2 6070   1.861   2.853   0.332
 2020SOL     OW 6071   2.737   3.508   0.337
 2020SOL    HW1 6072   2.660   3.473   0.283
 2020SOL    HW2 6073   2.705   3.579   0.399
 2021SOL     OW 6074   2.092   2.490   1.975
 2021SOL    HW1 6075   1.999   2.488   2.012
 2021SOL    HW2 6076   2.093   2.451   1.883
 2022SOL     OW 6077   2.087   2.137   2.858
 2022SOL    HW1 6078   2.122   2.120   2.950
 2022SOL    HW2 6079   1.999   2.092   2.846
 2023SOL     OW 6080   1.881   2.230   2.509
 2023SOL    HW1 6081   1.799   2.273   2.548
 2023SOL    HW2 6082   1.853   2.157   2.446
 2024SOL     OW 6083   2.431   3.137   3.027
 2024SOL    HW1 6084   2.338   3.130   2.990
 2024SOL    HW2 6085   2.442   3.226   3.071
 2025SOL     OW 6086   3.417   3.373   2.565
 2025SOL    HW1 6087   3.360   3.357   2.646
 2025SOL    HW2 6088   3.358   3.383   2.485
 2026SOL     OW 6089   2.997   2.565   2.579
 2026SOL    HW1 6090   3.054   2.643   2.554
 2026SOL    HW2 6091   2.937   2.591   2.655
 2027SOL     OW 6092   3.617   2.469   2.093
 2027SOL    HW1 6093   3.605   2.456   1.994
 2027SOL    HW2 6094   3.587   2.388   2.142
 2028SOL     OW 6095   2.630   3.006   2.885
 2028SOL    HW1 6096   2.552   3.023   2.945
 2028SOL    HW2 6097   2.664   3.093   2.849
 2029SOL     OW 6098   2.712   2.660   3.685
 2029SOL    HW1 6099   2.708   2.736   3.750
 2029SOL    HW2 6100   2.734   2.696   3.594
 2030SOL     OW 6101   2.547   2.874   2.527
 2030SOL    HW1 6102   2.616   2.858   2.597
 2030SOL    HW2 6103   2.474   2.931   2.565
 2031SOL     OW 6104   2.548   3.023   3.665
 2031SOL    HW1 6105   2.608   3.102   3.679
 2031SOL    HW2 6106   2.462   3.054   3.624
 2032SOL     OW 6107   2.197   3.297   2.923
 2032SOL    HW1 6108   2.119   3.266   2.870
 2032SOL    HW2 6109   2.255   3.355   2.866
 2033SOL     OW 6110   3.322   3.367   3.201
 2033SOL    HW1 6111   3.346   3.461   3.227
 2033SOL    HW2 6112   3.306   3.313   3.283
 2034SOL     OW 6113   2.300   2.254   3.361
 2034SOL    HW1 6114   2.382   2.198   3.370
 2034SOL    HW2 6115   2.219   2.196   3.365
 2035SOL     OW 6116   3.465   2.309   2.599
 2035SOL    HW1 6117   3.391   2.355   2.549
 2035SOL    HW2 6118   3.516   2.377   2.652
 2036SOL     OW 6119   2.093   3.575   2.345
 2036SOL    HW1 6120   2.127   3.652   2.399
 2036SOL    HW2 6121   2.137   3.575   2.255
 2037SOL     OW 6122   2.989   3.203   3.552
 2037SOL    HW1 6123   3.036   3.203   3.640
 2037SOL    HW2 6124   2.941   3.116   3.541
 2038SOL     OW 6125   2.092   3.296   2.400
 2038SOL    HW1 6126   2.066   3.392   2.400
 2038SOL    HW2 6127   2.021   3.242   2.445
 2039SOL     OW 6128   2.102   2.953   2.748
 2039SOL    HW1 6129   2.116   2.869   2.800
 2039SOL    HW2 6130   2.047   3.017   2.803
 2040SOL     OW 6131   2.482   3.648   3.301
 2040SOL    HW1 6132   2.390   3.631   3.336
 2040SOL    HW2 6133   2.510   3.740   3.327
 2041SOL     OW 6134   2.468   2.826   1.985
 2041SOL    HW1 6135   2.475   2.910   1.931
 2041SOL    HW2 6136   2.514   2.839   2.073
 2042SOL     OW 6137   3.456   1.976   3.342
 2042SOL    HW1 6138   3.438   2.043   3.270
 2042SOL    HW2 6139   3.453   2.022   3.431
 2043SOL     OW 6140   1.984   2.505   2.425
 2043SOL    HW1 6141   1.939   2.417   2.442
 2043SOL    HW2 6142   1.983   2.559   2.509
 2044SOL     OW 6143   3.704   3.629   2.221
 2044SOL    HW1 6144   3.758   3.600   2.301
 2044SOL    HW2 6145   3.734   3.719   2.192
 2045SOL     OW 6146   1.889   3.458   1.979
 2045SOL    HW1 6147   1.870   3.362   2.000
 2045SOL    HW2 6148   1.856   3.516   2.054
 2046SOL     OW 6149   3.551   2.784   2.474
 2046SOL    HW1 6150   3.646   2.755   2.482
 2046SOL    HW2 6151   3.543   2.849   2.399
 2047SOL     OW 6152   3.503   2.970   2.294
 2047SOL    HW1 6153   3.589   2.972   2.242
 2047SOL    HW2 6154   3.517   3.017   2.382
 2048SOL     OW 6155   1.975   2.599   3.459
 2048SOL    HW1 6156   2.063   2.586   3.504
 2048SOL    HW2 6157   1.962   2.696   3.437
 2049SOL     OW 6158   2.475   3.227   2.588
 2049SOL    HW1 6159   2.426   3.140   2.597
 2049SOL    HW2 6160   2.452   3.270   2.501
 2050SOL     OW 6161   3.155   3.090   3.285
 2050SOL    HW1 6162   3.192   3.017   3.227
 2050SOL    HW2 6163   3.207   3.095   3.370
 2051SOL     OW 6164   2.671   1.866   2.364
 2051SOL    HW1 6165   2.711   1.957   2.355
 2051SOL    HW2 6166   2.571   1.874   2.370
 2052SOL     OW 6167   2.059   2.838   3.126
 2052SOL    HW1 6168   2.148   2.793   3.112
 2052SOL    HW2 6169   1.986   2.773   3.107
 2053SOL     OW 6170   3.387   2.861   2.052
 2053SOL    HW1 6171   3.324   2.785   2.065
 2053SOL    HW2 6172   3.435   2.879   2.138
 2054SOL     OW 6173   3.049   3.654   3.478
 2054SOL    HW1 6174   3.073   3.714   3.402
 2054SOL    HW2 6175   3.056   3.559   3.448
 2055SOL     OW 6176   2.179   2.113   3.663
 2055SOL    HW1 6177   2.250   2.184   3.669
 2055SOL    HW2 6178   2.091   2.152   3.691
 2056SOL     OW 6179   3.328   3.279   2.815
 2056SOL    HW1 6180   3.269   3.285   2.895
 2056SOL    HW2 6181   3.313   3.191   2.769
 2057SOL     OW 6182   3.529   3.576   2.434
 2057SOL    HW1 6183   3.488   3.553   2.346
 2057SOL    HW2 6184   3.511   3.502   2.499
 2058SOL     OW 6185   2.460   2.591   2.132
 2058SOL    HW1 6186   2.484   2.660   2.064
 2058SOL    HW2 6187   2.382   2.624   2.186
 2059SOL     OW 6188   3.143   2.207   2.806
 2059SOL    HW1 6189   3.057   2.157   2.793
 2059SOL    HW2 6190   3.205   2.153   2.862
 2060SOL     OW 6191   3.438   3.524   2.169
 2060SOL    HW1 6192   3.527   3.570   2.172
 2060SOL    HW2 6193   3.417   3.500   2.074
 2061SOL     OW 6194   2.669   2.467   3.327
 2061SOL    HW1 6195   2.622   2.464   3.416
 2061SOL    HW2 6196   2.618   2.412   3.261
 2062SOL     OW 6197   3.256   2.331   3.536
 2062SOL    HW1 6198   3.236   2.374   3.624
 2062SOL    HW2 6199   3.334   2.269   3.545
 2063SOL     OW 6200   2.835   2.752   3.434
 2063SOL    HW1 6201   2.881   2.668   3.405
 2063SOL    HW2 6202   2.779   2.786   3.359
 2064SOL     OW 6203   2.853   2.272   3.104
 2064SOL    HW1 6204   2.776   2.306   3.158
 2064SOL    HW2 6205   2.819   2.221   3.025
 2065SOL     OW 6206   2.903   2.563   2.291
 2065SOL    HW1 6207   2.929   2.559   2.387
 2065SOL    HW2 6208   2.818   2.512   2.277
 2066SOL     OW 6209   1.938   2.673   2.651
 2066SOL    HW1 6210   2.037   2.661   2.660
 2066SOL    HW2 6211   1.914   2.768   2.672
 2067SOL     OW 6212   1.992   3.683   3.433
 2067SOL    HW1 6213   1.982   3.668   3.532
 2067SOL    HW2 6214   1.906   3.719   3.397
 2068SOL     OW 6215   2.727   2.210   2.057
 2068SOL    HW1 6216   2.786   2.273   2.008
 2068SOL    HW2 6217   2.746   2.116   2.028
 2069SOL     OW 6218   3.581   2.447   3.693
 2069SOL    HW1 6219   3.555   2.536   3.657
 2069SOL    HW2 6220   3.579   2.379   3.620
 2070SOL     OW 6221   3.224   3.006   2.407
 2070SOL    HW1 6222   3.307   2.977   2.359
 2070SOL    HW2 6223   3.175   3.073   2.351
 2071SOL     OW 6224   2.412   2.058   2.747
 2071SOL    HW1 6225   2.407   2.053   2.847
 2071SOL    HW2 6226   2.414   2.154   2.718
 2072SOL     OW 6227   2.870   3.318   2.339
 2072SOL    HW1 6228   2.824   3.390   2.287
 2072SOL    HW2 6229   2.866   3.338   2.437
 2073SOL     OW 6230   2.213   3.663   2.715
 2073SOL    HW1 6231   2.263   3.577   2.721
 2073SOL    HW2 6232   2.278   3.740   2.712
 2074SOL     OW 6233   3.657   2.928   2.735
 2074SOL    HW1 6234   3.595   2.913   2.659
 2074SOL    HW2 6235   3.605   2.939   2.820
 2075SOL     OW 6236   3.089   3.412   3.368
 2075SOL    HW1 6237   3.095   3.335   3.432
 2075SOL    HW2 6238   3.037   3.386   3.288
 2076SOL     OW 6239   2.183   2.805   2.104
 2076SOL    HW1 6240   2.265   2.844   2.062
 2076SOL    HW2 6241   2.156   2.723   2.055
 2077SOL     OW 6242   3.320   2.597   2.590
 2077SOL    HW1 6243   3.315   2.532   2.665
 2077SOL    HW2 6244   3.400   2.656   2.603
 2078SOL     OW 6245   2.323   3.128   3.589
 2078SOL    HW1 6246   2.273   3.129   3.503
 2078SOL    HW2 6247   2.260   3.110   3.665
 2079SOL     OW 6248   2.973   3.638   2.099
 2079SOL    HW1 6249   2.913   3.576   2.149
 2079SOL    HW2 6250   3.004   3.594   2.014
 2080SOL     OW 6251   2.064   2.147   3.360
 2080SOL    HW1 6252   1.984   2.207   3.347
 2080SOL    HW2 6253   2.054   2.098   3.446
 2081SOL     OW 6254   3.494   3.239   1.943
 2081SOL    HW1 6255   3.462   3.333   1.933
 2081SOL    HW2 6256   3.418   3.176   1.931
 2082SOL     OW 6257   2.326   3.605   2.185
 2082SOL    HW1 6258   2.359   3.644   2.271
 2082SOL    HW2 6259   2.402   3.598   2.120
 2083SOL     OW 6260   3.262   1.969   2.288
 2083SOL    HW1 6261   3.238   1.932   2.198
 2083SOL    HW2 6262   3.361   1.985   2.292
 2084SOL     OW 6263   2.111   3.647   3.103
 2084SOL    HW1 6264   2.168   3.582   3.153
 2084SOL    HW2 6265   2.095   3.614   3.010
 2085SOL     OW 6266   2.802   3.560   2.766
 2085SOL    HW1 6267   2.882   3.503   2.787
 2085SOL    HW2 6268   2.753   3.520   2.689
 2086SOL     OW 6269   3.409   2.084   3.591
 2086SOL    HW1 6270   3.404   2.121   3.683
 2086SOL    HW2 6271   3.337   2.015   3.579
 2087SOL     OW 6272   2.476   1.984   1.979
 2087SOL    HW1 6273   2.574   1.962   1.986
 2087SOL    HW2 6274   2.445   1.967   1.886
 2088SOL     OW 6275   2.643   2.126   3.611
 2088SOL    HW1 6276   2.710   2.065   3.654
 2088SOL    HW2 6277   2.570   2.145   3.676
 2089SOL     OW 6278   2.750   3.376   3.057
 2089SOL    HW1 6279   2.727   3.351   2.963
 2089SOL    HW2 6280   2.811   3.307   3.096
 2090SOL     OW 6281   3.213   2.452   3.295
 2090SOL    HW1 6282   3.241   2.409   3.380
 2090SOL    HW2 6283   3.238   2.548   3.296
 2091SOL     OW 6284   2.665   3.264   2.786
 2091SOL    HW1 6285   2.755   3.278   2.744
 2091SOL    HW2 6286   2.594   3.266   2.715
 2092SOL     OW 6287   2.784   2.365   2.761
 2092SOL    HW1 6288   2.759   2.356   2.665
 2092SOL    HW2 6289   2.832   2.283   2.792
 2093SOL     OW 6290   2.401   1.926   2.374
 2093SOL    HW1 6291   2.320   1.927   2.432
 2093SOL    HW2 6292   2.404   2.009   2.319
 2094SOL     OW 6293   3.296   3.050   1.903
 2094SOL    HW1 6294   3.328   2.974   1.960
 2094SOL    HW2 6295   3.204   3.077   1.933
 2095SOL     OW 6296   2.159   1.897   2.033
 2095SOL    HW1 6297   2.208   1.981   2.012
 2095SOL    HW2 6298   2.221   1.832   2.078
 2096SOL     OW 6299   2.797   2.098   2.342
 2096SOL    HW1 6300   2.749   2.139   2.264
 2096SOL    HW2 6301   2.896   2.096   2.323
 2097SOL     OW 6302   2.938   2.545   3.326
 2097SOL    HW1 6303   2.858   2.484   3.329
 2097SOL    HW2 6304   3.019   2.492   3.302
 2098SOL     OW 6305   3.089   3.432   2.655
 2098SOL    HW1 6306   3.110   3.506   2.590
 2098SOL    HW2 6307   3.157   3.432   2.728
 2099SOL     OW 6308   2.321   3.014   2.603
 2099SOL    HW1 6309   2.250   2.987   2.668
 2099SOL    HW2 6310   2.295   2.986   2.510
 2100SOL     OW 6311   3.133   3.659   2.453
 2100SOL    HW1 6312   3.177   3.723   2.389
 2100SOL    HW2 6313   3.083   3.711   2.523
 2101SOL     OW 6314   2.894   2.411   1.878
 2101SOL    HW1 6315   2.853   2.493   1.839
 2101SOL    HW2 6316   2.958   2.437   1.951
 2102SOL     OW 6317   1.940   2.418   3.248
 2102SOL    HW1 6318   2.032   2.417   3.207
 2102SOL    HW2 6319   1.934   2.492   3.315
 2103SOL     OW 6320   2.423   2.084   3.009
 2103SOL    HW1 6321   2.461   2.000   3.046
 2103SOL    HW2 6322   2.335   2.103   3.053
 2104SOL     OW 6323   2.728   2.316   2.504
 2104SOL    HW1 6324   2.696   2.388   2.442
 2104SOL    HW2 6325   2.752   2.235   2.451
 2105SOL     OW 6326   2.879   1.901   2.615
 2105SOL    HW1 6327   2.807   1.906   2.546
 2105SOL    HW2 6328   2.855   1.832   2.684
 2106SOL     OW 6329   3.291   3.035   2.729
 2106SOL    HW1 6330   3.236   2.951   2.722
 2106SOL    HW2 6331   3.317   3.064   2.637
 2107SOL     OW 6332   3.328   2.452   2.854
 2107SOL    HW1 6333   3.298   2.357   2.861
 2107SOL    HW2 6334   3.401   2.468   2.920
 2108SOL     OW 6335   3.719   2.695   2.239
 2108SOL    HW1 6336   3.761   2.631   2.303
 2108SOL    HW2 6337   3.681   2.644   2.161
 2109SOL     OW 6338   2.350   3.247   2.036
 2109SOL    HW1 6339   2.263   3.232   2.083
 2109SOL    HW2 6340   2.333   3.273   1.941
 2110SOL     OW 6341   3.526   3.142   2.519
 2110SOL    HW1 6342   3.625   3.150   2.533
 2110SOL    HW2 6343   3.481   3.226   2.550
 2111SOL     OW 6344   3.252   2.437   1.940
 2111SOL    HW1 6345   3.198   2.416   2.021
 2111SOL    HW2 6346   3.343   2.396   1.949
 2112SOL     OW 6347   3.616   3.085   3.450
 2112SOL    HW1 6348   3.707   3.046   3.437
 2112SOL    HW2 6349   3.624   3.181   3.474
 2113SOL     OW 6350   2.926   3.209   3.202
 2113SOL    HW1 6351   2.846   3.186   3.257
 2113SOL    HW2 6352   3.009   3.183   3.251
 2114SOL     OW 6353   3.454   3.491   3.487
 2114SOL    HW1 6354   3.481   3.525   3.397
 2114SOL    HW2 6355   3.533   3.453   3.533
 2115SOL     OW 6356   2.973   3.057   2.962
 2115SOL    HW1 6357   2.933   3.101   3.043
 2115SOL    HW2 6358   2.932   3.094   2.879
 2116SOL     OW 6359   3.500   2.961   2.941
 2116SOL    HW1 6360   3.505   3.042   3.000
 2116SOL    HW2 6361   3.414   2.963   2.890
 2117SOL     OW 6362   2.777   1.951   3.264
 2117SOL    HW1 6363   2.802   1.931   3.169
 2117SOL    HW2 6364   2.849   2.007   3.306
 2118SOL     OW 6365   2.842   2.978   3.581
 2118SOL    HW1 6366   2.743   2.984   3.591
 2118SOL    HW2 6367   2.865   2.898   3.525
 2119SOL     OW 6368   2.567   2.912   2.230
 2119SOL    HW1 6369   2.553   2.919   2.329
 2119SOL    HW2 6370   2.651   2.861   2.212
 2120SOL     OW 6371   2.272   2.675   3.113
 2120SOL    HW1 6372   2.358   2.687   3.163
 2120SOL    HW2 6373   2.230   2.588   3.140
 2121SOL     OW 6374   3.136   2.248   3.124
 2121SOL    HW1 6375   3.157   2.322   3.188
 2121SOL    HW2 6376   3.047   2.265   3.081
 2122SOL     OW 6377   1.926   3.426   3.193
 2122SOL    HW1 6378   1.880   3.508   3.159
 2122SOL    HW2 6379   2.024   3.445   3.202
 2123SOL     OW 6380   2.229   2.962   2.363
 2123SOL    HW1 6381   2.222   3.045   2.307
 2123SOL    HW2 6382   2.233   2.882   2.303
 2124SOL     OW 6383   2.428   2.399   2.727
 2124SOL    HW1 6384   2.440   2.465   2.653
 2124SOL    HW2 6385   2.474   2.433   2.810
 2125SOL     OW 6386   3.114   3.210   2.250
 2125SOL    HW1 6387   3.164   3.287   2.290
 2125SOL    HW2 6388   3.019   3.212   2.282
 2126SOL     OW 6389   3.134   3.307   3.004
 2126SOL    HW1 6390   3.181   3.320   3.091
 2126SOL    HW2 6391   3.068   3.233   3.013
 2127SOL     OW 6392   3.444   2.501   2.334
 2127SOL    HW1 6393   3.413   2.562   2.407
 2127SOL    HW2 6394   3.494   2.553   2.265
 2128SOL     OW 6395   2.216   3.372   3.191
 2128SOL    HW1 6396   2.195   3.328   3.104
 2128SOL    HW2 6397   2.313   3.398   3.194
 2129SOL     OW 6398   2.264   2.613   3.460
 2129SOL    HW1 6399   2.332   2.668   3.413
 2129SOL    HW2 6400   2.304   2.525   3.487
 2130SOL     OW 6401   3.449   2.641   3.532
 2130SOL    HW1 6402   3.357   2.679   3.527
 2130SOL    HW2 6403   3.509   2.688   3.467
 2131SOL     OW 6404   2.875   1.967   3.632
 2131SOL    HW1 6405   2.881   2.052   3.580
 2131SOL    HW2 6406   2.907   1.891   3.575
 2132SOL     OW 6407   2.366   1.912   3.602
 2132SOL    HW1 6408   2.324   1.855   3.532
 2132SOL    HW2 6409   2.300   1.981   3.634
 2133SOL     OW 6410   2.435   2.732   2.891
 2133SOL    HW1 6411   2.479   2.821   2.882
 2133SOL    HW2 6412   2.372   2.732   2.968
 2134SOL     OW 6413   3.222   2.724   2.907
 2134SOL    HW1 6414   3.147   2.724   2.841
 2134SOL    HW2 6415   3.259   2.632   2.916
 2135SOL     OW 6416   3.071   2.387   2.137
 2135SOL    HW1 6417   3.084   2.303   2.191
 2135SOL    HW2 6418   3.042   2.461   2.197
 2136SOL     OW 6419   2.169   2.075   3.093
 2136SOL    HW1 6420   2.146   2.112   3.183
 2136SOL    HW2 6421   2.139   1.980   3.087
 2137SOL     OW 6422   1.899   3.172   3.144
 2137SOL    HW1 6423   1.952   3.123   3.212
 2137SOL    HW2 6424   1.921   3.270   3.149
 2138SOL     OW 6425   2.594   2.496   2.926
 2138SOL    HW1 6426   2.653   2.470   2.850
 2138SOL    HW2 6427   2.566   2.592   2.915
 2139SOL     OW 6428   3.590   2.797   3.716
 2139SOL    HW1 6429   3.544   2.790   3.627
 2139SOL    HW2 6430   3.528   2.841   3.782
 2140SOL     OW 6431   2.169   1.925   2.480
 2140SOL    HW1 6432   2.158   2.019   2.513
 2140SOL    HW2 6433   2.164   1.862   2.557
 2141SOL     OW 6434   3.484   2.229   2.236
 2141SOL    HW1 6435   3.486   2.153   2.300
 2141SOL    HW2 6436   3.436   2.306   2.276
 2142SOL     OW 6437   2.885   2.628   2.828
 2142SOL    HW1 6438   2.900   2.649   2.924
 2142SOL    HW2 6439   2.855   2.533   2.819
 2143SOL     OW 6440   2.842   3.435   3.562
 2143SOL    HW1 6441   2.822   3.479   3.474
 2143SOL    HW2 6442   2.881   3.344   3.546
 2144SOL     OW 6443   3.721   3.380   3.467
 2144SOL    HW1 6444   3.735   3.407   3.372
 2144SOL    HW2 6445   3.804   3.402   3.520
 2145SOL     OW 6446   2.212   2.760   3.666
 2145SOL    HW1 6447   2.288   2.804   3.714
 2145SOL    HW2 6448   2.247   2.713   3.584
 2146SOL     OW 6449   3.402   2.136   1.987
 2146SOL    HW1 6450   3.341   2.061   2.010
 2146SOL    HW2 6451   3.424   2.188   2.070
 2147SOL     OW 6452   3.165   2.700   1.904
 2147SOL    HW1 6453   3.199   2.607   1.919
 2147SOL    HW2 6454   3.183   2.727   1.809
 2148SOL     OW 6455   2.930   3.195   2.711
 2148SOL    HW1 6456   2.937   3.111   2.656
 2148SOL    HW2 6457   2.992   3.264   2.675
 2149SOL     OW 6458   2.181   2.672   2.811
 2149SOL    HW1 6459   2.274   2.708   2.816
 2149SOL    HW2 6460   2.175   2.587   2.863
 2150SOL     OW 6461   2.201   2.371   2.868
 2150SOL    HW1 6462   2.149   2.288   2.851
 2150SOL    HW2 6463   2.278   2.376   2.804
 2151SOL     OW 6464   3.000   2.242   3.540
 2151SOL    HW1 6465   2.955   2.305   3.604
 2151SOL    HW2 6466   3.093   2.273   3.523
 2152SOL     OW 6467   3.022   2.069   3.339
 2152SOL    HW1 6468   3.022   2.133   3.416
 2152SOL    HW2 6469   3.050   2.117   3.256
 2153SOL     OW 6470   1.870   3.188   2.062
 2153SOL    HW1 6471   1.777   3.209   2.031
 2153SOL    HW2 6472   1.880   3.089   2.075
 2154SOL     OW 6473   1.950   3.663   2.789
 2154SOL    HW1 6474   1.908   3.577   2.762
 2154SOL    HW2 6475   2.044   3.666   2.755
 2155SOL     OW 6476   2.366   3.430   2.772
 2155SOL    HW1 6477   2.432   3.504   2.781
 2155SOL    HW2 6478   2.410   3.351   2.730
 2156SOL     OW 6479   2.864   2.658   3.100
 2156SOL    HW1 6480   2.905   2.626   3.186
 2156SOL    HW2 6481   2.768   2.631   3.097
 2157SOL     OW 6482   1.902   2.406   2.976
 2157SOL    HW1 6483   1.987   2.373   2.935
 2157SOL    HW2 6484   1.915   2.421   3.074
 2158SOL     OW 6485   2.051   2.382   3.584
 2158SOL    HW1 6486   2.110   2.342   3.514
 2158SOL    HW2 6487   1.993   2.453   3.543
 2159SOL     OW 6488   3.231   2.812   3.522
 2159SOL    HW1 6489   3.270   2.901   3.542
 2159SOL    HW2 6490   3.241   2.792   3.425
 2160SOL     OW 6491   2.677   2.434   2.187
 2160SOL    HW1 6492   2.684   2.345   2.141
 2160SOL    HW2 6493   2.583   2.468   2.179
 2161SOL     OW 6494   3.519   2.466   3.068
 2161SOL    HW1 6495   3.481   2.397   3.130
 2161SOL    HW2 6496   3.601   2.430   3.024
 2162SOL     OW 6497   2.114   3.426   3.606
 2162SOL    HW1 6498   2.084   3.483   3.682
 2162SOL    HW2 6499   2.107   3.329   3.632
 2163SOL     OW 6500   2.533   2.326   3.131
 2163SOL    HW1 6501   2.499   2.237   3.101
 2163SOL    HW2 6502   2.559   2.380   3.051
 2164SOL     OW 6503   2.792   3.540   3.327
 2164SOL    HW1 6504   2.768   3.522   3.232
 2164SOL    HW2 6505   2.822   3.634   3.337
 2165SOL     OW 6506   2.021   2.999   3.328
 2165SOL    HW1 6507   2.043   2.938   3.404
 2165SOL    HW2 6508   2.031   2.950   3.242
 2166SOL     OW 6509   3.209   2.921   3.096
 2166SOL    HW1 6510   3.233   2.858   3.022
 2166SOL    HW2 6511   3.119   2.961   3.078
 2167SOL     OW 6512   3.164   2.717   2.171
 2167SOL    HW1 6513   3.078   2.686   2.213
 2167SOL    HW2 6514   3.160   2.703   2.072
 2168SOL     OW 6515   3.621   3.609   3.016
 2168SOL    HW1 6516   3.682   3.639   2.943
 2168SOL    HW2 6517   3.583   3.520   2.994
 2169SOL     OW 6518   3.114   3.593   2.990
 2169SOL    HW1 6519   3.198   3.598   2.936
 2169SOL    HW2 6520   3.091   3.497   3.008
 2170SOL     OW 6521   1.945   3.120   2.884
 2170SOL    HW1 6522   1.940   3.119   2.984
 2170SOL    HW2 6523   1.862   3.079   2.846
 2171SOL     OW 6524   2.550   3.524   3.578
 2171SOL    HW1 6525   2.494   3.605   3.587
 2171SOL    HW2 6526   2.602   3.528   3.492
 2172SOL     OW 6527   3.588   1.997   2.385
 2172SOL    HW1 6528   3.661   1.980   2.318
 2172SOL    HW2 6529   3.557   1.910   2.423
 2173SOL     OW 6530   3.250   3.435   2.339
 2173SOL    HW1 6531   3.317   3.447   2.265
 2173SOL    HW2 6532   3.210   3.524   2.362
 2174SOL     OW 6533   1.992   3.656   3.713
 2174SOL    HW1 6534   1.951   3.582   3.766
 2174SOL    HW2 6535   2.056   3.707   3.771
 2175SOL     OW 6536   3.142   2.789   2.534
 2175SOL    HW1 6537   3.202   2.708   2.536
 2175SOL    HW2 6538   3.182   2.858   2.474
 2176SOL     OW 6539   2.692   3.135   3.284
 2176SOL    HW1 6540   2.687   3.168   3.379
 2176SOL    HW2 6541   2.606   3.154   3.238
 2177SOL     OW 6542   2.534   3.478   2.016
 2177SOL    HW1 6543   2.543   3.488   1.917
 2177SOL    HW2 6544   2.494   3.389   2.037
 2178SOL     OW 6545   3.512   3.582   3.256
 2178SOL    HW1 6546   3.565   3.592   3.172
 2178SOL    HW2 6547   3.485   3.672   3.290
 2179SOL     OW 6548   3.703   2.037   2.825
 2179SOL    HW1 6549   3.742   1.952   2.789
 2179SOL    HW2 6550   3.605   2.039   2.806
 2180SOL     OW 6551   3.056   3.474   1.893
 2180SOL    HW1 6552   3.062   3.381   1.930
 2180SOL    HW2 6553   2.997   3.474   1.813
 2181SOL     OW 6554   2.684   2.864   3.234
 2181SOL    HW1 6555   2.724   2.863   3.142
 2181SOL    HW2 6556   2.694   2.956   3.274
 2182SOL     OW 6557   2.778   2.772   2.153
 2182SOL    HW1 6558   2.841   2.810   2.085
 2182SOL    HW2 6559   2.818   2.689   2.192
 2183SOL     OW 6560   3.366   3.469   1.906
 2183SOL    HW1 6561   3.274   3.506   1.913
 2183SOL    HW2 6562   3.404   3.489   1.816
 2184SOL     OW 6563   2.234   3.150   3.352
 2184SOL    HW1 6564   2.221   3.243   3.318
 2184SOL    HW2 6565   2.150   3.098   3.339
 2185SOL     OW 6566   3.476   3.154   3.151
 2185SOL    HW1 6567   3.536   3.157   3.231
 2185SOL    HW2 6568   3.401   3.218   3.164
 2186SOL     OW 6569   2.901   2.960   2.558
 2186SOL    HW1 6570   2.831   2.913   2.612
 2186SOL    HW2 6571   2.960   2.892   2.515
 2187SOL     OW 6572   2.876   2.098   2.833
 2187SOL    HW1 6573   2.868   2.062   2.740
 2187SOL    HW2 6574   2.874   2.022   2.898
 2188SOL     OW 6575   2.452   3.349   2.353
 2188SOL    HW1 6576   2.494   3.291   2.283
 2188SOL    HW2 6577   2.408   3.428   2.309
 2189SOL     OW 6578   3.571   2.247   3.243
 2189SOL    HW1 6579   3.644   2.316   3.247
 2189SOL    HW2 6580   3.599   2.172   3.184
 2190SOL     OW 6581   2.117   3.210   2.152
 2190SOL    HW1 6582   2.021   3.211   2.125
 2190SOL    HW2 6583   2.129   3.263   2.236
 2191SOL     OW 6584   1.967   2.875   3.588
 2191SOL    HW1 6585   1.890   2.842   3.642
 2191SOL    HW2 6586   2.052   2.845   3.630
 2192SOL     OW 6587   2.534   2.065   3.351
 2192SOL    HW1 6588   2.624   2.049   3.311
 2192SOL    HW2 6589   2.542   2.070   3.450
 2193SOL     OW 6590   1.937   2.207   1.895
 2193SOL    HW1 6591   1.845   2.179   1.866
 2193SOL    HW2 6592   1.968   2.284   1.839
 2194SOL     OW 6593   3.302   2.718   3.260
 2194SOL    HW1 6594   3.245   2.770   3.197
 2194SOL    HW2 6595   3.398   2.730   3.236
 2195SOL     OW 6596   1.934   2.028   2.180
 2195SOL    HW1 6597   1.917   2.111   2.126
 2195SOL    HW2 6598   2.024   1.991   2.158
 2196SOL     OW 6599   3.045   3.197   1.981
 2196SOL    HW1 6600   2.946   3.186   1.983
 2196SOL    HW2 6601   3.079   3.212   2.074
 2197SOL     OW 6602   2.475   2.704   3.293
 2197SOL    HW1 6603   2.531   2.785   3.276
 2197SOL    HW2 6604   2.534   2.624   3.296
 2198SOL     OW 6605   3.355   3.629   2.821
 2198SOL    HW1 6606   3.388   3.693   2.752
 2198SOL    HW2 6607   3.421   3.623   2.896
 2199SOL     OW 6608   2.578   2.427   3.570
 2199SOL    HW1 6609   2.597   2.492   3.644
 2199SOL    HW2 6610   2.638   2.347   3.579
 2200SOL     OW 6611   3.312   3.082   3.495
 2200SOL    HW1 6612   3.303   3.072   3.594
 2200SOL    HW2 6613   3.408   3.075   3.469
 2201SOL     OW 6614   2.252   3.603   3.422
 2201SOL    HW1 6615   2.161   3.644   3.420
 2201SOL    HW2 6616   2.245   3.509   3.454
 2202SOL     OW 6617   3.536   2.745   3.116
 2202SOL    HW1 6618   3.509   2.656   3.079
 2202SOL    HW2 6619   3.537   2.813   3.043
 2203SOL     OW 6620   3.087   2.187   2.311
 2203SOL    HW1 6621   3.152   2.113   2.300
 2203SOL    HW2 6622   3.107   2.237   2.395
 2204SOL     OW 6623   2.456   2.607   2.514
 2204SOL    HW1 6624   2.506   2.692   2.495
 2204SOL    HW2 6625   2.368   2.609   2.466
 2205SOL     OW 6626   3.639   2.204   3.504
 2205SOL    HW1 6627   3.622   2.235   3.410
 2205SOL    HW2 6628   3.555   2.167   3.542
 2206SOL     OW 6629   3.592   2.796   3.379
 2206SOL    HW1 6630   3.630   2.887   3.394
 2206SOL    HW2 6631   3.584   2.779   3.280
 2207SOL     OW 6632   2.721   3.236   1.878
 2207SOL    HW1 6633   2.675   3.251   1.966
 2207SOL    HW2 6634   2.765   3.321   1.848
 2208SOL     OW 6635   2.523   3.652   2.815
 2208SOL    HW1 6636   2.477   3.740   2.802
 2208SOL    HW2 6637   2.622   3.664   2.808
 2209SOL     OW 6638   2.721   2.818   2.723
 2209SOL    HW1 6639   2.775   2.749   2.771
 2209SOL    HW2 6640   2.689   2.887   2.789
 2210SOL     OW 6641   2.945   2.846   1.949
 2210SOL    HW1 6642   2.922   2.899   1.867
 2210SOL    HW2 6643   3.026   2.790   1.930
 2211SOL     OW 6644   3.723   3.431   2.713
 2211SOL    HW1 6645   3.652   3.419   2.643
 2211SOL    HW2 6646   3.724   3.352   2.773
 2212SOL     OW 6647   2.083   3.176   3.706
 2212SOL    HW1 6648   2.018   3.103   3.685
 2212SOL    HW2 6649   2.087   3.190   3.804
 2213SOL     OW 6650   1.941   3.102   2.515
 2213SOL    HW1 6651   1.940   3.055   2.603
 2213SOL    HW2 6652   2.023   3.074   2.464
 2214SOL     OW 6653   2.534   3.253   3.486
 2214SOL    HW1 6654   2.456   3.203   3.524
 2214SOL    HW2 6655   2.531   3.348   3.517
 2215SOL     OW 6656   3.686   2.054   3.089
 2215SOL    HW1 6657   3.682   1.964   3.133
 2215SOL    HW2 6658   3.689   2.043   2.990
 2216SOL     OW 6659   3.567   3.349   2.966
 2216SOL    HW1 6660   3.474   3.324   2.939
 2216SOL    HW2 6661   3.593   3.299   3.048
 2217SOL     OW 6662   2.179   2.409   3.142
 2217SOL    HW1 6663   2.217   2.350   3.214
 2217SOL    HW2 6664   2.219   2.383   3.054
 2218SOL     OW 6665   2.674   3.448   2.549
 2218SOL    HW1 6666   2.706   3.458   2.455
 2218SOL    HW2 6667   2.595   3.386   2.551
 2219SOL     OW 6668   3.286   2.076   2.974
 2219SOL    HW1 6669   3.338   2.011   3.029
 2219SOL    HW2 6670   3.237   2.139   3.035
 2220SOL     OW 6671   2.863   1.896   3.016
 2220SOL    HW1 6672   2.800   1.824   2.985
 2220SOL    HW2 6673   2.956   1.860   3.016
 2221SOL     OW 6674   2.632   3.192   2.163
 2221SOL    HW1 6675   2.586   3.105   2.180
 2221SOL    HW2 6676   2.723   3.189   2.204
 2222SOL     OW 6677   2.480   3.429   3.146
 2222SOL    HW1 6678   2.475   3.511   3.203
 2222SOL    HW2 6679   2.569   3.426   3.101
 2223SOL     OW 6680   3.214   1.914   2.030
 2223SOL    HW1 6681   3.249   1.873   1.946
 2223SOL    HW2 6682   3.124   1.876   2.050
 2224SOL     OW 6683   3.162   2.315   2.553
 2224SOL    HW1 6684   3.103   2.395   2.557
 2224SOL    HW2 6685   3.177   2.280   2.646
 2225SOL     OW 6686   3.455   2.083   2.744
 2225SOL    HW1 6687   3.371   2.082   2.798
 2225SOL    HW2 6688   3.457   2.166   2.688
 2226SOL     OW 6689   1.901   2.939   2.162
 2226SOL    HW1 6690   2.000   2.928   2.153
 2226SOL    HW2 6691   1.861   2.853   2.194
 2227SOL     OW 6692   2.737   3.508   2.199
 2227SOL    HW1 6693   2.660   3.473   2.145
 2227SOL    HW2 6694   2.705   3.579   2.261
 2228SOL     OW 6695   2.092   2.490   3.837
 2228SOL    HW1 6696   1.999   2.488   3.874
 2228SOL    HW2 6697   2.093   2.451   3.745
 2229SOL     OW 6698   2.087   2.137   4.720
 2229SOL    HW1 6699   2.122   2.120   4.812
 2229SOL    HW2 6700   1.999   2.092   4.708
 2230SOL     OW 6701   1.881   2.230   4.371
 2230SOL    HW1 6702   1.799   2.273   4.410
 2230SOL    HW2 6703   1.853   2.157   4.308
 2231SOL     OW 6704   3.417   3.373   4.427
 2231SOL    HW1 6705   3.360   3.357   4.508
 2231SOL    HW2 6706   3.358   3.383   4.347
 2232SOL     OW 6707   2.997   2.565   4.441
 2232SOL    HW1 6708   3.054   2.643   4.416
 2232SOL    HW2 6709   2.937   2.591   4.517
 2233SOL     OW 6710   3.617   2.469   3.955
 2233SOL    HW1 6711   3.605   2.456   3.856
 2233SOL    HW2 6712   3.587   2.388   4.004
 2234SOL     OW 6713   2.547   2.874   4.389
 2234SOL    HW1 6714   2.616   2.858   4.459
 2234SOL    HW2 6715   2.474   2.931   4.427
 2235SOL     OW 6716   3.465   2.309   4.461
 2235SOL    HW1 6717   3.391   2.355   4.411
 2235SOL    HW2 6718   3.516   2.377   4.514
 2236SOL     OW 6719   2.093   3.575   4.207
 2236SOL    HW1 6720   2.127   3.652   4.261
 2236SOL    HW2 6721   2.137   3.575   4.117
 2237SOL     OW 6722   2.092   3.296   4.262
 2237SOL    HW1 6723   2.066   3.392   4.262
 2237SOL    HW2 6724   2.021   3.242   4.307
 2238SOL     OW 6725   2.102   2.953   4.610
 2238SOL    HW1 6726   2.116   2.869   4.662
 2238SOL    HW2 6727   2.047   3.017   4.665
 2239SOL     OW 6728   2.468   2.826   3.847
 2239SOL    HW1 6729   2.475   2.910   3.793
 2239SOL    HW2 6730   2.514   2.839   3.935
 2240SOL     OW 6731   1.984   2.505   4.287
 2240SOL    HW1 6732   1.939   2.417   4.304
 2240SOL    HW2 6733   1.983   2.559   4.371
 2241SOL     OW 6734   3.704   3.629   4.083
 2241SOL    HW1 6735   3.758   3.600   4.163
 2241SOL    HW2 6736   3.734   3.719   4.054
 2242SOL     OW 6737   1.889   3.458   3.841
 2242SOL    HW1 6738   1.870   3.362   3.862
 2242SOL    HW2 6739   1.856   3.516   3.916
 2243SOL     OW 6740   3.551   2.784   4.336
 2243SOL    HW1 6741   3.646   2.755   4.344
 2243SOL    HW2 6742   3.543   2.849   4.261
 2244SOL     OW 6743   3.503   2.970   4.156
 2244SOL    HW1 6744   3.589   2.972   4.104
 2244SOL    HW2 6745   3.517   3.017   4.244
 2245SOL     OW 6746   2.475   3.227   4.450
 2245SOL    HW1 6747   2.426   3.140   4.459
 2245SOL    HW2 6748   2.452   3.270   4.363
 2246SOL     OW 6749   2.671   1.866   4.226
 2246SOL    HW1 6750   2.711   1.957   4.217
 2246SOL    HW2 6751   2.571   1.874   4.232
 2247SOL     OW 6752   3.387   2.861   3.914
 2247SOL    HW1 6753   3.324   2.785   3.927
 2247SOL    HW2 6754   3.435   2.879   4.000
 2248SOL     OW 6755   3.529   3.576   4.296
 2248SOL    HW1 6756   3.488   3.553   4.208
 2248SOL    HW2 6757   3.511   3.502   4.361
 2249SOL     OW 6758   2.460   2.591   3.994
 2249SOL    HW1 6759   2.484   2.660   3.926
 2249SOL    HW2 6760   2.382   2.624   4.048
 2250SOL     OW 6761   3.143   2.207   4.668
 2250SOL    HW1 6762   3.057   2.157   4.655
 2250SOL    HW2 6763   3.205   2.153   4.724
 2251SOL     OW 6764   3.438   3.524   4.031
 2251SOL    HW1 6765   3.527   3.570   4.034
 2251SOL    HW2 6766   3.417   3.500   3.936
 2252SOL     OW 6767   2.903   2.563   4.153
 2252SOL    HW1 6768   2.929   2.559   4.249
 2252SOL    HW2 6769   2.818   2.512   4.139
 2253SOL     OW 6770   1.938   2.673   4.513
 2253SOL    HW1 6771   2.037   2.661   4.522
 2253SOL    HW2 6772   1.914   2.768   4.534
 2254SOL     OW 6773   2.727   2.210   3.919
 2254SOL    HW1 6774   2.786   2.273   3.870
 2254SOL    HW2 6775   2.746   2.116   3.890
 2255SOL     OW 6776   3.224   3.006   4.269
 2255SOL    HW1 6777   3.307   2.977   4.221
 2255SOL    HW2 6778   3.175   3.073   4.213
 2256SOL     OW 6779   2.870   3.318   4.201
 2256SOL    HW1 6780   2.824   3.390   4.149
 2256SOL    HW2 6781   2.866   3.338   4.299
 2257SOL     OW 6782   2.213   3.663   4.577
 2257SOL    HW1 6783   2.263   3.577   4.583
 2257SOL    HW2 6784   2.278   3.740   4.574
 2258SOL     OW 6785   3.657   2.928   4.597
 2258SOL    HW1 6786   3.595   2.913   4.521
 2258SOL    HW2 6787   3.605   2.939   4.682
 2259SOL     OW 6788   2.183   2.805   3.966
 2259SOL    HW1 6789   2.265   2.844   3.924
 2259SOL    HW2 6790   2.156   2.723   3.917
 2260SOL     OW 6791   3.320   2.597   4.452
 2260SOL    HW1 6792   3.315   2.532   4.527
 2260SOL    HW2 6793   3.400   2.656   4.465
 2261SOL     OW 6794   2.973   3.638   3.961
 2261SOL    HW1 6795   2.913   3.576   4.011
 2261SOL    HW2 6796   3.004   3.594   3.876
 2262SOL     OW 6797   3.494   3.239   3.805
 2262SOL    HW1 6798   3.462   3.333   3.795
 2262SOL    HW2 6799   3.418   3.176   3.793
 2263SOL     OW 6800   2.326   3.605   4.047
 2263SOL    HW1 6801   2.359   3.644   4.133
 2263SOL    HW2 6802   2.402   3.598   3.982
 2264SOL     OW 6803   3.262   1.969   4.150
 2264SOL    HW1 6804   3.238   1.932   4.060
 2264SOL    HW2 6805   3.361   1.985   4.154
 2265SOL     OW 6806   2.802   3.560   4.628
 2265SOL    HW1 6807   2.882   3.503   4.649
 2265SOL    HW2 6808   2.753   3.520   4.551
 2266SOL     OW 6809   2.244   2.562   4.204
 2266SOL    HW1 6810   2.289   2.472   4.201
 2266SOL    HW2 6811   2.150   2.551   4.237
 2267SOL     OW 6812   2.476   1.984   3.841
 2267SOL    HW1 6813   2.574   1.962   3.848
 2267SOL    HW2 6814   2.445   1.967   3.748
 2268SOL     OW 6815   2.401   1.926   4.236
 2268SOL    HW1 6816   2.320   1.927   4.294
 2268SOL    HW2 6817   2.404   2.009   4.181
 2269SOL     OW 6818   3.296   3.050   3.765
 2269SOL    HW1 6819   3.328   2.974   3.822
 2269SOL    HW2 6820   3.204   3.077   3.795
 2270SOL     OW 6821   2.159   1.897   3.895
 2270SOL    HW1 6822   2.208   1.981   3.874
 2270SOL    HW2 6823   2.221   1.832   3.940
 2271SOL     OW 6824   2.797   2.098   4.204
 2271SOL    HW1 6825   2.749   2.139   4.126
 2271SOL    HW2 6826   2.896   2.096   4.185
 2272SOL     OW 6827   2.321   3.014   4.465
 2272SOL    HW1 6828   2.250   2.987   4.530
 2272SOL    HW2 6829   2.295   2.986   4.372
 2273SOL     OW 6830   3.133   3.659   4.315
 2273SOL    HW1 6831   3.177   3.723   4.251
 2273SOL    HW2 6832   3.083   3.711   4.385
 2274SOL     OW 6833   2.894   2.411   3.740
 2274SOL    HW1 6834   2.853   2.493   3.701
 2274SOL    HW2 6835   2.958   2.437   3.813
 2275SOL     OW 6836   2.728   2.316   4.366
 2275SOL    HW1 6837   2.696   2.388   4.304
 2275SOL    HW2 6838   2.752   2.235   4.313
 2276SOL     OW 6839   2.879   1.901   4.477
 2276SOL    HW1 6840   2.807   1.906   4.408
 2276SOL    HW2 6841   2.855   1.832   4.546
 2277SOL     OW 6842   3.719   2.695   4.101
 2277SOL    HW1 6843   3.761   2.631   4.165
 2277SOL    HW2 6844   3.681   2.644   4.023
 2278SOL     OW 6845   2.350   3.247   3.898
 2278SOL    HW1 6846   2.263   3.232   3.945
 2278SOL    HW2 6847   2.333   3.273   3.803
 2279SOL     OW 6848   3.526   3.142   4.381
 2279SOL    HW1 6849   3.625   3.150   4.395
 2279SOL    HW2 6850   3.481   3.226   4.412
 2280SOL     OW 6851   3.252   2.437   3.802
 2280SOL    HW1 6852   3.198   2.416   3.883
 2280SOL    HW2 6853   3.343   2.396   3.811
 2281SOL     OW 6854   2.389   2.118   4.052
 2281SOL    HW1 6855   2.416   2.059   3.977
 2281SOL    HW2 6856   2.389   2.213   4.021
 2282SOL     OW 6857   2.567   2.912   4.092
 2282SOL    HW1 6858   2.553   2.919   4.191
 2282SOL    HW2 6859   2.651   2.861   4.074
 2283SOL     OW 6860   2.229   2.962   4.225
 2283SOL    HW1 6861   2.222   3.045   4.169
 2283SOL    HW2 6862   2.233   2.882   4.165
 2284SOL     OW 6863   3.114   3.210   4.112
 2284SOL    HW1 6864   3.164   3.287   4.152
 2284SOL    HW2 6865   3.019   3.212   4.144
 2285SOL     OW 6866   3.444   2.501   4.196
 2285SOL    HW1 6867   3.413   2.562   4.269
 2285SOL    HW2 6868   3.494   2.553   4.127
 2286SOL     OW 6869   3.071   2.387   3.999
 2286SOL    HW1 6870   3.084   2.303   4.053
 2286SOL    HW2 6871   3.042   2.461   4.059
 2287SOL     OW 6872   2.169   1.925   4.342
 2287SOL    HW1 6873   2.158   2.019   4.375
 2287SOL    HW2 6874   2.164   1.862   4.419
 2288SOL     OW 6875   3.484   2.229   4.098
 2288SOL    HW1 6876   3.486   2.153   4.162
 2288SOL    HW2 6877   3.436   2.306   4.138
 2289SOL     OW 6878   3.402   2.136   3.849
 2289SOL    HW1 6879   3.341   2.061   3.872
 2289SOL    HW2 6880   3.424   2.188   3.932
 2290SOL     OW 6881   3.165   2.700   3.766
 2290SOL    HW1 6882   3.199   2.607   3.781
 2290SOL    HW2 6883   3.183   2.727   3.671
 2291SOL     OW 6884   1.870   3.188   3.924
 2291SOL    HW1 6885   1.777   3.209   3.893
 2291SOL    HW2 6886   1.880   3.089   3.937
 2292SOL     OW 6887   2.677   2.434   4.049
 2292SOL    HW1 6888   2.684   2.345   4.003
 2292SOL    HW2 6889   2.583   2.468   4.041
 2293SOL     OW 6890   2.335   2.362   3.915
 2293SOL    HW1 6891   2.396   2.442   3.919
 2293SOL    HW2 6892   2.240   2.393   3.922
 2294SOL     OW 6893   3.164   2.717   4.033
 2294SOL    HW1 6894   3.078   2.686   4.075
 2294SOL    HW2 6895   3.160   2.703   3.934
 2295SOL     OW 6896   3.588   1.997   4.247
 2295SOL    HW1 6897   3.661   1.980   4.180
 2295SOL    HW2 6898   3.557   1.910   4.285
 2296SOL     OW 6899   3.250   3.435   4.201
 2296SOL    HW1 6900   3.317   3.447   4.127
 2296SOL    HW2 6901   3.210   3.524   4.224
 2297SOL     OW 6902   3.142   2.789   4.396
 2297SOL    HW1 6903   3.202   2.708   4.398
 2297SOL    HW2 6904   3.182   2.858   4.336
 2298SOL     OW 6905   2.534   3.478   3.878
 2298SOL    HW1 6906   2.543   3.488   3.779
 2298SOL    HW2 6907   2.494   3.389   3.899
 2299SOL     OW 6908   3.703   2.037   4.687
 2299SOL    HW1 6909   3.742   1.952   4.651
 2299SOL    HW2 6910   3.605   2.039   4.668
 2300SOL     OW 6911   2.125   2.188   4.444
 2300SOL    HW1 6912   2.046   2.239   4.410
 2300SOL    HW2 6913   2.116   2.173   4.542
 2301SOL     OW 6914   3.056   3.474   3.755
 2301SOL    HW1 6915   3.062   3.381   3.792
 2301SOL    HW2 6916   2.997   3.474   3.675
 2302SOL     OW 6917   2.778   2.772   4.015
 2302SOL    HW1 6918   2.841   2.810   3.947
 2302SOL    HW2 6919   2.818   2.689   4.054
 2303SOL     OW 6920   3.366   3.469   3.768
 2303SOL    HW1 6921   3.274   3.506   3.775
 2303SOL    HW2 6922   3.404   3.489   3.678
 2304SOL     OW 6923   2.901   2.960   4.420
 2304SOL    HW1 6924   2.831   2.913   4.474
 2304SOL    HW2 6925   2.960   2.892   4.377
 2305SOL     OW 6926   2.452   3.349   4.215
 2305SOL    HW1 6927   2.494   3.291   4.145
 2305SOL    HW2 6928   2.408   3.428   4.171
 2306SOL     OW 6929   2.117   3.210   4.014
 2306SOL    HW1 6930   2.021   3.211   3.987
 2306SOL    HW2 6931   2.129   3.263   4.098
 2307SOL     OW 6932   1.937   2.207   3.757
 2307SOL    HW1 6933   1.845   2.179   3.728
 2307SOL    HW2 6934   1.968   2.284   3.701
 2308SOL     OW 6935   1.934   2.028   4.042
 2308SOL    HW1 6936   1.917   2.111   3.988
 2308SOL    HW2 6937   2.024   1.991   4.020
 2309SOL     OW 6938   3.045   3.197   3.843
 2309SOL    HW1 6939   2.946   3.186   3.845
 2309SOL    HW2 6940   3.079   3.212   3.936
 2310SOL     OW 6941   3.087   2.187   4.173
 2310SOL    HW1 6942   3.152   2.113   4.162
 2310SOL    HW2 6943   3.107   2.237   4.257
 2311SOL     OW 6944   2.456   2.607   4.376
 2311SOL    HW1 6945   2.506   2.692   4.357
 2311SOL    HW2 6946   2.368   2.609   4.328
 2312SOL     OW 6947   2.721   3.236   3.740
 2312SOL    HW1 6948   2.675   3.251   3.828
 2312SOL    HW2 6949   2.765   3.321   3.710
 2313SOL     OW 6950   2.523   3.652   4.677
 2313SOL    HW1 6951   2.477   3.740   4.664
 2313SOL    HW2 6952   2.622   3.664   4.670
 2314SOL     OW 6953   2.721   2.818   4.585
 2314SOL    HW1 6954   2.775   2.749   4.633
 2314SOL    HW2 6955   2.689   2.887   4.651
 2315SOL     OW 6956   2.945   2.846   3.811
 2315SOL    HW1 6957   2.922   2.899   3.729
 2315SOL    HW2 6958   3.026   2.790   3.792
 2316SOL     OW 6959   1.941   3.102   4.377
 2316SOL    HW1 6960   1.940   3.055   4.465
 2316SOL    HW2 6961   2.023   3.074   4.326
 2317SOL     OW 6962   2.290   2.286   4.244
 2317SOL    HW1 6963   2.320   2.214   4.182
 2317SOL    HW2 6964   2.251   2.246   4.327
 2318SOL     OW 6965   3.567   3.349   4.828
 2318SOL    HW1 6966   3.474   3.324   4.801
 2318SOL    HW2 6967   3.593   3.299   4.910
 2319SOL     OW 6968   2.674   3.448   4.411
 2319SOL    HW1 6969   2.706   3.458   4.317
 2319SOL    HW2 6970   2.595   3.386   4.413
 2320SOL     OW 6971   2.632   3.192   4.025
 2320SOL    HW1 6972   2.586   3.105   4.042
 2320SOL    HW2 6973   2.723   3.189   4.066
 2321SOL     OW 6974   3.214   1.914   3.892
 2321SOL    HW1 6975   3.249   1.873   3.808
 2321SOL    HW2 6976   3.124   1.876   3.912
 2322SOL     OW 6977   3.162   2.315   4.415
 2322SOL    HW1 6978   3.103   2.395   4.419
 2322SOL    HW2 6979   3.177   2.280   4.508
 2323SOL     OW 6980   1.901   2.939   4.024
 2323SOL    HW1 6981   2.000   2.928   4.015
 2323SOL    HW2 6982   1.861   2.853   4.056
 2324SOL     OW 6983   2.737   3.508   4.061
 2324SOL    HW1 6984   2.660   3.473   4.007
 2324SOL    HW2 6985   2.705   3.579   4.123
 2325SOL     OW 6986   2.092   4.352   0.113
 2325SOL    HW1 6987   1.999   4.350   0.150
 2325SOL    HW2 6988   2.093   4.313   0.021
 2326SOL     OW 6989   2.087   3.999   0.996
 2326SOL    HW1 6990   2.122   3.982   1.088
 2326SOL    HW2 6991   1.999   3.954   0.984
 2327SOL     OW 6992   1.881   4.092   0.647
 2327SOL    HW1 6993   1.799   4.135   0.686
 2327SOL    HW2 6994   1.853   4.019   0.584
 2328SOL     OW 6995   3.617   4.331   0.231
 2328SOL    HW1 6996   3.605   4.318   0.132
 2328SOL    HW2 6997   3.587   4.250   0.280
 2329SOL     OW 6998   2.712   4.522   1.823
 2329SOL    HW1 6999   2.708   4.598   1.888
 2329SOL    HW2 7000   2.734   4.558   1.732
 2330SOL     OW 7001   2.547   4.736   0.665
 2330SOL    HW1 7002   2.616   4.720   0.735
 2330SOL    HW2 7003   2.474   4.793   0.703
 2331SOL     OW 7004   2.300   4.116   1.499
 2331SOL    HW1 7005   2.382   4.060   1.508
 2331SOL    HW2 7006   2.219   4.058   1.503
 2332SOL     OW 7007   3.465   4.171   0.737
 2332SOL    HW1 7008   3.391   4.217   0.687
 2332SOL    HW2 7009   3.516   4.239   0.790
 2333SOL     OW 7010   3.456   3.838   1.480
 2333SOL    HW1 7011   3.438   3.905   1.408
 2333SOL    HW2 7012   3.453   3.884   1.569
 2334SOL     OW 7013   1.984   4.367   0.563
 2334SOL    HW1 7014   1.939   4.279   0.580
 2334SOL    HW2 7015   1.983   4.421   0.647
 2335SOL     OW 7016   1.975   4.461   1.597
 2335SOL    HW1 7017   2.063   4.448   1.642
 2335SOL    HW2 7018   1.962   4.558   1.575
 2336SOL     OW 7019   2.671   3.728   0.502
 2336SOL    HW1 7020   2.711   3.819   0.493
 2336SOL    HW2 7021   2.571   3.736   0.508
 2337SOL     OW 7022   2.179   3.975   1.801
 2337SOL    HW1 7023   2.250   4.046   1.807
 2337SOL    HW2 7024   2.091   4.014   1.829
 2338SOL     OW 7025   2.460   4.453   0.270
 2338SOL    HW1 7026   2.484   4.522   0.202
 2338SOL    HW2 7027   2.382   4.486   0.324
 2339SOL     OW 7028   3.143   4.069   0.944
 2339SOL    HW1 7029   3.057   4.019   0.931
 2339SOL    HW2 7030   3.205   4.015   1.000
 2340SOL     OW 7031   2.669   4.329   1.465
 2340SOL    HW1 7032   2.622   4.326   1.554
 2340SOL    HW2 7033   2.618   4.274   1.399
 2341SOL     OW 7034   3.256   4.193   1.674
 2341SOL    HW1 7035   3.236   4.236   1.762
 2341SOL    HW2 7036   3.334   4.131   1.683
 2342SOL     OW 7037   2.853   4.134   1.242
 2342SOL    HW1 7038   2.776   4.168   1.296
 2342SOL    HW2 7039   2.819   4.083   1.163
 2343SOL     OW 7040   2.903   4.425   0.429
 2343SOL    HW1 7041   2.929   4.421   0.525
 2343SOL    HW2 7042   2.818   4.374   0.415
 2344SOL     OW 7043   2.727   4.072   0.195
 2344SOL    HW1 7044   2.786   4.135   0.146
 2344SOL    HW2 7045   2.746   3.978   0.166
 2345SOL     OW 7046   3.581   4.309   1.831
 2345SOL    HW1 7047   3.555   4.398   1.795
 2345SOL    HW2 7048   3.579   4.241   1.758
 2346SOL     OW 7049   2.412   3.920   0.885
 2346SOL    HW1 7050   2.407   3.915   0.985
 2346SOL    HW2 7051   2.414   4.016   0.856
 2347SOL     OW 7052   3.320   4.459   0.728
 2347SOL    HW1 7053   3.315   4.394   0.803
 2347SOL    HW2 7054   3.400   4.518   0.741
 2348SOL     OW 7055   2.064   4.009   1.498
 2348SOL    HW1 7056   1.984   4.069   1.485
 2348SOL    HW2 7057   2.054   3.960   1.584
 2349SOL     OW 7058   3.262   3.831   0.426
 2349SOL    HW1 7059   3.238   3.794   0.336
 2349SOL    HW2 7060   3.361   3.847   0.430
 2350SOL     OW 7061   2.244   4.424   0.480
 2350SOL    HW1 7062   2.289   4.334   0.477
 2350SOL    HW2 7063   2.150   4.413   0.513
 2351SOL     OW 7064   3.409   3.946   1.729
 2351SOL    HW1 7065   3.404   3.983   1.821
 2351SOL    HW2 7066   3.337   3.877   1.717
 2352SOL     OW 7067   2.643   3.988   1.749
 2352SOL    HW1 7068   2.710   3.927   1.792
 2352SOL    HW2 7069   2.570   4.007   1.814
 2353SOL     OW 7070   3.213   4.314   1.433
 2353SOL    HW1 7071   3.241   4.271   1.518
 2353SOL    HW2 7072   3.238   4.410   1.434
 2354SOL     OW 7073   2.784   4.227   0.899
 2354SOL    HW1 7074   2.759   4.218   0.803
 2354SOL    HW2 7075   2.832   4.145   0.930
 2355SOL     OW 7076   2.401   3.788   0.512
 2355SOL    HW1 7077   2.320   3.789   0.570
 2355SOL    HW2 7078   2.404   3.871   0.457
 2356SOL     OW 7079   2.159   3.759   0.171
 2356SOL    HW1 7080   2.208   3.843   0.150
 2356SOL    HW2 7081   2.221   3.694   0.216
 2357SOL     OW 7082   2.797   3.960   0.480
 2357SOL    HW1 7083   2.749   4.001   0.402
 2357SOL    HW2 7084   2.896   3.958   0.461
 2358SOL     OW 7085   2.938   4.407   1.464
 2358SOL    HW1 7086   2.858   4.346   1.467
 2358SOL    HW2 7087   3.019   4.354   1.440
 2359SOL     OW 7088   2.894   4.273   0.016
 2359SOL    HW1 7089   2.853   4.355  -0.023
 2359SOL    HW2 7090   2.958   4.299   0.089
 2360SOL     OW 7091   1.940   4.280   1.386
 2360SOL    HW1 7092   2.032   4.279   1.345
 2360SOL    HW2 7093   1.934   4.354   1.453
 2361SOL     OW 7094   2.423   3.946   1.147
 2361SOL    HW1 7095   2.461   3.862   1.184
 2361SOL    HW2 7096   2.335   3.965   1.191
 2362SOL     OW 7097   2.728   4.178   0.642
 2362SOL    HW1 7098   2.696   4.250   0.580
 2362SOL    HW2 7099   2.752   4.097   0.589
 2363SOL     OW 7100   2.879   3.763   0.753
 2363SOL    HW1 7101   2.807   3.768   0.684
 2363SOL    HW2 7102   2.855   3.694   0.822
 2364SOL     OW 7103   3.328   4.314   0.992
 2364SOL    HW1 7104   3.298   4.219   0.999
 2364SOL    HW2 7105   3.401   4.330   1.058
 2365SOL     OW 7106   3.719   4.557   0.377
 2365SOL    HW1 7107   3.761   4.493   0.441
 2365SOL    HW2 7108   3.681   4.506   0.299
 2366SOL     OW 7109   3.252   4.299   0.078
 2366SOL    HW1 7110   3.198   4.278   0.159
 2366SOL    HW2 7111   3.343   4.258   0.087
 2367SOL     OW 7112   2.389   3.980   0.328
 2367SOL    HW1 7113   2.416   3.921   0.253
 2367SOL    HW2 7114   2.389   4.075   0.297
 2368SOL     OW 7115   2.777   3.813   1.402
 2368SOL    HW1 7116   2.802   3.793   1.307
 2368SOL    HW2 7117   2.849   3.869   1.444
 2369SOL     OW 7118   2.567   4.774   0.368
 2369SOL    HW1 7119   2.553   4.781   0.467
 2369SOL    HW2 7120   2.651   4.723   0.350
 2370SOL     OW 7121   2.272   4.537   1.251
 2370SOL    HW1 7122   2.358   4.549   1.301
 2370SOL    HW2 7123   2.230   4.450   1.278
 2371SOL     OW 7124   3.136   4.110   1.262
 2371SOL    HW1 7125   3.157   4.184   1.326
 2371SOL    HW2 7126   3.047   4.127   1.219
 2372SOL     OW 7127   2.428   4.261   0.865
 2372SOL    HW1 7128   2.440   4.327   0.791
 2372SOL    HW2 7129   2.474   4.295   0.948
 2373SOL     OW 7130   3.444   4.363   0.472
 2373SOL    HW1 7131   3.413   4.424   0.545
 2373SOL    HW2 7132   3.494   4.415   0.403
 2374SOL     OW 7133   3.449   4.503   1.670
 2374SOL    HW1 7134   3.357   4.541   1.665
 2374SOL    HW2 7135   3.509   4.550   1.605
 2375SOL     OW 7136   2.875   3.829   1.770
 2375SOL    HW1 7137   2.881   3.914   1.718
 2375SOL    HW2 7138   2.907   3.753   1.713
 2376SOL     OW 7139   2.366   3.774   1.740
 2376SOL    HW1 7140   2.324   3.717   1.670
 2376SOL    HW2 7141   2.300   3.843   1.772
 2377SOL     OW 7142   3.222   4.586   1.045
 2377SOL    HW1 7143   3.147   4.586   0.979
 2377SOL    HW2 7144   3.259   4.494   1.054
 2378SOL     OW 7145   3.071   4.249   0.275
 2378SOL    HW1 7146   3.084   4.165   0.329
 2378SOL    HW2 7147   3.042   4.323   0.335
 2379SOL     OW 7148   2.169   3.937   1.231
 2379SOL    HW1 7149   2.146   3.974   1.321
 2379SOL    HW2 7150   2.139   3.842   1.225
 2380SOL     OW 7151   2.594   4.358   1.064
 2380SOL    HW1 7152   2.653   4.332   0.988
 2380SOL    HW2 7153   2.566   4.454   1.053
 2381SOL     OW 7154   3.590   4.659   1.854
 2381SOL    HW1 7155   3.544   4.652   1.765
 2381SOL    HW2 7156   3.528   4.703   1.920
 2382SOL     OW 7157   2.169   3.787   0.618
 2382SOL    HW1 7158   2.158   3.881   0.651
 2382SOL    HW2 7159   2.164   3.724   0.695
 2383SOL     OW 7160   3.484   4.091   0.374
 2383SOL    HW1 7161   3.486   4.015   0.438
 2383SOL    HW2 7162   3.436   4.168   0.414
 2384SOL     OW 7163   3.402   3.998   0.125
 2384SOL    HW1 7164   3.341   3.923   0.148
 2384SOL    HW2 7165   3.424   4.050   0.208
 2385SOL     OW 7166   2.181   4.534   0.949
 2385SOL    HW1 7167   2.274   4.570   0.954
 2385SOL    HW2 7168   2.175   4.449   1.001
 2386SOL     OW 7169   2.201   4.233   1.006
 2386SOL    HW1 7170   2.149   4.150   0.989
 2386SOL    HW2 7171   2.278   4.238   0.942
 2387SOL     OW 7172   3.000   4.104   1.678
 2387SOL    HW1 7173   2.955   4.167   1.742
 2387SOL    HW2 7174   3.093   4.135   1.661
 2388SOL     OW 7175   3.022   3.931   1.477
 2388SOL    HW1 7176   3.022   3.995   1.554
 2388SOL    HW2 7177   3.050   3.979   1.394
 2389SOL     OW 7178   1.902   4.268   1.114
 2389SOL    HW1 7179   1.987   4.235   1.073
 2389SOL    HW2 7180   1.915   4.283   1.212
 2390SOL     OW 7181   2.051   4.244   1.722
 2390SOL    HW1 7182   2.110   4.204   1.652
 2390SOL    HW2 7183   1.993   4.315   1.681
 2391SOL     OW 7184   2.677   4.296   0.325
 2391SOL    HW1 7185   2.684   4.207   0.279
 2391SOL    HW2 7186   2.583   4.330   0.317
 2392SOL     OW 7187   3.519   4.328   1.206
 2392SOL    HW1 7188   3.481   4.259   1.268
 2392SOL    HW2 7189   3.601   4.292   1.162
 2393SOL     OW 7190   2.533   4.188   1.269
 2393SOL    HW1 7191   2.499   4.099   1.239
 2393SOL    HW2 7192   2.559   4.242   1.189
 2394SOL     OW 7193   2.335   4.224   0.191
 2394SOL    HW1 7194   2.396   4.304   0.195
 2394SOL    HW2 7195   2.240   4.255   0.198
 2395SOL     OW 7196   2.765   3.810   0.133
 2395SOL    HW1 7197   2.816   3.811   0.047
 2395SOL    HW2 7198   2.821   3.768   0.204
 2396SOL     OW 7199   3.588   3.859   0.523
 2396SOL    HW1 7200   3.661   3.842   0.456
 2396SOL    HW2 7201   3.557   3.772   0.561
 2397SOL     OW 7202   3.142   4.651   0.672
 2397SOL    HW1 7203   3.202   4.570   0.674
 2397SOL    HW2 7204   3.182   4.720   0.612
 2398SOL     OW 7205   3.703   3.899   0.963
 2398SOL    HW1 7206   3.742   3.814   0.927
 2398SOL    HW2 7207   3.605   3.901   0.944
 2399SOL     OW 7208   2.125   4.050   0.720
 2399SOL    HW1 7209   2.046   4.101   0.686
 2399SOL    HW2 7210   2.116   4.035   0.818
 2400SOL     OW 7211   2.876   3.960   0.971
 2400SOL    HW1 7212   2.868   3.924   0.878
 2400SOL    HW2 7213   2.874   3.884   1.036
 2401SOL     OW 7214   3.571   4.109   1.381
 2401SOL    HW1 7215   3.644   4.178   1.385
 2401SOL    HW2 7216   3.599   4.034   1.322
 2402SOL     OW 7217   1.967   4.737   1.726
 2402SOL    HW1 7218   1.890   4.704   1.780
 2402SOL    HW2 7219   2.052   4.707   1.768
 2403SOL     OW 7220   2.534   3.927   1.489
 2403SOL    HW1 7221   2.624   3.911   1.449
 2403SOL    HW2 7222   2.542   3.932   1.588
 2404SOL     OW 7223   1.937   4.069   0.033
 2404SOL    HW1 7224   1.845   4.041   0.004
 2404SOL    HW2 7225   1.968   4.146  -0.023
 2405SOL     OW 7226   3.302   4.580   1.398
 2405SOL    HW1 7227   3.245   4.632   1.335
 2405SOL    HW2 7228   3.398   4.592   1.374
 2406SOL     OW 7229   1.934   3.890   0.318
 2406SOL    HW1 7230   1.917   3.973   0.264
 2406SOL    HW2 7231   2.024   3.853   0.296
 2407SOL     OW 7232   2.475   4.566   1.431
 2407SOL    HW1 7233   2.531   4.647   1.414
 2407SOL    HW2 7234   2.534   4.486   1.434
 2408SOL     OW 7235   2.578   4.289   1.708
 2408SOL    HW1 7236   2.597   4.354   1.782
 2408SOL    HW2 7237   2.638   4.209   1.717
 2409SOL     OW 7238   3.536   4.607   1.254
 2409SOL    HW1 7239   3.509   4.518   1.217
 2409SOL    HW2 7240   3.537   4.675   1.181
 2410SOL     OW 7241   3.087   4.049   0.449
 2410SOL    HW1 7242   3.152   3.975   0.438
 2410SOL    HW2 7243   3.107   4.099   0.533
 2411SOL     OW 7244   2.456   4.469   0.652
 2411SOL    HW1 7245   2.506   4.554   0.633
 2411SOL    HW2 7246   2.368   4.471   0.604
 2412SOL     OW 7247   3.639   4.066   1.642
 2412SOL    HW1 7248   3.622   4.097   1.548
 2412SOL    HW2 7249   3.555   4.029   1.680
 2413SOL     OW 7250   3.686   3.916   1.227
 2413SOL    HW1 7251   3.682   3.826   1.271
 2413SOL    HW2 7252   3.689   3.905   1.128
 2414SOL     OW 7253   2.290   4.148   0.520
 2414SOL    HW1 7254   2.320   4.076   0.458
 2414SOL    HW2 7255   2.251   4.108   0.603
 2415SOL     OW 7256   2.179   4.271   1.280
 2415SOL    HW1 7257   2.217   4.212   1.352
 2415SOL    HW2 7258   2.219   4.245   1.192
 2416SOL     OW 7259   3.286   3.938   1.112
 2416SOL    HW1 7260   3.338   3.873   1.167
 2416SOL    HW2 7261   3.237   4.001   1.173
 2417SOL     OW 7262   2.863   3.758   1.154
 2417SOL    HW1 7263   2.800   3.686   1.123
 2417SOL    HW2 7264   2.956   3.722   1.154
 2418SOL     OW 7265   3.214   3.776   0.168
 2418SOL    HW1 7266   3.249   3.735   0.084
 2418SOL    HW2 7267   3.124   3.738   0.188
 2419SOL     OW 7268   3.162   4.177   0.691
 2419SOL    HW1 7269   3.103   4.257   0.695
 2419SOL    HW2 7270   3.177   4.142   0.784
 2420SOL     OW 7271   3.455   3.945   0.882
 2420SOL    HW1 7272   3.371   3.944   0.936
 2420SOL    HW2 7273   3.457   4.028   0.826
 2421SOL     OW 7274   2.092   4.352   1.975
 2421SOL    HW1 7275   1.999   4.350   2.012
 2421SOL    HW2 7276   2.093   4.313   1.883
 2422SOL     OW 7277   2.087   3.999   2.858
 2422SOL    HW1 7278   2.122   3.982   2.950
 2422SOL    HW2 7279   1.999   3.954   2.846
 2423SOL     OW 7280   1.881   4.092   2.509
 2423SOL    HW1 7281   1.799   4.135   2.548
 2423SOL    HW2 7282   1.853   4.019   2.446
 2424SOL     OW 7283   3.617   4.331   2.093
 2424SOL    HW1 7284   3.605   4.318   1.994
 2424SOL    HW2 7285   3.587   4.250   2.142
 2425SOL     OW 7286   2.712   4.522   3.685
 2425SOL    HW1 7287   2.708   4.598   3.750
 2425SOL    HW2 7288   2.734   4.558   3.594
 2426SOL     OW 7289   2.547   4.736   2.527
 2426SOL    HW1 7290   2.616   4.720   2.597
 2426SOL    HW2 7291   2.474   4.793   2.565
 2427SOL     OW 7292   2.300   4.116   3.361
 2427SOL    HW1 7293   2.382   4.060   3.370
 2427SOL    HW2 7294   2.219   4.058   3.365
 2428SOL     OW 7295   3.465   4.171   2.599
 2428SOL    HW1 7296   3.391   4.217   2.549
 2428SOL    HW2 7297   3.516   4.239   2.652
 2429SOL     OW 7298   3.456   3.838   3.342
 2429SOL    HW1 7299   3.438   3.905   3.270
 2429SOL    HW2 7300   3.453   3.884   3.431
 2430SOL     OW 7301   1.984   4.367   2.425
 2430SOL    HW1 7302   1.939   4.279   2.442
 2430SOL    HW2 7303   1.983   4.421   2.509
 2431SOL     OW 7304   1.975   4.461   3.459
 2431SOL    HW1 7305   2.063   4.448   3.504
 2431SOL    HW2 7306   1.962   4.558   3.437
 2432SOL     OW 7307   2.671   3.728   2.364
 2432SOL    HW1 7308   2.711   3.819   2.355
 2432SOL    HW2 7309   2.571   3.736   2.370
 2433SOL     OW 7310   2.179   3.975   3.663
 2433SOL    HW1 7311   2.250   4.046   3.669
 2433SOL    HW2 7312   2.091   4.014   3.691
 2434SOL     OW 7313   2.460   4.453   2.132
 2434SOL    HW1 7314   2.484   4.522   2.064
 2434SOL    HW2 7315   2.382   4.486   2.186
 2435SOL     OW 7316   3.143   4.069   2.806
 2435SOL    HW1 7317   3.057   4.019   2.793
 2435SOL    HW2 7318   3.205   4.015   2.862
 2436SOL     OW 7319   2.669   4.329   3.327
 2436SOL    HW1 7320   2.622   4.326   3.416
 2436SOL    HW2 7321   2.618   4.274   3.261
 2437SOL     OW 7322   3.256   4.193   3.536
 2437SOL    HW1 7323   3.236   4.236   3.624
 2437SOL    HW2 7324   3.334   4.131   3.545
 2438SOL     OW 7325   2.853   4.134   3.104
 2438SOL    HW1 7326   2.776   4.168   3.158
 2438SOL    HW2 7327   2.819   4.083   3.025
 2439SOL     OW 7328   2.903   4.425   2.291
 2439SOL    HW1 7329   2.929   4.421   2.387
 2439SOL    HW2 7330   2.818   4.374   2.277
 2440SOL     OW 7331   2.727   4.072   2.057
 2440SOL    HW1 7332   2.786   4.135   2.008
 2440SOL    HW2 7333   2.746   3.978   2.028
 2441SOL     OW 7334   3.581   4.309   3.693
 2441SOL    HW1 7335   3.555   4.398   3.657
 2441SOL    HW2 7336   3.579   4.241   3.620
 2442SOL     OW 7337   2.412   3.920   2.747
 2442SOL    HW1 7338   2.407   3.915   2.847
 2442SOL    HW2 7339   2.414   4.016   2.718
 2443SOL     OW 7340   3.320   4.459   2.590
 2443SOL    HW1 7341   3.315   4.394   2.665
 2443SOL    HW2 7342   3.400   4.518   2.603
 2444SOL     OW 7343   2.064   4.009   3.360
 2444SOL    HW1 7344   1.984   4.069   3.347
 2444SOL    HW2 7345   2.054   3.960   3.446
 2445SOL     OW 7346   3.262   3.831   2.288
 2445SOL    HW1 7347   3.238   3.794   2.198
 2445SOL    HW2 7348   3.361   3.847   2.292
 2446SOL     OW 7349   2.244   4.424   2.342
 2446SOL    HW1 7350   2.289   4.334   2.339
 2446SOL    HW2 7351   2.150   4.413   2.375
 2447SOL     OW 7352   3.409   3.946   3.591
 2447SOL    HW1 7353   3.404   3.983   3.683
 2447SOL    HW2 7354   3.337   3.877   3.579
 2448SOL     OW 7355   2.476   3.846   1.979
 2448SOL    HW1 7356   2.574   3.824   1.986
 2448SOL    HW2 7357   2.445   3.829   1.886
 2449SOL     OW 7358   2.643   3.988   3.611
 2449SOL    HW1 7359   2.710   3.927   3.654
 2449SOL    HW2 7360   2.570   4.007   3.676
 2450SOL     OW 7361   3.213   4.314   3.295
 2450SOL    HW1 7362   3.241   4.271   3.380
 2450SOL    HW2 7363   3.238   4.410   3.296
 2451SOL     OW 7364   2.784   4.227   2.761
 2451SOL    HW1 7365   2.759   4.218   2.665
 2451SOL    HW2 7366   2.832   4.145   2.792
 2452SOL     OW 7367   2.401   3.788   2.374
 2452SOL    HW1 7368   2.320   3.789   2.432
 2452SOL    HW2 7369   2.404   3.871   2.319
 2453SOL     OW 7370   2.159   3.759   2.033
 2453SOL    HW1 7371   2.208   3.843   2.012
 2453SOL    HW2 7372   2.221   3.694   2.078
 2454SOL     OW 7373   2.797   3.960   2.342
 2454SOL    HW1 7374   2.749   4.001   2.264
 2454SOL    HW2 7375   2.896   3.958   2.323
 2455SOL     OW 7376   2.938   4.407   3.326
 2455SOL    HW1 7377   2.858   4.346   3.329
 2455SOL    HW2 7378   3.019   4.354   3.302
 2456SOL     OW 7379   2.894   4.273   1.878
 2456SOL    HW1 7380   2.853   4.355   1.839
 2456SOL    HW2 7381   2.958   4.299   1.951
 2457SOL     OW 7382   1.940   4.280   3.248
 2457SOL    HW1 7383   2.032   4.279   3.207
 2457SOL    HW2 7384   1.934   4.354   3.315
 2458SOL     OW 7385   2.423   3.946   3.009
 2458SOL    HW1 7386   2.461   3.862   3.046
 2458SOL    HW2 7387   2.335   3.965   3.053
 2459SOL     OW 7388   2.728   4.178   2.504
 2459SOL    HW1 7389   2.696   4.250   2.442
 2459SOL    HW2 7390   2.752   4.097   2.451
 2460SOL     OW 7391   2.879   3.763   2.615
 2460SOL    HW1 7392   2.807   3.768   2.546
 2460SOL    HW2 7393   2.855   3.694   2.684
 2461SOL     OW 7394   3.328   4.314   2.854
 2461SOL    HW1 7395   3.298   4.219   2.861
 2461SOL    HW2 7396   3.401   4.330   2.920
 2462SOL     OW 7397   3.719   4.557   2.239
 2462SOL    HW1 7398   3.761   4.493   2.303
 2462SOL    HW2 7399   3.681   4.506   2.161
 2463SOL     OW 7400   3.252   4.299   1.940
 2463SOL    HW1 7401   3.198   4.278   2.021
 2463SOL    HW2 7402   3.343   4.258   1.949
 2464SOL     OW 7403   2.389   3.980   2.190
 2464SOL    HW1 7404   2.416   3.921   2.115
 2464SOL    HW2 7405   2.389   4.075   2.159
 2465SOL     OW 7406   2.777   3.813   3.264
 2465SOL    HW1 7407   2.802   3.793   3.169
 2465SOL    HW2 7408   2.849   3.869   3.306
 2466SOL     OW 7409   2.567   4.774   2.230
 2466SOL    HW1 7410   2.553   4.781   2.329
 2466SOL    HW2 7411   2.651   4.723   2.212
 2467SOL     OW 7412   2.272   4.537   3.113
 2467SOL    HW1 7413   2.358   4.549   3.163
 2467SOL    HW2 7414   2.230   4.450   3.140
 2468SOL     OW 7415   3.136   4.110   3.124
 2468SOL    HW1 7416   3.157   4.184   3.188
 2468SOL    HW2 7417   3.047   4.127   3.081
 2469SOL     OW 7418   2.428   4.261   2.727
 2469SOL    HW1 7419   2.440   4.327   2.653
 2469SOL    HW2 7420   2.474   4.295   2.810
 2470SOL     OW 7421   3.444   4.363   2.334
 2470SOL    HW1 7422   3.413   4.424   2.407
 2470SOL    HW2 7423   3.494   4.415   2.265
 2471SOL     OW 7424   3.449   4.503   3.532
 2471SOL    HW1 7425   3.357   4.541   3.527
 2471SOL    HW2 7426   3.509   4.550   3.467
 2472SOL     OW 7427   2.875   3.829   3.632
 2472SOL    HW1 7428   2.881   3.914   3.580
 2472SOL    HW2 7429   2.907   3.753   3.575
 2473SOL     OW 7430   2.366   3.774   3.602
 2473SOL    HW1 7431   2.324   3.717   3.532
 2473SOL    HW2 7432   2.300   3.843   3.634
 2474SOL     OW 7433   3.222   4.586   2.907
 2474SOL    HW1 7434   3.147   4.586   2.841
 2474SOL    HW2 7435   3.259   4.494   2.916
 2475SOL     OW 7436   3.071   4.249   2.137
 2475SOL    HW1 7437   3.084   4.165   2.191
 2475SOL    HW2 7438   3.042   4.323   2.197
 2476SOL     OW 7439   2.169   3.937   3.093
 2476SOL    HW1 7440   2.146   3.974   3.183
 2476SOL    HW2 7441   2.139   3.842   3.087
 2477SOL     OW 7442   2.594   4.358   2.926
 2477SOL    HW1 7443   2.653   4.332   2.850
 2477SOL    HW2 7444   2.566   4.454   2.915
 2478SOL     OW 7445   3.590   4.659   3.716
 2478SOL    HW1 7446   3.544   4.652   3.627
 2478SOL    HW2 7447   3.528   4.703   3.782
 2479SOL     OW 7448   2.169   3.787   2.480
 2479SOL    HW1 7449   2.158   3.881   2.513
 2479SOL    HW2 7450   2.164   3.724   2.557
 2480SOL     OW 7451   3.484   4.091   2.236
 2480SOL    HW1 7452   3.486   4.015   2.300
 2480SOL    HW2 7453   3.436   4.168   2.276
 2481SOL     OW 7454   3.402   3.998   1.987
 2481SOL    HW1 7455   3.341   3.923   2.010
 2481SOL    HW2 7456   3.424   4.050   2.070
 2482SOL     OW 7457   2.181   4.534   2.811
 2482SOL    HW1 7458   2.274   4.570   2.816
 2482SOL    HW2 7459   2.175   4.449   2.863
 2483SOL     OW 7460   2.201   4.233   2.868
 2483SOL    HW1 7461   2.149   4.150   2.851
 2483SOL    HW2 7462   2.278   4.238   2.804
 2484SOL     OW 7463   3.000   4.104   3.540
 2484SOL    HW1 7464   2.955   4.167   3.604
 2484SOL    HW2 7465   3.093   4.135   3.523
 2485SOL     OW 7466   3.022   3.931   3.339
 2485SOL    HW1 7467   3.022   3.995   3.416
 2485SOL    HW2 7468   3.050   3.979   3.256
 2486SOL     OW 7469   1.902   4.268   2.976
 2486SOL    HW1 7470   1.987   4.235   2.935
 2486SOL    HW2 7471   1.915   4.283   3.074
 2487SOL     OW 7472   2.051   4.244   3.584
 2487SOL    HW1 7473   2.110   4.204   3.514
 2487SOL    HW2 7474   1.993   4.315   3.543
 2488SOL     OW 7475   2.677   4.296   2.187
 2488SOL    HW1 7476   2.684   4.207   2.141
 2488SOL    HW2 7477   2.583   4.330   2.179
 2489SOL     OW 7478   3.519   4.328   3.068
 2489SOL    HW1 7479   3.481   4.259   3.130
 2489SOL    HW2 7480   3.601   4.292   3.024
 2490SOL     OW 7481   2.533   4.188   3.131
 2490SOL    HW1 7482   2.499   4.099   3.101
 2490SOL    HW2 7483   2.559   4.242   3.051
 2491SOL     OW 7484   2.335   4.224   2.053
 2491SOL    HW1 7485   2.396   4.304   2.057
 2491SOL    HW2 7486   2.240   4.255   2.060
 2492SOL     OW 7487   3.588   3.859   2.385
 2492SOL    HW1 7488   3.661   3.842   2.318
 2492SOL    HW2 7489   3.557   3.772   2.423
 2493SOL     OW 7490   3.142   4.651   2.534
 2493SOL    HW1 7491   3.202   4.570   2.536
 2493SOL    HW2 7492   3.182   4.720   2.474
 2494SOL     OW 7493   3.703   3.899   2.825
 2494SOL    HW1 7494   3.742   3.814   2.789
 2494SOL    HW2 7495   3.605   3.901   2.806
 2495SOL     OW 7496   2.125   4.050   2.582
 2495SOL    HW1 7497   2.046   4.101   2.548
 2495SOL    HW2 7498   2.116   4.035   2.680
 2496SOL     OW 7499   2.778   4.634   2.153
 2496SOL    HW1 7500   2.841   4.672   2.085
 2496SOL    HW2 7501   2.818   4.551   2.192
 2497SOL     OW 7502   2.876   3.960   2.833
 2497SOL    HW1 7503   2.868   3.924   2.740
 2497SOL    HW2 7504   2.874   3.884   2.898
 2498SOL     OW 7505   3.571   4.109   3.243
 2498SOL    HW1 7506   3.644   4.178   3.247
 2498SOL    HW2 7507   3.599   4.034   3.184
 2499SOL     OW 7508   1.967   4.737   3.588
 2499SOL    HW1 7509   1.890   4.704   3.642
 2499SOL    HW2 7510   2.052   4.707   3.630
 2500SOL     OW 7511   2.534   3.927   3.351
 2500SOL    HW1 7512   2.624   3.911   3.311
 2500SOL    HW2 7513   2.542   3.932   3.450
 2501SOL     OW 7514   1.937   4.069   1.895
 2501SOL    HW1 7515   1.845   4.041   1.866
 2501SOL    HW2 7516   1.968   4.146   1.839
 2502SOL     OW 7517   3.302   4.580   3.260
 2502SOL    HW1 7518   3.245   4.632   3.197
 2502SOL    HW2 7519   3.398   4.592   3.236
 2503SOL     OW 7520   1.934   3.890   2.180
 2503SOL    HW1 7521   1.917   3.973   2.126
 2503SOL    HW2 7522   2.024   3.853   2.158
 2504SOL     OW 7523   2.475   4.566   3.293
 2504SOL    HW1 7524   2.531   4.647   3.276
 2504SOL    HW2 7525   2.534   4.486   3.296
 2505SOL     OW 7526   2.578   4.289   3.570
 2505SOL    HW1 7527   2.597   4.354   3.644
 2505SOL    HW2 7528   2.638   4.209   3.579
 2506SOL     OW 7529   3.536   4.607   3.116
 2506SOL    HW1 7530   3.509   4.518   3.079
 2506SOL    HW2 7531   3.537   4.675   3.043
 2507SOL     OW 7532   3.087   4.049   2.311
 2507SOL    HW1 7533   3.152   3.975   2.300
 2507SOL    HW2 7534   3.107   4.099   2.395
 2508SOL     OW 7535   2.456   4.469   2.514
 2508SOL    HW1 7536   2.506   4.554   2.495
 2508SOL    HW2 7537   2.368   4.471   2.466
 2509SOL     OW 7538   3.639   4.066   3.504
 2509SOL    HW1 7539   3.622   4.097   3.410
 2509SOL    HW2 7540   3.555   4.029   3.542
 2510SOL     OW 7541   3.686   3.916   3.089
 2510SOL    HW1 7542   3.682   3.826   3.133
 2510SOL    HW2 7543   3.689   3.905   2.990
 2511SOL     OW 7544   2.290   4.148   2.382
 2511SOL    HW1 7545   2.320   4.076   2.320
 2511SOL    HW2 7546   2.251   4.108   2.465
 2512SOL     OW 7547   2.179   4.271   3.142
 2512SOL    HW1 7548   2.217   4.212   3.214
 2512SOL    HW2 7549   2.219   4.245   3.054
 2513SOL     OW 7550   3.286   3.938   2.974
 2513SOL    HW1 7551   3.338   3.873   3.029
 2513SOL    HW2 7552   3.237   4.001   3.035
 2514SOL     OW 7553   2.863   3.758   3.016
 2514SOL    HW1 7554   2.800   3.686   2.985
 2514SOL    HW2 7555   2.956   3.722   3.016
 2515SOL     OW 7556   3.214   3.776   2.030
 2515SOL    HW1 7557   3.249   3.735   1.946
 2515SOL    HW2 7558   3.124   3.738   2.050
 2516SOL     OW 7559   3.162   4.177   2.553
 2516SOL    HW1 7560   3.103   4.257   2.557
 2516SOL    HW2 7561   3.177   4.142   2.646
 2517SOL     OW 7562   3.455   3.945   2.744
 2517SOL    HW1 7563   3.371   3.944   2.798
 2517SOL    HW2 7564   3.457   4.028   2.688
 2518SOL     OW 7565   2.092   4.352   3.837
 2518SOL    HW1 7566   1.999   4.350   3.874
 2518SOL    HW2 7567   2.093   4.313   3.745
 2519SOL     OW 7568   2.087   3.999   4.720
 2519SOL    HW1 7569   2.122   3.982   4.812
 2519SOL    HW2 7570   1.999   3.954   4.708
 2520SOL     OW 7571   1.881   4.092   4.371
 2520SOL    HW1 7572   1.799   4.135   4.410
 2520SOL    HW2 7573   1.853   4.019   4.308
 2521SOL     OW 7574   3.617   4.331   3.955
 2521SOL    HW1 7575   3.605   4.318   3.856
 2521SOL    HW2 7576   3.587   4.250   4.004
 2522SOL     OW 7577   2.547   4.736   4.389
 2522SOL    HW1 7578   2.616   4.720   4.459
 2522SOL    HW2 7579   2.474   4.793   4.427
 2523SOL     OW 7580   3.465   4.171   4.461
 2523SOL    HW1 7581   3.391   4.217   4.411
 2523SOL    HW2 7582   3.516   4.239   4.514
 2524SOL     OW 7583   1.984   4.367   4.287
 2524SOL    HW1 7584   1.939   4.279   4.304
 2524SOL    HW2 7585   1.983   4.421   4.371
 2525SOL     OW 7586   2.671   3.728   4.226
 2525SOL    HW1 7587   2.711   3.819   4.217
 2525SOL    HW2 7588   2.571   3.736   4.232
 2526SOL     OW 7589   2.460   4.453   3.994
 2526SOL    HW1 7590   2.484   4.522   3.926
 2526SOL    HW2 7591   2.382   4.486   4.048
 2527SOL     OW 7592   3.143   4.069   4.668
 2527SOL    HW1 7593   3.057   4.019   4.655
 2527SOL    HW2 7594   3.205   4.015   4.724
 2528SOL     OW 7595   2.903   4.425   4.153
 2528SOL    HW1 7596   2.929   4.421   4.249
 2528SOL    HW2 7597   2.818   4.374   4.139
 2529SOL     OW 7598   2.727   4.072   3.919
 2529SOL    HW1 7599   2.786   4.135   3.870
 2529SOL    HW2 7600   2.746   3.978   3.890
 2530SOL     OW 7601   3.320   4.459   4.452
 2530SOL    HW1 7602   3.315   4.394   4.527
 2530SOL    HW2 7603   3.400   4.518   4.465
 2531SOL     OW 7604   3.262   3.831   4.150
 2531SOL    HW1 7605   3.238   3.794   4.060
 2531SOL    HW2 7606   3.361   3.847   4.154
 2532SOL     OW 7607   2.244   4.424   4.204
 2532SOL    HW1 7608   2.289   4.334   4.201
 2532SOL    HW2 7609   2.150   4.413   4.237
 2533SOL     OW 7610   2.476   3.846   3.841
 2533SOL    HW1 7611   2.574   3.824   3.848
 2533SOL    HW2 7612   2.445   3.829   3.748
 2534SOL     OW 7613   2.401   3.788   4.236
 2534SOL    HW1 7614   2.320   3.789   4.294
 2534SOL    HW2 7615   2.404   3.871   4.181
 2535SOL     OW 7616   2.159   3.759   3.895
 2535SOL    HW1 7617   2.208   3.843   3.874
 2535SOL    HW2 7618   2.221   3.694   3.940
 2536SOL     OW 7619   2.797   3.960   4.204
 2536SOL    HW1 7620   2.749   4.001   4.126
 2536SOL    HW2 7621   2.896   3.958   4.185
 2537SOL     OW 7622   2.894   4.273   3.740
 2537SOL    HW1 7623   2.853   4.355   3.701
 2537SOL    HW2 7624   2.958   4.299   3.813
 2538SOL     OW 7625   2.728   4.178   4.366
 2538SOL    HW1 7626   2.696   4.250   4.304
 2538SOL    HW2 7627   2.752   4.097   4.313
 2539SOL     OW 7628   2.879   3.763   4.477
 2539SOL    HW1 7629   2.807   3.768   4.408
 2539SOL    HW2 7630   2.855   3.694   4.546
 2540SOL     OW 7631   3.719   4.557   4.101
 2540SOL    HW1 7632   3.761   4.493   4.165
 2540SOL    HW2 7633   3.681   4.506   4.023
 2541SOL     OW 7634   3.252   4.299   3.802
 2541SOL    HW1 7635   3.198   4.278   3.883
 2541SOL    HW2 7636   3.343   4.258   3.811
 2542SOL     OW 7637   2.389   3.980   4.052
 2542SOL    HW1 7638   2.416   3.921   3.977
 2542SOL    HW2 7639   2.389   4.075   4.021
 2543SOL     OW 7640   2.567   4.774   4.092
 2543SOL    HW1 7641   2.553   4.781   4.191
 2543SOL    HW2 7642   2.651   4.723   4.074
 2544SOL     OW 7643   3.444   4.363   4.196
 2544SOL    HW1 7644   3.413   4.424   4.269
 2544SOL    HW2 7645   3.494   4.415   4.127
 2545SOL     OW 7646   3.071   4.249   3.999
 2545SOL    HW1 7647   3.084   4.165   4.053
 2545SOL    HW2 7648   3.042   4.323   4.059
 2546SOL     OW 7649   2.169   3.787   4.342
 2546SOL    HW1 7650   2.158   3.881   4.375
 2546SOL    HW2 7651   2.164   3.724   4.419
 2547SOL     OW 7652   3.484   4.091   4.098
 2547SOL    HW1 7653   3.486   4.015   4.162
 2547SOL    HW2 7654   3.436   4.168   4.138
 2548SOL     OW 7655   3.402   3.998   3.849
 2548SOL    HW1 7656   3.341   3.923   3.872
 2548SOL    HW2 7657   3.424   4.050   3.932
 2549SOL     OW 7658   2.677   4.296   4.049
 2549SOL    HW1 7659   2.684   4.207   4.003
 2549SOL    HW2 7660   2.583   4.330   4.041
 2550SOL     OW 7661   2.335   4.224   3.915
 2550SOL    HW1 7662   2.396   4.304   3.919
 2550SOL    HW2 7663   2.240   4.255   3.922
 2551SOL     OW 7664   3.588   3.859   4.247
 2551SOL    HW1 7665   3.661   3.842   4.180
 2551SOL    HW2 7666   3.557   3.772   4.285
 2552SOL     OW 7667   3.142   4.651   4.396
 2552SOL    HW1 7668   3.202   4.570   4.398
 2552SOL    HW2 7669   3.182   4.720   4.336
 2553SOL     OW 7670   3.703   3.899   4.687
 2553SOL    HW1 7671   3.742   3.814   4.651
 2553SOL    HW2 7672   3.605   3.901   4.668
 2554SOL     OW 7673   2.125   4.050   4.444
 2554SOL    HW1 7674   2.046   4.101   4.410
 2554SOL    HW2 7675   2.116   4.035   4.542
 2555SOL     OW 7676   2.778   4.634   4.015
 2555SOL    HW1 7677   2.841   4.672   3.947
 2555SOL    HW2 7678   2.818   4.551   4.054
 2556SOL     OW 7679   2.901   4.822   4.420
 2556SOL    HW1 7680   2.831   4.775   4.474
 2556SOL    HW2 7681   2.960   4.754   4.377
 2557SOL     OW 7682   1.937   4.069   3.757
 2557SOL    HW1 7683   1.845   4.041   3.728
 2557SOL    HW2 7684   1.968   4.146   3.701
 2558SOL     OW 7685   1.934   3.890   4.042
 2558SOL    HW1 7686   1.917   3.973   3.988
 2558SOL    HW2 7687   2.024   3.853   4.020
 2559SOL     OW 7688   3.087   4.049   4.173
 2559SOL    HW1 7689   3.152   3.975   4.162
 2559SOL    HW2 7690   3.107   4.099   4.257
 2560SOL     OW 7691   2.456   4.469   4.376
 2560SOL    HW1 7692   2.506   4.554   4.357
 2560SOL    HW2 7693   2.368   4.471   4.328
 2561SOL     OW 7694   2.290   4.148   4.244
 2561SOL    HW1 7695   2.320   4.076   4.182
 2561SOL    HW2 7696   2.251   4.108   4.327
 2562SOL     OW 7697   3.214   3.776   3.892
 2562SOL    HW1 7698   3.249   3.735   3.808
 2562SOL    HW2 7699   3.124   3.738   3.912
 2563SOL     OW 7700   3.162   4.177   4.415
 2563SOL    HW1 7701   3.103   4.257   4.419
 2563SOL    HW2 7702   3.177   4.142   4.508
 2564SOL     OW 7703   3.954   0.628   0.113
 2564SOL    HW1 7704   3.861   0.626   0.150
 2564SOL    HW2 7705   3.955   0.589   0.021
 2565SOL     OW 7706   3.949   0.275   0.996
 2565SOL    HW1 7707   3.984   0.258   1.088
 2565SOL    HW2 7708   3.861   0.230   0.984
 2566SOL     OW 7709   3.743   0.368   0.647
 2566SOL    HW1 7710   3.661   0.411   0.686
 2566SOL    HW2 7711   3.715   0.295   0.584
 2567SOL     OW 7712   4.293   1.275   1.165
 2567SOL    HW1 7713   4.200   1.268   1.128
 2567SOL    HW2 7714   4.304   1.364   1.209
 2568SOL     OW 7715   4.574   0.798   1.823
 2568SOL    HW1 7716   4.570   0.874   1.888
 2568SOL    HW2 7717   4.596   0.834   1.732
 2569SOL     OW 7718   4.409   1.012   0.665
 2569SOL    HW1 7719   4.478   0.996   0.735
 2569SOL    HW2 7720   4.336   1.069   0.703
 2570SOL     OW 7721   4.410   1.161   1.803
 2570SOL    HW1 7722   4.470   1.240   1.817
 2570SOL    HW2 7723   4.324   1.192   1.762
 2571SOL     OW 7724   4.059   1.435   1.061
 2571SOL    HW1 7725   3.981   1.404   1.008
 2571SOL    HW2 7726   4.117   1.493   1.004
 2572SOL     OW 7727   4.162   0.392   1.499
 2572SOL    HW1 7728   4.244   0.336   1.508
 2572SOL    HW2 7729   4.081   0.334   1.503
 2573SOL     OW 7730   3.955   1.713   0.483
 2573SOL    HW1 7731   3.989   1.790   0.537
 2573SOL    HW2 7732   3.999   1.713   0.393
 2574SOL     OW 7733   3.954   1.434   0.538
 2574SOL    HW1 7734   3.928   1.530   0.538
 2574SOL    HW2 7735   3.883   1.380   0.583
 2575SOL     OW 7736   3.964   1.091   0.886
 2575SOL    HW1 7737   3.978   1.007   0.938
 2575SOL    HW2 7738   3.909   1.155   0.941
 2576SOL     OW 7739   4.344   1.786   1.439
 2576SOL    HW1 7740   4.252   1.769   1.474
 2576SOL    HW2 7741   4.372   1.878   1.465
 2577SOL     OW 7742   4.330   0.964   0.123
 2577SOL    HW1 7743   4.337   1.048   0.069
 2577SOL    HW2 7744   4.376   0.977   0.211
 2578SOL     OW 7745   3.846   0.643   0.563
 2578SOL    HW1 7746   3.801   0.555   0.580
 2578SOL    HW2 7747   3.845   0.697   0.647
 2579SOL     OW 7748   3.751   1.596   0.117
 2579SOL    HW1 7749   3.732   1.500   0.138
 2579SOL    HW2 7750   3.718   1.654   0.192
 2580SOL     OW 7751   3.837   0.737   1.597
 2580SOL    HW1 7752   3.925   0.724   1.642
 2580SOL    HW2 7753   3.824   0.834   1.575
 2581SOL     OW 7754   4.337   1.365   0.726
 2581SOL    HW1 7755   4.288   1.278   0.735
 2581SOL    HW2 7756   4.314   1.408   0.639
 2582SOL     OW 7757   4.533   0.004   0.502
 2582SOL    HW1 7758   4.573   0.095   0.493
 2582SOL    HW2 7759   4.433   0.012   0.508
 2583SOL     OW 7760   3.921   0.976   1.264
 2583SOL    HW1 7761   4.010   0.931   1.250
 2583SOL    HW2 7762   3.848   0.911   1.245
 2584SOL     OW 7763   4.041   0.251   1.801
 2584SOL    HW1 7764   4.112   0.322   1.807
 2584SOL    HW2 7765   3.953   0.290   1.829
 2585SOL     OW 7766   4.322   0.729   0.270
 2585SOL    HW1 7767   4.346   0.798   0.202
 2585SOL    HW2 7768   4.244   0.762   0.324
 2586SOL     OW 7769   3.800   0.811   0.789
 2586SOL    HW1 7770   3.899   0.799   0.798
 2586SOL    HW2 7771   3.776   0.906   0.810
 2587SOL     OW 7772   3.854   1.821   1.571
 2587SOL    HW1 7773   3.844   1.806   1.670
 2587SOL    HW2 7774   3.768   1.857   1.535
 2588SOL     OW 7775   4.274   0.196   0.885
 2588SOL    HW1 7776   4.269   0.191   0.985
 2588SOL    HW2 7777   4.276   0.292   0.856
 2589SOL     OW 7778   4.075   1.801   0.853
 2589SOL    HW1 7779   4.125   1.715   0.859
 2589SOL    HW2 7780   4.140   1.878   0.850
 2590SOL     OW 7781   4.045   0.943   0.242
 2590SOL    HW1 7782   4.127   0.982   0.200
 2590SOL    HW2 7783   4.018   0.861   0.193
 2591SOL     OW 7784   4.185   1.266   1.727
 2591SOL    HW1 7785   4.135   1.267   1.641
 2591SOL    HW2 7786   4.122   1.248   1.803
 2592SOL     OW 7787   3.926   0.285   1.498
 2592SOL    HW1 7788   3.846   0.345   1.485
 2592SOL    HW2 7789   3.916   0.236   1.584
 2593SOL     OW 7790   4.188   1.743   0.323
 2593SOL    HW1 7791   4.221   1.782   0.409
 2593SOL    HW2 7792   4.264   1.736   0.258
 2594SOL     OW 7793   3.973   1.785   1.241
 2594SOL    HW1 7794   4.030   1.720   1.291
 2594SOL    HW2 7795   3.957   1.752   1.148
 2595SOL     OW 7796   4.106   0.700   0.480
 2595SOL    HW1 7797   4.151   0.610   0.477
 2595SOL    HW2 7798   4.012   0.689   0.513
 2596SOL     OW 7799   4.338   0.122   0.117
 2596SOL    HW1 7800   4.436   0.100   0.124
 2596SOL    HW2 7801   4.307   0.105   0.024
 2597SOL     OW 7802   4.527   1.402   0.924
 2597SOL    HW1 7803   4.617   1.416   0.882
 2597SOL    HW2 7804   4.456   1.404   0.853
 2598SOL     OW 7805   4.646   0.503   0.899
 2598SOL    HW1 7806   4.621   0.494   0.803
 2598SOL    HW2 7807   4.694   0.421   0.930
 2599SOL     OW 7808   4.263   0.064   0.512
 2599SOL    HW1 7809   4.182   0.065   0.570
 2599SOL    HW2 7810   4.266   0.147   0.457
 2600SOL     OW 7811   4.021   0.035   0.171
 2600SOL    HW1 7812   4.070   0.119   0.150
 2600SOL    HW2 7813   4.083  -0.030   0.216
 2601SOL     OW 7814   4.183   1.152   0.741
 2601SOL    HW1 7815   4.112   1.125   0.806
 2601SOL    HW2 7816   4.157   1.124   0.648
 2602SOL     OW 7817   3.802   0.556   1.386
 2602SOL    HW1 7818   3.894   0.555   1.345
 2602SOL    HW2 7819   3.796   0.630   1.453
 2603SOL     OW 7820   4.285   0.222   1.147
 2603SOL    HW1 7821   4.323   0.138   1.184
 2603SOL    HW2 7822   4.197   0.241   1.191
 2604SOL     OW 7823   4.212   1.385   0.174
 2604SOL    HW1 7824   4.125   1.370   0.221
 2604SOL    HW2 7825   4.195   1.411   0.079
 2605SOL     OW 7826   4.251   0.256   0.328
 2605SOL    HW1 7827   4.278   0.197   0.253
 2605SOL    HW2 7828   4.251   0.351   0.297
 2606SOL     OW 7829   4.639   0.089   1.402
 2606SOL    HW1 7830   4.664   0.069   1.307
 2606SOL    HW2 7831   4.711   0.145   1.444
 2607SOL     OW 7832   4.134   0.813   1.251
 2607SOL    HW1 7833   4.220   0.825   1.301
 2607SOL    HW2 7834   4.092   0.726   1.278
 2608SOL     OW 7835   3.788   1.564   1.331
 2608SOL    HW1 7836   3.742   1.646   1.297
 2608SOL    HW2 7837   3.886   1.583   1.340
 2609SOL     OW 7838   4.091   1.100   0.501
 2609SOL    HW1 7839   4.084   1.183   0.445
 2609SOL    HW2 7840   4.095   1.020   0.441
 2610SOL     OW 7841   4.290   0.537   0.865
 2610SOL    HW1 7842   4.302   0.603   0.791
 2610SOL    HW2 7843   4.336   0.571   0.948
 2611SOL     OW 7844   4.078   1.510   1.329
 2611SOL    HW1 7845   4.057   1.466   1.242
 2611SOL    HW2 7846   4.175   1.536   1.332
 2612SOL     OW 7847   4.126   0.751   1.598
 2612SOL    HW1 7848   4.194   0.806   1.551
 2612SOL    HW2 7849   4.166   0.663   1.625
 2613SOL     OW 7850   4.228   0.050   1.740
 2613SOL    HW1 7851   4.186  -0.007   1.670
 2613SOL    HW2 7852   4.162   0.119   1.772
 2614SOL     OW 7853   4.297   0.870   1.029
 2614SOL    HW1 7854   4.341   0.959   1.020
 2614SOL    HW2 7855   4.234   0.870   1.106
 2615SOL     OW 7856   4.031   0.213   1.231
 2615SOL    HW1 7857   4.008   0.250   1.321
 2615SOL    HW2 7858   4.001   0.118   1.225
 2616SOL     OW 7859   3.761   1.310   1.282
 2616SOL    HW1 7860   3.814   1.261   1.350
 2616SOL    HW2 7861   3.783   1.408   1.287
 2617SOL     OW 7862   4.456   0.634   1.064
 2617SOL    HW1 7863   4.515   0.608   0.988
 2617SOL    HW2 7864   4.428   0.730   1.053
 2618SOL     OW 7865   4.031   0.063   0.618
 2618SOL    HW1 7866   4.020   0.157   0.651
 2618SOL    HW2 7867   4.026   0.000   0.695
 2619SOL     OW 7868   4.074   0.898   1.804
 2619SOL    HW1 7869   4.150   0.942   1.852
 2619SOL    HW2 7870   4.109   0.851   1.722
 2620SOL     OW 7871   4.792   1.333   0.849
 2620SOL    HW1 7872   4.799   1.249   0.794
 2620SOL    HW2 7873   4.854   1.402   0.813
 2621SOL     OW 7874   4.043   0.810   0.949
 2621SOL    HW1 7875   4.136   0.846   0.954
 2621SOL    HW2 7876   4.037   0.725   1.001
 2622SOL     OW 7877   4.063   0.509   1.006
 2622SOL    HW1 7878   4.011   0.426   0.989
 2622SOL    HW2 7879   4.140   0.514   0.942
 2623SOL     OW 7880   3.732   1.326   0.200
 2623SOL    HW1 7881   3.639   1.347   0.169
 2623SOL    HW2 7882   3.742   1.227   0.213
 2624SOL     OW 7883   3.812   1.801   0.927
 2624SOL    HW1 7884   3.770   1.715   0.900
 2624SOL    HW2 7885   3.906   1.804   0.893
 2625SOL     OW 7886   4.228   1.568   0.910
 2625SOL    HW1 7887   4.294   1.642   0.919
 2625SOL    HW2 7888   4.272   1.489   0.868
 2626SOL     OW 7889   3.764   0.544   1.114
 2626SOL    HW1 7890   3.849   0.511   1.073
 2626SOL    HW2 7891   3.777   0.559   1.212
 2627SOL     OW 7892   3.913   0.520   1.722
 2627SOL    HW1 7893   3.972   0.480   1.652
 2627SOL    HW2 7894   3.855   0.591   1.681
 2628SOL     OW 7895   4.539   0.572   0.325
 2628SOL    HW1 7896   4.546   0.483   0.279
 2628SOL    HW2 7897   4.445   0.606   0.317
 2629SOL     OW 7898   3.976   1.564   1.744
 2629SOL    HW1 7899   3.946   1.621   1.820
 2629SOL    HW2 7900   3.969   1.467   1.770
 2630SOL     OW 7901   4.395   0.464   1.269
 2630SOL    HW1 7902   4.361   0.375   1.239
 2630SOL    HW2 7903   4.421   0.518   1.189
 2631SOL     OW 7904   4.197   0.500   0.191
 2631SOL    HW1 7905   4.258   0.580   0.195
 2631SOL    HW2 7906   4.102   0.531   0.198
 2632SOL     OW 7907   3.883   1.137   1.466
 2632SOL    HW1 7908   3.905   1.076   1.542
 2632SOL    HW2 7909   3.893   1.088   1.380
 2633SOL     OW 7910   3.807   1.258   1.022
 2633SOL    HW1 7911   3.802   1.257   1.122
 2633SOL    HW2 7912   3.724   1.217   0.984
 2634SOL     OW 7913   4.412   1.662   1.716
 2634SOL    HW1 7914   4.356   1.743   1.725
 2634SOL    HW2 7915   4.464   1.666   1.630
 2635SOL     OW 7916   3.854   1.794   1.851
 2635SOL    HW1 7917   3.813   1.720   1.904
 2635SOL    HW2 7918   3.918   1.845   1.909
 2636SOL     OW 7919   4.396   1.616   0.154
 2636SOL    HW1 7920   4.405   1.626   0.055
 2636SOL    HW2 7921   4.356   1.527   0.175
 2637SOL     OW 7922   3.987   0.326   0.720
 2637SOL    HW1 7923   3.908   0.377   0.686
 2637SOL    HW2 7924   3.978   0.311   0.818
 2638SOL     OW 7925   4.546   1.002   1.372
 2638SOL    HW1 7926   4.586   1.001   1.280
 2638SOL    HW2 7927   4.556   1.094   1.412
 2639SOL     OW 7928   4.096   1.288   1.490
 2639SOL    HW1 7929   4.083   1.381   1.456
 2639SOL    HW2 7930   4.012   1.236   1.477
 2640SOL     OW 7931   4.314   1.487   0.491
 2640SOL    HW1 7932   4.356   1.429   0.421
 2640SOL    HW2 7933   4.270   1.566   0.447
 2641SOL     OW 7934   3.979   1.348   0.290
 2641SOL    HW1 7935   3.883   1.349   0.263
 2641SOL    HW2 7936   3.991   1.401   0.374
 2642SOL     OW 7937   3.829   1.013   1.726
 2642SOL    HW1 7938   3.752   0.980   1.780
 2642SOL    HW2 7939   3.914   0.983   1.768
 2643SOL     OW 7940   4.396   0.203   1.489
 2643SOL    HW1 7941   4.486   0.187   1.449
 2643SOL    HW2 7942   4.404   0.208   1.588
 2644SOL     OW 7943   3.799   0.345   0.033
 2644SOL    HW1 7944   3.707   0.317   0.004
 2644SOL    HW2 7945   3.830   0.422  -0.023
 2645SOL     OW 7946   3.796   0.166   0.318
 2645SOL    HW1 7947   3.779   0.249   0.264
 2645SOL    HW2 7948   3.886   0.129   0.296
 2646SOL     OW 7949   4.337   0.842   1.431
 2646SOL    HW1 7950   4.393   0.923   1.414
 2646SOL    HW2 7951   4.396   0.762   1.434
 2647SOL     OW 7952   4.440   0.565   1.708
 2647SOL    HW1 7953   4.459   0.630   1.782
 2647SOL    HW2 7954   4.500   0.485   1.717
 2648SOL     OW 7955   4.114   1.741   1.560
 2648SOL    HW1 7956   4.023   1.782   1.558
 2648SOL    HW2 7957   4.107   1.647   1.592
 2649SOL     OW 7958   4.318   0.745   0.652
 2649SOL    HW1 7959   4.368   0.830   0.633
 2649SOL    HW2 7960   4.230   0.747   0.604
 2650SOL     OW 7961   4.385   1.790   0.953
 2650SOL    HW1 7962   4.339   1.878   0.940
 2650SOL    HW2 7963   4.484   1.802   0.946
 2651SOL     OW 7964   3.945   1.314   1.844
 2651SOL    HW1 7965   3.880   1.241   1.823
 2651SOL    HW2 7966   3.949   1.328   1.942
 2652SOL     OW 7967   3.803   1.240   0.653
 2652SOL    HW1 7968   3.802   1.193   0.741
 2652SOL    HW2 7969   3.885   1.212   0.602
 2653SOL     OW 7970   4.396   1.391   1.624
 2653SOL    HW1 7971   4.318   1.341   1.662
 2653SOL    HW2 7972   4.393   1.486   1.655
 2654SOL     OW 7973   4.152   0.424   0.520
 2654SOL    HW1 7974   4.182   0.352   0.458
 2654SOL    HW2 7975   4.113   0.384   0.603
 2655SOL     OW 7976   4.041   0.547   1.280
 2655SOL    HW1 7977   4.079   0.488   1.352
 2655SOL    HW2 7978   4.081   0.521   1.192
 2656SOL     OW 7979   4.536   1.586   0.687
 2656SOL    HW1 7980   4.568   1.596   0.593
 2656SOL    HW2 7981   4.457   1.524   0.689
 2657SOL     OW 7982   4.725   0.034   1.154
 2657SOL    HW1 7983   4.662  -0.038   1.123
 2657SOL    HW2 7984   4.818  -0.002   1.154
 2658SOL     OW 7985   4.342   1.567   1.284
 2658SOL    HW1 7986   4.337   1.649   1.341
 2658SOL    HW2 7987   4.431   1.564   1.239
 2659SOL     OW 7988   3.763   1.077   0.300
 2659SOL    HW1 7989   3.862   1.066   0.291
 2659SOL    HW2 7990   3.723   0.991   0.332
 2660SOL     OW 7991   3.954   0.628   1.975
 2660SOL    HW1 7992   3.861   0.626   2.012
 2660SOL    HW2 7993   3.955   0.589   1.883
 2661SOL     OW 7994   3.949   0.275   2.858
 2661SOL    HW1 7995   3.984   0.258   2.950
 2661SOL    HW2 7996   3.861   0.230   2.846
 2662SOL     OW 7997   3.743   0.368   2.509
 2662SOL    HW1 7998   3.661   0.411   2.548
 2662SOL    HW2 7999   3.715   0.295   2.446
 2663SOL     OW 8000   4.293   1.275   3.027
 2663SOL    HW1 8001   4.200   1.268   2.990
 2663SOL    HW2 8002   4.304   1.364   3.071
 2664SOL     OW 8003   4.574   0.798   3.685
 2664SOL    HW1 8004   4.570   0.874   3.750
 2664SOL    HW2 8005   4.596   0.834   3.594
 2665SOL     OW 8006   4.409   1.012   2.527
 2665SOL    HW1 8007   4.478   0.996   2.597
 2665SOL    HW2 8008   4.336   1.069   2.565
 2666SOL     OW 8009   4.410   1.161   3.665
 2666SOL    HW1 8010   4.470   1.240   3.679
 2666SOL    HW2 8011   4.324   1.192   3.624
 2667SOL     OW 8012   4.059   1.435   2.923
 2667SOL    HW1 8013   3.981   1.404   2.870
 2667SOL    HW2 8014   4.117   1.493   2.866
 2668SOL     OW 8015   4.162   0.392   3.361
 2668SOL    HW1 8016   4.244   0.336   3.370
 2668SOL    HW2 8017   4.081   0.334   3.365
 2669SOL     OW 8018   3.955   1.713   2.345
 2669SOL    HW1 8019   3.989   1.790   2.399
 2669SOL    HW2 8020   3.999   1.713   2.255
 2670SOL     OW 8021   3.954   1.434   2.400
 2670SOL    HW1 8022   3.928   1.530   2.400
 2670SOL    HW2 8023   3.883   1.380   2.445
 2671SOL     OW 8024   3.964   1.091   2.748
 2671SOL    HW1 8025   3.978   1.007   2.800
 2671SOL    HW2 8026   3.909   1.155   2.803
 2672SOL     OW 8027   4.344   1.786   3.301
 2672SOL    HW1 8028   4.252   1.769   3.336
 2672SOL    HW2 8029   4.372   1.878   3.327
 2673SOL     OW 8030   4.330   0.964   1.985
 2673SOL    HW1 8031   4.337   1.048   1.931
 2673SOL    HW2 8032   4.376   0.977   2.073
 2674SOL     OW 8033   3.846   0.643   2.425
 2674SOL    HW1 8034   3.801   0.555   2.442
 2674SOL    HW2 8035   3.845   0.697   2.509
 2675SOL     OW 8036   3.751   1.596   1.979
 2675SOL    HW1 8037   3.732   1.500   2.000
 2675SOL    HW2 8038   3.718   1.654   2.054
 2676SOL     OW 8039   3.837   0.737   3.459
 2676SOL    HW1 8040   3.925   0.724   3.504
 2676SOL    HW2 8041   3.824   0.834   3.437
 2677SOL     OW 8042   4.337   1.365   2.588
 2677SOL    HW1 8043   4.288   1.278   2.597
 2677SOL    HW2 8044   4.314   1.408   2.501
 2678SOL     OW 8045   4.533   0.004   2.364
 2678SOL    HW1 8046   4.573   0.095   2.355
 2678SOL    HW2 8047   4.433   0.012   2.370
 2679SOL     OW 8048   3.921   0.976   3.126
 2679SOL    HW1 8049   4.010   0.931   3.112
 2679SOL    HW2 8050   3.848   0.911   3.107
 2680SOL     OW 8051   4.041   0.251   3.663
 2680SOL    HW1 8052   4.112   0.322   3.669
 2680SOL    HW2 8053   3.953   0.290   3.691
 2681SOL     OW 8054   4.322   0.729   2.132
 2681SOL    HW1 8055   4.346   0.798   2.064
 2681SOL    HW2 8056   4.244   0.762   2.186
 2682SOL     OW 8057   3.800   0.811   2.651
 2682SOL    HW1 8058   3.899   0.799   2.660
 2682SOL    HW2 8059   3.776   0.906   2.672
 2683SOL     OW 8060   3.854   1.821   3.433
 2683SOL    HW1 8061   3.844   1.806   3.532
 2683SOL    HW2 8062   3.768   1.857   3.397
 2684SOL     OW 8063   4.274   0.196   2.747
 2684SOL    HW1 8064   4.269   0.191   2.847
 2684SOL    HW2 8065   4.276   0.292   2.718
 2685SOL     OW 8066   4.075   1.801   2.715
 2685SOL    HW1 8067   4.125   1.715   2.721
 2685SOL    HW2 8068   4.140   1.878   2.712
 2686SOL     OW 8069   4.045   0.943   2.104
 2686SOL    HW1 8070   4.127   0.982   2.062
 2686SOL    HW2 8071   4.018   0.861   2.055
 2687SOL     OW 8072   4.185   1.266   3.589
 2687SOL    HW1 8073   4.135   1.267   3.503
 2687SOL    HW2 8074   4.122   1.248   3.665
 2688SOL     OW 8075   3.926   0.285   3.360
 2688SOL    HW1 8076   3.846   0.345   3.347
 2688SOL    HW2 8077   3.916   0.236   3.446
 2689SOL     OW 8078   4.188   1.743   2.185
 2689SOL    HW1 8079   4.221   1.782   2.271
 2689SOL    HW2 8080   4.264   1.736   2.120
 2690SOL     OW 8081   3.973   1.785   3.103
 2690SOL    HW1 8082   4.030   1.720   3.153
 2690SOL    HW2 8083   3.957   1.752   3.010
 2691SOL     OW 8084   4.106   0.700   2.342
 2691SOL    HW1 8085   4.151   0.610   2.339
 2691SOL    HW2 8086   4.012   0.689   2.375
 2692SOL     OW 8087   4.338   0.122   1.979
 2692SOL    HW1 8088   4.436   0.100   1.986
 2692SOL    HW2 8089   4.307   0.105   1.886
 2693SOL     OW 8090   4.527   1.402   2.786
 2693SOL    HW1 8091   4.617   1.416   2.744
 2693SOL    HW2 8092   4.456   1.404   2.715
 2694SOL     OW 8093   4.646   0.503   2.761
 2694SOL    HW1 8094   4.621   0.494   2.665
 2694SOL    HW2 8095   4.694   0.421   2.792
 2695SOL     OW 8096   4.263   0.064   2.374
 2695SOL    HW1 8097   4.182   0.065   2.432
 2695SOL    HW2 8098   4.266   0.147   2.319
 2696SOL     OW 8099   4.021   0.035   2.033
 2696SOL    HW1 8100   4.070   0.119   2.012
 2696SOL    HW2 8101   4.083  -0.030   2.078
 2697SOL     OW 8102   4.183   1.152   2.603
 2697SOL    HW1 8103   4.112   1.125   2.668
 2697SOL    HW2 8104   4.157   1.124   2.510
 2698SOL     OW 8105   3.802   0.556   3.248
 2698SOL    HW1 8106   3.894   0.555   3.207
 2698SOL    HW2 8107   3.796   0.630   3.315
 2699SOL     OW 8108   4.285   0.222   3.009
 2699SOL    HW1 8109   4.323   0.138   3.046
 2699SOL    HW2 8110   4.197   0.241   3.053
 2700SOL     OW 8111   4.212   1.385   2.036
 2700SOL    HW1 8112   4.125   1.370   2.083
 2700SOL    HW2 8113   4.195   1.411   1.941
 2701SOL     OW 8114   4.251   0.256   2.190
 2701SOL    HW1 8115   4.278   0.197   2.115
 2701SOL    HW2 8116   4.251   0.351   2.159
 2702SOL     OW 8117   4.639   0.089   3.264
 2702SOL    HW1 8118   4.664   0.069   3.169
 2702SOL    HW2 8119   4.711   0.145   3.306
 2703SOL     OW 8120   4.134   0.813   3.113
 2703SOL    HW1 8121   4.220   0.825   3.163
 2703SOL    HW2 8122   4.092   0.726   3.140
 2704SOL     OW 8123   3.788   1.564   3.193
 2704SOL    HW1 8124   3.742   1.646   3.159
 2704SOL    HW2 8125   3.886   1.583   3.202
 2705SOL     OW 8126   4.091   1.100   2.363
 2705SOL    HW1 8127   4.084   1.183   2.307
 2705SOL    HW2 8128   4.095   1.020   2.303
 2706SOL     OW 8129   4.290   0.537   2.727
 2706SOL    HW1 8130   4.302   0.603   2.653
 2706SOL    HW2 8131   4.336   0.571   2.810
 2707SOL     OW 8132   4.078   1.510   3.191
 2707SOL    HW1 8133   4.057   1.466   3.104
 2707SOL    HW2 8134   4.175   1.536   3.194
 2708SOL     OW 8135   4.126   0.751   3.460
 2708SOL    HW1 8136   4.194   0.806   3.413
 2708SOL    HW2 8137   4.166   0.663   3.487
 2709SOL     OW 8138   4.228   0.050   3.602
 2709SOL    HW1 8139   4.186  -0.007   3.532
 2709SOL    HW2 8140   4.162   0.119   3.634
 2710SOL     OW 8141   4.297   0.870   2.891
 2710SOL    HW1 8142   4.341   0.959   2.882
 2710SOL    HW2 8143   4.234   0.870   2.968
 2711SOL     OW 8144   4.031   0.213   3.093
 2711SOL    HW1 8145   4.008   0.250   3.183
 2711SOL    HW2 8146   4.001   0.118   3.087
 2712SOL     OW 8147   3.761   1.310   3.144
 2712SOL    HW1 8148   3.814   1.261   3.212
 2712SOL    HW2 8149   3.783   1.408   3.149
 2713SOL     OW 8150   4.456   0.634   2.926
 2713SOL    HW1 8151   4.515   0.608   2.850
 2713SOL    HW2 8152   4.428   0.730   2.915
 2714SOL     OW 8153   4.031   0.063   2.480
 2714SOL    HW1 8154   4.020   0.157   2.513
 2714SOL    HW2 8155   4.026   0.000   2.557
 2715SOL     OW 8156   4.074   0.898   3.666
 2715SOL    HW1 8157   4.150   0.942   3.714
 2715SOL    HW2 8158   4.109   0.851   3.584
 2716SOL     OW 8159   4.792   1.333   2.711
 2716SOL    HW1 8160   4.799   1.249   2.656
 2716SOL    HW2 8161   4.854   1.402   2.675
 2717SOL     OW 8162   4.043   0.810   2.811
 2717SOL    HW1 8163   4.136   0.846   2.816
 2717SOL    HW2 8164   4.037   0.725   2.863
 2718SOL     OW 8165   4.063   0.509   2.868
 2718SOL    HW1 8166   4.011   0.426   2.851
 2718SOL    HW2 8167   4.140   0.514   2.804
 2719SOL     OW 8168   3.732   1.326   2.062
 2719SOL    HW1 8169   3.639   1.347   2.031
 2719SOL    HW2 8170   3.742   1.227   2.075
 2720SOL     OW 8171   3.812   1.801   2.789
 2720SOL    HW1 8172   3.770   1.715   2.762
 2720SOL    HW2 8173   3.906   1.804   2.755
 2721SOL     OW 8174   4.228   1.568   2.772
 2721SOL    HW1 8175   4.294   1.642   2.781
 2721SOL    HW2 8176   4.272   1.489   2.730
 2722SOL     OW 8177   3.764   0.544   2.976
 2722SOL    HW1 8178   3.849   0.511   2.935
 2722SOL    HW2 8179   3.777   0.559   3.074
 2723SOL     OW 8180   3.913   0.520   3.584
 2723SOL    HW1 8181   3.972   0.480   3.514
 2723SOL    HW2 8182   3.855   0.591   3.543
 2724SOL     OW 8183   4.539   0.572   2.187
 2724SOL    HW1 8184   4.546   0.483   2.141
 2724SOL    HW2 8185   4.445   0.606   2.179
 2725SOL     OW 8186   3.976   1.564   3.606
 2725SOL    HW1 8187   3.946   1.621   3.682
 2725SOL    HW2 8188   3.969   1.467   3.632
 2726SOL     OW 8189   4.395   0.464   3.131
 2726SOL    HW1 8190   4.361   0.375   3.101
 2726SOL    HW2 8191   4.421   0.518   3.051
 2727SOL     OW 8192   4.197   0.500   2.053
 2727SOL    HW1 8193   4.258   0.580   2.057
 2727SOL    HW2 8194   4.102   0.531   2.060
 2728SOL     OW 8195   3.883   1.137   3.328
 2728SOL    HW1 8196   3.905   1.076   3.404
 2728SOL    HW2 8197   3.893   1.088   3.242
 2729SOL     OW 8198   3.807   1.258   2.884
 2729SOL    HW1 8199   3.802   1.257   2.984
 2729SOL    HW2 8200   3.724   1.217   2.846
 2730SOL     OW 8201   4.412   1.662   3.578
 2730SOL    HW1 8202   4.356   1.743   3.587
 2730SOL    HW2 8203   4.464   1.666   3.492
 2731SOL     OW 8204   4.627   0.086   1.995
 2731SOL    HW1 8205   4.678   0.087   1.909
 2731SOL    HW2 8206   4.683   0.044   2.066
 2732SOL     OW 8207   3.854   1.794   3.713
 2732SOL    HW1 8208   3.813   1.720   3.766
 2732SOL    HW2 8209   3.918   1.845   3.771
 2733SOL     OW 8210   4.396   1.616   2.016
 2733SOL    HW1 8211   4.405   1.626   1.917
 2733SOL    HW2 8212   4.356   1.527   2.037
 2734SOL     OW 8213   3.987   0.326   2.582
 2734SOL    HW1 8214   3.908   0.377   2.548
 2734SOL    HW2 8215   3.978   0.311   2.680
 2735SOL     OW 8216   4.546   1.002   3.234
 2735SOL    HW1 8217   4.586   1.001   3.142
 2735SOL    HW2 8218   4.556   1.094   3.274
 2736SOL     OW 8219   4.096   1.288   3.352
 2736SOL    HW1 8220   4.083   1.381   3.318
 2736SOL    HW2 8221   4.012   1.236   3.339
 2737SOL     OW 8222   4.314   1.487   2.353
 2737SOL    HW1 8223   4.356   1.429   2.283
 2737SOL    HW2 8224   4.270   1.566   2.309
 2738SOL     OW 8225   3.979   1.348   2.152
 2738SOL    HW1 8226   3.883   1.349   2.125
 2738SOL    HW2 8227   3.991   1.401   2.236
 2739SOL     OW 8228   3.829   1.013   3.588
 2739SOL    HW1 8229   3.752   0.980   3.642
 2739SOL    HW2 8230   3.914   0.983   3.630
 2740SOL     OW 8231   4.396   0.203   3.351
 2740SOL    HW1 8232   4.486   0.187   3.311
 2740SOL    HW2 8233   4.404   0.208   3.450
 2741SOL     OW 8234   3.799   0.345   1.895
 2741SOL    HW1 8235   3.707   0.317   1.866
 2741SOL    HW2 8236   3.830   0.422   1.839
 2742SOL     OW 8237   3.796   0.166   2.180
 2742SOL    HW1 8238   3.779   0.249   2.126
 2742SOL    HW2 8239   3.886   0.129   2.158
 2743SOL     OW 8240   4.337   0.842   3.293
 2743SOL    HW1 8241   4.393   0.923   3.276
 2743SOL    HW2 8242   4.396   0.762   3.296
 2744SOL     OW 8243   4.440   0.565   3.570
 2744SOL    HW1 8244   4.459   0.630   3.644
 2744SOL    HW2 8245   4.500   0.485   3.579
 2745SOL     OW 8246   4.114   1.741   3.422
 2745SOL    HW1 8247   4.023   1.782   3.420
 2745SOL    HW2 8248   4.107   1.647   3.454
 2746SOL     OW 8249   4.318   0.745   2.514
 2746SOL    HW1 8250   4.368   0.830   2.495
 2746SOL    HW2 8251   4.230   0.747   2.466
 2747SOL     OW 8252   4.385   1.790   2.815
 2747SOL    HW1 8253   4.339   1.878   2.802
 2747SOL    HW2 8254   4.484   1.802   2.808
 2748SOL     OW 8255   3.945   1.314   3.706
 2748SOL    HW1 8256   3.880   1.241   3.685
 2748SOL    HW2 8257   3.949   1.328   3.804
 2749SOL     OW 8258   3.803   1.240   2.515
 2749SOL    HW1 8259   3.802   1.193   2.603
 2749SOL    HW2 8260   3.885   1.212   2.464
 2750SOL     OW 8261   4.396   1.391   3.486
 2750SOL    HW1 8262   4.318   1.341   3.524
 2750SOL    HW2 8263   4.393   1.486   3.517
 2751SOL     OW 8264   4.152   0.424   2.382
 2751SOL    HW1 8265   4.182   0.352   2.320
 2751SOL    HW2 8266   4.113   0.384   2.465
 2752SOL     OW 8267   4.041   0.547   3.142
 2752SOL    HW1 8268   4.079   0.488   3.214
 2752SOL    HW2 8269   4.081   0.521   3.054
 2753SOL     OW 8270   4.536   1.586   2.549
 2753SOL    HW1 8271   4.568   1.596   2.455
 2753SOL    HW2 8272   4.457   1.524   2.551
 2754SOL     OW 8273   4.725   0.034   3.016
 2754SOL    HW1 8274   4.662  -0.038   2.985
 2754SOL    HW2 8275   4.818  -0.002   3.016
 2755SOL     OW 8276   4.342   1.567   3.146
 2755SOL    HW1 8277   4.337   1.649   3.203
 2755SOL    HW2 8278   4.431   1.564   3.101
 2756SOL     OW 8279   3.763   1.077   2.162
 2756SOL    HW1 8280   3.862   1.066   2.153
 2756SOL    HW2 8281   3.723   0.991   2.194
 2757SOL     OW 8282   3.954   0.628   3.837
 2757SOL    HW1 8283   3.861   0.626   3.874
 2757SOL    HW2 8284   3.955   0.589   3.745
 2758SOL     OW 8285   3.949   0.275   4.720
 2758SOL    HW1 8286   3.984   0.258   4.812
 2758SOL    HW2 8287   3.861   0.230   4.708
 2759SOL     OW 8288   3.743   0.368   4.371
 2759SOL    HW1 8289   3.661   0.411   4.410
 2759SOL    HW2 8290   3.715   0.295   4.308
 2760SOL     OW 8291   4.409   1.012   4.389
 2760SOL    HW1 8292   4.478   0.996   4.459
 2760SOL    HW2 8293   4.336   1.069   4.427
 2761SOL     OW 8294   3.955   1.713   4.207
 2761SOL    HW1 8295   3.989   1.790   4.261
 2761SOL    HW2 8296   3.999   1.713   4.117
 2762SOL     OW 8297   3.954   1.434   4.262
 2762SOL    HW1 8298   3.928   1.530   4.262
 2762SOL    HW2 8299   3.883   1.380   4.307
 2763SOL     OW 8300   3.964   1.091   4.610
 2763SOL    HW1 8301   3.978   1.007   4.662
 2763SOL    HW2 8302   3.909   1.155   4.665
 2764SOL     OW 8303   4.330   0.964   3.847
 2764SOL    HW1 8304   4.337   1.048   3.793
 2764SOL    HW2 8305   4.376   0.977   3.935
 2765SOL     OW 8306   3.846   0.643   4.287
 2765SOL    HW1 8307   3.801   0.555   4.304
 2765SOL    HW2 8308   3.845   0.697   4.371
 2766SOL     OW 8309   3.751   1.596   3.841
 2766SOL    HW1 8310   3.732   1.500   3.862
 2766SOL    HW2 8311   3.718   1.654   3.916
 2767SOL     OW 8312   4.337   1.365   4.450
 2767SOL    HW1 8313   4.288   1.278   4.459
 2767SOL    HW2 8314   4.314   1.408   4.363
 2768SOL     OW 8315   4.533   0.004   4.226
 2768SOL    HW1 8316   4.573   0.095   4.217
 2768SOL    HW2 8317   4.433   0.012   4.232
 2769SOL     OW 8318   4.322   0.729   3.994
 2769SOL    HW1 8319   4.346   0.798   3.926
 2769SOL    HW2 8320   4.244   0.762   4.048
 2770SOL     OW 8321   3.800   0.811   4.513
 2770SOL    HW1 8322   3.899   0.799   4.522
 2770SOL    HW2 8323   3.776   0.906   4.534
 2771SOL     OW 8324   4.075   1.801   4.577
 2771SOL    HW1 8325   4.125   1.715   4.583
 2771SOL    HW2 8326   4.140   1.878   4.574
 2772SOL     OW 8327   4.045   0.943   3.966
 2772SOL    HW1 8328   4.127   0.982   3.924
 2772SOL    HW2 8329   4.018   0.861   3.917
 2773SOL     OW 8330   4.188   1.743   4.047
 2773SOL    HW1 8331   4.221   1.782   4.133
 2773SOL    HW2 8332   4.264   1.736   3.982
 2774SOL     OW 8333   4.106   0.700   4.204
 2774SOL    HW1 8334   4.151   0.610   4.201
 2774SOL    HW2 8335   4.012   0.689   4.237
 2775SOL     OW 8336   4.338   0.122   3.841
 2775SOL    HW1 8337   4.436   0.100   3.848
 2775SOL    HW2 8338   4.307   0.105   3.748
 2776SOL     OW 8339   4.263   0.064   4.236
 2776SOL    HW1 8340   4.182   0.065   4.294
 2776SOL    HW2 8341   4.266   0.147   4.181
 2777SOL     OW 8342   4.021   0.035   3.895
 2777SOL    HW1 8343   4.070   0.119   3.874
 2777SOL    HW2 8344   4.083  -0.030   3.940
 2778SOL     OW 8345   4.183   1.152   4.465
 2778SOL    HW1 8346   4.112   1.125   4.530
 2778SOL    HW2 8347   4.157   1.124   4.372
 2779SOL     OW 8348   4.212   1.385   3.898
 2779SOL    HW1 8349   4.125   1.370   3.945
 2779SOL    HW2 8350   4.195   1.411   3.803
 2780SOL     OW 8351   4.251   0.256   4.052
 2780SOL    HW1 8352   4.278   0.197   3.977
 2780SOL    HW2 8353   4.251   0.351   4.021
 2781SOL     OW 8354   4.091   1.100   4.225
 2781SOL    HW1 8355   4.084   1.183   4.169
 2781SOL    HW2 8356   4.095   1.020   4.165
 2782SOL     OW 8357   4.031   0.063   4.342
 2782SOL    HW1 8358   4.020   0.157   4.375
 2782SOL    HW2 8359   4.026   0.000   4.419
 2783SOL     OW 8360   4.792   1.333   4.573
 2783SOL    HW1 8361   4.799   1.249   4.518
 2783SOL    HW2 8362   4.854   1.402   4.537
 2784SOL     OW 8363   3.732   1.326   3.924
 2784SOL    HW1 8364   3.639   1.347   3.893
 2784SOL    HW2 8365   3.742   1.227   3.937
 2785SOL     OW 8366   4.539   0.572   4.049
 2785SOL    HW1 8367   4.546   0.483   4.003
 2785SOL    HW2 8368   4.445   0.606   4.041
 2786SOL     OW 8369   4.197   0.500   3.915
 2786SOL    HW1 8370   4.258   0.580   3.919
 2786SOL    HW2 8371   4.102   0.531   3.922
 2787SOL     OW 8372   4.627   0.086   3.857
 2787SOL    HW1 8373   4.678   0.087   3.771
 2787SOL    HW2 8374   4.683   0.044   3.928
 2788SOL     OW 8375   4.396   1.616   3.878
 2788SOL    HW1 8376   4.405   1.626   3.779
 2788SOL    HW2 8377   4.356   1.527   3.899
 2789SOL     OW 8378   3.987   0.326   4.444
 2789SOL    HW1 8379   3.908   0.377   4.410
 2789SOL    HW2 8380   3.978   0.311   4.542
 2790SOL     OW 8381   4.314   1.487   4.215
 2790SOL    HW1 8382   4.356   1.429   4.145
 2790SOL    HW2 8383   4.270   1.566   4.171
 2791SOL     OW 8384   3.979   1.348   4.014
 2791SOL    HW1 8385   3.883   1.349   3.987
 2791SOL    HW2 8386   3.991   1.401   4.098
 2792SOL     OW 8387   3.799   0.345   3.757
 2792SOL    HW1 8388   3.707   0.317   3.728
 2792SOL    HW2 8389   3.830   0.422   3.701
 2793SOL     OW 8390   3.796   0.166   4.042
 2793SOL    HW1 8391   3.779   0.249   3.988
 2793SOL    HW2 8392   3.886   0.129   4.020
 2794SOL     OW 8393   4.318   0.745   4.376
 2794SOL    HW1 8394   4.368   0.830   4.357
 2794SOL    HW2 8395   4.230   0.747   4.328
 2795SOL     OW 8396   4.385   1.790   4.677
 2795SOL    HW1 8397   4.339   1.878   4.664
 2795SOL    HW2 8398   4.484   1.802   4.670
 2796SOL     OW 8399   3.803   1.240   4.377
 2796SOL    HW1 8400   3.802   1.193   4.465
 2796SOL    HW2 8401   3.885   1.212   4.326
 2797SOL     OW 8402   4.152   0.424   4.244
 2797SOL    HW1 8403   4.182   0.352   4.182
 2797SOL    HW2 8404   4.113   0.384   4.327
 2798SOL     OW 8405   4.536   1.586   4.411
 2798SOL    HW1 8406   4.568   1.596   4.317
 2798SOL    HW2 8407   4.457   1.524   4.413
 2799SOL     OW 8408   3.763   1.077   4.024
 2799SOL    HW1 8409   3.862   1.066   4.015
 2799SOL    HW2 8410   3.723   0.991   4.056
 2800SOL     OW 8411   3.954   2.490   0.113
 2800SOL    HW1 8412   3.861   2.488   0.150
 2800SOL    HW2 8413   3.955   2.451   0.021
 2801SOL     OW 8414   3.949   2.137   0.996
 2801SOL    HW1 8415   3.984   2.120   1.088
 2801SOL    HW2 8416   3.861   2.092   0.984
 2802SOL     OW 8417   3.743   2.230   0.647
 2802SOL    HW1 8418   3.661   2.273   0.686
 2802SOL    HW2 8419   3.715   2.157   0.584
 2803SOL     OW 8420   4.293   3.137   1.165
 2803SOL    HW1 8421   4.200   3.130   1.128
 2803SOL    HW2 8422   4.304   3.226   1.209
 2804SOL     OW 8423   4.574   2.660   1.823
 2804SOL    HW1 8424   4.570   2.736   1.888
 2804SOL    HW2 8425   4.596   2.696   1.732
 2805SOL     OW 8426   4.409   2.874   0.665
 2805SOL    HW1 8427   4.478   2.858   0.735
 2805SOL    HW2 8428   4.336   2.931   0.703
 2806SOL     OW 8429   4.410   3.023   1.803
 2806SOL    HW1 8430   4.470   3.102   1.817
 2806SOL    HW2 8431   4.324   3.054   1.762
 2807SOL     OW 8432   4.059   3.297   1.061
 2807SOL    HW1 8433   3.981   3.266   1.008
 2807SOL    HW2 8434   4.117   3.355   1.004
 2808SOL     OW 8435   4.162   2.254   1.499
 2808SOL    HW1 8436   4.244   2.198   1.508
 2808SOL    HW2 8437   4.081   2.196   1.503
 2809SOL     OW 8438   3.955   3.575   0.483
 2809SOL    HW1 8439   3.989   3.652   0.537
 2809SOL    HW2 8440   3.999   3.575   0.393
 2810SOL     OW 8441   3.954   3.296   0.538
 2810SOL    HW1 8442   3.928   3.392   0.538
 2810SOL    HW2 8443   3.883   3.242   0.583
 2811SOL     OW 8444   3.964   2.953   0.886
 2811SOL    HW1 8445   3.978   2.869   0.938
 2811SOL    HW2 8446   3.909   3.017   0.941
 2812SOL     OW 8447   4.344   3.648   1.439
 2812SOL    HW1 8448   4.252   3.631   1.474
 2812SOL    HW2 8449   4.372   3.740   1.465
 2813SOL     OW 8450   4.330   2.826   0.123
 2813SOL    HW1 8451   4.337   2.910   0.069
 2813SOL    HW2 8452   4.376   2.839   0.211
 2814SOL     OW 8453   3.846   2.505   0.563
 2814SOL    HW1 8454   3.801   2.417   0.580
 2814SOL    HW2 8455   3.845   2.559   0.647
 2815SOL     OW 8456   3.751   3.458   0.117
 2815SOL    HW1 8457   3.732   3.362   0.138
 2815SOL    HW2 8458   3.718   3.516   0.192
 2816SOL     OW 8459   3.837   2.599   1.597
 2816SOL    HW1 8460   3.925   2.586   1.642
 2816SOL    HW2 8461   3.824   2.696   1.575
 2817SOL     OW 8462   4.337   3.227   0.726
 2817SOL    HW1 8463   4.288   3.140   0.735
 2817SOL    HW2 8464   4.314   3.270   0.639
 2818SOL     OW 8465   4.533   1.866   0.502
 2818SOL    HW1 8466   4.573   1.957   0.493
 2818SOL    HW2 8467   4.433   1.874   0.508
 2819SOL     OW 8468   3.921   2.838   1.264
 2819SOL    HW1 8469   4.010   2.793   1.250
 2819SOL    HW2 8470   3.848   2.773   1.245
 2820SOL     OW 8471   4.041   2.113   1.801
 2820SOL    HW1 8472   4.112   2.184   1.807
 2820SOL    HW2 8473   3.953   2.152   1.829
 2821SOL     OW 8474   4.322   2.591   0.270
 2821SOL    HW1 8475   4.346   2.660   0.202
 2821SOL    HW2 8476   4.244   2.624   0.324
 2822SOL     OW 8477   3.800   2.673   0.789
 2822SOL    HW1 8478   3.899   2.661   0.798
 2822SOL    HW2 8479   3.776   2.768   0.810
 2823SOL     OW 8480   3.854   3.683   1.571
 2823SOL    HW1 8481   3.844   3.668   1.670
 2823SOL    HW2 8482   3.768   3.719   1.535
 2824SOL     OW 8483   4.274   2.058   0.885
 2824SOL    HW1 8484   4.269   2.053   0.985
 2824SOL    HW2 8485   4.276   2.154   0.856
 2825SOL     OW 8486   4.075   3.663   0.853
 2825SOL    HW1 8487   4.125   3.577   0.859
 2825SOL    HW2 8488   4.140   3.740   0.850
 2826SOL     OW 8489   4.045   2.805   0.242
 2826SOL    HW1 8490   4.127   2.844   0.200
 2826SOL    HW2 8491   4.018   2.723   0.193
 2827SOL     OW 8492   4.185   3.128   1.727
 2827SOL    HW1 8493   4.135   3.129   1.641
 2827SOL    HW2 8494   4.122   3.110   1.803
 2828SOL     OW 8495   3.926   2.147   1.498
 2828SOL    HW1 8496   3.846   2.207   1.485
 2828SOL    HW2 8497   3.916   2.098   1.584
 2829SOL     OW 8498   4.188   3.605   0.323
 2829SOL    HW1 8499   4.221   3.644   0.409
 2829SOL    HW2 8500   4.264   3.598   0.258
 2830SOL     OW 8501   3.973   3.647   1.241
 2830SOL    HW1 8502   4.030   3.582   1.291
 2830SOL    HW2 8503   3.957   3.614   1.148
 2831SOL     OW 8504   4.106   2.562   0.480
 2831SOL    HW1 8505   4.151   2.472   0.477
 2831SOL    HW2 8506   4.012   2.551   0.513
 2832SOL     OW 8507   4.527   3.264   0.924
 2832SOL    HW1 8508   4.617   3.278   0.882
 2832SOL    HW2 8509   4.456   3.266   0.853
 2833SOL     OW 8510   4.646   2.365   0.899
 2833SOL    HW1 8511   4.621   2.356   0.803
 2833SOL    HW2 8512   4.694   2.283   0.930
 2834SOL     OW 8513   4.263   1.926   0.512
 2834SOL    HW1 8514   4.182   1.927   0.570
 2834SOL    HW2 8515   4.266   2.009   0.457
 2835SOL     OW 8516   4.021   1.897   0.171
 2835SOL    HW1 8517   4.070   1.981   0.150
 2835SOL    HW2 8518   4.083   1.832   0.216
 2836SOL     OW 8519   4.183   3.014   0.741
 2836SOL    HW1 8520   4.112   2.987   0.806
 2836SOL    HW2 8521   4.157   2.986   0.648
 2837SOL     OW 8522   3.802   2.418   1.386
 2837SOL    HW1 8523   3.894   2.417   1.345
 2837SOL    HW2 8524   3.796   2.492   1.453
 2838SOL     OW 8525   4.285   2.084   1.147
 2838SOL    HW1 8526   4.323   2.000   1.184
 2838SOL    HW2 8527   4.197   2.103   1.191
 2839SOL     OW 8528   4.212   3.247   0.174
 2839SOL    HW1 8529   4.125   3.232   0.221
 2839SOL    HW2 8530   4.195   3.273   0.079
 2840SOL     OW 8531   4.251   2.118   0.328
 2840SOL    HW1 8532   4.278   2.059   0.253
 2840SOL    HW2 8533   4.251   2.213   0.297
 2841SOL     OW 8534   4.639   1.951   1.402
 2841SOL    HW1 8535   4.664   1.931   1.307
 2841SOL    HW2 8536   4.711   2.007   1.444
 2842SOL     OW 8537   4.134   2.675   1.251
 2842SOL    HW1 8538   4.220   2.687   1.301
 2842SOL    HW2 8539   4.092   2.588   1.278
 2843SOL     OW 8540   3.788   3.426   1.331
 2843SOL    HW1 8541   3.742   3.508   1.297
 2843SOL    HW2 8542   3.886   3.445   1.340
 2844SOL     OW 8543   4.091   2.962   0.501
 2844SOL    HW1 8544   4.084   3.045   0.445
 2844SOL    HW2 8545   4.095   2.882   0.441
 2845SOL     OW 8546   4.290   2.399   0.865
 2845SOL    HW1 8547   4.302   2.465   0.791
 2845SOL    HW2 8548   4.336   2.433   0.948
 2846SOL     OW 8549   4.078   3.372   1.329
 2846SOL    HW1 8550   4.057   3.328   1.242
 2846SOL    HW2 8551   4.175   3.398   1.332
 2847SOL     OW 8552   4.126   2.613   1.598
 2847SOL    HW1 8553   4.194   2.668   1.551
 2847SOL    HW2 8554   4.166   2.525   1.625
 2848SOL     OW 8555   4.228   1.912   1.740
 2848SOL    HW1 8556   4.186   1.855   1.670
 2848SOL    HW2 8557   4.162   1.981   1.772
 2849SOL     OW 8558   4.297   2.732   1.029
 2849SOL    HW1 8559   4.341   2.821   1.020
 2849SOL    HW2 8560   4.234   2.732   1.106
 2850SOL     OW 8561   4.031   2.075   1.231
 2850SOL    HW1 8562   4.008   2.112   1.321
 2850SOL    HW2 8563   4.001   1.980   1.225
 2851SOL     OW 8564   3.761   3.172   1.282
 2851SOL    HW1 8565   3.814   3.123   1.350
 2851SOL    HW2 8566   3.783   3.270   1.287
 2852SOL     OW 8567   4.456   2.496   1.064
 2852SOL    HW1 8568   4.515   2.470   0.988
 2852SOL    HW2 8569   4.428   2.592   1.053
 2853SOL     OW 8570   4.031   1.925   0.618
 2853SOL    HW1 8571   4.020   2.019   0.651
 2853SOL    HW2 8572   4.026   1.862   0.695
 2854SOL     OW 8573   4.074   2.760   1.804
 2854SOL    HW1 8574   4.150   2.804   1.852
 2854SOL    HW2 8575   4.109   2.713   1.722
 2855SOL     OW 8576   4.792   3.195   0.849
 2855SOL    HW1 8577   4.799   3.111   0.794
 2855SOL    HW2 8578   4.854   3.264   0.813
 2856SOL     OW 8579   4.043   2.672   0.949
 2856SOL    HW1 8580   4.136   2.708   0.954
 2856SOL    HW2 8581   4.037   2.587   1.001
 2857SOL     OW 8582   4.063   2.371   1.006
 2857SOL    HW1 8583   4.011   2.288   0.989
 2857SOL    HW2 8584   4.140   2.376   0.942
 2858SOL     OW 8585   3.732   3.188   0.200
 2858SOL    HW1 8586   3.639   3.209   0.169
 2858SOL    HW2 8587   3.742   3.089   0.213
 2859SOL     OW 8588   3.812   3.663   0.927
 2859SOL    HW1 8589   3.770   3.577   0.900
 2859SOL    HW2 8590   3.906   3.666   0.893
 2860SOL     OW 8591   4.228   3.430   0.910
 2860SOL    HW1 8592   4.294   3.504   0.919
 2860SOL    HW2 8593   4.272   3.351   0.868
 2861SOL     OW 8594   3.764   2.406   1.114
 2861SOL    HW1 8595   3.849   2.373   1.073
 2861SOL    HW2 8596   3.777   2.421   1.212
 2862SOL     OW 8597   3.913   2.382   1.722
 2862SOL    HW1 8598   3.972   2.342   1.652
 2862SOL    HW2 8599   3.855   2.453   1.681
 2863SOL     OW 8600   4.539   2.434   0.325
 2863SOL    HW1 8601   4.546   2.345   0.279
 2863SOL    HW2 8602   4.445   2.468   0.317
 2864SOL     OW 8603   3.976   3.426   1.744
 2864SOL    HW1 8604   3.946   3.483   1.820
 2864SOL    HW2 8605   3.969   3.329   1.770
 2865SOL     OW 8606   4.395   2.326   1.269
 2865SOL    HW1 8607   4.361   2.237   1.239
 2865SOL    HW2 8608   4.421   2.380   1.189
 2866SOL     OW 8609   4.197   2.362   0.191
 2866SOL    HW1 8610   4.258   2.442   0.195
 2866SOL    HW2 8611   4.102   2.393   0.198
 2867SOL     OW 8612   3.883   2.999   1.466
 2867SOL    HW1 8613   3.905   2.938   1.542
 2867SOL    HW2 8614   3.893   2.950   1.380
 2868SOL     OW 8615   3.807   3.120   1.022
 2868SOL    HW1 8616   3.802   3.119   1.122
 2868SOL    HW2 8617   3.724   3.079   0.984
 2869SOL     OW 8618   4.412   3.524   1.716
 2869SOL    HW1 8619   4.356   3.605   1.725
 2869SOL    HW2 8620   4.464   3.528   1.630
 2870SOL     OW 8621   4.627   1.948   0.133
 2870SOL    HW1 8622   4.678   1.949   0.047
 2870SOL    HW2 8623   4.683   1.906   0.204
 2871SOL     OW 8624   3.854   3.656   1.851
 2871SOL    HW1 8625   3.813   3.582   1.904
 2871SOL    HW2 8626   3.918   3.707   1.909
 2872SOL     OW 8627   4.396   3.478   0.154
 2872SOL    HW1 8628   4.405   3.488   0.055
 2872SOL    HW2 8629   4.356   3.389   0.175
 2873SOL     OW 8630   3.987   2.188   0.720
 2873SOL    HW1 8631   3.908   2.239   0.686
 2873SOL    HW2 8632   3.978   2.173   0.818
 2874SOL     OW 8633   4.546   2.864   1.372
 2874SOL    HW1 8634   4.586   2.863   1.280
 2874SOL    HW2 8635   4.556   2.956   1.412
 2875SOL     OW 8636   4.096   3.150   1.490
 2875SOL    HW1 8637   4.083   3.243   1.456
 2875SOL    HW2 8638   4.012   3.098   1.477
 2876SOL     OW 8639   4.314   3.349   0.491
 2876SOL    HW1 8640   4.356   3.291   0.421
 2876SOL    HW2 8641   4.270   3.428   0.447
 2877SOL     OW 8642   3.979   3.210   0.290
 2877SOL    HW1 8643   3.883   3.211   0.263
 2877SOL    HW2 8644   3.991   3.263   0.374
 2878SOL     OW 8645   3.829   2.875   1.726
 2878SOL    HW1 8646   3.752   2.842   1.780
 2878SOL    HW2 8647   3.914   2.845   1.768
 2879SOL     OW 8648   4.396   2.065   1.489
 2879SOL    HW1 8649   4.486   2.049   1.449
 2879SOL    HW2 8650   4.404   2.070   1.588
 2880SOL     OW 8651   3.799   2.207   0.033
 2880SOL    HW1 8652   3.707   2.179   0.004
 2880SOL    HW2 8653   3.830   2.284  -0.023
 2881SOL     OW 8654   3.796   2.028   0.318
 2881SOL    HW1 8655   3.779   2.111   0.264
 2881SOL    HW2 8656   3.886   1.991   0.296
 2882SOL     OW 8657   4.337   2.704   1.431
 2882SOL    HW1 8658   4.393   2.785   1.414
 2882SOL    HW2 8659   4.396   2.624   1.434
 2883SOL     OW 8660   4.440   2.427   1.708
 2883SOL    HW1 8661   4.459   2.492   1.782
 2883SOL    HW2 8662   4.500   2.347   1.717
 2884SOL     OW 8663   4.114   3.603   1.560
 2884SOL    HW1 8664   4.023   3.644   1.558
 2884SOL    HW2 8665   4.107   3.509   1.592
 2885SOL     OW 8666   4.318   2.607   0.652
 2885SOL    HW1 8667   4.368   2.692   0.633
 2885SOL    HW2 8668   4.230   2.609   0.604
 2886SOL     OW 8669   4.385   3.652   0.953
 2886SOL    HW1 8670   4.339   3.740   0.940
 2886SOL    HW2 8671   4.484   3.664   0.946
 2887SOL     OW 8672   3.945   3.176   1.844
 2887SOL    HW1 8673   3.880   3.103   1.823
 2887SOL    HW2 8674   3.949   3.190   1.942
 2888SOL     OW 8675   3.803   3.102   0.653
 2888SOL    HW1 8676   3.802   3.055   0.741
 2888SOL    HW2 8677   3.885   3.074   0.602
 2889SOL     OW 8678   4.396   3.253   1.624
 2889SOL    HW1 8679   4.318   3.203   1.662
 2889SOL    HW2 8680   4.393   3.348   1.655
 2890SOL     OW 8681   4.152   2.286   0.520
 2890SOL    HW1 8682   4.182   2.214   0.458
 2890SOL    HW2 8683   4.113   2.246   0.603
 2891SOL     OW 8684   4.041   2.409   1.280
 2891SOL    HW1 8685   4.079   2.350   1.352
 2891SOL    HW2 8686   4.081   2.383   1.192
 2892SOL     OW 8687   4.536   3.448   0.687
 2892SOL    HW1 8688   4.568   3.458   0.593
 2892SOL    HW2 8689   4.457   3.386   0.689
 2893SOL     OW 8690   4.342   3.429   1.284
 2893SOL    HW1 8691   4.337   3.511   1.341
 2893SOL    HW2 8692   4.431   3.426   1.239
 2894SOL     OW 8693   3.763   2.939   0.300
 2894SOL    HW1 8694   3.862   2.928   0.291
 2894SOL    HW2 8695   3.723   2.853   0.332
 2895SOL     OW 8696   3.954   2.490   1.975
 2895SOL    HW1 8697   3.861   2.488   2.012
 2895SOL    HW2 8698   3.955   2.451   1.883
 2896SOL     OW 8699   3.949   2.137   2.858
 2896SOL    HW1 8700   3.984   2.120   2.950
 2896SOL    HW2 8701   3.861   2.092   2.846
 2897SOL     OW 8702   3.743   2.230   2.509
 2897SOL    HW1 8703   3.661   2.273   2.548
 2897SOL    HW2 8704   3.715   2.157   2.446
 2898SOL     OW 8705   4.293   3.137   3.027
 2898SOL    HW1 8706   4.200   3.130   2.990
 2898SOL    HW2 8707   4.304   3.226   3.071
 2899SOL     OW 8708   4.574   2.660   3.685
 2899SOL    HW1 8709   4.570   2.736   3.750
 2899SOL    HW2 8710   4.596   2.696   3.594
 2900SOL     OW 8711   4.409   2.874   2.527
 2900SOL    HW1 8712   4.478   2.858   2.597
 2900SOL    HW2 8713   4.336   2.931   2.565
 2901SOL     OW 8714   4.410   3.023   3.665
 2901SOL    HW1 8715   4.470   3.102   3.679
 2901SOL    HW2 8716   4.324   3.054   3.624
 2902SOL     OW 8717   4.059   3.297   2.923
 2902SOL    HW1 8718   3.981   3.266   2.870
 2902SOL    HW2 8719   4.117   3.355   2.866
 2903SOL     OW 8720   4.162   2.254   3.361
 2903SOL    HW1 8721   4.244   2.198   3.370
 2903SOL    HW2 8722   4.081   2.196   3.365
 2904SOL     OW 8723   3.955   3.575   2.345
 2904SOL    HW1 8724   3.989   3.652   2.399
 2904SOL    HW2 8725   3.999   3.575   2.255
 2905SOL     OW 8726   3.954   3.296   2.400
 2905SOL    HW1 8727   3.928   3.392   2.400
 2905SOL    HW2 8728   3.883   3.242   2.445
 2906SOL     OW 8729   3.964   2.953   2.748
 2906SOL    HW1 8730   3.978   2.869   2.800
 2906SOL    HW2 8731   3.909   3.017   2.803
 2907SOL     OW 8732   4.344   3.648   3.301
 2907SOL    HW1 8733   4.252   3.631   3.336
 2907SOL    HW2 8734   4.372   3.740   3.327
 2908SOL     OW 8735   4.330   2.826   1.985
 2908SOL    HW1 8736   4.337   2.910   1.931
 2908SOL    HW2 8737   4.376   2.839   2.073
 2909SOL     OW 8738   3.846   2.505   2.425
 2909SOL    HW1 8739   3.801   2.417   2.442
 2909SOL    HW2 8740   3.845   2.559   2.509
 2910SOL     OW 8741   3.751   3.458   1.979
 2910SOL    HW1 8742   3.732   3.362   2.000
 2910SOL    HW2 8743   3.718   3.516   2.054
 2911SOL     OW 8744   3.837   2.599   3.459
 2911SOL    HW1 8745   3.925   2.586   3.504
 2911SOL    HW2 8746   3.824   2.696   3.437
 2912SOL     OW 8747   4.337   3.227   2.588
 2912SOL    HW1 8748   4.288   3.140   2.597
 2912SOL    HW2 8749   4.314   3.270   2.501
 2913SOL     OW 8750   4.533   1.866   2.364
 2913SOL    HW1 8751   4.573   1.957   2.355
 2913SOL    HW2 8752   4.433   1.874   2.370
 2914SOL     OW 8753   3.921   2.838   3.126
 2914SOL    HW1 8754   4.010   2.793   3.112
 2914SOL    HW2 8755   3.848   2.773   3.107
 2915SOL     OW 8756   4.041   2.113   3.663
 2915SOL    HW1 8757   4.112   2.184   3.669
 2915SOL    HW2 8758   3.953   2.152   3.691
 2916SOL     OW 8759   4.322   2.591   2.132
 2916SOL    HW1 8760   4.346   2.660   2.064
 2916SOL    HW2 8761   4.244   2.624   2.186
 2917SOL     OW 8762   3.800   2.673   2.651
 2917SOL    HW1 8763   3.899   2.661   2.660
 2917SOL    HW2 8764   3.776   2.768   2.672
 2918SOL     OW 8765   3.854   3.683   3.433
 2918SOL    HW1 8766   3.844   3.668   3.532
 2918SOL    HW2 8767   3.768   3.719   3.397
 2919SOL     OW 8768   4.274   2.058   2.747
 2919SOL    HW1 8769   4.269   2.053   2.847
 2919SOL    HW2 8770   4.276   2.154   2.718
 2920SOL     OW 8771   4.075   3.663   2.715
 2920SOL    HW1 8772   4.125   3.577   2.721
 2920SOL    HW2 8773   4.140   3.740   2.712
 2921SOL     OW 8774   4.045   2.805   2.104
 2921SOL    HW1 8775   4.127   2.844   2.062
 2921SOL    HW2 8776   4.018   2.723   2.055
 2922SOL     OW 8777   4.185   3.128   3.589
 2922SOL    HW1 8778   4.135   3.129   3.503
 2922SOL    HW2 8779   4.122   3.110   3.665
 2923SOL     OW 8780   3.926   2.147   3.360
 2923SOL    HW1 8781   3.846   2.207   3.347
 2923SOL    HW2 8782   3.916   2.098   3.446
 2924SOL     OW 8783   4.188   3.605   2.185
 2924SOL    HW1 8784   4.221   3.644   2.271
 2924SOL    HW2 8785   4.264   3.598   2.120
 2925SOL     OW 8786   3.973   3.647   3.103
 2925SOL    HW1 8787   4.030   3.582   3.153
 2925SOL    HW2 8788   3.957   3.614   3.010
 2926SOL     OW 8789   4.106   2.562   2.342
 2926SOL    HW1 8790   4.151   2.472   2.339
 2926SOL    HW2 8791   4.012   2.551   2.375
 2927SOL     OW 8792   4.338   1.984   1.979
 2927SOL    HW1 8793   4.436   1.962   1.986
 2927SOL    HW2 8794   4.307   1.967   1.886
 2928SOL     OW 8795   4.527   3.264   2.786
 2928SOL    HW1 8796   4.617   3.278   2.744
 2928SOL    HW2 8797   4.456   3.266   2.715
 2929SOL     OW 8798   4.646   2.365   2.761
 2929SOL    HW1 8799   4.621   2.356   2.665
 2929SOL    HW2 8800   4.694   2.283   2.792
 2930SOL     OW 8801   4.263   1.926   2.374
 2930SOL    HW1 8802   4.182   1.927   2.432
 2930SOL    HW2 8803   4.266   2.009   2.319
 2931SOL     OW 8804   4.021   1.897   2.033
 2931SOL    HW1 8805   4.070   1.981   2.012
 2931SOL    HW2 8806   4.083   1.832   2.078
 2932SOL     OW 8807   4.183   3.014   2.603
 2932SOL    HW1 8808   4.112   2.987   2.668
 2932SOL    HW2 8809   4.157   2.986   2.510
 2933SOL     OW 8810   3.802   2.418   3.248
 2933SOL    HW1 8811   3.894   2.417   3.207
 2933SOL    HW2 8812   3.796   2.492   3.315
 2934SOL     OW 8813   4.285   2.084   3.009
 2934SOL    HW1 8814   4.323   2.000   3.046
 2934SOL    HW2 8815   4.197   2.103   3.053
 2935SOL     OW 8816   4.212   3.247   2.036
 2935SOL    HW1 8817   4.125   3.232   2.083
 2935SOL    HW2 8818   4.195   3.273   1.941
 2936SOL     OW 8819   4.251   2.118   2.190
 2936SOL    HW1 8820   4.278   2.059   2.115
 2936SOL    HW2 8821   4.251   2.213   2.159
 2937SOL     OW 8822   4.639   1.951   3.264
 2937SOL    HW1 8823   4.664   1.931   3.169
 2937SOL    HW2 8824   4.711   2.007   3.306
 2938SOL     OW 8825   4.134   2.675   3.113
 2938SOL    HW1 8826   4.220   2.687   3.163
 2938SOL    HW2 8827   4.092   2.588   3.140
 2939SOL     OW 8828   3.788   3.426   3.193
 2939SOL    HW1 8829   3.742   3.508   3.159
 2939SOL    HW2 8830   3.886   3.445   3.202
 2940SOL     OW 8831   4.091   2.962   2.363
 2940SOL    HW1 8832   4.084   3.045   2.307
 2940SOL    HW2 8833   4.095   2.882   2.303
 2941SOL     OW 8834   4.290   2.399   2.727
 2941SOL    HW1 8835   4.302   2.465   2.653
 2941SOL    HW2 8836   4.336   2.433   2.810
 2942SOL     OW 8837   4.078   3.372   3.191
 2942SOL    HW1 8838   4.057   3.328   3.104
 2942SOL    HW2 8839   4.175   3.398   3.194
 2943SOL     OW 8840   4.126   2.613   3.460
 2943SOL    HW1 8841   4.194   2.668   3.413
 2943SOL    HW2 8842   4.166   2.525   3.487
 2944SOL     OW 8843   4.228   1.912   3.602
 2944SOL    HW1 8844   4.186   1.855   3.532
 2944SOL    HW2 8845   4.162   1.981   3.634
 2945SOL     OW 8846   4.297   2.732   2.891
 2945SOL    HW1 8847   4.341   2.821   2.882
 2945SOL    HW2 8848   4.234   2.732   2.968
 2946SOL     OW 8849   4.031   2.075   3.093
 2946SOL    HW1 8850   4.008   2.112   3.183
 2946SOL    HW2 8851   4.001   1.980   3.087
 2947SOL     OW 8852   3.761   3.172   3.144
 2947SOL    HW1 8853   3.814   3.123   3.212
 2947SOL    HW2 8854   3.783   3.270   3.149
 2948SOL     OW 8855   4.456   2.496   2.926
 2948SOL    HW1 8856   4.515   2.470   2.850
 2948SOL    HW2 8857   4.428   2.592   2.915
 2949SOL     OW 8858   4.031   1.925   2.480
 2949SOL    HW1 8859   4.020   2.019   2.513
 2949SOL    HW2 8860   4.026   1.862   2.557
 2950SOL     OW 8861   4.074   2.760   3.666
 2950SOL    HW1 8862   4.150   2.804   3.714
 2950SOL    HW2 8863   4.109   2.713   3.584
 2951SOL     OW 8864   4.792   3.195   2.711
 2951SOL    HW1 8865   4.799   3.111   2.656
 2951SOL    HW2 8866   4.854   3.264   2.675
 2952SOL     OW 8867   4.043   2.672   2.811
 2952SOL    HW1 8868   4.136   2.708   2.816
 2952SOL    HW2 8869   4.037   2.587   2.863
 2953SOL     OW 8870   4.063   2.371   2.868
 2953SOL    HW1 8871   4.011   2.288   2.851
 2953SOL    HW2 8872   4.140   2.376   2.804
 2954SOL     OW 8873   3.732   3.188   2.062
 2954SOL    HW1 8874   3.639   3.209   2.031
 2954SOL    HW2 8875   3.742   3.089   2.075
 2955SOL     OW 8876   3.812   3.663   2.789
 2955SOL    HW1 8877   3.770   3.577   2.762
 2955SOL    HW2 8878   3.906   3.666   2.755
 2956SOL     OW 8879   4.228   3.430   2.772
 2956SOL    HW1 8880   4.294   3.504   2.781
 2956SOL    HW2 8881   4.272   3.351   2.730
 2957SOL     OW 8882   3.764   2.406   2.976
 2957SOL    HW1 8883   3.849   2.373   2.935
 2957SOL    HW2 8884   3.777   2.421   3.074
 2958SOL     OW 8885   3.913   2.382   3.584
 2958SOL    HW1 8886   3.972   2.342   3.514
 2958SOL    HW2 8887   3.855   2.453   3.543
 2959SOL     OW 8888   4.539   2.434   2.187
 2959SOL    HW1 8889   4.546   2.345   2.141
 2959SOL    HW2 8890   4.445   2.468   2.179
 2960SOL     OW 8891   3.976   3.426   3.606
 2960SOL    HW1 8892   3.946   3.483   3.682
 2960SOL    HW2 8893   3.969   3.329   3.632
 2961SOL     OW 8894   4.395   2.326   3.131
 2961SOL    HW1 8895   4.361   2.237   3.101
 2961SOL    HW2 8896   4.421   2.380   3.051
 2962SOL     OW 8897   4.197   2.362   2.053
 2962SOL    HW1 8898   4.258   2.442   2.057
 2962SOL    HW2 8899   4.102   2.393   2.060
 2963SOL     OW 8900   3.883   2.999   3.328
 2963SOL    HW1 8901   3.905   2.938   3.404
 2963SOL    HW2 8902   3.893   2.950   3.242
 2964SOL     OW 8903   3.807   3.120   2.884
 2964SOL    HW1 8904   3.802   3.119   2.984
 2964SOL    HW2 8905   3.724   3.079   2.846
 2965SOL     OW 8906   4.412   3.524   3.578
 2965SOL    HW1 8907   4.356   3.605   3.587
 2965SOL    HW2 8908   4.464   3.528   3.492
 2966SOL     OW 8909   4.627   1.948   1.995
 2966SOL    HW1 8910   4.678   1.949   1.909
 2966SOL    HW2 8911   4.683   1.906   2.066
 2967SOL     OW 8912   3.854   3.656   3.713
 2967SOL    HW1 8913   3.813   3.582   3.766
 2967SOL    HW2 8914   3.918   3.707   3.771
 2968SOL     OW 8915   4.396   3.478   2.016
 2968SOL    HW1 8916   4.405   3.488   1.917
 2968SOL    HW2 8917   4.356   3.389   2.037
 2969SOL     OW 8918   3.987   2.188   2.582
 2969SOL    HW1 8919   3.908   2.239   2.548
 2969SOL    HW2 8920   3.978   2.173   2.680
 2970SOL     OW 8921   4.546   2.864   3.234
 2970SOL    HW1 8922   4.586   2.863   3.142
 2970SOL    HW2 8923   4.556   2.956   3.274
 2971SOL     OW 8924   4.096   3.150   3.352
 2971SOL    HW1 8925   4.083   3.243   3.318
 2971SOL    HW2 8926   4.012   3.098   3.339
 2972SOL     OW 8927   4.314   3.349   2.353
 2972SOL    HW1 8928   4.356   3.291   2.283
 2972SOL    HW2 8929   4.270   3.428   2.309
 2973SOL     OW 8930   3.979   3.210   2.152
 2973SOL    HW1 8931   3.883   3.211   2.125
 2973SOL    HW2 8932   3.991   3.263   2.236
 2974SOL     OW 8933   3.829   2.875   3.588
 2974SOL    HW1 8934   3.752   2.842   3.642
 2974SOL    HW2 8935   3.914   2.845   3.630
 2975SOL     OW 8936   4.396   2.065   3.351
 2975SOL    HW1 8937   4.486   2.049   3.311
 2975SOL    HW2 8938   4.404   2.070   3.450
 2976SOL     OW 8939   3.799   2.207   1.895
 2976SOL    HW1 8940   3.707   2.179   1.866
 2976SOL    HW2 8941   3.830   2.284   1.839
 2977SOL     OW 8942   3.796   2.028   2.180
 2977SOL    HW1 8943   3.779   2.111   2.126
 2977SOL    HW2 8944   3.886   1.991   2.158
 2978SOL     OW 8945   4.337   2.704   3.293
 2978SOL    HW1 8946   4.393   2.785   3.276
 2978SOL    HW2 8947   4.396   2.624   3.296
 2979SOL     OW 8948   4.440   2.427   3.570
 2979SOL    HW1 8949   4.459   2.492   3.644
 2979SOL    HW2 8950   4.500   2.347   3.579
 2980SOL     OW 8951   4.114   3.603   3.422
 2980SOL    HW1 8952   4.023   3.644   3.420
 2980SOL    HW2 8953   4.107   3.509   3.454
 2981SOL     OW 8954   4.318   2.607   2.514
 2981SOL    HW1 8955   4.368   2.692   2.495
 2981SOL    HW2 8956   4.230   2.609   2.466
 2982SOL     OW 8957   4.385   3.652   2.815
 2982SOL    HW1 8958   4.339   3.740   2.802
 2982SOL    HW2 8959   4.484   3.664   2.808
 2983SOL     OW 8960   3.945   3.176   3.706
 2983SOL    HW1 8961   3.880   3.103   3.685
 2983SOL    HW2 8962   3.949   3.190   3.804
 2984SOL     OW 8963   3.803   3.102   2.515
 2984SOL    HW1 8964   3.802   3.055   2.603
 2984SOL    HW2 8965   3.885   3.074   2.464
 2985SOL     OW 8966   4.396   3.253   3.486
 2985SOL    HW1 8967   4.318   3.203   3.524
 2985SOL    HW2 8968   4.393   3.348   3.517
 2986SOL     OW 8969   4.152   2.286   2.382
 2986SOL    HW1 8970   4.182   2.214   2.320
 2986SOL    HW2 8971   4.113   2.246   2.465
 2987SOL     OW 8972   4.041   2.409   3.142
 2987SOL    HW1 8973   4.079   2.350   3.214
 2987SOL    HW2 8974   4.081   2.383   3.054
 2988SOL     OW 8975   4.536   3.448   2.549
 2988SOL    HW1 8976   4.568   3.458   2.455
 2988SOL    HW2 8977   4.457   3.386   2.551
 2989SOL     OW 8978   4.342   3.429   3.146
 2989SOL    HW1 8979   4.337   3.511   3.203
 2989SOL    HW2 8980   4.431   3.426   3.101
 2990SOL     OW 8981   3.763   2.939   2.162
 2990SOL    HW1 8982   3.862   2.928   2.153
 2990SOL    HW2 8983   3.723   2.853   2.194
 2991SOL     OW 8984   3.954   2.490   3.837
 2991SOL    HW1 8985   3.861   2.488   3.874
 2991SOL    HW2 8986   3.955   2.451   3.745
 2992SOL     OW 8987   3.949   2.137   4.720
 2992SOL    HW1 8988   3.984   2.120   4.812
 2992SOL    HW2 8989   3.861   2.092   4.708
 2993SOL     OW 8990   3.743   2.230   4.371
 2993SOL    HW1 8991   3.661   2.273   4.410
 2993SOL    HW2 8992   3.715   2.157   4.308
 2994SOL     OW 8993   4.409   2.874   4.389
 2994SOL    HW1 8994   4.478   2.858   4.459
 2994SOL    HW2 8995   4.336   2.931   4.427
 2995SOL     OW 8996   3.955   3.575   4.207
 2995SOL    HW1 8997   3.989   3.652   4.261
 2995SOL    HW2 8998   3.999   3.575   4.117
 2996SOL     OW 8999   3.954   3.296   4.262
 2996SOL    HW1 9000   3.928   3.392   4.262
 2996SOL    HW2 9001   3.883   3.242   4.307
 2997SOL     OW 9002   3.964   2.953   4.610
 2997SOL    HW1 9003   3.978   2.869   4.662
 2997SOL    HW2 9004   3.909   3.017   4.665
 2998SOL     OW 9005   4.330   2.826   3.847
 2998SOL    HW1 9006   4.337   2.910   3.793
 2998SOL    HW2 9007   4.376   2.839   3.935
 2999SOL     OW 9008   3.846   2.505   4.287
 2999SOL    HW1 9009   3.801   2.417   4.304
 2999SOL    HW2 9010   3.845   2.559   4.371
 3000SOL     OW 9011   3.751   3.458   3.841
 3000SOL    HW1 9012   3.732   3.362   3.862
 3000SOL    HW2 9013   3.718   3.516   3.916
 3001SOL     OW 9014   4.337   3.227   4.450
 3001SOL    HW1 9015   4.288   3.140   4.459
 3001SOL    HW2 9016   4.314   3.270   4.363
 3002SOL     OW 9017   4.533   1.866   4.226
 3002SOL    HW1 9018   4.573   1.957   4.217
 3002SOL    HW2 9019   4.433   1.874   4.232
 3003SOL     OW 9020   4.322   2.591   3.994
 3003SOL    HW1 9021   4.346   2.660   3.926
 3003SOL    HW2 9022   4.244   2.624   4.048
 3004SOL     OW 9023   3.800   2.673   4.513
 3004SOL    HW1 9024   3.899   2.661   4.522
 3004SOL    HW2 9025   3.776   2.768   4.534
 3005SOL     OW 9026   4.075   3.663   4.577
 3005SOL    HW1 9027   4.125   3.577   4.583
 3005SOL    HW2 9028   4.140   3.740   4.574
 3006SOL     OW 9029   4.045   2.805   3.966
 3006SOL    HW1 9030   4.127   2.844   3.924
 3006SOL    HW2 9031   4.018   2.723   3.917
 3007SOL     OW 9032   4.188   3.605   4.047
 3007SOL    HW1 9033   4.221   3.644   4.133
 3007SOL    HW2 9034   4.264   3.598   3.982
 3008SOL     OW 9035   4.106   2.562   4.204
 3008SOL    HW1 9036   4.151   2.472   4.201
 3008SOL    HW2 9037   4.012   2.551   4.237
 3009SOL     OW 9038   4.338   1.984   3.841
 3009SOL    HW1 9039   4.436   1.962   3.848
 3009SOL    HW2 9040   4.307   1.967   3.748
 3010SOL     OW 9041   4.263   1.926   4.236
 3010SOL    HW1 9042   4.182   1.927   4.294
 3010SOL    HW2 9043   4.266   2.009   4.181
 3011SOL     OW 9044   4.021   1.897   3.895
 3011SOL    HW1 9045   4.070   1.981   3.874
 3011SOL    HW2 9046   4.083   1.832   3.940
 3012SOL     OW 9047   4.183   3.014   4.465
 3012SOL    HW1 9048   4.112   2.987   4.530
 3012SOL    HW2 9049   4.157   2.986   4.372
 3013SOL     OW 9050   4.741   1.901   4.477
 3013SOL    HW1 9051   4.669   1.906   4.408
 3013SOL    HW2 9052   4.717   1.832   4.546
 3014SOL     OW 9053   4.212   3.247   3.898
 3014SOL    HW1 9054   4.125   3.232   3.945
 3014SOL    HW2 9055   4.195   3.273   3.803
 3015SOL     OW 9056   4.251   2.118   4.052
 3015SOL    HW1 9057   4.278   2.059   3.977
 3015SOL    HW2 9058   4.251   2.213   4.021
 3016SOL     OW 9059   4.091   2.962   4.225
 3016SOL    HW1 9060   4.084   3.045   4.169
 3016SOL    HW2 9061   4.095   2.882   4.165
 3017SOL     OW 9062   4.031   1.925   4.342
 3017SOL    HW1 9063   4.020   2.019   4.375
 3017SOL    HW2 9064   4.026   1.862   4.419
 3018SOL     OW 9065   4.792   3.195   4.573
 3018SOL    HW1 9066   4.799   3.111   4.518
 3018SOL    HW2 9067   4.854   3.264   4.537
 3019SOL     OW 9068   3.732   3.188   3.924
 3019SOL    HW1 9069   3.639   3.209   3.893
 3019SOL    HW2 9070   3.742   3.089   3.937
 3020SOL     OW 9071   4.539   2.434   4.049
 3020SOL    HW1 9072   4.546   2.345   4.003
 3020SOL    HW2 9073   4.445   2.468   4.041
 3021SOL     OW 9074   4.197   2.362   3.915
 3021SOL    HW1 9075   4.258   2.442   3.919
 3021SOL    HW2 9076   4.102   2.393   3.922
 3022SOL     OW 9077   4.627   1.948   3.857
 3022SOL    HW1 9078   4.678   1.949   3.771
 3022SOL    HW2 9079   4.683   1.906   3.928
 3023SOL     OW 9080   4.396   3.478   3.878
 3023SOL    HW1 9081   4.405   3.488   3.779
 3023SOL    HW2 9082   4.356   3.389   3.899
 3024SOL     OW 9083   3.987   2.188   4.444
 3024SOL    HW1 9084   3.908   2.239   4.410
 3024SOL    HW2 9085   3.978   2.173   4.542
 3025SOL     OW 9086   4.314   3.349   4.215
 3025SOL    HW1 9087   4.356   3.291   4.145
 3025SOL    HW2 9088   4.270   3.428   4.171
 3026SOL     OW 9089   3.979   3.210   4.014
 3026SOL    HW1 9090   3.883   3.211   3.987
 3026SOL    HW2 9091   3.991   3.263   4.098
 3027SOL     OW 9092   3.799   2.207   3.757
 3027SOL    HW1 9093   3.707   2.179   3.728
 3027SOL    HW2 9094   3.830   2.284   3.701
 3028SOL     OW 9095   3.796   2.028   4.042
 3028SOL    HW1 9096   3.779   2.111   3.988
 3028SOL    HW2 9097   3.886   1.991   4.020
 3029SOL     OW 9098   4.318   2.607   4.376
 3029SOL    HW1 9099   4.368   2.692   4.357
 3029SOL    HW2 9100   4.230   2.609   4.328
 3030SOL     OW 9101   4.385   3.652   4.677
 3030SOL    HW1 9102   4.339   3.740   4.664
 3030SOL    HW2 9103   4.484   3.664   4.670
 3031SOL     OW 9104   3.803   3.102   4.377
 3031SOL    HW1 9105   3.802   3.055   4.465
 3031SOL    HW2 9106   3.885   3.074   4.326
 3032SOL     OW 9107   4.152   2.286   4.244
 3032SOL    HW1 9108   4.182   2.214   4.182
 3032SOL    HW2 9109   4.113   2.246   4.327
 3033SOL     OW 9110   4.536   3.448   4.411
 3033SOL    HW1 9111   4.568   3.458   4.317
 3033SOL    HW2 9112   4.457   3.386   4.413
 3034SOL     OW 9113   3.763   2.939   4.024
 3034SOL    HW1 9114   3.862   2.928   4.015
 3034SOL    HW2 9115   3.723   2.853   4.056
 3035SOL     OW 9116   3.954   4.352   0.113
 3035SOL    HW1 9117   3.861   4.350   0.150
 3035SOL    HW2 9118   3.955   4.313   0.021
 3036SOL     OW 9119   3.949   3.999   0.996
 3036SOL    HW1 9120   3.984   3.982   1.088
 3036SOL    HW2 9121   3.861   3.954   0.984
 3037SOL     OW 9122   3.743   4.092   0.647
 3037SOL    HW1 9123   3.661   4.135   0.686
 3037SOL    HW2 9124   3.715   4.019   0.584
 3038SOL     OW 9125   4.409   4.736   0.665
 3038SOL    HW1 9126   4.478   4.720   0.735
 3038SOL    HW2 9127   4.336   4.793   0.703
 3039SOL     OW 9128   4.162   4.116   1.499
 3039SOL    HW1 9129   4.244   4.060   1.508
 3039SOL    HW2 9130   4.081   4.058   1.503
 3040SOL     OW 9131   3.846   4.367   0.563
 3040SOL    HW1 9132   3.801   4.279   0.580
 3040SOL    HW2 9133   3.845   4.421   0.647
 3041SOL     OW 9134   3.837   4.461   1.597
 3041SOL    HW1 9135   3.925   4.448   1.642
 3041SOL    HW2 9136   3.824   4.558   1.575
 3042SOL     OW 9137   4.533   3.728   0.502
 3042SOL    HW1 9138   4.573   3.819   0.493
 3042SOL    HW2 9139   4.433   3.736   0.508
 3043SOL     OW 9140   4.041   3.975   1.801
 3043SOL    HW1 9141   4.112   4.046   1.807
 3043SOL    HW2 9142   3.953   4.014   1.829
 3044SOL     OW 9143   4.322   4.453   0.270
 3044SOL    HW1 9144   4.346   4.522   0.202
 3044SOL    HW2 9145   4.244   4.486   0.324
 3045SOL     OW 9146   4.274   3.920   0.885
 3045SOL    HW1 9147   4.269   3.915   0.985
 3045SOL    HW2 9148   4.276   4.016   0.856
 3046SOL     OW 9149   3.926   4.009   1.498
 3046SOL    HW1 9150   3.846   4.069   1.485
 3046SOL    HW2 9151   3.916   3.960   1.584
 3047SOL     OW 9152   4.106   4.424   0.480
 3047SOL    HW1 9153   4.151   4.334   0.477
 3047SOL    HW2 9154   4.012   4.413   0.513
 3048SOL     OW 9155   4.646   4.227   0.899
 3048SOL    HW1 9156   4.621   4.218   0.803
 3048SOL    HW2 9157   4.694   4.145   0.930
 3049SOL     OW 9158   4.263   3.788   0.512
 3049SOL    HW1 9159   4.182   3.789   0.570
 3049SOL    HW2 9160   4.266   3.871   0.457
 3050SOL     OW 9161   4.021   3.759   0.171
 3050SOL    HW1 9162   4.070   3.843   0.150
 3050SOL    HW2 9163   4.083   3.694   0.216
 3051SOL     OW 9164   3.802   4.280   1.386
 3051SOL    HW1 9165   3.894   4.279   1.345
 3051SOL    HW2 9166   3.796   4.354   1.453
 3052SOL     OW 9167   4.285   3.946   1.147
 3052SOL    HW1 9168   4.323   3.862   1.184
 3052SOL    HW2 9169   4.197   3.965   1.191
 3053SOL     OW 9170   4.251   3.980   0.328
 3053SOL    HW1 9171   4.278   3.921   0.253
 3053SOL    HW2 9172   4.251   4.075   0.297
 3054SOL     OW 9173   4.639   3.813   1.402
 3054SOL    HW1 9174   4.664   3.793   1.307
 3054SOL    HW2 9175   4.711   3.869   1.444
 3055SOL     OW 9176   4.134   4.537   1.251
 3055SOL    HW1 9177   4.220   4.549   1.301
 3055SOL    HW2 9178   4.092   4.450   1.278
 3056SOL     OW 9179   4.290   4.261   0.865
 3056SOL    HW1 9180   4.302   4.327   0.791
 3056SOL    HW2 9181   4.336   4.295   0.948
 3057SOL     OW 9182   4.228   3.774   1.740
 3057SOL    HW1 9183   4.186   3.717   1.670
 3057SOL    HW2 9184   4.162   3.843   1.772
 3058SOL     OW 9185   4.031   3.937   1.231
 3058SOL    HW1 9186   4.008   3.974   1.321
 3058SOL    HW2 9187   4.001   3.842   1.225
 3059SOL     OW 9188   4.456   4.358   1.064
 3059SOL    HW1 9189   4.515   4.332   0.988
 3059SOL    HW2 9190   4.428   4.454   1.053
 3060SOL     OW 9191   4.031   3.787   0.618
 3060SOL    HW1 9192   4.020   3.881   0.651
 3060SOL    HW2 9193   4.026   3.724   0.695
 3061SOL     OW 9194   4.043   4.534   0.949
 3061SOL    HW1 9195   4.136   4.570   0.954
 3061SOL    HW2 9196   4.037   4.449   1.001
 3062SOL     OW 9197   4.063   4.233   1.006
 3062SOL    HW1 9198   4.011   4.150   0.989
 3062SOL    HW2 9199   4.140   4.238   0.942
 3063SOL     OW 9200   3.764   4.268   1.114
 3063SOL    HW1 9201   3.849   4.235   1.073
 3063SOL    HW2 9202   3.777   4.283   1.212
 3064SOL     OW 9203   3.913   4.244   1.722
 3064SOL    HW1 9204   3.972   4.204   1.652
 3064SOL    HW2 9205   3.855   4.315   1.681
 3065SOL     OW 9206   4.539   4.296   0.325
 3065SOL    HW1 9207   4.546   4.207   0.279
 3065SOL    HW2 9208   4.445   4.330   0.317
 3066SOL     OW 9209   4.395   4.188   1.269
 3066SOL    HW1 9210   4.361   4.099   1.239
 3066SOL    HW2 9211   4.421   4.242   1.189
 3067SOL     OW 9212   4.197   4.224   0.191
 3067SOL    HW1 9213   4.258   4.304   0.195
 3067SOL    HW2 9214   4.102   4.255   0.198
 3068SOL     OW 9215   4.627   3.810   0.133
 3068SOL    HW1 9216   4.678   3.811   0.047
 3068SOL    HW2 9217   4.683   3.768   0.204
 3069SOL     OW 9218   3.987   4.050   0.720
 3069SOL    HW1 9219   3.908   4.101   0.686
 3069SOL    HW2 9220   3.978   4.035   0.818
 3070SOL     OW 9221   3.829   4.737   1.726
 3070SOL    HW1 9222   3.752   4.704   1.780
 3070SOL    HW2 9223   3.914   4.707   1.768
 3071SOL     OW 9224   4.396   3.927   1.489
 3071SOL    HW1 9225   4.486   3.911   1.449
 3071SOL    HW2 9226   4.404   3.932   1.588
 3072SOL     OW 9227   3.799   4.069   0.033
 3072SOL    HW1 9228   3.707   4.041   0.004
 3072SOL    HW2 9229   3.830   4.146  -0.023
 3073SOL     OW 9230   3.796   3.890   0.318
 3073SOL    HW1 9231   3.779   3.973   0.264
 3073SOL    HW2 9232   3.886   3.853   0.296
 3074SOL     OW 9233   4.337   4.566   1.431
 3074SOL    HW1 9234   4.393   4.647   1.414
 3074SOL    HW2 9235   4.396   4.486   1.434
 3075SOL     OW 9236   4.440   4.289   1.708
 3075SOL    HW1 9237   4.459   4.354   1.782
 3075SOL    HW2 9238   4.500   4.209   1.717
 3076SOL     OW 9239   4.318   4.469   0.652
 3076SOL    HW1 9240   4.368   4.554   0.633
 3076SOL    HW2 9241   4.230   4.471   0.604
 3077SOL     OW 9242   4.152   4.148   0.520
 3077SOL    HW1 9243   4.182   4.076   0.458
 3077SOL    HW2 9244   4.113   4.108   0.603
 3078SOL     OW 9245   4.041   4.271   1.280
 3078SOL    HW1 9246   4.079   4.212   1.352
 3078SOL    HW2 9247   4.081   4.245   1.192
 3079SOL     OW 9248   3.954   4.352   1.975
 3079SOL    HW1 9249   3.861   4.350   2.012
 3079SOL    HW2 9250   3.955   4.313   1.883
 3080SOL     OW 9251   3.949   3.999   2.858
 3080SOL    HW1 9252   3.984   3.982   2.950
 3080SOL    HW2 9253   3.861   3.954   2.846
 3081SOL     OW 9254   3.743   4.092   2.509
 3081SOL    HW1 9255   3.661   4.135   2.548
 3081SOL    HW2 9256   3.715   4.019   2.446
 3082SOL     OW 9257   4.409   4.736   2.527
 3082SOL    HW1 9258   4.478   4.720   2.597
 3082SOL    HW2 9259   4.336   4.793   2.565
 3083SOL     OW 9260   4.162   4.116   3.361
 3083SOL    HW1 9261   4.244   4.060   3.370
 3083SOL    HW2 9262   4.081   4.058   3.365
 3084SOL     OW 9263   3.846   4.367   2.425
 3084SOL    HW1 9264   3.801   4.279   2.442
 3084SOL    HW2 9265   3.845   4.421   2.509
 3085SOL     OW 9266   3.837   4.461   3.459
 3085SOL    HW1 9267   3.925   4.448   3.504
 3085SOL    HW2 9268   3.824   4.558   3.437
 3086SOL     OW 9269   4.533   3.728   2.364
 3086SOL    HW1 9270   4.573   3.819   2.355
 3086SOL    HW2 9271   4.433   3.736   2.370
 3087SOL     OW 9272   4.041   3.975   3.663
 3087SOL    HW1 9273   4.112   4.046   3.669
 3087SOL    HW2 9274   3.953   4.014   3.691
 3088SOL     OW 9275   4.322   4.453   2.132
 3088SOL    HW1 9276   4.346   4.522   2.064
 3088SOL    HW2 9277   4.244   4.486   2.186
 3089SOL     OW 9278   4.274   3.920   2.747
 3089SOL    HW1 9279   4.269   3.915   2.847
 3089SOL    HW2 9280   4.276   4.016   2.718
 3090SOL     OW 9281   3.926   4.009   3.360
 3090SOL    HW1 9282   3.846   4.069   3.347
 3090SOL    HW2 9283   3.916   3.960   3.446
 3091SOL     OW 9284   4.106   4.424   2.342
 3091SOL    HW1 9285   4.151   4.334   2.339
 3091SOL    HW2 9286   4.012   4.413   2.375
 3092SOL     OW 9287   4.338   3.846   1.979
 3092SOL    HW1 9288   4.436   3.824   1.986
 3092SOL    HW2 9289   4.307   3.829   1.886
 3093SOL     OW 9290   4.646   4.227   2.761
 3093SOL    HW1 9291   4.621   4.218   2.665
 3093SOL    HW2 9292   4.694   4.145   2.792
 3094SOL     OW 9293   4.263   3.788   2.374
 3094SOL    HW1 9294   4.182   3.789   2.432
 3094SOL    HW2 9295   4.266   3.871   2.319
 3095SOL     OW 9296   4.021   3.759   2.033
 3095SOL    HW1 9297   4.070   3.843   2.012
 3095SOL    HW2 9298   4.083   3.694   2.078
 3096SOL     OW 9299   3.802   4.280   3.248
 3096SOL    HW1 9300   3.894   4.279   3.207
 3096SOL    HW2 9301   3.796   4.354   3.315
 3097SOL     OW 9302   4.285   3.946   3.009
 3097SOL    HW1 9303   4.323   3.862   3.046
 3097SOL    HW2 9304   4.197   3.965   3.053
 3098SOL     OW 9305   4.251   3.980   2.190
 3098SOL    HW1 9306   4.278   3.921   2.115
 3098SOL    HW2 9307   4.251   4.075   2.159
 3099SOL     OW 9308   4.639   3.813   3.264
 3099SOL    HW1 9309   4.664   3.793   3.169
 3099SOL    HW2 9310   4.711   3.869   3.306
 3100SOL     OW 9311   4.134   4.537   3.113
 3100SOL    HW1 9312   4.220   4.549   3.163
 3100SOL    HW2 9313   4.092   4.450   3.140
 3101SOL     OW 9314   4.290   4.261   2.727
 3101SOL    HW1 9315   4.302   4.327   2.653
 3101SOL    HW2 9316   4.336   4.295   2.810
 3102SOL     OW 9317   4.228   3.774   3.602
 3102SOL    HW1 9318   4.186   3.717   3.532
 3102SOL    HW2 9319   4.162   3.843   3.634
 3103SOL     OW 9320   4.031   3.937   3.093
 3103SOL    HW1 9321   4.008   3.974   3.183
 3103SOL    HW2 9322   4.001   3.842   3.087
 3104SOL     OW 9323   4.456   4.358   2.926
 3104SOL    HW1 9324   4.515   4.332   2.850
 3104SOL    HW2 9325   4.428   4.454   2.915
 3105SOL     OW 9326   4.031   3.787   2.480
 3105SOL    HW1 9327   4.020   3.881   2.513
 3105SOL    HW2 9328   4.026   3.724   2.557
 3106SOL     OW 9329   4.043   4.534   2.811
 3106SOL    HW1 9330   4.136   4.570   2.816
 3106SOL    HW2 9331   4.037   4.449   2.863
 3107SOL     OW 9332   4.063   4.233   2.868
 3107SOL    HW1 9333   4.011   4.150   2.851
 3107SOL    HW2 9334   4.140   4.238   2.804
 3108SOL     OW 9335   3.764   4.268   2.976
 3108SOL    HW1 9336   3.849   4.235   2.935
 3108SOL    HW2 9337   3.777   4.283   3.074
 3109SOL     OW 9338   3.913   4.244   3.584
 3109SOL    HW1 9339   3.972   4.204   3.514
 3109SOL    HW2 9340   3.855   4.315   3.543
 3110SOL     OW 9341   4.539   4.296   2.187
 3110SOL    HW1 9342   4.546   4.207   2.141
 3110SOL    HW2 9343   4.445   4.330   2.179
 3111SOL     OW 9344   4.395   4.188   3.131
 3111SOL    HW1 9345   4.361   4.099   3.101
 3111SOL    HW2 9346   4.421   4.242   3.051
 3112SOL     OW 9347   4.197   4.224   2.053
 3112SOL    HW1 9348   4.258   4.304   2.057
 3112SOL    HW2 9349   4.102   4.255   2.060
 3113SOL     OW 9350   4.627   3.810   1.995
 3113SOL    HW1 9351   4.678   3.811   1.909
 3113SOL    HW2 9352   4.683   3.768   2.066
 3114SOL     OW 9353   3.987   4.050   2.582
 3114SOL    HW1 9354   3.908   4.101   2.548
 3114SOL    HW2 9355   3.978   4.035   2.680
 3115SOL     OW 9356   3.829   4.737   3.588
 3115SOL    HW1 9357   3.752   4.704   3.642
 3115SOL    HW2 9358   3.914   4.707   3.630
 3116SOL     OW 9359   4.396   3.927   3.351
 3116SOL    HW1 9360   4.486   3.911   3.311
 3116SOL    HW2 9361   4.404   3.932   3.450
 3117SOL     OW 9362   3.799   4.069   1.895
 3117SOL    HW1 9363   3.707   4.041   1.866
 3117SOL    HW2 9364   3.830   4.146   1.839
 3118SOL     OW 9365   3.796   3.890   2.180
 3118SOL    HW1 9366   3.779   3.973   2.126
 3118SOL    HW2 9367   3.886   3.853   2.158
 3119SOL     OW 9368   4.337   4.566   3.293
 3119SOL    HW1 9369   4.393   4.647   3.276
 3119SOL    HW2 9370   4.396   4.486   3.296
 3120SOL     OW 9371   4.440   4.289   3.570
 3120SOL    HW1 9372   4.459   4.354   3.644
 3120SOL    HW2 9373   4.500   4.209   3.579
 3121SOL     OW 9374   4.318   4.469   2.514
 3121SOL    HW1 9375   4.368   4.554   2.495
 3121SOL    HW2 9376   4.230   4.471   2.466
 3122SOL     OW 9377   4.152   4.148   2.382
 3122SOL    HW1 9378   4.182   4.076   2.320
 3122SOL    HW2 9379   4.113   4.108   2.465
 3123SOL     OW 9380   4.041   4.271   3.142
 3123SOL    HW1 9381   4.079   4.212   3.214
 3123SOL    HW2 9382   4.081   4.245   3.054
 3124SOL     OW 9383   3.954   4.352   3.837
 3124SOL    HW1 9384   3.861   4.350   3.874
 3124SOL    HW2 9385   3.955   4.313   3.745
 3125SOL     OW 9386   3.949   3.999   4.720
 3125SOL    HW1 9387   3.984   3.982   4.812
 3125SOL    HW2 9388   3.861   3.954   4.708
 3126SOL     OW 9389   3.743   4.092   4.371
 3126SOL    HW1 9390   3.661   4.135   4.410
 3126SOL    HW2 9391   3.715   4.019   4.308
 3127SOL     OW 9392   4.409   4.736   4.389
 3127SOL    HW1 9393   4.478   4.720   4.459
 3127SOL    HW2 9394   4.336   4.793   4.427
 3128SOL     OW 9395   3.846   4.367   4.287
 3128SOL    HW1 9396   3.801   4.279   4.304
 3128SOL    HW2 9397   3.845   4.421   4.371
 3129SOL     OW 9398   4.533   3.728   4.226
 3129SOL    HW1 9399   4.573   3.819   4.217
 3129SOL    HW2 9400   4.433   3.736   4.232
 3130SOL     OW 9401   4.322   4.453   3.994
 3130SOL    HW1 9402   4.346   4.522   3.926
 3130SOL    HW2 9403   4.244   4.486   4.048
 3131SOL     OW 9404   4.106   4.424   4.204
 3131SOL    HW1 9405   4.151   4.334   4.201
 3131SOL    HW2 9406   4.012   4.413   4.237
 3132SOL     OW 9407   4.338   3.846   3.841
 3132SOL    HW1 9408   4.436   3.824   3.848
 3132SOL    HW2 9409   4.307   3.829   3.748
 3133SOL     OW 9410   4.263   3.788   4.236
 3133SOL    HW1 9411   4.182   3.789   4.294
 3133SOL    HW2 9412   4.266   3.871   4.181
 3134SOL     OW 9413   4.021   3.759   3.895
 3134SOL    HW1 9414   4.070   3.843   3.874
 3134SOL    HW2 9415   4.083   3.694   3.940
 3135SOL     OW 9416   4.741   3.763   4.477
 3135SOL    HW1 9417   4.669   3.768   4.408
 3135SOL    HW2 9418   4.717   3.694   4.546
 3136SOL     OW 9419   4.251   3.980   4.052
 3136SOL    HW1 9420   4.278   3.921   3.977
 3136SOL    HW2 9421   4.251   4.075   4.021
 3137SOL     OW 9422   4.031   3.787   4.342
 3137SOL    HW1 9423   4.020   3.881   4.375
 3137SOL    HW2 9424   4.026   3.724   4.419
 3138SOL     OW 9425   4.539   4.296   4.049
 3138SOL    HW1 9426   4.546   4.207   4.003
 3138SOL    HW2 9427   4.445   4.330   4.041
 3139SOL     OW 9428   4.197   4.224   3.915
 3139SOL    HW1 9429   4.258   4.304   3.919
 3139SOL    HW2 9430   4.102   4.255   3.922
 3140SOL     OW 9431   4.627   3.810   3.857
 3140SOL    HW1 9432   4.678   3.811   3.771
 3140SOL    HW2 9433   4.683   3.768   3.928
 3141SOL     OW 9434   3.987   4.050   4.444
 3141SOL    HW1 9435   3.908   4.101   4.410
 3141SOL    HW2 9436   3.978   4.035   4.542
 3142SOL     OW 9437   3.799   4.069   3.757
 3142SOL    HW1 9438   3.707   4.041   3.728
 3142SOL    HW2 9439   3.830   4.146   3.701
 3143SOL     OW 9440   3.796   3.890   4.042
 3143SOL    HW1 9441   3.779   3.973   3.988
 3143SOL    HW2 9442   3.886   3.853   4.020
 3144SOL     OW 9443   4.318   4.469   4.376
 3144SOL    HW1 9444   4.368   4.554   4.357
 3144SOL    HW2 9445   4.230   4.471   4.328
 3145SOL     OW 9446   4.152   4.148   4.244
 3145SOL    HW1 9447   4.182   4.076   4.182
 3145SOL    HW2 9448   4.113   4.108   4.327
   4.58804   4.58804   4.58804
