%VERSION  VERSION_STAMP = V0001.000  DATE = 05/21/26  00:01:25                  
%FLAG TITLE                                                                     
%FORMAT(20a4)                                                                   
N_acetylpyrrolidine                                                             
%FLAG POINTERS                                                                  
%FORMAT(10I8)                                                                   
      19       6      11       8      26      10      41      21       0       0
     102       1       8      10      21       8      14      18       7       0
       0       0       0       0       0       0       0       0      19       0
       0
%FLAG ATOM_NAME                                                                 
%FORMAT(20a4)                                                                   
C1  C2  C3  C4  C5  C6  N1  O1  H1  H2  H3  H4  H5  H6  H7  H8  H9  H10 H11 
%FLAG CHARGE                                                                    
%FORMAT(5E16.8)                                                                 
  1.19738733E+01 -1.65640707E+00 -1.65640707E+00  1.63089585E+00  1.63089585E+00
 -3.08139093E+00 -8.63372574E+00 -1.10627583E+01  9.51204060E-01  9.51204060E-01
  9.51204060E-01  9.51204060E-01  8.87426010E-01  8.87426010E-01  8.87426010E-01
  8.87426010E-01  1.17291478E+00  1.17291478E+00  1.17291478E+00
%FLAG ATOMIC_NUMBER                                                             
%FORMAT(10I8)                                                                   
       6       6       6       6       6       6       7       8       1       1
       1       1       1       1       1       1       1       1       1
%FLAG MASS                                                                      
%FORMAT(5E16.8)                                                                 
  1.20100000E+01  1.20100000E+01  1.20100000E+01  1.20100000E+01  1.20100000E+01
  1.20100000E+01  1.40100000E+01  1.60000000E+01  1.00800000E+00  1.00800000E+00
  1.00800000E+00  1.00800000E+00  1.00800000E+00  1.00800000E+00  1.00800000E+00
  1.00800000E+00  1.00800000E+00  1.00800000E+00  1.00800000E+00
%FLAG ATOM_TYPE_INDEX                                                           
%FORMAT(10I8)                                                                   
       1       2       2       2       2       2       3       4       5       5
       5       5       6       6       6       6       5       5       5
%FLAG NUMBER_EXCLUDED_ATOMS                                                     
%FORMAT(10I8)                                                                   
      14      12      11      12      11       5      12       3       5       4
       3       2       1       1       1       1       2       1       1
%FLAG NONBONDED_PARM_INDEX                                                      
%FORMAT(10I8)                                                                   
       1       2       4       7      11      16       2       3       5       8
      12      17       4       5       6       9      13      18       7       8
       9      10      14      19      11      12      13      14      15      20
      16      17      18      19      20      21
%FLAG RESIDUE_LABEL                                                             
%FORMAT(20a4)                                                                   
MOL 
%FLAG RESIDUE_POINTER                                                           
%FORMAT(10I8)                                                                   
       1
%FLAG BOND_FORCE_CONSTANT                                                       
%FORMAT(5E16.8)                                                                 
  2.34850000E+02  3.17460000E+02  5.90600000E+02  2.20100000E+02  3.46430000E+02
  2.51070000E+02  3.43780000E+02  3.45250000E+02
%FLAG BOND_EQUIL_VALUE                                                          
%FORMAT(5E16.8)                                                                 
  1.52700000E+00  1.39670000E+00  1.21900000E+00  1.54830000E+00  1.09540000E+00
  1.46850000E+00  1.09720000E+00  1.09620000E+00
%FLAG ANGLE_FORCE_CONSTANT                                                      
%FORMAT(5E16.8)                                                                 
  4.36300000E+01  7.72200000E+01  6.18400000E+01  4.26500000E+01  6.73400000E+01
  4.26500000E+01  7.75800000E+01  6.51900000E+01  7.64500000E+01  8.66800000E+01
  4.75800000E+01  3.59100000E+01  3.57000000E+01  3.58000000E+01
%FLAG ANGLE_EQUIL_VALUE                                                         
%FORMAT(5E16.8)                                                                 
  1.90153704E+00  2.06821605E+00  1.81217614E+00  1.94028336E+00  1.80920908E+00
  1.94028336E+00  1.95494413E+00  2.04482863E+00  2.14501057E+00  2.13925098E+00
  1.92893872E+00  1.87134283E+00  1.88722533E+00  1.88024401E+00
%FLAG DIHEDRAL_FORCE_CONSTANT                                                   
%FORMAT(5E16.8)                                                                 
  2.26000000E+00  3.00000000E-02  6.50000000E-01  0.00000000E+00  1.00000000E-01
  1.55555556E-01  0.00000000E+00  5.20000000E-01  1.30000000E-01  2.93000000E+00
  1.41000000E+00  5.00000000E-01  2.50000000E+00  4.03000000E+00  3.66000000E+00
  1.20000000E-01  1.05000000E+01  1.10000000E+00
%FLAG DIHEDRAL_PERIODICITY                                                      
%FORMAT(5E16.8)                                                                 
  1.00000000E+00  3.00000000E+00  4.00000000E+00  2.00000000E+00  3.00000000E+00
  3.00000000E+00  2.00000000E+00  3.00000000E+00  3.00000000E+00  1.00000000E+00
  2.00000000E+00  3.00000000E+00  2.00000000E+00  1.00000000E+00  2.00000000E+00
  3.00000000E+00  2.00000000E+00  2.00000000E+00
%FLAG DIHEDRAL_PHASE                                                            
%FORMAT(5E16.8)                                                                 
  0.00000000E+00  3.14159400E+00  3.14159400E+00  3.14159400E+00  0.00000000E+00
  0.00000000E+00  0.00000000E+00  0.00000000E+00  0.00000000E+00  0.00000000E+00
  3.14159400E+00  0.00000000E+00  3.14159400E+00  0.00000000E+00  3.14159400E+00
  0.00000000E+00  3.14159400E+00  3.14159400E+00
%FLAG SCEE_SCALE_FACTOR                                                         
%FORMAT(5E16.8)                                                                 
  1.20000000E+00  1.20000000E+00  1.20000000E+00  1.20000000E+00  1.20000000E+00
  1.20000000E+00  1.20000000E+00  1.20000000E+00  1.20000000E+00  1.20000000E+00
  1.20000000E+00  1.20000000E+00  1.20000000E+00  1.20000000E+00  1.20000000E+00
  1.20000000E+00  0.00000000E+00  0.00000000E+00
%FLAG SCNB_SCALE_FACTOR                                                         
%FORMAT(5E16.8)                                                                 
  2.00000000E+00  2.00000000E+00  2.00000000E+00  2.00000000E+00  2.00000000E+00
  2.00000000E+00  2.00000000E+00  2.00000000E+00  2.00000000E+00  2.00000000E+00
  2.00000000E+00  2.00000000E+00  2.00000000E+00  2.00000000E+00  2.00000000E+00
  2.00000000E+00  0.00000000E+00  0.00000000E+00
%FLAG SOLTY                                                                     
%FORMAT(5E16.8)                                                                 
  0.00000000E+00  0.00000000E+00  0.00000000E+00  0.00000000E+00  0.00000000E+00
  0.00000000E+00  0.00000000E+00
%FLAG LENNARD_JONES_ACOEF                                                       
%FORMAT(5E16.8)                                                                 
  6.96551276E+05  8.43969952E+05  1.02073671E+06  7.01106848E+05  8.52084164E+05
  7.02078680E+05  5.17507491E+05  6.30925504E+05  5.15491878E+05  3.76435470E+05
  8.12662403E+04  1.00235148E+05  7.93773615E+04  5.68021765E+04  7.94617769E+03
  5.63013422E+04  6.97998263E+04  5.45183252E+04  3.86646725E+04  5.22955465E+03
  3.39005767E+03
%FLAG LENNARD_JONES_BCOEF                                                       
%FORMAT(5E16.8)                                                                 
  5.24668528E+02  5.90251928E+02  6.63431737E+02  5.97113873E+02  6.72777963E+02
  6.77820248E+02  4.98871431E+02  5.62969425E+02  5.64804067E+02  4.69350655E+02
  1.21392023E+02  1.37787728E+02  1.36094315E+02  1.11953944E+02  2.57122925E+01
  1.01040256E+02  1.14981426E+02  1.12788003E+02  9.23664132E+01  2.08590256E+01
  1.67944276E+01
%FLAG BONDS_INC_HYDROGEN                                                        
%FORMAT(10I8)                                                                   
       3      24       5       3      27       5       6      30       5       6
      33       5       9      36       7       9      39       7      12      42
       7      12      45       7      15      48       8      15      51       8
      15      54       8
%FLAG BONDS_WITHOUT_HYDROGEN                                                    
%FORMAT(10I8)                                                                   
       0      15       1       0      18       2       0      21       3       3
       6       4       3       9       4       6      12       4       9      18
       6      12      18       6
%FLAG ANGLES_INC_HYDROGEN                                                       
%FORMAT(10I8)                                                                   
       0      15      48       1       0      15      51       1       0      15
      54       1       3       6      30       4       3       6      33       4
       3       9      36       6       3       9      39       6       6       3
      24       4       6       3      27       4       6      12      42       6
       6      12      45       6       9       3      24       4       9       3
      27       4      12       6      30       4      12       6      33       4
      18       9      36      11      18       9      39      11      18      12
      42      11      18      12      45      11      24       3      27      12
      30       6      33      12      36       9      39      13      42      12
      45      13      48      15      51      14      48      15      54      14
      51      15      54      14
%FLAG ANGLES_WITHOUT_HYDROGEN                                                   
%FORMAT(10I8)                                                                   
       0      18       9       2       0      18      12       2       3       6
      12       3       3       9      18       5       6       3       9       3
       6      12      18       5       9      18      12       7      15       0
      18       8      15       0      21       9      18       0      21      10
%FLAG DIHEDRALS_INC_HYDROGEN                                                    
%FORMAT(10I8)                                                                   
       0      18       9      36       4       0      18       9      39       4
       0      18      12      42       4       0      18      12      45       4
       3       6      12      42       6       3       6      12      45       6
       6       3       9      36       6       6       3       9      39       6
       9       3       6      30       9       9       3       6      33       9
       9      18      12      42       7       9      18      12      45       7
      12       6       3      24       9      12       6       3      27       9
      12      18       9      36       7      12      18       9      39       7
      18       0      15      48       4      18       0      15      51       4
      18       0      15      54       4      18       9       3      24       6
      18       9       3      27       6      18      12       6      30       6
      18      12       6      33       6      21       0      15      48      14
      21       0     -15      48      15      21       0      15      51      14
      21       0     -15      51      15      21       0      15      54      14
      21       0     -15      54      15      24       3       6      30      16
      24       3       6      33      16      24       3       9      36       6
      24       3       9      39       6      27       3       6      30      16
      27       3       6      33      16      27       3       9      36       6
      27       3       9      39       6      30       6      12      42       6
      30       6      12      45       6      33       6      12      42       6
      33       6      12      45       6
%FLAG DIHEDRALS_WITHOUT_HYDROGEN                                                
%FORMAT(10I8)                                                                   
       0      18       9       3       1       0      18      -9       3       2
       0      18      -9       3       3       0      18      12       6       1
       0      18     -12       6       2       0      18     -12       6       3
       3       6     -12      18       5       3       9     -18      12       7
       6       3      -9      18       5       6      12     -18       9       7
       9       3      -6      12       8      15       0      18       9      10
      15       0     -18       9      11      15       0     -18       9      12
      21       0      18       9      13      15       0      18      12      10
      15       0     -18      12      11      15       0     -18      12      12
      21       0      18      12      13      21       0     -18     -15      17
       0       9     -18     -12      18
%FLAG EXCLUDED_ATOMS_LIST                                                       
%FORMAT(10I8)                                                                   
       2       3       4       5       6       7       8      13      14      15
      16      17      18      19       3       4       5       7       9      10
      11      12      13      14      15      16       4       5       7       9
      10      11      12      13      14      15      16       5       6       7
       8       9      10      11      12      13      14      15      16       6
       7       8       9      10      11      12      13      14      15      16
       7       8      17      18      19       8       9      10      11      12
      13      14      15      16      17      18      19      17      18      19
      10      11      12      13      14      11      12      13      14      12
      15      16      15      16      14       0      16       0      18      19
      19       0
%FLAG HBOND_ACOEF                                                               
%FORMAT(5E16.8)                                                                 

%FLAG HBOND_BCOEF                                                               
%FORMAT(5E16.8)                                                                 

%FLAG HBCUT                                                                     
%FORMAT(5E16.8)                                                                 

%FLAG AMBER_ATOM_TYPE                                                           
%FORMAT(20a4)                                                                   
c   c5  c5  c5  c5  c3  n   o   hc  hc  hc  hc  h1  h1  h1  h1  hc  hc  hc  
%FLAG TREE_CHAIN_CLASSIFICATION                                                 
%FORMAT(20a4)                                                                   
BLA BLA BLA BLA BLA BLA BLA BLA BLA BLA BLA BLA BLA BLA BLA BLA BLA BLA BLA 
%FLAG JOIN_ARRAY                                                                
%FORMAT(10I8)                                                                   
       0       0       0       0       0       0       0       0       0       0
       0       0       0       0       0       0       0       0       0
%FLAG IROTAT                                                                    
%FORMAT(10I8)                                                                   
       0       0       0       0       0       0       0       0       0       0
       0       0       0       0       0       0       0       0       0
%FLAG RADIUS_SET                                                                
%FORMAT(1a80)                                                                   
modified Bondi radii (mbondi)                                                   
%FLAG RADII                                                                     
%FORMAT(5E16.8)                                                                 
  1.70000000E+00  1.70000000E+00  1.70000000E+00  1.70000000E+00  1.70000000E+00
  1.70000000E+00  1.55000000E+00  1.50000000E+00  1.30000000E+00  1.30000000E+00
  1.30000000E+00  1.30000000E+00  1.30000000E+00  1.30000000E+00  1.30000000E+00
  1.30000000E+00  1.30000000E+00  1.30000000E+00  1.30000000E+00
%FLAG SCREEN                                                                    
%FORMAT(5E16.8)                                                                 
  7.20000000E-01  7.20000000E-01  7.20000000E-01  7.20000000E-01  7.20000000E-01
  7.20000000E-01  7.90000000E-01  8.50000000E-01  8.50000000E-01  8.50000000E-01
  8.50000000E-01  8.50000000E-01  8.50000000E-01  8.50000000E-01  8.50000000E-01
  8.50000000E-01  8.50000000E-01  8.50000000E-01  8.50000000E-01
%FLAG IPOL                                                                      
%FORMAT(1I8)                                                                    
       0
