mobley_2725802_GMX.gro created by acpype (v: 2023.10.27) on Thu May 21 00:01:23 2026
 19
    1  MOL   C1    1  -0.086  -0.238   0.315
    1  MOL   C2    2  -0.018  -0.106  -0.022
    1  MOL   C3    3   0.108  -0.186   0.004
    1  MOL   C4    4  -0.116  -0.164   0.079
    1  MOL   C5    5   0.109  -0.203   0.155
    1  MOL   C6    6   0.014  -0.278   0.420
    1  MOL   N1    7  -0.033  -0.204   0.192
    1  MOL   O1    8  -0.206  -0.237   0.341
    1  MOL   H1    9   0.000   0.000  -0.000
    1  MOL   H2   10  -0.055  -0.114  -0.125
    1  MOL   H3   11   0.100  -0.285  -0.045
    1  MOL   H4   12   0.199  -0.137  -0.034
    1  MOL   H5   13  -0.193  -0.092   0.111
    1  MOL   H6   14  -0.166  -0.254   0.041
    1  MOL   H7   15   0.158  -0.295   0.188
    1  MOL   H8   16   0.155  -0.117   0.205
    1  MOL   H9   17   0.099  -0.210   0.413
    1  MOL  H10   18   0.046  -0.380   0.400
    1  MOL  H11   19  -0.033  -0.269   0.517
    8.09600     7.59200    12.84200
