; mobley_2725802_GMX.itp created by acpype (v: 2023.10.27) on Thu May 21 00:01:23 2026

[ atomtypes ]
;name   bond_type     mass     charge   ptype   sigma         epsilon       Amb
 c        c           0.00000  0.00000   A     3.31521e-01   4.13379e-01 ; 1.86  0.0988
 c5       c5          0.00000  0.00000   A     3.39771e-01   4.51035e-01 ; 1.91  0.1078
 c3       c3          0.00000  0.00000   A     3.39771e-01   4.51035e-01 ; 1.91  0.1078
 n        n           0.00000  0.00000   A     3.18086e-01   6.84502e-01 ; 1.79  0.1636
 o        o           0.00000  0.00000   A     3.04812e-01   6.12119e-01 ; 1.71  0.1463
 hc       hc          0.00000  0.00000   A     2.60018e-01   8.70272e-02 ; 1.46  0.0208
 h1       h1          0.00000  0.00000   A     2.42200e-01   8.70272e-02 ; 1.36  0.0208

[ moleculetype ]
;name            nrexcl
 mobley_2725802   3

[ atoms ]
;   nr  type  resi  res  atom  cgnr     charge      mass       ; qtot   bond_type
     1    c     1   MOL    C1    1     0.656099     12.01000 ; qtot 0.656
     2   c5     1   MOL    C2    2    -0.090900     12.01000 ; qtot 0.565
     3   c5     1   MOL    C3    3    -0.090900     12.01000 ; qtot 0.474
     4   c5     1   MOL    C4    4     0.089500     12.01000 ; qtot 0.564
     5   c5     1   MOL    C5    5     0.089500     12.01000 ; qtot 0.653
     6   c3     1   MOL    C6    6    -0.169100     12.01000 ; qtot 0.484
     7    n     1   MOL    N1    7    -0.473800     14.01000 ; qtot 0.010
     8    o     1   MOL    O1    8    -0.607100     16.00000 ; qtot -0.597
     9   hc     1   MOL    H1    9     0.052200      1.00800 ; qtot -0.545
    10   hc     1   MOL    H2   10     0.052200      1.00800 ; qtot -0.492
    11   hc     1   MOL    H3   11     0.052200      1.00800 ; qtot -0.440
    12   hc     1   MOL    H4   12     0.052200      1.00800 ; qtot -0.388
    13   h1     1   MOL    H5   13     0.048700      1.00800 ; qtot -0.339
    14   h1     1   MOL    H6   14     0.048700      1.00800 ; qtot -0.291
    15   h1     1   MOL    H7   15     0.048700      1.00800 ; qtot -0.242
    16   h1     1   MOL    H8   16     0.048700      1.00800 ; qtot -0.193
    17   hc     1   MOL    H9   17     0.064367      1.00800 ; qtot -0.129
    18   hc     1   MOL   H10   18     0.064367      1.00800 ; qtot -0.064
    19   hc     1   MOL   H11   19     0.064367      1.00800 ; qtot 0.000

[ bonds ]
;   ai     aj funct   r             k
     1      6   1    1.5270e-01    1.9652e+05 ;     C1 - C6    
     1      7   1    1.3967e-01    2.6565e+05 ;     C1 - N1    
     1      8   1    1.2190e-01    4.9421e+05 ;     C1 - O1    
     2      3   1    1.5483e-01    1.8418e+05 ;     C2 - C3    
     2      4   1    1.5483e-01    1.8418e+05 ;     C2 - C4    
     2      9   1    1.0954e-01    2.8989e+05 ;     C2 - H1    
     2     10   1    1.0954e-01    2.8989e+05 ;     C2 - H2    
     3      5   1    1.5483e-01    1.8418e+05 ;     C3 - C5    
     3     11   1    1.0954e-01    2.8989e+05 ;     C3 - H3    
     3     12   1    1.0954e-01    2.8989e+05 ;     C3 - H4    
     4      7   1    1.4685e-01    2.1010e+05 ;     C4 - N1    
     4     13   1    1.0972e-01    2.8768e+05 ;     C4 - H5    
     4     14   1    1.0972e-01    2.8768e+05 ;     C4 - H6    
     5      7   1    1.4685e-01    2.1010e+05 ;     C5 - N1    
     5     15   1    1.0972e-01    2.8768e+05 ;     C5 - H7    
     5     16   1    1.0972e-01    2.8768e+05 ;     C5 - H8    
     6     17   1    1.0962e-01    2.8891e+05 ;     C6 - H9    
     6     18   1    1.0962e-01    2.8891e+05 ;     C6 - H10   
     6     19   1    1.0962e-01    2.8891e+05 ;     C6 - H11   

[ pairs ]
;   ai     aj    funct
     1      2      1 ;     C1 - C2    
     1      3      1 ;     C1 - C3    
     1     13      1 ;     C1 - H5    
     1     14      1 ;     C1 - H6    
     1     15      1 ;     C1 - H7    
     1     16      1 ;     C1 - H8    
     2     15      1 ;     C2 - H7    
     2     16      1 ;     C2 - H8    
     3     13      1 ;     C3 - H5    
     3     14      1 ;     C3 - H6    
     4     11      1 ;     C4 - H3    
     4     12      1 ;     C4 - H4    
     4     15      1 ;     C4 - H7    
     4     16      1 ;     C4 - H8    
     5      9      1 ;     C5 - H1    
     5     10      1 ;     C5 - H2    
     5     13      1 ;     C5 - H5    
     5     14      1 ;     C5 - H6    
     6      4      1 ;     C6 - C4    
     6      5      1 ;     C6 - C5    
     7      9      1 ;     N1 - H1    
     7     10      1 ;     N1 - H2    
     7     11      1 ;     N1 - H3    
     7     12      1 ;     N1 - H4    
     7     17      1 ;     N1 - H9    
     7     18      1 ;     N1 - H10   
     7     19      1 ;     N1 - H11   
     8      4      1 ;     O1 - C4    
     8      5      1 ;     O1 - C5    
     8     17      1 ;     O1 - H9    
     8     18      1 ;     O1 - H10   
     8     19      1 ;     O1 - H11   
     9     11      1 ;     H1 - H3    
     9     12      1 ;     H1 - H4    
     9     13      1 ;     H1 - H5    
     9     14      1 ;     H1 - H6    
    10     11      1 ;     H2 - H3    
    10     12      1 ;     H2 - H4    
    10     13      1 ;     H2 - H5    
    10     14      1 ;     H2 - H6    
    11     15      1 ;     H3 - H7    
    11     16      1 ;     H3 - H8    
    12     15      1 ;     H4 - H7    
    12     16      1 ;     H4 - H8    

[ angles ]
;   ai     aj     ak    funct   theta         cth
     1      6     17      1    1.0895e+02    3.6510e+02 ;     C1 - C6     - H9    
     1      6     18      1    1.0895e+02    3.6510e+02 ;     C1 - C6     - H10   
     1      6     19      1    1.0895e+02    3.6510e+02 ;     C1 - C6     - H11   
     1      7      4      1    1.1850e+02    6.4618e+02 ;     C1 - N1     - C4    
     1      7      5      1    1.1850e+02    6.4618e+02 ;     C1 - N1     - C5    
     2      3      5      1    1.0383e+02    5.1748e+02 ;     C2 - C3     - C5    
     2      3     11      1    1.1117e+02    3.5690e+02 ;     C2 - C3     - H3    
     2      3     12      1    1.1117e+02    3.5690e+02 ;     C2 - C3     - H4    
     2      4      7      1    1.0366e+02    5.6350e+02 ;     C2 - C4     - N1    
     2      4     13      1    1.1117e+02    3.5690e+02 ;     C2 - C4     - H5    
     2      4     14      1    1.1117e+02    3.5690e+02 ;     C2 - C4     - H6    
     3      2      4      1    1.0383e+02    5.1748e+02 ;     C3 - C2     - C4    
     3      2      9      1    1.1117e+02    3.5690e+02 ;     C3 - C2     - H1    
     3      2     10      1    1.1117e+02    3.5690e+02 ;     C3 - C2     - H2    
     3      5      7      1    1.0366e+02    5.6350e+02 ;     C3 - C5     - N1    
     3      5     15      1    1.1117e+02    3.5690e+02 ;     C3 - C5     - H7    
     3      5     16      1    1.1117e+02    3.5690e+02 ;     C3 - C5     - H8    
     4      2      9      1    1.1117e+02    3.5690e+02 ;     C4 - C2     - H1    
     4      2     10      1    1.1117e+02    3.5690e+02 ;     C4 - C2     - H2    
     4      7      5      1    1.1201e+02    6.4919e+02 ;     C4 - N1     - C5    
     5      3     11      1    1.1117e+02    3.5690e+02 ;     C5 - C3     - H3    
     5      3     12      1    1.1117e+02    3.5690e+02 ;     C5 - C3     - H4    
     6      1      7      1    1.1716e+02    5.4551e+02 ;     C6 - C1     - N1    
     6      1      8      1    1.2290e+02    6.3973e+02 ;     C6 - C1     - O1    
     7      1      8      1    1.2257e+02    7.2534e+02 ;     N1 - C1     - O1    
     7      4     13      1    1.1052e+02    3.9815e+02 ;     N1 - C4     - H5    
     7      4     14      1    1.1052e+02    3.9815e+02 ;     N1 - C4     - H6    
     7      5     15      1    1.1052e+02    3.9815e+02 ;     N1 - C5     - H7    
     7      5     16      1    1.1052e+02    3.9815e+02 ;     N1 - C5     - H8    
     9      2     10      1    1.0722e+02    3.0049e+02 ;     H1 - C2     - H2    
    11      3     12      1    1.0722e+02    3.0049e+02 ;     H3 - C3     - H4    
    13      4     14      1    1.0813e+02    2.9874e+02 ;     H5 - C4     - H6    
    15      5     16      1    1.0813e+02    2.9874e+02 ;     H7 - C5     - H8    
    17      6     18      1    1.0773e+02    2.9957e+02 ;     H9 - C6     - H10   
    17      6     19      1    1.0773e+02    2.9957e+02 ;     H9 - C6     - H11   
    18      6     19      1    1.0773e+02    2.9957e+02 ;    H10 - C6     - H11   

[ dihedrals ] ; propers
; for gromacs 4.5 or higher, using funct 9
;    i      j      k      l   func   phase     kd      pn
     1      7      4      2      9     0.00   9.45584   1 ;     C1-    N1-    C4-    C2
     1      7      4      2      9   180.00   0.12552   3 ;     C1-    N1-    C4-    C2
     1      7      4      2      9   180.00   2.71960   4 ;     C1-    N1-    C4-    C2
     1      7      4     13      9   180.00   0.00000   2 ;     C1-    N1-    C4-    H5
     1      7      4     14      9   180.00   0.00000   2 ;     C1-    N1-    C4-    H6
     1      7      5      3      9     0.00   9.45584   1 ;     C1-    N1-    C5-    C3
     1      7      5      3      9   180.00   0.12552   3 ;     C1-    N1-    C5-    C3
     1      7      5      3      9   180.00   2.71960   4 ;     C1-    N1-    C5-    C3
     1      7      5     15      9   180.00   0.00000   2 ;     C1-    N1-    C5-    H7
     1      7      5     16      9   180.00   0.00000   2 ;     C1-    N1-    C5-    H8
     2      3      5      7      9     0.00   0.41840   3 ;     C2-    C3-    C5-    N1
     2      3      5     15      9     0.00   0.65084   3 ;     C2-    C3-    C5-    H7
     2      3      5     16      9     0.00   0.65084   3 ;     C2-    C3-    C5-    H8
     2      4      7      5      9     0.00   0.00000   0 ;     C2-    C4-    N1-    C5
     3      2      4      7      9     0.00   0.41840   3 ;     C3-    C2-    C4-    N1
     3      2      4     13      9     0.00   0.65084   3 ;     C3-    C2-    C4-    H5
     3      2      4     14      9     0.00   0.65084   3 ;     C3-    C2-    C4-    H6
     3      5      7      4      9     0.00   0.00000   0 ;     C3-    C5-    N1-    C4
     4      2      3      5      9     0.00   2.17568   3 ;     C4-    C2-    C3-    C5
     4      2      3     11      9     0.00   0.54392   3 ;     C4-    C2-    C3-    H3
     4      2      3     12      9     0.00   0.54392   3 ;     C4-    C2-    C3-    H4
     4      7      5     15      9     0.00   0.00000   0 ;     C4-    N1-    C5-    H7
     4      7      5     16      9     0.00   0.00000   0 ;     C4-    N1-    C5-    H8
     5      3      2      9      9     0.00   0.54392   3 ;     C5-    C3-    C2-    H1
     5      3      2     10      9     0.00   0.54392   3 ;     C5-    C3-    C2-    H2
     5      7      4     13      9     0.00   0.00000   0 ;     C5-    N1-    C4-    H5
     5      7      4     14      9     0.00   0.00000   0 ;     C5-    N1-    C4-    H6
     6      1      7      4      9     0.00   2.09200   3 ;     C6-    C1-    N1-    C4
     6      1      7      4      9     0.00  12.25912   1 ;     C6-    C1-    N1-    C4
     6      1      7      4      9   180.00   5.89944   2 ;     C6-    C1-    N1-    C4
     6      1      7      5      9     0.00   2.09200   3 ;     C6-    C1-    N1-    C5
     6      1      7      5      9     0.00  12.25912   1 ;     C6-    C1-    N1-    C5
     6      1      7      5      9   180.00   5.89944   2 ;     C6-    C1-    N1-    C5
     7      1      6     17      9   180.00   0.00000   2 ;     N1-    C1-    C6-    H9
     7      1      6     18      9   180.00   0.00000   2 ;     N1-    C1-    C6-   H10
     7      1      6     19      9   180.00   0.00000   2 ;     N1-    C1-    C6-   H11
     7      4      2      9      9     0.00   0.65084   3 ;     N1-    C4-    C2-    H1
     7      4      2     10      9     0.00   0.65084   3 ;     N1-    C4-    C2-    H2
     7      5      3     11      9     0.00   0.65084   3 ;     N1-    C5-    C3-    H3
     7      5      3     12      9     0.00   0.65084   3 ;     N1-    C5-    C3-    H4
     8      1      6     17      9     0.00  16.86152   1 ;     O1-    C1-    C6-    H9
     8      1      6     17      9   180.00  15.31344   2 ;     O1-    C1-    C6-    H9
     8      1      6     18      9     0.00  16.86152   1 ;     O1-    C1-    C6-   H10
     8      1      6     18      9   180.00  15.31344   2 ;     O1-    C1-    C6-   H10
     8      1      6     19      9     0.00  16.86152   1 ;     O1-    C1-    C6-   H11
     8      1      6     19      9   180.00  15.31344   2 ;     O1-    C1-    C6-   H11
     8      1      7      4      9   180.00  10.46000   2 ;     O1-    C1-    N1-    C4
     8      1      7      5      9   180.00  10.46000   2 ;     O1-    C1-    N1-    C5
     9      2      3     11      9     0.00   0.50208   3 ;     H1-    C2-    C3-    H3
     9      2      3     12      9     0.00   0.50208   3 ;     H1-    C2-    C3-    H4
     9      2      4     13      9     0.00   0.65084   3 ;     H1-    C2-    C4-    H5
     9      2      4     14      9     0.00   0.65084   3 ;     H1-    C2-    C4-    H6
    10      2      3     11      9     0.00   0.50208   3 ;     H2-    C2-    C3-    H3
    10      2      3     12      9     0.00   0.50208   3 ;     H2-    C2-    C3-    H4
    10      2      4     13      9     0.00   0.65084   3 ;     H2-    C2-    C4-    H5
    10      2      4     14      9     0.00   0.65084   3 ;     H2-    C2-    C4-    H6
    11      3      5     15      9     0.00   0.65084   3 ;     H3-    C3-    C5-    H7
    11      3      5     16      9     0.00   0.65084   3 ;     H3-    C3-    C5-    H8
    12      3      5     15      9     0.00   0.65084   3 ;     H4-    C3-    C5-    H7
    12      3      5     16      9     0.00   0.65084   3 ;     H4-    C3-    C5-    H8

[ dihedrals ] ; impropers
; treated as propers in GROMACS to use correct AMBER analytical function
;    i      j      k      l   func   phase     kd      pn
     1      4      7      5      4   180.00   4.60240   2 ;     C1-    C4-    N1-    C5
     8      1      7      6      4   180.00  43.93200   2 ;     O1-    C1-    N1-    C6
