N_acetylpyrrolidine
    19
  -0.8580000  -2.3750000   3.1480000  -0.1850000  -1.0590000  -0.2180000
   1.0830000  -1.8650000   0.0350000  -1.1610000  -1.6370000   0.7940000
   1.0860000  -2.0290000   1.5490000   0.1450000  -2.7770000   4.2010000
  -0.3270000  -2.0400000   1.9170000  -2.0620000  -2.3650000   3.4060000
   0.0010000   0.0000000  -0.0010000  -0.5470000  -1.1400000  -1.2470000
   1.0000000  -2.8450000  -0.4490000   1.9860000  -1.3730000  -0.3360000
  -1.9250000  -0.9220000   1.1130000  -1.6570000  -2.5350000   0.4080000
   1.5810000  -2.9470000   1.8780000   1.5530000  -1.1720000   2.0460000
   0.9900000  -2.0990000   4.1310000   0.4590000  -3.7960000   4.0030000
  -0.3280000  -2.6930000   5.1740000
