methyl_p_nitrobenzoate
    20
   0.8180000  -0.4390000   0.5640000   2.9370000  -1.5970000   0.6200000
   0.7990000  -0.4060000   1.9590000   2.9180000  -1.5650000   2.0140000
   1.8870000  -1.0340000  -0.1050000   1.8500000  -0.9690000   2.6840000
   1.9060000  -1.0670000  -1.5590000   3.1650000  -1.7810000  -3.4550000
   1.8310000  -0.9340000   4.1030000   1.0200000  -0.5920000  -2.2820000
   0.8610000  -0.3920000   4.6860000   2.7860000  -1.4470000   4.7360000
   3.0290000  -1.6880000  -2.0330000  -0.0050000   0.0040000   0.0090000
   3.7740000  -2.0650000   0.1070000  -0.0400000   0.0610000   2.4680000
   3.7440000  -2.0060000   2.5670000   4.0610000  -2.3570000  -3.7000000
   3.2360000  -0.7780000  -3.8830000   2.2870000  -2.2880000  -3.8640000
