%VERSION  VERSION_STAMP = V0001.000  DATE = 05/20/26  23:44:36                  
%FLAG TITLE                                                                     
%FORMAT(20a4)                                                                   
methyl_p_nitrobenzoate                                                          
%FLAG POINTERS                                                                  
%FORMAT(10I8)                                                                   
      20       7       7      13      14      17      21      27       0       0
      89       1      13      17      27       9      12      11       8       0
       0       0       0       0       0       0       0       0      20       0
       0
%FLAG ATOM_NAME                                                                 
%FORMAT(20a4)                                                                   
C1  C2  C3  C4  C5  C6  C7  C8  N1  O1  O2  O3  O4  H1  H2  H3  H4  H5  H6  H7  
%FLAG CHARGE                                                                    
%FORMAT(5E16.8)                                                                 
 -1.53067320E+00 -1.53067320E+00 -1.56711780E+00 -1.56711780E+00 -1.68738498E+00
 -2.68232256E+00  1.16385830E+01  2.30876541E+00  5.63433516E+00 -9.60315210E+00
 -3.65357115E+00 -3.65357115E+00 -7.94310057E+00  3.13423560E+00  3.13423560E+00
  3.23445825E+00  3.23445825E+00  1.02105014E+00  1.02105014E+00  1.02105014E+00
%FLAG ATOMIC_NUMBER                                                             
%FORMAT(10I8)                                                                   
       6       6       6       6       6       6       6       6       7       8
       8       8       8       1       1       1       1       1       1       1
%FLAG MASS                                                                      
%FORMAT(5E16.8)                                                                 
  1.20100000E+01  1.20100000E+01  1.20100000E+01  1.20100000E+01  1.20100000E+01
  1.20100000E+01  1.20100000E+01  1.20100000E+01  1.40100000E+01  1.60000000E+01
  1.60000000E+01  1.60000000E+01  1.60000000E+01  1.00800000E+00  1.00800000E+00
  1.00800000E+00  1.00800000E+00  1.00800000E+00  1.00800000E+00  1.00800000E+00
%FLAG ATOM_TYPE_INDEX                                                           
%FORMAT(10I8)                                                                   
       1       1       1       1       1       1       1       2       3       4
       4       4       5       6       6       6       6       7       7       7
%FLAG NUMBER_EXCLUDED_ATOMS                                                     
%FORMAT(10I8)                                                                   
      12      11      10       9       9       7       8       5       4       1
       1       1       3       1       1       1       1       2       1       1
%FLAG NONBONDED_PARM_INDEX                                                      
%FORMAT(10I8)                                                                   
       1       2       4       7      11      16      22       2       3       5
       8      12      17      23       4       5       6       9      13      18
      24       7       8       9      10      14      19      25      11      12
      13      14      15      20      26      16      17      18      19      20
      21      27      22      23      24      25      26      27      28
%FLAG RESIDUE_LABEL                                                             
%FORMAT(20a4)                                                                   
MOL 
%FLAG RESIDUE_POINTER                                                           
%FORMAT(10I8)                                                                   
       1
%FLAG BOND_FORCE_CONSTANT                                                       
%FORMAT(5E16.8)                                                                 
  3.54250000E+02  3.60690000E+02  2.62840000E+02  2.50200000E+02  5.90600000E+02
  3.51310000E+02  2.82270000E+02  3.44220000E+02  3.61740000E+02
%FLAG BOND_EQUIL_VALUE                                                          
%FORMAT(5E16.8)                                                                 
  1.39860000E+00  1.08600000E+00  1.49070000E+00  1.46960000E+00  1.21900000E+00
  1.36210000E+00  1.42730000E+00  1.09690000E+00  1.23110000E+00
%FLAG ANGLE_FORCE_CONSTANT                                                      
%FORMAT(5E16.8)                                                                 
  6.36700000E+01  4.49000000E+01  6.14400000E+01  6.61200000E+01  7.79600000E+01
  7.85800000E+01  9.90800000E+01  8.94300000E+01  1.01260000E+02  1.31020000E+02
  5.62000000E+01  3.56400000E+01
%FLAG ANGLE_EQUIL_VALUE                                                         
%FORMAT(5E16.8)                                                                 
  2.09474507E+00  2.09230160E+00  2.10015559E+00  2.07694270E+00  2.13977458E+00
  1.96192545E+00  2.05530061E+00  2.02144121E+00  2.15024656E+00  2.18253516E+00
  1.92579712E+00  1.89455572E+00
%FLAG DIHEDRAL_FORCE_CONSTANT                                                   
%FORMAT(5E16.8)                                                                 
  3.62500000E+00  5.80000000E-01  1.00000000E+00  7.20000000E-01  1.60000000E+00
  3.67000000E+00  3.10000000E-01  3.83333333E-01  1.40000000E+00  2.70000000E+00
  1.10000000E+00
%FLAG DIHEDRAL_PERIODICITY                                                      
%FORMAT(5E16.8)                                                                 
  2.00000000E+00  2.00000000E+00  2.00000000E+00  2.00000000E+00  1.00000000E+00
  2.00000000E+00  3.00000000E+00  3.00000000E+00  1.00000000E+00  2.00000000E+00
  2.00000000E+00
%FLAG DIHEDRAL_PHASE                                                            
%FORMAT(5E16.8)                                                                 
  3.14159400E+00  3.14159400E+00  3.14159400E+00  3.14159400E+00  3.14159400E+00
  3.14159400E+00  0.00000000E+00  0.00000000E+00  3.14159400E+00  3.14159400E+00
  3.14159400E+00
%FLAG SCEE_SCALE_FACTOR                                                         
%FORMAT(5E16.8)                                                                 
  1.20000000E+00  1.20000000E+00  1.20000000E+00  1.20000000E+00  1.20000000E+00
  1.20000000E+00  1.20000000E+00  1.20000000E+00  1.20000000E+00  1.20000000E+00
  0.00000000E+00
%FLAG SCNB_SCALE_FACTOR                                                         
%FORMAT(5E16.8)                                                                 
  2.00000000E+00  2.00000000E+00  2.00000000E+00  2.00000000E+00  2.00000000E+00
  2.00000000E+00  2.00000000E+00  2.00000000E+00  2.00000000E+00  2.00000000E+00
  0.00000000E+00
%FLAG SOLTY                                                                     
%FORMAT(5E16.8)                                                                 
  0.00000000E+00  0.00000000E+00  0.00000000E+00  0.00000000E+00  0.00000000E+00
  0.00000000E+00  0.00000000E+00  0.00000000E+00
%FLAG LENNARD_JONES_ACOEF                                                       
%FORMAT(5E16.8)                                                                 
  6.96551276E+05  8.43969952E+05  1.02073671E+06  7.10207765E+05  8.59569453E+05
  7.23647490E+05  5.17507491E+05  6.30925504E+05  5.29641935E+05  3.76435470E+05
  4.46121722E+05  5.42502534E+05  4.55871651E+05  3.27367585E+05  2.83662575E+05
  7.52549148E+04  9.27554496E+04  7.75325560E+04  5.27277400E+04  4.65732396E+04
  6.90855956E+03  5.63013422E+04  6.97998263E+04  5.82112737E+04  3.86646725E+04
  3.44374471E+04  4.88692384E+03  3.39005767E+03
%FLAG LENNARD_JONES_BCOEF                                                       
%FORMAT(5E16.8)                                                                 
  5.24668528E+02  5.90251928E+02  6.63431737E+02  5.11427129E+02  5.75038595E+02
  4.98353106E+02  4.98871431E+02  5.62969425E+02  4.87196412E+02  4.69350655E+02
  3.88758656E+02  4.38146883E+02  3.79365004E+02  3.67361018E+02  2.87011518E+02
  1.09570372E+02  1.24325688E+02  1.07361937E+02  1.01173582E+02  7.98066064E+01
  2.10929191E+01  1.01040256E+02  1.14981426E+02  9.91793374E+01  9.23664132E+01
  7.31636661E+01  1.89134207E+01  1.67944276E+01
%FLAG BONDS_INC_HYDROGEN                                                        
%FORMAT(10I8)                                                                   
       0      39       2       3      42       2       6      45       2       9
      48       2      21      51       8      21      54       8      21      57
       8
%FLAG BONDS_WITHOUT_HYDROGEN                                                    
%FORMAT(10I8)                                                                   
       0       6       1       0      12       1       3       9       1       3
      12       1       6      15       1       9      15       1      12      18
       3      15      24       4      18      27       5      18      36       6
      21      36       7      24      30       9      24      33       9
%FLAG ANGLES_INC_HYDROGEN                                                       
%FORMAT(10I8)                                                                   
       0       6      45       2       3       9      48       2       6       0
      39       2       9       3      42       2      12       0      39       2
      12       3      42       2      15       6      45       2      15       9
      48       2      36      21      51      11      36      21      54      11
      36      21      57      11      51      21      54      12      51      21
      57      12      54      21      57      12
%FLAG ANGLES_WITHOUT_HYDROGEN                                                   
%FORMAT(10I8)                                                                   
       0       6      15       1       0      12       3       1       0      12
      18       3       3       9      15       1       3      12      18       3
       6       0      12       1       6      15       9       1       6      15
      24       4       9       3      12       1       9      15      24       4
      12      18      27       5      12      18      36       6      15      24
      30       7      15      24      33       7      18      36      21       8
      27      18      36       9      30      24      33      10
%FLAG DIHEDRALS_INC_HYDROGEN                                                    
%FORMAT(10I8)                                                                   
       0      12       3      42       1      39       0      12       3       1
       6      15       9      48       1       9      15       6      45       1
      12       0       6      45       1      12       3       9      48       1
      39       0       6      15       1      15       9       3      42       1
      39       0      12      18       1      18      12       3      42       1
      18      36      21      51       8      18      36      21      54       8
      18      36      21      57       8      24      15       6      45       1
      24      15       9      48       1      39       0       6      45       1
      42       3       9      48       1      39       0     -12      -6      11
       9      12      -3     -42      11       0      15      -6     -45      11
       3      15      -9     -48      11
%FLAG DIHEDRALS_WITHOUT_HYDROGEN                                                
%FORMAT(10I8)                                                                   
       0       6      15       9       1       0       6      15      24       1
       0      12      -3       9       1       0      12      18      27       2
       0      12      18      36       3       3       9      15       6       1
       3       9      15      24       1       6       0     -12       3       1
       3      12      18      27       2       3      12      18      36       3
       6       0      12      18       1       6      15      24      30       4
       6      15      24      33       4       9       3      12      18       1
       9      15      24      30       4       9      15      24      33       4
      12       0       6      15       1      12       3      -9      15       1
      12      18      36      21       5      12      18     -36      21       6
      12      18     -36      21       7      21      36      18      27       9
      21      36     -18      27      10      18       0     -12      -3      11
       6       9     -15     -24      11      12      27     -18     -36      11
      15      30     -24     -33      11
%FLAG EXCLUDED_ATOMS_LIST                                                       
%FORMAT(10I8)                                                                   
       2       3       4       5       6       7       9      10      13      14
      15      16       3       4       5       6       7       9      10      13
      14      15      17       4       5       6       7       9      11      12
      14      16      17       5       6       7       9      11      12      15
      16      17       6       7       8      10      13      14      15      16
      17       9      11      12      14      15      16      17       8      10
      13      14      15      18      19      20      10      13      18      19
      20      11      12      16      17      13      12       0      18      19
      20      16      17       0       0      19      20      20       0
%FLAG HBOND_ACOEF                                                               
%FORMAT(5E16.8)                                                                 

%FLAG HBOND_BCOEF                                                               
%FORMAT(5E16.8)                                                                 

%FLAG HBCUT                                                                     
%FORMAT(5E16.8)                                                                 

%FLAG AMBER_ATOM_TYPE                                                           
%FORMAT(20a4)                                                                   
ca  ca  ca  ca  ca  ca  c   c3  no  o   o   o   os  ha  ha  ha  ha  h1  h1  h1  
%FLAG TREE_CHAIN_CLASSIFICATION                                                 
%FORMAT(20a4)                                                                   
BLA BLA BLA BLA BLA BLA BLA BLA BLA BLA BLA BLA BLA BLA BLA BLA BLA BLA BLA BLA 
%FLAG JOIN_ARRAY                                                                
%FORMAT(10I8)                                                                   
       0       0       0       0       0       0       0       0       0       0
       0       0       0       0       0       0       0       0       0       0
%FLAG IROTAT                                                                    
%FORMAT(10I8)                                                                   
       0       0       0       0       0       0       0       0       0       0
       0       0       0       0       0       0       0       0       0       0
%FLAG RADIUS_SET                                                                
%FORMAT(1a80)                                                                   
modified Bondi radii (mbondi)                                                   
%FLAG RADII                                                                     
%FORMAT(5E16.8)                                                                 
  1.70000000E+00  1.70000000E+00  1.70000000E+00  1.70000000E+00  1.70000000E+00
  1.70000000E+00  1.70000000E+00  1.70000000E+00  1.55000000E+00  1.50000000E+00
  1.50000000E+00  1.50000000E+00  1.50000000E+00  1.30000000E+00  1.30000000E+00
  1.30000000E+00  1.30000000E+00  1.30000000E+00  1.30000000E+00  1.30000000E+00
%FLAG SCREEN                                                                    
%FORMAT(5E16.8)                                                                 
  7.20000000E-01  7.20000000E-01  7.20000000E-01  7.20000000E-01  7.20000000E-01
  7.20000000E-01  7.20000000E-01  7.20000000E-01  7.90000000E-01  8.50000000E-01
  8.50000000E-01  8.50000000E-01  8.50000000E-01  8.50000000E-01  8.50000000E-01
  8.50000000E-01  8.50000000E-01  8.50000000E-01  8.50000000E-01  8.50000000E-01
%FLAG IPOL                                                                      
%FORMAT(1I8)                                                                    
       0
