; mobley_1328936_GMX_OPLS.top created by acpype (v: 2023.10.27) on Wed May 20 23:44:32 2026

; Include forcefield parameters
#include "ffoplsaa.itp"

; Include mobley_1328936_GMX.itp topology
#include "mobley_1328936_GMX.itp"

; Ligand position restraints
#ifdef POSRES_LIG
#include "posre_mobley_1328936.itp"
#endif

[ system ]
 mobley_1328936

[ molecules ]
; Compound        nmols
 mobley_1328936   1     
