mobley_2881590_GMX.gro created by acpype (v: 2023.10.27) on Wed May 20 23:56:00 2026
 17
    1  MOL   C1    1   0.098  -0.035  -0.027
    1  MOL   C2    2   0.117   0.118  -0.225
    1  MOL   C3    3   0.199   0.196  -0.000
    1  MOL   C4    4   0.181   0.075  -0.093
    1  MOL   N1    5   0.290   0.260   0.208
    1  MOL   O1    6   0.351   0.224   0.309
    1  MOL   O2    7   0.246   0.371   0.178
    1  MOL   O3    8   0.270   0.155   0.116
    1  MOL   H1    9  -0.002   0.002  -0.001
    1  MOL   H2   10   0.146  -0.071   0.065
    1  MOL   H3   11   0.086  -0.120  -0.094
    1  MOL   H4   12   0.018   0.160  -0.209
    1  MOL   H5   13   0.107   0.033  -0.293
    1  MOL   H6   14   0.179   0.193  -0.275
    1  MOL   H7   15   0.257   0.273  -0.053
    1  MOL   H8   16   0.101   0.236   0.027
    1  MOL   H9   17   0.280   0.033  -0.114
    7.05600     9.82600    12.04200
