; mobley_2881590_GMX_OPLS.itp created by acpype (v: 2023.10.27) on Wed May 20 23:56:00 2026

; For OPLS atomtypes manual fine tuning
; AC_at:OPLS_at:OPLScode: Possible_Alternatives (see ffoplsaa.atp and ffoplsaanb.itp)
; c3:CT:opls_135: ['136', '137', '149', '157', '158', '206', '209', '210', '223B', '224B', '245', '246', '274', '283', '284', '285', '292', '292B', '293B', '296', '307', '308', '505']
; no:x:opls_x: []
; o:O:opls_236: ['272']
; os:x:opls_x: []
; hc:HC:opls_140: []
; h1:HC:opls_140: []

[ moleculetype ]
;name            nrexcl
 mobley_2881590   3

[ atoms ]
;   nr  type  resi  res  atom  cgnr     charge      mass       ; qtot   bond_type
     1 opls_135     1   MOL    C1    1    -0.095100     12.01100 ; qtot -0.095  CT  
     2 opls_135     1   MOL    C2    2    -0.095100     12.01100 ; qtot -0.190  CT  
     3 opls_135     1   MOL    C3    3     0.133400     12.01100 ; qtot -0.057  CT  
     4 opls_135     1   MOL    C4    4    -0.070700     12.01100 ; qtot -0.128  CT  
     5 opls_x     1   MOL    N1    5     0.378200      0.00000 ; qtot  0.251  x   
     6 opls_236     1   MOL    O1    6    -0.185000     15.99940 ; qtot  0.066  O   
     7 opls_236     1   MOL    O2    7    -0.185000     15.99940 ; qtot -0.119  O   
     8 opls_x     1   MOL    O3    8    -0.350000      0.00000 ; qtot -0.469  x   
     9 opls_140     1   MOL    H1    9     0.043200      1.00800 ; qtot -0.426  HC  
    10 opls_140     1   MOL    H2   10     0.043200      1.00800 ; qtot -0.383  HC  
    11 opls_140     1   MOL    H3   11     0.043200      1.00800 ; qtot -0.340  HC  
    12 opls_140     1   MOL    H4   12     0.043200      1.00800 ; qtot -0.297  HC  
    13 opls_140     1   MOL    H5   13     0.043200      1.00800 ; qtot -0.253  HC  
    14 opls_140     1   MOL    H6   14     0.043200      1.00800 ; qtot -0.210  HC  
    15 opls_140     1   MOL    H7   15     0.068200      1.00800 ; qtot -0.142  HC  
    16 opls_140     1   MOL    H8   16     0.068200      1.00800 ; qtot -0.074  HC  
    17 opls_140     1   MOL    H9   17     0.073700      1.00800 ; qtot -0.000  HC  

[ bonds ]
;   ai     aj funct   r             k
     1      4   1 ;    1.5354e-01    1.9154e+05 ;     C1 - C4         CT - CT    
     1      9   1 ;    1.0962e-01    2.8891e+05 ;     C1 - H1         CT - HC    
     1     10   1 ;    1.0962e-01    2.8891e+05 ;     C1 - H2         CT - HC    
     1     11   1 ;    1.0962e-01    2.8891e+05 ;     C1 - H3         CT - HC    
     2      4   1 ;    1.5354e-01    1.9154e+05 ;     C2 - C4         CT - CT    
     2     12   1 ;    1.0962e-01    2.8891e+05 ;     C2 - H4         CT - HC    
     2     13   1 ;    1.0962e-01    2.8891e+05 ;     C2 - H5         CT - HC    
     2     14   1 ;    1.0962e-01    2.8891e+05 ;     C2 - H6         CT - HC    
     3      4   1 ;    1.5354e-01    1.9154e+05 ;     C3 - C4         CT - CT    
     3      8   1 ;    1.4273e-01    2.3620e+05 ;     C3 - O3         CT - x     
     3     15   1 ;    1.0969e-01    2.8804e+05 ;     C3 - H7         CT - HC    
     3     16   1 ;    1.0969e-01    2.8804e+05 ;     C3 - H8         CT - HC    
     4     17   1 ;    1.0962e-01    2.8891e+05 ;     C4 - H9         CT - HC    
     5      6   1 ;    1.2311e-01    3.0270e+05 ;     N1 - O1          x - O     
     5      7   1 ;    1.2311e-01    3.0270e+05 ;     N1 - O2          x - O     
     5      8   1 ;    1.4202e-01    1.5509e+05 ;     N1 - O3          x - x     

[ pairs ]
;   ai     aj    funct
     1      8      1 ;     C1 - O3    
     1     12      1 ;     C1 - H4    
     1     13      1 ;     C1 - H5    
     1     14      1 ;     C1 - H6    
     1     15      1 ;     C1 - H7    
     1     16      1 ;     C1 - H8    
     2      8      1 ;     C2 - O3    
     2     15      1 ;     C2 - H7    
     2     16      1 ;     C2 - H8    
     3      6      1 ;     C3 - O1    
     3      7      1 ;     C3 - O2    
     3     12      1 ;     C3 - H4    
     3     13      1 ;     C3 - H5    
     3     14      1 ;     C3 - H6    
     4      5      1 ;     C4 - N1    
     5     15      1 ;     N1 - H7    
     5     16      1 ;     N1 - H8    
     8     17      1 ;     O3 - H9    
     9      2      1 ;     H1 - C2    
     9      3      1 ;     H1 - C3    
     9     17      1 ;     H1 - H9    
    10      2      1 ;     H2 - C2    
    10      3      1 ;     H2 - C3    
    10     17      1 ;     H2 - H9    
    11      2      1 ;     H3 - C2    
    11      3      1 ;     H3 - C3    
    11     17      1 ;     H3 - H9    
    12     17      1 ;     H4 - H9    
    13     17      1 ;     H5 - H9    
    14     17      1 ;     H6 - H9    
    15     17      1 ;     H7 - H9    
    16     17      1 ;     H8 - H9    

[ angles ]
;   ai     aj     ak    funct   theta         cth
     1      4      2      1 ;    1.1263e+02    5.0099e+02 ;     C1 - C4   - C2       CT -   CT - CT  
     1      4      3      1 ;    1.1263e+02    5.0099e+02 ;     C1 - C4   - C3       CT -   CT - CT  
     1      4     17      1 ;    1.0968e+02    3.6208e+02 ;     C1 - C4   - H9       CT -   CT - HC  
     2      4      3      1 ;    1.1263e+02    5.0099e+02 ;     C2 - C4   - C3       CT -   CT - CT  
     2      4     17      1 ;    1.0968e+02    3.6208e+02 ;     C2 - C4   - H9       CT -   CT - HC  
     3      4     17      1 ;    1.0968e+02    3.6208e+02 ;     C3 - C4   - H9       CT -   CT - HC  
     3      8      5      1 ;    1.1387e+02    7.8567e+02 ;     C3 - O3   - N1       CT -    x - x   
     4      1      9      1 ;    1.0968e+02    3.6208e+02 ;     C4 - C1   - H1       CT -   CT - HC  
     4      1     10      1 ;    1.0968e+02    3.6208e+02 ;     C4 - C1   - H2       CT -   CT - HC  
     4      1     11      1 ;    1.0968e+02    3.6208e+02 ;     C4 - C1   - H3       CT -   CT - HC  
     4      2     12      1 ;    1.0968e+02    3.6208e+02 ;     C4 - C2   - H4       CT -   CT - HC  
     4      2     13      1 ;    1.0968e+02    3.6208e+02 ;     C4 - C2   - H5       CT -   CT - HC  
     4      2     14      1 ;    1.0968e+02    3.6208e+02 ;     C4 - C2   - H6       CT -   CT - HC  
     4      3      8      1 ;    1.0762e+02    6.4802e+02 ;     C4 - C3   - O3       CT -   CT - x   
     4      3     15      1 ;    1.0959e+02    3.6217e+02 ;     C4 - C3   - H7       CT -   CT - HC  
     4      3     16      1 ;    1.0959e+02    3.6217e+02 ;     C4 - C3   - H8       CT -   CT - HC  
     6      5      7      1 ;    1.2505e+02    1.0964e+03 ;     O1 - N1   - O2        O -    x - O   
     6      5      8      1 ;    1.1480e+02    1.0519e+03 ;     O1 - N1   - O3        O -    x - x   
     7      5      8      1 ;    1.1480e+02    1.0519e+03 ;     O2 - N1   - O3        O -    x - x   
     8      3     15      1 ;    1.1034e+02    4.7028e+02 ;     O3 - C3   - H7        x -   CT - HC  
     8      3     16      1 ;    1.1034e+02    4.7028e+02 ;     O3 - C3   - H8        x -   CT - HC  
     9      1     10      1 ;    1.0773e+02    2.9957e+02 ;     H1 - C1   - H2       HC -   CT - HC  
     9      1     11      1 ;    1.0773e+02    2.9957e+02 ;     H1 - C1   - H3       HC -   CT - HC  
    10      1     11      1 ;    1.0773e+02    2.9957e+02 ;     H2 - C1   - H3       HC -   CT - HC  
    12      2     13      1 ;    1.0773e+02    2.9957e+02 ;     H4 - C2   - H5       HC -   CT - HC  
    12      2     14      1 ;    1.0773e+02    2.9957e+02 ;     H4 - C2   - H6       HC -   CT - HC  
    13      2     14      1 ;    1.0773e+02    2.9957e+02 ;     H5 - C2   - H6       HC -   CT - HC  
    15      3     16      1 ;    1.0855e+02    2.9824e+02 ;     H7 - C3   - H8       HC -   CT - HC  

[ dihedrals ] ; propers
; for gromacs 4.5 or higher, using funct 9
;    i      j      k      l   func   phase     kd      pn
     1      4      2     12      9 ;     0.00   0.54392   3 ;     C1-    C4-    C2-    H4
     1      4      2     13      9 ;     0.00   0.54392   3 ;     C1-    C4-    C2-    H5
     1      4      2     14      9 ;     0.00   0.54392   3 ;     C1-    C4-    C2-    H6
     1      4      3      8      9 ;     0.00   0.65084   3 ;     C1-    C4-    C3-    O3
     1      4      3     15      9 ;     0.00   0.65084   3 ;     C1-    C4-    C3-    H7
     1      4      3     16      9 ;     0.00   0.65084   3 ;     C1-    C4-    C3-    H8
     2      4      3      8      9 ;     0.00   0.65084   3 ;     C2-    C4-    C3-    O3
     2      4      3     15      9 ;     0.00   0.65084   3 ;     C2-    C4-    C3-    H7
     2      4      3     16      9 ;     0.00   0.65084   3 ;     C2-    C4-    C3-    H8
     3      4      2     12      9 ;     0.00   0.54392   3 ;     C3-    C4-    C2-    H4
     3      4      2     13      9 ;     0.00   0.54392   3 ;     C3-    C4-    C2-    H5
     3      4      2     14      9 ;     0.00   0.54392   3 ;     C3-    C4-    C2-    H6
     3      8      5      6      9 ;   180.00  10.60644   2 ;     C3-    O3-    N1-    O1
     3      8      5      7      9 ;   180.00  10.60644   2 ;     C3-    O3-    N1-    O2
     4      3      8      5      9 ;     0.00   1.60387   3 ;     C4-    C3-    O3-    N1
     5      8      3     15      9 ;     0.00   1.60387   3 ;     N1-    O3-    C3-    H7
     5      8      3     16      9 ;     0.00   1.60387   3 ;     N1-    O3-    C3-    H8
     8      3      4     17      9 ;     0.00   0.00000   0 ;     O3-    C3-    C4-    H9
     8      3      4     17      9 ;     0.00   1.04600   1 ;     O3-    C3-    C4-    H9
     9      1      4      2      9 ;     0.00   0.54392   3 ;     H1-    C1-    C4-    C2
     9      1      4      3      9 ;     0.00   0.54392   3 ;     H1-    C1-    C4-    C3
     9      1      4     17      9 ;     0.00   0.50208   3 ;     H1-    C1-    C4-    H9
    10      1      4      2      9 ;     0.00   0.54392   3 ;     H2-    C1-    C4-    C2
    10      1      4      3      9 ;     0.00   0.54392   3 ;     H2-    C1-    C4-    C3
    10      1      4     17      9 ;     0.00   0.50208   3 ;     H2-    C1-    C4-    H9
    11      1      4      2      9 ;     0.00   0.54392   3 ;     H3-    C1-    C4-    C2
    11      1      4      3      9 ;     0.00   0.54392   3 ;     H3-    C1-    C4-    C3
    11      1      4     17      9 ;     0.00   0.50208   3 ;     H3-    C1-    C4-    H9
    12      2      4     17      9 ;     0.00   0.50208   3 ;     H4-    C2-    C4-    H9
    13      2      4     17      9 ;     0.00   0.50208   3 ;     H5-    C2-    C4-    H9
    14      2      4     17      9 ;     0.00   0.50208   3 ;     H6-    C2-    C4-    H9
    15      3      4     17      9 ;     0.00   0.65084   3 ;     H7-    C3-    C4-    H9
    16      3      4     17      9 ;     0.00   0.65084   3 ;     H8-    C3-    C4-    H9

[ dihedrals ] ; impropers
; treated as propers in GROMACS to use correct AMBER analytical function
;    i      j      k      l   func   phase     kd      pn
     6      7      5      8      4 ;   180.00   4.60240   2 ;     O1-    O2-    N1-    O3
