CUP08005_AM1BCC_v1_0
    17
   0.9770000  -0.3460000  -0.2660000   1.1730000   1.1790000  -2.2500000
   1.9920000   1.9610000  -0.0020000   1.8130000   0.7500000  -0.9310000
   2.9000000   2.6010000   2.0840000   3.5070000   2.2440000   3.0920000
   2.4600000   3.7100000   1.7780000   2.7020000   1.5460000   1.1620000
  -0.0210000   0.0210000  -0.0050000   1.4560000  -0.7080000   0.6500000
   0.8570000  -1.2030000  -0.9370000   0.1760000   1.6030000  -2.0890000
   1.0720000   0.3250000  -2.9290000   1.7860000   1.9340000  -2.7530000
   2.5670000   2.7330000  -0.5280000   1.0070000   2.3600000   0.2740000
   2.8030000   0.3250000  -1.1430000
