; mobley_8723116_GMX_OPLS.top created by acpype (v: 2023.10.27) on Wed May 20 23:43:51 2026

; Include forcefield parameters
#include "ffoplsaa.itp"

; Include mobley_8723116_GMX.itp topology
#include "mobley_8723116_GMX.itp"

; Ligand position restraints
#ifdef POSRES_LIG
#include "posre_mobley_8723116.itp"
#endif

[ system ]
 mobley_8723116

[ molecules ]
; Compound        nmols
 mobley_8723116   1     
