mobley_2725215_GMX.gro created by acpype (v: 2023.10.27) on Thu May 21 00:03:07 2026
 42
    1  MOL   C1    1   0.409  -0.197  -0.409
    1  MOL   C2    2   0.465  -0.166  -0.176
    1  MOL   C3    3   0.320  -0.089  -0.399
    1  MOL   C4    4   0.375  -0.057  -0.171
    1  MOL   C5    5   0.297  -0.016  -0.280
    1  MOL   C6    6   0.480  -0.236  -0.296
    1  MOL   C7    7  -0.119  -0.057  -0.127
    1  MOL   C8    8   0.245   0.448  -0.400
    1  MOL   C9    9   0.498  -0.513  -0.270
    1  MOL  C10   10   0.004  -0.051  -0.216
    1  MOL  C11   11   0.182   0.310  -0.385
    1  MOL  C12   12   0.086   0.075  -0.188
    1  MOL  C13   13   0.261   0.223  -0.288
    1  MOL   N1   14   0.202   0.088  -0.280
    1  MOL   N2   15   0.247  -0.054  -0.520
    1  MOL   N3   16   0.368   0.011  -0.043
    1  MOL   O1   17   0.147  -0.123  -0.546
    1  MOL   O2   18   0.294   0.036  -0.590
    1  MOL   O3   19   0.313  -0.050   0.049
    1  MOL   O4   20   0.422   0.122  -0.035
    1  MOL   O5   21   0.639  -0.377  -0.445
    1  MOL   O6   22   0.691  -0.351  -0.199
    1  MOL   S1   23   0.596  -0.370  -0.307
    1  MOL   H1   24   0.422  -0.249  -0.504
    1  MOL   H2   25   0.524  -0.193  -0.089
    1  MOL   H3   26  -0.092  -0.059  -0.021
    1  MOL   H4   27  -0.185   0.029  -0.144
    1  MOL   H5   28  -0.177  -0.148  -0.149
    1  MOL   H6   29   0.248   0.500  -0.304
    1  MOL   H7   30   0.347   0.441  -0.439
    1  MOL   H8   31   0.187   0.509  -0.470
    1  MOL   H9   32   0.563  -0.601  -0.275
    1  MOL  H10   33   0.456  -0.503  -0.170
    1  MOL  H11   34   0.419  -0.522  -0.345
    1  MOL  H12   35  -0.027  -0.052  -0.321
    1  MOL  H13   36   0.064  -0.141  -0.199
    1  MOL  H14   37   0.177   0.262  -0.484
    1  MOL  H15   38   0.079   0.322  -0.351
    1  MOL  H16   39   0.021   0.162  -0.202
    1  MOL  H17   40   0.118   0.078  -0.083
    1  MOL  H18   41   0.365   0.218  -0.322
    1  MOL  H19   42   0.263   0.270  -0.189
   17.52200    22.19200    12.78600
