; mobley_2725215_GMX.top created by acpype (v: 2023.10.27) on Thu May 21 00:03:07 2026

[ defaults ]
; nbfunc        comb-rule       gen-pairs       fudgeLJ fudgeQQ
1               2               yes             0.5     0.8333333333

; Include mobley_2725215_GMX.itp topology
#include "mobley_2725215_GMX.itp"

; Ligand position restraints
#ifdef POSRES_LIG
#include "posre_mobley_2725215.itp"
#endif

[ system ]
mobley_2725215 in water

[ molecules ]
; Compound        nmols
 mobley_2725215   1     
SOL              4553
