; mobley_2725215_GMX_OPLS.top created by acpype (v: 2023.10.27) on Thu May 21 00:03:07 2026

; Include forcefield parameters
#include "ffoplsaa.itp"

; Include mobley_2725215_GMX.itp topology
#include "mobley_2725215_GMX.itp"

; Ligand position restraints
#ifdef POSRES_LIG
#include "posre_mobley_2725215.itp"
#endif

[ system ]
 mobley_2725215

[ molecules ]
; Compound        nmols
 mobley_2725215   1     
