; mobley_2725215_GMX_OPLS.itp created by acpype (v: 2023.10.27) on Thu May 21 00:03:07 2026

; For OPLS atomtypes manual fine tuning
; AC_at:OPLS_at:OPLScode: Possible_Alternatives (see ffoplsaa.atp and ffoplsaanb.itp)
; ca:CA:opls_145: ['166', '501', '502']
; c3:CT:opls_135: ['136', '137', '149', '157', '158', '206', '209', '210', '223B', '224B', '245', '246', '274', '283', '284', '285', '292', '292B', '293B', '296', '307', '308', '505']
; nh:N2:opls_300: ['303']
; no:x:opls_x: []
; o:O:opls_236: ['272']
; sy:x:opls_x: []
; ha:HA:opls_146: []
; hc:HC:opls_140: []
; h1:HC:opls_140: []

[ moleculetype ]
;name            nrexcl
 mobley_2725215   3

[ atoms ]
;   nr  type  resi  res  atom  cgnr     charge      mass       ; qtot   bond_type
     1 opls_145     1   MOL    C1    1     0.061500     12.01100 ; qtot  0.061  CA  
     2 opls_145     1   MOL    C2    2     0.061500     12.01100 ; qtot  0.123  CA  
     3 opls_145     1   MOL    C3    3    -0.221700     12.01100 ; qtot -0.099  CA  
     4 opls_145     1   MOL    C4    4    -0.221700     12.01100 ; qtot -0.320  CA  
     5 opls_145     1   MOL    C5    5     0.312600     12.01100 ; qtot -0.008  CA  
     6 opls_145     1   MOL    C6    6    -0.389500     12.01100 ; qtot -0.397  CA  
     7 opls_135     1   MOL    C7    7    -0.094100     12.01100 ; qtot -0.491  CT  
     8 opls_135     1   MOL    C8    8    -0.094100     12.01100 ; qtot -0.586  CT  
     9 opls_135     1   MOL    C9    9    -0.373300     12.01100 ; qtot -0.959  CT  
    10 opls_135     1   MOL   C10   10    -0.088900     12.01100 ; qtot -1.048  CT  
    11 opls_135     1   MOL   C11   11    -0.088900     12.01100 ; qtot -1.137  CT  
    12 opls_135     1   MOL   C12   12     0.186800     12.01100 ; qtot -0.950  CT  
    13 opls_135     1   MOL   C13   13     0.186800     12.01100 ; qtot -0.763  CT  
    14 opls_300     1   MOL    N1   14    -0.682000     14.00670 ; qtot -1.445  N2  
    15 opls_x     1   MOL    N2   15     0.322700      0.00000 ; qtot -1.122  x   
    16 opls_x     1   MOL    N3   16     0.322700      0.00000 ; qtot -0.800  x   
    17 opls_236     1   MOL    O1   17    -0.189500     15.99940 ; qtot -0.989  O   
    18 opls_236     1   MOL    O2   18    -0.189500     15.99940 ; qtot -1.179  O   
    19 opls_236     1   MOL    O3   19    -0.189500     15.99940 ; qtot -1.368  O   
    20 opls_236     1   MOL    O4   20    -0.189500     15.99940 ; qtot -1.558  O   
    21 opls_236     1   MOL    O5   21    -0.644300     15.99940 ; qtot -2.202  O   
    22 opls_236     1   MOL    O6   22    -0.644300     15.99940 ; qtot -2.846  O   
    23 opls_x     1   MOL    S1   23     1.400301      0.00000 ; qtot -1.446  x   
    24 opls_146     1   MOL    H1   24     0.193000      1.00800 ; qtot -1.253  HA  
    25 opls_146     1   MOL    H2   25     0.193000      1.00800 ; qtot -1.060  HA  
    26 opls_140     1   MOL    H3   26     0.040533      1.00800 ; qtot -1.019  HC  
    27 opls_140     1   MOL    H4   27     0.040533      1.00800 ; qtot -0.979  HC  
    28 opls_140     1   MOL    H5   28     0.040533      1.00800 ; qtot -0.938  HC  
    29 opls_140     1   MOL    H6   29     0.040533      1.00800 ; qtot -0.898  HC  
    30 opls_140     1   MOL    H7   30     0.040533      1.00800 ; qtot -0.857  HC  
    31 opls_140     1   MOL    H8   31     0.040533      1.00800 ; qtot -0.817  HC  
    32 opls_140     1   MOL    H9   32     0.123367      1.00800 ; qtot -0.693  HC  
    33 opls_140     1   MOL   H10   33     0.123367      1.00800 ; qtot -0.570  HC  
    34 opls_140     1   MOL   H11   34     0.123367      1.00800 ; qtot -0.447  HC  
    35 opls_140     1   MOL   H12   35     0.050450      1.00800 ; qtot -0.396  HC  
    36 opls_140     1   MOL   H13   36     0.050450      1.00800 ; qtot -0.346  HC  
    37 opls_140     1   MOL   H14   37     0.050450      1.00800 ; qtot -0.295  HC  
    38 opls_140     1   MOL   H15   38     0.050450      1.00800 ; qtot -0.245  HC  
    39 opls_140     1   MOL   H16   39     0.061200      1.00800 ; qtot -0.184  HC  
    40 opls_140     1   MOL   H17   40     0.061200      1.00800 ; qtot -0.122  HC  
    41 opls_140     1   MOL   H18   41     0.061200      1.00800 ; qtot -0.061  HC  
    42 opls_140     1   MOL   H19   42     0.061200      1.00800 ; qtot -0.000  HC  

[ bonds ]
;   ai     aj funct   r             k
     1      3   1 ;    1.3986e-01    2.9644e+05 ;     C1 - C3         CA - CA    
     1      6   1 ;    1.3986e-01    2.9644e+05 ;     C1 - C6         CA - CA    
     1     24   1 ;    1.0860e-01    3.0183e+05 ;     C1 - H1         CA - HA    
     2      4   1 ;    1.3986e-01    2.9644e+05 ;     C2 - C4         CA - CA    
     2      6   1 ;    1.3986e-01    2.9644e+05 ;     C2 - C6         CA - CA    
     2     25   1 ;    1.0860e-01    3.0183e+05 ;     C2 - H2         CA - HA    
     3      5   1 ;    1.3986e-01    2.9644e+05 ;     C3 - C5         CA - CA    
     3     15   1 ;    1.4696e-01    2.0937e+05 ;     C3 - N2         CA - x     
     4      5   1 ;    1.3986e-01    2.9644e+05 ;     C4 - C5         CA - CA    
     4     16   1 ;    1.4696e-01    2.0937e+05 ;     C4 - N3         CA - x     
     5     14   1 ;    1.4030e-01    2.6011e+05 ;     C5 - N1         CA - N2    
     6     23   1 ;    1.7913e-01    1.7558e+05 ;     C6 - S1         CA - x     
     7     10   1 ;    1.5354e-01    1.9154e+05 ;     C7 - C10        CT - CT    
     7     26   1 ;    1.0962e-01    2.8891e+05 ;     C7 - H3         CT - HC    
     7     27   1 ;    1.0962e-01    2.8891e+05 ;     C7 - H4         CT - HC    
     7     28   1 ;    1.0962e-01    2.8891e+05 ;     C7 - H5         CT - HC    
     8     11   1 ;    1.5354e-01    1.9154e+05 ;     C8 - C11        CT - CT    
     8     29   1 ;    1.0962e-01    2.8891e+05 ;     C8 - H6         CT - HC    
     8     30   1 ;    1.0962e-01    2.8891e+05 ;     C8 - H7         CT - HC    
     8     31   1 ;    1.0962e-01    2.8891e+05 ;     C8 - H8         CT - HC    
     9     23   1 ;    1.8134e-01    1.6579e+05 ;     C9 - S1         CT - x     
     9     32   1 ;    1.0969e-01    2.8804e+05 ;     C9 - H9         CT - HC    
     9     33   1 ;    1.0969e-01    2.8804e+05 ;     C9 - H10        CT - HC    
     9     34   1 ;    1.0969e-01    2.8804e+05 ;     C9 - H11        CT - HC    
    10     12   1 ;    1.5354e-01    1.9154e+05 ;    C10 - C12        CT - CT    
    10     35   1 ;    1.0962e-01    2.8891e+05 ;    C10 - H12        CT - HC    
    10     36   1 ;    1.0962e-01    2.8891e+05 ;    C10 - H13        CT - HC    
    11     13   1 ;    1.5354e-01    1.9154e+05 ;    C11 - C13        CT - CT    
    11     37   1 ;    1.0962e-01    2.8891e+05 ;    C11 - H14        CT - HC    
    11     38   1 ;    1.0962e-01    2.8891e+05 ;    C11 - H15        CT - HC    
    12     14   1 ;    1.4613e-01    2.1499e+05 ;    C12 - N1         CT - N2    
    12     39   1 ;    1.0969e-01    2.8804e+05 ;    C12 - H16        CT - HC    
    12     40   1 ;    1.0969e-01    2.8804e+05 ;    C12 - H17        CT - HC    
    13     14   1 ;    1.4613e-01    2.1499e+05 ;    C13 - N1         CT - N2    
    13     41   1 ;    1.0969e-01    2.8804e+05 ;    C13 - H18        CT - HC    
    13     42   1 ;    1.0969e-01    2.8804e+05 ;    C13 - H19        CT - HC    
    15     17   1 ;    1.2311e-01    3.0270e+05 ;     N2 - O1          x - O     
    15     18   1 ;    1.2311e-01    3.0270e+05 ;     N2 - O2          x - O     
    16     19   1 ;    1.2311e-01    3.0270e+05 ;     N3 - O3          x - O     
    16     20   1 ;    1.2311e-01    3.0270e+05 ;     N3 - O4          x - O     
    21     23   1 ;    1.4656e-01    5.1436e+05 ;     O5 - S1          O - x     
    22     23   1 ;    1.4656e-01    5.1436e+05 ;     O6 - S1          O - x     

[ pairs ]
;   ai     aj    funct
     1      4      1 ;     C1 - C4    
     1      9      1 ;     C1 - C9    
     1     14      1 ;     C1 - N1    
     1     17      1 ;     C1 - O1    
     1     18      1 ;     C1 - O2    
     1     21      1 ;     C1 - O5    
     1     22      1 ;     C1 - O6    
     1     25      1 ;     C1 - H2    
     2      3      1 ;     C2 - C3    
     2      9      1 ;     C2 - C9    
     2     14      1 ;     C2 - N1    
     2     19      1 ;     C2 - O3    
     2     20      1 ;     C2 - O4    
     2     21      1 ;     C2 - O5    
     2     22      1 ;     C2 - O6    
     3     12      1 ;     C3 - C12   
     3     13      1 ;     C3 - C13   
     3     16      1 ;     C3 - N3    
     3     23      1 ;     C3 - S1    
     4     12      1 ;     C4 - C12   
     4     13      1 ;     C4 - C13   
     4     15      1 ;     C4 - N2    
     4     23      1 ;     C4 - S1    
     5     10      1 ;     C5 - C10   
     5     11      1 ;     C5 - C11   
     5     17      1 ;     C5 - O1    
     5     18      1 ;     C5 - O2    
     5     19      1 ;     C5 - O3    
     5     20      1 ;     C5 - O4    
     5     25      1 ;     C5 - H2    
     5     39      1 ;     C5 - H16   
     5     40      1 ;     C5 - H17   
     5     41      1 ;     C5 - H18   
     5     42      1 ;     C5 - H19   
     6      5      1 ;     C6 - C5    
     6     15      1 ;     C6 - N2    
     6     16      1 ;     C6 - N3    
     6     32      1 ;     C6 - H9    
     6     33      1 ;     C6 - H10   
     6     34      1 ;     C6 - H11   
     7     14      1 ;     C7 - N1    
     7     39      1 ;     C7 - H16   
     7     40      1 ;     C7 - H17   
     8     14      1 ;     C8 - N1    
     8     41      1 ;     C8 - H18   
     8     42      1 ;     C8 - H19   
    10     13      1 ;    C10 - C13   
    11     12      1 ;    C11 - C12   
    12     26      1 ;    C12 - H3    
    12     27      1 ;    C12 - H4    
    12     28      1 ;    C12 - H5    
    12     41      1 ;    C12 - H18   
    12     42      1 ;    C12 - H19   
    13     29      1 ;    C13 - H6    
    13     30      1 ;    C13 - H7    
    13     31      1 ;    C13 - H8    
    13     39      1 ;    C13 - H16   
    13     40      1 ;    C13 - H17   
    14     15      1 ;     N1 - N2    
    14     16      1 ;     N1 - N3    
    14     35      1 ;     N1 - H12   
    14     36      1 ;     N1 - H13   
    14     37      1 ;     N1 - H14   
    14     38      1 ;     N1 - H15   
    16     25      1 ;     N3 - H2    
    21     32      1 ;     O5 - H9    
    21     33      1 ;     O5 - H10   
    21     34      1 ;     O5 - H11   
    22     32      1 ;     O6 - H9    
    22     33      1 ;     O6 - H10   
    22     34      1 ;     O6 - H11   
    23     25      1 ;     S1 - H2    
    24      2      1 ;     H1 - C2    
    24      5      1 ;     H1 - C5    
    24     15      1 ;     H1 - N2    
    24     23      1 ;     H1 - S1    
    26     35      1 ;     H3 - H12   
    26     36      1 ;     H3 - H13   
    27     35      1 ;     H4 - H12   
    27     36      1 ;     H4 - H13   
    28     35      1 ;     H5 - H12   
    28     36      1 ;     H5 - H13   
    29     37      1 ;     H6 - H14   
    29     38      1 ;     H6 - H15   
    30     37      1 ;     H7 - H14   
    30     38      1 ;     H7 - H15   
    31     37      1 ;     H8 - H14   
    31     38      1 ;     H8 - H15   
    35     39      1 ;    H12 - H16   
    35     40      1 ;    H12 - H17   
    36     39      1 ;    H13 - H16   
    36     40      1 ;    H13 - H17   
    37     41      1 ;    H14 - H18   
    37     42      1 ;    H14 - H19   
    38     41      1 ;    H15 - H18   
    38     42      1 ;    H15 - H19   

[ angles ]
;   ai     aj     ak    funct   theta         cth
     1      3      5      1 ;    1.2002e+02    5.3279e+02 ;     C1 - C3   - C5       CA -   CA - CA  
     1      3     15      1 ;    1.1900e+02    5.5329e+02 ;     C1 - C3   - N2       CA -   CA - x   
     1      6      2      1 ;    1.2002e+02    5.3279e+02 ;     C1 - C6   - C2       CA -   CA - CA  
     1      6     23      1 ;    1.1941e+02    5.2785e+02 ;     C1 - C6   - S1       CA -   CA - x   
     2      4      5      1 ;    1.2002e+02    5.3279e+02 ;     C2 - C4   - C5       CA -   CA - CA  
     2      4     16      1 ;    1.1900e+02    5.5329e+02 ;     C2 - C4   - N3       CA -   CA - x   
     2      6     23      1 ;    1.1941e+02    5.2785e+02 ;     C2 - C6   - S1       CA -   CA - x   
     3      1      6      1 ;    1.2002e+02    5.3279e+02 ;     C3 - C1   - C6       CA -   CA - CA  
     3      1     24      1 ;    1.1988e+02    3.7572e+02 ;     C3 - C1   - H1       CA -   CA - HA  
     3      5      4      1 ;    1.2002e+02    5.3279e+02 ;     C3 - C5   - C4       CA -   CA - CA  
     3      5     14      1 ;    1.2113e+02    5.6216e+02 ;     C3 - C5   - N1       CA -   CA - N2  
     3     15     17      1 ;    1.1776e+02    8.2910e+02 ;     C3 - N2   - O1       CA -    x - O   
     3     15     18      1 ;    1.1776e+02    8.2910e+02 ;     C3 - N2   - O2       CA -    x - O   
     4      2      6      1 ;    1.2002e+02    5.3279e+02 ;     C4 - C2   - C6       CA -   CA - CA  
     4      2     25      1 ;    1.1988e+02    3.7572e+02 ;     C4 - C2   - H2       CA -   CA - HA  
     4      5     14      1 ;    1.2113e+02    5.6216e+02 ;     C4 - C5   - N1       CA -   CA - N2  
     4     16     19      1 ;    1.1776e+02    8.2910e+02 ;     C4 - N3   - O3       CA -    x - O   
     4     16     20      1 ;    1.1776e+02    8.2910e+02 ;     C4 - N3   - O4       CA -    x - O   
     5      3     15      1 ;    1.1900e+02    5.5329e+02 ;     C5 - C3   - N2       CA -   CA - x   
     5      4     16      1 ;    1.1900e+02    5.5329e+02 ;     C5 - C4   - N3       CA -   CA - x   
     5     14     12      1 ;    1.1953e+02    6.4383e+02 ;     C5 - N1   - C12      CA -   N2 - CT  
     5     14     13      1 ;    1.1953e+02    6.4383e+02 ;     C5 - N1   - C13      CA -   N2 - CT  
     6      1     24      1 ;    1.1988e+02    3.7572e+02 ;     C6 - C1   - H1       CA -   CA - HA  
     6      2     25      1 ;    1.1988e+02    3.7572e+02 ;     C6 - C2   - H2       CA -   CA - HA  
     6     23      9      1 ;    1.0392e+02    7.7546e+02 ;     C6 - S1   - C9       CA -    x - CT  
     6     23     21      1 ;    1.0834e+02    1.0078e+03 ;     C6 - S1   - O5       CA -    x - O   
     6     23     22      1 ;    1.0834e+02    1.0078e+03 ;     C6 - S1   - O6       CA -    x - O   
     7     10     12      1 ;    1.1263e+02    5.0099e+02 ;     C7 - C10  - C12      CT -   CT - CT  
     7     10     35      1 ;    1.0968e+02    3.6208e+02 ;     C7 - C10  - H12      CT -   CT - HC  
     7     10     36      1 ;    1.0968e+02    3.6208e+02 ;     C7 - C10  - H13      CT -   CT - HC  
     8     11     13      1 ;    1.1263e+02    5.0099e+02 ;     C8 - C11  - C13      CT -   CT - CT  
     8     11     37      1 ;    1.0968e+02    3.6208e+02 ;     C8 - C11  - H14      CT -   CT - HC  
     8     11     38      1 ;    1.0968e+02    3.6208e+02 ;     C8 - C11  - H15      CT -   CT - HC  
     9     23     21      1 ;    1.0760e+02    1.0019e+03 ;     C9 - S1   - O5       CT -    x - O   
     9     23     22      1 ;    1.0760e+02    1.0019e+03 ;     C9 - S1   - O6       CT -    x - O   
    10      7     26      1 ;    1.0968e+02    3.6208e+02 ;    C10 - C7   - H3       CT -   CT - HC  
    10      7     27      1 ;    1.0968e+02    3.6208e+02 ;    C10 - C7   - H4       CT -   CT - HC  
    10      7     28      1 ;    1.0968e+02    3.6208e+02 ;    C10 - C7   - H5       CT -   CT - HC  
    10     12     14      1 ;    1.1348e+02    5.4233e+02 ;    C10 - C12  - N1       CT -   CT - N2  
    10     12     39      1 ;    1.0959e+02    3.6217e+02 ;    C10 - C12  - H16      CT -   CT - HC  
    10     12     40      1 ;    1.0959e+02    3.6217e+02 ;    C10 - C12  - H17      CT -   CT - HC  
    11      8     29      1 ;    1.0968e+02    3.6208e+02 ;    C11 - C8   - H6       CT -   CT - HC  
    11      8     30      1 ;    1.0968e+02    3.6208e+02 ;    C11 - C8   - H7       CT -   CT - HC  
    11      8     31      1 ;    1.0968e+02    3.6208e+02 ;    C11 - C8   - H8       CT -   CT - HC  
    11     13     14      1 ;    1.1348e+02    5.4233e+02 ;    C11 - C13  - N1       CT -   CT - N2  
    11     13     41      1 ;    1.0959e+02    3.6217e+02 ;    C11 - C13  - H18      CT -   CT - HC  
    11     13     42      1 ;    1.0959e+02    3.6217e+02 ;    C11 - C13  - H19      CT -   CT - HC  
    12     10     35      1 ;    1.0968e+02    3.6208e+02 ;    C12 - C10  - H12      CT -   CT - HC  
    12     10     36      1 ;    1.0968e+02    3.6208e+02 ;    C12 - C10  - H13      CT -   CT - HC  
    12     14     13      1 ;    1.1656e+02    6.3957e+02 ;    C12 - N1   - C13      CT -   N2 - CT  
    13     11     37      1 ;    1.0968e+02    3.6208e+02 ;    C13 - C11  - H14      CT -   CT - HC  
    13     11     38      1 ;    1.0968e+02    3.6208e+02 ;    C13 - C11  - H15      CT -   CT - HC  
    14     12     39      1 ;    1.0968e+02    4.0141e+02 ;     N1 - C12  - H16      N2 -   CT - HC  
    14     12     40      1 ;    1.0968e+02    4.0141e+02 ;     N1 - C12  - H17      N2 -   CT - HC  
    14     13     41      1 ;    1.0968e+02    4.0141e+02 ;     N1 - C13  - H18      N2 -   CT - HC  
    14     13     42      1 ;    1.0968e+02    4.0141e+02 ;     N1 - C13  - H19      N2 -   CT - HC  
    17     15     18      1 ;    1.2505e+02    1.0964e+03 ;     O1 - N2   - O2        O -    x - O   
    19     16     20      1 ;    1.2505e+02    1.0964e+03 ;     O3 - N3   - O4        O -    x - O   
    21     23     22      1 ;    1.2138e+02    1.3201e+03 ;     O5 - S1   - O6        O -    x - O   
    23      9     32      1 ;    1.0793e+02    3.5907e+02 ;     S1 - C9   - H9        x -   CT - HC  
    23      9     33      1 ;    1.0793e+02    3.5907e+02 ;     S1 - C9   - H10       x -   CT - HC  
    23      9     34      1 ;    1.0793e+02    3.5907e+02 ;     S1 - C9   - H11       x -   CT - HC  
    26      7     27      1 ;    1.0773e+02    2.9957e+02 ;     H3 - C7   - H4       HC -   CT - HC  
    26      7     28      1 ;    1.0773e+02    2.9957e+02 ;     H3 - C7   - H5       HC -   CT - HC  
    27      7     28      1 ;    1.0773e+02    2.9957e+02 ;     H4 - C7   - H5       HC -   CT - HC  
    29      8     30      1 ;    1.0773e+02    2.9957e+02 ;     H6 - C8   - H7       HC -   CT - HC  
    29      8     31      1 ;    1.0773e+02    2.9957e+02 ;     H6 - C8   - H8       HC -   CT - HC  
    30      8     31      1 ;    1.0773e+02    2.9957e+02 ;     H7 - C8   - H8       HC -   CT - HC  
    32      9     33      1 ;    1.0855e+02    2.9824e+02 ;     H9 - C9   - H10      HC -   CT - HC  
    32      9     34      1 ;    1.0855e+02    2.9824e+02 ;     H9 - C9   - H11      HC -   CT - HC  
    33      9     34      1 ;    1.0855e+02    2.9824e+02 ;    H10 - C9   - H11      HC -   CT - HC  
    35     10     36      1 ;    1.0773e+02    2.9957e+02 ;    H12 - C10  - H13      HC -   CT - HC  
    37     11     38      1 ;    1.0773e+02    2.9957e+02 ;    H14 - C11  - H15      HC -   CT - HC  
    39     12     40      1 ;    1.0855e+02    2.9824e+02 ;    H16 - C12  - H17      HC -   CT - HC  
    41     13     42      1 ;    1.0855e+02    2.9824e+02 ;    H18 - C13  - H19      HC -   CT - HC  

[ dihedrals ] ; propers
; for gromacs 4.5 or higher, using funct 9
;    i      j      k      l   func   phase     kd      pn
     1      3      5      4      9 ;   180.00  15.16700   2 ;     C1-    C3-    C5-    C4
     1      3      5     14      9 ;   180.00  15.16700   2 ;     C1-    C3-    C5-    N1
     1      3     15     17      9 ;   180.00   3.01248   2 ;     C1-    C3-    N2-    O1
     1      3     15     18      9 ;   180.00   3.01248   2 ;     C1-    C3-    N2-    O2
     1      6      2      4      9 ;   180.00  15.16700   2 ;     C1-    C6-    C2-    C4
     1      6      2     25      9 ;   180.00  15.16700   2 ;     C1-    C6-    C2-    H2
     1      6     23      9      9 ;   180.00   5.27184   2 ;     C1-    C6-    S1-    C9
     1      6     23     21      9 ;   180.00   5.43920   2 ;     C1-    C6-    S1-    O5
     1      6     23     22      9 ;   180.00   5.43920   2 ;     C1-    C6-    S1-    O6
     2      4      5      3      9 ;   180.00  15.16700   2 ;     C2-    C4-    C5-    C3
     2      4      5     14      9 ;   180.00  15.16700   2 ;     C2-    C4-    C5-    N1
     2      4     16     19      9 ;   180.00   3.01248   2 ;     C2-    C4-    N3-    O3
     2      4     16     20      9 ;   180.00   3.01248   2 ;     C2-    C4-    N3-    O4
     2      6     23      9      9 ;   180.00   5.27184   2 ;     C2-    C6-    S1-    C9
     2      6     23     21      9 ;   180.00   5.43920   2 ;     C2-    C6-    S1-    O5
     2      6     23     22      9 ;   180.00   5.43920   2 ;     C2-    C6-    S1-    O6
     3      1      6      2      9 ;   180.00  15.16700   2 ;     C3-    C1-    C6-    C2
     3      1      6     23      9 ;   180.00  15.16700   2 ;     C3-    C1-    C6-    S1
     3      5      4     16      9 ;   180.00  15.16700   2 ;     C3-    C5-    C4-    N3
     3      5     14     12      9 ;   180.00   3.15055   2 ;     C3-    C5-    N1-   C12
     3      5     14     13      9 ;   180.00   3.15055   2 ;     C3-    C5-    N1-   C13
     4      2      6     23      9 ;   180.00  15.16700   2 ;     C4-    C2-    C6-    S1
     4      5      3     15      9 ;   180.00  15.16700   2 ;     C4-    C5-    C3-    N2
     4      5     14     12      9 ;   180.00   3.15055   2 ;     C4-    C5-    N1-   C12
     4      5     14     13      9 ;   180.00   3.15055   2 ;     C4-    C5-    N1-   C13
     5      3     15     17      9 ;   180.00   3.01248   2 ;     C5-    C3-    N2-    O1
     5      3     15     18      9 ;   180.00   3.01248   2 ;     C5-    C3-    N2-    O2
     5      4      2      6      9 ;   180.00  15.16700   2 ;     C5-    C4-    C2-    C6
     5      4      2     25      9 ;   180.00  15.16700   2 ;     C5-    C4-    C2-    H2
     5      4     16     19      9 ;   180.00   3.01248   2 ;     C5-    C4-    N3-    O3
     5      4     16     20      9 ;   180.00   3.01248   2 ;     C5-    C4-    N3-    O4
     5     14     12     10      9 ;     0.00   0.00000   0 ;     C5-    N1-   C12-   C10
     5     14     12     39      9 ;     0.00   1.38909   2 ;     C5-    N1-   C12-   H16
     5     14     12     40      9 ;     0.00   1.38909   2 ;     C5-    N1-   C12-   H17
     5     14     13     11      9 ;     0.00   0.00000   0 ;     C5-    N1-   C13-   C11
     5     14     13     41      9 ;     0.00   1.38909   2 ;     C5-    N1-   C13-   H18
     5     14     13     42      9 ;     0.00   1.38909   2 ;     C5-    N1-   C13-   H19
     6      1      3      5      9 ;   180.00  15.16700   2 ;     C6-    C1-    C3-    C5
     6      1      3     15      9 ;   180.00  15.16700   2 ;     C6-    C1-    C3-    N2
     6      2      4     16      9 ;   180.00  15.16700   2 ;     C6-    C2-    C4-    N3
     6     23      9     32      9 ;     0.00   0.60436   3 ;     C6-    S1-    C9-    H9
     6     23      9     33      9 ;     0.00   0.60436   3 ;     C6-    S1-    C9-   H10
     6     23      9     34      9 ;     0.00   0.60436   3 ;     C6-    S1-    C9-   H11
     7     10     12     14      9 ;     0.00   0.87864   3 ;     C7-   C10-   C12-    N1
     7     10     12     39      9 ;     0.00   0.65084   3 ;     C7-   C10-   C12-   H16
     7     10     12     40      9 ;     0.00   0.65084   3 ;     C7-   C10-   C12-   H17
     8     11     13     14      9 ;     0.00   0.87864   3 ;     C8-   C11-   C13-    N1
     8     11     13     41      9 ;     0.00   0.65084   3 ;     C8-   C11-   C13-   H18
     8     11     13     42      9 ;     0.00   0.65084   3 ;     C8-   C11-   C13-   H19
    10     12     14     13      9 ;     0.00   0.00000   0 ;    C10-   C12-    N1-   C13
    11     13     14     12      9 ;     0.00   0.00000   0 ;    C11-   C13-    N1-   C12
    12     10      7     26      9 ;     0.00   0.54392   3 ;    C12-   C10-    C7-    H3
    12     10      7     27      9 ;     0.00   0.54392   3 ;    C12-   C10-    C7-    H4
    12     10      7     28      9 ;     0.00   0.54392   3 ;    C12-   C10-    C7-    H5
    12     14     13     41      9 ;     0.00   0.00000   0 ;    C12-    N1-   C13-   H18
    12     14     13     42      9 ;     0.00   0.00000   0 ;    C12-    N1-   C13-   H19
    13     11      8     29      9 ;     0.00   0.54392   3 ;    C13-   C11-    C8-    H6
    13     11      8     30      9 ;     0.00   0.54392   3 ;    C13-   C11-    C8-    H7
    13     11      8     31      9 ;     0.00   0.54392   3 ;    C13-   C11-    C8-    H8
    13     14     12     39      9 ;     0.00   0.00000   0 ;    C13-    N1-   C12-   H16
    13     14     12     40      9 ;     0.00   0.00000   0 ;    C13-    N1-   C12-   H17
    14      5      3     15      9 ;   180.00  15.16700   2 ;     N1-    C5-    C3-    N2
    14      5      4     16      9 ;   180.00  15.16700   2 ;     N1-    C5-    C4-    N3
    14     12     10     35      9 ;     0.00   0.65084   3 ;     N1-   C12-   C10-   H12
    14     12     10     36      9 ;     0.00   0.65084   3 ;     N1-   C12-   C10-   H13
    14     13     11     37      9 ;     0.00   0.65084   3 ;     N1-   C13-   C11-   H14
    14     13     11     38      9 ;     0.00   0.65084   3 ;     N1-   C13-   C11-   H15
    16      4      2     25      9 ;   180.00  15.16700   2 ;     N3-    C4-    C2-    H2
    21     23      9     32      9 ;     0.00   0.60436   3 ;     O5-    S1-    C9-    H9
    21     23      9     33      9 ;     0.00   0.60436   3 ;     O5-    S1-    C9-   H10
    21     23      9     34      9 ;     0.00   0.60436   3 ;     O5-    S1-    C9-   H11
    22     23      9     32      9 ;     0.00   0.60436   3 ;     O6-    S1-    C9-    H9
    22     23      9     33      9 ;     0.00   0.60436   3 ;     O6-    S1-    C9-   H10
    22     23      9     34      9 ;     0.00   0.60436   3 ;     O6-    S1-    C9-   H11
    23      6      2     25      9 ;   180.00  15.16700   2 ;     S1-    C6-    C2-    H2
    24      1      3      5      9 ;   180.00  15.16700   2 ;     H1-    C1-    C3-    C5
    24      1      3     15      9 ;   180.00  15.16700   2 ;     H1-    C1-    C3-    N2
    24      1      6      2      9 ;   180.00  15.16700   2 ;     H1-    C1-    C6-    C2
    24      1      6     23      9 ;   180.00  15.16700   2 ;     H1-    C1-    C6-    S1
    26      7     10     35      9 ;     0.00   0.50208   3 ;     H3-    C7-   C10-   H12
    26      7     10     36      9 ;     0.00   0.50208   3 ;     H3-    C7-   C10-   H13
    27      7     10     35      9 ;     0.00   0.50208   3 ;     H4-    C7-   C10-   H12
    27      7     10     36      9 ;     0.00   0.50208   3 ;     H4-    C7-   C10-   H13
    28      7     10     35      9 ;     0.00   0.50208   3 ;     H5-    C7-   C10-   H12
    28      7     10     36      9 ;     0.00   0.50208   3 ;     H5-    C7-   C10-   H13
    29      8     11     37      9 ;     0.00   0.50208   3 ;     H6-    C8-   C11-   H14
    29      8     11     38      9 ;     0.00   0.50208   3 ;     H6-    C8-   C11-   H15
    30      8     11     37      9 ;     0.00   0.50208   3 ;     H7-    C8-   C11-   H14
    30      8     11     38      9 ;     0.00   0.50208   3 ;     H7-    C8-   C11-   H15
    31      8     11     37      9 ;     0.00   0.50208   3 ;     H8-    C8-   C11-   H14
    31      8     11     38      9 ;     0.00   0.50208   3 ;     H8-    C8-   C11-   H15
    35     10     12     39      9 ;     0.00   0.65084   3 ;    H12-   C10-   C12-   H16
    35     10     12     40      9 ;     0.00   0.65084   3 ;    H12-   C10-   C12-   H17
    36     10     12     39      9 ;     0.00   0.65084   3 ;    H13-   C10-   C12-   H16
    36     10     12     40      9 ;     0.00   0.65084   3 ;    H13-   C10-   C12-   H17
    37     11     13     41      9 ;     0.00   0.65084   3 ;    H14-   C11-   C13-   H18
    37     11     13     42      9 ;     0.00   0.65084   3 ;    H14-   C11-   C13-   H19
    38     11     13     41      9 ;     0.00   0.65084   3 ;    H15-   C11-   C13-   H18
    38     11     13     42      9 ;     0.00   0.65084   3 ;    H15-   C11-   C13-   H19

[ dihedrals ] ; impropers
; treated as propers in GROMACS to use correct AMBER analytical function
;    i      j      k      l   func   phase     kd      pn
     1      2      6     23      4 ;   180.00   4.60240   2 ;     C1-    C2-    C6-    S1
     1      5      3     15      4 ;   180.00   4.60240   2 ;     C1-    C5-    C3-    N2
     2      5      4     16      4 ;   180.00   4.60240   2 ;     C2-    C5-    C4-    N3
     3      4      5     14      4 ;   180.00   4.60240   2 ;     C3-    C4-    C5-    N1
     3     17     15     18      4 ;   180.00   4.60240   2 ;     C3-    O1-    N2-    O2
     4      6      2     25      4 ;   180.00   4.60240   2 ;     C4-    C6-    C2-    H2
     4     19     16     20      4 ;   180.00   4.60240   2 ;     C4-    O3-    N3-    O4
    12     13     14      5      4 ;   180.00   4.60240   2 ;    C12-   C13-    N1-    C5
    24      1      6      3      4 ;   180.00   4.60240   2 ;     H1-    C1-    C6-    C3
