; mobley_2725215_GMX.itp created by acpype (v: 2023.10.27) on Thu May 21 00:03:07 2026

[ atomtypes ]
;name   bond_type     mass     charge   ptype   sigma         epsilon       Amb
 ca       ca          0.00000  0.00000   A     3.31521e-01   4.13379e-01 ; 1.86  0.0988
 c3       c3          0.00000  0.00000   A     3.39771e-01   4.51035e-01 ; 1.91  0.1078
 nh       nh          0.00000  0.00000   A     3.18995e-01   8.99560e-01 ; 1.79  0.2150
 no       no          0.00000  0.00000   A     3.36510e-01   3.58987e-01 ; 1.89  0.0858
 o        o           0.00000  0.00000   A     3.04812e-01   6.12119e-01 ; 1.71  0.1463
 sy       sy          0.00000  0.00000   A     4.05840e-01   2.56898e-01 ; 2.28  0.0614
 ha       ha          0.00000  0.00000   A     2.62548e-01   6.73624e-02 ; 1.47  0.0161
 hc       hc          0.00000  0.00000   A     2.60018e-01   8.70272e-02 ; 1.46  0.0208
 h1       h1          0.00000  0.00000   A     2.42200e-01   8.70272e-02 ; 1.36  0.0208

[ moleculetype ]
;name            nrexcl
 mobley_2725215   3

[ atoms ]
;   nr  type  resi  res  atom  cgnr     charge      mass       ; qtot   bond_type
     1   ca     1   MOL    C1    1     0.061500     12.01000 ; qtot 0.061
     2   ca     1   MOL    C2    2     0.061500     12.01000 ; qtot 0.123
     3   ca     1   MOL    C3    3    -0.221700     12.01000 ; qtot -0.099
     4   ca     1   MOL    C4    4    -0.221700     12.01000 ; qtot -0.320
     5   ca     1   MOL    C5    5     0.312600     12.01000 ; qtot -0.008
     6   ca     1   MOL    C6    6    -0.389500     12.01000 ; qtot -0.397
     7   c3     1   MOL    C7    7    -0.094100     12.01000 ; qtot -0.491
     8   c3     1   MOL    C8    8    -0.094100     12.01000 ; qtot -0.586
     9   c3     1   MOL    C9    9    -0.373300     12.01000 ; qtot -0.959
    10   c3     1   MOL   C10   10    -0.088900     12.01000 ; qtot -1.048
    11   c3     1   MOL   C11   11    -0.088900     12.01000 ; qtot -1.137
    12   c3     1   MOL   C12   12     0.186800     12.01000 ; qtot -0.950
    13   c3     1   MOL   C13   13     0.186800     12.01000 ; qtot -0.763
    14   nh     1   MOL    N1   14    -0.682000     14.01000 ; qtot -1.445
    15   no     1   MOL    N2   15     0.322700     14.01000 ; qtot -1.122
    16   no     1   MOL    N3   16     0.322700     14.01000 ; qtot -0.800
    17    o     1   MOL    O1   17    -0.189500     16.00000 ; qtot -0.989
    18    o     1   MOL    O2   18    -0.189500     16.00000 ; qtot -1.179
    19    o     1   MOL    O3   19    -0.189500     16.00000 ; qtot -1.368
    20    o     1   MOL    O4   20    -0.189500     16.00000 ; qtot -1.558
    21    o     1   MOL    O5   21    -0.644300     16.00000 ; qtot -2.202
    22    o     1   MOL    O6   22    -0.644300     16.00000 ; qtot -2.846
    23   sy     1   MOL    S1   23     1.400301     32.06000 ; qtot -1.446
    24   ha     1   MOL    H1   24     0.193000      1.00800 ; qtot -1.253
    25   ha     1   MOL    H2   25     0.193000      1.00800 ; qtot -1.060
    26   hc     1   MOL    H3   26     0.040533      1.00800 ; qtot -1.019
    27   hc     1   MOL    H4   27     0.040533      1.00800 ; qtot -0.979
    28   hc     1   MOL    H5   28     0.040533      1.00800 ; qtot -0.938
    29   hc     1   MOL    H6   29     0.040533      1.00800 ; qtot -0.898
    30   hc     1   MOL    H7   30     0.040533      1.00800 ; qtot -0.857
    31   hc     1   MOL    H8   31     0.040533      1.00800 ; qtot -0.817
    32   h1     1   MOL    H9   32     0.123367      1.00800 ; qtot -0.693
    33   h1     1   MOL   H10   33     0.123367      1.00800 ; qtot -0.570
    34   h1     1   MOL   H11   34     0.123367      1.00800 ; qtot -0.447
    35   hc     1   MOL   H12   35     0.050450      1.00800 ; qtot -0.396
    36   hc     1   MOL   H13   36     0.050450      1.00800 ; qtot -0.346
    37   hc     1   MOL   H14   37     0.050450      1.00800 ; qtot -0.295
    38   hc     1   MOL   H15   38     0.050450      1.00800 ; qtot -0.245
    39   h1     1   MOL   H16   39     0.061200      1.00800 ; qtot -0.184
    40   h1     1   MOL   H17   40     0.061200      1.00800 ; qtot -0.122
    41   h1     1   MOL   H18   41     0.061200      1.00800 ; qtot -0.061
    42   h1     1   MOL   H19   42     0.061200      1.00800 ; qtot -0.000

[ bonds ]
;   ai     aj funct   r             k
     1      3   1    1.3986e-01    2.9644e+05 ;     C1 - C3    
     1      6   1    1.3986e-01    2.9644e+05 ;     C1 - C6    
     1     24   1    1.0860e-01    3.0183e+05 ;     C1 - H1    
     2      4   1    1.3986e-01    2.9644e+05 ;     C2 - C4    
     2      6   1    1.3986e-01    2.9644e+05 ;     C2 - C6    
     2     25   1    1.0860e-01    3.0183e+05 ;     C2 - H2    
     3      5   1    1.3986e-01    2.9644e+05 ;     C3 - C5    
     3     15   1    1.4696e-01    2.0937e+05 ;     C3 - N2    
     4      5   1    1.3986e-01    2.9644e+05 ;     C4 - C5    
     4     16   1    1.4696e-01    2.0937e+05 ;     C4 - N3    
     5     14   1    1.4030e-01    2.6011e+05 ;     C5 - N1    
     6     23   1    1.7913e-01    1.7558e+05 ;     C6 - S1    
     7     10   1    1.5354e-01    1.9154e+05 ;     C7 - C10   
     7     26   1    1.0962e-01    2.8891e+05 ;     C7 - H3    
     7     27   1    1.0962e-01    2.8891e+05 ;     C7 - H4    
     7     28   1    1.0962e-01    2.8891e+05 ;     C7 - H5    
     8     11   1    1.5354e-01    1.9154e+05 ;     C8 - C11   
     8     29   1    1.0962e-01    2.8891e+05 ;     C8 - H6    
     8     30   1    1.0962e-01    2.8891e+05 ;     C8 - H7    
     8     31   1    1.0962e-01    2.8891e+05 ;     C8 - H8    
     9     23   1    1.8134e-01    1.6579e+05 ;     C9 - S1    
     9     32   1    1.0969e-01    2.8804e+05 ;     C9 - H9    
     9     33   1    1.0969e-01    2.8804e+05 ;     C9 - H10   
     9     34   1    1.0969e-01    2.8804e+05 ;     C9 - H11   
    10     12   1    1.5354e-01    1.9154e+05 ;    C10 - C12   
    10     35   1    1.0962e-01    2.8891e+05 ;    C10 - H12   
    10     36   1    1.0962e-01    2.8891e+05 ;    C10 - H13   
    11     13   1    1.5354e-01    1.9154e+05 ;    C11 - C13   
    11     37   1    1.0962e-01    2.8891e+05 ;    C11 - H14   
    11     38   1    1.0962e-01    2.8891e+05 ;    C11 - H15   
    12     14   1    1.4613e-01    2.1499e+05 ;    C12 - N1    
    12     39   1    1.0969e-01    2.8804e+05 ;    C12 - H16   
    12     40   1    1.0969e-01    2.8804e+05 ;    C12 - H17   
    13     14   1    1.4613e-01    2.1499e+05 ;    C13 - N1    
    13     41   1    1.0969e-01    2.8804e+05 ;    C13 - H18   
    13     42   1    1.0969e-01    2.8804e+05 ;    C13 - H19   
    15     17   1    1.2311e-01    3.0270e+05 ;     N2 - O1    
    15     18   1    1.2311e-01    3.0270e+05 ;     N2 - O2    
    16     19   1    1.2311e-01    3.0270e+05 ;     N3 - O3    
    16     20   1    1.2311e-01    3.0270e+05 ;     N3 - O4    
    21     23   1    1.4656e-01    5.1436e+05 ;     O5 - S1    
    22     23   1    1.4656e-01    5.1436e+05 ;     O6 - S1    

[ pairs ]
;   ai     aj    funct
     1      4      1 ;     C1 - C4    
     1      9      1 ;     C1 - C9    
     1     14      1 ;     C1 - N1    
     1     17      1 ;     C1 - O1    
     1     18      1 ;     C1 - O2    
     1     21      1 ;     C1 - O5    
     1     22      1 ;     C1 - O6    
     1     25      1 ;     C1 - H2    
     2      3      1 ;     C2 - C3    
     2      9      1 ;     C2 - C9    
     2     14      1 ;     C2 - N1    
     2     19      1 ;     C2 - O3    
     2     20      1 ;     C2 - O4    
     2     21      1 ;     C2 - O5    
     2     22      1 ;     C2 - O6    
     3     12      1 ;     C3 - C12   
     3     13      1 ;     C3 - C13   
     3     16      1 ;     C3 - N3    
     3     23      1 ;     C3 - S1    
     4     12      1 ;     C4 - C12   
     4     13      1 ;     C4 - C13   
     4     15      1 ;     C4 - N2    
     4     23      1 ;     C4 - S1    
     5     10      1 ;     C5 - C10   
     5     11      1 ;     C5 - C11   
     5     17      1 ;     C5 - O1    
     5     18      1 ;     C5 - O2    
     5     19      1 ;     C5 - O3    
     5     20      1 ;     C5 - O4    
     5     25      1 ;     C5 - H2    
     5     39      1 ;     C5 - H16   
     5     40      1 ;     C5 - H17   
     5     41      1 ;     C5 - H18   
     5     42      1 ;     C5 - H19   
     6      5      1 ;     C6 - C5    
     6     15      1 ;     C6 - N2    
     6     16      1 ;     C6 - N3    
     6     32      1 ;     C6 - H9    
     6     33      1 ;     C6 - H10   
     6     34      1 ;     C6 - H11   
     7     14      1 ;     C7 - N1    
     7     39      1 ;     C7 - H16   
     7     40      1 ;     C7 - H17   
     8     14      1 ;     C8 - N1    
     8     41      1 ;     C8 - H18   
     8     42      1 ;     C8 - H19   
    10     13      1 ;    C10 - C13   
    11     12      1 ;    C11 - C12   
    12     26      1 ;    C12 - H3    
    12     27      1 ;    C12 - H4    
    12     28      1 ;    C12 - H5    
    12     41      1 ;    C12 - H18   
    12     42      1 ;    C12 - H19   
    13     29      1 ;    C13 - H6    
    13     30      1 ;    C13 - H7    
    13     31      1 ;    C13 - H8    
    13     39      1 ;    C13 - H16   
    13     40      1 ;    C13 - H17   
    14     15      1 ;     N1 - N2    
    14     16      1 ;     N1 - N3    
    14     35      1 ;     N1 - H12   
    14     36      1 ;     N1 - H13   
    14     37      1 ;     N1 - H14   
    14     38      1 ;     N1 - H15   
    16     25      1 ;     N3 - H2    
    21     32      1 ;     O5 - H9    
    21     33      1 ;     O5 - H10   
    21     34      1 ;     O5 - H11   
    22     32      1 ;     O6 - H9    
    22     33      1 ;     O6 - H10   
    22     34      1 ;     O6 - H11   
    23     25      1 ;     S1 - H2    
    24      2      1 ;     H1 - C2    
    24      5      1 ;     H1 - C5    
    24     15      1 ;     H1 - N2    
    24     23      1 ;     H1 - S1    
    26     35      1 ;     H3 - H12   
    26     36      1 ;     H3 - H13   
    27     35      1 ;     H4 - H12   
    27     36      1 ;     H4 - H13   
    28     35      1 ;     H5 - H12   
    28     36      1 ;     H5 - H13   
    29     37      1 ;     H6 - H14   
    29     38      1 ;     H6 - H15   
    30     37      1 ;     H7 - H14   
    30     38      1 ;     H7 - H15   
    31     37      1 ;     H8 - H14   
    31     38      1 ;     H8 - H15   
    35     39      1 ;    H12 - H16   
    35     40      1 ;    H12 - H17   
    36     39      1 ;    H13 - H16   
    36     40      1 ;    H13 - H17   
    37     41      1 ;    H14 - H18   
    37     42      1 ;    H14 - H19   
    38     41      1 ;    H15 - H18   
    38     42      1 ;    H15 - H19   

[ angles ]
;   ai     aj     ak    funct   theta         cth
     1      3      5      1    1.2002e+02    5.3279e+02 ;     C1 - C3     - C5    
     1      3     15      1    1.1900e+02    5.5329e+02 ;     C1 - C3     - N2    
     1      6      2      1    1.2002e+02    5.3279e+02 ;     C1 - C6     - C2    
     1      6     23      1    1.1941e+02    5.2785e+02 ;     C1 - C6     - S1    
     2      4      5      1    1.2002e+02    5.3279e+02 ;     C2 - C4     - C5    
     2      4     16      1    1.1900e+02    5.5329e+02 ;     C2 - C4     - N3    
     2      6     23      1    1.1941e+02    5.2785e+02 ;     C2 - C6     - S1    
     3      1      6      1    1.2002e+02    5.3279e+02 ;     C3 - C1     - C6    
     3      1     24      1    1.1988e+02    3.7572e+02 ;     C3 - C1     - H1    
     3      5      4      1    1.2002e+02    5.3279e+02 ;     C3 - C5     - C4    
     3      5     14      1    1.2113e+02    5.6216e+02 ;     C3 - C5     - N1    
     3     15     17      1    1.1776e+02    8.2910e+02 ;     C3 - N2     - O1    
     3     15     18      1    1.1776e+02    8.2910e+02 ;     C3 - N2     - O2    
     4      2      6      1    1.2002e+02    5.3279e+02 ;     C4 - C2     - C6    
     4      2     25      1    1.1988e+02    3.7572e+02 ;     C4 - C2     - H2    
     4      5     14      1    1.2113e+02    5.6216e+02 ;     C4 - C5     - N1    
     4     16     19      1    1.1776e+02    8.2910e+02 ;     C4 - N3     - O3    
     4     16     20      1    1.1776e+02    8.2910e+02 ;     C4 - N3     - O4    
     5      3     15      1    1.1900e+02    5.5329e+02 ;     C5 - C3     - N2    
     5      4     16      1    1.1900e+02    5.5329e+02 ;     C5 - C4     - N3    
     5     14     12      1    1.1953e+02    6.4383e+02 ;     C5 - N1     - C12   
     5     14     13      1    1.1953e+02    6.4383e+02 ;     C5 - N1     - C13   
     6      1     24      1    1.1988e+02    3.7572e+02 ;     C6 - C1     - H1    
     6      2     25      1    1.1988e+02    3.7572e+02 ;     C6 - C2     - H2    
     6     23      9      1    1.0392e+02    7.7546e+02 ;     C6 - S1     - C9    
     6     23     21      1    1.0834e+02    1.0078e+03 ;     C6 - S1     - O5    
     6     23     22      1    1.0834e+02    1.0078e+03 ;     C6 - S1     - O6    
     7     10     12      1    1.1263e+02    5.0099e+02 ;     C7 - C10    - C12   
     7     10     35      1    1.0968e+02    3.6208e+02 ;     C7 - C10    - H12   
     7     10     36      1    1.0968e+02    3.6208e+02 ;     C7 - C10    - H13   
     8     11     13      1    1.1263e+02    5.0099e+02 ;     C8 - C11    - C13   
     8     11     37      1    1.0968e+02    3.6208e+02 ;     C8 - C11    - H14   
     8     11     38      1    1.0968e+02    3.6208e+02 ;     C8 - C11    - H15   
     9     23     21      1    1.0760e+02    1.0019e+03 ;     C9 - S1     - O5    
     9     23     22      1    1.0760e+02    1.0019e+03 ;     C9 - S1     - O6    
    10      7     26      1    1.0968e+02    3.6208e+02 ;    C10 - C7     - H3    
    10      7     27      1    1.0968e+02    3.6208e+02 ;    C10 - C7     - H4    
    10      7     28      1    1.0968e+02    3.6208e+02 ;    C10 - C7     - H5    
    10     12     14      1    1.1348e+02    5.4233e+02 ;    C10 - C12    - N1    
    10     12     39      1    1.0959e+02    3.6217e+02 ;    C10 - C12    - H16   
    10     12     40      1    1.0959e+02    3.6217e+02 ;    C10 - C12    - H17   
    11      8     29      1    1.0968e+02    3.6208e+02 ;    C11 - C8     - H6    
    11      8     30      1    1.0968e+02    3.6208e+02 ;    C11 - C8     - H7    
    11      8     31      1    1.0968e+02    3.6208e+02 ;    C11 - C8     - H8    
    11     13     14      1    1.1348e+02    5.4233e+02 ;    C11 - C13    - N1    
    11     13     41      1    1.0959e+02    3.6217e+02 ;    C11 - C13    - H18   
    11     13     42      1    1.0959e+02    3.6217e+02 ;    C11 - C13    - H19   
    12     10     35      1    1.0968e+02    3.6208e+02 ;    C12 - C10    - H12   
    12     10     36      1    1.0968e+02    3.6208e+02 ;    C12 - C10    - H13   
    12     14     13      1    1.1656e+02    6.3957e+02 ;    C12 - N1     - C13   
    13     11     37      1    1.0968e+02    3.6208e+02 ;    C13 - C11    - H14   
    13     11     38      1    1.0968e+02    3.6208e+02 ;    C13 - C11    - H15   
    14     12     39      1    1.0968e+02    4.0141e+02 ;     N1 - C12    - H16   
    14     12     40      1    1.0968e+02    4.0141e+02 ;     N1 - C12    - H17   
    14     13     41      1    1.0968e+02    4.0141e+02 ;     N1 - C13    - H18   
    14     13     42      1    1.0968e+02    4.0141e+02 ;     N1 - C13    - H19   
    17     15     18      1    1.2505e+02    1.0964e+03 ;     O1 - N2     - O2    
    19     16     20      1    1.2505e+02    1.0964e+03 ;     O3 - N3     - O4    
    21     23     22      1    1.2138e+02    1.3201e+03 ;     O5 - S1     - O6    
    23      9     32      1    1.0793e+02    3.5907e+02 ;     S1 - C9     - H9    
    23      9     33      1    1.0793e+02    3.5907e+02 ;     S1 - C9     - H10   
    23      9     34      1    1.0793e+02    3.5907e+02 ;     S1 - C9     - H11   
    26      7     27      1    1.0773e+02    2.9957e+02 ;     H3 - C7     - H4    
    26      7     28      1    1.0773e+02    2.9957e+02 ;     H3 - C7     - H5    
    27      7     28      1    1.0773e+02    2.9957e+02 ;     H4 - C7     - H5    
    29      8     30      1    1.0773e+02    2.9957e+02 ;     H6 - C8     - H7    
    29      8     31      1    1.0773e+02    2.9957e+02 ;     H6 - C8     - H8    
    30      8     31      1    1.0773e+02    2.9957e+02 ;     H7 - C8     - H8    
    32      9     33      1    1.0855e+02    2.9824e+02 ;     H9 - C9     - H10   
    32      9     34      1    1.0855e+02    2.9824e+02 ;     H9 - C9     - H11   
    33      9     34      1    1.0855e+02    2.9824e+02 ;    H10 - C9     - H11   
    35     10     36      1    1.0773e+02    2.9957e+02 ;    H12 - C10    - H13   
    37     11     38      1    1.0773e+02    2.9957e+02 ;    H14 - C11    - H15   
    39     12     40      1    1.0855e+02    2.9824e+02 ;    H16 - C12    - H17   
    41     13     42      1    1.0855e+02    2.9824e+02 ;    H18 - C13    - H19   

[ dihedrals ] ; propers
; for gromacs 4.5 or higher, using funct 9
;    i      j      k      l   func   phase     kd      pn
     1      3      5      4      9   180.00  15.16700   2 ;     C1-    C3-    C5-    C4
     1      3      5     14      9   180.00  15.16700   2 ;     C1-    C3-    C5-    N1
     1      3     15     17      9   180.00   3.01248   2 ;     C1-    C3-    N2-    O1
     1      3     15     18      9   180.00   3.01248   2 ;     C1-    C3-    N2-    O2
     1      6      2      4      9   180.00  15.16700   2 ;     C1-    C6-    C2-    C4
     1      6      2     25      9   180.00  15.16700   2 ;     C1-    C6-    C2-    H2
     1      6     23      9      9   180.00   5.27184   2 ;     C1-    C6-    S1-    C9
     1      6     23     21      9   180.00   5.43920   2 ;     C1-    C6-    S1-    O5
     1      6     23     22      9   180.00   5.43920   2 ;     C1-    C6-    S1-    O6
     2      4      5      3      9   180.00  15.16700   2 ;     C2-    C4-    C5-    C3
     2      4      5     14      9   180.00  15.16700   2 ;     C2-    C4-    C5-    N1
     2      4     16     19      9   180.00   3.01248   2 ;     C2-    C4-    N3-    O3
     2      4     16     20      9   180.00   3.01248   2 ;     C2-    C4-    N3-    O4
     2      6     23      9      9   180.00   5.27184   2 ;     C2-    C6-    S1-    C9
     2      6     23     21      9   180.00   5.43920   2 ;     C2-    C6-    S1-    O5
     2      6     23     22      9   180.00   5.43920   2 ;     C2-    C6-    S1-    O6
     3      1      6      2      9   180.00  15.16700   2 ;     C3-    C1-    C6-    C2
     3      1      6     23      9   180.00  15.16700   2 ;     C3-    C1-    C6-    S1
     3      5      4     16      9   180.00  15.16700   2 ;     C3-    C5-    C4-    N3
     3      5     14     12      9   180.00   3.15055   2 ;     C3-    C5-    N1-   C12
     3      5     14     13      9   180.00   3.15055   2 ;     C3-    C5-    N1-   C13
     4      2      6     23      9   180.00  15.16700   2 ;     C4-    C2-    C6-    S1
     4      5      3     15      9   180.00  15.16700   2 ;     C4-    C5-    C3-    N2
     4      5     14     12      9   180.00   3.15055   2 ;     C4-    C5-    N1-   C12
     4      5     14     13      9   180.00   3.15055   2 ;     C4-    C5-    N1-   C13
     5      3     15     17      9   180.00   3.01248   2 ;     C5-    C3-    N2-    O1
     5      3     15     18      9   180.00   3.01248   2 ;     C5-    C3-    N2-    O2
     5      4      2      6      9   180.00  15.16700   2 ;     C5-    C4-    C2-    C6
     5      4      2     25      9   180.00  15.16700   2 ;     C5-    C4-    C2-    H2
     5      4     16     19      9   180.00   3.01248   2 ;     C5-    C4-    N3-    O3
     5      4     16     20      9   180.00   3.01248   2 ;     C5-    C4-    N3-    O4
     5     14     12     10      9     0.00   0.00000   0 ;     C5-    N1-   C12-   C10
     5     14     12     39      9     0.00   1.38909   2 ;     C5-    N1-   C12-   H16
     5     14     12     40      9     0.00   1.38909   2 ;     C5-    N1-   C12-   H17
     5     14     13     11      9     0.00   0.00000   0 ;     C5-    N1-   C13-   C11
     5     14     13     41      9     0.00   1.38909   2 ;     C5-    N1-   C13-   H18
     5     14     13     42      9     0.00   1.38909   2 ;     C5-    N1-   C13-   H19
     6      1      3      5      9   180.00  15.16700   2 ;     C6-    C1-    C3-    C5
     6      1      3     15      9   180.00  15.16700   2 ;     C6-    C1-    C3-    N2
     6      2      4     16      9   180.00  15.16700   2 ;     C6-    C2-    C4-    N3
     6     23      9     32      9     0.00   0.60436   3 ;     C6-    S1-    C9-    H9
     6     23      9     33      9     0.00   0.60436   3 ;     C6-    S1-    C9-   H10
     6     23      9     34      9     0.00   0.60436   3 ;     C6-    S1-    C9-   H11
     7     10     12     14      9     0.00   0.87864   3 ;     C7-   C10-   C12-    N1
     7     10     12     39      9     0.00   0.65084   3 ;     C7-   C10-   C12-   H16
     7     10     12     40      9     0.00   0.65084   3 ;     C7-   C10-   C12-   H17
     8     11     13     14      9     0.00   0.87864   3 ;     C8-   C11-   C13-    N1
     8     11     13     41      9     0.00   0.65084   3 ;     C8-   C11-   C13-   H18
     8     11     13     42      9     0.00   0.65084   3 ;     C8-   C11-   C13-   H19
    10     12     14     13      9     0.00   0.00000   0 ;    C10-   C12-    N1-   C13
    11     13     14     12      9     0.00   0.00000   0 ;    C11-   C13-    N1-   C12
    12     10      7     26      9     0.00   0.54392   3 ;    C12-   C10-    C7-    H3
    12     10      7     27      9     0.00   0.54392   3 ;    C12-   C10-    C7-    H4
    12     10      7     28      9     0.00   0.54392   3 ;    C12-   C10-    C7-    H5
    12     14     13     41      9     0.00   0.00000   0 ;    C12-    N1-   C13-   H18
    12     14     13     42      9     0.00   0.00000   0 ;    C12-    N1-   C13-   H19
    13     11      8     29      9     0.00   0.54392   3 ;    C13-   C11-    C8-    H6
    13     11      8     30      9     0.00   0.54392   3 ;    C13-   C11-    C8-    H7
    13     11      8     31      9     0.00   0.54392   3 ;    C13-   C11-    C8-    H8
    13     14     12     39      9     0.00   0.00000   0 ;    C13-    N1-   C12-   H16
    13     14     12     40      9     0.00   0.00000   0 ;    C13-    N1-   C12-   H17
    14      5      3     15      9   180.00  15.16700   2 ;     N1-    C5-    C3-    N2
    14      5      4     16      9   180.00  15.16700   2 ;     N1-    C5-    C4-    N3
    14     12     10     35      9     0.00   0.65084   3 ;     N1-   C12-   C10-   H12
    14     12     10     36      9     0.00   0.65084   3 ;     N1-   C12-   C10-   H13
    14     13     11     37      9     0.00   0.65084   3 ;     N1-   C13-   C11-   H14
    14     13     11     38      9     0.00   0.65084   3 ;     N1-   C13-   C11-   H15
    16      4      2     25      9   180.00  15.16700   2 ;     N3-    C4-    C2-    H2
    21     23      9     32      9     0.00   0.60436   3 ;     O5-    S1-    C9-    H9
    21     23      9     33      9     0.00   0.60436   3 ;     O5-    S1-    C9-   H10
    21     23      9     34      9     0.00   0.60436   3 ;     O5-    S1-    C9-   H11
    22     23      9     32      9     0.00   0.60436   3 ;     O6-    S1-    C9-    H9
    22     23      9     33      9     0.00   0.60436   3 ;     O6-    S1-    C9-   H10
    22     23      9     34      9     0.00   0.60436   3 ;     O6-    S1-    C9-   H11
    23      6      2     25      9   180.00  15.16700   2 ;     S1-    C6-    C2-    H2
    24      1      3      5      9   180.00  15.16700   2 ;     H1-    C1-    C3-    C5
    24      1      3     15      9   180.00  15.16700   2 ;     H1-    C1-    C3-    N2
    24      1      6      2      9   180.00  15.16700   2 ;     H1-    C1-    C6-    C2
    24      1      6     23      9   180.00  15.16700   2 ;     H1-    C1-    C6-    S1
    26      7     10     35      9     0.00   0.50208   3 ;     H3-    C7-   C10-   H12
    26      7     10     36      9     0.00   0.50208   3 ;     H3-    C7-   C10-   H13
    27      7     10     35      9     0.00   0.50208   3 ;     H4-    C7-   C10-   H12
    27      7     10     36      9     0.00   0.50208   3 ;     H4-    C7-   C10-   H13
    28      7     10     35      9     0.00   0.50208   3 ;     H5-    C7-   C10-   H12
    28      7     10     36      9     0.00   0.50208   3 ;     H5-    C7-   C10-   H13
    29      8     11     37      9     0.00   0.50208   3 ;     H6-    C8-   C11-   H14
    29      8     11     38      9     0.00   0.50208   3 ;     H6-    C8-   C11-   H15
    30      8     11     37      9     0.00   0.50208   3 ;     H7-    C8-   C11-   H14
    30      8     11     38      9     0.00   0.50208   3 ;     H7-    C8-   C11-   H15
    31      8     11     37      9     0.00   0.50208   3 ;     H8-    C8-   C11-   H14
    31      8     11     38      9     0.00   0.50208   3 ;     H8-    C8-   C11-   H15
    35     10     12     39      9     0.00   0.65084   3 ;    H12-   C10-   C12-   H16
    35     10     12     40      9     0.00   0.65084   3 ;    H12-   C10-   C12-   H17
    36     10     12     39      9     0.00   0.65084   3 ;    H13-   C10-   C12-   H16
    36     10     12     40      9     0.00   0.65084   3 ;    H13-   C10-   C12-   H17
    37     11     13     41      9     0.00   0.65084   3 ;    H14-   C11-   C13-   H18
    37     11     13     42      9     0.00   0.65084   3 ;    H14-   C11-   C13-   H19
    38     11     13     41      9     0.00   0.65084   3 ;    H15-   C11-   C13-   H18
    38     11     13     42      9     0.00   0.65084   3 ;    H15-   C11-   C13-   H19

[ dihedrals ] ; impropers
; treated as propers in GROMACS to use correct AMBER analytical function
;    i      j      k      l   func   phase     kd      pn
     1      2      6     23      4   180.00   4.60240   2 ;     C1-    C2-    C6-    S1
     1      5      3     15      4   180.00   4.60240   2 ;     C1-    C5-    C3-    N2
     2      5      4     16      4   180.00   4.60240   2 ;     C2-    C5-    C4-    N3
     3      4      5     14      4   180.00   4.60240   2 ;     C3-    C4-    C5-    N1
     3     17     15     18      4   180.00   4.60240   2 ;     C3-    O1-    N2-    O2
     4      6      2     25      4   180.00   4.60240   2 ;     C4-    C6-    C2-    H2
     4     19     16     20      4   180.00   4.60240   2 ;     C4-    O3-    N3-    O4
    12     13     14      5      4   180.00   4.60240   2 ;    C12-   C13-    N1-    C5
    24      1      6      3      4   180.00   4.60240   2 ;     H1-    C1-    C6-    C3
