%VERSION  VERSION_STAMP = V0001.000  DATE = 05/21/26  00:03:50                  
%FLAG TITLE                                                                     
%FORMAT(20a4)                                                                   
CUP08040_AM1BCC_v1_0                                                            
%FLAG POINTERS                                                                  
%FORMAT(10I8)                                                                   
      42       9      19      23      42      33      61      47       0       0
     220       1      23      33      47      12      21      13       9       0
       0       0       0       0       0       0       0       0      42       0
       0
%FLAG ATOM_NAME                                                                 
%FORMAT(20a4)                                                                   
C1  C2  C3  C4  C5  C6  C7  C8  C9  C10 C11 C12 C13 N1  N2  N3  O1  O2  O3  O4  
O5  O6  S1  H1  H2  H3  H4  H5  H6  H7  H8  H9  H10 H11 H12 H13 H14 H15 H16 H17 
H18 H19 
%FLAG CHARGE                                                                    
%FORMAT(5E16.8)                                                                 
  1.12067145E+00  1.12067145E+00 -4.03988391E+00 -4.03988391E+00  5.69629098E+00
 -7.09758585E+00 -1.71471843E+00 -1.71471843E+00 -6.80238459E+00 -1.61996247E+00
 -1.61996247E+00  3.40392564E+00  3.40392564E+00 -1.24276086E+01  5.88033621E+00
  5.88033621E+00 -3.45312585E+00 -3.45312585E+00 -3.45312585E+00 -3.45312585E+00
 -1.17406279E+01 -1.17406279E+01  2.55166867E+01  3.51690390E+00  3.51690390E+00
  7.38604486E-01  7.38604486E-01  7.38604486E-01  7.38604486E-01  7.38604486E-01
  7.38604486E-01  2.24803048E+00  2.24803048E+00  2.24803048E+00  9.19315035E-01
  9.19315035E-01  9.19315035E-01  9.19315035E-01  1.11520476E+00  1.11520476E+00
  1.11520476E+00  1.11520476E+00
%FLAG ATOMIC_NUMBER                                                             
%FORMAT(10I8)                                                                   
       6       6       6       6       6       6       6       6       6       6
       6       6       6       7       7       7       8       8       8       8
       8       8      16       1       1       1       1       1       1       1
       1       1       1       1       1       1       1       1       1       1
       1       1
%FLAG MASS                                                                      
%FORMAT(5E16.8)                                                                 
  1.20100000E+01  1.20100000E+01  1.20100000E+01  1.20100000E+01  1.20100000E+01
  1.20100000E+01  1.20100000E+01  1.20100000E+01  1.20100000E+01  1.20100000E+01
  1.20100000E+01  1.20100000E+01  1.20100000E+01  1.40100000E+01  1.40100000E+01
  1.40100000E+01  1.60000000E+01  1.60000000E+01  1.60000000E+01  1.60000000E+01
  1.60000000E+01  1.60000000E+01  3.20600000E+01  1.00800000E+00  1.00800000E+00
  1.00800000E+00  1.00800000E+00  1.00800000E+00  1.00800000E+00  1.00800000E+00
  1.00800000E+00  1.00800000E+00  1.00800000E+00  1.00800000E+00  1.00800000E+00
  1.00800000E+00  1.00800000E+00  1.00800000E+00  1.00800000E+00  1.00800000E+00
  1.00800000E+00  1.00800000E+00
%FLAG ATOM_TYPE_INDEX                                                           
%FORMAT(10I8)                                                                   
       1       1       1       1       1       1       2       2       2       2
       2       2       2       3       4       4       5       5       5       5
       5       5       6       7       7       8       8       8       8       8
       8       9       9       9       8       8       8       8       9       9
       9       9
%FLAG NUMBER_EXCLUDED_ATOMS                                                     
%FORMAT(10I8)                                                                   
      15      14      12      11      18      11      10      10       6      10
      10      11      10      10       3       3       1       1       1       1
       5       4       5       1       1       4       3       2       4       3
       2       2       1       1       3       2       3       2       1       1
       1       1
%FLAG NONBONDED_PARM_INDEX                                                      
%FORMAT(10I8)                                                                   
       1       2       4       7      11      16      22      29      37       2
       3       5       8      12      17      23      30      38       4       5
       6       9      13      18      24      31      39       7       8       9
      10      14      19      25      32      40      11      12      13      14
      15      20      26      33      41      16      17      18      19      20
      21      27      34      42      22      23      24      25      26      27
      28      35      43      29      30      31      32      33      34      35
      36      44      37      38      39      40      41      42      43      44
      45
%FLAG RESIDUE_LABEL                                                             
%FORMAT(20a4)                                                                   
MOL 
%FLAG RESIDUE_POINTER                                                           
%FORMAT(10I8)                                                                   
       1
%FLAG BOND_FORCE_CONSTANT                                                       
%FORMAT(5E16.8)                                                                 
  3.54250000E+02  3.60690000E+02  2.50200000E+02  3.10840000E+02  2.09820000E+02
  2.28890000E+02  3.45250000E+02  1.98120000E+02  3.44220000E+02  2.56920000E+02
  3.61740000E+02  6.14680000E+02
%FLAG BOND_EQUIL_VALUE                                                          
%FORMAT(5E16.8)                                                                 
  1.39860000E+00  1.08600000E+00  1.46960000E+00  1.40300000E+00  1.79130000E+00
  1.53540000E+00  1.09620000E+00  1.81340000E+00  1.09690000E+00  1.46130000E+00
  1.23110000E+00  1.46560000E+00
%FLAG ANGLE_FORCE_CONSTANT                                                      
%FORMAT(5E16.8)                                                                 
  6.36700000E+01  6.61200000E+01  6.30800000E+01  4.49000000E+01  6.71800000E+01
  9.90800000E+01  7.69400000E+01  9.26700000E+01  1.20430000E+02  5.98700000E+01
  4.32700000E+01  1.19730000E+02  6.48100000E+01  4.32800000E+01  7.64300000E+01
  4.79700000E+01  1.31020000E+02  1.57750000E+02  4.29100000E+01  3.58000000E+01
  3.56400000E+01
%FLAG ANGLE_EQUIL_VALUE                                                         
%FORMAT(5E16.8)                                                                 
  2.09474507E+00  2.07694270E+00  2.08409855E+00  2.09230160E+00  2.11411823E+00
  2.05530061E+00  2.08619295E+00  1.81374694E+00  1.89089052E+00  1.96576518E+00
  1.91427794E+00  1.87797508E+00  1.98060048E+00  1.91270715E+00  2.03435665E+00
  1.91427794E+00  2.18253516E+00  2.11848155E+00  1.88373467E+00  1.88024401E+00
  1.89455572E+00
%FLAG DIHEDRAL_FORCE_CONSTANT                                                   
%FORMAT(5E16.8)                                                                 
  3.62500000E+00  7.20000000E-01  1.26000000E+00  1.30000000E+00  7.53000000E-01
  0.00000000E+00  3.32000000E-01  1.44444444E-01  2.10000000E-01  1.55555556E-01
  1.30000000E-01  1.20000000E-01  1.10000000E+00
%FLAG DIHEDRAL_PERIODICITY                                                      
%FORMAT(5E16.8)                                                                 
  2.00000000E+00  2.00000000E+00  2.00000000E+00  2.00000000E+00  2.00000000E+00
  2.00000000E+00  2.00000000E+00  3.00000000E+00  3.00000000E+00  3.00000000E+00
  3.00000000E+00  3.00000000E+00  2.00000000E+00
%FLAG DIHEDRAL_PHASE                                                            
%FORMAT(5E16.8)                                                                 
  3.14159400E+00  3.14159400E+00  3.14159400E+00  3.14159400E+00  3.14159400E+00
  0.00000000E+00  0.00000000E+00  0.00000000E+00  0.00000000E+00  0.00000000E+00
  0.00000000E+00  0.00000000E+00  3.14159400E+00
%FLAG SCEE_SCALE_FACTOR                                                         
%FORMAT(5E16.8)                                                                 
  1.20000000E+00  1.20000000E+00  1.20000000E+00  1.20000000E+00  1.20000000E+00
  1.20000000E+00  1.20000000E+00  1.20000000E+00  1.20000000E+00  1.20000000E+00
  1.20000000E+00  1.20000000E+00  0.00000000E+00
%FLAG SCNB_SCALE_FACTOR                                                         
%FORMAT(5E16.8)                                                                 
  2.00000000E+00  2.00000000E+00  2.00000000E+00  2.00000000E+00  2.00000000E+00
  2.00000000E+00  2.00000000E+00  2.00000000E+00  2.00000000E+00  2.00000000E+00
  2.00000000E+00  2.00000000E+00  0.00000000E+00
%FLAG SOLTY                                                                     
%FORMAT(5E16.8)                                                                 
  0.00000000E+00  0.00000000E+00  0.00000000E+00  0.00000000E+00  0.00000000E+00
  0.00000000E+00  0.00000000E+00  0.00000000E+00  0.00000000E+00
%FLAG LENNARD_JONES_ACOEF                                                       
%FORMAT(5E16.8)                                                                 
  6.96551276E+05  8.43969952E+05  1.02073671E+06  8.17329084E+05  9.93125065E+05
  9.54790629E+05  7.10207765E+05  8.59569453E+05  8.34792752E+05  7.23647490E+05
  5.17507491E+05  6.30925504E+05  6.01376873E+05  5.29641935E+05  3.76435470E+05
  1.96483601E+06  2.34552991E+06  2.35979755E+06  1.98533726E+06  1.53564503E+06
  4.90327872E+06  7.52549148E+04  9.27554496E+04  8.59636060E+04  7.75325560E+04
  5.27277400E+04  2.44084252E+05  6.90855956E+03  8.12662403E+04  1.00235148E+05
  9.27277603E+04  8.37616145E+04  5.68021765E+04  2.65089806E+05  7.41026906E+03
  7.94617769E+03  5.63013422E+04  6.97998263E+04  6.37258620E+04  5.82112737E+04
  3.86646725E+04  1.91441225E+05  4.88692384E+03  5.22955465E+03  3.39005767E+03
%FLAG LENNARD_JONES_BCOEF                                                       
%FORMAT(5E16.8)                                                                 
  5.24668528E+02  5.90251928E+02  6.63431737E+02  6.90283231E+02  7.77671659E+02
  9.06156687E+02  5.11427129E+02  5.75038595E+02  6.73442883E+02  4.98353106E+02
  4.98871431E+02  5.62969425E+02  6.53166727E+02  4.87196412E+02  4.69350655E+02
  7.82392141E+02  8.73669684E+02  1.04140360E+03  7.59208492E+02  7.63007119E+02
  1.09738109E+03  1.09570372E+02  1.24325688E+02  1.42233990E+02  1.07361937E+02
  1.01173582E+02  1.75205783E+02  2.10929191E+01  1.21392023E+02  1.37787728E+02
  1.57492664E+02  1.18970742E+02  1.11953944E+02  1.94663459E+02  2.32899892E+01
  2.57122925E+01  1.01040256E+02  1.14981426E+02  1.30560951E+02  9.91793374E+01
  9.23664132E+01  1.65426719E+02  1.89134207E+01  2.08590256E+01  1.67944276E+01
%FLAG BONDS_INC_HYDROGEN                                                        
%FORMAT(10I8)                                                                   
       0      69       2       3      72       2      18      75       7      18
      78       7      18      81       7      21      84       7      21      87
       7      21      90       7      24      93       9      24      96       9
      24      99       9      27     102       7      27     105       7      30
     108       7      30     111       7      33     114       9      33     117
       9      36     120       9      36     123       9
%FLAG BONDS_WITHOUT_HYDROGEN                                                    
%FORMAT(10I8)                                                                   
       0       6       1       0      15       1       3       9       1       3
      15       1       6      12       1       6      42       3       9      12
       1       9      45       3      12      39       4      15      66       5
      18      27       6      21      30       6      24      66       8      27
      33       6      30      36       6      33      39      10      36      39
      10      42      48      11      42      51      11      45      54      11
      45      57      11      60      66      12      63      66      12
%FLAG ANGLES_INC_HYDROGEN                                                       
%FORMAT(10I8)                                                                   
       6       0      69       4       9       3      72       4      15       0
      69       4      15       3      72       4      18      27     102      11
      18      27     105      11      21      30     108      11      21      30
     111      11      27      18      75      11      27      18      78      11
      27      18      81      11      27      33     114      14      27      33
     117      14      30      21      84      11      30      21      87      11
      30      21      90      11      30      36     120      14      30      36
     123      14      33      27     102      11      33      27     105      11
      36      30     108      11      36      30     111      11      39      33
     114      16      39      33     117      16      39      36     120      16
      39      36     123      16      66      24      93      19      66      24
      96      19      66      24      99      19      75      18      78      20
      75      18      81      20      78      18      81      20      84      21
      87      20      84      21      90      20      87      21      90      20
      93      24      96      21      93      24      99      21      96      24
      99      21     102      27     105      20     108      30     111      20
     114      33     117      21     120      36     123      21
%FLAG ANGLES_WITHOUT_HYDROGEN                                                   
%FORMAT(10I8)                                                                   
       0       6      12       1       0       6      42       2       0      15
       3       1       0      15      66       3       3       9      12       1
       3       9      45       2       3      15      66       3       6       0
      15       1       6      12       9       1       6      12      39       5
       6      42      48       6       6      42      51       6       9       3
      15       1       9      12      39       5       9      45      54       6
       9      45      57       6      12       6      42       2      12       9
      45       2      12      39      33       7      12      39      36       7
      15      66      24       8      15      66      60       9      15      66
      63       9      18      27      33      10      21      30      36      10
      24      66      60      12      24      66      63      12      27      33
      39      13      30      36      39      13      33      39      36      15
      48      42      51      17      54      45      57      17      60      66
      63      18
%FLAG DIHEDRALS_INC_HYDROGEN                                                    
%FORMAT(10I8)                                                                   
       0      15       3      72       1      69       0      15       3       1
      69       0       6      12       1      12       9       3      72       1
      12      39      33     114       7      12      39      33     117       7
      12      39      36     120       7      12      39      36     123       7
      15      66      24      93       8      15      66      24      96       8
      15      66      24      99       8      18      27      33     114      10
      18      27      33     117      10      21      30      36     120      10
      21      30      36     123      10      33      27      18      75      11
      33      27      18      78      11      33      27      18      81      11
      33      39      36     120       6      33      39      36     123       6
      36      30      21      84      11      36      30      21      87      11
      36      30      21      90      11      36      39      33     114       6
      36      39      33     117       6      39      33      27     102      10
      39      33      27     105      10      39      36      30     108      10
      39      36      30     111      10      69       0       6      42       1
      45       9       3      72       1      60      66      24      93       8
      60      66      24      96       8      60      66      24      99       8
      63      66      24      93       8      63      66      24      96       8
      63      66      24      99       8      69       0      15      66       1
      66      15       3      72       1      75      18      27     102      12
      75      18      27     105      12      78      18      27     102      12
      78      18      27     105      12      81      18      27     102      12
      81      18      27     105      12      84      21      30     108      12
      84      21      30     111      12      87      21      30     108      12
      87      21      30     111      12      90      21      30     108      12
      90      21      30     111      12     102      27      33     114      10
     102      27      33     117      10     105      27      33     114      10
     105      27      33     117      10     108      30      36     120      10
     108      30      36     123      10     111      30      36     120      10
     111      30      36     123      10      69       0     -15      -6      13
       9      15      -3     -72      13
%FLAG DIHEDRALS_WITHOUT_HYDROGEN                                                
%FORMAT(10I8)                                                                   
       0       6      12       9       1       0       6      12      39       1
       0       6      42      48       2       0       6      42      51       2
       0      15      -3       9       1       0      15      66      24       3
       0      15      66      60       4       0      15      66      63       4
       3       9      12       6       1       3       9      12      39       1
       3       9      45      54       2       3       9      45      57       2
       6       0     -15       3       1       3      15      66      24       3
       3      15      66      60       4       3      15      66      63       4
       6       0      15      66       1       6      12       9      45       1
       6      12      39      33       5       6      12      39      36       5
       9       3      15      66       1       9      12       6      42       1
       9      12      39      33       5       9      12      39      36       5
      15       0       6      12       1      12       6      42      48       2
      12       6      42      51       2      12       9      -3      15       1
      12       9      45      54       2      12       9      45      57       2
      12      39      33      27       6      12      39      36      30       6
      15       0       6      42       1      15       3       9      45       1
      18      27      33      39       9      21      30      36      39       9
      27      33      39      36       6      30      36      39      33       6
      39      12       6      42       1      39      12       9      45       1
       0      12      -6     -42      13       3      12      -9     -45      13
       6       9     -12     -39      13       0       3     -15     -66      13
      33      36     -39     -12      13       6      48     -42     -51      13
       9      54     -45     -57      13
%FLAG EXCLUDED_ATOMS_LIST                                                       
%FORMAT(10I8)                                                                   
       2       3       4       5       6       9      14      15      17      18
      21      22      23      24      25       3       4       5       6       9
      14      16      19      20      21      22      23      24      25       4
       5       6      12      13      14      15      16      17      18      23
      24       5       6      12      13      14      15      16      19      20
      23      25       6      10      11      12      13      14      15      16
      17      18      19      20      24      25      39      40      41      42
       9      15      16      21      22      23      24      25      32      33
      34      10      12      14      26      27      28      35      36      39
      40      11      13      14      29      30      31      37      38      41
      42      21      22      23      32      33      34      12      13      14
      26      27      28      35      36      39      40      12      13      14
      29      30      31      37      38      41      42      13      14      26
      27      28      35      36      39      40      41      42      14      29
      30      31      37      38      39      40      41      42      15      16
      35      36      37      38      39      40      41      42      17      18
      24      19      20      25      18       0      20       0      22      23
      32      33      34      23      32      33      34      24      25      32
      33      34       0       0      27      28      35      36      28      35
      36      35      36      30      31      37      38      31      37      38
      37      38      33      34      34       0      36      39      40      39
      40      38      41      42      41      42      40       0      42       0
%FLAG HBOND_ACOEF                                                               
%FORMAT(5E16.8)                                                                 

%FLAG HBOND_BCOEF                                                               
%FORMAT(5E16.8)                                                                 

%FLAG HBCUT                                                                     
%FORMAT(5E16.8)                                                                 

%FLAG AMBER_ATOM_TYPE                                                           
%FORMAT(20a4)                                                                   
ca  ca  ca  ca  ca  ca  c3  c3  c3  c3  c3  c3  c3  nh  no  no  o   o   o   o   
o   o   sy  ha  ha  hc  hc  hc  hc  hc  hc  h1  h1  h1  hc  hc  hc  hc  h1  h1  
h1  h1  
%FLAG TREE_CHAIN_CLASSIFICATION                                                 
%FORMAT(20a4)                                                                   
BLA BLA BLA BLA BLA BLA BLA BLA BLA BLA BLA BLA BLA BLA BLA BLA BLA BLA BLA BLA 
BLA BLA BLA BLA BLA BLA BLA BLA BLA BLA BLA BLA BLA BLA BLA BLA BLA BLA BLA BLA 
BLA BLA 
%FLAG JOIN_ARRAY                                                                
%FORMAT(10I8)                                                                   
       0       0       0       0       0       0       0       0       0       0
       0       0       0       0       0       0       0       0       0       0
       0       0       0       0       0       0       0       0       0       0
       0       0       0       0       0       0       0       0       0       0
       0       0
%FLAG IROTAT                                                                    
%FORMAT(10I8)                                                                   
       0       0       0       0       0       0       0       0       0       0
       0       0       0       0       0       0       0       0       0       0
       0       0       0       0       0       0       0       0       0       0
       0       0       0       0       0       0       0       0       0       0
       0       0
%FLAG RADIUS_SET                                                                
%FORMAT(1a80)                                                                   
modified Bondi radii (mbondi)                                                   
%FLAG RADII                                                                     
%FORMAT(5E16.8)                                                                 
  1.70000000E+00  1.70000000E+00  1.70000000E+00  1.70000000E+00  1.70000000E+00
  1.70000000E+00  1.70000000E+00  1.70000000E+00  1.70000000E+00  1.70000000E+00
  1.70000000E+00  1.70000000E+00  1.70000000E+00  1.55000000E+00  1.55000000E+00
  1.55000000E+00  1.50000000E+00  1.50000000E+00  1.50000000E+00  1.50000000E+00
  1.50000000E+00  1.50000000E+00  1.80000000E+00  1.30000000E+00  1.30000000E+00
  1.30000000E+00  1.30000000E+00  1.30000000E+00  1.30000000E+00  1.30000000E+00
  1.30000000E+00  1.30000000E+00  1.30000000E+00  1.30000000E+00  1.30000000E+00
  1.30000000E+00  1.30000000E+00  1.30000000E+00  1.30000000E+00  1.30000000E+00
  1.30000000E+00  1.30000000E+00
%FLAG SCREEN                                                                    
%FORMAT(5E16.8)                                                                 
  7.20000000E-01  7.20000000E-01  7.20000000E-01  7.20000000E-01  7.20000000E-01
  7.20000000E-01  7.20000000E-01  7.20000000E-01  7.20000000E-01  7.20000000E-01
  7.20000000E-01  7.20000000E-01  7.20000000E-01  7.90000000E-01  7.90000000E-01
  7.90000000E-01  8.50000000E-01  8.50000000E-01  8.50000000E-01  8.50000000E-01
  8.50000000E-01  8.50000000E-01  9.60000000E-01  8.50000000E-01  8.50000000E-01
  8.50000000E-01  8.50000000E-01  8.50000000E-01  8.50000000E-01  8.50000000E-01
  8.50000000E-01  8.50000000E-01  8.50000000E-01  8.50000000E-01  8.50000000E-01
  8.50000000E-01  8.50000000E-01  8.50000000E-01  8.50000000E-01  8.50000000E-01
  8.50000000E-01  8.50000000E-01
%FLAG IPOL                                                                      
%FORMAT(1I8)                                                                    
       0
