CUP08040_AM1BCC_v1_0
    42
   4.0860000  -1.9690000  -4.0930000   4.6520000  -1.6550000  -1.7650000
   3.1950000  -0.8870000  -3.9910000   3.7510000  -0.5740000  -1.7060000
   2.9680000  -0.1570000  -2.8020000   4.7960000  -2.3560000  -2.9610000
  -1.1940000  -0.5700000  -1.2720000   2.4500000   4.4800000  -4.0010000
   4.9790000  -5.1300000  -2.7010000   0.0390000  -0.5050000  -2.1590000
   1.8200000   3.1040000  -3.8520000   0.8630000   0.7540000  -1.8770000
   2.6140000   2.2300000  -2.8770000   2.0160000   0.8760000  -2.7990000
   2.4670000  -0.5410000  -5.1950000   3.6830000   0.1100000  -0.4320000
   1.4740000  -1.2320000  -5.4610000   2.9430000   0.3580000  -5.9000000
   3.1290000  -0.4990000   0.4930000   4.2170000   1.2220000  -0.3540000
   6.3880000  -3.7720000  -4.4470000   6.9140000  -3.5100000  -1.9920000
   5.9590000  -3.6980000  -3.0660000   4.2190000  -2.4860000  -5.0430000
   5.2370000  -1.9300000  -0.8870000  -0.9150000  -0.5860000  -0.2130000
  -1.8470000   0.2920000  -1.4430000  -1.7670000  -1.4780000  -1.4860000
   2.4840000   5.0020000  -3.0400000   3.4700000   4.4050000  -4.3890000
   1.8660000   5.0900000  -4.6980000   5.6290000  -6.0060000  -2.7450000
   4.5590000  -5.0290000  -1.6980000   4.1860000  -5.2190000  -3.4470000
  -0.2730000  -0.5180000  -3.2100000   0.6400000  -1.4060000  -1.9910000
   1.7700000   2.6230000  -4.8350000   0.7870000   3.2220000  -3.5070000
   0.2080000   1.6220000  -2.0150000   1.1810000   0.7830000  -0.8310000
   3.6550000   2.1790000  -3.2240000   2.6260000   2.6970000  -1.8850000
