mobley_3266352_GMX.gro created by acpype (v: 2023.10.27) on Thu May 21 00:01:15 2026
10688
    1MOL     C1    1   2.386   2.344   2.068
    1MOL     C2    2   2.481   2.420   2.137
    1MOL     C3    3   2.291   2.271   2.138
    1MOL     C4    4   2.479   2.423   2.277
    1MOL     C5    5   2.289   2.274   2.278
    1MOL     C6    6   2.383   2.350   2.347
    1MOL     C7    7   2.282   2.278   2.562
    1MOL     C8    8   2.480   2.431   2.561
    1MOL     C9    9   2.430   2.572   2.581
    1MOL     N1   10   2.381   2.353   2.488
    1MOL     F1   11   2.522   2.645   2.648
    1MOL     F2   12   2.406   2.633   2.463
    1MOL     F3   13   2.316   2.574   2.653
    1MOL     H1   14   2.388   2.342   1.959
    1MOL     H2   15   2.555   2.477   2.083
    1MOL     H3   16   2.217   2.212   2.084
    1MOL     H4   17   2.553   2.483   2.330
    1MOL     H5   18   2.214   2.217   2.331
    1MOL     H6   19   2.185   2.328   2.557
    1MOL     H7   20   2.312   2.268   2.667
    1MOL     H8   21   2.271   2.178   2.519
    1MOL     H9   22   2.499   2.383   2.658
    1MOL    H10   23   2.574   2.432   2.505
    2SOL     OW   24   0.230   0.628   0.113
    2SOL    HW1   25   0.137   0.626   0.150
    2SOL    HW2   26   0.231   0.589   0.021
    3SOL     OW   27   0.225   0.275   0.996
    3SOL    HW1   28   0.260   0.258   1.088
    3SOL    HW2   29   0.137   0.230   0.984
    4SOL     OW   30   0.019   0.368   0.647
    4SOL    HW1   31  -0.063   0.411   0.686
    4SOL    HW2   32  -0.009   0.295   0.584
    5SOL     OW   33   0.569   1.275   1.165
    5SOL    HW1   34   0.476   1.268   1.128
    5SOL    HW2   35   0.580   1.364   1.209
    6SOL     OW   36   1.555   1.511   0.703
    6SOL    HW1   37   1.498   1.495   0.784
    6SOL    HW2   38   1.496   1.521   0.623
    7SOL     OW   39   1.135   0.703   0.717
    7SOL    HW1   40   1.192   0.781   0.692
    7SOL    HW2   41   1.075   0.729   0.793
    8SOL     OW   42   1.755   0.607   0.231
    8SOL    HW1   43   1.743   0.594   0.132
    8SOL    HW2   44   1.725   0.526   0.280
    9SOL     OW   45   0.768   1.144   1.023
    9SOL    HW1   46   0.690   1.161   1.083
    9SOL    HW2   47   0.802   1.231   0.987
   10SOL     OW   48   0.850   0.798   1.823
   10SOL    HW1   49   0.846   0.874   1.888
   10SOL    HW2   50   0.872   0.834   1.732
   11SOL     OW   51   0.685   1.012   0.665
   11SOL    HW1   52   0.754   0.996   0.735
   11SOL    HW2   53   0.612   1.069   0.703
   12SOL     OW   54   0.686   1.161   1.803
   12SOL    HW1   55   0.746   1.240   1.817
   12SOL    HW2   56   0.600   1.192   1.762
   13SOL     OW   57   0.335   1.435   1.061
   13SOL    HW1   58   0.257   1.404   1.008
   13SOL    HW2   59   0.393   1.493   1.004
   14SOL     OW   60   1.460   1.505   1.339
   14SOL    HW1   61   1.484   1.599   1.365
   14SOL    HW2   62   1.444   1.451   1.421
   15SOL     OW   63   0.438   0.392   1.499
   15SOL    HW1   64   0.520   0.336   1.508
   15SOL    HW2   65   0.357   0.334   1.503
   16SOL     OW   66   1.603   0.447   0.737
   16SOL    HW1   67   1.529   0.493   0.687
   16SOL    HW2   68   1.654   0.515   0.790
   17SOL     OW   69   0.231   1.713   0.483
   17SOL    HW1   70   0.265   1.790   0.537
   17SOL    HW2   71   0.275   1.713   0.393
   18SOL     OW   72   1.127   1.341   1.690
   18SOL    HW1   73   1.174   1.341   1.778
   18SOL    HW2   74   1.079   1.254   1.679
   19SOL     OW   75   0.230   1.434   0.538
   19SOL    HW1   76   0.204   1.530   0.538
   19SOL    HW2   77   0.159   1.380   0.583
   20SOL     OW   78   0.240   1.091   0.886
   20SOL    HW1   79   0.254   1.007   0.938
   20SOL    HW2   80   0.185   1.155   0.941
   21SOL     OW   81   0.620   1.786   1.439
   21SOL    HW1   82   0.528   1.769   1.474
   21SOL    HW2   83   0.648   1.878   1.465
   22SOL     OW   84   0.606   0.964   0.123
   22SOL    HW1   85   0.613   1.048   0.069
   22SOL    HW2   86   0.652   0.977   0.211
   23SOL     OW   87   1.594   0.114   1.480
   23SOL    HW1   88   1.576   0.181   1.408
   23SOL    HW2   89   1.591   0.160   1.569
   24SOL     OW   90   0.122   0.643   0.563
   24SOL    HW1   91   0.077   0.555   0.580
   24SOL    HW2   92   0.121   0.697   0.647
   25SOL     OW   93   1.842   1.767   0.359
   25SOL    HW1   94   1.896   1.738   0.439
   25SOL    HW2   95   1.872   1.857   0.330
   26SOL     OW   96   0.027   1.596   0.117
   26SOL    HW1   97   0.008   1.500   0.138
   26SOL    HW2   98  -0.006   1.654   0.192
   27SOL     OW   99   1.689   0.922   0.612
   27SOL    HW1  100   1.784   0.893   0.620
   27SOL    HW2  101   1.681   0.987   0.537
   28SOL     OW  102   1.641   1.108   0.432
   28SOL    HW1  103   1.727   1.110   0.380
   28SOL    HW2  104   1.655   1.155   0.520
   29SOL     OW  105   0.113   0.737   1.597
   29SOL    HW1  106   0.201   0.724   1.642
   29SOL    HW2  107   0.100   0.834   1.575
   30SOL     OW  108   0.613   1.365   0.726
   30SOL    HW1  109   0.564   1.278   0.735
   30SOL    HW2  110   0.590   1.408   0.639
   31SOL     OW  111   1.293   1.228   1.423
   31SOL    HW1  112   1.330   1.155   1.365
   31SOL    HW2  113   1.345   1.233   1.508
   32SOL     OW  114   0.809   0.004   0.502
   32SOL    HW1  115   0.849   0.095   0.493
   32SOL    HW2  116   0.709   0.012   0.508
   33SOL     OW  117   0.197   0.976   1.264
   33SOL    HW1  118   0.286   0.931   1.250
   33SOL    HW2  119   0.124   0.911   1.245
   34SOL     OW  120   1.525   0.999   0.190
   34SOL    HW1  121   1.462   0.923   0.203
   34SOL    HW2  122   1.573   1.017   0.276
   35SOL     OW  123   1.187   1.792   1.616
   35SOL    HW1  124   1.211   1.852   1.540
   35SOL    HW2  125   1.194   1.697   1.586
   36SOL     OW  126   0.317   0.251   1.801
   36SOL    HW1  127   0.388   0.322   1.807
   36SOL    HW2  128   0.229   0.290   1.829
   37SOL     OW  129   1.466   1.417   0.953
   37SOL    HW1  130   1.407   1.423   1.033
   37SOL    HW2  131   1.451   1.329   0.907
   38SOL     OW  132   1.667   1.714   0.572
   38SOL    HW1  133   1.626   1.691   0.484
   38SOL    HW2  134   1.649   1.640   0.637
   39SOL     OW  135   0.598   0.729   0.270
   39SOL    HW1  136   0.622   0.798   0.202
   39SOL    HW2  137   0.520   0.762   0.324
   40SOL     OW  138   1.281   0.345   0.944
   40SOL    HW1  139   1.195   0.295   0.931
   40SOL    HW2  140   1.343   0.291   1.000
   41SOL     OW  141   1.576   1.662   0.307
   41SOL    HW1  142   1.665   1.708   0.310
   41SOL    HW2  143   1.555   1.638   0.212
   42SOL     OW  144   0.807   0.605   1.465
   42SOL    HW1  145   0.760   0.602   1.554
   42SOL    HW2  146   0.756   0.550   1.399
   43SOL     OW  147   1.394   0.469   1.674
   43SOL    HW1  148   1.374   0.512   1.762
   43SOL    HW2  149   1.472   0.407   1.683
   44SOL     OW  150   0.973   0.890   1.572
   44SOL    HW1  151   1.019   0.806   1.543
   44SOL    HW2  152   0.917   0.924   1.497
   45SOL     OW  153   0.991   0.410   1.242
   45SOL    HW1  154   0.914   0.444   1.296
   45SOL    HW2  155   0.957   0.359   1.163
   46SOL     OW  156   1.041   0.701   0.429
   46SOL    HW1  157   1.067   0.697   0.525
   46SOL    HW2  158   0.956   0.650   0.415
   47SOL     OW  159   0.076   0.811   0.789
   47SOL    HW1  160   0.175   0.799   0.798
   47SOL    HW2  161   0.052   0.906   0.810
   48SOL     OW  162   0.130   1.821   1.571
   48SOL    HW1  163   0.120   1.806   1.670
   48SOL    HW2  164   0.044   1.857   1.535
   49SOL     OW  165   0.865   0.348   0.195
   49SOL    HW1  166   0.924   0.411   0.146
   49SOL    HW2  167   0.884   0.254   0.166
   50SOL     OW  168   1.719   0.585   1.831
   50SOL    HW1  169   1.693   0.674   1.795
   50SOL    HW2  170   1.717   0.517   1.758
   51SOL     OW  171   1.362   1.144   0.545
   51SOL    HW1  172   1.445   1.115   0.497
   51SOL    HW2  173   1.313   1.211   0.489
   52SOL     OW  174   0.550   0.196   0.885
   52SOL    HW1  175   0.545   0.191   0.985
   52SOL    HW2  176   0.552   0.292   0.856
   53SOL     OW  177   1.008   1.456   0.477
   53SOL    HW1  178   0.962   1.528   0.425
   53SOL    HW2  179   1.004   1.476   0.575
   54SOL     OW  180   0.351   1.801   0.853
   54SOL    HW1  181   0.401   1.715   0.859
   54SOL    HW2  182   0.416   1.878   0.850
   55SOL     OW  183   1.795   1.066   0.873
   55SOL    HW1  184   1.733   1.051   0.797
   55SOL    HW2  185   1.743   1.077   0.958
   56SOL     OW  186   1.227   1.550   1.506
   56SOL    HW1  187   1.233   1.473   1.570
   56SOL    HW2  188   1.175   1.524   1.426
   57SOL     OW  189   0.321   0.943   0.242
   57SOL    HW1  190   0.403   0.982   0.200
   57SOL    HW2  191   0.294   0.861   0.193
   58SOL     OW  192   1.458   0.735   0.728
   58SOL    HW1  193   1.453   0.670   0.803
   58SOL    HW2  194   1.538   0.794   0.741
   59SOL     OW  195   0.461   1.266   1.727
   59SOL    HW1  196   0.411   1.267   1.641
   59SOL    HW2  197   0.398   1.248   1.803
   60SOL     OW  198   1.111   1.776   0.237
   60SOL    HW1  199   1.051   1.714   0.287
   60SOL    HW2  200   1.142   1.732   0.152
   61SOL     OW  201   0.202   0.285   1.498
   61SOL    HW1  202   0.122   0.345   1.485
   61SOL    HW2  203   0.192   0.236   1.584
   62SOL     OW  204   1.632   1.377   0.081
   62SOL    HW1  205   1.600   1.471   0.071
   62SOL    HW2  206   1.556   1.314   0.069
   63SOL     OW  207   0.464   1.743   0.323
   63SOL    HW1  208   0.497   1.782   0.409
   63SOL    HW2  209   0.540   1.736   0.258
   64SOL     OW  210   1.400   0.107   0.426
   64SOL    HW1  211   1.376   0.070   0.336
   64SOL    HW2  212   1.499   0.123   0.430
   65SOL     OW  213   0.249   1.785   1.241
   65SOL    HW1  214   0.306   1.720   1.291
   65SOL    HW2  215   0.233   1.752   1.148
   66SOL     OW  216   0.940   1.698   0.904
   66SOL    HW1  217   1.020   1.641   0.925
   66SOL    HW2  218   0.891   1.658   0.827
   67SOL     OW  219   0.382   0.700   0.480
   67SOL    HW1  220   0.427   0.610   0.477
   67SOL    HW2  221   0.288   0.689   0.513
   68SOL     OW  222   1.547   0.222   1.729
   68SOL    HW1  223   1.542   0.259   1.821
   68SOL    HW2  224   1.475   0.153   1.717
   69SOL     OW  225   0.614   0.122   0.117
   69SOL    HW1  226   0.712   0.100   0.124
   69SOL    HW2  227   0.583   0.105   0.024
   70SOL     OW  228   0.781   0.264   1.749
   70SOL    HW1  229   0.848   0.203   1.792
   70SOL    HW2  230   0.708   0.283   1.814
   71SOL     OW  231   0.888   1.514   1.195
   71SOL    HW1  232   0.865   1.489   1.101
   71SOL    HW2  233   0.949   1.445   1.234
   72SOL     OW  234   1.351   0.590   1.433
   72SOL    HW1  235   1.379   0.547   1.518
   72SOL    HW2  236   1.376   0.686   1.434
   73SOL     OW  237   0.803   1.402   0.924
   73SOL    HW1  238   0.893   1.416   0.882
   73SOL    HW2  239   0.732   1.404   0.853
   74SOL     OW  240   0.922   0.503   0.899
   74SOL    HW1  241   0.897   0.494   0.803
   74SOL    HW2  242   0.970   0.421   0.930
   75SOL     OW  243   0.539   0.064   0.512
   75SOL    HW1  244   0.458   0.065   0.570
   75SOL    HW2  245   0.542   0.147   0.457
   76SOL     OW  246   1.434   1.188   0.041
   76SOL    HW1  247   1.466   1.112   0.098
   76SOL    HW2  248   1.342   1.215   0.071
   77SOL     OW  249   0.297   0.035   0.171
   77SOL    HW1  250   0.346   0.119   0.150
   77SOL    HW2  251   0.359  -0.030   0.216
   78SOL     OW  252   0.935   0.236   0.480
   78SOL    HW1  253   0.887   0.277   0.402
   78SOL    HW2  254   1.034   0.234   0.461
   79SOL     OW  255   1.076   0.683   1.464
   79SOL    HW1  256   0.996   0.622   1.467
   79SOL    HW2  257   1.157   0.630   1.440
   80SOL     OW  258   1.227   1.570   0.793
   80SOL    HW1  259   1.248   1.644   0.728
   80SOL    HW2  260   1.295   1.570   0.866
   81SOL     OW  261   0.459   1.152   0.741
   81SOL    HW1  262   0.388   1.125   0.806
   81SOL    HW2  263   0.433   1.124   0.648
   82SOL     OW  264   1.271   1.797   0.591
   82SOL    HW1  265   1.315   1.861   0.527
   82SOL    HW2  266   1.221   1.849   0.661
   83SOL     OW  267   1.032   0.549   0.016
   83SOL    HW1  268   0.991   0.631  -0.023
   83SOL    HW2  269   1.096   0.575   0.089
   84SOL     OW  270   0.078   0.556   1.386
   84SOL    HW1  271   0.170   0.555   1.345
   84SOL    HW2  272   0.072   0.630   1.453
   85SOL     OW  273   0.561   0.222   1.147
   85SOL    HW1  274   0.599   0.138   1.184
   85SOL    HW2  275   0.473   0.241   1.191
   86SOL     OW  276   0.866   0.454   0.642
   86SOL    HW1  277   0.834   0.526   0.580
   86SOL    HW2  278   0.890   0.373   0.589
   87SOL     OW  279   1.017   0.039   0.753
   87SOL    HW1  280   0.945   0.044   0.684
   87SOL    HW2  281   0.993  -0.030   0.822
   88SOL     OW  282   1.429   1.173   0.867
   88SOL    HW1  283   1.374   1.089   0.860
   88SOL    HW2  284   1.455   1.202   0.775
   89SOL     OW  285   1.466   0.590   0.992
   89SOL    HW1  286   1.436   0.495   0.999
   89SOL    HW2  287   1.539   0.606   1.058
   90SOL     OW  288   1.857   0.833   0.377
   90SOL    HW1  289   1.899   0.769   0.441
   90SOL    HW2  290   1.819   0.782   0.299
   91SOL     OW  291   0.488   1.385   0.174
   91SOL    HW1  292   0.401   1.370   0.221
   91SOL    HW2  293   0.471   1.411   0.079
   92SOL     OW  294   1.664   1.280   0.657
   92SOL    HW1  295   1.763   1.288   0.671
   92SOL    HW2  296   1.619   1.364   0.688
   93SOL     OW  297   1.390   0.575   0.078
   93SOL    HW1  298   1.336   0.554   0.159
   93SOL    HW2  299   1.481   0.534   0.087
   94SOL     OW  300   0.527   0.256   0.328
   94SOL    HW1  301   0.554   0.197   0.253
   94SOL    HW2  302   0.527   0.351   0.297
   95SOL     OW  303   1.754   1.223   1.588
   95SOL    HW1  304   1.845   1.184   1.575
   95SOL    HW2  305   1.762   1.319   1.612
   96SOL     OW  306   1.064   1.347   1.340
   96SOL    HW1  307   0.984   1.324   1.395
   96SOL    HW2  308   1.147   1.321   1.389
   97SOL     OW  309   1.592   1.629   1.625
   97SOL    HW1  310   1.619   1.663   1.535
   97SOL    HW2  311   1.671   1.591   1.671
   98SOL     OW  312   1.111   1.195   1.100
   98SOL    HW1  313   1.071   1.239   1.181
   98SOL    HW2  314   1.070   1.232   1.017
   99SOL     OW  315   1.638   1.099   1.079
   99SOL    HW1  316   1.643   1.180   1.138
   99SOL    HW2  317   1.552   1.101   1.028
  100SOL     OW  318   0.915   0.089   1.402
  100SOL    HW1  319   0.940   0.069   1.307
  100SOL    HW2  320   0.987   0.145   1.444
  101SOL     OW  321   0.980   1.116   1.719
  101SOL    HW1  322   0.881   1.122   1.729
  101SOL    HW2  323   1.003   1.036   1.663
  102SOL     OW  324   0.705   1.050   0.368
  102SOL    HW1  325   0.691   1.057   0.467
  102SOL    HW2  326   0.789   0.999   0.350
  103SOL     OW  327   0.410   0.813   1.251
  103SOL    HW1  328   0.496   0.825   1.301
  103SOL    HW2  329   0.368   0.726   1.278
  104SOL     OW  330   1.274   0.386   1.262
  104SOL    HW1  331   1.295   0.460   1.326
  104SOL    HW2  332   1.185   0.403   1.219
  105SOL     OW  333   0.064   1.564   1.331
  105SOL    HW1  334   0.018   1.646   1.297
  105SOL    HW2  335   0.162   1.583   1.340
  106SOL     OW  336   0.367   1.100   0.501
  106SOL    HW1  337   0.360   1.183   0.445
  106SOL    HW2  338   0.371   1.020   0.441
  107SOL     OW  339   0.566   0.537   0.865
  107SOL    HW1  340   0.578   0.603   0.791
  107SOL    HW2  341   0.612   0.571   0.948
  108SOL     OW  342   1.252   1.348   0.388
  108SOL    HW1  343   1.302   1.425   0.428
  108SOL    HW2  344   1.157   1.350   0.420
  109SOL     OW  345   1.272   1.445   1.142
  109SOL    HW1  346   1.319   1.458   1.229
  109SOL    HW2  347   1.206   1.371   1.151
  110SOL     OW  348   1.582   0.639   0.472
  110SOL    HW1  349   1.551   0.700   0.545
  110SOL    HW2  350   1.632   0.691   0.403
  111SOL     OW  351   0.354   1.510   1.329
  111SOL    HW1  352   0.333   1.466   1.242
  111SOL    HW2  353   0.451   1.536   1.332
  112SOL     OW  354   0.402   0.751   1.598
  112SOL    HW1  355   0.470   0.806   1.551
  112SOL    HW2  356   0.442   0.663   1.625
  113SOL     OW  357   1.587   0.779   1.670
  113SOL    HW1  358   1.495   0.817   1.665
  113SOL    HW2  359   1.647   0.826   1.605
  114SOL     OW  360   1.013   0.105   1.770
  114SOL    HW1  361   1.019   0.190   1.718
  114SOL    HW2  362   1.045   0.029   1.713
  115SOL     OW  363   0.504   0.050   1.740
  115SOL    HW1  364   0.462  -0.007   1.670
  115SOL    HW2  365   0.438   0.119   1.772
  116SOL     OW  366   0.573   0.870   1.029
  116SOL    HW1  367   0.617   0.959   1.020
  116SOL    HW2  368   0.510   0.870   1.106
  117SOL     OW  369   1.360   0.862   1.045
  117SOL    HW1  370   1.285   0.862   0.979
  117SOL    HW2  371   1.397   0.770   1.054
  118SOL     OW  372   1.209   0.525   0.275
  118SOL    HW1  373   1.222   0.441   0.329
  118SOL    HW2  374   1.180   0.599   0.335
  119SOL     OW  375   0.307   0.213   1.231
  119SOL    HW1  376   0.284   0.250   1.321
  119SOL    HW2  377   0.277   0.118   1.225
  120SOL     OW  378   0.037   1.310   1.282
  120SOL    HW1  379   0.090   1.261   1.350
  120SOL    HW2  380   0.059   1.408   1.287
  121SOL     OW  381   0.732   0.634   1.064
  121SOL    HW1  382   0.791   0.608   0.988
  121SOL    HW2  383   0.704   0.730   1.053
  122SOL     OW  384   1.728   0.935   1.854
  122SOL    HW1  385   1.682   0.928   1.765
  122SOL    HW2  386   1.666   0.979   1.920
  123SOL     OW  387   0.307   0.063   0.618
  123SOL    HW1  388   0.296   0.157   0.651
  123SOL    HW2  389   0.302   0.000   0.695
  124SOL     OW  390   1.622   0.367   0.374
  124SOL    HW1  391   1.624   0.291   0.438
  124SOL    HW2  392   1.574   0.444   0.414
  125SOL     OW  393   1.023   0.766   0.966
  125SOL    HW1  394   1.038   0.787   1.062
  125SOL    HW2  395   0.993   0.671   0.957
  126SOL     OW  396   0.980   1.573   1.700
  126SOL    HW1  397   0.960   1.617   1.612
  126SOL    HW2  398   1.019   1.482   1.684
  127SOL     OW  399   1.859   1.518   1.605
  127SOL    HW1  400   1.873   1.545   1.510
  127SOL    HW2  401   1.942   1.540   1.658
  128SOL     OW  402   0.350   0.898   1.804
  128SOL    HW1  403   0.426   0.942   1.852
  128SOL    HW2  404   0.385   0.851   1.722
  129SOL     OW  405   1.540   0.274   0.125
  129SOL    HW1  406   1.479   0.199   0.148
  129SOL    HW2  407   1.562   0.326   0.208
  130SOL     OW  408   1.303   0.838   0.042
  130SOL    HW1  409   1.337   0.745   0.057
  130SOL    HW2  410   1.321   0.865  -0.053
  131SOL     OW  411   1.068   1.333   0.849
  131SOL    HW1  412   1.075   1.249   0.794
  131SOL    HW2  413   1.130   1.402   0.813
  132SOL     OW  414   0.319   0.810   0.949
  132SOL    HW1  415   0.412   0.846   0.954
  132SOL    HW2  416   0.313   0.725   1.001
  133SOL     OW  417   0.339   0.509   1.006
  133SOL    HW1  418   0.287   0.426   0.989
  133SOL    HW2  419   0.416   0.514   0.942
  134SOL     OW  420   1.138   0.380   1.678
  134SOL    HW1  421   1.093   0.443   1.742
  134SOL    HW2  422   1.231   0.411   1.661
  135SOL     OW  423   1.160   0.207   1.477
  135SOL    HW1  424   1.160   0.271   1.554
  135SOL    HW2  425   1.188   0.255   1.394
  136SOL     OW  426   0.008   1.326   0.200
  136SOL    HW1  427  -0.085   1.347   0.169
  136SOL    HW2  428   0.018   1.227   0.213
  137SOL     OW  429   0.088   1.801   0.927
  137SOL    HW1  430   0.046   1.715   0.900
  137SOL    HW2  431   0.182   1.804   0.893
  138SOL     OW  432   0.504   1.568   0.910
  138SOL    HW1  433   0.570   1.642   0.919
  138SOL    HW2  434   0.548   1.489   0.868
  139SOL     OW  435   1.002   0.796   1.238
  139SOL    HW1  436   1.043   0.764   1.324
  139SOL    HW2  437   0.906   0.769   1.235
  140SOL     OW  438   0.040   0.544   1.114
  140SOL    HW1  439   0.125   0.511   1.073
  140SOL    HW2  440   0.053   0.559   1.212
  141SOL     OW  441   0.189   0.520   1.722
  141SOL    HW1  442   0.248   0.480   1.652
  141SOL    HW2  443   0.131   0.591   1.681
  142SOL     OW  444   1.369   0.950   1.660
  142SOL    HW1  445   1.408   1.039   1.680
  142SOL    HW2  446   1.379   0.930   1.563
  143SOL     OW  447   0.815   0.572   0.325
  143SOL    HW1  448   0.822   0.483   0.279
  143SOL    HW2  449   0.721   0.606   0.317
  144SOL     OW  450   1.657   0.604   1.206
  144SOL    HW1  451   1.619   0.535   1.268
  144SOL    HW2  452   1.739   0.568   1.162
  145SOL     OW  453   0.252   1.564   1.744
  145SOL    HW1  454   0.222   1.621   1.820
  145SOL    HW2  455   0.245   1.467   1.770
  146SOL     OW  456   0.671   0.464   1.269
  146SOL    HW1  457   0.637   0.375   1.239
  146SOL    HW2  458   0.697   0.518   1.189
  147SOL     OW  459   0.930   1.678   1.465
  147SOL    HW1  460   0.906   1.660   1.370
  147SOL    HW2  461   0.960   1.772   1.475
  148SOL     OW  462   0.473   0.500   0.191
  148SOL    HW1  463   0.534   0.580   0.195
  148SOL    HW2  464   0.378   0.531   0.198
  149SOL     OW  465   0.159   1.137   1.466
  149SOL    HW1  466   0.181   1.076   1.542
  149SOL    HW2  467   0.169   1.088   1.380
  150SOL     OW  468   1.347   1.059   1.234
  150SOL    HW1  469   1.371   0.996   1.160
  150SOL    HW2  470   1.257   1.099   1.216
  151SOL     OW  471   1.302   0.855   0.309
  151SOL    HW1  472   1.216   0.824   0.351
  151SOL    HW2  473   1.298   0.841   0.210
  152SOL     OW  474   1.759   1.747   1.154
  152SOL    HW1  475   1.820   1.777   1.081
  152SOL    HW2  476   1.721   1.658   1.132
  153SOL     OW  477   1.252   1.731   1.128
  153SOL    HW1  478   1.336   1.736   1.074
  153SOL    HW2  479   1.229   1.635   1.146
  154SOL     OW  480   0.083   1.258   1.022
  154SOL    HW1  481   0.078   1.257   1.122
  154SOL    HW2  482   0.000   1.217   0.984
  155SOL     OW  483   0.688   1.662   1.716
  155SOL    HW1  484   0.632   1.743   1.725
  155SOL    HW2  485   0.740   1.666   1.630
  156SOL     OW  486   0.903   0.086   0.133
  156SOL    HW1  487   0.954   0.087   0.047
  156SOL    HW2  488   0.959   0.044   0.204
  157SOL     OW  489   1.726   0.135   0.523
  157SOL    HW1  490   1.799   0.118   0.456
  157SOL    HW2  491   1.695   0.048   0.561
  158SOL     OW  492   1.388   1.573   0.477
  158SOL    HW1  493   1.455   1.585   0.403
  158SOL    HW2  494   1.348   1.662   0.500
  159SOL     OW  495   0.130   1.794   1.851
  159SOL    HW1  496   0.089   1.720   1.904
  159SOL    HW2  497   0.194   1.845   1.909
  160SOL     OW  498   1.280   0.927   0.672
  160SOL    HW1  499   1.340   0.846   0.674
  160SOL    HW2  500   1.320   0.996   0.612
  161SOL     OW  501   0.830   1.273   1.422
  161SOL    HW1  502   0.825   1.306   1.517
  161SOL    HW2  503   0.744   1.292   1.376
  162SOL     OW  504   0.672   1.616   0.154
  162SOL    HW1  505   0.681   1.626   0.055
  162SOL    HW2  506   0.632   1.527   0.175
  163SOL     OW  507   1.650   1.720   1.394
  163SOL    HW1  508   1.703   1.730   1.310
  163SOL    HW2  509   1.623   1.810   1.428
  164SOL     OW  510   1.841   0.175   0.963
  164SOL    HW1  511   1.880   0.090   0.927
  164SOL    HW2  512   1.743   0.177   0.944
  165SOL     OW  513   0.263   0.326   0.720
  165SOL    HW1  514   0.184   0.377   0.686
  165SOL    HW2  515   0.254   0.311   0.818
  166SOL     OW  516   1.194   1.612   0.031
  166SOL    HW1  517   1.200   1.519   0.068
  166SOL    HW2  518   1.135   1.612  -0.049
  167SOL     OW  519   0.822   1.002   1.372
  167SOL    HW1  520   0.862   1.001   1.280
  167SOL    HW2  521   0.832   1.094   1.412
  168SOL     OW  522   0.916   0.910   0.291
  168SOL    HW1  523   0.979   0.948   0.223
  168SOL    HW2  524   0.956   0.827   0.330
  169SOL     OW  525   1.504   1.607   0.044
  169SOL    HW1  526   1.412   1.644   0.051
  169SOL    HW2  527   1.542   1.627  -0.046
  170SOL     OW  528   0.372   1.288   1.490
  170SOL    HW1  529   0.359   1.381   1.456
  170SOL    HW2  530   0.288   1.236   1.477
  171SOL     OW  531   1.614   1.292   1.289
  171SOL    HW1  532   1.674   1.295   1.369
  171SOL    HW2  533   1.539   1.356   1.302
  172SOL     OW  534   1.039   1.098   0.696
  172SOL    HW1  535   0.969   1.051   0.750
  172SOL    HW2  536   1.098   1.030   0.653
  173SOL     OW  537   1.014   0.236   0.971
  173SOL    HW1  538   1.006   0.200   0.878
  173SOL    HW2  539   1.012   0.160   1.036
  174SOL     OW  540   0.590   1.487   0.491
  174SOL    HW1  541   0.632   1.429   0.421
  174SOL    HW2  542   0.546   1.566   0.447
  175SOL     OW  543   1.709   0.385   1.381
  175SOL    HW1  544   1.782   0.454   1.385
  175SOL    HW2  545   1.737   0.310   1.322
  176SOL     OW  546   0.255   1.348   0.290
  176SOL    HW1  547   0.159   1.349   0.263
  176SOL    HW2  548   0.267   1.401   0.374
  177SOL     OW  549   0.105   1.013   1.726
  177SOL    HW1  550   0.028   0.980   1.780
  177SOL    HW2  551   0.190   0.983   1.768
  178SOL     OW  552   0.672   0.203   1.489
  178SOL    HW1  553   0.762   0.187   1.449
  178SOL    HW2  554   0.680   0.208   1.588
  179SOL     OW  555   0.075   0.345   0.033
  179SOL    HW1  556  -0.017   0.317   0.004
  179SOL    HW2  557   0.106   0.422  -0.023
  180SOL     OW  558   1.440   0.856   1.398
  180SOL    HW1  559   1.383   0.908   1.335
  180SOL    HW2  560   1.536   0.868   1.374
  181SOL     OW  561   0.072   0.166   0.318
  181SOL    HW1  562   0.055   0.249   0.264
  181SOL    HW2  563   0.162   0.129   0.296
  182SOL     OW  564   1.183   1.335   0.119
  182SOL    HW1  565   1.084   1.324   0.121
  182SOL    HW2  566   1.217   1.350   0.212
  183SOL     OW  567   0.613   0.842   1.431
  183SOL    HW1  568   0.669   0.923   1.414
  183SOL    HW2  569   0.672   0.762   1.434
  184SOL     OW  570   1.493   1.767   0.959
  184SOL    HW1  571   1.526   1.831   0.890
  184SOL    HW2  572   1.559   1.761   1.034
  185SOL     OW  573   0.716   0.565   1.708
  185SOL    HW1  574   0.735   0.630   1.782
  185SOL    HW2  575   0.776   0.485   1.717
  186SOL     OW  576   1.450   1.220   1.633
  186SOL    HW1  577   1.441   1.210   1.732
  186SOL    HW2  578   1.546   1.213   1.607
  187SOL     OW  579   0.390   1.741   1.560
  187SOL    HW1  580   0.299   1.782   1.558
  187SOL    HW2  581   0.383   1.647   1.592
  188SOL     OW  582   1.674   0.883   1.254
  188SOL    HW1  583   1.647   0.794   1.217
  188SOL    HW2  584   1.675   0.951   1.181
  189SOL     OW  585   1.225   0.325   0.449
  189SOL    HW1  586   1.290   0.251   0.438
  189SOL    HW2  587   1.245   0.375   0.533
  190SOL     OW  588   0.594   0.745   0.652
  190SOL    HW1  589   0.644   0.830   0.633
  190SOL    HW2  590   0.506   0.747   0.604
  191SOL     OW  591   1.777   0.342   1.642
  191SOL    HW1  592   1.760   0.373   1.548
  191SOL    HW2  593   1.693   0.305   1.680
  192SOL     OW  594   1.730   0.934   1.517
  192SOL    HW1  595   1.768   1.025   1.532
  192SOL    HW2  596   1.722   0.917   1.418
  193SOL     OW  597   0.859   1.374   0.016
  193SOL    HW1  598   0.813   1.389   0.104
  193SOL    HW2  599   0.903   1.459  -0.014
  194SOL     OW  600   0.661   1.790   0.953
  194SOL    HW1  601   0.615   1.878   0.940
  194SOL    HW2  602   0.760   1.802   0.946
  195SOL     OW  603   0.859   0.956   0.861
  195SOL    HW1  604   0.913   0.887   0.909
  195SOL    HW2  605   0.827   1.025   0.927
  196SOL     OW  606   1.083   0.984   0.087
  196SOL    HW1  607   1.060   1.037   0.005
  196SOL    HW2  608   1.164   0.928   0.068
  197SOL     OW  609   1.861   1.569   0.851
  197SOL    HW1  610   1.790   1.557   0.781
  197SOL    HW2  611   1.862   1.490   0.911
  198SOL     OW  612   0.221   1.314   1.844
  198SOL    HW1  613   0.156   1.241   1.823
  198SOL    HW2  614   0.225   1.328   1.942
  199SOL     OW  615   0.079   1.240   0.653
  199SOL    HW1  616   0.078   1.193   0.741
  199SOL    HW2  617   0.161   1.212   0.602
  200SOL     OW  618   0.672   1.391   1.624
  200SOL    HW1  619   0.594   1.341   1.662
  200SOL    HW2  620   0.669   1.486   1.655
  201SOL     OW  621   1.824   0.192   1.227
  201SOL    HW1  622   1.820   0.102   1.271
  201SOL    HW2  623   1.827   0.181   1.128
  202SOL     OW  624   0.428   0.424   0.520
  202SOL    HW1  625   0.458   0.352   0.458
  202SOL    HW2  626   0.389   0.384   0.603
  203SOL     OW  627   1.705   1.487   1.104
  203SOL    HW1  628   1.612   1.462   1.077
  203SOL    HW2  629   1.731   1.437   1.186
  204SOL     OW  630   0.317   0.547   1.280
  204SOL    HW1  631   0.355   0.488   1.352
  204SOL    HW2  632   0.357   0.521   1.192
  205SOL     OW  633   0.812   1.586   0.687
  205SOL    HW1  634   0.844   1.596   0.593
  205SOL    HW2  635   0.733   1.524   0.689
  206SOL     OW  636   1.424   0.214   1.112
  206SOL    HW1  637   1.476   0.149   1.167
  206SOL    HW2  638   1.375   0.277   1.173
  207SOL     OW  639   1.001   0.034   1.154
  207SOL    HW1  640   0.938  -0.038   1.123
  207SOL    HW2  641   1.094  -0.002   1.154
  208SOL     OW  642   0.770   1.330   0.301
  208SOL    HW1  643   0.724   1.243   0.318
  208SOL    HW2  644   0.861   1.327   0.342
  209SOL     OW  645   0.618   1.567   1.284
  209SOL    HW1  646   0.613   1.649   1.341
  209SOL    HW2  647   0.707   1.564   1.239
  210SOL     OW  648   1.352   0.052   0.168
  210SOL    HW1  649   1.387   0.011   0.084
  210SOL    HW2  650   1.262   0.014   0.188
  211SOL     OW  651   1.300   0.453   0.691
  211SOL    HW1  652   1.241   0.533   0.695
  211SOL    HW2  653   1.315   0.418   0.784
  212SOL     OW  654   1.593   0.221   0.882
  212SOL    HW1  655   1.509   0.220   0.936
  212SOL    HW2  656   1.595   0.304   0.826
  213SOL     OW  657   0.039   1.077   0.300
  213SOL    HW1  658   0.138   1.066   0.291
  213SOL    HW2  659  -0.001   0.991   0.332
  214SOL     OW  660   0.875   1.646   0.337
  214SOL    HW1  661   0.798   1.611   0.283
  214SOL    HW2  662   0.843   1.717   0.399
  215SOL     OW  663   0.230   0.628   1.975
  215SOL    HW1  664   0.137   0.626   2.012
  215SOL    HW2  665   0.231   0.589   1.883
  216SOL     OW  666   0.225   0.275   2.858
  216SOL    HW1  667   0.260   0.258   2.950
  216SOL    HW2  668   0.137   0.230   2.846
  217SOL     OW  669   0.019   0.368   2.509
  217SOL    HW1  670  -0.063   0.411   2.548
  217SOL    HW2  671  -0.009   0.295   2.446
  218SOL     OW  672   0.569   1.275   3.027
  218SOL    HW1  673   0.476   1.268   2.990
  218SOL    HW2  674   0.580   1.364   3.071
  219SOL     OW  675   1.555   1.511   2.565
  219SOL    HW1  676   1.498   1.495   2.646
  219SOL    HW2  677   1.496   1.521   2.485
  220SOL     OW  678   1.135   0.703   2.579
  220SOL    HW1  679   1.192   0.781   2.554
  220SOL    HW2  680   1.075   0.729   2.655
  221SOL     OW  681   1.755   0.607   2.093
  221SOL    HW1  682   1.743   0.594   1.994
  221SOL    HW2  683   1.725   0.526   2.142
  222SOL     OW  684   0.768   1.144   2.885
  222SOL    HW1  685   0.690   1.161   2.945
  222SOL    HW2  686   0.802   1.231   2.849
  223SOL     OW  687   0.850   0.798   3.685
  223SOL    HW1  688   0.846   0.874   3.750
  223SOL    HW2  689   0.872   0.834   3.594
  224SOL     OW  690   0.685   1.012   2.527
  224SOL    HW1  691   0.754   0.996   2.597
  224SOL    HW2  692   0.612   1.069   2.565
  225SOL     OW  693   0.686   1.161   3.665
  225SOL    HW1  694   0.746   1.240   3.679
  225SOL    HW2  695   0.600   1.192   3.624
  226SOL     OW  696   0.335   1.435   2.923
  226SOL    HW1  697   0.257   1.404   2.870
  226SOL    HW2  698   0.393   1.493   2.866
  227SOL     OW  699   1.460   1.505   3.201
  227SOL    HW1  700   1.484   1.599   3.227
  227SOL    HW2  701   1.444   1.451   3.283
  228SOL     OW  702   0.438   0.392   3.361
  228SOL    HW1  703   0.520   0.336   3.370
  228SOL    HW2  704   0.357   0.334   3.365
  229SOL     OW  705   1.603   0.447   2.599
  229SOL    HW1  706   1.529   0.493   2.549
  229SOL    HW2  707   1.654   0.515   2.652
  230SOL     OW  708   0.231   1.713   2.345
  230SOL    HW1  709   0.265   1.790   2.399
  230SOL    HW2  710   0.275   1.713   2.255
  231SOL     OW  711   1.127   1.341   3.552
  231SOL    HW1  712   1.174   1.341   3.640
  231SOL    HW2  713   1.079   1.254   3.541
  232SOL     OW  714   0.230   1.434   2.400
  232SOL    HW1  715   0.204   1.530   2.400
  232SOL    HW2  716   0.159   1.380   2.445
  233SOL     OW  717   0.240   1.091   2.748
  233SOL    HW1  718   0.254   1.007   2.800
  233SOL    HW2  719   0.185   1.155   2.803
  234SOL     OW  720   0.620   1.786   3.301
  234SOL    HW1  721   0.528   1.769   3.336
  234SOL    HW2  722   0.648   1.878   3.327
  235SOL     OW  723   0.606   0.964   1.985
  235SOL    HW1  724   0.613   1.048   1.931
  235SOL    HW2  725   0.652   0.977   2.073
  236SOL     OW  726   1.594   0.114   3.342
  236SOL    HW1  727   1.576   0.181   3.270
  236SOL    HW2  728   1.591   0.160   3.431
  237SOL     OW  729   0.122   0.643   2.425
  237SOL    HW1  730   0.077   0.555   2.442
  237SOL    HW2  731   0.121   0.697   2.509
  238SOL     OW  732   1.842   1.767   2.221
  238SOL    HW1  733   1.896   1.738   2.301
  238SOL    HW2  734   1.872   1.857   2.192
  239SOL     OW  735   0.027   1.596   1.979
  239SOL    HW1  736   0.008   1.500   2.000
  239SOL    HW2  737  -0.006   1.654   2.054
  240SOL     OW  738   1.689   0.922   2.474
  240SOL    HW1  739   1.784   0.893   2.482
  240SOL    HW2  740   1.681   0.987   2.399
  241SOL     OW  741   1.641   1.108   2.294
  241SOL    HW1  742   1.727   1.110   2.242
  241SOL    HW2  743   1.655   1.155   2.382
  242SOL     OW  744   0.113   0.737   3.459
  242SOL    HW1  745   0.201   0.724   3.504
  242SOL    HW2  746   0.100   0.834   3.437
  243SOL     OW  747   0.613   1.365   2.588
  243SOL    HW1  748   0.564   1.278   2.597
  243SOL    HW2  749   0.590   1.408   2.501
  244SOL     OW  750   1.293   1.228   3.285
  244SOL    HW1  751   1.330   1.155   3.227
  244SOL    HW2  752   1.345   1.233   3.370
  245SOL     OW  753   0.809   0.004   2.364
  245SOL    HW1  754   0.849   0.095   2.355
  245SOL    HW2  755   0.709   0.012   2.370
  246SOL     OW  756   0.197   0.976   3.126
  246SOL    HW1  757   0.286   0.931   3.112
  246SOL    HW2  758   0.124   0.911   3.107
  247SOL     OW  759   1.525   0.999   2.052
  247SOL    HW1  760   1.462   0.923   2.065
  247SOL    HW2  761   1.573   1.017   2.138
  248SOL     OW  762   1.187   1.792   3.478
  248SOL    HW1  763   1.211   1.852   3.402
  248SOL    HW2  764   1.194   1.697   3.448
  249SOL     OW  765   0.317   0.251   3.663
  249SOL    HW1  766   0.388   0.322   3.669
  249SOL    HW2  767   0.229   0.290   3.691
  250SOL     OW  768   1.466   1.417   2.815
  250SOL    HW1  769   1.407   1.423   2.895
  250SOL    HW2  770   1.451   1.329   2.769
  251SOL     OW  771   1.667   1.714   2.434
  251SOL    HW1  772   1.626   1.691   2.346
  251SOL    HW2  773   1.649   1.640   2.499
  252SOL     OW  774   0.598   0.729   2.132
  252SOL    HW1  775   0.622   0.798   2.064
  252SOL    HW2  776   0.520   0.762   2.186
  253SOL     OW  777   1.281   0.345   2.806
  253SOL    HW1  778   1.195   0.295   2.793
  253SOL    HW2  779   1.343   0.291   2.862
  254SOL     OW  780   1.576   1.662   2.169
  254SOL    HW1  781   1.665   1.708   2.172
  254SOL    HW2  782   1.555   1.638   2.074
  255SOL     OW  783   0.807   0.605   3.327
  255SOL    HW1  784   0.760   0.602   3.416
  255SOL    HW2  785   0.756   0.550   3.261
  256SOL     OW  786   1.394   0.469   3.536
  256SOL    HW1  787   1.374   0.512   3.624
  256SOL    HW2  788   1.472   0.407   3.545
  257SOL     OW  789   0.973   0.890   3.434
  257SOL    HW1  790   1.019   0.806   3.405
  257SOL    HW2  791   0.917   0.924   3.359
  258SOL     OW  792   0.991   0.410   3.104
  258SOL    HW1  793   0.914   0.444   3.158
  258SOL    HW2  794   0.957   0.359   3.025
  259SOL     OW  795   1.041   0.701   2.291
  259SOL    HW1  796   1.067   0.697   2.387
  259SOL    HW2  797   0.956   0.650   2.277
  260SOL     OW  798   0.076   0.811   2.651
  260SOL    HW1  799   0.175   0.799   2.660
  260SOL    HW2  800   0.052   0.906   2.672
  261SOL     OW  801   0.130   1.821   3.433
  261SOL    HW1  802   0.120   1.806   3.532
  261SOL    HW2  803   0.044   1.857   3.397
  262SOL     OW  804   0.865   0.348   2.057
  262SOL    HW1  805   0.924   0.411   2.008
  262SOL    HW2  806   0.884   0.254   2.028
  263SOL     OW  807   1.719   0.585   3.693
  263SOL    HW1  808   1.693   0.674   3.657
  263SOL    HW2  809   1.717   0.517   3.620
  264SOL     OW  810   1.362   1.144   2.407
  264SOL    HW1  811   1.445   1.115   2.359
  264SOL    HW2  812   1.313   1.211   2.351
  265SOL     OW  813   0.550   0.196   2.747
  265SOL    HW1  814   0.545   0.191   2.847
  265SOL    HW2  815   0.552   0.292   2.718
  266SOL     OW  816   1.008   1.456   2.339
  266SOL    HW1  817   0.962   1.528   2.287
  266SOL    HW2  818   1.004   1.476   2.437
  267SOL     OW  819   0.351   1.801   2.715
  267SOL    HW1  820   0.401   1.715   2.721
  267SOL    HW2  821   0.416   1.878   2.712
  268SOL     OW  822   1.795   1.066   2.735
  268SOL    HW1  823   1.733   1.051   2.659
  268SOL    HW2  824   1.743   1.077   2.820
  269SOL     OW  825   1.227   1.550   3.368
  269SOL    HW1  826   1.233   1.473   3.432
  269SOL    HW2  827   1.175   1.524   3.288
  270SOL     OW  828   0.321   0.943   2.104
  270SOL    HW1  829   0.403   0.982   2.062
  270SOL    HW2  830   0.294   0.861   2.055
  271SOL     OW  831   1.458   0.735   2.590
  271SOL    HW1  832   1.453   0.670   2.665
  271SOL    HW2  833   1.538   0.794   2.603
  272SOL     OW  834   0.461   1.266   3.589
  272SOL    HW1  835   0.411   1.267   3.503
  272SOL    HW2  836   0.398   1.248   3.665
  273SOL     OW  837   1.111   1.776   2.099
  273SOL    HW1  838   1.051   1.714   2.149
  273SOL    HW2  839   1.142   1.732   2.014
  274SOL     OW  840   0.202   0.285   3.360
  274SOL    HW1  841   0.122   0.345   3.347
  274SOL    HW2  842   0.192   0.236   3.446
  275SOL     OW  843   1.632   1.377   1.943
  275SOL    HW1  844   1.600   1.471   1.933
  275SOL    HW2  845   1.556   1.314   1.931
  276SOL     OW  846   0.464   1.743   2.185
  276SOL    HW1  847   0.497   1.782   2.271
  276SOL    HW2  848   0.540   1.736   2.120
  277SOL     OW  849   1.400   0.107   2.288
  277SOL    HW1  850   1.376   0.070   2.198
  277SOL    HW2  851   1.499   0.123   2.292
  278SOL     OW  852   0.249   1.785   3.103
  278SOL    HW1  853   0.306   1.720   3.153
  278SOL    HW2  854   0.233   1.752   3.010
  279SOL     OW  855   0.940   1.698   2.766
  279SOL    HW1  856   1.020   1.641   2.787
  279SOL    HW2  857   0.891   1.658   2.689
  280SOL     OW  858   0.382   0.700   2.342
  280SOL    HW1  859   0.427   0.610   2.339
  280SOL    HW2  860   0.288   0.689   2.375
  281SOL     OW  861   1.547   0.222   3.591
  281SOL    HW1  862   1.542   0.259   3.683
  281SOL    HW2  863   1.475   0.153   3.579
  282SOL     OW  864   0.614   0.122   1.979
  282SOL    HW1  865   0.712   0.100   1.986
  282SOL    HW2  866   0.583   0.105   1.886
  283SOL     OW  867   0.781   0.264   3.611
  283SOL    HW1  868   0.848   0.203   3.654
  283SOL    HW2  869   0.708   0.283   3.676
  284SOL     OW  870   0.888   1.514   3.057
  284SOL    HW1  871   0.865   1.489   2.963
  284SOL    HW2  872   0.949   1.445   3.096
  285SOL     OW  873   1.351   0.590   3.295
  285SOL    HW1  874   1.379   0.547   3.380
  285SOL    HW2  875   1.376   0.686   3.296
  286SOL     OW  876   0.803   1.402   2.786
  286SOL    HW1  877   0.893   1.416   2.744
  286SOL    HW2  878   0.732   1.404   2.715
  287SOL     OW  879   0.922   0.503   2.761
  287SOL    HW1  880   0.897   0.494   2.665
  287SOL    HW2  881   0.970   0.421   2.792
  288SOL     OW  882   0.539   0.064   2.374
  288SOL    HW1  883   0.458   0.065   2.432
  288SOL    HW2  884   0.542   0.147   2.319
  289SOL     OW  885   1.434   1.188   1.903
  289SOL    HW1  886   1.466   1.112   1.960
  289SOL    HW2  887   1.342   1.215   1.933
  290SOL     OW  888   0.297   0.035   2.033
  290SOL    HW1  889   0.346   0.119   2.012
  290SOL    HW2  890   0.359  -0.030   2.078
  291SOL     OW  891   0.935   0.236   2.342
  291SOL    HW1  892   0.887   0.277   2.264
  291SOL    HW2  893   1.034   0.234   2.323
  292SOL     OW  894   1.076   0.683   3.326
  292SOL    HW1  895   0.996   0.622   3.329
  292SOL    HW2  896   1.157   0.630   3.302
  293SOL     OW  897   1.227   1.570   2.655
  293SOL    HW1  898   1.248   1.644   2.590
  293SOL    HW2  899   1.295   1.570   2.728
  294SOL     OW  900   0.459   1.152   2.603
  294SOL    HW1  901   0.388   1.125   2.668
  294SOL    HW2  902   0.433   1.124   2.510
  295SOL     OW  903   1.271   1.797   2.453
  295SOL    HW1  904   1.315   1.861   2.389
  295SOL    HW2  905   1.221   1.849   2.523
  296SOL     OW  906   1.032   0.549   1.878
  296SOL    HW1  907   0.991   0.631   1.839
  296SOL    HW2  908   1.096   0.575   1.951
  297SOL     OW  909   0.078   0.556   3.248
  297SOL    HW1  910   0.170   0.555   3.207
  297SOL    HW2  911   0.072   0.630   3.315
  298SOL     OW  912   0.561   0.222   3.009
  298SOL    HW1  913   0.599   0.138   3.046
  298SOL    HW2  914   0.473   0.241   3.053
  299SOL     OW  915   0.866   0.454   2.504
  299SOL    HW1  916   0.834   0.526   2.442
  299SOL    HW2  917   0.890   0.373   2.451
  300SOL     OW  918   1.017   0.039   2.615
  300SOL    HW1  919   0.945   0.044   2.546
  300SOL    HW2  920   0.993  -0.030   2.684
  301SOL     OW  921   1.429   1.173   2.729
  301SOL    HW1  922   1.374   1.089   2.722
  301SOL    HW2  923   1.455   1.202   2.637
  302SOL     OW  924   1.466   0.590   2.854
  302SOL    HW1  925   1.436   0.495   2.861
  302SOL    HW2  926   1.539   0.606   2.920
  303SOL     OW  927   1.857   0.833   2.239
  303SOL    HW1  928   1.899   0.769   2.303
  303SOL    HW2  929   1.819   0.782   2.161
  304SOL     OW  930   0.488   1.385   2.036
  304SOL    HW1  931   0.401   1.370   2.083
  304SOL    HW2  932   0.471   1.411   1.941
  305SOL     OW  933   1.664   1.280   2.519
  305SOL    HW1  934   1.763   1.288   2.533
  305SOL    HW2  935   1.619   1.364   2.550
  306SOL     OW  936   1.390   0.575   1.940
  306SOL    HW1  937   1.336   0.554   2.021
  306SOL    HW2  938   1.481   0.534   1.949
  307SOL     OW  939   0.527   0.256   2.190
  307SOL    HW1  940   0.554   0.197   2.115
  307SOL    HW2  941   0.527   0.351   2.159
  308SOL     OW  942   1.754   1.223   3.450
  308SOL    HW1  943   1.845   1.184   3.437
  308SOL    HW2  944   1.762   1.319   3.474
  309SOL     OW  945   1.064   1.347   3.202
  309SOL    HW1  946   0.984   1.324   3.257
  309SOL    HW2  947   1.147   1.321   3.251
  310SOL     OW  948   1.592   1.629   3.487
  310SOL    HW1  949   1.619   1.663   3.397
  310SOL    HW2  950   1.671   1.591   3.533
  311SOL     OW  951   1.111   1.195   2.962
  311SOL    HW1  952   1.071   1.239   3.043
  311SOL    HW2  953   1.070   1.232   2.879
  312SOL     OW  954   1.638   1.099   2.941
  312SOL    HW1  955   1.643   1.180   3.000
  312SOL    HW2  956   1.552   1.101   2.890
  313SOL     OW  957   0.915   0.089   3.264
  313SOL    HW1  958   0.940   0.069   3.169
  313SOL    HW2  959   0.987   0.145   3.306
  314SOL     OW  960   0.980   1.116   3.581
  314SOL    HW1  961   0.881   1.122   3.591
  314SOL    HW2  962   1.003   1.036   3.525
  315SOL     OW  963   0.705   1.050   2.230
  315SOL    HW1  964   0.691   1.057   2.329
  315SOL    HW2  965   0.789   0.999   2.212
  316SOL     OW  966   0.410   0.813   3.113
  316SOL    HW1  967   0.496   0.825   3.163
  316SOL    HW2  968   0.368   0.726   3.140
  317SOL     OW  969   1.274   0.386   3.124
  317SOL    HW1  970   1.295   0.460   3.188
  317SOL    HW2  971   1.185   0.403   3.081
  318SOL     OW  972   0.064   1.564   3.193
  318SOL    HW1  973   0.018   1.646   3.159
  318SOL    HW2  974   0.162   1.583   3.202
  319SOL     OW  975   0.367   1.100   2.363
  319SOL    HW1  976   0.360   1.183   2.307
  319SOL    HW2  977   0.371   1.020   2.303
  320SOL     OW  978   0.566   0.537   2.727
  320SOL    HW1  979   0.578   0.603   2.653
  320SOL    HW2  980   0.612   0.571   2.810
  321SOL     OW  981   1.252   1.348   2.250
  321SOL    HW1  982   1.302   1.425   2.290
  321SOL    HW2  983   1.157   1.350   2.282
  322SOL     OW  984   1.272   1.445   3.004
  322SOL    HW1  985   1.319   1.458   3.091
  322SOL    HW2  986   1.206   1.371   3.013
  323SOL     OW  987   1.582   0.639   2.334
  323SOL    HW1  988   1.551   0.700   2.407
  323SOL    HW2  989   1.632   0.691   2.265
  324SOL     OW  990   0.354   1.510   3.191
  324SOL    HW1  991   0.333   1.466   3.104
  324SOL    HW2  992   0.451   1.536   3.194
  325SOL     OW  993   0.402   0.751   3.460
  325SOL    HW1  994   0.470   0.806   3.413
  325SOL    HW2  995   0.442   0.663   3.487
  326SOL     OW  996   1.587   0.779   3.532
  326SOL    HW1  997   1.495   0.817   3.527
  326SOL    HW2  998   1.647   0.826   3.467
  327SOL     OW  999   1.013   0.105   3.632
  327SOL    HW1 1000   1.019   0.190   3.580
  327SOL    HW2 1001   1.045   0.029   3.575
  328SOL     OW 1002   0.504   0.050   3.602
  328SOL    HW1 1003   0.462  -0.007   3.532
  328SOL    HW2 1004   0.438   0.119   3.634
  329SOL     OW 1005   0.573   0.870   2.891
  329SOL    HW1 1006   0.617   0.959   2.882
  329SOL    HW2 1007   0.510   0.870   2.968
  330SOL     OW 1008   1.360   0.862   2.907
  330SOL    HW1 1009   1.285   0.862   2.841
  330SOL    HW2 1010   1.397   0.770   2.916
  331SOL     OW 1011   1.209   0.525   2.137
  331SOL    HW1 1012   1.222   0.441   2.191
  331SOL    HW2 1013   1.180   0.599   2.197
  332SOL     OW 1014   0.307   0.213   3.093
  332SOL    HW1 1015   0.284   0.250   3.183
  332SOL    HW2 1016   0.277   0.118   3.087
  333SOL     OW 1017   0.037   1.310   3.144
  333SOL    HW1 1018   0.090   1.261   3.212
  333SOL    HW2 1019   0.059   1.408   3.149
  334SOL     OW 1020   0.732   0.634   2.926
  334SOL    HW1 1021   0.791   0.608   2.850
  334SOL    HW2 1022   0.704   0.730   2.915
  335SOL     OW 1023   1.728   0.935   3.716
  335SOL    HW1 1024   1.682   0.928   3.627
  335SOL    HW2 1025   1.666   0.979   3.782
  336SOL     OW 1026   0.307   0.063   2.480
  336SOL    HW1 1027   0.296   0.157   2.513
  336SOL    HW2 1028   0.302   0.000   2.557
  337SOL     OW 1029   1.622   0.367   2.236
  337SOL    HW1 1030   1.624   0.291   2.300
  337SOL    HW2 1031   1.574   0.444   2.276
  338SOL     OW 1032   1.023   0.766   2.828
  338SOL    HW1 1033   1.038   0.787   2.924
  338SOL    HW2 1034   0.993   0.671   2.819
  339SOL     OW 1035   0.980   1.573   3.562
  339SOL    HW1 1036   0.960   1.617   3.474
  339SOL    HW2 1037   1.019   1.482   3.546
  340SOL     OW 1038   1.859   1.518   3.467
  340SOL    HW1 1039   1.873   1.545   3.372
  340SOL    HW2 1040   1.942   1.540   3.520
  341SOL     OW 1041   0.350   0.898   3.666
  341SOL    HW1 1042   0.426   0.942   3.714
  341SOL    HW2 1043   0.385   0.851   3.584
  342SOL     OW 1044   1.540   0.274   1.987
  342SOL    HW1 1045   1.479   0.199   2.010
  342SOL    HW2 1046   1.562   0.326   2.070
  343SOL     OW 1047   1.303   0.838   1.904
  343SOL    HW1 1048   1.337   0.745   1.919
  343SOL    HW2 1049   1.321   0.865   1.809
  344SOL     OW 1050   1.068   1.333   2.711
  344SOL    HW1 1051   1.075   1.249   2.656
  344SOL    HW2 1052   1.130   1.402   2.675
  345SOL     OW 1053   0.319   0.810   2.811
  345SOL    HW1 1054   0.412   0.846   2.816
  345SOL    HW2 1055   0.313   0.725   2.863
  346SOL     OW 1056   0.339   0.509   2.868
  346SOL    HW1 1057   0.287   0.426   2.851
  346SOL    HW2 1058   0.416   0.514   2.804
  347SOL     OW 1059   1.138   0.380   3.540
  347SOL    HW1 1060   1.093   0.443   3.604
  347SOL    HW2 1061   1.231   0.411   3.523
  348SOL     OW 1062   1.160   0.207   3.339
  348SOL    HW1 1063   1.160   0.271   3.416
  348SOL    HW2 1064   1.188   0.255   3.256
  349SOL     OW 1065   0.008   1.326   2.062
  349SOL    HW1 1066  -0.085   1.347   2.031
  349SOL    HW2 1067   0.018   1.227   2.075
  350SOL     OW 1068   0.088   1.801   2.789
  350SOL    HW1 1069   0.046   1.715   2.762
  350SOL    HW2 1070   0.182   1.804   2.755
  351SOL     OW 1071   0.504   1.568   2.772
  351SOL    HW1 1072   0.570   1.642   2.781
  351SOL    HW2 1073   0.548   1.489   2.730
  352SOL     OW 1074   1.002   0.796   3.100
  352SOL    HW1 1075   1.043   0.764   3.186
  352SOL    HW2 1076   0.906   0.769   3.097
  353SOL     OW 1077   0.040   0.544   2.976
  353SOL    HW1 1078   0.125   0.511   2.935
  353SOL    HW2 1079   0.053   0.559   3.074
  354SOL     OW 1080   0.189   0.520   3.584
  354SOL    HW1 1081   0.248   0.480   3.514
  354SOL    HW2 1082   0.131   0.591   3.543
  355SOL     OW 1083   1.369   0.950   3.522
  355SOL    HW1 1084   1.408   1.039   3.542
  355SOL    HW2 1085   1.379   0.930   3.425
  356SOL     OW 1086   0.815   0.572   2.187
  356SOL    HW1 1087   0.822   0.483   2.141
  356SOL    HW2 1088   0.721   0.606   2.179
  357SOL     OW 1089   1.657   0.604   3.068
  357SOL    HW1 1090   1.619   0.535   3.130
  357SOL    HW2 1091   1.739   0.568   3.024
  358SOL     OW 1092   0.252   1.564   3.606
  358SOL    HW1 1093   0.222   1.621   3.682
  358SOL    HW2 1094   0.245   1.467   3.632
  359SOL     OW 1095   0.671   0.464   3.131
  359SOL    HW1 1096   0.637   0.375   3.101
  359SOL    HW2 1097   0.697   0.518   3.051
  360SOL     OW 1098   0.930   1.678   3.327
  360SOL    HW1 1099   0.906   1.660   3.232
  360SOL    HW2 1100   0.960   1.772   3.337
  361SOL     OW 1101   0.473   0.500   2.053
  361SOL    HW1 1102   0.534   0.580   2.057
  361SOL    HW2 1103   0.378   0.531   2.060
  362SOL     OW 1104   0.159   1.137   3.328
  362SOL    HW1 1105   0.181   1.076   3.404
  362SOL    HW2 1106   0.169   1.088   3.242
  363SOL     OW 1107   1.347   1.059   3.096
  363SOL    HW1 1108   1.371   0.996   3.022
  363SOL    HW2 1109   1.257   1.099   3.078
  364SOL     OW 1110   1.302   0.855   2.171
  364SOL    HW1 1111   1.216   0.824   2.213
  364SOL    HW2 1112   1.298   0.841   2.072
  365SOL     OW 1113   1.759   1.747   3.016
  365SOL    HW1 1114   1.820   1.777   2.943
  365SOL    HW2 1115   1.721   1.658   2.994
  366SOL     OW 1116   1.252   1.731   2.990
  366SOL    HW1 1117   1.336   1.736   2.936
  366SOL    HW2 1118   1.229   1.635   3.008
  367SOL     OW 1119   0.083   1.258   2.884
  367SOL    HW1 1120   0.078   1.257   2.984
  367SOL    HW2 1121   0.000   1.217   2.846
  368SOL     OW 1122   0.688   1.662   3.578
  368SOL    HW1 1123   0.632   1.743   3.587
  368SOL    HW2 1124   0.740   1.666   3.492
  369SOL     OW 1125   1.726   0.135   2.385
  369SOL    HW1 1126   1.799   0.118   2.318
  369SOL    HW2 1127   1.695   0.048   2.423
  370SOL     OW 1128   1.388   1.573   2.339
  370SOL    HW1 1129   1.455   1.585   2.265
  370SOL    HW2 1130   1.348   1.662   2.362
  371SOL     OW 1131   0.130   1.794   3.713
  371SOL    HW1 1132   0.089   1.720   3.766
  371SOL    HW2 1133   0.194   1.845   3.771
  372SOL     OW 1134   1.280   0.927   2.534
  372SOL    HW1 1135   1.340   0.846   2.536
  372SOL    HW2 1136   1.320   0.996   2.474
  373SOL     OW 1137   0.830   1.273   3.284
  373SOL    HW1 1138   0.825   1.306   3.379
  373SOL    HW2 1139   0.744   1.292   3.238
  374SOL     OW 1140   0.672   1.616   2.016
  374SOL    HW1 1141   0.681   1.626   1.917
  374SOL    HW2 1142   0.632   1.527   2.037
  375SOL     OW 1143   1.650   1.720   3.256
  375SOL    HW1 1144   1.703   1.730   3.172
  375SOL    HW2 1145   1.623   1.810   3.290
  376SOL     OW 1146   1.841   0.175   2.825
  376SOL    HW1 1147   1.880   0.090   2.789
  376SOL    HW2 1148   1.743   0.177   2.806
  377SOL     OW 1149   0.263   0.326   2.582
  377SOL    HW1 1150   0.184   0.377   2.548
  377SOL    HW2 1151   0.254   0.311   2.680
  378SOL     OW 1152   1.194   1.612   1.893
  378SOL    HW1 1153   1.200   1.519   1.930
  378SOL    HW2 1154   1.135   1.612   1.813
  379SOL     OW 1155   0.822   1.002   3.234
  379SOL    HW1 1156   0.862   1.001   3.142
  379SOL    HW2 1157   0.832   1.094   3.274
  380SOL     OW 1158   0.916   0.910   2.153
  380SOL    HW1 1159   0.979   0.948   2.085
  380SOL    HW2 1160   0.956   0.827   2.192
  381SOL     OW 1161   1.504   1.607   1.906
  381SOL    HW1 1162   1.412   1.644   1.913
  381SOL    HW2 1163   1.542   1.627   1.816
  382SOL     OW 1164   0.372   1.288   3.352
  382SOL    HW1 1165   0.359   1.381   3.318
  382SOL    HW2 1166   0.288   1.236   3.339
  383SOL     OW 1167   1.614   1.292   3.151
  383SOL    HW1 1168   1.674   1.295   3.231
  383SOL    HW2 1169   1.539   1.356   3.164
  384SOL     OW 1170   1.039   1.098   2.558
  384SOL    HW1 1171   0.969   1.051   2.612
  384SOL    HW2 1172   1.098   1.030   2.515
  385SOL     OW 1173   1.014   0.236   2.833
  385SOL    HW1 1174   1.006   0.200   2.740
  385SOL    HW2 1175   1.012   0.160   2.898
  386SOL     OW 1176   0.590   1.487   2.353
  386SOL    HW1 1177   0.632   1.429   2.283
  386SOL    HW2 1178   0.546   1.566   2.309
  387SOL     OW 1179   1.709   0.385   3.243
  387SOL    HW1 1180   1.782   0.454   3.247
  387SOL    HW2 1181   1.737   0.310   3.184
  388SOL     OW 1182   0.255   1.348   2.152
  388SOL    HW1 1183   0.159   1.349   2.125
  388SOL    HW2 1184   0.267   1.401   2.236
  389SOL     OW 1185   0.105   1.013   3.588
  389SOL    HW1 1186   0.028   0.980   3.642
  389SOL    HW2 1187   0.190   0.983   3.630
  390SOL     OW 1188   0.672   0.203   3.351
  390SOL    HW1 1189   0.762   0.187   3.311
  390SOL    HW2 1190   0.680   0.208   3.450
  391SOL     OW 1191   0.075   0.345   1.895
  391SOL    HW1 1192  -0.017   0.317   1.866
  391SOL    HW2 1193   0.106   0.422   1.839
  392SOL     OW 1194   1.440   0.856   3.260
  392SOL    HW1 1195   1.383   0.908   3.197
  392SOL    HW2 1196   1.536   0.868   3.236
  393SOL     OW 1197   0.072   0.166   2.180
  393SOL    HW1 1198   0.055   0.249   2.126
  393SOL    HW2 1199   0.162   0.129   2.158
  394SOL     OW 1200   1.183   1.335   1.981
  394SOL    HW1 1201   1.084   1.324   1.983
  394SOL    HW2 1202   1.217   1.350   2.074
  395SOL     OW 1203   0.613   0.842   3.293
  395SOL    HW1 1204   0.669   0.923   3.276
  395SOL    HW2 1205   0.672   0.762   3.296
  396SOL     OW 1206   1.493   1.767   2.821
  396SOL    HW1 1207   1.526   1.831   2.752
  396SOL    HW2 1208   1.559   1.761   2.896
  397SOL     OW 1209   0.716   0.565   3.570
  397SOL    HW1 1210   0.735   0.630   3.644
  397SOL    HW2 1211   0.776   0.485   3.579
  398SOL     OW 1212   1.450   1.220   3.495
  398SOL    HW1 1213   1.441   1.210   3.594
  398SOL    HW2 1214   1.546   1.213   3.469
  399SOL     OW 1215   0.390   1.741   3.422
  399SOL    HW1 1216   0.299   1.782   3.420
  399SOL    HW2 1217   0.383   1.647   3.454
  400SOL     OW 1218   1.674   0.883   3.116
  400SOL    HW1 1219   1.647   0.794   3.079
  400SOL    HW2 1220   1.675   0.951   3.043
  401SOL     OW 1221   1.225   0.325   2.311
  401SOL    HW1 1222   1.290   0.251   2.300
  401SOL    HW2 1223   1.245   0.375   2.395
  402SOL     OW 1224   0.594   0.745   2.514
  402SOL    HW1 1225   0.644   0.830   2.495
  402SOL    HW2 1226   0.506   0.747   2.466
  403SOL     OW 1227   1.777   0.342   3.504
  403SOL    HW1 1228   1.760   0.373   3.410
  403SOL    HW2 1229   1.693   0.305   3.542
  404SOL     OW 1230   1.730   0.934   3.379
  404SOL    HW1 1231   1.768   1.025   3.394
  404SOL    HW2 1232   1.722   0.917   3.280
  405SOL     OW 1233   0.859   1.374   1.878
  405SOL    HW1 1234   0.813   1.389   1.966
  405SOL    HW2 1235   0.903   1.459   1.848
  406SOL     OW 1236   0.661   1.790   2.815
  406SOL    HW1 1237   0.615   1.878   2.802
  406SOL    HW2 1238   0.760   1.802   2.808
  407SOL     OW 1239   0.859   0.956   2.723
  407SOL    HW1 1240   0.913   0.887   2.771
  407SOL    HW2 1241   0.827   1.025   2.789
  408SOL     OW 1242   1.083   0.984   1.949
  408SOL    HW1 1243   1.060   1.037   1.867
  408SOL    HW2 1244   1.164   0.928   1.930
  409SOL     OW 1245   1.861   1.569   2.713
  409SOL    HW1 1246   1.790   1.557   2.643
  409SOL    HW2 1247   1.862   1.490   2.773
  410SOL     OW 1248   0.221   1.314   3.706
  410SOL    HW1 1249   0.156   1.241   3.685
  410SOL    HW2 1250   0.225   1.328   3.804
  411SOL     OW 1251   0.079   1.240   2.515
  411SOL    HW1 1252   0.078   1.193   2.603
  411SOL    HW2 1253   0.161   1.212   2.464
  412SOL     OW 1254   0.672   1.391   3.486
  412SOL    HW1 1255   0.594   1.341   3.524
  412SOL    HW2 1256   0.669   1.486   3.517
  413SOL     OW 1257   1.824   0.192   3.089
  413SOL    HW1 1258   1.820   0.102   3.133
  413SOL    HW2 1259   1.827   0.181   2.990
  414SOL     OW 1260   0.428   0.424   2.382
  414SOL    HW1 1261   0.458   0.352   2.320
  414SOL    HW2 1262   0.389   0.384   2.465
  415SOL     OW 1263   1.705   1.487   2.966
  415SOL    HW1 1264   1.612   1.462   2.939
  415SOL    HW2 1265   1.731   1.437   3.048
  416SOL     OW 1266   0.317   0.547   3.142
  416SOL    HW1 1267   0.355   0.488   3.214
  416SOL    HW2 1268   0.357   0.521   3.054
  417SOL     OW 1269   0.812   1.586   2.549
  417SOL    HW1 1270   0.844   1.596   2.455
  417SOL    HW2 1271   0.733   1.524   2.551
  418SOL     OW 1272   1.424   0.214   2.974
  418SOL    HW1 1273   1.476   0.149   3.029
  418SOL    HW2 1274   1.375   0.277   3.035
  419SOL     OW 1275   1.001   0.034   3.016
  419SOL    HW1 1276   0.938  -0.038   2.985
  419SOL    HW2 1277   1.094  -0.002   3.016
  420SOL     OW 1278   0.770   1.330   2.163
  420SOL    HW1 1279   0.724   1.243   2.180
  420SOL    HW2 1280   0.861   1.327   2.204
  421SOL     OW 1281   0.618   1.567   3.146
  421SOL    HW1 1282   0.613   1.649   3.203
  421SOL    HW2 1283   0.707   1.564   3.101
  422SOL     OW 1284   1.352   0.052   2.030
  422SOL    HW1 1285   1.387   0.011   1.946
  422SOL    HW2 1286   1.262   0.014   2.050
  423SOL     OW 1287   1.300   0.453   2.553
  423SOL    HW1 1288   1.241   0.533   2.557
  423SOL    HW2 1289   1.315   0.418   2.646
  424SOL     OW 1290   1.593   0.221   2.744
  424SOL    HW1 1291   1.509   0.220   2.798
  424SOL    HW2 1292   1.595   0.304   2.688
  425SOL     OW 1293   0.039   1.077   2.162
  425SOL    HW1 1294   0.138   1.066   2.153
  425SOL    HW2 1295  -0.001   0.991   2.194
  426SOL     OW 1296   0.875   1.646   2.199
  426SOL    HW1 1297   0.798   1.611   2.145
  426SOL    HW2 1298   0.843   1.717   2.261
  427SOL     OW 1299   0.230   0.628   3.837
  427SOL    HW1 1300   0.137   0.626   3.874
  427SOL    HW2 1301   0.231   0.589   3.745
  428SOL     OW 1302   0.225   0.275   4.720
  428SOL    HW1 1303   0.260   0.258   4.812
  428SOL    HW2 1304   0.137   0.230   4.708
  429SOL     OW 1305   0.019   0.368   4.371
  429SOL    HW1 1306  -0.063   0.411   4.410
  429SOL    HW2 1307  -0.009   0.295   4.308
  430SOL     OW 1308   1.555   1.511   4.427
  430SOL    HW1 1309   1.498   1.495   4.508
  430SOL    HW2 1310   1.496   1.521   4.347
  431SOL     OW 1311   1.135   0.703   4.441
  431SOL    HW1 1312   1.192   0.781   4.416
  431SOL    HW2 1313   1.075   0.729   4.517
  432SOL     OW 1314   1.755   0.607   3.955
  432SOL    HW1 1315   1.743   0.594   3.856
  432SOL    HW2 1316   1.725   0.526   4.004
  433SOL     OW 1317   0.768   1.144   4.747
  433SOL    HW1 1318   0.690   1.161   4.807
  433SOL    HW2 1319   0.802   1.231   4.711
  434SOL     OW 1320   0.685   1.012   4.389
  434SOL    HW1 1321   0.754   0.996   4.459
  434SOL    HW2 1322   0.612   1.069   4.427
  435SOL     OW 1323   1.603   0.447   4.461
  435SOL    HW1 1324   1.529   0.493   4.411
  435SOL    HW2 1325   1.654   0.515   4.514
  436SOL     OW 1326   0.231   1.713   4.207
  436SOL    HW1 1327   0.265   1.790   4.261
  436SOL    HW2 1328   0.275   1.713   4.117
  437SOL     OW 1329   0.230   1.434   4.262
  437SOL    HW1 1330   0.204   1.530   4.262
  437SOL    HW2 1331   0.159   1.380   4.307
  438SOL     OW 1332   0.240   1.091   4.610
  438SOL    HW1 1333   0.254   1.007   4.662
  438SOL    HW2 1334   0.185   1.155   4.665
  439SOL     OW 1335   0.606   0.964   3.847
  439SOL    HW1 1336   0.613   1.048   3.793
  439SOL    HW2 1337   0.652   0.977   3.935
  440SOL     OW 1338   0.122   0.643   4.287
  440SOL    HW1 1339   0.077   0.555   4.304
  440SOL    HW2 1340   0.121   0.697   4.371
  441SOL     OW 1341   1.842   1.767   4.083
  441SOL    HW1 1342   1.896   1.738   4.163
  441SOL    HW2 1343   1.872   1.857   4.054
  442SOL     OW 1344   0.027   1.596   3.841
  442SOL    HW1 1345   0.008   1.500   3.862
  442SOL    HW2 1346  -0.006   1.654   3.916
  443SOL     OW 1347   1.689   0.922   4.336
  443SOL    HW1 1348   1.784   0.893   4.344
  443SOL    HW2 1349   1.681   0.987   4.261
  444SOL     OW 1350   1.641   1.108   4.156
  444SOL    HW1 1351   1.727   1.110   4.104
  444SOL    HW2 1352   1.655   1.155   4.244
  445SOL     OW 1353   0.613   1.365   4.450
  445SOL    HW1 1354   0.564   1.278   4.459
  445SOL    HW2 1355   0.590   1.408   4.363
  446SOL     OW 1356   0.809   0.004   4.226
  446SOL    HW1 1357   0.849   0.095   4.217
  446SOL    HW2 1358   0.709   0.012   4.232
  447SOL     OW 1359   1.525   0.999   3.914
  447SOL    HW1 1360   1.462   0.923   3.927
  447SOL    HW2 1361   1.573   1.017   4.000
  448SOL     OW 1362   1.466   1.417   4.677
  448SOL    HW1 1363   1.407   1.423   4.757
  448SOL    HW2 1364   1.451   1.329   4.631
  449SOL     OW 1365   1.667   1.714   4.296
  449SOL    HW1 1366   1.626   1.691   4.208
  449SOL    HW2 1367   1.649   1.640   4.361
  450SOL     OW 1368   0.598   0.729   3.994
  450SOL    HW1 1369   0.622   0.798   3.926
  450SOL    HW2 1370   0.520   0.762   4.048
  451SOL     OW 1371   1.281   0.345   4.668
  451SOL    HW1 1372   1.195   0.295   4.655
  451SOL    HW2 1373   1.343   0.291   4.724
  452SOL     OW 1374   1.576   1.662   4.031
  452SOL    HW1 1375   1.665   1.708   4.034
  452SOL    HW2 1376   1.555   1.638   3.936
  453SOL     OW 1377   1.041   0.701   4.153
  453SOL    HW1 1378   1.067   0.697   4.249
  453SOL    HW2 1379   0.956   0.650   4.139
  454SOL     OW 1380   0.076   0.811   4.513
  454SOL    HW1 1381   0.175   0.799   4.522
  454SOL    HW2 1382   0.052   0.906   4.534
  455SOL     OW 1383   0.865   0.348   3.919
  455SOL    HW1 1384   0.924   0.411   3.870
  455SOL    HW2 1385   0.884   0.254   3.890
  456SOL     OW 1386   1.362   1.144   4.269
  456SOL    HW1 1387   1.445   1.115   4.221
  456SOL    HW2 1388   1.313   1.211   4.213
  457SOL     OW 1389   1.008   1.456   4.201
  457SOL    HW1 1390   0.962   1.528   4.149
  457SOL    HW2 1391   1.004   1.476   4.299
  458SOL     OW 1392   0.351   1.801   4.577
  458SOL    HW1 1393   0.401   1.715   4.583
  458SOL    HW2 1394   0.416   1.878   4.574
  459SOL     OW 1395   1.795   1.066   4.597
  459SOL    HW1 1396   1.733   1.051   4.521
  459SOL    HW2 1397   1.743   1.077   4.682
  460SOL     OW 1398   0.321   0.943   3.966
  460SOL    HW1 1399   0.403   0.982   3.924
  460SOL    HW2 1400   0.294   0.861   3.917
  461SOL     OW 1401   1.458   0.735   4.452
  461SOL    HW1 1402   1.453   0.670   4.527
  461SOL    HW2 1403   1.538   0.794   4.465
  462SOL     OW 1404   1.111   1.776   3.961
  462SOL    HW1 1405   1.051   1.714   4.011
  462SOL    HW2 1406   1.142   1.732   3.876
  463SOL     OW 1407   1.632   1.377   3.805
  463SOL    HW1 1408   1.600   1.471   3.795
  463SOL    HW2 1409   1.556   1.314   3.793
  464SOL     OW 1410   0.464   1.743   4.047
  464SOL    HW1 1411   0.497   1.782   4.133
  464SOL    HW2 1412   0.540   1.736   3.982
  465SOL     OW 1413   1.400   0.107   4.150
  465SOL    HW1 1414   1.376   0.070   4.060
  465SOL    HW2 1415   1.499   0.123   4.154
  466SOL     OW 1416   0.249   1.785   4.965
  466SOL    HW1 1417   0.306   1.720   5.015
  466SOL    HW2 1418   0.233   1.752   4.872
  467SOL     OW 1419   0.940   1.698   4.628
  467SOL    HW1 1420   1.020   1.641   4.649
  467SOL    HW2 1421   0.891   1.658   4.551
  468SOL     OW 1422   0.382   0.700   4.204
  468SOL    HW1 1423   0.427   0.610   4.201
  468SOL    HW2 1424   0.288   0.689   4.237
  469SOL     OW 1425   0.614   0.122   3.841
  469SOL    HW1 1426   0.712   0.100   3.848
  469SOL    HW2 1427   0.583   0.105   3.748
  470SOL     OW 1428   0.922   0.503   4.623
  470SOL    HW1 1429   0.897   0.494   4.527
  470SOL    HW2 1430   0.970   0.421   4.654
  471SOL     OW 1431   0.539   0.064   4.236
  471SOL    HW1 1432   0.458   0.065   4.294
  471SOL    HW2 1433   0.542   0.147   4.181
  472SOL     OW 1434   1.434   1.188   3.765
  472SOL    HW1 1435   1.466   1.112   3.822
  472SOL    HW2 1436   1.342   1.215   3.795
  473SOL     OW 1437   0.297   0.035   3.895
  473SOL    HW1 1438   0.346   0.119   3.874
  473SOL    HW2 1439   0.359  -0.030   3.940
  474SOL     OW 1440   0.935   0.236   4.204
  474SOL    HW1 1441   0.887   0.277   4.126
  474SOL    HW2 1442   1.034   0.234   4.185
  475SOL     OW 1443   1.227   1.570   4.517
  475SOL    HW1 1444   1.248   1.644   4.452
  475SOL    HW2 1445   1.295   1.570   4.590
  476SOL     OW 1446   0.459   1.152   4.465
  476SOL    HW1 1447   0.388   1.125   4.530
  476SOL    HW2 1448   0.433   1.124   4.372
  477SOL     OW 1449   1.271   1.797   4.315
  477SOL    HW1 1450   1.315   1.861   4.251
  477SOL    HW2 1451   1.221   1.849   4.385
  478SOL     OW 1452   1.032   0.549   3.740
  478SOL    HW1 1453   0.991   0.631   3.701
  478SOL    HW2 1454   1.096   0.575   3.813
  479SOL     OW 1455   0.866   0.454   4.366
  479SOL    HW1 1456   0.834   0.526   4.304
  479SOL    HW2 1457   0.890   0.373   4.313
  480SOL     OW 1458   1.017   0.039   4.477
  480SOL    HW1 1459   0.945   0.044   4.408
  480SOL    HW2 1460   0.993  -0.030   4.546
  481SOL     OW 1461   1.429   1.173   4.591
  481SOL    HW1 1462   1.374   1.089   4.584
  481SOL    HW2 1463   1.455   1.202   4.499
  482SOL     OW 1464   1.857   0.833   4.101
  482SOL    HW1 1465   1.899   0.769   4.165
  482SOL    HW2 1466   1.819   0.782   4.023
  483SOL     OW 1467   0.488   1.385   3.898
  483SOL    HW1 1468   0.401   1.370   3.945
  483SOL    HW2 1469   0.471   1.411   3.803
  484SOL     OW 1470   1.664   1.280   4.381
  484SOL    HW1 1471   1.763   1.288   4.395
  484SOL    HW2 1472   1.619   1.364   4.412
  485SOL     OW 1473   1.390   0.575   3.802
  485SOL    HW1 1474   1.336   0.554   3.883
  485SOL    HW2 1475   1.481   0.534   3.811
  486SOL     OW 1476   0.527   0.256   4.052
  486SOL    HW1 1477   0.554   0.197   3.977
  486SOL    HW2 1478   0.527   0.351   4.021
  487SOL     OW 1479   1.638   1.099   4.803
  487SOL    HW1 1480   1.643   1.180   4.862
  487SOL    HW2 1481   1.552   1.101   4.752
  488SOL     OW 1482   0.705   1.050   4.092
  488SOL    HW1 1483   0.691   1.057   4.191
  488SOL    HW2 1484   0.789   0.999   4.074
  489SOL     OW 1485   0.367   1.100   4.225
  489SOL    HW1 1486   0.360   1.183   4.169
  489SOL    HW2 1487   0.371   1.020   4.165
  490SOL     OW 1488   0.566   0.537   4.589
  490SOL    HW1 1489   0.578   0.603   4.515
  490SOL    HW2 1490   0.612   0.571   4.672
  491SOL     OW 1491   1.252   1.348   4.112
  491SOL    HW1 1492   1.302   1.425   4.152
  491SOL    HW2 1493   1.157   1.350   4.144
  492SOL     OW 1494   1.582   0.639   4.196
  492SOL    HW1 1495   1.551   0.700   4.269
  492SOL    HW2 1496   1.632   0.691   4.127
  493SOL     OW 1497   1.209   0.525   3.999
  493SOL    HW1 1498   1.222   0.441   4.053
  493SOL    HW2 1499   1.180   0.599   4.059
  494SOL     OW 1500   0.732   0.634   4.788
  494SOL    HW1 1501   0.791   0.608   4.712
  494SOL    HW2 1502   0.704   0.730   4.777
  495SOL     OW 1503   0.307   0.063   4.342
  495SOL    HW1 1504   0.296   0.157   4.375
  495SOL    HW2 1505   0.302   0.000   4.419
  496SOL     OW 1506   1.622   0.367   4.098
  496SOL    HW1 1507   1.624   0.291   4.162
  496SOL    HW2 1508   1.574   0.444   4.138
  497SOL     OW 1509   1.540   0.274   3.849
  497SOL    HW1 1510   1.479   0.199   3.872
  497SOL    HW2 1511   1.562   0.326   3.932
  498SOL     OW 1512   1.303   0.838   3.766
  498SOL    HW1 1513   1.337   0.745   3.781
  498SOL    HW2 1514   1.321   0.865   3.671
  499SOL     OW 1515   1.068   1.333   4.573
  499SOL    HW1 1516   1.075   1.249   4.518
  499SOL    HW2 1517   1.130   1.402   4.537
  500SOL     OW 1518   0.319   0.810   4.673
  500SOL    HW1 1519   0.412   0.846   4.678
  500SOL    HW2 1520   0.313   0.725   4.725
  501SOL     OW 1521   0.008   1.326   3.924
  501SOL    HW1 1522  -0.085   1.347   3.893
  501SOL    HW2 1523   0.018   1.227   3.937
  502SOL     OW 1524   0.088   1.801   4.651
  502SOL    HW1 1525   0.046   1.715   4.624
  502SOL    HW2 1526   0.182   1.804   4.617
  503SOL     OW 1527   0.504   1.568   4.634
  503SOL    HW1 1528   0.570   1.642   4.643
  503SOL    HW2 1529   0.548   1.489   4.592
  504SOL     OW 1530   0.815   0.572   4.049
  504SOL    HW1 1531   0.822   0.483   4.003
  504SOL    HW2 1532   0.721   0.606   4.041
  505SOL     OW 1533   0.671   0.464   4.993
  505SOL    HW1 1534   0.637   0.375   4.963
  505SOL    HW2 1535   0.697   0.518   4.913
  506SOL     OW 1536   0.473   0.500   3.915
  506SOL    HW1 1537   0.534   0.580   3.919
  506SOL    HW2 1538   0.378   0.531   3.922
  507SOL     OW 1539   1.347   1.059   4.958
  507SOL    HW1 1540   1.371   0.996   4.884
  507SOL    HW2 1541   1.257   1.099   4.940
  508SOL     OW 1542   1.302   0.855   4.033
  508SOL    HW1 1543   1.216   0.824   4.075
  508SOL    HW2 1544   1.298   0.841   3.934
  509SOL     OW 1545   1.759   1.747   4.878
  509SOL    HW1 1546   1.820   1.777   4.805
  509SOL    HW2 1547   1.721   1.658   4.856
  510SOL     OW 1548   0.083   1.258   4.746
  510SOL    HW1 1549   0.078   1.257   4.846
  510SOL    HW2 1550   0.000   1.217   4.708
  511SOL     OW 1551   1.726   0.135   4.247
  511SOL    HW1 1552   1.799   0.118   4.180
  511SOL    HW2 1553   1.695   0.048   4.285
  512SOL     OW 1554   1.388   1.573   4.201
  512SOL    HW1 1555   1.455   1.585   4.127
  512SOL    HW2 1556   1.348   1.662   4.224
  513SOL     OW 1557   1.280   0.927   4.396
  513SOL    HW1 1558   1.340   0.846   4.398
  513SOL    HW2 1559   1.320   0.996   4.336
  514SOL     OW 1560   0.672   1.616   3.878
  514SOL    HW1 1561   0.681   1.626   3.779
  514SOL    HW2 1562   0.632   1.527   3.899
  515SOL     OW 1563   1.841   0.175   4.687
  515SOL    HW1 1564   1.880   0.090   4.651
  515SOL    HW2 1565   1.743   0.177   4.668
  516SOL     OW 1566   0.263   0.326   4.444
  516SOL    HW1 1567   0.184   0.377   4.410
  516SOL    HW2 1568   0.254   0.311   4.542
  517SOL     OW 1569   1.194   1.612   3.755
  517SOL    HW1 1570   1.200   1.519   3.792
  517SOL    HW2 1571   1.135   1.612   3.675
  518SOL     OW 1572   0.916   0.910   4.015
  518SOL    HW1 1573   0.979   0.948   3.947
  518SOL    HW2 1574   0.956   0.827   4.054
  519SOL     OW 1575   1.504   1.607   3.768
  519SOL    HW1 1576   1.412   1.644   3.775
  519SOL    HW2 1577   1.542   1.627   3.678
  520SOL     OW 1578   1.614   1.292   5.013
  520SOL    HW1 1579   1.674   1.295   5.093
  520SOL    HW2 1580   1.539   1.356   5.026
  521SOL     OW 1581   1.039   1.098   4.420
  521SOL    HW1 1582   0.969   1.051   4.474
  521SOL    HW2 1583   1.098   1.030   4.377
  522SOL     OW 1584   0.590   1.487   4.215
  522SOL    HW1 1585   0.632   1.429   4.145
  522SOL    HW2 1586   0.546   1.566   4.171
  523SOL     OW 1587   0.255   1.348   4.014
  523SOL    HW1 1588   0.159   1.349   3.987
  523SOL    HW2 1589   0.267   1.401   4.098
  524SOL     OW 1590   0.075   0.345   3.757
  524SOL    HW1 1591  -0.017   0.317   3.728
  524SOL    HW2 1592   0.106   0.422   3.701
  525SOL     OW 1593   0.072   0.166   4.042
  525SOL    HW1 1594   0.055   0.249   3.988
  525SOL    HW2 1595   0.162   0.129   4.020
  526SOL     OW 1596   1.183   1.335   3.843
  526SOL    HW1 1597   1.084   1.324   3.845
  526SOL    HW2 1598   1.217   1.350   3.936
  527SOL     OW 1599   1.674   0.883   4.978
  527SOL    HW1 1600   1.647   0.794   4.941
  527SOL    HW2 1601   1.675   0.951   4.905
  528SOL     OW 1602   1.225   0.325   4.173
  528SOL    HW1 1603   1.290   0.251   4.162
  528SOL    HW2 1604   1.245   0.375   4.257
  529SOL     OW 1605   0.594   0.745   4.376
  529SOL    HW1 1606   0.644   0.830   4.357
  529SOL    HW2 1607   0.506   0.747   4.328
  530SOL     OW 1608   0.859   1.374   3.740
  530SOL    HW1 1609   0.813   1.389   3.828
  530SOL    HW2 1610   0.903   1.459   3.710
  531SOL     OW 1611   0.661   1.790   4.677
  531SOL    HW1 1612   0.615   1.878   4.664
  531SOL    HW2 1613   0.760   1.802   4.670
  532SOL     OW 1614   0.859   0.956   4.585
  532SOL    HW1 1615   0.913   0.887   4.633
  532SOL    HW2 1616   0.827   1.025   4.651
  533SOL     OW 1617   1.083   0.984   3.811
  533SOL    HW1 1618   1.060   1.037   3.729
  533SOL    HW2 1619   1.164   0.928   3.792
  534SOL     OW 1620   1.861   1.569   4.575
  534SOL    HW1 1621   1.790   1.557   4.505
  534SOL    HW2 1622   1.862   1.490   4.635
  535SOL     OW 1623   0.079   1.240   4.377
  535SOL    HW1 1624   0.078   1.193   4.465
  535SOL    HW2 1625   0.161   1.212   4.326
  536SOL     OW 1626   1.824   0.192   4.951
  536SOL    HW1 1627   1.820   0.102   4.995
  536SOL    HW2 1628   1.827   0.181   4.852
  537SOL     OW 1629   0.428   0.424   4.244
  537SOL    HW1 1630   0.458   0.352   4.182
  537SOL    HW2 1631   0.389   0.384   4.327
  538SOL     OW 1632   0.812   1.586   4.411
  538SOL    HW1 1633   0.844   1.596   4.317
  538SOL    HW2 1634   0.733   1.524   4.413
  539SOL     OW 1635   0.770   1.330   4.025
  539SOL    HW1 1636   0.724   1.243   4.042
  539SOL    HW2 1637   0.861   1.327   4.066
  540SOL     OW 1638   1.352   0.052   3.892
  540SOL    HW1 1639   1.387   0.011   3.808
  540SOL    HW2 1640   1.262   0.014   3.912
  541SOL     OW 1641   1.300   0.453   4.415
  541SOL    HW1 1642   1.241   0.533   4.419
  541SOL    HW2 1643   1.315   0.418   4.508
  542SOL     OW 1644   1.593   0.221   4.606
  542SOL    HW1 1645   1.509   0.220   4.660
  542SOL    HW2 1646   1.595   0.304   4.550
  543SOL     OW 1647   0.039   1.077   4.024
  543SOL    HW1 1648   0.138   1.066   4.015
  543SOL    HW2 1649  -0.001   0.991   4.056
  544SOL     OW 1650   0.875   1.646   4.061
  544SOL    HW1 1651   0.798   1.611   4.007
  544SOL    HW2 1652   0.843   1.717   4.123
  545SOL     OW 1653   0.230   2.490   0.113
  545SOL    HW1 1654   0.137   2.488   0.150
  545SOL    HW2 1655   0.231   2.451   0.021
  546SOL     OW 1656   0.225   2.137   0.996
  546SOL    HW1 1657   0.260   2.120   1.088
  546SOL    HW2 1658   0.137   2.092   0.984
  547SOL     OW 1659   0.019   2.230   0.647
  547SOL    HW1 1660  -0.063   2.273   0.686
  547SOL    HW2 1661  -0.009   2.157   0.584
  548SOL     OW 1662   0.569   3.137   1.165
  548SOL    HW1 1663   0.476   3.130   1.128
  548SOL    HW2 1664   0.580   3.226   1.209
  549SOL     OW 1665   1.555   3.373   0.703
  549SOL    HW1 1666   1.498   3.357   0.784
  549SOL    HW2 1667   1.496   3.383   0.623
  550SOL     OW 1668   1.135   2.565   0.717
  550SOL    HW1 1669   1.192   2.643   0.692
  550SOL    HW2 1670   1.075   2.591   0.793
  551SOL     OW 1671   1.755   2.469   0.231
  551SOL    HW1 1672   1.743   2.456   0.132
  551SOL    HW2 1673   1.725   2.388   0.280
  552SOL     OW 1674   0.768   3.006   1.023
  552SOL    HW1 1675   0.690   3.023   1.083
  552SOL    HW2 1676   0.802   3.093   0.987
  553SOL     OW 1677   0.850   2.660   1.823
  553SOL    HW1 1678   0.846   2.736   1.888
  553SOL    HW2 1679   0.872   2.696   1.732
  554SOL     OW 1680   0.685   2.874   0.665
  554SOL    HW1 1681   0.754   2.858   0.735
  554SOL    HW2 1682   0.612   2.931   0.703
  555SOL     OW 1683   0.686   3.023   1.803
  555SOL    HW1 1684   0.746   3.102   1.817
  555SOL    HW2 1685   0.600   3.054   1.762
  556SOL     OW 1686   0.335   3.297   1.061
  556SOL    HW1 1687   0.257   3.266   1.008
  556SOL    HW2 1688   0.393   3.355   1.004
  557SOL     OW 1689   1.460   3.367   1.339
  557SOL    HW1 1690   1.484   3.461   1.365
  557SOL    HW2 1691   1.444   3.313   1.421
  558SOL     OW 1692   0.438   2.254   1.499
  558SOL    HW1 1693   0.520   2.198   1.508
  558SOL    HW2 1694   0.357   2.196   1.503
  559SOL     OW 1695   1.603   2.309   0.737
  559SOL    HW1 1696   1.529   2.355   0.687
  559SOL    HW2 1697   1.654   2.377   0.790
  560SOL     OW 1698   0.231   3.575   0.483
  560SOL    HW1 1699   0.265   3.652   0.537
  560SOL    HW2 1700   0.275   3.575   0.393
  561SOL     OW 1701   1.127   3.203   1.690
  561SOL    HW1 1702   1.174   3.203   1.778
  561SOL    HW2 1703   1.079   3.116   1.679
  562SOL     OW 1704   0.230   3.296   0.538
  562SOL    HW1 1705   0.204   3.392   0.538
  562SOL    HW2 1706   0.159   3.242   0.583
  563SOL     OW 1707   0.240   2.953   0.886
  563SOL    HW1 1708   0.254   2.869   0.938
  563SOL    HW2 1709   0.185   3.017   0.941
  564SOL     OW 1710   0.620   3.648   1.439
  564SOL    HW1 1711   0.528   3.631   1.474
  564SOL    HW2 1712   0.648   3.740   1.465
  565SOL     OW 1713   0.606   2.826   0.123
  565SOL    HW1 1714   0.613   2.910   0.069
  565SOL    HW2 1715   0.652   2.839   0.211
  566SOL     OW 1716   1.594   1.976   1.480
  566SOL    HW1 1717   1.576   2.043   1.408
  566SOL    HW2 1718   1.591   2.022   1.569
  567SOL     OW 1719   0.122   2.505   0.563
  567SOL    HW1 1720   0.077   2.417   0.580
  567SOL    HW2 1721   0.121   2.559   0.647
  568SOL     OW 1722   1.842   3.629   0.359
  568SOL    HW1 1723   1.896   3.600   0.439
  568SOL    HW2 1724   1.872   3.719   0.330
  569SOL     OW 1725   0.027   3.458   0.117
  569SOL    HW1 1726   0.008   3.362   0.138
  569SOL    HW2 1727  -0.006   3.516   0.192
  570SOL     OW 1728   1.689   2.784   0.612
  570SOL    HW1 1729   1.784   2.755   0.620
  570SOL    HW2 1730   1.681   2.849   0.537
  571SOL     OW 1731   1.641   2.970   0.432
  571SOL    HW1 1732   1.727   2.972   0.380
  571SOL    HW2 1733   1.655   3.017   0.520
  572SOL     OW 1734   0.113   2.599   1.597
  572SOL    HW1 1735   0.201   2.586   1.642
  572SOL    HW2 1736   0.100   2.696   1.575
  573SOL     OW 1737   0.613   3.227   0.726
  573SOL    HW1 1738   0.564   3.140   0.735
  573SOL    HW2 1739   0.590   3.270   0.639
  574SOL     OW 1740   1.293   3.090   1.423
  574SOL    HW1 1741   1.330   3.017   1.365
  574SOL    HW2 1742   1.345   3.095   1.508
  575SOL     OW 1743   0.809   1.866   0.502
  575SOL    HW1 1744   0.849   1.957   0.493
  575SOL    HW2 1745   0.709   1.874   0.508
  576SOL     OW 1746   0.197   2.838   1.264
  576SOL    HW1 1747   0.286   2.793   1.250
  576SOL    HW2 1748   0.124   2.773   1.245
  577SOL     OW 1749   1.525   2.861   0.190
  577SOL    HW1 1750   1.462   2.785   0.203
  577SOL    HW2 1751   1.573   2.879   0.276
  578SOL     OW 1752   1.187   3.654   1.616
  578SOL    HW1 1753   1.211   3.714   1.540
  578SOL    HW2 1754   1.194   3.559   1.586
  579SOL     OW 1755   0.317   2.113   1.801
  579SOL    HW1 1756   0.388   2.184   1.807
  579SOL    HW2 1757   0.229   2.152   1.829
  580SOL     OW 1758   1.466   3.279   0.953
  580SOL    HW1 1759   1.407   3.285   1.033
  580SOL    HW2 1760   1.451   3.191   0.907
  581SOL     OW 1761   1.667   3.576   0.572
  581SOL    HW1 1762   1.626   3.553   0.484
  581SOL    HW2 1763   1.649   3.502   0.637
  582SOL     OW 1764   0.598   2.591   0.270
  582SOL    HW1 1765   0.622   2.660   0.202
  582SOL    HW2 1766   0.520   2.624   0.324
  583SOL     OW 1767   1.281   2.207   0.944
  583SOL    HW1 1768   1.195   2.157   0.931
  583SOL    HW2 1769   1.343   2.153   1.000
  584SOL     OW 1770   1.576   3.524   0.307
  584SOL    HW1 1771   1.665   3.570   0.310
  584SOL    HW2 1772   1.555   3.500   0.212
  585SOL     OW 1773   0.807   2.467   1.465
  585SOL    HW1 1774   0.760   2.464   1.554
  585SOL    HW2 1775   0.756   2.412   1.399
  586SOL     OW 1776   1.394   2.331   1.674
  586SOL    HW1 1777   1.374   2.374   1.762
  586SOL    HW2 1778   1.472   2.269   1.683
  587SOL     OW 1779   0.973   2.752   1.572
  587SOL    HW1 1780   1.019   2.668   1.543
  587SOL    HW2 1781   0.917   2.786   1.497
  588SOL     OW 1782   0.991   2.272   1.242
  588SOL    HW1 1783   0.914   2.306   1.296
  588SOL    HW2 1784   0.957   2.221   1.163
  589SOL     OW 1785   1.041   2.563   0.429
  589SOL    HW1 1786   1.067   2.559   0.525
  589SOL    HW2 1787   0.956   2.512   0.415
  590SOL     OW 1788   0.076   2.673   0.789
  590SOL    HW1 1789   0.175   2.661   0.798
  590SOL    HW2 1790   0.052   2.768   0.810
  591SOL     OW 1791   0.130   3.683   1.571
  591SOL    HW1 1792   0.120   3.668   1.670
  591SOL    HW2 1793   0.044   3.719   1.535
  592SOL     OW 1794   0.865   2.210   0.195
  592SOL    HW1 1795   0.924   2.273   0.146
  592SOL    HW2 1796   0.884   2.116   0.166
  593SOL     OW 1797   1.719   2.447   1.831
  593SOL    HW1 1798   1.693   2.536   1.795
  593SOL    HW2 1799   1.717   2.379   1.758
  594SOL     OW 1800   1.362   3.006   0.545
  594SOL    HW1 1801   1.445   2.977   0.497
  594SOL    HW2 1802   1.313   3.073   0.489
  595SOL     OW 1803   0.550   2.058   0.885
  595SOL    HW1 1804   0.545   2.053   0.985
  595SOL    HW2 1805   0.552   2.154   0.856
  596SOL     OW 1806   1.008   3.318   0.477
  596SOL    HW1 1807   0.962   3.390   0.425
  596SOL    HW2 1808   1.004   3.338   0.575
  597SOL     OW 1809   0.351   3.663   0.853
  597SOL    HW1 1810   0.401   3.577   0.859
  597SOL    HW2 1811   0.416   3.740   0.850
  598SOL     OW 1812   1.795   2.928   0.873
  598SOL    HW1 1813   1.733   2.913   0.797
  598SOL    HW2 1814   1.743   2.939   0.958
  599SOL     OW 1815   1.227   3.412   1.506
  599SOL    HW1 1816   1.233   3.335   1.570
  599SOL    HW2 1817   1.175   3.386   1.426
  600SOL     OW 1818   0.321   2.805   0.242
  600SOL    HW1 1819   0.403   2.844   0.200
  600SOL    HW2 1820   0.294   2.723   0.193
  601SOL     OW 1821   1.458   2.597   0.728
  601SOL    HW1 1822   1.453   2.532   0.803
  601SOL    HW2 1823   1.538   2.656   0.741
  602SOL     OW 1824   0.461   3.128   1.727
  602SOL    HW1 1825   0.411   3.129   1.641
  602SOL    HW2 1826   0.398   3.110   1.803
  603SOL     OW 1827   1.111   3.638   0.237
  603SOL    HW1 1828   1.051   3.576   0.287
  603SOL    HW2 1829   1.142   3.594   0.152
  604SOL     OW 1830   0.202   2.147   1.498
  604SOL    HW1 1831   0.122   2.207   1.485
  604SOL    HW2 1832   0.192   2.098   1.584
  605SOL     OW 1833   1.632   3.239   0.081
  605SOL    HW1 1834   1.600   3.333   0.071
  605SOL    HW2 1835   1.556   3.176   0.069
  606SOL     OW 1836   0.464   3.605   0.323
  606SOL    HW1 1837   0.497   3.644   0.409
  606SOL    HW2 1838   0.540   3.598   0.258
  607SOL     OW 1839   1.400   1.969   0.426
  607SOL    HW1 1840   1.376   1.932   0.336
  607SOL    HW2 1841   1.499   1.985   0.430
  608SOL     OW 1842   0.249   3.647   1.241
  608SOL    HW1 1843   0.306   3.582   1.291
  608SOL    HW2 1844   0.233   3.614   1.148
  609SOL     OW 1845   0.940   3.560   0.904
  609SOL    HW1 1846   1.020   3.503   0.925
  609SOL    HW2 1847   0.891   3.520   0.827
  610SOL     OW 1848   0.382   2.562   0.480
  610SOL    HW1 1849   0.427   2.472   0.477
  610SOL    HW2 1850   0.288   2.551   0.513
  611SOL     OW 1851   1.547   2.084   1.729
  611SOL    HW1 1852   1.542   2.121   1.821
  611SOL    HW2 1853   1.475   2.015   1.717
  612SOL     OW 1854   0.614   1.984   0.117
  612SOL    HW1 1855   0.712   1.962   0.124
  612SOL    HW2 1856   0.583   1.967   0.024
  613SOL     OW 1857   0.781   2.126   1.749
  613SOL    HW1 1858   0.848   2.065   1.792
  613SOL    HW2 1859   0.708   2.145   1.814
  614SOL     OW 1860   0.888   3.376   1.195
  614SOL    HW1 1861   0.865   3.351   1.101
  614SOL    HW2 1862   0.949   3.307   1.234
  615SOL     OW 1863   1.351   2.452   1.433
  615SOL    HW1 1864   1.379   2.409   1.518
  615SOL    HW2 1865   1.376   2.548   1.434
  616SOL     OW 1866   0.803   3.264   0.924
  616SOL    HW1 1867   0.893   3.278   0.882
  616SOL    HW2 1868   0.732   3.266   0.853
  617SOL     OW 1869   0.922   2.365   0.899
  617SOL    HW1 1870   0.897   2.356   0.803
  617SOL    HW2 1871   0.970   2.283   0.930
  618SOL     OW 1872   0.539   1.926   0.512
  618SOL    HW1 1873   0.458   1.927   0.570
  618SOL    HW2 1874   0.542   2.009   0.457
  619SOL     OW 1875   1.434   3.050   0.041
  619SOL    HW1 1876   1.466   2.974   0.098
  619SOL    HW2 1877   1.342   3.077   0.071
  620SOL     OW 1878   0.935   2.098   0.480
  620SOL    HW1 1879   0.887   2.139   0.402
  620SOL    HW2 1880   1.034   2.096   0.461
  621SOL     OW 1881   1.076   2.545   1.464
  621SOL    HW1 1882   0.996   2.484   1.467
  621SOL    HW2 1883   1.157   2.492   1.440
  622SOL     OW 1884   1.227   3.432   0.793
  622SOL    HW1 1885   1.248   3.506   0.728
  622SOL    HW2 1886   1.295   3.432   0.866
  623SOL     OW 1887   0.459   3.014   0.741
  623SOL    HW1 1888   0.388   2.987   0.806
  623SOL    HW2 1889   0.433   2.986   0.648
  624SOL     OW 1890   1.271   3.659   0.591
  624SOL    HW1 1891   1.315   3.723   0.527
  624SOL    HW2 1892   1.221   3.711   0.661
  625SOL     OW 1893   1.032   2.411   0.016
  625SOL    HW1 1894   0.991   2.493  -0.023
  625SOL    HW2 1895   1.096   2.437   0.089
  626SOL     OW 1896   0.078   2.418   1.386
  626SOL    HW1 1897   0.170   2.417   1.345
  626SOL    HW2 1898   0.072   2.492   1.453
  627SOL     OW 1899   0.561   2.084   1.147
  627SOL    HW1 1900   0.599   2.000   1.184
  627SOL    HW2 1901   0.473   2.103   1.191
  628SOL     OW 1902   0.866   2.316   0.642
  628SOL    HW1 1903   0.834   2.388   0.580
  628SOL    HW2 1904   0.890   2.235   0.589
  629SOL     OW 1905   1.017   1.901   0.753
  629SOL    HW1 1906   0.945   1.906   0.684
  629SOL    HW2 1907   0.993   1.832   0.822
  630SOL     OW 1908   1.429   3.035   0.867
  630SOL    HW1 1909   1.374   2.951   0.860
  630SOL    HW2 1910   1.455   3.064   0.775
  631SOL     OW 1911   1.466   2.452   0.992
  631SOL    HW1 1912   1.436   2.357   0.999
  631SOL    HW2 1913   1.539   2.468   1.058
  632SOL     OW 1914   1.857   2.695   0.377
  632SOL    HW1 1915   1.899   2.631   0.441
  632SOL    HW2 1916   1.819   2.644   0.299
  633SOL     OW 1917   0.488   3.247   0.174
  633SOL    HW1 1918   0.401   3.232   0.221
  633SOL    HW2 1919   0.471   3.273   0.079
  634SOL     OW 1920   1.664   3.142   0.657
  634SOL    HW1 1921   1.763   3.150   0.671
  634SOL    HW2 1922   1.619   3.226   0.688
  635SOL     OW 1923   1.390   2.437   0.078
  635SOL    HW1 1924   1.336   2.416   0.159
  635SOL    HW2 1925   1.481   2.396   0.087
  636SOL     OW 1926   0.527   2.118   0.328
  636SOL    HW1 1927   0.554   2.059   0.253
  636SOL    HW2 1928   0.527   2.213   0.297
  637SOL     OW 1929   1.754   3.085   1.588
  637SOL    HW1 1930   1.845   3.046   1.575
  637SOL    HW2 1931   1.762   3.181   1.612
  638SOL     OW 1932   1.064   3.209   1.340
  638SOL    HW1 1933   0.984   3.186   1.395
  638SOL    HW2 1934   1.147   3.183   1.389
  639SOL     OW 1935   1.592   3.491   1.625
  639SOL    HW1 1936   1.619   3.525   1.535
  639SOL    HW2 1937   1.671   3.453   1.671
  640SOL     OW 1938   1.111   3.057   1.100
  640SOL    HW1 1939   1.071   3.101   1.181
  640SOL    HW2 1940   1.070   3.094   1.017
  641SOL     OW 1941   1.638   2.961   1.079
  641SOL    HW1 1942   1.643   3.042   1.138
  641SOL    HW2 1943   1.552   2.963   1.028
  642SOL     OW 1944   0.915   1.951   1.402
  642SOL    HW1 1945   0.940   1.931   1.307
  642SOL    HW2 1946   0.987   2.007   1.444
  643SOL     OW 1947   0.980   2.978   1.719
  643SOL    HW1 1948   0.881   2.984   1.729
  643SOL    HW2 1949   1.003   2.898   1.663
  644SOL     OW 1950   0.705   2.912   0.368
  644SOL    HW1 1951   0.691   2.919   0.467
  644SOL    HW2 1952   0.789   2.861   0.350
  645SOL     OW 1953   0.410   2.675   1.251
  645SOL    HW1 1954   0.496   2.687   1.301
  645SOL    HW2 1955   0.368   2.588   1.278
  646SOL     OW 1956   1.274   2.248   1.262
  646SOL    HW1 1957   1.295   2.322   1.326
  646SOL    HW2 1958   1.185   2.265   1.219
  647SOL     OW 1959   0.064   3.426   1.331
  647SOL    HW1 1960   0.018   3.508   1.297
  647SOL    HW2 1961   0.162   3.445   1.340
  648SOL     OW 1962   0.367   2.962   0.501
  648SOL    HW1 1963   0.360   3.045   0.445
  648SOL    HW2 1964   0.371   2.882   0.441
  649SOL     OW 1965   0.566   2.399   0.865
  649SOL    HW1 1966   0.578   2.465   0.791
  649SOL    HW2 1967   0.612   2.433   0.948
  650SOL     OW 1968   1.252   3.210   0.388
  650SOL    HW1 1969   1.302   3.287   0.428
  650SOL    HW2 1970   1.157   3.212   0.420
  651SOL     OW 1971   1.272   3.307   1.142
  651SOL    HW1 1972   1.319   3.320   1.229
  651SOL    HW2 1973   1.206   3.233   1.151
  652SOL     OW 1974   1.582   2.501   0.472
  652SOL    HW1 1975   1.551   2.562   0.545
  652SOL    HW2 1976   1.632   2.553   0.403
  653SOL     OW 1977   0.354   3.372   1.329
  653SOL    HW1 1978   0.333   3.328   1.242
  653SOL    HW2 1979   0.451   3.398   1.332
  654SOL     OW 1980   0.402   2.613   1.598
  654SOL    HW1 1981   0.470   2.668   1.551
  654SOL    HW2 1982   0.442   2.525   1.625
  655SOL     OW 1983   1.587   2.641   1.670
  655SOL    HW1 1984   1.495   2.679   1.665
  655SOL    HW2 1985   1.647   2.688   1.605
  656SOL     OW 1986   1.013   1.967   1.770
  656SOL    HW1 1987   1.019   2.052   1.718
  656SOL    HW2 1988   1.045   1.891   1.713
  657SOL     OW 1989   0.504   1.912   1.740
  657SOL    HW1 1990   0.462   1.855   1.670
  657SOL    HW2 1991   0.438   1.981   1.772
  658SOL     OW 1992   0.573   2.732   1.029
  658SOL    HW1 1993   0.617   2.821   1.020
  658SOL    HW2 1994   0.510   2.732   1.106
  659SOL     OW 1995   1.360   2.724   1.045
  659SOL    HW1 1996   1.285   2.724   0.979
  659SOL    HW2 1997   1.397   2.632   1.054
  660SOL     OW 1998   1.209   2.387   0.275
  660SOL    HW1 1999   1.222   2.303   0.329
  660SOL    HW2 2000   1.180   2.461   0.335
  661SOL     OW 2001   0.307   2.075   1.231
  661SOL    HW1 2002   0.284   2.112   1.321
  661SOL    HW2 2003   0.277   1.980   1.225
  662SOL     OW 2004   0.037   3.172   1.282
  662SOL    HW1 2005   0.090   3.123   1.350
  662SOL    HW2 2006   0.059   3.270   1.287
  663SOL     OW 2007   0.732   2.496   1.064
  663SOL    HW1 2008   0.791   2.470   0.988
  663SOL    HW2 2009   0.704   2.592   1.053
  664SOL     OW 2010   1.728   2.797   1.854
  664SOL    HW1 2011   1.682   2.790   1.765
  664SOL    HW2 2012   1.666   2.841   1.920
  665SOL     OW 2013   0.307   1.925   0.618
  665SOL    HW1 2014   0.296   2.019   0.651
  665SOL    HW2 2015   0.302   1.862   0.695
  666SOL     OW 2016   1.622   2.229   0.374
  666SOL    HW1 2017   1.624   2.153   0.438
  666SOL    HW2 2018   1.574   2.306   0.414
  667SOL     OW 2019   1.023   2.628   0.966
  667SOL    HW1 2020   1.038   2.649   1.062
  667SOL    HW2 2021   0.993   2.533   0.957
  668SOL     OW 2022   0.980   3.435   1.700
  668SOL    HW1 2023   0.960   3.479   1.612
  668SOL    HW2 2024   1.019   3.344   1.684
  669SOL     OW 2025   1.859   3.380   1.605
  669SOL    HW1 2026   1.873   3.407   1.510
  669SOL    HW2 2027   1.942   3.402   1.658
  670SOL     OW 2028   0.350   2.760   1.804
  670SOL    HW1 2029   0.426   2.804   1.852
  670SOL    HW2 2030   0.385   2.713   1.722
  671SOL     OW 2031   1.540   2.136   0.125
  671SOL    HW1 2032   1.479   2.061   0.148
  671SOL    HW2 2033   1.562   2.188   0.208
  672SOL     OW 2034   1.303   2.700   0.042
  672SOL    HW1 2035   1.337   2.607   0.057
  672SOL    HW2 2036   1.321   2.727  -0.053
  673SOL     OW 2037   1.068   3.195   0.849
  673SOL    HW1 2038   1.075   3.111   0.794
  673SOL    HW2 2039   1.130   3.264   0.813
  674SOL     OW 2040   0.319   2.672   0.949
  674SOL    HW1 2041   0.412   2.708   0.954
  674SOL    HW2 2042   0.313   2.587   1.001
  675SOL     OW 2043   0.339   2.371   1.006
  675SOL    HW1 2044   0.287   2.288   0.989
  675SOL    HW2 2045   0.416   2.376   0.942
  676SOL     OW 2046   1.138   2.242   1.678
  676SOL    HW1 2047   1.093   2.305   1.742
  676SOL    HW2 2048   1.231   2.273   1.661
  677SOL     OW 2049   1.160   2.069   1.477
  677SOL    HW1 2050   1.160   2.133   1.554
  677SOL    HW2 2051   1.188   2.117   1.394
  678SOL     OW 2052   0.008   3.188   0.200
  678SOL    HW1 2053  -0.085   3.209   0.169
  678SOL    HW2 2054   0.018   3.089   0.213
  679SOL     OW 2055   0.088   3.663   0.927
  679SOL    HW1 2056   0.046   3.577   0.900
  679SOL    HW2 2057   0.182   3.666   0.893
  680SOL     OW 2058   0.504   3.430   0.910
  680SOL    HW1 2059   0.570   3.504   0.919
  680SOL    HW2 2060   0.548   3.351   0.868
  681SOL     OW 2061   1.002   2.658   1.238
  681SOL    HW1 2062   1.043   2.626   1.324
  681SOL    HW2 2063   0.906   2.631   1.235
  682SOL     OW 2064   0.040   2.406   1.114
  682SOL    HW1 2065   0.125   2.373   1.073
  682SOL    HW2 2066   0.053   2.421   1.212
  683SOL     OW 2067   0.189   2.382   1.722
  683SOL    HW1 2068   0.248   2.342   1.652
  683SOL    HW2 2069   0.131   2.453   1.681
  684SOL     OW 2070   1.369   2.812   1.660
  684SOL    HW1 2071   1.408   2.901   1.680
  684SOL    HW2 2072   1.379   2.792   1.563
  685SOL     OW 2073   0.815   2.434   0.325
  685SOL    HW1 2074   0.822   2.345   0.279
  685SOL    HW2 2075   0.721   2.468   0.317
  686SOL     OW 2076   1.657   2.466   1.206
  686SOL    HW1 2077   1.619   2.397   1.268
  686SOL    HW2 2078   1.739   2.430   1.162
  687SOL     OW 2079   0.252   3.426   1.744
  687SOL    HW1 2080   0.222   3.483   1.820
  687SOL    HW2 2081   0.245   3.329   1.770
  688SOL     OW 2082   0.671   2.326   1.269
  688SOL    HW1 2083   0.637   2.237   1.239
  688SOL    HW2 2084   0.697   2.380   1.189
  689SOL     OW 2085   0.930   3.540   1.465
  689SOL    HW1 2086   0.906   3.522   1.370
  689SOL    HW2 2087   0.960   3.634   1.475
  690SOL     OW 2088   0.473   2.362   0.191
  690SOL    HW1 2089   0.534   2.442   0.195
  690SOL    HW2 2090   0.378   2.393   0.198
  691SOL     OW 2091   0.159   2.999   1.466
  691SOL    HW1 2092   0.181   2.938   1.542
  691SOL    HW2 2093   0.169   2.950   1.380
  692SOL     OW 2094   1.347   2.921   1.234
  692SOL    HW1 2095   1.371   2.858   1.160
  692SOL    HW2 2096   1.257   2.961   1.216
  693SOL     OW 2097   1.302   2.717   0.309
  693SOL    HW1 2098   1.216   2.686   0.351
  693SOL    HW2 2099   1.298   2.703   0.210
  694SOL     OW 2100   1.759   3.609   1.154
  694SOL    HW1 2101   1.820   3.639   1.081
  694SOL    HW2 2102   1.721   3.520   1.132
  695SOL     OW 2103   1.252   3.593   1.128
  695SOL    HW1 2104   1.336   3.598   1.074
  695SOL    HW2 2105   1.229   3.497   1.146
  696SOL     OW 2106   0.083   3.120   1.022
  696SOL    HW1 2107   0.078   3.119   1.122
  696SOL    HW2 2108   0.000   3.079   0.984
  697SOL     OW 2109   0.688   3.524   1.716
  697SOL    HW1 2110   0.632   3.605   1.725
  697SOL    HW2 2111   0.740   3.528   1.630
  698SOL     OW 2112   0.903   1.948   0.133
  698SOL    HW1 2113   0.954   1.949   0.047
  698SOL    HW2 2114   0.959   1.906   0.204
  699SOL     OW 2115   1.726   1.997   0.523
  699SOL    HW1 2116   1.799   1.980   0.456
  699SOL    HW2 2117   1.695   1.910   0.561
  700SOL     OW 2118   1.388   3.435   0.477
  700SOL    HW1 2119   1.455   3.447   0.403
  700SOL    HW2 2120   1.348   3.524   0.500
  701SOL     OW 2121   0.130   3.656   1.851
  701SOL    HW1 2122   0.089   3.582   1.904
  701SOL    HW2 2123   0.194   3.707   1.909
  702SOL     OW 2124   1.280   2.789   0.672
  702SOL    HW1 2125   1.340   2.708   0.674
  702SOL    HW2 2126   1.320   2.858   0.612
  703SOL     OW 2127   0.830   3.135   1.422
  703SOL    HW1 2128   0.825   3.168   1.517
  703SOL    HW2 2129   0.744   3.154   1.376
  704SOL     OW 2130   0.672   3.478   0.154
  704SOL    HW1 2131   0.681   3.488   0.055
  704SOL    HW2 2132   0.632   3.389   0.175
  705SOL     OW 2133   1.650   3.582   1.394
  705SOL    HW1 2134   1.703   3.592   1.310
  705SOL    HW2 2135   1.623   3.672   1.428
  706SOL     OW 2136   1.841   2.037   0.963
  706SOL    HW1 2137   1.880   1.952   0.927
  706SOL    HW2 2138   1.743   2.039   0.944
  707SOL     OW 2139   0.263   2.188   0.720
  707SOL    HW1 2140   0.184   2.239   0.686
  707SOL    HW2 2141   0.254   2.173   0.818
  708SOL     OW 2142   1.194   3.474   0.031
  708SOL    HW1 2143   1.200   3.381   0.068
  708SOL    HW2 2144   1.135   3.474  -0.049
  709SOL     OW 2145   0.822   2.864   1.372
  709SOL    HW1 2146   0.862   2.863   1.280
  709SOL    HW2 2147   0.832   2.956   1.412
  710SOL     OW 2148   0.916   2.772   0.291
  710SOL    HW1 2149   0.979   2.810   0.223
  710SOL    HW2 2150   0.956   2.689   0.330
  711SOL     OW 2151   1.504   3.469   0.044
  711SOL    HW1 2152   1.412   3.506   0.051
  711SOL    HW2 2153   1.542   3.489  -0.046
  712SOL     OW 2154   0.372   3.150   1.490
  712SOL    HW1 2155   0.359   3.243   1.456
  712SOL    HW2 2156   0.288   3.098   1.477
  713SOL     OW 2157   1.614   3.154   1.289
  713SOL    HW1 2158   1.674   3.157   1.369
  713SOL    HW2 2159   1.539   3.218   1.302
  714SOL     OW 2160   1.039   2.960   0.696
  714SOL    HW1 2161   0.969   2.913   0.750
  714SOL    HW2 2162   1.098   2.892   0.653
  715SOL     OW 2163   1.014   2.098   0.971
  715SOL    HW1 2164   1.006   2.062   0.878
  715SOL    HW2 2165   1.012   2.022   1.036
  716SOL     OW 2166   0.590   3.349   0.491
  716SOL    HW1 2167   0.632   3.291   0.421
  716SOL    HW2 2168   0.546   3.428   0.447
  717SOL     OW 2169   1.709   2.247   1.381
  717SOL    HW1 2170   1.782   2.316   1.385
  717SOL    HW2 2171   1.737   2.172   1.322
  718SOL     OW 2172   0.255   3.210   0.290
  718SOL    HW1 2173   0.159   3.211   0.263
  718SOL    HW2 2174   0.267   3.263   0.374
  719SOL     OW 2175   0.105   2.875   1.726
  719SOL    HW1 2176   0.028   2.842   1.780
  719SOL    HW2 2177   0.190   2.845   1.768
  720SOL     OW 2178   0.672   2.065   1.489
  720SOL    HW1 2179   0.762   2.049   1.449
  720SOL    HW2 2180   0.680   2.070   1.588
  721SOL     OW 2181   0.075   2.207   0.033
  721SOL    HW1 2182  -0.017   2.179   0.004
  721SOL    HW2 2183   0.106   2.284  -0.023
  722SOL     OW 2184   1.440   2.718   1.398
  722SOL    HW1 2185   1.383   2.770   1.335
  722SOL    HW2 2186   1.536   2.730   1.374
  723SOL     OW 2187   0.072   2.028   0.318
  723SOL    HW1 2188   0.055   2.111   0.264
  723SOL    HW2 2189   0.162   1.991   0.296
  724SOL     OW 2190   1.183   3.197   0.119
  724SOL    HW1 2191   1.084   3.186   0.121
  724SOL    HW2 2192   1.217   3.212   0.212
  725SOL     OW 2193   0.613   2.704   1.431
  725SOL    HW1 2194   0.669   2.785   1.414
  725SOL    HW2 2195   0.672   2.624   1.434
  726SOL     OW 2196   1.493   3.629   0.959
  726SOL    HW1 2197   1.526   3.693   0.890
  726SOL    HW2 2198   1.559   3.623   1.034
  727SOL     OW 2199   0.716   2.427   1.708
  727SOL    HW1 2200   0.735   2.492   1.782
  727SOL    HW2 2201   0.776   2.347   1.717
  728SOL     OW 2202   1.450   3.082   1.633
  728SOL    HW1 2203   1.441   3.072   1.732
  728SOL    HW2 2204   1.546   3.075   1.607
  729SOL     OW 2205   0.390   3.603   1.560
  729SOL    HW1 2206   0.299   3.644   1.558
  729SOL    HW2 2207   0.383   3.509   1.592
  730SOL     OW 2208   1.674   2.745   1.254
  730SOL    HW1 2209   1.647   2.656   1.217
  730SOL    HW2 2210   1.675   2.813   1.181
  731SOL     OW 2211   1.225   2.187   0.449
  731SOL    HW1 2212   1.290   2.113   0.438
  731SOL    HW2 2213   1.245   2.237   0.533
  732SOL     OW 2214   0.594   2.607   0.652
  732SOL    HW1 2215   0.644   2.692   0.633
  732SOL    HW2 2216   0.506   2.609   0.604
  733SOL     OW 2217   1.777   2.204   1.642
  733SOL    HW1 2218   1.760   2.235   1.548
  733SOL    HW2 2219   1.693   2.167   1.680
  734SOL     OW 2220   1.730   2.796   1.517
  734SOL    HW1 2221   1.768   2.887   1.532
  734SOL    HW2 2222   1.722   2.779   1.418
  735SOL     OW 2223   0.859   3.236   0.016
  735SOL    HW1 2224   0.813   3.251   0.104
  735SOL    HW2 2225   0.903   3.321  -0.014
  736SOL     OW 2226   0.661   3.652   0.953
  736SOL    HW1 2227   0.615   3.740   0.940
  736SOL    HW2 2228   0.760   3.664   0.946
  737SOL     OW 2229   0.859   2.818   0.861
  737SOL    HW1 2230   0.913   2.749   0.909
  737SOL    HW2 2231   0.827   2.887   0.927
  738SOL     OW 2232   1.083   2.846   0.087
  738SOL    HW1 2233   1.060   2.899   0.005
  738SOL    HW2 2234   1.164   2.790   0.068
  739SOL     OW 2235   1.861   3.431   0.851
  739SOL    HW1 2236   1.790   3.419   0.781
  739SOL    HW2 2237   1.862   3.352   0.911
  740SOL     OW 2238   0.221   3.176   1.844
  740SOL    HW1 2239   0.156   3.103   1.823
  740SOL    HW2 2240   0.225   3.190   1.942
  741SOL     OW 2241   0.079   3.102   0.653
  741SOL    HW1 2242   0.078   3.055   0.741
  741SOL    HW2 2243   0.161   3.074   0.602
  742SOL     OW 2244   0.672   3.253   1.624
  742SOL    HW1 2245   0.594   3.203   1.662
  742SOL    HW2 2246   0.669   3.348   1.655
  743SOL     OW 2247   1.824   2.054   1.227
  743SOL    HW1 2248   1.820   1.964   1.271
  743SOL    HW2 2249   1.827   2.043   1.128
  744SOL     OW 2250   0.428   2.286   0.520
  744SOL    HW1 2251   0.458   2.214   0.458
  744SOL    HW2 2252   0.389   2.246   0.603
  745SOL     OW 2253   1.705   3.349   1.104
  745SOL    HW1 2254   1.612   3.324   1.077
  745SOL    HW2 2255   1.731   3.299   1.186
  746SOL     OW 2256   0.317   2.409   1.280
  746SOL    HW1 2257   0.355   2.350   1.352
  746SOL    HW2 2258   0.357   2.383   1.192
  747SOL     OW 2259   0.812   3.448   0.687
  747SOL    HW1 2260   0.844   3.458   0.593
  747SOL    HW2 2261   0.733   3.386   0.689
  748SOL     OW 2262   1.424   2.076   1.112
  748SOL    HW1 2263   1.476   2.011   1.167
  748SOL    HW2 2264   1.375   2.139   1.173
  749SOL     OW 2265   1.001   1.896   1.154
  749SOL    HW1 2266   0.938   1.824   1.123
  749SOL    HW2 2267   1.094   1.860   1.154
  750SOL     OW 2268   0.770   3.192   0.301
  750SOL    HW1 2269   0.724   3.105   0.318
  750SOL    HW2 2270   0.861   3.189   0.342
  751SOL     OW 2271   0.618   3.429   1.284
  751SOL    HW1 2272   0.613   3.511   1.341
  751SOL    HW2 2273   0.707   3.426   1.239
  752SOL     OW 2274   1.352   1.914   0.168
  752SOL    HW1 2275   1.387   1.873   0.084
  752SOL    HW2 2276   1.262   1.876   0.188
  753SOL     OW 2277   1.300   2.315   0.691
  753SOL    HW1 2278   1.241   2.395   0.695
  753SOL    HW2 2279   1.315   2.280   0.784
  754SOL     OW 2280   1.593   2.083   0.882
  754SOL    HW1 2281   1.509   2.082   0.936
  754SOL    HW2 2282   1.595   2.166   0.826
  755SOL     OW 2283   0.039   2.939   0.300
  755SOL    HW1 2284   0.138   2.928   0.291
  755SOL    HW2 2285  -0.001   2.853   0.332
  756SOL     OW 2286   0.875   3.508   0.337
  756SOL    HW1 2287   0.798   3.473   0.283
  756SOL    HW2 2288   0.843   3.579   0.399
  757SOL     OW 2289   0.230   2.490   1.975
  757SOL    HW1 2290   0.137   2.488   2.012
  757SOL    HW2 2291   0.231   2.451   1.883
  758SOL     OW 2292   0.225   2.137   2.858
  758SOL    HW1 2293   0.260   2.120   2.950
  758SOL    HW2 2294   0.137   2.092   2.846
  759SOL     OW 2295   0.019   2.230   2.509
  759SOL    HW1 2296  -0.063   2.273   2.548
  759SOL    HW2 2297  -0.009   2.157   2.446
  760SOL     OW 2298   0.569   3.137   3.027
  760SOL    HW1 2299   0.476   3.130   2.990
  760SOL    HW2 2300   0.580   3.226   3.071
  761SOL     OW 2301   1.555   3.373   2.565
  761SOL    HW1 2302   1.498   3.357   2.646
  761SOL    HW2 2303   1.496   3.383   2.485
  762SOL     OW 2304   1.135   2.565   2.579
  762SOL    HW1 2305   1.192   2.643   2.554
  762SOL    HW2 2306   1.075   2.591   2.655
  763SOL     OW 2307   1.755   2.469   2.093
  763SOL    HW1 2308   1.743   2.456   1.994
  763SOL    HW2 2309   1.725   2.388   2.142
  764SOL     OW 2310   0.768   3.006   2.885
  764SOL    HW1 2311   0.690   3.023   2.945
  764SOL    HW2 2312   0.802   3.093   2.849
  765SOL     OW 2313   0.850   2.660   3.685
  765SOL    HW1 2314   0.846   2.736   3.750
  765SOL    HW2 2315   0.872   2.696   3.594
  766SOL     OW 2316   0.685   2.874   2.527
  766SOL    HW1 2317   0.754   2.858   2.597
  766SOL    HW2 2318   0.612   2.931   2.565
  767SOL     OW 2319   0.686   3.023   3.665
  767SOL    HW1 2320   0.746   3.102   3.679
  767SOL    HW2 2321   0.600   3.054   3.624
  768SOL     OW 2322   0.335   3.297   2.923
  768SOL    HW1 2323   0.257   3.266   2.870
  768SOL    HW2 2324   0.393   3.355   2.866
  769SOL     OW 2325   1.460   3.367   3.201
  769SOL    HW1 2326   1.484   3.461   3.227
  769SOL    HW2 2327   1.444   3.313   3.283
  770SOL     OW 2328   0.438   2.254   3.361
  770SOL    HW1 2329   0.520   2.198   3.370
  770SOL    HW2 2330   0.357   2.196   3.365
  771SOL     OW 2331   1.603   2.309   2.599
  771SOL    HW1 2332   1.529   2.355   2.549
  771SOL    HW2 2333   1.654   2.377   2.652
  772SOL     OW 2334   0.231   3.575   2.345
  772SOL    HW1 2335   0.265   3.652   2.399
  772SOL    HW2 2336   0.275   3.575   2.255
  773SOL     OW 2337   1.127   3.203   3.552
  773SOL    HW1 2338   1.174   3.203   3.640
  773SOL    HW2 2339   1.079   3.116   3.541
  774SOL     OW 2340   0.230   3.296   2.400
  774SOL    HW1 2341   0.204   3.392   2.400
  774SOL    HW2 2342   0.159   3.242   2.445
  775SOL     OW 2343   0.240   2.953   2.748
  775SOL    HW1 2344   0.254   2.869   2.800
  775SOL    HW2 2345   0.185   3.017   2.803
  776SOL     OW 2346   0.620   3.648   3.301
  776SOL    HW1 2347   0.528   3.631   3.336
  776SOL    HW2 2348   0.648   3.740   3.327
  777SOL     OW 2349   0.606   2.826   1.985
  777SOL    HW1 2350   0.613   2.910   1.931
  777SOL    HW2 2351   0.652   2.839   2.073
  778SOL     OW 2352   1.594   1.976   3.342
  778SOL    HW1 2353   1.576   2.043   3.270
  778SOL    HW2 2354   1.591   2.022   3.431
  779SOL     OW 2355   0.122   2.505   2.425
  779SOL    HW1 2356   0.077   2.417   2.442
  779SOL    HW2 2357   0.121   2.559   2.509
  780SOL     OW 2358   1.842   3.629   2.221
  780SOL    HW1 2359   1.896   3.600   2.301
  780SOL    HW2 2360   1.872   3.719   2.192
  781SOL     OW 2361   0.027   3.458   1.979
  781SOL    HW1 2362   0.008   3.362   2.000
  781SOL    HW2 2363  -0.006   3.516   2.054
  782SOL     OW 2364   1.689   2.784   2.474
  782SOL    HW1 2365   1.784   2.755   2.482
  782SOL    HW2 2366   1.681   2.849   2.399
  783SOL     OW 2367   1.641   2.970   2.294
  783SOL    HW1 2368   1.727   2.972   2.242
  783SOL    HW2 2369   1.655   3.017   2.382
  784SOL     OW 2370   0.113   2.599   3.459
  784SOL    HW1 2371   0.201   2.586   3.504
  784SOL    HW2 2372   0.100   2.696   3.437
  785SOL     OW 2373   0.613   3.227   2.588
  785SOL    HW1 2374   0.564   3.140   2.597
  785SOL    HW2 2375   0.590   3.270   2.501
  786SOL     OW 2376   1.293   3.090   3.285
  786SOL    HW1 2377   1.330   3.017   3.227
  786SOL    HW2 2378   1.345   3.095   3.370
  787SOL     OW 2379   0.809   1.866   2.364
  787SOL    HW1 2380   0.849   1.957   2.355
  787SOL    HW2 2381   0.709   1.874   2.370
  788SOL     OW 2382   0.197   2.838   3.126
  788SOL    HW1 2383   0.286   2.793   3.112
  788SOL    HW2 2384   0.124   2.773   3.107
  789SOL     OW 2385   1.525   2.861   2.052
  789SOL    HW1 2386   1.462   2.785   2.065
  789SOL    HW2 2387   1.573   2.879   2.138
  790SOL     OW 2388   1.187   3.654   3.478
  790SOL    HW1 2389   1.211   3.714   3.402
  790SOL    HW2 2390   1.194   3.559   3.448
  791SOL     OW 2391   0.317   2.113   3.663
  791SOL    HW1 2392   0.388   2.184   3.669
  791SOL    HW2 2393   0.229   2.152   3.691
  792SOL     OW 2394   1.466   3.279   2.815
  792SOL    HW1 2395   1.407   3.285   2.895
  792SOL    HW2 2396   1.451   3.191   2.769
  793SOL     OW 2397   1.667   3.576   2.434
  793SOL    HW1 2398   1.626   3.553   2.346
  793SOL    HW2 2399   1.649   3.502   2.499
  794SOL     OW 2400   0.598   2.591   2.132
  794SOL    HW1 2401   0.622   2.660   2.064
  794SOL    HW2 2402   0.520   2.624   2.186
  795SOL     OW 2403   1.281   2.207   2.806
  795SOL    HW1 2404   1.195   2.157   2.793
  795SOL    HW2 2405   1.343   2.153   2.862
  796SOL     OW 2406   1.576   3.524   2.169
  796SOL    HW1 2407   1.665   3.570   2.172
  796SOL    HW2 2408   1.555   3.500   2.074
  797SOL     OW 2409   0.807   2.467   3.327
  797SOL    HW1 2410   0.760   2.464   3.416
  797SOL    HW2 2411   0.756   2.412   3.261
  798SOL     OW 2412   1.394   2.331   3.536
  798SOL    HW1 2413   1.374   2.374   3.624
  798SOL    HW2 2414   1.472   2.269   3.545
  799SOL     OW 2415   0.973   2.752   3.434
  799SOL    HW1 2416   1.019   2.668   3.405
  799SOL    HW2 2417   0.917   2.786   3.359
  800SOL     OW 2418   0.991   2.272   3.104
  800SOL    HW1 2419   0.914   2.306   3.158
  800SOL    HW2 2420   0.957   2.221   3.025
  801SOL     OW 2421   1.041   2.563   2.291
  801SOL    HW1 2422   1.067   2.559   2.387
  801SOL    HW2 2423   0.956   2.512   2.277
  802SOL     OW 2424   0.076   2.673   2.651
  802SOL    HW1 2425   0.175   2.661   2.660
  802SOL    HW2 2426   0.052   2.768   2.672
  803SOL     OW 2427   0.130   3.683   3.433
  803SOL    HW1 2428   0.120   3.668   3.532
  803SOL    HW2 2429   0.044   3.719   3.397
  804SOL     OW 2430   0.865   2.210   2.057
  804SOL    HW1 2431   0.924   2.273   2.008
  804SOL    HW2 2432   0.884   2.116   2.028
  805SOL     OW 2433   1.719   2.447   3.693
  805SOL    HW1 2434   1.693   2.536   3.657
  805SOL    HW2 2435   1.717   2.379   3.620
  806SOL     OW 2436   1.362   3.006   2.407
  806SOL    HW1 2437   1.445   2.977   2.359
  806SOL    HW2 2438   1.313   3.073   2.351
  807SOL     OW 2439   0.550   2.058   2.747
  807SOL    HW1 2440   0.545   2.053   2.847
  807SOL    HW2 2441   0.552   2.154   2.718
  808SOL     OW 2442   1.008   3.318   2.339
  808SOL    HW1 2443   0.962   3.390   2.287
  808SOL    HW2 2444   1.004   3.338   2.437
  809SOL     OW 2445   0.351   3.663   2.715
  809SOL    HW1 2446   0.401   3.577   2.721
  809SOL    HW2 2447   0.416   3.740   2.712
  810SOL     OW 2448   1.795   2.928   2.735
  810SOL    HW1 2449   1.733   2.913   2.659
  810SOL    HW2 2450   1.743   2.939   2.820
  811SOL     OW 2451   1.227   3.412   3.368
  811SOL    HW1 2452   1.233   3.335   3.432
  811SOL    HW2 2453   1.175   3.386   3.288
  812SOL     OW 2454   0.321   2.805   2.104
  812SOL    HW1 2455   0.403   2.844   2.062
  812SOL    HW2 2456   0.294   2.723   2.055
  813SOL     OW 2457   1.458   2.597   2.590
  813SOL    HW1 2458   1.453   2.532   2.665
  813SOL    HW2 2459   1.538   2.656   2.603
  814SOL     OW 2460   0.461   3.128   3.589
  814SOL    HW1 2461   0.411   3.129   3.503
  814SOL    HW2 2462   0.398   3.110   3.665
  815SOL     OW 2463   1.111   3.638   2.099
  815SOL    HW1 2464   1.051   3.576   2.149
  815SOL    HW2 2465   1.142   3.594   2.014
  816SOL     OW 2466   0.202   2.147   3.360
  816SOL    HW1 2467   0.122   2.207   3.347
  816SOL    HW2 2468   0.192   2.098   3.446
  817SOL     OW 2469   1.632   3.239   1.943
  817SOL    HW1 2470   1.600   3.333   1.933
  817SOL    HW2 2471   1.556   3.176   1.931
  818SOL     OW 2472   0.464   3.605   2.185
  818SOL    HW1 2473   0.497   3.644   2.271
  818SOL    HW2 2474   0.540   3.598   2.120
  819SOL     OW 2475   1.400   1.969   2.288
  819SOL    HW1 2476   1.376   1.932   2.198
  819SOL    HW2 2477   1.499   1.985   2.292
  820SOL     OW 2478   0.249   3.647   3.103
  820SOL    HW1 2479   0.306   3.582   3.153
  820SOL    HW2 2480   0.233   3.614   3.010
  821SOL     OW 2481   0.940   3.560   2.766
  821SOL    HW1 2482   1.020   3.503   2.787
  821SOL    HW2 2483   0.891   3.520   2.689
  822SOL     OW 2484   0.382   2.562   2.342
  822SOL    HW1 2485   0.427   2.472   2.339
  822SOL    HW2 2486   0.288   2.551   2.375
  823SOL     OW 2487   1.547   2.084   3.591
  823SOL    HW1 2488   1.542   2.121   3.683
  823SOL    HW2 2489   1.475   2.015   3.579
  824SOL     OW 2490   0.614   1.984   1.979
  824SOL    HW1 2491   0.712   1.962   1.986
  824SOL    HW2 2492   0.583   1.967   1.886
  825SOL     OW 2493   0.781   2.126   3.611
  825SOL    HW1 2494   0.848   2.065   3.654
  825SOL    HW2 2495   0.708   2.145   3.676
  826SOL     OW 2496   0.888   3.376   3.057
  826SOL    HW1 2497   0.865   3.351   2.963
  826SOL    HW2 2498   0.949   3.307   3.096
  827SOL     OW 2499   1.351   2.452   3.295
  827SOL    HW1 2500   1.379   2.409   3.380
  827SOL    HW2 2501   1.376   2.548   3.296
  828SOL     OW 2502   0.803   3.264   2.786
  828SOL    HW1 2503   0.893   3.278   2.744
  828SOL    HW2 2504   0.732   3.266   2.715
  829SOL     OW 2505   0.922   2.365   2.761
  829SOL    HW1 2506   0.897   2.356   2.665
  829SOL    HW2 2507   0.970   2.283   2.792
  830SOL     OW 2508   0.539   1.926   2.374
  830SOL    HW1 2509   0.458   1.927   2.432
  830SOL    HW2 2510   0.542   2.009   2.319
  831SOL     OW 2511   1.434   3.050   1.903
  831SOL    HW1 2512   1.466   2.974   1.960
  831SOL    HW2 2513   1.342   3.077   1.933
  832SOL     OW 2514   0.297   1.897   2.033
  832SOL    HW1 2515   0.346   1.981   2.012
  832SOL    HW2 2516   0.359   1.832   2.078
  833SOL     OW 2517   0.935   2.098   2.342
  833SOL    HW1 2518   0.887   2.139   2.264
  833SOL    HW2 2519   1.034   2.096   2.323
  834SOL     OW 2520   1.076   2.545   3.326
  834SOL    HW1 2521   0.996   2.484   3.329
  834SOL    HW2 2522   1.157   2.492   3.302
  835SOL     OW 2523   1.227   3.432   2.655
  835SOL    HW1 2524   1.248   3.506   2.590
  835SOL    HW2 2525   1.295   3.432   2.728
  836SOL     OW 2526   0.459   3.014   2.603
  836SOL    HW1 2527   0.388   2.987   2.668
  836SOL    HW2 2528   0.433   2.986   2.510
  837SOL     OW 2529   1.271   3.659   2.453
  837SOL    HW1 2530   1.315   3.723   2.389
  837SOL    HW2 2531   1.221   3.711   2.523
  838SOL     OW 2532   1.032   2.411   1.878
  838SOL    HW1 2533   0.991   2.493   1.839
  838SOL    HW2 2534   1.096   2.437   1.951
  839SOL     OW 2535   0.078   2.418   3.248
  839SOL    HW1 2536   0.170   2.417   3.207
  839SOL    HW2 2537   0.072   2.492   3.315
  840SOL     OW 2538   0.561   2.084   3.009
  840SOL    HW1 2539   0.599   2.000   3.046
  840SOL    HW2 2540   0.473   2.103   3.053
  841SOL     OW 2541   0.866   2.316   2.504
  841SOL    HW1 2542   0.834   2.388   2.442
  841SOL    HW2 2543   0.890   2.235   2.451
  842SOL     OW 2544   1.017   1.901   2.615
  842SOL    HW1 2545   0.945   1.906   2.546
  842SOL    HW2 2546   0.993   1.832   2.684
  843SOL     OW 2547   1.429   3.035   2.729
  843SOL    HW1 2548   1.374   2.951   2.722
  843SOL    HW2 2549   1.455   3.064   2.637
  844SOL     OW 2550   1.466   2.452   2.854
  844SOL    HW1 2551   1.436   2.357   2.861
  844SOL    HW2 2552   1.539   2.468   2.920
  845SOL     OW 2553   1.857   2.695   2.239
  845SOL    HW1 2554   1.899   2.631   2.303
  845SOL    HW2 2555   1.819   2.644   2.161
  846SOL     OW 2556   0.488   3.247   2.036
  846SOL    HW1 2557   0.401   3.232   2.083
  846SOL    HW2 2558   0.471   3.273   1.941
  847SOL     OW 2559   1.664   3.142   2.519
  847SOL    HW1 2560   1.763   3.150   2.533
  847SOL    HW2 2561   1.619   3.226   2.550
  848SOL     OW 2562   1.390   2.437   1.940
  848SOL    HW1 2563   1.336   2.416   2.021
  848SOL    HW2 2564   1.481   2.396   1.949
  849SOL     OW 2565   0.527   2.118   2.190
  849SOL    HW1 2566   0.554   2.059   2.115
  849SOL    HW2 2567   0.527   2.213   2.159
  850SOL     OW 2568   1.754   3.085   3.450
  850SOL    HW1 2569   1.845   3.046   3.437
  850SOL    HW2 2570   1.762   3.181   3.474
  851SOL     OW 2571   1.064   3.209   3.202
  851SOL    HW1 2572   0.984   3.186   3.257
  851SOL    HW2 2573   1.147   3.183   3.251
  852SOL     OW 2574   1.592   3.491   3.487
  852SOL    HW1 2575   1.619   3.525   3.397
  852SOL    HW2 2576   1.671   3.453   3.533
  853SOL     OW 2577   1.111   3.057   2.962
  853SOL    HW1 2578   1.071   3.101   3.043
  853SOL    HW2 2579   1.070   3.094   2.879
  854SOL     OW 2580   1.638   2.961   2.941
  854SOL    HW1 2581   1.643   3.042   3.000
  854SOL    HW2 2582   1.552   2.963   2.890
  855SOL     OW 2583   0.915   1.951   3.264
  855SOL    HW1 2584   0.940   1.931   3.169
  855SOL    HW2 2585   0.987   2.007   3.306
  856SOL     OW 2586   0.980   2.978   3.581
  856SOL    HW1 2587   0.881   2.984   3.591
  856SOL    HW2 2588   1.003   2.898   3.525
  857SOL     OW 2589   0.705   2.912   2.230
  857SOL    HW1 2590   0.691   2.919   2.329
  857SOL    HW2 2591   0.789   2.861   2.212
  858SOL     OW 2592   0.410   2.675   3.113
  858SOL    HW1 2593   0.496   2.687   3.163
  858SOL    HW2 2594   0.368   2.588   3.140
  859SOL     OW 2595   1.274   2.248   3.124
  859SOL    HW1 2596   1.295   2.322   3.188
  859SOL    HW2 2597   1.185   2.265   3.081
  860SOL     OW 2598   0.064   3.426   3.193
  860SOL    HW1 2599   0.018   3.508   3.159
  860SOL    HW2 2600   0.162   3.445   3.202
  861SOL     OW 2601   0.367   2.962   2.363
  861SOL    HW1 2602   0.360   3.045   2.307
  861SOL    HW2 2603   0.371   2.882   2.303
  862SOL     OW 2604   0.566   2.399   2.727
  862SOL    HW1 2605   0.578   2.465   2.653
  862SOL    HW2 2606   0.612   2.433   2.810
  863SOL     OW 2607   1.252   3.210   2.250
  863SOL    HW1 2608   1.302   3.287   2.290
  863SOL    HW2 2609   1.157   3.212   2.282
  864SOL     OW 2610   1.272   3.307   3.004
  864SOL    HW1 2611   1.319   3.320   3.091
  864SOL    HW2 2612   1.206   3.233   3.013
  865SOL     OW 2613   1.582   2.501   2.334
  865SOL    HW1 2614   1.551   2.562   2.407
  865SOL    HW2 2615   1.632   2.553   2.265
  866SOL     OW 2616   0.354   3.372   3.191
  866SOL    HW1 2617   0.333   3.328   3.104
  866SOL    HW2 2618   0.451   3.398   3.194
  867SOL     OW 2619   0.402   2.613   3.460
  867SOL    HW1 2620   0.470   2.668   3.413
  867SOL    HW2 2621   0.442   2.525   3.487
  868SOL     OW 2622   1.587   2.641   3.532
  868SOL    HW1 2623   1.495   2.679   3.527
  868SOL    HW2 2624   1.647   2.688   3.467
  869SOL     OW 2625   1.013   1.967   3.632
  869SOL    HW1 2626   1.019   2.052   3.580
  869SOL    HW2 2627   1.045   1.891   3.575
  870SOL     OW 2628   0.504   1.912   3.602
  870SOL    HW1 2629   0.462   1.855   3.532
  870SOL    HW2 2630   0.438   1.981   3.634
  871SOL     OW 2631   0.573   2.732   2.891
  871SOL    HW1 2632   0.617   2.821   2.882
  871SOL    HW2 2633   0.510   2.732   2.968
  872SOL     OW 2634   1.360   2.724   2.907
  872SOL    HW1 2635   1.285   2.724   2.841
  872SOL    HW2 2636   1.397   2.632   2.916
  873SOL     OW 2637   1.209   2.387   2.137
  873SOL    HW1 2638   1.222   2.303   2.191
  873SOL    HW2 2639   1.180   2.461   2.197
  874SOL     OW 2640   0.307   2.075   3.093
  874SOL    HW1 2641   0.284   2.112   3.183
  874SOL    HW2 2642   0.277   1.980   3.087
  875SOL     OW 2643   0.037   3.172   3.144
  875SOL    HW1 2644   0.090   3.123   3.212
  875SOL    HW2 2645   0.059   3.270   3.149
  876SOL     OW 2646   0.732   2.496   2.926
  876SOL    HW1 2647   0.791   2.470   2.850
  876SOL    HW2 2648   0.704   2.592   2.915
  877SOL     OW 2649   1.728   2.797   3.716
  877SOL    HW1 2650   1.682   2.790   3.627
  877SOL    HW2 2651   1.666   2.841   3.782
  878SOL     OW 2652   0.307   1.925   2.480
  878SOL    HW1 2653   0.296   2.019   2.513
  878SOL    HW2 2654   0.302   1.862   2.557
  879SOL     OW 2655   1.622   2.229   2.236
  879SOL    HW1 2656   1.624   2.153   2.300
  879SOL    HW2 2657   1.574   2.306   2.276
  880SOL     OW 2658   1.023   2.628   2.828
  880SOL    HW1 2659   1.038   2.649   2.924
  880SOL    HW2 2660   0.993   2.533   2.819
  881SOL     OW 2661   0.980   3.435   3.562
  881SOL    HW1 2662   0.960   3.479   3.474
  881SOL    HW2 2663   1.019   3.344   3.546
  882SOL     OW 2664   1.859   3.380   3.467
  882SOL    HW1 2665   1.873   3.407   3.372
  882SOL    HW2 2666   1.942   3.402   3.520
  883SOL     OW 2667   0.350   2.760   3.666
  883SOL    HW1 2668   0.426   2.804   3.714
  883SOL    HW2 2669   0.385   2.713   3.584
  884SOL     OW 2670   1.540   2.136   1.987
  884SOL    HW1 2671   1.479   2.061   2.010
  884SOL    HW2 2672   1.562   2.188   2.070
  885SOL     OW 2673   1.303   2.700   1.904
  885SOL    HW1 2674   1.337   2.607   1.919
  885SOL    HW2 2675   1.321   2.727   1.809
  886SOL     OW 2676   1.068   3.195   2.711
  886SOL    HW1 2677   1.075   3.111   2.656
  886SOL    HW2 2678   1.130   3.264   2.675
  887SOL     OW 2679   0.319   2.672   2.811
  887SOL    HW1 2680   0.412   2.708   2.816
  887SOL    HW2 2681   0.313   2.587   2.863
  888SOL     OW 2682   0.339   2.371   2.868
  888SOL    HW1 2683   0.287   2.288   2.851
  888SOL    HW2 2684   0.416   2.376   2.804
  889SOL     OW 2685   1.138   2.242   3.540
  889SOL    HW1 2686   1.093   2.305   3.604
  889SOL    HW2 2687   1.231   2.273   3.523
  890SOL     OW 2688   1.160   2.069   3.339
  890SOL    HW1 2689   1.160   2.133   3.416
  890SOL    HW2 2690   1.188   2.117   3.256
  891SOL     OW 2691   0.008   3.188   2.062
  891SOL    HW1 2692  -0.085   3.209   2.031
  891SOL    HW2 2693   0.018   3.089   2.075
  892SOL     OW 2694   0.088   3.663   2.789
  892SOL    HW1 2695   0.046   3.577   2.762
  892SOL    HW2 2696   0.182   3.666   2.755
  893SOL     OW 2697   0.504   3.430   2.772
  893SOL    HW1 2698   0.570   3.504   2.781
  893SOL    HW2 2699   0.548   3.351   2.730
  894SOL     OW 2700   1.002   2.658   3.100
  894SOL    HW1 2701   1.043   2.626   3.186
  894SOL    HW2 2702   0.906   2.631   3.097
  895SOL     OW 2703   0.040   2.406   2.976
  895SOL    HW1 2704   0.125   2.373   2.935
  895SOL    HW2 2705   0.053   2.421   3.074
  896SOL     OW 2706   0.189   2.382   3.584
  896SOL    HW1 2707   0.248   2.342   3.514
  896SOL    HW2 2708   0.131   2.453   3.543
  897SOL     OW 2709   1.369   2.812   3.522
  897SOL    HW1 2710   1.408   2.901   3.542
  897SOL    HW2 2711   1.379   2.792   3.425
  898SOL     OW 2712   0.815   2.434   2.187
  898SOL    HW1 2713   0.822   2.345   2.141
  898SOL    HW2 2714   0.721   2.468   2.179
  899SOL     OW 2715   1.657   2.466   3.068
  899SOL    HW1 2716   1.619   2.397   3.130
  899SOL    HW2 2717   1.739   2.430   3.024
  900SOL     OW 2718   0.252   3.426   3.606
  900SOL    HW1 2719   0.222   3.483   3.682
  900SOL    HW2 2720   0.245   3.329   3.632
  901SOL     OW 2721   0.671   2.326   3.131
  901SOL    HW1 2722   0.637   2.237   3.101
  901SOL    HW2 2723   0.697   2.380   3.051
  902SOL     OW 2724   0.930   3.540   3.327
  902SOL    HW1 2725   0.906   3.522   3.232
  902SOL    HW2 2726   0.960   3.634   3.337
  903SOL     OW 2727   0.473   2.362   2.053
  903SOL    HW1 2728   0.534   2.442   2.057
  903SOL    HW2 2729   0.378   2.393   2.060
  904SOL     OW 2730   0.159   2.999   3.328
  904SOL    HW1 2731   0.181   2.938   3.404
  904SOL    HW2 2732   0.169   2.950   3.242
  905SOL     OW 2733   1.347   2.921   3.096
  905SOL    HW1 2734   1.371   2.858   3.022
  905SOL    HW2 2735   1.257   2.961   3.078
  906SOL     OW 2736   1.302   2.717   2.171
  906SOL    HW1 2737   1.216   2.686   2.213
  906SOL    HW2 2738   1.298   2.703   2.072
  907SOL     OW 2739   1.759   3.609   3.016
  907SOL    HW1 2740   1.820   3.639   2.943
  907SOL    HW2 2741   1.721   3.520   2.994
  908SOL     OW 2742   1.252   3.593   2.990
  908SOL    HW1 2743   1.336   3.598   2.936
  908SOL    HW2 2744   1.229   3.497   3.008
  909SOL     OW 2745   0.083   3.120   2.884
  909SOL    HW1 2746   0.078   3.119   2.984
  909SOL    HW2 2747   0.000   3.079   2.846
  910SOL     OW 2748   0.688   3.524   3.578
  910SOL    HW1 2749   0.632   3.605   3.587
  910SOL    HW2 2750   0.740   3.528   3.492
  911SOL     OW 2751   1.726   1.997   2.385
  911SOL    HW1 2752   1.799   1.980   2.318
  911SOL    HW2 2753   1.695   1.910   2.423
  912SOL     OW 2754   1.388   3.435   2.339
  912SOL    HW1 2755   1.455   3.447   2.265
  912SOL    HW2 2756   1.348   3.524   2.362
  913SOL     OW 2757   0.130   3.656   3.713
  913SOL    HW1 2758   0.089   3.582   3.766
  913SOL    HW2 2759   0.194   3.707   3.771
  914SOL     OW 2760   1.280   2.789   2.534
  914SOL    HW1 2761   1.340   2.708   2.536
  914SOL    HW2 2762   1.320   2.858   2.474
  915SOL     OW 2763   0.830   3.135   3.284
  915SOL    HW1 2764   0.825   3.168   3.379
  915SOL    HW2 2765   0.744   3.154   3.238
  916SOL     OW 2766   0.672   3.478   2.016
  916SOL    HW1 2767   0.681   3.488   1.917
  916SOL    HW2 2768   0.632   3.389   2.037
  917SOL     OW 2769   1.650   3.582   3.256
  917SOL    HW1 2770   1.703   3.592   3.172
  917SOL    HW2 2771   1.623   3.672   3.290
  918SOL     OW 2772   1.841   2.037   2.825
  918SOL    HW1 2773   1.880   1.952   2.789
  918SOL    HW2 2774   1.743   2.039   2.806
  919SOL     OW 2775   0.263   2.188   2.582
  919SOL    HW1 2776   0.184   2.239   2.548
  919SOL    HW2 2777   0.254   2.173   2.680
  920SOL     OW 2778   1.194   3.474   1.893
  920SOL    HW1 2779   1.200   3.381   1.930
  920SOL    HW2 2780   1.135   3.474   1.813
  921SOL     OW 2781   0.822   2.864   3.234
  921SOL    HW1 2782   0.862   2.863   3.142
  921SOL    HW2 2783   0.832   2.956   3.274
  922SOL     OW 2784   0.916   2.772   2.153
  922SOL    HW1 2785   0.979   2.810   2.085
  922SOL    HW2 2786   0.956   2.689   2.192
  923SOL     OW 2787   1.504   3.469   1.906
  923SOL    HW1 2788   1.412   3.506   1.913
  923SOL    HW2 2789   1.542   3.489   1.816
  924SOL     OW 2790   0.372   3.150   3.352
  924SOL    HW1 2791   0.359   3.243   3.318
  924SOL    HW2 2792   0.288   3.098   3.339
  925SOL     OW 2793   1.614   3.154   3.151
  925SOL    HW1 2794   1.674   3.157   3.231
  925SOL    HW2 2795   1.539   3.218   3.164
  926SOL     OW 2796   1.039   2.960   2.558
  926SOL    HW1 2797   0.969   2.913   2.612
  926SOL    HW2 2798   1.098   2.892   2.515
  927SOL     OW 2799   1.014   2.098   2.833
  927SOL    HW1 2800   1.006   2.062   2.740
  927SOL    HW2 2801   1.012   2.022   2.898
  928SOL     OW 2802   0.590   3.349   2.353
  928SOL    HW1 2803   0.632   3.291   2.283
  928SOL    HW2 2804   0.546   3.428   2.309
  929SOL     OW 2805   1.709   2.247   3.243
  929SOL    HW1 2806   1.782   2.316   3.247
  929SOL    HW2 2807   1.737   2.172   3.184
  930SOL     OW 2808   0.255   3.210   2.152
  930SOL    HW1 2809   0.159   3.211   2.125
  930SOL    HW2 2810   0.267   3.263   2.236
  931SOL     OW 2811   0.105   2.875   3.588
  931SOL    HW1 2812   0.028   2.842   3.642
  931SOL    HW2 2813   0.190   2.845   3.630
  932SOL     OW 2814   0.672   2.065   3.351
  932SOL    HW1 2815   0.762   2.049   3.311
  932SOL    HW2 2816   0.680   2.070   3.450
  933SOL     OW 2817   0.075   2.207   1.895
  933SOL    HW1 2818  -0.017   2.179   1.866
  933SOL    HW2 2819   0.106   2.284   1.839
  934SOL     OW 2820   1.440   2.718   3.260
  934SOL    HW1 2821   1.383   2.770   3.197
  934SOL    HW2 2822   1.536   2.730   3.236
  935SOL     OW 2823   0.072   2.028   2.180
  935SOL    HW1 2824   0.055   2.111   2.126
  935SOL    HW2 2825   0.162   1.991   2.158
  936SOL     OW 2826   1.183   3.197   1.981
  936SOL    HW1 2827   1.084   3.186   1.983
  936SOL    HW2 2828   1.217   3.212   2.074
  937SOL     OW 2829   0.613   2.704   3.293
  937SOL    HW1 2830   0.669   2.785   3.276
  937SOL    HW2 2831   0.672   2.624   3.296
  938SOL     OW 2832   1.493   3.629   2.821
  938SOL    HW1 2833   1.526   3.693   2.752
  938SOL    HW2 2834   1.559   3.623   2.896
  939SOL     OW 2835   0.716   2.427   3.570
  939SOL    HW1 2836   0.735   2.492   3.644
  939SOL    HW2 2837   0.776   2.347   3.579
  940SOL     OW 2838   1.450   3.082   3.495
  940SOL    HW1 2839   1.441   3.072   3.594
  940SOL    HW2 2840   1.546   3.075   3.469
  941SOL     OW 2841   0.390   3.603   3.422
  941SOL    HW1 2842   0.299   3.644   3.420
  941SOL    HW2 2843   0.383   3.509   3.454
  942SOL     OW 2844   1.674   2.745   3.116
  942SOL    HW1 2845   1.647   2.656   3.079
  942SOL    HW2 2846   1.675   2.813   3.043
  943SOL     OW 2847   1.225   2.187   2.311
  943SOL    HW1 2848   1.290   2.113   2.300
  943SOL    HW2 2849   1.245   2.237   2.395
  944SOL     OW 2850   0.594   2.607   2.514
  944SOL    HW1 2851   0.644   2.692   2.495
  944SOL    HW2 2852   0.506   2.609   2.466
  945SOL     OW 2853   1.777   2.204   3.504
  945SOL    HW1 2854   1.760   2.235   3.410
  945SOL    HW2 2855   1.693   2.167   3.542
  946SOL     OW 2856   1.730   2.796   3.379
  946SOL    HW1 2857   1.768   2.887   3.394
  946SOL    HW2 2858   1.722   2.779   3.280
  947SOL     OW 2859   0.859   3.236   1.878
  947SOL    HW1 2860   0.813   3.251   1.966
  947SOL    HW2 2861   0.903   3.321   1.848
  948SOL     OW 2862   0.661   3.652   2.815
  948SOL    HW1 2863   0.615   3.740   2.802
  948SOL    HW2 2864   0.760   3.664   2.808
  949SOL     OW 2865   0.859   2.818   2.723
  949SOL    HW1 2866   0.913   2.749   2.771
  949SOL    HW2 2867   0.827   2.887   2.789
  950SOL     OW 2868   1.083   2.846   1.949
  950SOL    HW1 2869   1.060   2.899   1.867
  950SOL    HW2 2870   1.164   2.790   1.930
  951SOL     OW 2871   1.861   3.431   2.713
  951SOL    HW1 2872   1.790   3.419   2.643
  951SOL    HW2 2873   1.862   3.352   2.773
  952SOL     OW 2874   0.221   3.176   3.706
  952SOL    HW1 2875   0.156   3.103   3.685
  952SOL    HW2 2876   0.225   3.190   3.804
  953SOL     OW 2877   0.079   3.102   2.515
  953SOL    HW1 2878   0.078   3.055   2.603
  953SOL    HW2 2879   0.161   3.074   2.464
  954SOL     OW 2880   0.672   3.253   3.486
  954SOL    HW1 2881   0.594   3.203   3.524
  954SOL    HW2 2882   0.669   3.348   3.517
  955SOL     OW 2883   1.824   2.054   3.089
  955SOL    HW1 2884   1.820   1.964   3.133
  955SOL    HW2 2885   1.827   2.043   2.990
  956SOL     OW 2886   0.428   2.286   2.382
  956SOL    HW1 2887   0.458   2.214   2.320
  956SOL    HW2 2888   0.389   2.246   2.465
  957SOL     OW 2889   1.705   3.349   2.966
  957SOL    HW1 2890   1.612   3.324   2.939
  957SOL    HW2 2891   1.731   3.299   3.048
  958SOL     OW 2892   0.317   2.409   3.142
  958SOL    HW1 2893   0.355   2.350   3.214
  958SOL    HW2 2894   0.357   2.383   3.054
  959SOL     OW 2895   0.812   3.448   2.549
  959SOL    HW1 2896   0.844   3.458   2.455
  959SOL    HW2 2897   0.733   3.386   2.551
  960SOL     OW 2898   1.424   2.076   2.974
  960SOL    HW1 2899   1.476   2.011   3.029
  960SOL    HW2 2900   1.375   2.139   3.035
  961SOL     OW 2901   1.001   1.896   3.016
  961SOL    HW1 2902   0.938   1.824   2.985
  961SOL    HW2 2903   1.094   1.860   3.016
  962SOL     OW 2904   0.770   3.192   2.163
  962SOL    HW1 2905   0.724   3.105   2.180
  962SOL    HW2 2906   0.861   3.189   2.204
  963SOL     OW 2907   0.618   3.429   3.146
  963SOL    HW1 2908   0.613   3.511   3.203
  963SOL    HW2 2909   0.707   3.426   3.101
  964SOL     OW 2910   1.352   1.914   2.030
  964SOL    HW1 2911   1.387   1.873   1.946
  964SOL    HW2 2912   1.262   1.876   2.050
  965SOL     OW 2913   1.300   2.315   2.553
  965SOL    HW1 2914   1.241   2.395   2.557
  965SOL    HW2 2915   1.315   2.280   2.646
  966SOL     OW 2916   1.593   2.083   2.744
  966SOL    HW1 2917   1.509   2.082   2.798
  966SOL    HW2 2918   1.595   2.166   2.688
  967SOL     OW 2919   0.039   2.939   2.162
  967SOL    HW1 2920   0.138   2.928   2.153
  967SOL    HW2 2921  -0.001   2.853   2.194
  968SOL     OW 2922   0.875   3.508   2.199
  968SOL    HW1 2923   0.798   3.473   2.145
  968SOL    HW2 2924   0.843   3.579   2.261
  969SOL     OW 2925   0.230   2.490   3.837
  969SOL    HW1 2926   0.137   2.488   3.874
  969SOL    HW2 2927   0.231   2.451   3.745
  970SOL     OW 2928   0.225   2.137   4.720
  970SOL    HW1 2929   0.260   2.120   4.812
  970SOL    HW2 2930   0.137   2.092   4.708
  971SOL     OW 2931   0.019   2.230   4.371
  971SOL    HW1 2932  -0.063   2.273   4.410
  971SOL    HW2 2933  -0.009   2.157   4.308
  972SOL     OW 2934   1.555   3.373   4.427
  972SOL    HW1 2935   1.498   3.357   4.508
  972SOL    HW2 2936   1.496   3.383   4.347
  973SOL     OW 2937   1.135   2.565   4.441
  973SOL    HW1 2938   1.192   2.643   4.416
  973SOL    HW2 2939   1.075   2.591   4.517
  974SOL     OW 2940   1.755   2.469   3.955
  974SOL    HW1 2941   1.743   2.456   3.856
  974SOL    HW2 2942   1.725   2.388   4.004
  975SOL     OW 2943   0.768   3.006   4.747
  975SOL    HW1 2944   0.690   3.023   4.807
  975SOL    HW2 2945   0.802   3.093   4.711
  976SOL     OW 2946   0.685   2.874   4.389
  976SOL    HW1 2947   0.754   2.858   4.459
  976SOL    HW2 2948   0.612   2.931   4.427
  977SOL     OW 2949   1.603   2.309   4.461
  977SOL    HW1 2950   1.529   2.355   4.411
  977SOL    HW2 2951   1.654   2.377   4.514
  978SOL     OW 2952   0.231   3.575   4.207
  978SOL    HW1 2953   0.265   3.652   4.261
  978SOL    HW2 2954   0.275   3.575   4.117
  979SOL     OW 2955   0.230   3.296   4.262
  979SOL    HW1 2956   0.204   3.392   4.262
  979SOL    HW2 2957   0.159   3.242   4.307
  980SOL     OW 2958   0.240   2.953   4.610
  980SOL    HW1 2959   0.254   2.869   4.662
  980SOL    HW2 2960   0.185   3.017   4.665
  981SOL     OW 2961   0.606   2.826   3.847
  981SOL    HW1 2962   0.613   2.910   3.793
  981SOL    HW2 2963   0.652   2.839   3.935
  982SOL     OW 2964   0.122   2.505   4.287
  982SOL    HW1 2965   0.077   2.417   4.304
  982SOL    HW2 2966   0.121   2.559   4.371
  983SOL     OW 2967   1.842   3.629   4.083
  983SOL    HW1 2968   1.896   3.600   4.163
  983SOL    HW2 2969   1.872   3.719   4.054
  984SOL     OW 2970   0.027   3.458   3.841
  984SOL    HW1 2971   0.008   3.362   3.862
  984SOL    HW2 2972  -0.006   3.516   3.916
  985SOL     OW 2973   1.689   2.784   4.336
  985SOL    HW1 2974   1.784   2.755   4.344
  985SOL    HW2 2975   1.681   2.849   4.261
  986SOL     OW 2976   1.641   2.970   4.156
  986SOL    HW1 2977   1.727   2.972   4.104
  986SOL    HW2 2978   1.655   3.017   4.244
  987SOL     OW 2979   0.613   3.227   4.450
  987SOL    HW1 2980   0.564   3.140   4.459
  987SOL    HW2 2981   0.590   3.270   4.363
  988SOL     OW 2982   0.809   1.866   4.226
  988SOL    HW1 2983   0.849   1.957   4.217
  988SOL    HW2 2984   0.709   1.874   4.232
  989SOL     OW 2985   1.525   2.861   3.914
  989SOL    HW1 2986   1.462   2.785   3.927
  989SOL    HW2 2987   1.573   2.879   4.000
  990SOL     OW 2988   1.466   3.279   4.677
  990SOL    HW1 2989   1.407   3.285   4.757
  990SOL    HW2 2990   1.451   3.191   4.631
  991SOL     OW 2991   1.667   3.576   4.296
  991SOL    HW1 2992   1.626   3.553   4.208
  991SOL    HW2 2993   1.649   3.502   4.361
  992SOL     OW 2994   0.598   2.591   3.994
  992SOL    HW1 2995   0.622   2.660   3.926
  992SOL    HW2 2996   0.520   2.624   4.048
  993SOL     OW 2997   1.281   2.207   4.668
  993SOL    HW1 2998   1.195   2.157   4.655
  993SOL    HW2 2999   1.343   2.153   4.724
  994SOL     OW 3000   1.576   3.524   4.031
  994SOL    HW1 3001   1.665   3.570   4.034
  994SOL    HW2 3002   1.555   3.500   3.936
  995SOL     OW 3003   1.041   2.563   4.153
  995SOL    HW1 3004   1.067   2.559   4.249
  995SOL    HW2 3005   0.956   2.512   4.139
  996SOL     OW 3006   0.076   2.673   4.513
  996SOL    HW1 3007   0.175   2.661   4.522
  996SOL    HW2 3008   0.052   2.768   4.534
  997SOL     OW 3009   0.865   2.210   3.919
  997SOL    HW1 3010   0.924   2.273   3.870
  997SOL    HW2 3011   0.884   2.116   3.890
  998SOL     OW 3012   1.362   3.006   4.269
  998SOL    HW1 3013   1.445   2.977   4.221
  998SOL    HW2 3014   1.313   3.073   4.213
  999SOL     OW 3015   1.008   3.318   4.201
  999SOL    HW1 3016   0.962   3.390   4.149
  999SOL    HW2 3017   1.004   3.338   4.299
 1000SOL     OW 3018   0.351   3.663   4.577
 1000SOL    HW1 3019   0.401   3.577   4.583
 1000SOL    HW2 3020   0.416   3.740   4.574
 1001SOL     OW 3021   1.795   2.928   4.597
 1001SOL    HW1 3022   1.733   2.913   4.521
 1001SOL    HW2 3023   1.743   2.939   4.682
 1002SOL     OW 3024   0.321   2.805   3.966
 1002SOL    HW1 3025   0.403   2.844   3.924
 1002SOL    HW2 3026   0.294   2.723   3.917
 1003SOL     OW 3027   1.458   2.597   4.452
 1003SOL    HW1 3028   1.453   2.532   4.527
 1003SOL    HW2 3029   1.538   2.656   4.465
 1004SOL     OW 3030   1.111   3.638   3.961
 1004SOL    HW1 3031   1.051   3.576   4.011
 1004SOL    HW2 3032   1.142   3.594   3.876
 1005SOL     OW 3033   1.632   3.239   3.805
 1005SOL    HW1 3034   1.600   3.333   3.795
 1005SOL    HW2 3035   1.556   3.176   3.793
 1006SOL     OW 3036   0.464   3.605   4.047
 1006SOL    HW1 3037   0.497   3.644   4.133
 1006SOL    HW2 3038   0.540   3.598   3.982
 1007SOL     OW 3039   1.400   1.969   4.150
 1007SOL    HW1 3040   1.376   1.932   4.060
 1007SOL    HW2 3041   1.499   1.985   4.154
 1008SOL     OW 3042   0.249   3.647   4.965
 1008SOL    HW1 3043   0.306   3.582   5.015
 1008SOL    HW2 3044   0.233   3.614   4.872
 1009SOL     OW 3045   0.940   3.560   4.628
 1009SOL    HW1 3046   1.020   3.503   4.649
 1009SOL    HW2 3047   0.891   3.520   4.551
 1010SOL     OW 3048   0.382   2.562   4.204
 1010SOL    HW1 3049   0.427   2.472   4.201
 1010SOL    HW2 3050   0.288   2.551   4.237
 1011SOL     OW 3051   0.614   1.984   3.841
 1011SOL    HW1 3052   0.712   1.962   3.848
 1011SOL    HW2 3053   0.583   1.967   3.748
 1012SOL     OW 3054   0.922   2.365   4.623
 1012SOL    HW1 3055   0.897   2.356   4.527
 1012SOL    HW2 3056   0.970   2.283   4.654
 1013SOL     OW 3057   0.539   1.926   4.236
 1013SOL    HW1 3058   0.458   1.927   4.294
 1013SOL    HW2 3059   0.542   2.009   4.181
 1014SOL     OW 3060   1.434   3.050   3.765
 1014SOL    HW1 3061   1.466   2.974   3.822
 1014SOL    HW2 3062   1.342   3.077   3.795
 1015SOL     OW 3063   0.297   1.897   3.895
 1015SOL    HW1 3064   0.346   1.981   3.874
 1015SOL    HW2 3065   0.359   1.832   3.940
 1016SOL     OW 3066   0.935   2.098   4.204
 1016SOL    HW1 3067   0.887   2.139   4.126
 1016SOL    HW2 3068   1.034   2.096   4.185
 1017SOL     OW 3069   1.227   3.432   4.517
 1017SOL    HW1 3070   1.248   3.506   4.452
 1017SOL    HW2 3071   1.295   3.432   4.590
 1018SOL     OW 3072   0.459   3.014   4.465
 1018SOL    HW1 3073   0.388   2.987   4.530
 1018SOL    HW2 3074   0.433   2.986   4.372
 1019SOL     OW 3075   1.271   3.659   4.315
 1019SOL    HW1 3076   1.315   3.723   4.251
 1019SOL    HW2 3077   1.221   3.711   4.385
 1020SOL     OW 3078   1.032   2.411   3.740
 1020SOL    HW1 3079   0.991   2.493   3.701
 1020SOL    HW2 3080   1.096   2.437   3.813
 1021SOL     OW 3081   0.866   2.316   4.366
 1021SOL    HW1 3082   0.834   2.388   4.304
 1021SOL    HW2 3083   0.890   2.235   4.313
 1022SOL     OW 3084   1.017   1.901   4.477
 1022SOL    HW1 3085   0.945   1.906   4.408
 1022SOL    HW2 3086   0.993   1.832   4.546
 1023SOL     OW 3087   1.429   3.035   4.591
 1023SOL    HW1 3088   1.374   2.951   4.584
 1023SOL    HW2 3089   1.455   3.064   4.499
 1024SOL     OW 3090   1.857   2.695   4.101
 1024SOL    HW1 3091   1.899   2.631   4.165
 1024SOL    HW2 3092   1.819   2.644   4.023
 1025SOL     OW 3093   0.488   3.247   3.898
 1025SOL    HW1 3094   0.401   3.232   3.945
 1025SOL    HW2 3095   0.471   3.273   3.803
 1026SOL     OW 3096   1.664   3.142   4.381
 1026SOL    HW1 3097   1.763   3.150   4.395
 1026SOL    HW2 3098   1.619   3.226   4.412
 1027SOL     OW 3099   1.390   2.437   3.802
 1027SOL    HW1 3100   1.336   2.416   3.883
 1027SOL    HW2 3101   1.481   2.396   3.811
 1028SOL     OW 3102   0.527   2.118   4.052
 1028SOL    HW1 3103   0.554   2.059   3.977
 1028SOL    HW2 3104   0.527   2.213   4.021
 1029SOL     OW 3105   1.638   2.961   4.803
 1029SOL    HW1 3106   1.643   3.042   4.862
 1029SOL    HW2 3107   1.552   2.963   4.752
 1030SOL     OW 3108   0.705   2.912   4.092
 1030SOL    HW1 3109   0.691   2.919   4.191
 1030SOL    HW2 3110   0.789   2.861   4.074
 1031SOL     OW 3111   0.367   2.962   4.225
 1031SOL    HW1 3112   0.360   3.045   4.169
 1031SOL    HW2 3113   0.371   2.882   4.165
 1032SOL     OW 3114   0.566   2.399   4.589
 1032SOL    HW1 3115   0.578   2.465   4.515
 1032SOL    HW2 3116   0.612   2.433   4.672
 1033SOL     OW 3117   1.252   3.210   4.112
 1033SOL    HW1 3118   1.302   3.287   4.152
 1033SOL    HW2 3119   1.157   3.212   4.144
 1034SOL     OW 3120   1.582   2.501   4.196
 1034SOL    HW1 3121   1.551   2.562   4.269
 1034SOL    HW2 3122   1.632   2.553   4.127
 1035SOL     OW 3123   1.209   2.387   3.999
 1035SOL    HW1 3124   1.222   2.303   4.053
 1035SOL    HW2 3125   1.180   2.461   4.059
 1036SOL     OW 3126   0.307   2.075   4.955
 1036SOL    HW1 3127   0.284   2.112   5.045
 1036SOL    HW2 3128   0.277   1.980   4.949
 1037SOL     OW 3129   0.732   2.496   4.788
 1037SOL    HW1 3130   0.791   2.470   4.712
 1037SOL    HW2 3131   0.704   2.592   4.777
 1038SOL     OW 3132   0.307   1.925   4.342
 1038SOL    HW1 3133   0.296   2.019   4.375
 1038SOL    HW2 3134   0.302   1.862   4.419
 1039SOL     OW 3135   1.622   2.229   4.098
 1039SOL    HW1 3136   1.624   2.153   4.162
 1039SOL    HW2 3137   1.574   2.306   4.138
 1040SOL     OW 3138   1.540   2.136   3.849
 1040SOL    HW1 3139   1.479   2.061   3.872
 1040SOL    HW2 3140   1.562   2.188   3.932
 1041SOL     OW 3141   1.303   2.700   3.766
 1041SOL    HW1 3142   1.337   2.607   3.781
 1041SOL    HW2 3143   1.321   2.727   3.671
 1042SOL     OW 3144   1.068   3.195   4.573
 1042SOL    HW1 3145   1.075   3.111   4.518
 1042SOL    HW2 3146   1.130   3.264   4.537
 1043SOL     OW 3147   0.319   2.672   4.673
 1043SOL    HW1 3148   0.412   2.708   4.678
 1043SOL    HW2 3149   0.313   2.587   4.725
 1044SOL     OW 3150   0.008   3.188   3.924
 1044SOL    HW1 3151  -0.085   3.209   3.893
 1044SOL    HW2 3152   0.018   3.089   3.937
 1045SOL     OW 3153   0.088   3.663   4.651
 1045SOL    HW1 3154   0.046   3.577   4.624
 1045SOL    HW2 3155   0.182   3.666   4.617
 1046SOL     OW 3156   0.504   3.430   4.634
 1046SOL    HW1 3157   0.570   3.504   4.643
 1046SOL    HW2 3158   0.548   3.351   4.592
 1047SOL     OW 3159   0.815   2.434   4.049
 1047SOL    HW1 3160   0.822   2.345   4.003
 1047SOL    HW2 3161   0.721   2.468   4.041
 1048SOL     OW 3162   0.671   2.326   4.993
 1048SOL    HW1 3163   0.637   2.237   4.963
 1048SOL    HW2 3164   0.697   2.380   4.913
 1049SOL     OW 3165   0.473   2.362   3.915
 1049SOL    HW1 3166   0.534   2.442   3.919
 1049SOL    HW2 3167   0.378   2.393   3.922
 1050SOL     OW 3168   1.347   2.921   4.958
 1050SOL    HW1 3169   1.371   2.858   4.884
 1050SOL    HW2 3170   1.257   2.961   4.940
 1051SOL     OW 3171   1.302   2.717   4.033
 1051SOL    HW1 3172   1.216   2.686   4.075
 1051SOL    HW2 3173   1.298   2.703   3.934
 1052SOL     OW 3174   1.759   3.609   4.878
 1052SOL    HW1 3175   1.820   3.639   4.805
 1052SOL    HW2 3176   1.721   3.520   4.856
 1053SOL     OW 3177   0.083   3.120   4.746
 1053SOL    HW1 3178   0.078   3.119   4.846
 1053SOL    HW2 3179   0.000   3.079   4.708
 1054SOL     OW 3180   1.726   1.997   4.247
 1054SOL    HW1 3181   1.799   1.980   4.180
 1054SOL    HW2 3182   1.695   1.910   4.285
 1055SOL     OW 3183   1.388   3.435   4.201
 1055SOL    HW1 3184   1.455   3.447   4.127
 1055SOL    HW2 3185   1.348   3.524   4.224
 1056SOL     OW 3186   1.280   2.789   4.396
 1056SOL    HW1 3187   1.340   2.708   4.398
 1056SOL    HW2 3188   1.320   2.858   4.336
 1057SOL     OW 3189   0.672   3.478   3.878
 1057SOL    HW1 3190   0.681   3.488   3.779
 1057SOL    HW2 3191   0.632   3.389   3.899
 1058SOL     OW 3192   1.841   2.037   4.687
 1058SOL    HW1 3193   1.880   1.952   4.651
 1058SOL    HW2 3194   1.743   2.039   4.668
 1059SOL     OW 3195   0.263   2.188   4.444
 1059SOL    HW1 3196   0.184   2.239   4.410
 1059SOL    HW2 3197   0.254   2.173   4.542
 1060SOL     OW 3198   1.194   3.474   3.755
 1060SOL    HW1 3199   1.200   3.381   3.792
 1060SOL    HW2 3200   1.135   3.474   3.675
 1061SOL     OW 3201   0.916   2.772   4.015
 1061SOL    HW1 3202   0.979   2.810   3.947
 1061SOL    HW2 3203   0.956   2.689   4.054
 1062SOL     OW 3204   1.504   3.469   3.768
 1062SOL    HW1 3205   1.412   3.506   3.775
 1062SOL    HW2 3206   1.542   3.489   3.678
 1063SOL     OW 3207   1.614   3.154   5.013
 1063SOL    HW1 3208   1.674   3.157   5.093
 1063SOL    HW2 3209   1.539   3.218   5.026
 1064SOL     OW 3210   1.039   2.960   4.420
 1064SOL    HW1 3211   0.969   2.913   4.474
 1064SOL    HW2 3212   1.098   2.892   4.377
 1065SOL     OW 3213   0.590   3.349   4.215
 1065SOL    HW1 3214   0.632   3.291   4.145
 1065SOL    HW2 3215   0.546   3.428   4.171
 1066SOL     OW 3216   0.255   3.210   4.014
 1066SOL    HW1 3217   0.159   3.211   3.987
 1066SOL    HW2 3218   0.267   3.263   4.098
 1067SOL     OW 3219   0.075   2.207   3.757
 1067SOL    HW1 3220  -0.017   2.179   3.728
 1067SOL    HW2 3221   0.106   2.284   3.701
 1068SOL     OW 3222   0.072   2.028   4.042
 1068SOL    HW1 3223   0.055   2.111   3.988
 1068SOL    HW2 3224   0.162   1.991   4.020
 1069SOL     OW 3225   1.183   3.197   3.843
 1069SOL    HW1 3226   1.084   3.186   3.845
 1069SOL    HW2 3227   1.217   3.212   3.936
 1070SOL     OW 3228   1.674   2.745   4.978
 1070SOL    HW1 3229   1.647   2.656   4.941
 1070SOL    HW2 3230   1.675   2.813   4.905
 1071SOL     OW 3231   1.225   2.187   4.173
 1071SOL    HW1 3232   1.290   2.113   4.162
 1071SOL    HW2 3233   1.245   2.237   4.257
 1072SOL     OW 3234   0.594   2.607   4.376
 1072SOL    HW1 3235   0.644   2.692   4.357
 1072SOL    HW2 3236   0.506   2.609   4.328
 1073SOL     OW 3237   0.859   3.236   3.740
 1073SOL    HW1 3238   0.813   3.251   3.828
 1073SOL    HW2 3239   0.903   3.321   3.710
 1074SOL     OW 3240   0.661   3.652   4.677
 1074SOL    HW1 3241   0.615   3.740   4.664
 1074SOL    HW2 3242   0.760   3.664   4.670
 1075SOL     OW 3243   0.859   2.818   4.585
 1075SOL    HW1 3244   0.913   2.749   4.633
 1075SOL    HW2 3245   0.827   2.887   4.651
 1076SOL     OW 3246   1.083   2.846   3.811
 1076SOL    HW1 3247   1.060   2.899   3.729
 1076SOL    HW2 3248   1.164   2.790   3.792
 1077SOL     OW 3249   1.861   3.431   4.575
 1077SOL    HW1 3250   1.790   3.419   4.505
 1077SOL    HW2 3251   1.862   3.352   4.635
 1078SOL     OW 3252   0.079   3.102   4.377
 1078SOL    HW1 3253   0.078   3.055   4.465
 1078SOL    HW2 3254   0.161   3.074   4.326
 1079SOL     OW 3255   1.824   2.054   4.951
 1079SOL    HW1 3256   1.820   1.964   4.995
 1079SOL    HW2 3257   1.827   2.043   4.852
 1080SOL     OW 3258   0.428   2.286   4.244
 1080SOL    HW1 3259   0.458   2.214   4.182
 1080SOL    HW2 3260   0.389   2.246   4.327
 1081SOL     OW 3261   0.812   3.448   4.411
 1081SOL    HW1 3262   0.844   3.458   4.317
 1081SOL    HW2 3263   0.733   3.386   4.413
 1082SOL     OW 3264   0.770   3.192   4.025
 1082SOL    HW1 3265   0.724   3.105   4.042
 1082SOL    HW2 3266   0.861   3.189   4.066
 1083SOL     OW 3267   1.352   1.914   3.892
 1083SOL    HW1 3268   1.387   1.873   3.808
 1083SOL    HW2 3269   1.262   1.876   3.912
 1084SOL     OW 3270   1.300   2.315   4.415
 1084SOL    HW1 3271   1.241   2.395   4.419
 1084SOL    HW2 3272   1.315   2.280   4.508
 1085SOL     OW 3273   1.593   2.083   4.606
 1085SOL    HW1 3274   1.509   2.082   4.660
 1085SOL    HW2 3275   1.595   2.166   4.550
 1086SOL     OW 3276   0.039   2.939   4.024
 1086SOL    HW1 3277   0.138   2.928   4.015
 1086SOL    HW2 3278  -0.001   2.853   4.056
 1087SOL     OW 3279   0.875   3.508   4.061
 1087SOL    HW1 3280   0.798   3.473   4.007
 1087SOL    HW2 3281   0.843   3.579   4.123
 1088SOL     OW 3282   0.230   4.352   0.113
 1088SOL    HW1 3283   0.137   4.350   0.150
 1088SOL    HW2 3284   0.231   4.313   0.021
 1089SOL     OW 3285   0.225   3.999   0.996
 1089SOL    HW1 3286   0.260   3.982   1.088
 1089SOL    HW2 3287   0.137   3.954   0.984
 1090SOL     OW 3288   0.019   4.092   0.647
 1090SOL    HW1 3289  -0.063   4.135   0.686
 1090SOL    HW2 3290  -0.009   4.019   0.584
 1091SOL     OW 3291   1.135   4.427   0.717
 1091SOL    HW1 3292   1.192   4.505   0.692
 1091SOL    HW2 3293   1.075   4.453   0.793
 1092SOL     OW 3294   1.755   4.331   0.231
 1092SOL    HW1 3295   1.743   4.318   0.132
 1092SOL    HW2 3296   1.725   4.250   0.280
 1093SOL     OW 3297   0.768   4.868   1.023
 1093SOL    HW1 3298   0.690   4.885   1.083
 1093SOL    HW2 3299   0.802   4.955   0.987
 1094SOL     OW 3300   0.850   4.522   1.823
 1094SOL    HW1 3301   0.846   4.598   1.888
 1094SOL    HW2 3302   0.872   4.558   1.732
 1095SOL     OW 3303   0.685   4.736   0.665
 1095SOL    HW1 3304   0.754   4.720   0.735
 1095SOL    HW2 3305   0.612   4.793   0.703
 1096SOL     OW 3306   0.438   4.116   1.499
 1096SOL    HW1 3307   0.520   4.060   1.508
 1096SOL    HW2 3308   0.357   4.058   1.503
 1097SOL     OW 3309   1.603   4.171   0.737
 1097SOL    HW1 3310   1.529   4.217   0.687
 1097SOL    HW2 3311   1.654   4.239   0.790
 1098SOL     OW 3312   0.240   4.815   0.886
 1098SOL    HW1 3313   0.254   4.731   0.938
 1098SOL    HW2 3314   0.185   4.879   0.941
 1099SOL     OW 3315   1.594   3.838   1.480
 1099SOL    HW1 3316   1.576   3.905   1.408
 1099SOL    HW2 3317   1.591   3.884   1.569
 1100SOL     OW 3318   0.122   4.367   0.563
 1100SOL    HW1 3319   0.077   4.279   0.580
 1100SOL    HW2 3320   0.121   4.421   0.647
 1101SOL     OW 3321   0.113   4.461   1.597
 1101SOL    HW1 3322   0.201   4.448   1.642
 1101SOL    HW2 3323   0.100   4.558   1.575
 1102SOL     OW 3324   0.809   3.728   0.502
 1102SOL    HW1 3325   0.849   3.819   0.493
 1102SOL    HW2 3326   0.709   3.736   0.508
 1103SOL     OW 3327   0.197   4.700   1.264
 1103SOL    HW1 3328   0.286   4.655   1.250
 1103SOL    HW2 3329   0.124   4.635   1.245
 1104SOL     OW 3330   1.525   4.723   0.190
 1104SOL    HW1 3331   1.462   4.647   0.203
 1104SOL    HW2 3332   1.573   4.741   0.276
 1105SOL     OW 3333   0.317   3.975   1.801
 1105SOL    HW1 3334   0.388   4.046   1.807
 1105SOL    HW2 3335   0.229   4.014   1.829
 1106SOL     OW 3336   0.598   4.453   0.270
 1106SOL    HW1 3337   0.622   4.522   0.202
 1106SOL    HW2 3338   0.520   4.486   0.324
 1107SOL     OW 3339   1.281   4.069   0.944
 1107SOL    HW1 3340   1.195   4.019   0.931
 1107SOL    HW2 3341   1.343   4.015   1.000
 1108SOL     OW 3342   0.807   4.329   1.465
 1108SOL    HW1 3343   0.760   4.326   1.554
 1108SOL    HW2 3344   0.756   4.274   1.399
 1109SOL     OW 3345   1.394   4.193   1.674
 1109SOL    HW1 3346   1.374   4.236   1.762
 1109SOL    HW2 3347   1.472   4.131   1.683
 1110SOL     OW 3348   0.973   4.614   1.572
 1110SOL    HW1 3349   1.019   4.530   1.543
 1110SOL    HW2 3350   0.917   4.648   1.497
 1111SOL     OW 3351   0.991   4.134   1.242
 1111SOL    HW1 3352   0.914   4.168   1.296
 1111SOL    HW2 3353   0.957   4.083   1.163
 1112SOL     OW 3354   1.041   4.425   0.429
 1112SOL    HW1 3355   1.067   4.421   0.525
 1112SOL    HW2 3356   0.956   4.374   0.415
 1113SOL     OW 3357   0.076   4.535   0.789
 1113SOL    HW1 3358   0.175   4.523   0.798
 1113SOL    HW2 3359   0.052   4.630   0.810
 1114SOL     OW 3360   0.865   4.072   0.195
 1114SOL    HW1 3361   0.924   4.135   0.146
 1114SOL    HW2 3362   0.884   3.978   0.166
 1115SOL     OW 3363   1.719   4.309   1.831
 1115SOL    HW1 3364   1.693   4.398   1.795
 1115SOL    HW2 3365   1.717   4.241   1.758
 1116SOL     OW 3366   0.550   3.920   0.885
 1116SOL    HW1 3367   0.545   3.915   0.985
 1116SOL    HW2 3368   0.552   4.016   0.856
 1117SOL     OW 3369   1.458   4.459   0.728
 1117SOL    HW1 3370   1.453   4.394   0.803
 1117SOL    HW2 3371   1.538   4.518   0.741
 1118SOL     OW 3372   0.202   4.009   1.498
 1118SOL    HW1 3373   0.122   4.069   1.485
 1118SOL    HW2 3374   0.192   3.960   1.584
 1119SOL     OW 3375   1.400   3.831   0.426
 1119SOL    HW1 3376   1.376   3.794   0.336
 1119SOL    HW2 3377   1.499   3.847   0.430
 1120SOL     OW 3378   0.382   4.424   0.480
 1120SOL    HW1 3379   0.427   4.334   0.477
 1120SOL    HW2 3380   0.288   4.413   0.513
 1121SOL     OW 3381   1.547   3.946   1.729
 1121SOL    HW1 3382   1.542   3.983   1.821
 1121SOL    HW2 3383   1.475   3.877   1.717
 1122SOL     OW 3384   0.614   3.846   0.117
 1122SOL    HW1 3385   0.712   3.824   0.124
 1122SOL    HW2 3386   0.583   3.829   0.024
 1123SOL     OW 3387   0.781   3.988   1.749
 1123SOL    HW1 3388   0.848   3.927   1.792
 1123SOL    HW2 3389   0.708   4.007   1.814
 1124SOL     OW 3390   1.351   4.314   1.433
 1124SOL    HW1 3391   1.379   4.271   1.518
 1124SOL    HW2 3392   1.376   4.410   1.434
 1125SOL     OW 3393   0.922   4.227   0.899
 1125SOL    HW1 3394   0.897   4.218   0.803
 1125SOL    HW2 3395   0.970   4.145   0.930
 1126SOL     OW 3396   0.539   3.788   0.512
 1126SOL    HW1 3397   0.458   3.789   0.570
 1126SOL    HW2 3398   0.542   3.871   0.457
 1127SOL     OW 3399   0.935   3.960   0.480
 1127SOL    HW1 3400   0.887   4.001   0.402
 1127SOL    HW2 3401   1.034   3.958   0.461
 1128SOL     OW 3402   1.076   4.407   1.464
 1128SOL    HW1 3403   0.996   4.346   1.467
 1128SOL    HW2 3404   1.157   4.354   1.440
 1129SOL     OW 3405   1.032   4.273   0.016
 1129SOL    HW1 3406   0.991   4.355  -0.023
 1129SOL    HW2 3407   1.096   4.299   0.089
 1130SOL     OW 3408   0.078   4.280   1.386
 1130SOL    HW1 3409   0.170   4.279   1.345
 1130SOL    HW2 3410   0.072   4.354   1.453
 1131SOL     OW 3411   0.561   3.946   1.147
 1131SOL    HW1 3412   0.599   3.862   1.184
 1131SOL    HW2 3413   0.473   3.965   1.191
 1132SOL     OW 3414   0.866   4.178   0.642
 1132SOL    HW1 3415   0.834   4.250   0.580
 1132SOL    HW2 3416   0.890   4.097   0.589
 1133SOL     OW 3417   1.017   3.763   0.753
 1133SOL    HW1 3418   0.945   3.768   0.684
 1133SOL    HW2 3419   0.993   3.694   0.822
 1134SOL     OW 3420   1.466   4.314   0.992
 1134SOL    HW1 3421   1.436   4.219   0.999
 1134SOL    HW2 3422   1.539   4.330   1.058
 1135SOL     OW 3423   1.857   4.557   0.377
 1135SOL    HW1 3424   1.899   4.493   0.441
 1135SOL    HW2 3425   1.819   4.506   0.299
 1136SOL     OW 3426   1.390   4.299   0.078
 1136SOL    HW1 3427   1.336   4.278   0.159
 1136SOL    HW2 3428   1.481   4.258   0.087
 1137SOL     OW 3429   0.527   3.980   0.328
 1137SOL    HW1 3430   0.554   3.921   0.253
 1137SOL    HW2 3431   0.527   4.075   0.297
 1138SOL     OW 3432   1.638   4.823   1.079
 1138SOL    HW1 3433   1.643   4.904   1.138
 1138SOL    HW2 3434   1.552   4.825   1.028
 1139SOL     OW 3435   0.915   3.813   1.402
 1139SOL    HW1 3436   0.940   3.793   1.307
 1139SOL    HW2 3437   0.987   3.869   1.444
 1140SOL     OW 3438   0.410   4.537   1.251
 1140SOL    HW1 3439   0.496   4.549   1.301
 1140SOL    HW2 3440   0.368   4.450   1.278
 1141SOL     OW 3441   1.274   4.110   1.262
 1141SOL    HW1 3442   1.295   4.184   1.326
 1141SOL    HW2 3443   1.185   4.127   1.219
 1142SOL     OW 3444   0.566   4.261   0.865
 1142SOL    HW1 3445   0.578   4.327   0.791
 1142SOL    HW2 3446   0.612   4.295   0.948
 1143SOL     OW 3447   1.582   4.363   0.472
 1143SOL    HW1 3448   1.551   4.424   0.545
 1143SOL    HW2 3449   1.632   4.415   0.403
 1144SOL     OW 3450   0.402   4.475   1.598
 1144SOL    HW1 3451   0.470   4.530   1.551
 1144SOL    HW2 3452   0.442   4.387   1.625
 1145SOL     OW 3453   1.587   4.503   1.670
 1145SOL    HW1 3454   1.495   4.541   1.665
 1145SOL    HW2 3455   1.647   4.550   1.605
 1146SOL     OW 3456   1.013   3.829   1.770
 1146SOL    HW1 3457   1.019   3.914   1.718
 1146SOL    HW2 3458   1.045   3.753   1.713
 1147SOL     OW 3459   0.504   3.774   1.740
 1147SOL    HW1 3460   0.462   3.717   1.670
 1147SOL    HW2 3461   0.438   3.843   1.772
 1148SOL     OW 3462   0.573   4.594   1.029
 1148SOL    HW1 3463   0.617   4.683   1.020
 1148SOL    HW2 3464   0.510   4.594   1.106
 1149SOL     OW 3465   1.360   4.586   1.045
 1149SOL    HW1 3466   1.285   4.586   0.979
 1149SOL    HW2 3467   1.397   4.494   1.054
 1150SOL     OW 3468   1.209   4.249   0.275
 1150SOL    HW1 3469   1.222   4.165   0.329
 1150SOL    HW2 3470   1.180   4.323   0.335
 1151SOL     OW 3471   0.307   3.937   1.231
 1151SOL    HW1 3472   0.284   3.974   1.321
 1151SOL    HW2 3473   0.277   3.842   1.225
 1152SOL     OW 3474   0.037   5.034   1.282
 1152SOL    HW1 3475   0.090   4.985   1.350
 1152SOL    HW2 3476   0.059   5.132   1.287
 1153SOL     OW 3477   0.732   4.358   1.064
 1153SOL    HW1 3478   0.791   4.332   0.988
 1153SOL    HW2 3479   0.704   4.454   1.053
 1154SOL     OW 3480   1.728   4.659   1.854
 1154SOL    HW1 3481   1.682   4.652   1.765
 1154SOL    HW2 3482   1.666   4.703   1.920
 1155SOL     OW 3483   0.307   3.787   0.618
 1155SOL    HW1 3484   0.296   3.881   0.651
 1155SOL    HW2 3485   0.302   3.724   0.695
 1156SOL     OW 3486   1.622   4.091   0.374
 1156SOL    HW1 3487   1.624   4.015   0.438
 1156SOL    HW2 3488   1.574   4.168   0.414
 1157SOL     OW 3489   1.023   4.490   0.966
 1157SOL    HW1 3490   1.038   4.511   1.062
 1157SOL    HW2 3491   0.993   4.395   0.957
 1158SOL     OW 3492   0.350   4.622   1.804
 1158SOL    HW1 3493   0.426   4.666   1.852
 1158SOL    HW2 3494   0.385   4.575   1.722
 1159SOL     OW 3495   1.540   3.998   0.125
 1159SOL    HW1 3496   1.479   3.923   0.148
 1159SOL    HW2 3497   1.562   4.050   0.208
 1160SOL     OW 3498   1.303   4.562   0.042
 1160SOL    HW1 3499   1.337   4.469   0.057
 1160SOL    HW2 3500   1.321   4.589  -0.053
 1161SOL     OW 3501   0.319   4.534   0.949
 1161SOL    HW1 3502   0.412   4.570   0.954
 1161SOL    HW2 3503   0.313   4.449   1.001
 1162SOL     OW 3504   0.339   4.233   1.006
 1162SOL    HW1 3505   0.287   4.150   0.989
 1162SOL    HW2 3506   0.416   4.238   0.942
 1163SOL     OW 3507   1.138   4.104   1.678
 1163SOL    HW1 3508   1.093   4.167   1.742
 1163SOL    HW2 3509   1.231   4.135   1.661
 1164SOL     OW 3510   1.160   3.931   1.477
 1164SOL    HW1 3511   1.160   3.995   1.554
 1164SOL    HW2 3512   1.188   3.979   1.394
 1165SOL     OW 3513   1.002   4.520   1.238
 1165SOL    HW1 3514   1.043   4.488   1.324
 1165SOL    HW2 3515   0.906   4.493   1.235
 1166SOL     OW 3516   0.040   4.268   1.114
 1166SOL    HW1 3517   0.125   4.235   1.073
 1166SOL    HW2 3518   0.053   4.283   1.212
 1167SOL     OW 3519   0.189   4.244   1.722
 1167SOL    HW1 3520   0.248   4.204   1.652
 1167SOL    HW2 3521   0.131   4.315   1.681
 1168SOL     OW 3522   1.369   4.674   1.660
 1168SOL    HW1 3523   1.408   4.763   1.680
 1168SOL    HW2 3524   1.379   4.654   1.563
 1169SOL     OW 3525   0.815   4.296   0.325
 1169SOL    HW1 3526   0.822   4.207   0.279
 1169SOL    HW2 3527   0.721   4.330   0.317
 1170SOL     OW 3528   1.657   4.328   1.206
 1170SOL    HW1 3529   1.619   4.259   1.268
 1170SOL    HW2 3530   1.739   4.292   1.162
 1171SOL     OW 3531   0.671   4.188   1.269
 1171SOL    HW1 3532   0.637   4.099   1.239
 1171SOL    HW2 3533   0.697   4.242   1.189
 1172SOL     OW 3534   0.473   4.224   0.191
 1172SOL    HW1 3535   0.534   4.304   0.195
 1172SOL    HW2 3536   0.378   4.255   0.198
 1173SOL     OW 3537   0.159   4.861   1.466
 1173SOL    HW1 3538   0.181   4.800   1.542
 1173SOL    HW2 3539   0.169   4.812   1.380
 1174SOL     OW 3540   1.347   4.783   1.234
 1174SOL    HW1 3541   1.371   4.720   1.160
 1174SOL    HW2 3542   1.257   4.823   1.216
 1175SOL     OW 3543   1.302   4.579   0.309
 1175SOL    HW1 3544   1.216   4.548   0.351
 1175SOL    HW2 3545   1.298   4.565   0.210
 1176SOL     OW 3546   0.903   3.810   0.133
 1176SOL    HW1 3547   0.954   3.811   0.047
 1176SOL    HW2 3548   0.959   3.768   0.204
 1177SOL     OW 3549   1.726   3.859   0.523
 1177SOL    HW1 3550   1.799   3.842   0.456
 1177SOL    HW2 3551   1.695   3.772   0.561
 1178SOL     OW 3552   1.280   4.651   0.672
 1178SOL    HW1 3553   1.340   4.570   0.674
 1178SOL    HW2 3554   1.320   4.720   0.612
 1179SOL     OW 3555   1.841   3.899   0.963
 1179SOL    HW1 3556   1.880   3.814   0.927
 1179SOL    HW2 3557   1.743   3.901   0.944
 1180SOL     OW 3558   0.263   4.050   0.720
 1180SOL    HW1 3559   0.184   4.101   0.686
 1180SOL    HW2 3560   0.254   4.035   0.818
 1181SOL     OW 3561   0.916   4.634   0.291
 1181SOL    HW1 3562   0.979   4.672   0.223
 1181SOL    HW2 3563   0.956   4.551   0.330
 1182SOL     OW 3564   1.014   3.960   0.971
 1182SOL    HW1 3565   1.006   3.924   0.878
 1182SOL    HW2 3566   1.012   3.884   1.036
 1183SOL     OW 3567   1.709   4.109   1.381
 1183SOL    HW1 3568   1.782   4.178   1.385
 1183SOL    HW2 3569   1.737   4.034   1.322
 1184SOL     OW 3570   0.105   4.737   1.726
 1184SOL    HW1 3571   0.028   4.704   1.780
 1184SOL    HW2 3572   0.190   4.707   1.768
 1185SOL     OW 3573   0.672   3.927   1.489
 1185SOL    HW1 3574   0.762   3.911   1.449
 1185SOL    HW2 3575   0.680   3.932   1.588
 1186SOL     OW 3576   0.075   4.069   0.033
 1186SOL    HW1 3577  -0.017   4.041   0.004
 1186SOL    HW2 3578   0.106   4.146  -0.023
 1187SOL     OW 3579   1.440   4.580   1.398
 1187SOL    HW1 3580   1.383   4.632   1.335
 1187SOL    HW2 3581   1.536   4.592   1.374
 1188SOL     OW 3582   0.072   3.890   0.318
 1188SOL    HW1 3583   0.055   3.973   0.264
 1188SOL    HW2 3584   0.162   3.853   0.296
 1189SOL     OW 3585   0.613   4.566   1.431
 1189SOL    HW1 3586   0.669   4.647   1.414
 1189SOL    HW2 3587   0.672   4.486   1.434
 1190SOL     OW 3588   0.716   4.289   1.708
 1190SOL    HW1 3589   0.735   4.354   1.782
 1190SOL    HW2 3590   0.776   4.209   1.717
 1191SOL     OW 3591   1.674   4.607   1.254
 1191SOL    HW1 3592   1.647   4.518   1.217
 1191SOL    HW2 3593   1.675   4.675   1.181
 1192SOL     OW 3594   1.225   4.049   0.449
 1192SOL    HW1 3595   1.290   3.975   0.438
 1192SOL    HW2 3596   1.245   4.099   0.533
 1193SOL     OW 3597   0.594   4.469   0.652
 1193SOL    HW1 3598   0.644   4.554   0.633
 1193SOL    HW2 3599   0.506   4.471   0.604
 1194SOL     OW 3600   1.777   4.066   1.642
 1194SOL    HW1 3601   1.760   4.097   1.548
 1194SOL    HW2 3602   1.693   4.029   1.680
 1195SOL     OW 3603   1.730   4.658   1.517
 1195SOL    HW1 3604   1.768   4.749   1.532
 1195SOL    HW2 3605   1.722   4.641   1.418
 1196SOL     OW 3606   1.083   4.708   0.087
 1196SOL    HW1 3607   1.060   4.761   0.005
 1196SOL    HW2 3608   1.164   4.652   0.068
 1197SOL     OW 3609   1.824   3.916   1.227
 1197SOL    HW1 3610   1.820   3.826   1.271
 1197SOL    HW2 3611   1.827   3.905   1.128
 1198SOL     OW 3612   0.428   4.148   0.520
 1198SOL    HW1 3613   0.458   4.076   0.458
 1198SOL    HW2 3614   0.389   4.108   0.603
 1199SOL     OW 3615   0.317   4.271   1.280
 1199SOL    HW1 3616   0.355   4.212   1.352
 1199SOL    HW2 3617   0.357   4.245   1.192
 1200SOL     OW 3618   1.424   3.938   1.112
 1200SOL    HW1 3619   1.476   3.873   1.167
 1200SOL    HW2 3620   1.375   4.001   1.173
 1201SOL     OW 3621   1.001   3.758   1.154
 1201SOL    HW1 3622   0.938   3.686   1.123
 1201SOL    HW2 3623   1.094   3.722   1.154
 1202SOL     OW 3624   1.352   3.776   0.168
 1202SOL    HW1 3625   1.387   3.735   0.084
 1202SOL    HW2 3626   1.262   3.738   0.188
 1203SOL     OW 3627   1.300   4.177   0.691
 1203SOL    HW1 3628   1.241   4.257   0.695
 1203SOL    HW2 3629   1.315   4.142   0.784
 1204SOL     OW 3630   1.593   3.945   0.882
 1204SOL    HW1 3631   1.509   3.944   0.936
 1204SOL    HW2 3632   1.595   4.028   0.826
 1205SOL     OW 3633   0.230   4.352   1.975
 1205SOL    HW1 3634   0.137   4.350   2.012
 1205SOL    HW2 3635   0.231   4.313   1.883
 1206SOL     OW 3636   0.225   3.999   2.858
 1206SOL    HW1 3637   0.260   3.982   2.950
 1206SOL    HW2 3638   0.137   3.954   2.846
 1207SOL     OW 3639   0.019   4.092   2.509
 1207SOL    HW1 3640  -0.063   4.135   2.548
 1207SOL    HW2 3641  -0.009   4.019   2.446
 1208SOL     OW 3642   1.135   4.427   2.579
 1208SOL    HW1 3643   1.192   4.505   2.554
 1208SOL    HW2 3644   1.075   4.453   2.655
 1209SOL     OW 3645   1.755   4.331   2.093
 1209SOL    HW1 3646   1.743   4.318   1.994
 1209SOL    HW2 3647   1.725   4.250   2.142
 1210SOL     OW 3648   0.768   4.868   2.885
 1210SOL    HW1 3649   0.690   4.885   2.945
 1210SOL    HW2 3650   0.802   4.955   2.849
 1211SOL     OW 3651   0.850   4.522   3.685
 1211SOL    HW1 3652   0.846   4.598   3.750
 1211SOL    HW2 3653   0.872   4.558   3.594
 1212SOL     OW 3654   0.685   4.736   2.527
 1212SOL    HW1 3655   0.754   4.720   2.597
 1212SOL    HW2 3656   0.612   4.793   2.565
 1213SOL     OW 3657   0.438   4.116   3.361
 1213SOL    HW1 3658   0.520   4.060   3.370
 1213SOL    HW2 3659   0.357   4.058   3.365
 1214SOL     OW 3660   1.603   4.171   2.599
 1214SOL    HW1 3661   1.529   4.217   2.549
 1214SOL    HW2 3662   1.654   4.239   2.652
 1215SOL     OW 3663   0.240   4.815   2.748
 1215SOL    HW1 3664   0.254   4.731   2.800
 1215SOL    HW2 3665   0.185   4.879   2.803
 1216SOL     OW 3666   1.594   3.838   3.342
 1216SOL    HW1 3667   1.576   3.905   3.270
 1216SOL    HW2 3668   1.591   3.884   3.431
 1217SOL     OW 3669   0.122   4.367   2.425
 1217SOL    HW1 3670   0.077   4.279   2.442
 1217SOL    HW2 3671   0.121   4.421   2.509
 1218SOL     OW 3672   0.113   4.461   3.459
 1218SOL    HW1 3673   0.201   4.448   3.504
 1218SOL    HW2 3674   0.100   4.558   3.437
 1219SOL     OW 3675   0.809   3.728   2.364
 1219SOL    HW1 3676   0.849   3.819   2.355
 1219SOL    HW2 3677   0.709   3.736   2.370
 1220SOL     OW 3678   0.197   4.700   3.126
 1220SOL    HW1 3679   0.286   4.655   3.112
 1220SOL    HW2 3680   0.124   4.635   3.107
 1221SOL     OW 3681   1.525   4.723   2.052
 1221SOL    HW1 3682   1.462   4.647   2.065
 1221SOL    HW2 3683   1.573   4.741   2.138
 1222SOL     OW 3684   0.317   3.975   3.663
 1222SOL    HW1 3685   0.388   4.046   3.669
 1222SOL    HW2 3686   0.229   4.014   3.691
 1223SOL     OW 3687   0.598   4.453   2.132
 1223SOL    HW1 3688   0.622   4.522   2.064
 1223SOL    HW2 3689   0.520   4.486   2.186
 1224SOL     OW 3690   1.281   4.069   2.806
 1224SOL    HW1 3691   1.195   4.019   2.793
 1224SOL    HW2 3692   1.343   4.015   2.862
 1225SOL     OW 3693   0.807   4.329   3.327
 1225SOL    HW1 3694   0.760   4.326   3.416
 1225SOL    HW2 3695   0.756   4.274   3.261
 1226SOL     OW 3696   1.394   4.193   3.536
 1226SOL    HW1 3697   1.374   4.236   3.624
 1226SOL    HW2 3698   1.472   4.131   3.545
 1227SOL     OW 3699   0.973   4.614   3.434
 1227SOL    HW1 3700   1.019   4.530   3.405
 1227SOL    HW2 3701   0.917   4.648   3.359
 1228SOL     OW 3702   0.991   4.134   3.104
 1228SOL    HW1 3703   0.914   4.168   3.158
 1228SOL    HW2 3704   0.957   4.083   3.025
 1229SOL     OW 3705   1.041   4.425   2.291
 1229SOL    HW1 3706   1.067   4.421   2.387
 1229SOL    HW2 3707   0.956   4.374   2.277
 1230SOL     OW 3708   0.076   4.535   2.651
 1230SOL    HW1 3709   0.175   4.523   2.660
 1230SOL    HW2 3710   0.052   4.630   2.672
 1231SOL     OW 3711   0.865   4.072   2.057
 1231SOL    HW1 3712   0.924   4.135   2.008
 1231SOL    HW2 3713   0.884   3.978   2.028
 1232SOL     OW 3714   1.719   4.309   3.693
 1232SOL    HW1 3715   1.693   4.398   3.657
 1232SOL    HW2 3716   1.717   4.241   3.620
 1233SOL     OW 3717   0.550   3.920   2.747
 1233SOL    HW1 3718   0.545   3.915   2.847
 1233SOL    HW2 3719   0.552   4.016   2.718
 1234SOL     OW 3720   1.458   4.459   2.590
 1234SOL    HW1 3721   1.453   4.394   2.665
 1234SOL    HW2 3722   1.538   4.518   2.603
 1235SOL     OW 3723   0.202   4.009   3.360
 1235SOL    HW1 3724   0.122   4.069   3.347
 1235SOL    HW2 3725   0.192   3.960   3.446
 1236SOL     OW 3726   1.400   3.831   2.288
 1236SOL    HW1 3727   1.376   3.794   2.198
 1236SOL    HW2 3728   1.499   3.847   2.292
 1237SOL     OW 3729   0.382   4.424   2.342
 1237SOL    HW1 3730   0.427   4.334   2.339
 1237SOL    HW2 3731   0.288   4.413   2.375
 1238SOL     OW 3732   1.547   3.946   3.591
 1238SOL    HW1 3733   1.542   3.983   3.683
 1238SOL    HW2 3734   1.475   3.877   3.579
 1239SOL     OW 3735   0.614   3.846   1.979
 1239SOL    HW1 3736   0.712   3.824   1.986
 1239SOL    HW2 3737   0.583   3.829   1.886
 1240SOL     OW 3738   0.781   3.988   3.611
 1240SOL    HW1 3739   0.848   3.927   3.654
 1240SOL    HW2 3740   0.708   4.007   3.676
 1241SOL     OW 3741   1.351   4.314   3.295
 1241SOL    HW1 3742   1.379   4.271   3.380
 1241SOL    HW2 3743   1.376   4.410   3.296
 1242SOL     OW 3744   0.922   4.227   2.761
 1242SOL    HW1 3745   0.897   4.218   2.665
 1242SOL    HW2 3746   0.970   4.145   2.792
 1243SOL     OW 3747   0.539   3.788   2.374
 1243SOL    HW1 3748   0.458   3.789   2.432
 1243SOL    HW2 3749   0.542   3.871   2.319
 1244SOL     OW 3750   0.297   3.759   2.033
 1244SOL    HW1 3751   0.346   3.843   2.012
 1244SOL    HW2 3752   0.359   3.694   2.078
 1245SOL     OW 3753   0.935   3.960   2.342
 1245SOL    HW1 3754   0.887   4.001   2.264
 1245SOL    HW2 3755   1.034   3.958   2.323
 1246SOL     OW 3756   1.076   4.407   3.326
 1246SOL    HW1 3757   0.996   4.346   3.329
 1246SOL    HW2 3758   1.157   4.354   3.302
 1247SOL     OW 3759   1.032   4.273   1.878
 1247SOL    HW1 3760   0.991   4.355   1.839
 1247SOL    HW2 3761   1.096   4.299   1.951
 1248SOL     OW 3762   0.078   4.280   3.248
 1248SOL    HW1 3763   0.170   4.279   3.207
 1248SOL    HW2 3764   0.072   4.354   3.315
 1249SOL     OW 3765   0.561   3.946   3.009
 1249SOL    HW1 3766   0.599   3.862   3.046
 1249SOL    HW2 3767   0.473   3.965   3.053
 1250SOL     OW 3768   0.866   4.178   2.504
 1250SOL    HW1 3769   0.834   4.250   2.442
 1250SOL    HW2 3770   0.890   4.097   2.451
 1251SOL     OW 3771   1.017   3.763   2.615
 1251SOL    HW1 3772   0.945   3.768   2.546
 1251SOL    HW2 3773   0.993   3.694   2.684
 1252SOL     OW 3774   1.466   4.314   2.854
 1252SOL    HW1 3775   1.436   4.219   2.861
 1252SOL    HW2 3776   1.539   4.330   2.920
 1253SOL     OW 3777   1.857   4.557   2.239
 1253SOL    HW1 3778   1.899   4.493   2.303
 1253SOL    HW2 3779   1.819   4.506   2.161
 1254SOL     OW 3780   1.390   4.299   1.940
 1254SOL    HW1 3781   1.336   4.278   2.021
 1254SOL    HW2 3782   1.481   4.258   1.949
 1255SOL     OW 3783   0.527   3.980   2.190
 1255SOL    HW1 3784   0.554   3.921   2.115
 1255SOL    HW2 3785   0.527   4.075   2.159
 1256SOL     OW 3786   1.638   4.823   2.941
 1256SOL    HW1 3787   1.643   4.904   3.000
 1256SOL    HW2 3788   1.552   4.825   2.890
 1257SOL     OW 3789   0.915   3.813   3.264
 1257SOL    HW1 3790   0.940   3.793   3.169
 1257SOL    HW2 3791   0.987   3.869   3.306
 1258SOL     OW 3792   0.410   4.537   3.113
 1258SOL    HW1 3793   0.496   4.549   3.163
 1258SOL    HW2 3794   0.368   4.450   3.140
 1259SOL     OW 3795   1.274   4.110   3.124
 1259SOL    HW1 3796   1.295   4.184   3.188
 1259SOL    HW2 3797   1.185   4.127   3.081
 1260SOL     OW 3798   0.566   4.261   2.727
 1260SOL    HW1 3799   0.578   4.327   2.653
 1260SOL    HW2 3800   0.612   4.295   2.810
 1261SOL     OW 3801   1.582   4.363   2.334
 1261SOL    HW1 3802   1.551   4.424   2.407
 1261SOL    HW2 3803   1.632   4.415   2.265
 1262SOL     OW 3804   0.402   4.475   3.460
 1262SOL    HW1 3805   0.470   4.530   3.413
 1262SOL    HW2 3806   0.442   4.387   3.487
 1263SOL     OW 3807   1.587   4.503   3.532
 1263SOL    HW1 3808   1.495   4.541   3.527
 1263SOL    HW2 3809   1.647   4.550   3.467
 1264SOL     OW 3810   1.013   3.829   3.632
 1264SOL    HW1 3811   1.019   3.914   3.580
 1264SOL    HW2 3812   1.045   3.753   3.575
 1265SOL     OW 3813   0.504   3.774   3.602
 1265SOL    HW1 3814   0.462   3.717   3.532
 1265SOL    HW2 3815   0.438   3.843   3.634
 1266SOL     OW 3816   0.573   4.594   2.891
 1266SOL    HW1 3817   0.617   4.683   2.882
 1266SOL    HW2 3818   0.510   4.594   2.968
 1267SOL     OW 3819   1.360   4.586   2.907
 1267SOL    HW1 3820   1.285   4.586   2.841
 1267SOL    HW2 3821   1.397   4.494   2.916
 1268SOL     OW 3822   1.209   4.249   2.137
 1268SOL    HW1 3823   1.222   4.165   2.191
 1268SOL    HW2 3824   1.180   4.323   2.197
 1269SOL     OW 3825   0.307   3.937   3.093
 1269SOL    HW1 3826   0.284   3.974   3.183
 1269SOL    HW2 3827   0.277   3.842   3.087
 1270SOL     OW 3828   0.037   5.034   3.144
 1270SOL    HW1 3829   0.090   4.985   3.212
 1270SOL    HW2 3830   0.059   5.132   3.149
 1271SOL     OW 3831   0.732   4.358   2.926
 1271SOL    HW1 3832   0.791   4.332   2.850
 1271SOL    HW2 3833   0.704   4.454   2.915
 1272SOL     OW 3834   1.728   4.659   3.716
 1272SOL    HW1 3835   1.682   4.652   3.627
 1272SOL    HW2 3836   1.666   4.703   3.782
 1273SOL     OW 3837   0.307   3.787   2.480
 1273SOL    HW1 3838   0.296   3.881   2.513
 1273SOL    HW2 3839   0.302   3.724   2.557
 1274SOL     OW 3840   1.622   4.091   2.236
 1274SOL    HW1 3841   1.624   4.015   2.300
 1274SOL    HW2 3842   1.574   4.168   2.276
 1275SOL     OW 3843   1.023   4.490   2.828
 1275SOL    HW1 3844   1.038   4.511   2.924
 1275SOL    HW2 3845   0.993   4.395   2.819
 1276SOL     OW 3846   0.350   4.622   3.666
 1276SOL    HW1 3847   0.426   4.666   3.714
 1276SOL    HW2 3848   0.385   4.575   3.584
 1277SOL     OW 3849   1.540   3.998   1.987
 1277SOL    HW1 3850   1.479   3.923   2.010
 1277SOL    HW2 3851   1.562   4.050   2.070
 1278SOL     OW 3852   1.303   4.562   1.904
 1278SOL    HW1 3853   1.337   4.469   1.919
 1278SOL    HW2 3854   1.321   4.589   1.809
 1279SOL     OW 3855   0.319   4.534   2.811
 1279SOL    HW1 3856   0.412   4.570   2.816
 1279SOL    HW2 3857   0.313   4.449   2.863
 1280SOL     OW 3858   0.339   4.233   2.868
 1280SOL    HW1 3859   0.287   4.150   2.851
 1280SOL    HW2 3860   0.416   4.238   2.804
 1281SOL     OW 3861   1.138   4.104   3.540
 1281SOL    HW1 3862   1.093   4.167   3.604
 1281SOL    HW2 3863   1.231   4.135   3.523
 1282SOL     OW 3864   1.160   3.931   3.339
 1282SOL    HW1 3865   1.160   3.995   3.416
 1282SOL    HW2 3866   1.188   3.979   3.256
 1283SOL     OW 3867   1.002   4.520   3.100
 1283SOL    HW1 3868   1.043   4.488   3.186
 1283SOL    HW2 3869   0.906   4.493   3.097
 1284SOL     OW 3870   0.040   4.268   2.976
 1284SOL    HW1 3871   0.125   4.235   2.935
 1284SOL    HW2 3872   0.053   4.283   3.074
 1285SOL     OW 3873   0.189   4.244   3.584
 1285SOL    HW1 3874   0.248   4.204   3.514
 1285SOL    HW2 3875   0.131   4.315   3.543
 1286SOL     OW 3876   1.369   4.674   3.522
 1286SOL    HW1 3877   1.408   4.763   3.542
 1286SOL    HW2 3878   1.379   4.654   3.425
 1287SOL     OW 3879   0.815   4.296   2.187
 1287SOL    HW1 3880   0.822   4.207   2.141
 1287SOL    HW2 3881   0.721   4.330   2.179
 1288SOL     OW 3882   1.657   4.328   3.068
 1288SOL    HW1 3883   1.619   4.259   3.130
 1288SOL    HW2 3884   1.739   4.292   3.024
 1289SOL     OW 3885   0.671   4.188   3.131
 1289SOL    HW1 3886   0.637   4.099   3.101
 1289SOL    HW2 3887   0.697   4.242   3.051
 1290SOL     OW 3888   0.473   4.224   2.053
 1290SOL    HW1 3889   0.534   4.304   2.057
 1290SOL    HW2 3890   0.378   4.255   2.060
 1291SOL     OW 3891   0.159   4.861   3.328
 1291SOL    HW1 3892   0.181   4.800   3.404
 1291SOL    HW2 3893   0.169   4.812   3.242
 1292SOL     OW 3894   1.347   4.783   3.096
 1292SOL    HW1 3895   1.371   4.720   3.022
 1292SOL    HW2 3896   1.257   4.823   3.078
 1293SOL     OW 3897   1.302   4.579   2.171
 1293SOL    HW1 3898   1.216   4.548   2.213
 1293SOL    HW2 3899   1.298   4.565   2.072
 1294SOL     OW 3900   1.726   3.859   2.385
 1294SOL    HW1 3901   1.799   3.842   2.318
 1294SOL    HW2 3902   1.695   3.772   2.423
 1295SOL     OW 3903   1.280   4.651   2.534
 1295SOL    HW1 3904   1.340   4.570   2.536
 1295SOL    HW2 3905   1.320   4.720   2.474
 1296SOL     OW 3906   1.841   3.899   2.825
 1296SOL    HW1 3907   1.880   3.814   2.789
 1296SOL    HW2 3908   1.743   3.901   2.806
 1297SOL     OW 3909   0.263   4.050   2.582
 1297SOL    HW1 3910   0.184   4.101   2.548
 1297SOL    HW2 3911   0.254   4.035   2.680
 1298SOL     OW 3912   0.916   4.634   2.153
 1298SOL    HW1 3913   0.979   4.672   2.085
 1298SOL    HW2 3914   0.956   4.551   2.192
 1299SOL     OW 3915   1.014   3.960   2.833
 1299SOL    HW1 3916   1.006   3.924   2.740
 1299SOL    HW2 3917   1.012   3.884   2.898
 1300SOL     OW 3918   1.709   4.109   3.243
 1300SOL    HW1 3919   1.782   4.178   3.247
 1300SOL    HW2 3920   1.737   4.034   3.184
 1301SOL     OW 3921   0.105   4.737   3.588
 1301SOL    HW1 3922   0.028   4.704   3.642
 1301SOL    HW2 3923   0.190   4.707   3.630
 1302SOL     OW 3924   0.672   3.927   3.351
 1302SOL    HW1 3925   0.762   3.911   3.311
 1302SOL    HW2 3926   0.680   3.932   3.450
 1303SOL     OW 3927   0.075   4.069   1.895
 1303SOL    HW1 3928  -0.017   4.041   1.866
 1303SOL    HW2 3929   0.106   4.146   1.839
 1304SOL     OW 3930   1.440   4.580   3.260
 1304SOL    HW1 3931   1.383   4.632   3.197
 1304SOL    HW2 3932   1.536   4.592   3.236
 1305SOL     OW 3933   0.072   3.890   2.180
 1305SOL    HW1 3934   0.055   3.973   2.126
 1305SOL    HW2 3935   0.162   3.853   2.158
 1306SOL     OW 3936   0.613   4.566   3.293
 1306SOL    HW1 3937   0.669   4.647   3.276
 1306SOL    HW2 3938   0.672   4.486   3.296
 1307SOL     OW 3939   0.716   4.289   3.570
 1307SOL    HW1 3940   0.735   4.354   3.644
 1307SOL    HW2 3941   0.776   4.209   3.579
 1308SOL     OW 3942   1.674   4.607   3.116
 1308SOL    HW1 3943   1.647   4.518   3.079
 1308SOL    HW2 3944   1.675   4.675   3.043
 1309SOL     OW 3945   1.225   4.049   2.311
 1309SOL    HW1 3946   1.290   3.975   2.300
 1309SOL    HW2 3947   1.245   4.099   2.395
 1310SOL     OW 3948   0.594   4.469   2.514
 1310SOL    HW1 3949   0.644   4.554   2.495
 1310SOL    HW2 3950   0.506   4.471   2.466
 1311SOL     OW 3951   1.777   4.066   3.504
 1311SOL    HW1 3952   1.760   4.097   3.410
 1311SOL    HW2 3953   1.693   4.029   3.542
 1312SOL     OW 3954   1.730   4.658   3.379
 1312SOL    HW1 3955   1.768   4.749   3.394
 1312SOL    HW2 3956   1.722   4.641   3.280
 1313SOL     OW 3957   1.083   4.708   1.949
 1313SOL    HW1 3958   1.060   4.761   1.867
 1313SOL    HW2 3959   1.164   4.652   1.930
 1314SOL     OW 3960   1.824   3.916   3.089
 1314SOL    HW1 3961   1.820   3.826   3.133
 1314SOL    HW2 3962   1.827   3.905   2.990
 1315SOL     OW 3963   0.428   4.148   2.382
 1315SOL    HW1 3964   0.458   4.076   2.320
 1315SOL    HW2 3965   0.389   4.108   2.465
 1316SOL     OW 3966   0.317   4.271   3.142
 1316SOL    HW1 3967   0.355   4.212   3.214
 1316SOL    HW2 3968   0.357   4.245   3.054
 1317SOL     OW 3969   1.424   3.938   2.974
 1317SOL    HW1 3970   1.476   3.873   3.029
 1317SOL    HW2 3971   1.375   4.001   3.035
 1318SOL     OW 3972   1.001   3.758   3.016
 1318SOL    HW1 3973   0.938   3.686   2.985
 1318SOL    HW2 3974   1.094   3.722   3.016
 1319SOL     OW 3975   1.352   3.776   2.030
 1319SOL    HW1 3976   1.387   3.735   1.946
 1319SOL    HW2 3977   1.262   3.738   2.050
 1320SOL     OW 3978   1.300   4.177   2.553
 1320SOL    HW1 3979   1.241   4.257   2.557
 1320SOL    HW2 3980   1.315   4.142   2.646
 1321SOL     OW 3981   1.593   3.945   2.744
 1321SOL    HW1 3982   1.509   3.944   2.798
 1321SOL    HW2 3983   1.595   4.028   2.688
 1322SOL     OW 3984   0.230   4.352   3.837
 1322SOL    HW1 3985   0.137   4.350   3.874
 1322SOL    HW2 3986   0.231   4.313   3.745
 1323SOL     OW 3987   0.225   3.999   4.720
 1323SOL    HW1 3988   0.260   3.982   4.812
 1323SOL    HW2 3989   0.137   3.954   4.708
 1324SOL     OW 3990   0.019   4.092   4.371
 1324SOL    HW1 3991  -0.063   4.135   4.410
 1324SOL    HW2 3992  -0.009   4.019   4.308
 1325SOL     OW 3993   1.135   4.427   4.441
 1325SOL    HW1 3994   1.192   4.505   4.416
 1325SOL    HW2 3995   1.075   4.453   4.517
 1326SOL     OW 3996   1.755   4.331   3.955
 1326SOL    HW1 3997   1.743   4.318   3.856
 1326SOL    HW2 3998   1.725   4.250   4.004
 1327SOL     OW 3999   0.685   4.736   4.389
 1327SOL    HW1 4000   0.754   4.720   4.459
 1327SOL    HW2 4001   0.612   4.793   4.427
 1328SOL     OW 4002   1.603   4.171   4.461
 1328SOL    HW1 4003   1.529   4.217   4.411
 1328SOL    HW2 4004   1.654   4.239   4.514
 1329SOL     OW 4005   0.240   4.815   4.610
 1329SOL    HW1 4006   0.254   4.731   4.662
 1329SOL    HW2 4007   0.185   4.879   4.665
 1330SOL     OW 4008   0.122   4.367   4.287
 1330SOL    HW1 4009   0.077   4.279   4.304
 1330SOL    HW2 4010   0.121   4.421   4.371
 1331SOL     OW 4011   0.613   5.089   4.450
 1331SOL    HW1 4012   0.564   5.002   4.459
 1331SOL    HW2 4013   0.590   5.132   4.363
 1332SOL     OW 4014   0.809   3.728   4.226
 1332SOL    HW1 4015   0.849   3.819   4.217
 1332SOL    HW2 4016   0.709   3.736   4.232
 1333SOL     OW 4017   1.525   4.723   3.914
 1333SOL    HW1 4018   1.462   4.647   3.927
 1333SOL    HW2 4019   1.573   4.741   4.000
 1334SOL     OW 4020   0.598   4.453   3.994
 1334SOL    HW1 4021   0.622   4.522   3.926
 1334SOL    HW2 4022   0.520   4.486   4.048
 1335SOL     OW 4023   1.281   4.069   4.668
 1335SOL    HW1 4024   1.195   4.019   4.655
 1335SOL    HW2 4025   1.343   4.015   4.724
 1336SOL     OW 4026   1.041   4.425   4.153
 1336SOL    HW1 4027   1.067   4.421   4.249
 1336SOL    HW2 4028   0.956   4.374   4.139
 1337SOL     OW 4029   0.076   4.535   4.513
 1337SOL    HW1 4030   0.175   4.523   4.522
 1337SOL    HW2 4031   0.052   4.630   4.534
 1338SOL     OW 4032   0.865   4.072   3.919
 1338SOL    HW1 4033   0.924   4.135   3.870
 1338SOL    HW2 4034   0.884   3.978   3.890
 1339SOL     OW 4035   1.458   4.459   4.452
 1339SOL    HW1 4036   1.453   4.394   4.527
 1339SOL    HW2 4037   1.538   4.518   4.465
 1340SOL     OW 4038   1.400   3.831   4.150
 1340SOL    HW1 4039   1.376   3.794   4.060
 1340SOL    HW2 4040   1.499   3.847   4.154
 1341SOL     OW 4041   0.382   4.424   4.204
 1341SOL    HW1 4042   0.427   4.334   4.201
 1341SOL    HW2 4043   0.288   4.413   4.237
 1342SOL     OW 4044   0.614   3.846   3.841
 1342SOL    HW1 4045   0.712   3.824   3.848
 1342SOL    HW2 4046   0.583   3.829   3.748
 1343SOL     OW 4047   0.922   4.227   4.623
 1343SOL    HW1 4048   0.897   4.218   4.527
 1343SOL    HW2 4049   0.970   4.145   4.654
 1344SOL     OW 4050   0.539   3.788   4.236
 1344SOL    HW1 4051   0.458   3.789   4.294
 1344SOL    HW2 4052   0.542   3.871   4.181
 1345SOL     OW 4053   0.297   3.759   3.895
 1345SOL    HW1 4054   0.346   3.843   3.874
 1345SOL    HW2 4055   0.359   3.694   3.940
 1346SOL     OW 4056   0.935   3.960   4.204
 1346SOL    HW1 4057   0.887   4.001   4.126
 1346SOL    HW2 4058   1.034   3.958   4.185
 1347SOL     OW 4059   1.032   4.273   3.740
 1347SOL    HW1 4060   0.991   4.355   3.701
 1347SOL    HW2 4061   1.096   4.299   3.813
 1348SOL     OW 4062   0.866   4.178   4.366
 1348SOL    HW1 4063   0.834   4.250   4.304
 1348SOL    HW2 4064   0.890   4.097   4.313
 1349SOL     OW 4065   1.017   3.763   4.477
 1349SOL    HW1 4066   0.945   3.768   4.408
 1349SOL    HW2 4067   0.993   3.694   4.546
 1350SOL     OW 4068   1.857   4.557   4.101
 1350SOL    HW1 4069   1.899   4.493   4.165
 1350SOL    HW2 4070   1.819   4.506   4.023
 1351SOL     OW 4071   1.390   4.299   3.802
 1351SOL    HW1 4072   1.336   4.278   3.883
 1351SOL    HW2 4073   1.481   4.258   3.811
 1352SOL     OW 4074   0.527   3.980   4.052
 1352SOL    HW1 4075   0.554   3.921   3.977
 1352SOL    HW2 4076   0.527   4.075   4.021
 1353SOL     OW 4077   1.111   4.919   4.824
 1353SOL    HW1 4078   1.071   4.963   4.905
 1353SOL    HW2 4079   1.070   4.956   4.741
 1354SOL     OW 4080   1.638   4.823   4.803
 1354SOL    HW1 4081   1.643   4.904   4.862
 1354SOL    HW2 4082   1.552   4.825   4.752
 1355SOL     OW 4083   0.566   4.261   4.589
 1355SOL    HW1 4084   0.578   4.327   4.515
 1355SOL    HW2 4085   0.612   4.295   4.672
 1356SOL     OW 4086   1.582   4.363   4.196
 1356SOL    HW1 4087   1.551   4.424   4.269
 1356SOL    HW2 4088   1.632   4.415   4.127
 1357SOL     OW 4089   0.573   4.594   4.753
 1357SOL    HW1 4090   0.617   4.683   4.744
 1357SOL    HW2 4091   0.510   4.594   4.830
 1358SOL     OW 4092   1.209   4.249   3.999
 1358SOL    HW1 4093   1.222   4.165   4.053
 1358SOL    HW2 4094   1.180   4.323   4.059
 1359SOL     OW 4095   0.307   3.937   4.955
 1359SOL    HW1 4096   0.284   3.974   5.045
 1359SOL    HW2 4097   0.277   3.842   4.949
 1360SOL     OW 4098   0.732   4.358   4.788
 1360SOL    HW1 4099   0.791   4.332   4.712
 1360SOL    HW2 4100   0.704   4.454   4.777
 1361SOL     OW 4101   0.307   3.787   4.342
 1361SOL    HW1 4102   0.296   3.881   4.375
 1361SOL    HW2 4103   0.302   3.724   4.419
 1362SOL     OW 4104   1.622   4.091   4.098
 1362SOL    HW1 4105   1.624   4.015   4.162
 1362SOL    HW2 4106   1.574   4.168   4.138
 1363SOL     OW 4107   1.540   3.998   3.849
 1363SOL    HW1 4108   1.479   3.923   3.872
 1363SOL    HW2 4109   1.562   4.050   3.932
 1364SOL     OW 4110   1.303   4.562   3.766
 1364SOL    HW1 4111   1.337   4.469   3.781
 1364SOL    HW2 4112   1.321   4.589   3.671
 1365SOL     OW 4113   0.319   4.534   4.673
 1365SOL    HW1 4114   0.412   4.570   4.678
 1365SOL    HW2 4115   0.313   4.449   4.725
 1366SOL     OW 4116   0.815   4.296   4.049
 1366SOL    HW1 4117   0.822   4.207   4.003
 1366SOL    HW2 4118   0.721   4.330   4.041
 1367SOL     OW 4119   0.671   4.188   4.993
 1367SOL    HW1 4120   0.637   4.099   4.963
 1367SOL    HW2 4121   0.697   4.242   4.913
 1368SOL     OW 4122   0.473   4.224   3.915
 1368SOL    HW1 4123   0.534   4.304   3.919
 1368SOL    HW2 4124   0.378   4.255   3.922
 1369SOL     OW 4125   1.302   4.579   4.033
 1369SOL    HW1 4126   1.216   4.548   4.075
 1369SOL    HW2 4127   1.298   4.565   3.934
 1370SOL     OW 4128   1.726   3.859   4.247
 1370SOL    HW1 4129   1.799   3.842   4.180
 1370SOL    HW2 4130   1.695   3.772   4.285
 1371SOL     OW 4131   1.280   4.651   4.396
 1371SOL    HW1 4132   1.340   4.570   4.398
 1371SOL    HW2 4133   1.320   4.720   4.336
 1372SOL     OW 4134   1.841   3.899   4.687
 1372SOL    HW1 4135   1.880   3.814   4.651
 1372SOL    HW2 4136   1.743   3.901   4.668
 1373SOL     OW 4137   0.263   4.050   4.444
 1373SOL    HW1 4138   0.184   4.101   4.410
 1373SOL    HW2 4139   0.254   4.035   4.542
 1374SOL     OW 4140   0.916   4.634   4.015
 1374SOL    HW1 4141   0.979   4.672   3.947
 1374SOL    HW2 4142   0.956   4.551   4.054
 1375SOL     OW 4143   0.075   4.069   3.757
 1375SOL    HW1 4144  -0.017   4.041   3.728
 1375SOL    HW2 4145   0.106   4.146   3.701
 1376SOL     OW 4146   0.072   3.890   4.042
 1376SOL    HW1 4147   0.055   3.973   3.988
 1376SOL    HW2 4148   0.162   3.853   4.020
 1377SOL     OW 4149   1.674   4.607   4.978
 1377SOL    HW1 4150   1.647   4.518   4.941
 1377SOL    HW2 4151   1.675   4.675   4.905
 1378SOL     OW 4152   1.225   4.049   4.173
 1378SOL    HW1 4153   1.290   3.975   4.162
 1378SOL    HW2 4154   1.245   4.099   4.257
 1379SOL     OW 4155   0.594   4.469   4.376
 1379SOL    HW1 4156   0.644   4.554   4.357
 1379SOL    HW2 4157   0.506   4.471   4.328
 1380SOL     OW 4158   1.083   4.708   3.811
 1380SOL    HW1 4159   1.060   4.761   3.729
 1380SOL    HW2 4160   1.164   4.652   3.792
 1381SOL     OW 4161   1.824   3.916   4.951
 1381SOL    HW1 4162   1.820   3.826   4.995
 1381SOL    HW2 4163   1.827   3.905   4.852
 1382SOL     OW 4164   0.428   4.148   4.244
 1382SOL    HW1 4165   0.458   4.076   4.182
 1382SOL    HW2 4166   0.389   4.108   4.327
 1383SOL     OW 4167   1.352   3.776   3.892
 1383SOL    HW1 4168   1.387   3.735   3.808
 1383SOL    HW2 4169   1.262   3.738   3.912
 1384SOL     OW 4170   1.300   4.177   4.415
 1384SOL    HW1 4171   1.241   4.257   4.419
 1384SOL    HW2 4172   1.315   4.142   4.508
 1385SOL     OW 4173   1.593   3.945   4.606
 1385SOL    HW1 4174   1.509   3.944   4.660
 1385SOL    HW2 4175   1.595   4.028   4.550
 1386SOL     OW 4176   2.092   0.628   0.113
 1386SOL    HW1 4177   1.999   0.626   0.150
 1386SOL    HW2 4178   2.093   0.589   0.021
 1387SOL     OW 4179   2.087   0.275   0.996
 1387SOL    HW1 4180   2.122   0.258   1.088
 1387SOL    HW2 4181   1.999   0.230   0.984
 1388SOL     OW 4182   1.881   0.368   0.647
 1388SOL    HW1 4183   1.799   0.411   0.686
 1388SOL    HW2 4184   1.853   0.295   0.584
 1389SOL     OW 4185   2.431   1.275   1.165
 1389SOL    HW1 4186   2.338   1.268   1.128
 1389SOL    HW2 4187   2.442   1.364   1.209
 1390SOL     OW 4188   3.417   1.511   0.703
 1390SOL    HW1 4189   3.360   1.495   0.784
 1390SOL    HW2 4190   3.358   1.521   0.623
 1391SOL     OW 4191   2.997   0.703   0.717
 1391SOL    HW1 4192   3.054   0.781   0.692
 1391SOL    HW2 4193   2.937   0.729   0.793
 1392SOL     OW 4194   3.617   0.607   0.231
 1392SOL    HW1 4195   3.605   0.594   0.132
 1392SOL    HW2 4196   3.587   0.526   0.280
 1393SOL     OW 4197   2.630   1.144   1.023
 1393SOL    HW1 4198   2.552   1.161   1.083
 1393SOL    HW2 4199   2.664   1.231   0.987
 1394SOL     OW 4200   2.712   0.798   1.823
 1394SOL    HW1 4201   2.708   0.874   1.888
 1394SOL    HW2 4202   2.734   0.834   1.732
 1395SOL     OW 4203   2.547   1.012   0.665
 1395SOL    HW1 4204   2.616   0.996   0.735
 1395SOL    HW2 4205   2.474   1.069   0.703
 1396SOL     OW 4206   2.548   1.161   1.803
 1396SOL    HW1 4207   2.608   1.240   1.817
 1396SOL    HW2 4208   2.462   1.192   1.762
 1397SOL     OW 4209   2.197   1.435   1.061
 1397SOL    HW1 4210   2.119   1.404   1.008
 1397SOL    HW2 4211   2.255   1.493   1.004
 1398SOL     OW 4212   3.322   1.505   1.339
 1398SOL    HW1 4213   3.346   1.599   1.365
 1398SOL    HW2 4214   3.306   1.451   1.421
 1399SOL     OW 4215   2.300   0.392   1.499
 1399SOL    HW1 4216   2.382   0.336   1.508
 1399SOL    HW2 4217   2.219   0.334   1.503
 1400SOL     OW 4218   3.465   0.447   0.737
 1400SOL    HW1 4219   3.391   0.493   0.687
 1400SOL    HW2 4220   3.516   0.515   0.790
 1401SOL     OW 4221   2.093   1.713   0.483
 1401SOL    HW1 4222   2.127   1.790   0.537
 1401SOL    HW2 4223   2.137   1.713   0.393
 1402SOL     OW 4224   2.989   1.341   1.690
 1402SOL    HW1 4225   3.036   1.341   1.778
 1402SOL    HW2 4226   2.941   1.254   1.679
 1403SOL     OW 4227   2.092   1.434   0.538
 1403SOL    HW1 4228   2.066   1.530   0.538
 1403SOL    HW2 4229   2.021   1.380   0.583
 1404SOL     OW 4230   2.102   1.091   0.886
 1404SOL    HW1 4231   2.116   1.007   0.938
 1404SOL    HW2 4232   2.047   1.155   0.941
 1405SOL     OW 4233   2.482   1.786   1.439
 1405SOL    HW1 4234   2.390   1.769   1.474
 1405SOL    HW2 4235   2.510   1.878   1.465
 1406SOL     OW 4236   2.468   0.964   0.123
 1406SOL    HW1 4237   2.475   1.048   0.069
 1406SOL    HW2 4238   2.514   0.977   0.211
 1407SOL     OW 4239   3.456   0.114   1.480
 1407SOL    HW1 4240   3.438   0.181   1.408
 1407SOL    HW2 4241   3.453   0.160   1.569
 1408SOL     OW 4242   1.984   0.643   0.563
 1408SOL    HW1 4243   1.939   0.555   0.580
 1408SOL    HW2 4244   1.983   0.697   0.647
 1409SOL     OW 4245   3.704   1.767   0.359
 1409SOL    HW1 4246   3.758   1.738   0.439
 1409SOL    HW2 4247   3.734   1.857   0.330
 1410SOL     OW 4248   1.889   1.596   0.117
 1410SOL    HW1 4249   1.870   1.500   0.138
 1410SOL    HW2 4250   1.856   1.654   0.192
 1411SOL     OW 4251   3.551   0.922   0.612
 1411SOL    HW1 4252   3.646   0.893   0.620
 1411SOL    HW2 4253   3.543   0.987   0.537
 1412SOL     OW 4254   3.503   1.108   0.432
 1412SOL    HW1 4255   3.589   1.110   0.380
 1412SOL    HW2 4256   3.517   1.155   0.520
 1413SOL     OW 4257   1.975   0.737   1.597
 1413SOL    HW1 4258   2.063   0.724   1.642
 1413SOL    HW2 4259   1.962   0.834   1.575
 1414SOL     OW 4260   2.475   1.365   0.726
 1414SOL    HW1 4261   2.426   1.278   0.735
 1414SOL    HW2 4262   2.452   1.408   0.639
 1415SOL     OW 4263   3.155   1.228   1.423
 1415SOL    HW1 4264   3.192   1.155   1.365
 1415SOL    HW2 4265   3.207   1.233   1.508
 1416SOL     OW 4266   2.671   0.004   0.502
 1416SOL    HW1 4267   2.711   0.095   0.493
 1416SOL    HW2 4268   2.571   0.012   0.508
 1417SOL     OW 4269   2.059   0.976   1.264
 1417SOL    HW1 4270   2.148   0.931   1.250
 1417SOL    HW2 4271   1.986   0.911   1.245
 1418SOL     OW 4272   3.387   0.999   0.190
 1418SOL    HW1 4273   3.324   0.923   0.203
 1418SOL    HW2 4274   3.435   1.017   0.276
 1419SOL     OW 4275   3.049   1.792   1.616
 1419SOL    HW1 4276   3.073   1.852   1.540
 1419SOL    HW2 4277   3.056   1.697   1.586
 1420SOL     OW 4278   2.179   0.251   1.801
 1420SOL    HW1 4279   2.250   0.322   1.807
 1420SOL    HW2 4280   2.091   0.290   1.829
 1421SOL     OW 4281   3.328   1.417   0.953
 1421SOL    HW1 4282   3.269   1.423   1.033
 1421SOL    HW2 4283   3.313   1.329   0.907
 1422SOL     OW 4284   3.529   1.714   0.572
 1422SOL    HW1 4285   3.488   1.691   0.484
 1422SOL    HW2 4286   3.511   1.640   0.637
 1423SOL     OW 4287   2.460   0.729   0.270
 1423SOL    HW1 4288   2.484   0.798   0.202
 1423SOL    HW2 4289   2.382   0.762   0.324
 1424SOL     OW 4290   3.143   0.345   0.944
 1424SOL    HW1 4291   3.057   0.295   0.931
 1424SOL    HW2 4292   3.205   0.291   1.000
 1425SOL     OW 4293   3.438   1.662   0.307
 1425SOL    HW1 4294   3.527   1.708   0.310
 1425SOL    HW2 4295   3.417   1.638   0.212
 1426SOL     OW 4296   2.669   0.605   1.465
 1426SOL    HW1 4297   2.622   0.602   1.554
 1426SOL    HW2 4298   2.618   0.550   1.399
 1427SOL     OW 4299   3.256   0.469   1.674
 1427SOL    HW1 4300   3.236   0.512   1.762
 1427SOL    HW2 4301   3.334   0.407   1.683
 1428SOL     OW 4302   2.835   0.890   1.572
 1428SOL    HW1 4303   2.881   0.806   1.543
 1428SOL    HW2 4304   2.779   0.924   1.497
 1429SOL     OW 4305   2.853   0.410   1.242
 1429SOL    HW1 4306   2.776   0.444   1.296
 1429SOL    HW2 4307   2.819   0.359   1.163
 1430SOL     OW 4308   2.903   0.701   0.429
 1430SOL    HW1 4309   2.929   0.697   0.525
 1430SOL    HW2 4310   2.818   0.650   0.415
 1431SOL     OW 4311   1.938   0.811   0.789
 1431SOL    HW1 4312   2.037   0.799   0.798
 1431SOL    HW2 4313   1.914   0.906   0.810
 1432SOL     OW 4314   1.992   1.821   1.571
 1432SOL    HW1 4315   1.982   1.806   1.670
 1432SOL    HW2 4316   1.906   1.857   1.535
 1433SOL     OW 4317   2.727   0.348   0.195
 1433SOL    HW1 4318   2.786   0.411   0.146
 1433SOL    HW2 4319   2.746   0.254   0.166
 1434SOL     OW 4320   3.581   0.585   1.831
 1434SOL    HW1 4321   3.555   0.674   1.795
 1434SOL    HW2 4322   3.579   0.517   1.758
 1435SOL     OW 4323   3.224   1.144   0.545
 1435SOL    HW1 4324   3.307   1.115   0.497
 1435SOL    HW2 4325   3.175   1.211   0.489
 1436SOL     OW 4326   2.412   0.196   0.885
 1436SOL    HW1 4327   2.407   0.191   0.985
 1436SOL    HW2 4328   2.414   0.292   0.856
 1437SOL     OW 4329   2.870   1.456   0.477
 1437SOL    HW1 4330   2.824   1.528   0.425
 1437SOL    HW2 4331   2.866   1.476   0.575
 1438SOL     OW 4332   2.213   1.801   0.853
 1438SOL    HW1 4333   2.263   1.715   0.859
 1438SOL    HW2 4334   2.278   1.878   0.850
 1439SOL     OW 4335   3.657   1.066   0.873
 1439SOL    HW1 4336   3.595   1.051   0.797
 1439SOL    HW2 4337   3.605   1.077   0.958
 1440SOL     OW 4338   3.089   1.550   1.506
 1440SOL    HW1 4339   3.095   1.473   1.570
 1440SOL    HW2 4340   3.037   1.524   1.426
 1441SOL     OW 4341   2.183   0.943   0.242
 1441SOL    HW1 4342   2.265   0.982   0.200
 1441SOL    HW2 4343   2.156   0.861   0.193
 1442SOL     OW 4344   3.320   0.735   0.728
 1442SOL    HW1 4345   3.315   0.670   0.803
 1442SOL    HW2 4346   3.400   0.794   0.741
 1443SOL     OW 4347   2.323   1.266   1.727
 1443SOL    HW1 4348   2.273   1.267   1.641
 1443SOL    HW2 4349   2.260   1.248   1.803
 1444SOL     OW 4350   2.973   1.776   0.237
 1444SOL    HW1 4351   2.913   1.714   0.287
 1444SOL    HW2 4352   3.004   1.732   0.152
 1445SOL     OW 4353   2.064   0.285   1.498
 1445SOL    HW1 4354   1.984   0.345   1.485
 1445SOL    HW2 4355   2.054   0.236   1.584
 1446SOL     OW 4356   3.494   1.377   0.081
 1446SOL    HW1 4357   3.462   1.471   0.071
 1446SOL    HW2 4358   3.418   1.314   0.069
 1447SOL     OW 4359   2.326   1.743   0.323
 1447SOL    HW1 4360   2.359   1.782   0.409
 1447SOL    HW2 4361   2.402   1.736   0.258
 1448SOL     OW 4362   3.262   0.107   0.426
 1448SOL    HW1 4363   3.238   0.070   0.336
 1448SOL    HW2 4364   3.361   0.123   0.430
 1449SOL     OW 4365   2.111   1.785   1.241
 1449SOL    HW1 4366   2.168   1.720   1.291
 1449SOL    HW2 4367   2.095   1.752   1.148
 1450SOL     OW 4368   2.802   1.698   0.904
 1450SOL    HW1 4369   2.882   1.641   0.925
 1450SOL    HW2 4370   2.753   1.658   0.827
 1451SOL     OW 4371   2.244   0.700   0.480
 1451SOL    HW1 4372   2.289   0.610   0.477
 1451SOL    HW2 4373   2.150   0.689   0.513
 1452SOL     OW 4374   3.409   0.222   1.729
 1452SOL    HW1 4375   3.404   0.259   1.821
 1452SOL    HW2 4376   3.337   0.153   1.717
 1453SOL     OW 4377   2.476   0.122   0.117
 1453SOL    HW1 4378   2.574   0.100   0.124
 1453SOL    HW2 4379   2.445   0.105   0.024
 1454SOL     OW 4380   2.643   0.264   1.749
 1454SOL    HW1 4381   2.710   0.203   1.792
 1454SOL    HW2 4382   2.570   0.283   1.814
 1455SOL     OW 4383   2.750   1.514   1.195
 1455SOL    HW1 4384   2.727   1.489   1.101
 1455SOL    HW2 4385   2.811   1.445   1.234
 1456SOL     OW 4386   3.213   0.590   1.433
 1456SOL    HW1 4387   3.241   0.547   1.518
 1456SOL    HW2 4388   3.238   0.686   1.434
 1457SOL     OW 4389   2.665   1.402   0.924
 1457SOL    HW1 4390   2.755   1.416   0.882
 1457SOL    HW2 4391   2.594   1.404   0.853
 1458SOL     OW 4392   2.784   0.503   0.899
 1458SOL    HW1 4393   2.759   0.494   0.803
 1458SOL    HW2 4394   2.832   0.421   0.930
 1459SOL     OW 4395   2.401   0.064   0.512
 1459SOL    HW1 4396   2.320   0.065   0.570
 1459SOL    HW2 4397   2.404   0.147   0.457
 1460SOL     OW 4398   3.296   1.188   0.041
 1460SOL    HW1 4399   3.328   1.112   0.098
 1460SOL    HW2 4400   3.204   1.215   0.071
 1461SOL     OW 4401   2.159   0.035   0.171
 1461SOL    HW1 4402   2.208   0.119   0.150
 1461SOL    HW2 4403   2.221  -0.030   0.216
 1462SOL     OW 4404   2.797   0.236   0.480
 1462SOL    HW1 4405   2.749   0.277   0.402
 1462SOL    HW2 4406   2.896   0.234   0.461
 1463SOL     OW 4407   2.938   0.683   1.464
 1463SOL    HW1 4408   2.858   0.622   1.467
 1463SOL    HW2 4409   3.019   0.630   1.440
 1464SOL     OW 4410   3.089   1.570   0.793
 1464SOL    HW1 4411   3.110   1.644   0.728
 1464SOL    HW2 4412   3.157   1.570   0.866
 1465SOL     OW 4413   2.321   1.152   0.741
 1465SOL    HW1 4414   2.250   1.125   0.806
 1465SOL    HW2 4415   2.295   1.124   0.648
 1466SOL     OW 4416   3.133   1.797   0.591
 1466SOL    HW1 4417   3.177   1.861   0.527
 1466SOL    HW2 4418   3.083   1.849   0.661
 1467SOL     OW 4419   2.894   0.549   0.016
 1467SOL    HW1 4420   2.853   0.631  -0.023
 1467SOL    HW2 4421   2.958   0.575   0.089
 1468SOL     OW 4422   1.940   0.556   1.386
 1468SOL    HW1 4423   2.032   0.555   1.345
 1468SOL    HW2 4424   1.934   0.630   1.453
 1469SOL     OW 4425   2.423   0.222   1.147
 1469SOL    HW1 4426   2.461   0.138   1.184
 1469SOL    HW2 4427   2.335   0.241   1.191
 1470SOL     OW 4428   2.728   0.454   0.642
 1470SOL    HW1 4429   2.696   0.526   0.580
 1470SOL    HW2 4430   2.752   0.373   0.589
 1471SOL     OW 4431   2.879   0.039   0.753
 1471SOL    HW1 4432   2.807   0.044   0.684
 1471SOL    HW2 4433   2.855  -0.030   0.822
 1472SOL     OW 4434   3.291   1.173   0.867
 1472SOL    HW1 4435   3.236   1.089   0.860
 1472SOL    HW2 4436   3.317   1.202   0.775
 1473SOL     OW 4437   3.328   0.590   0.992
 1473SOL    HW1 4438   3.298   0.495   0.999
 1473SOL    HW2 4439   3.401   0.606   1.058
 1474SOL     OW 4440   3.719   0.833   0.377
 1474SOL    HW1 4441   3.761   0.769   0.441
 1474SOL    HW2 4442   3.681   0.782   0.299
 1475SOL     OW 4443   2.350   1.385   0.174
 1475SOL    HW1 4444   2.263   1.370   0.221
 1475SOL    HW2 4445   2.333   1.411   0.079
 1476SOL     OW 4446   3.526   1.280   0.657
 1476SOL    HW1 4447   3.625   1.288   0.671
 1476SOL    HW2 4448   3.481   1.364   0.688
 1477SOL     OW 4449   3.252   0.575   0.078
 1477SOL    HW1 4450   3.198   0.554   0.159
 1477SOL    HW2 4451   3.343   0.534   0.087
 1478SOL     OW 4452   2.389   0.256   0.328
 1478SOL    HW1 4453   2.416   0.197   0.253
 1478SOL    HW2 4454   2.389   0.351   0.297
 1479SOL     OW 4455   3.616   1.223   1.588
 1479SOL    HW1 4456   3.707   1.184   1.575
 1479SOL    HW2 4457   3.624   1.319   1.612
 1480SOL     OW 4458   2.926   1.347   1.340
 1480SOL    HW1 4459   2.846   1.324   1.395
 1480SOL    HW2 4460   3.009   1.321   1.389
 1481SOL     OW 4461   3.454   1.629   1.625
 1481SOL    HW1 4462   3.481   1.663   1.535
 1481SOL    HW2 4463   3.533   1.591   1.671
 1482SOL     OW 4464   2.973   1.195   1.100
 1482SOL    HW1 4465   2.933   1.239   1.181
 1482SOL    HW2 4466   2.932   1.232   1.017
 1483SOL     OW 4467   3.500   1.099   1.079
 1483SOL    HW1 4468   3.505   1.180   1.138
 1483SOL    HW2 4469   3.414   1.101   1.028
 1484SOL     OW 4470   2.777   0.089   1.402
 1484SOL    HW1 4471   2.802   0.069   1.307
 1484SOL    HW2 4472   2.849   0.145   1.444
 1485SOL     OW 4473   2.842   1.116   1.719
 1485SOL    HW1 4474   2.743   1.122   1.729
 1485SOL    HW2 4475   2.865   1.036   1.663
 1486SOL     OW 4476   2.567   1.050   0.368
 1486SOL    HW1 4477   2.553   1.057   0.467
 1486SOL    HW2 4478   2.651   0.999   0.350
 1487SOL     OW 4479   2.272   0.813   1.251
 1487SOL    HW1 4480   2.358   0.825   1.301
 1487SOL    HW2 4481   2.230   0.726   1.278
 1488SOL     OW 4482   3.136   0.386   1.262
 1488SOL    HW1 4483   3.157   0.460   1.326
 1488SOL    HW2 4484   3.047   0.403   1.219
 1489SOL     OW 4485   1.926   1.564   1.331
 1489SOL    HW1 4486   1.880   1.646   1.297
 1489SOL    HW2 4487   2.024   1.583   1.340
 1490SOL     OW 4488   2.229   1.100   0.501
 1490SOL    HW1 4489   2.222   1.183   0.445
 1490SOL    HW2 4490   2.233   1.020   0.441
 1491SOL     OW 4491   2.428   0.537   0.865
 1491SOL    HW1 4492   2.440   0.603   0.791
 1491SOL    HW2 4493   2.474   0.571   0.948
 1492SOL     OW 4494   3.114   1.348   0.388
 1492SOL    HW1 4495   3.164   1.425   0.428
 1492SOL    HW2 4496   3.019   1.350   0.420
 1493SOL     OW 4497   3.134   1.445   1.142
 1493SOL    HW1 4498   3.181   1.458   1.229
 1493SOL    HW2 4499   3.068   1.371   1.151
 1494SOL     OW 4500   3.444   0.639   0.472
 1494SOL    HW1 4501   3.413   0.700   0.545
 1494SOL    HW2 4502   3.494   0.691   0.403
 1495SOL     OW 4503   2.216   1.510   1.329
 1495SOL    HW1 4504   2.195   1.466   1.242
 1495SOL    HW2 4505   2.313   1.536   1.332
 1496SOL     OW 4506   2.264   0.751   1.598
 1496SOL    HW1 4507   2.332   0.806   1.551
 1496SOL    HW2 4508   2.304   0.663   1.625
 1497SOL     OW 4509   3.449   0.779   1.670
 1497SOL    HW1 4510   3.357   0.817   1.665
 1497SOL    HW2 4511   3.509   0.826   1.605
 1498SOL     OW 4512   2.875   0.105   1.770
 1498SOL    HW1 4513   2.881   0.190   1.718
 1498SOL    HW2 4514   2.907   0.029   1.713
 1499SOL     OW 4515   2.366   0.050   1.740
 1499SOL    HW1 4516   2.324  -0.007   1.670
 1499SOL    HW2 4517   2.300   0.119   1.772
 1500SOL     OW 4518   2.435   0.870   1.029
 1500SOL    HW1 4519   2.479   0.959   1.020
 1500SOL    HW2 4520   2.372   0.870   1.106
 1501SOL     OW 4521   3.222   0.862   1.045
 1501SOL    HW1 4522   3.147   0.862   0.979
 1501SOL    HW2 4523   3.259   0.770   1.054
 1502SOL     OW 4524   3.071   0.525   0.275
 1502SOL    HW1 4525   3.084   0.441   0.329
 1502SOL    HW2 4526   3.042   0.599   0.335
 1503SOL     OW 4527   2.169   0.213   1.231
 1503SOL    HW1 4528   2.146   0.250   1.321
 1503SOL    HW2 4529   2.139   0.118   1.225
 1504SOL     OW 4530   1.899   1.310   1.282
 1504SOL    HW1 4531   1.952   1.261   1.350
 1504SOL    HW2 4532   1.921   1.408   1.287
 1505SOL     OW 4533   2.594   0.634   1.064
 1505SOL    HW1 4534   2.653   0.608   0.988
 1505SOL    HW2 4535   2.566   0.730   1.053
 1506SOL     OW 4536   3.590   0.935   1.854
 1506SOL    HW1 4537   3.544   0.928   1.765
 1506SOL    HW2 4538   3.528   0.979   1.920
 1507SOL     OW 4539   2.169   0.063   0.618
 1507SOL    HW1 4540   2.158   0.157   0.651
 1507SOL    HW2 4541   2.164   0.000   0.695
 1508SOL     OW 4542   3.484   0.367   0.374
 1508SOL    HW1 4543   3.486   0.291   0.438
 1508SOL    HW2 4544   3.436   0.444   0.414
 1509SOL     OW 4545   2.885   0.766   0.966
 1509SOL    HW1 4546   2.900   0.787   1.062
 1509SOL    HW2 4547   2.855   0.671   0.957
 1510SOL     OW 4548   2.842   1.573   1.700
 1510SOL    HW1 4549   2.822   1.617   1.612
 1510SOL    HW2 4550   2.881   1.482   1.684
 1511SOL     OW 4551   3.721   1.518   1.605
 1511SOL    HW1 4552   3.735   1.545   1.510
 1511SOL    HW2 4553   3.804   1.540   1.658
 1512SOL     OW 4554   2.212   0.898   1.804
 1512SOL    HW1 4555   2.288   0.942   1.852
 1512SOL    HW2 4556   2.247   0.851   1.722
 1513SOL     OW 4557   3.402   0.274   0.125
 1513SOL    HW1 4558   3.341   0.199   0.148
 1513SOL    HW2 4559   3.424   0.326   0.208
 1514SOL     OW 4560   3.165   0.838   0.042
 1514SOL    HW1 4561   3.199   0.745   0.057
 1514SOL    HW2 4562   3.183   0.865  -0.053
 1515SOL     OW 4563   2.930   1.333   0.849
 1515SOL    HW1 4564   2.937   1.249   0.794
 1515SOL    HW2 4565   2.992   1.402   0.813
 1516SOL     OW 4566   2.181   0.810   0.949
 1516SOL    HW1 4567   2.274   0.846   0.954
 1516SOL    HW2 4568   2.175   0.725   1.001
 1517SOL     OW 4569   2.201   0.509   1.006
 1517SOL    HW1 4570   2.149   0.426   0.989
 1517SOL    HW2 4571   2.278   0.514   0.942
 1518SOL     OW 4572   3.000   0.380   1.678
 1518SOL    HW1 4573   2.955   0.443   1.742
 1518SOL    HW2 4574   3.093   0.411   1.661
 1519SOL     OW 4575   3.022   0.207   1.477
 1519SOL    HW1 4576   3.022   0.271   1.554
 1519SOL    HW2 4577   3.050   0.255   1.394
 1520SOL     OW 4578   1.870   1.326   0.200
 1520SOL    HW1 4579   1.777   1.347   0.169
 1520SOL    HW2 4580   1.880   1.227   0.213
 1521SOL     OW 4581   1.950   1.801   0.927
 1521SOL    HW1 4582   1.908   1.715   0.900
 1521SOL    HW2 4583   2.044   1.804   0.893
 1522SOL     OW 4584   2.366   1.568   0.910
 1522SOL    HW1 4585   2.432   1.642   0.919
 1522SOL    HW2 4586   2.410   1.489   0.868
 1523SOL     OW 4587   2.864   0.796   1.238
 1523SOL    HW1 4588   2.905   0.764   1.324
 1523SOL    HW2 4589   2.768   0.769   1.235
 1524SOL     OW 4590   1.902   0.544   1.114
 1524SOL    HW1 4591   1.987   0.511   1.073
 1524SOL    HW2 4592   1.915   0.559   1.212
 1525SOL     OW 4593   2.051   0.520   1.722
 1525SOL    HW1 4594   2.110   0.480   1.652
 1525SOL    HW2 4595   1.993   0.591   1.681
 1526SOL     OW 4596   3.231   0.950   1.660
 1526SOL    HW1 4597   3.270   1.039   1.680
 1526SOL    HW2 4598   3.241   0.930   1.563
 1527SOL     OW 4599   2.677   0.572   0.325
 1527SOL    HW1 4600   2.684   0.483   0.279
 1527SOL    HW2 4601   2.583   0.606   0.317
 1528SOL     OW 4602   3.519   0.604   1.206
 1528SOL    HW1 4603   3.481   0.535   1.268
 1528SOL    HW2 4604   3.601   0.568   1.162
 1529SOL     OW 4605   2.114   1.564   1.744
 1529SOL    HW1 4606   2.084   1.621   1.820
 1529SOL    HW2 4607   2.107   1.467   1.770
 1530SOL     OW 4608   2.533   0.464   1.269
 1530SOL    HW1 4609   2.499   0.375   1.239
 1530SOL    HW2 4610   2.559   0.518   1.189
 1531SOL     OW 4611   2.792   1.678   1.465
 1531SOL    HW1 4612   2.768   1.660   1.370
 1531SOL    HW2 4613   2.822   1.772   1.475
 1532SOL     OW 4614   2.335   0.500   0.191
 1532SOL    HW1 4615   2.396   0.580   0.195
 1532SOL    HW2 4616   2.240   0.531   0.198
 1533SOL     OW 4617   2.021   1.137   1.466
 1533SOL    HW1 4618   2.043   1.076   1.542
 1533SOL    HW2 4619   2.031   1.088   1.380
 1534SOL     OW 4620   3.209   1.059   1.234
 1534SOL    HW1 4621   3.233   0.996   1.160
 1534SOL    HW2 4622   3.119   1.099   1.216
 1535SOL     OW 4623   3.164   0.855   0.309
 1535SOL    HW1 4624   3.078   0.824   0.351
 1535SOL    HW2 4625   3.160   0.841   0.210
 1536SOL     OW 4626   3.621   1.747   1.154
 1536SOL    HW1 4627   3.682   1.777   1.081
 1536SOL    HW2 4628   3.583   1.658   1.132
 1537SOL     OW 4629   3.114   1.731   1.128
 1537SOL    HW1 4630   3.198   1.736   1.074
 1537SOL    HW2 4631   3.091   1.635   1.146
 1538SOL     OW 4632   1.945   1.258   1.022
 1538SOL    HW1 4633   1.940   1.257   1.122
 1538SOL    HW2 4634   1.862   1.217   0.984
 1539SOL     OW 4635   2.550   1.662   1.716
 1539SOL    HW1 4636   2.494   1.743   1.725
 1539SOL    HW2 4637   2.602   1.666   1.630
 1540SOL     OW 4638   2.765   0.086   0.133
 1540SOL    HW1 4639   2.816   0.087   0.047
 1540SOL    HW2 4640   2.821   0.044   0.204
 1541SOL     OW 4641   3.588   0.135   0.523
 1541SOL    HW1 4642   3.661   0.118   0.456
 1541SOL    HW2 4643   3.557   0.048   0.561
 1542SOL     OW 4644   3.250   1.573   0.477
 1542SOL    HW1 4645   3.317   1.585   0.403
 1542SOL    HW2 4646   3.210   1.662   0.500
 1543SOL     OW 4647   1.992   1.794   1.851
 1543SOL    HW1 4648   1.951   1.720   1.904
 1543SOL    HW2 4649   2.056   1.845   1.909
 1544SOL     OW 4650   3.142   0.927   0.672
 1544SOL    HW1 4651   3.202   0.846   0.674
 1544SOL    HW2 4652   3.182   0.996   0.612
 1545SOL     OW 4653   2.692   1.273   1.422
 1545SOL    HW1 4654   2.687   1.306   1.517
 1545SOL    HW2 4655   2.606   1.292   1.376
 1546SOL     OW 4656   2.534   1.616   0.154
 1546SOL    HW1 4657   2.543   1.626   0.055
 1546SOL    HW2 4658   2.494   1.527   0.175
 1547SOL     OW 4659   3.512   1.720   1.394
 1547SOL    HW1 4660   3.565   1.730   1.310
 1547SOL    HW2 4661   3.485   1.810   1.428
 1548SOL     OW 4662   3.703   0.175   0.963
 1548SOL    HW1 4663   3.742   0.090   0.927
 1548SOL    HW2 4664   3.605   0.177   0.944
 1549SOL     OW 4665   2.125   0.326   0.720
 1549SOL    HW1 4666   2.046   0.377   0.686
 1549SOL    HW2 4667   2.116   0.311   0.818
 1550SOL     OW 4668   3.056   1.612   0.031
 1550SOL    HW1 4669   3.062   1.519   0.068
 1550SOL    HW2 4670   2.997   1.612  -0.049
 1551SOL     OW 4671   2.684   1.002   1.372
 1551SOL    HW1 4672   2.724   1.001   1.280
 1551SOL    HW2 4673   2.694   1.094   1.412
 1552SOL     OW 4674   2.778   0.910   0.291
 1552SOL    HW1 4675   2.841   0.948   0.223
 1552SOL    HW2 4676   2.818   0.827   0.330
 1553SOL     OW 4677   3.366   1.607   0.044
 1553SOL    HW1 4678   3.274   1.644   0.051
 1553SOL    HW2 4679   3.404   1.627  -0.046
 1554SOL     OW 4680   2.234   1.288   1.490
 1554SOL    HW1 4681   2.221   1.381   1.456
 1554SOL    HW2 4682   2.150   1.236   1.477
 1555SOL     OW 4683   3.476   1.292   1.289
 1555SOL    HW1 4684   3.536   1.295   1.369
 1555SOL    HW2 4685   3.401   1.356   1.302
 1556SOL     OW 4686   2.901   1.098   0.696
 1556SOL    HW1 4687   2.831   1.051   0.750
 1556SOL    HW2 4688   2.960   1.030   0.653
 1557SOL     OW 4689   2.876   0.236   0.971
 1557SOL    HW1 4690   2.868   0.200   0.878
 1557SOL    HW2 4691   2.874   0.160   1.036
 1558SOL     OW 4692   2.452   1.487   0.491
 1558SOL    HW1 4693   2.494   1.429   0.421
 1558SOL    HW2 4694   2.408   1.566   0.447
 1559SOL     OW 4695   3.571   0.385   1.381
 1559SOL    HW1 4696   3.644   0.454   1.385
 1559SOL    HW2 4697   3.599   0.310   1.322
 1560SOL     OW 4698   2.117   1.348   0.290
 1560SOL    HW1 4699   2.021   1.349   0.263
 1560SOL    HW2 4700   2.129   1.401   0.374
 1561SOL     OW 4701   1.967   1.013   1.726
 1561SOL    HW1 4702   1.890   0.980   1.780
 1561SOL    HW2 4703   2.052   0.983   1.768
 1562SOL     OW 4704   2.534   0.203   1.489
 1562SOL    HW1 4705   2.624   0.187   1.449
 1562SOL    HW2 4706   2.542   0.208   1.588
 1563SOL     OW 4707   1.937   0.345   0.033
 1563SOL    HW1 4708   1.845   0.317   0.004
 1563SOL    HW2 4709   1.968   0.422  -0.023
 1564SOL     OW 4710   3.302   0.856   1.398
 1564SOL    HW1 4711   3.245   0.908   1.335
 1564SOL    HW2 4712   3.398   0.868   1.374
 1565SOL     OW 4713   3.045   1.335   0.119
 1565SOL    HW1 4714   2.946   1.324   0.121
 1565SOL    HW2 4715   3.079   1.350   0.212
 1566SOL     OW 4716   2.475   0.842   1.431
 1566SOL    HW1 4717   2.531   0.923   1.414
 1566SOL    HW2 4718   2.534   0.762   1.434
 1567SOL     OW 4719   3.355   1.767   0.959
 1567SOL    HW1 4720   3.388   1.831   0.890
 1567SOL    HW2 4721   3.421   1.761   1.034
 1568SOL     OW 4722   2.578   0.565   1.708
 1568SOL    HW1 4723   2.597   0.630   1.782
 1568SOL    HW2 4724   2.638   0.485   1.717
 1569SOL     OW 4725   3.312   1.220   1.633
 1569SOL    HW1 4726   3.303   1.210   1.732
 1569SOL    HW2 4727   3.408   1.213   1.607
 1570SOL     OW 4728   2.252   1.741   1.560
 1570SOL    HW1 4729   2.161   1.782   1.558
 1570SOL    HW2 4730   2.245   1.647   1.592
 1571SOL     OW 4731   3.536   0.883   1.254
 1571SOL    HW1 4732   3.509   0.794   1.217
 1571SOL    HW2 4733   3.537   0.951   1.181
 1572SOL     OW 4734   3.087   0.325   0.449
 1572SOL    HW1 4735   3.152   0.251   0.438
 1572SOL    HW2 4736   3.107   0.375   0.533
 1573SOL     OW 4737   2.456   0.745   0.652
 1573SOL    HW1 4738   2.506   0.830   0.633
 1573SOL    HW2 4739   2.368   0.747   0.604
 1574SOL     OW 4740   3.639   0.342   1.642
 1574SOL    HW1 4741   3.622   0.373   1.548
 1574SOL    HW2 4742   3.555   0.305   1.680
 1575SOL     OW 4743   3.592   0.934   1.517
 1575SOL    HW1 4744   3.630   1.025   1.532
 1575SOL    HW2 4745   3.584   0.917   1.418
 1576SOL     OW 4746   2.721   1.374   0.016
 1576SOL    HW1 4747   2.675   1.389   0.104
 1576SOL    HW2 4748   2.765   1.459  -0.014
 1577SOL     OW 4749   2.523   1.790   0.953
 1577SOL    HW1 4750   2.477   1.878   0.940
 1577SOL    HW2 4751   2.622   1.802   0.946
 1578SOL     OW 4752   2.721   0.956   0.861
 1578SOL    HW1 4753   2.775   0.887   0.909
 1578SOL    HW2 4754   2.689   1.025   0.927
 1579SOL     OW 4755   2.945   0.984   0.087
 1579SOL    HW1 4756   2.922   1.037   0.005
 1579SOL    HW2 4757   3.026   0.928   0.068
 1580SOL     OW 4758   3.723   1.569   0.851
 1580SOL    HW1 4759   3.652   1.557   0.781
 1580SOL    HW2 4760   3.724   1.490   0.911
 1581SOL     OW 4761   2.083   1.314   1.844
 1581SOL    HW1 4762   2.018   1.241   1.823
 1581SOL    HW2 4763   2.087   1.328   1.942
 1582SOL     OW 4764   1.941   1.240   0.653
 1582SOL    HW1 4765   1.940   1.193   0.741
 1582SOL    HW2 4766   2.023   1.212   0.602
 1583SOL     OW 4767   2.534   1.391   1.624
 1583SOL    HW1 4768   2.456   1.341   1.662
 1583SOL    HW2 4769   2.531   1.486   1.655
 1584SOL     OW 4770   3.686   0.192   1.227
 1584SOL    HW1 4771   3.682   0.102   1.271
 1584SOL    HW2 4772   3.689   0.181   1.128
 1585SOL     OW 4773   2.290   0.424   0.520
 1585SOL    HW1 4774   2.320   0.352   0.458
 1585SOL    HW2 4775   2.251   0.384   0.603
 1586SOL     OW 4776   3.567   1.487   1.104
 1586SOL    HW1 4777   3.474   1.462   1.077
 1586SOL    HW2 4778   3.593   1.437   1.186
 1587SOL     OW 4779   2.179   0.547   1.280
 1587SOL    HW1 4780   2.217   0.488   1.352
 1587SOL    HW2 4781   2.219   0.521   1.192
 1588SOL     OW 4782   2.674   1.586   0.687
 1588SOL    HW1 4783   2.706   1.596   0.593
 1588SOL    HW2 4784   2.595   1.524   0.689
 1589SOL     OW 4785   3.286   0.214   1.112
 1589SOL    HW1 4786   3.338   0.149   1.167
 1589SOL    HW2 4787   3.237   0.277   1.173
 1590SOL     OW 4788   2.863   0.034   1.154
 1590SOL    HW1 4789   2.800  -0.038   1.123
 1590SOL    HW2 4790   2.956  -0.002   1.154
 1591SOL     OW 4791   2.632   1.330   0.301
 1591SOL    HW1 4792   2.586   1.243   0.318
 1591SOL    HW2 4793   2.723   1.327   0.342
 1592SOL     OW 4794   2.480   1.567   1.284
 1592SOL    HW1 4795   2.475   1.649   1.341
 1592SOL    HW2 4796   2.569   1.564   1.239
 1593SOL     OW 4797   3.214   0.052   0.168
 1593SOL    HW1 4798   3.249   0.011   0.084
 1593SOL    HW2 4799   3.124   0.014   0.188
 1594SOL     OW 4800   3.162   0.453   0.691
 1594SOL    HW1 4801   3.103   0.533   0.695
 1594SOL    HW2 4802   3.177   0.418   0.784
 1595SOL     OW 4803   3.455   0.221   0.882
 1595SOL    HW1 4804   3.371   0.220   0.936
 1595SOL    HW2 4805   3.457   0.304   0.826
 1596SOL     OW 4806   1.901   1.077   0.300
 1596SOL    HW1 4807   2.000   1.066   0.291
 1596SOL    HW2 4808   1.861   0.991   0.332
 1597SOL     OW 4809   2.737   1.646   0.337
 1597SOL    HW1 4810   2.660   1.611   0.283
 1597SOL    HW2 4811   2.705   1.717   0.399
 1598SOL     OW 4812   2.092   0.628   1.975
 1598SOL    HW1 4813   1.999   0.626   2.012
 1598SOL    HW2 4814   2.093   0.589   1.883
 1599SOL     OW 4815   2.087   0.275   2.858
 1599SOL    HW1 4816   2.122   0.258   2.950
 1599SOL    HW2 4817   1.999   0.230   2.846
 1600SOL     OW 4818   1.881   0.368   2.509
 1600SOL    HW1 4819   1.799   0.411   2.548
 1600SOL    HW2 4820   1.853   0.295   2.446
 1601SOL     OW 4821   2.431   1.275   3.027
 1601SOL    HW1 4822   2.338   1.268   2.990
 1601SOL    HW2 4823   2.442   1.364   3.071
 1602SOL     OW 4824   3.417   1.511   2.565
 1602SOL    HW1 4825   3.360   1.495   2.646
 1602SOL    HW2 4826   3.358   1.521   2.485
 1603SOL     OW 4827   2.997   0.703   2.579
 1603SOL    HW1 4828   3.054   0.781   2.554
 1603SOL    HW2 4829   2.937   0.729   2.655
 1604SOL     OW 4830   3.617   0.607   2.093
 1604SOL    HW1 4831   3.605   0.594   1.994
 1604SOL    HW2 4832   3.587   0.526   2.142
 1605SOL     OW 4833   2.630   1.144   2.885
 1605SOL    HW1 4834   2.552   1.161   2.945
 1605SOL    HW2 4835   2.664   1.231   2.849
 1606SOL     OW 4836   2.712   0.798   3.685
 1606SOL    HW1 4837   2.708   0.874   3.750
 1606SOL    HW2 4838   2.734   0.834   3.594
 1607SOL     OW 4839   2.547   1.012   2.527
 1607SOL    HW1 4840   2.616   0.996   2.597
 1607SOL    HW2 4841   2.474   1.069   2.565
 1608SOL     OW 4842   2.548   1.161   3.665
 1608SOL    HW1 4843   2.608   1.240   3.679
 1608SOL    HW2 4844   2.462   1.192   3.624
 1609SOL     OW 4845   2.197   1.435   2.923
 1609SOL    HW1 4846   2.119   1.404   2.870
 1609SOL    HW2 4847   2.255   1.493   2.866
 1610SOL     OW 4848   3.322   1.505   3.201
 1610SOL    HW1 4849   3.346   1.599   3.227
 1610SOL    HW2 4850   3.306   1.451   3.283
 1611SOL     OW 4851   2.300   0.392   3.361
 1611SOL    HW1 4852   2.382   0.336   3.370
 1611SOL    HW2 4853   2.219   0.334   3.365
 1612SOL     OW 4854   3.465   0.447   2.599
 1612SOL    HW1 4855   3.391   0.493   2.549
 1612SOL    HW2 4856   3.516   0.515   2.652
 1613SOL     OW 4857   2.093   1.713   2.345
 1613SOL    HW1 4858   2.127   1.790   2.399
 1613SOL    HW2 4859   2.137   1.713   2.255
 1614SOL     OW 4860   2.989   1.341   3.552
 1614SOL    HW1 4861   3.036   1.341   3.640
 1614SOL    HW2 4862   2.941   1.254   3.541
 1615SOL     OW 4863   2.092   1.434   2.400
 1615SOL    HW1 4864   2.066   1.530   2.400
 1615SOL    HW2 4865   2.021   1.380   2.445
 1616SOL     OW 4866   2.102   1.091   2.748
 1616SOL    HW1 4867   2.116   1.007   2.800
 1616SOL    HW2 4868   2.047   1.155   2.803
 1617SOL     OW 4869   2.482   1.786   3.301
 1617SOL    HW1 4870   2.390   1.769   3.336
 1617SOL    HW2 4871   2.510   1.878   3.327
 1618SOL     OW 4872   2.468   0.964   1.985
 1618SOL    HW1 4873   2.475   1.048   1.931
 1618SOL    HW2 4874   2.514   0.977   2.073
 1619SOL     OW 4875   3.456   0.114   3.342
 1619SOL    HW1 4876   3.438   0.181   3.270
 1619SOL    HW2 4877   3.453   0.160   3.431
 1620SOL     OW 4878   1.984   0.643   2.425
 1620SOL    HW1 4879   1.939   0.555   2.442
 1620SOL    HW2 4880   1.983   0.697   2.509
 1621SOL     OW 4881   3.704   1.767   2.221
 1621SOL    HW1 4882   3.758   1.738   2.301
 1621SOL    HW2 4883   3.734   1.857   2.192
 1622SOL     OW 4884   1.889   1.596   1.979
 1622SOL    HW1 4885   1.870   1.500   2.000
 1622SOL    HW2 4886   1.856   1.654   2.054
 1623SOL     OW 4887   3.551   0.922   2.474
 1623SOL    HW1 4888   3.646   0.893   2.482
 1623SOL    HW2 4889   3.543   0.987   2.399
 1624SOL     OW 4890   3.503   1.108   2.294
 1624SOL    HW1 4891   3.589   1.110   2.242
 1624SOL    HW2 4892   3.517   1.155   2.382
 1625SOL     OW 4893   1.975   0.737   3.459
 1625SOL    HW1 4894   2.063   0.724   3.504
 1625SOL    HW2 4895   1.962   0.834   3.437
 1626SOL     OW 4896   2.475   1.365   2.588
 1626SOL    HW1 4897   2.426   1.278   2.597
 1626SOL    HW2 4898   2.452   1.408   2.501
 1627SOL     OW 4899   3.155   1.228   3.285
 1627SOL    HW1 4900   3.192   1.155   3.227
 1627SOL    HW2 4901   3.207   1.233   3.370
 1628SOL     OW 4902   2.671   0.004   2.364
 1628SOL    HW1 4903   2.711   0.095   2.355
 1628SOL    HW2 4904   2.571   0.012   2.370
 1629SOL     OW 4905   2.059   0.976   3.126
 1629SOL    HW1 4906   2.148   0.931   3.112
 1629SOL    HW2 4907   1.986   0.911   3.107
 1630SOL     OW 4908   3.387   0.999   2.052
 1630SOL    HW1 4909   3.324   0.923   2.065
 1630SOL    HW2 4910   3.435   1.017   2.138
 1631SOL     OW 4911   3.049   1.792   3.478
 1631SOL    HW1 4912   3.073   1.852   3.402
 1631SOL    HW2 4913   3.056   1.697   3.448
 1632SOL     OW 4914   2.179   0.251   3.663
 1632SOL    HW1 4915   2.250   0.322   3.669
 1632SOL    HW2 4916   2.091   0.290   3.691
 1633SOL     OW 4917   3.328   1.417   2.815
 1633SOL    HW1 4918   3.269   1.423   2.895
 1633SOL    HW2 4919   3.313   1.329   2.769
 1634SOL     OW 4920   3.529   1.714   2.434
 1634SOL    HW1 4921   3.488   1.691   2.346
 1634SOL    HW2 4922   3.511   1.640   2.499
 1635SOL     OW 4923   2.460   0.729   2.132
 1635SOL    HW1 4924   2.484   0.798   2.064
 1635SOL    HW2 4925   2.382   0.762   2.186
 1636SOL     OW 4926   3.143   0.345   2.806
 1636SOL    HW1 4927   3.057   0.295   2.793
 1636SOL    HW2 4928   3.205   0.291   2.862
 1637SOL     OW 4929   3.438   1.662   2.169
 1637SOL    HW1 4930   3.527   1.708   2.172
 1637SOL    HW2 4931   3.417   1.638   2.074
 1638SOL     OW 4932   2.669   0.605   3.327
 1638SOL    HW1 4933   2.622   0.602   3.416
 1638SOL    HW2 4934   2.618   0.550   3.261
 1639SOL     OW 4935   3.256   0.469   3.536
 1639SOL    HW1 4936   3.236   0.512   3.624
 1639SOL    HW2 4937   3.334   0.407   3.545
 1640SOL     OW 4938   2.835   0.890   3.434
 1640SOL    HW1 4939   2.881   0.806   3.405
 1640SOL    HW2 4940   2.779   0.924   3.359
 1641SOL     OW 4941   2.853   0.410   3.104
 1641SOL    HW1 4942   2.776   0.444   3.158
 1641SOL    HW2 4943   2.819   0.359   3.025
 1642SOL     OW 4944   2.903   0.701   2.291
 1642SOL    HW1 4945   2.929   0.697   2.387
 1642SOL    HW2 4946   2.818   0.650   2.277
 1643SOL     OW 4947   1.938   0.811   2.651
 1643SOL    HW1 4948   2.037   0.799   2.660
 1643SOL    HW2 4949   1.914   0.906   2.672
 1644SOL     OW 4950   1.992   1.821   3.433
 1644SOL    HW1 4951   1.982   1.806   3.532
 1644SOL    HW2 4952   1.906   1.857   3.397
 1645SOL     OW 4953   2.727   0.348   2.057
 1645SOL    HW1 4954   2.786   0.411   2.008
 1645SOL    HW2 4955   2.746   0.254   2.028
 1646SOL     OW 4956   3.581   0.585   3.693
 1646SOL    HW1 4957   3.555   0.674   3.657
 1646SOL    HW2 4958   3.579   0.517   3.620
 1647SOL     OW 4959   3.224   1.144   2.407
 1647SOL    HW1 4960   3.307   1.115   2.359
 1647SOL    HW2 4961   3.175   1.211   2.351
 1648SOL     OW 4962   2.412   0.196   2.747
 1648SOL    HW1 4963   2.407   0.191   2.847
 1648SOL    HW2 4964   2.414   0.292   2.718
 1649SOL     OW 4965   2.870   1.456   2.339
 1649SOL    HW1 4966   2.824   1.528   2.287
 1649SOL    HW2 4967   2.866   1.476   2.437
 1650SOL     OW 4968   2.213   1.801   2.715
 1650SOL    HW1 4969   2.263   1.715   2.721
 1650SOL    HW2 4970   2.278   1.878   2.712
 1651SOL     OW 4971   3.657   1.066   2.735
 1651SOL    HW1 4972   3.595   1.051   2.659
 1651SOL    HW2 4973   3.605   1.077   2.820
 1652SOL     OW 4974   3.089   1.550   3.368
 1652SOL    HW1 4975   3.095   1.473   3.432
 1652SOL    HW2 4976   3.037   1.524   3.288
 1653SOL     OW 4977   2.183   0.943   2.104
 1653SOL    HW1 4978   2.265   0.982   2.062
 1653SOL    HW2 4979   2.156   0.861   2.055
 1654SOL     OW 4980   3.320   0.735   2.590
 1654SOL    HW1 4981   3.315   0.670   2.665
 1654SOL    HW2 4982   3.400   0.794   2.603
 1655SOL     OW 4983   2.323   1.266   3.589
 1655SOL    HW1 4984   2.273   1.267   3.503
 1655SOL    HW2 4985   2.260   1.248   3.665
 1656SOL     OW 4986   2.973   1.776   2.099
 1656SOL    HW1 4987   2.913   1.714   2.149
 1656SOL    HW2 4988   3.004   1.732   2.014
 1657SOL     OW 4989   2.064   0.285   3.360
 1657SOL    HW1 4990   1.984   0.345   3.347
 1657SOL    HW2 4991   2.054   0.236   3.446
 1658SOL     OW 4992   3.494   1.377   1.943
 1658SOL    HW1 4993   3.462   1.471   1.933
 1658SOL    HW2 4994   3.418   1.314   1.931
 1659SOL     OW 4995   2.326   1.743   2.185
 1659SOL    HW1 4996   2.359   1.782   2.271
 1659SOL    HW2 4997   2.402   1.736   2.120
 1660SOL     OW 4998   3.262   0.107   2.288
 1660SOL    HW1 4999   3.238   0.070   2.198
 1660SOL    HW2 5000   3.361   0.123   2.292
 1661SOL     OW 5001   2.111   1.785   3.103
 1661SOL    HW1 5002   2.168   1.720   3.153
 1661SOL    HW2 5003   2.095   1.752   3.010
 1662SOL     OW 5004   2.802   1.698   2.766
 1662SOL    HW1 5005   2.882   1.641   2.787
 1662SOL    HW2 5006   2.753   1.658   2.689
 1663SOL     OW 5007   2.244   0.700   2.342
 1663SOL    HW1 5008   2.289   0.610   2.339
 1663SOL    HW2 5009   2.150   0.689   2.375
 1664SOL     OW 5010   3.409   0.222   3.591
 1664SOL    HW1 5011   3.404   0.259   3.683
 1664SOL    HW2 5012   3.337   0.153   3.579
 1665SOL     OW 5013   2.476   0.122   1.979
 1665SOL    HW1 5014   2.574   0.100   1.986
 1665SOL    HW2 5015   2.445   0.105   1.886
 1666SOL     OW 5016   2.643   0.264   3.611
 1666SOL    HW1 5017   2.710   0.203   3.654
 1666SOL    HW2 5018   2.570   0.283   3.676
 1667SOL     OW 5019   2.750   1.514   3.057
 1667SOL    HW1 5020   2.727   1.489   2.963
 1667SOL    HW2 5021   2.811   1.445   3.096
 1668SOL     OW 5022   3.213   0.590   3.295
 1668SOL    HW1 5023   3.241   0.547   3.380
 1668SOL    HW2 5024   3.238   0.686   3.296
 1669SOL     OW 5025   2.665   1.402   2.786
 1669SOL    HW1 5026   2.755   1.416   2.744
 1669SOL    HW2 5027   2.594   1.404   2.715
 1670SOL     OW 5028   2.784   0.503   2.761
 1670SOL    HW1 5029   2.759   0.494   2.665
 1670SOL    HW2 5030   2.832   0.421   2.792
 1671SOL     OW 5031   2.401   0.064   2.374
 1671SOL    HW1 5032   2.320   0.065   2.432
 1671SOL    HW2 5033   2.404   0.147   2.319
 1672SOL     OW 5034   3.296   1.188   1.903
 1672SOL    HW1 5035   3.328   1.112   1.960
 1672SOL    HW2 5036   3.204   1.215   1.933
 1673SOL     OW 5037   2.159   0.035   2.033
 1673SOL    HW1 5038   2.208   0.119   2.012
 1673SOL    HW2 5039   2.221  -0.030   2.078
 1674SOL     OW 5040   2.797   0.236   2.342
 1674SOL    HW1 5041   2.749   0.277   2.264
 1674SOL    HW2 5042   2.896   0.234   2.323
 1675SOL     OW 5043   2.938   0.683   3.326
 1675SOL    HW1 5044   2.858   0.622   3.329
 1675SOL    HW2 5045   3.019   0.630   3.302
 1676SOL     OW 5046   3.089   1.570   2.655
 1676SOL    HW1 5047   3.110   1.644   2.590
 1676SOL    HW2 5048   3.157   1.570   2.728
 1677SOL     OW 5049   2.321   1.152   2.603
 1677SOL    HW1 5050   2.250   1.125   2.668
 1677SOL    HW2 5051   2.295   1.124   2.510
 1678SOL     OW 5052   3.133   1.797   2.453
 1678SOL    HW1 5053   3.177   1.861   2.389
 1678SOL    HW2 5054   3.083   1.849   2.523
 1679SOL     OW 5055   2.894   0.549   1.878
 1679SOL    HW1 5056   2.853   0.631   1.839
 1679SOL    HW2 5057   2.958   0.575   1.951
 1680SOL     OW 5058   1.940   0.556   3.248
 1680SOL    HW1 5059   2.032   0.555   3.207
 1680SOL    HW2 5060   1.934   0.630   3.315
 1681SOL     OW 5061   2.423   0.222   3.009
 1681SOL    HW1 5062   2.461   0.138   3.046
 1681SOL    HW2 5063   2.335   0.241   3.053
 1682SOL     OW 5064   2.728   0.454   2.504
 1682SOL    HW1 5065   2.696   0.526   2.442
 1682SOL    HW2 5066   2.752   0.373   2.451
 1683SOL     OW 5067   2.879   0.039   2.615
 1683SOL    HW1 5068   2.807   0.044   2.546
 1683SOL    HW2 5069   2.855  -0.030   2.684
 1684SOL     OW 5070   3.291   1.173   2.729
 1684SOL    HW1 5071   3.236   1.089   2.722
 1684SOL    HW2 5072   3.317   1.202   2.637
 1685SOL     OW 5073   3.328   0.590   2.854
 1685SOL    HW1 5074   3.298   0.495   2.861
 1685SOL    HW2 5075   3.401   0.606   2.920
 1686SOL     OW 5076   3.719   0.833   2.239
 1686SOL    HW1 5077   3.761   0.769   2.303
 1686SOL    HW2 5078   3.681   0.782   2.161
 1687SOL     OW 5079   2.350   1.385   2.036
 1687SOL    HW1 5080   2.263   1.370   2.083
 1687SOL    HW2 5081   2.333   1.411   1.941
 1688SOL     OW 5082   3.526   1.280   2.519
 1688SOL    HW1 5083   3.625   1.288   2.533
 1688SOL    HW2 5084   3.481   1.364   2.550
 1689SOL     OW 5085   3.252   0.575   1.940
 1689SOL    HW1 5086   3.198   0.554   2.021
 1689SOL    HW2 5087   3.343   0.534   1.949
 1690SOL     OW 5088   2.389   0.256   2.190
 1690SOL    HW1 5089   2.416   0.197   2.115
 1690SOL    HW2 5090   2.389   0.351   2.159
 1691SOL     OW 5091   3.616   1.223   3.450
 1691SOL    HW1 5092   3.707   1.184   3.437
 1691SOL    HW2 5093   3.624   1.319   3.474
 1692SOL     OW 5094   2.926   1.347   3.202
 1692SOL    HW1 5095   2.846   1.324   3.257
 1692SOL    HW2 5096   3.009   1.321   3.251
 1693SOL     OW 5097   3.454   1.629   3.487
 1693SOL    HW1 5098   3.481   1.663   3.397
 1693SOL    HW2 5099   3.533   1.591   3.533
 1694SOL     OW 5100   2.973   1.195   2.962
 1694SOL    HW1 5101   2.933   1.239   3.043
 1694SOL    HW2 5102   2.932   1.232   2.879
 1695SOL     OW 5103   3.500   1.099   2.941
 1695SOL    HW1 5104   3.505   1.180   3.000
 1695SOL    HW2 5105   3.414   1.101   2.890
 1696SOL     OW 5106   2.777   0.089   3.264
 1696SOL    HW1 5107   2.802   0.069   3.169
 1696SOL    HW2 5108   2.849   0.145   3.306
 1697SOL     OW 5109   2.842   1.116   3.581
 1697SOL    HW1 5110   2.743   1.122   3.591
 1697SOL    HW2 5111   2.865   1.036   3.525
 1698SOL     OW 5112   2.567   1.050   2.230
 1698SOL    HW1 5113   2.553   1.057   2.329
 1698SOL    HW2 5114   2.651   0.999   2.212
 1699SOL     OW 5115   2.272   0.813   3.113
 1699SOL    HW1 5116   2.358   0.825   3.163
 1699SOL    HW2 5117   2.230   0.726   3.140
 1700SOL     OW 5118   3.136   0.386   3.124
 1700SOL    HW1 5119   3.157   0.460   3.188
 1700SOL    HW2 5120   3.047   0.403   3.081
 1701SOL     OW 5121   1.926   1.564   3.193
 1701SOL    HW1 5122   1.880   1.646   3.159
 1701SOL    HW2 5123   2.024   1.583   3.202
 1702SOL     OW 5124   2.229   1.100   2.363
 1702SOL    HW1 5125   2.222   1.183   2.307
 1702SOL    HW2 5126   2.233   1.020   2.303
 1703SOL     OW 5127   2.428   0.537   2.727
 1703SOL    HW1 5128   2.440   0.603   2.653
 1703SOL    HW2 5129   2.474   0.571   2.810
 1704SOL     OW 5130   3.114   1.348   2.250
 1704SOL    HW1 5131   3.164   1.425   2.290
 1704SOL    HW2 5132   3.019   1.350   2.282
 1705SOL     OW 5133   3.134   1.445   3.004
 1705SOL    HW1 5134   3.181   1.458   3.091
 1705SOL    HW2 5135   3.068   1.371   3.013
 1706SOL     OW 5136   3.444   0.639   2.334
 1706SOL    HW1 5137   3.413   0.700   2.407
 1706SOL    HW2 5138   3.494   0.691   2.265
 1707SOL     OW 5139   2.216   1.510   3.191
 1707SOL    HW1 5140   2.195   1.466   3.104
 1707SOL    HW2 5141   2.313   1.536   3.194
 1708SOL     OW 5142   2.264   0.751   3.460
 1708SOL    HW1 5143   2.332   0.806   3.413
 1708SOL    HW2 5144   2.304   0.663   3.487
 1709SOL     OW 5145   3.449   0.779   3.532
 1709SOL    HW1 5146   3.357   0.817   3.527
 1709SOL    HW2 5147   3.509   0.826   3.467
 1710SOL     OW 5148   2.875   0.105   3.632
 1710SOL    HW1 5149   2.881   0.190   3.580
 1710SOL    HW2 5150   2.907   0.029   3.575
 1711SOL     OW 5151   2.366   0.050   3.602
 1711SOL    HW1 5152   2.324  -0.007   3.532
 1711SOL    HW2 5153   2.300   0.119   3.634
 1712SOL     OW 5154   2.435   0.870   2.891
 1712SOL    HW1 5155   2.479   0.959   2.882
 1712SOL    HW2 5156   2.372   0.870   2.968
 1713SOL     OW 5157   3.222   0.862   2.907
 1713SOL    HW1 5158   3.147   0.862   2.841
 1713SOL    HW2 5159   3.259   0.770   2.916
 1714SOL     OW 5160   3.071   0.525   2.137
 1714SOL    HW1 5161   3.084   0.441   2.191
 1714SOL    HW2 5162   3.042   0.599   2.197
 1715SOL     OW 5163   2.169   0.213   3.093
 1715SOL    HW1 5164   2.146   0.250   3.183
 1715SOL    HW2 5165   2.139   0.118   3.087
 1716SOL     OW 5166   1.899   1.310   3.144
 1716SOL    HW1 5167   1.952   1.261   3.212
 1716SOL    HW2 5168   1.921   1.408   3.149
 1717SOL     OW 5169   2.594   0.634   2.926
 1717SOL    HW1 5170   2.653   0.608   2.850
 1717SOL    HW2 5171   2.566   0.730   2.915
 1718SOL     OW 5172   3.590   0.935   3.716
 1718SOL    HW1 5173   3.544   0.928   3.627
 1718SOL    HW2 5174   3.528   0.979   3.782
 1719SOL     OW 5175   2.169   0.063   2.480
 1719SOL    HW1 5176   2.158   0.157   2.513
 1719SOL    HW2 5177   2.164   0.000   2.557
 1720SOL     OW 5178   3.484   0.367   2.236
 1720SOL    HW1 5179   3.486   0.291   2.300
 1720SOL    HW2 5180   3.436   0.444   2.276
 1721SOL     OW 5181   2.885   0.766   2.828
 1721SOL    HW1 5182   2.900   0.787   2.924
 1721SOL    HW2 5183   2.855   0.671   2.819
 1722SOL     OW 5184   2.842   1.573   3.562
 1722SOL    HW1 5185   2.822   1.617   3.474
 1722SOL    HW2 5186   2.881   1.482   3.546
 1723SOL     OW 5187   3.721   1.518   3.467
 1723SOL    HW1 5188   3.735   1.545   3.372
 1723SOL    HW2 5189   3.804   1.540   3.520
 1724SOL     OW 5190   2.212   0.898   3.666
 1724SOL    HW1 5191   2.288   0.942   3.714
 1724SOL    HW2 5192   2.247   0.851   3.584
 1725SOL     OW 5193   3.402   0.274   1.987
 1725SOL    HW1 5194   3.341   0.199   2.010
 1725SOL    HW2 5195   3.424   0.326   2.070
 1726SOL     OW 5196   3.165   0.838   1.904
 1726SOL    HW1 5197   3.199   0.745   1.919
 1726SOL    HW2 5198   3.183   0.865   1.809
 1727SOL     OW 5199   2.930   1.333   2.711
 1727SOL    HW1 5200   2.937   1.249   2.656
 1727SOL    HW2 5201   2.992   1.402   2.675
 1728SOL     OW 5202   2.181   0.810   2.811
 1728SOL    HW1 5203   2.274   0.846   2.816
 1728SOL    HW2 5204   2.175   0.725   2.863
 1729SOL     OW 5205   2.201   0.509   2.868
 1729SOL    HW1 5206   2.149   0.426   2.851
 1729SOL    HW2 5207   2.278   0.514   2.804
 1730SOL     OW 5208   3.000   0.380   3.540
 1730SOL    HW1 5209   2.955   0.443   3.604
 1730SOL    HW2 5210   3.093   0.411   3.523
 1731SOL     OW 5211   3.022   0.207   3.339
 1731SOL    HW1 5212   3.022   0.271   3.416
 1731SOL    HW2 5213   3.050   0.255   3.256
 1732SOL     OW 5214   1.870   1.326   2.062
 1732SOL    HW1 5215   1.777   1.347   2.031
 1732SOL    HW2 5216   1.880   1.227   2.075
 1733SOL     OW 5217   1.950   1.801   2.789
 1733SOL    HW1 5218   1.908   1.715   2.762
 1733SOL    HW2 5219   2.044   1.804   2.755
 1734SOL     OW 5220   2.366   1.568   2.772
 1734SOL    HW1 5221   2.432   1.642   2.781
 1734SOL    HW2 5222   2.410   1.489   2.730
 1735SOL     OW 5223   2.864   0.796   3.100
 1735SOL    HW1 5224   2.905   0.764   3.186
 1735SOL    HW2 5225   2.768   0.769   3.097
 1736SOL     OW 5226   1.902   0.544   2.976
 1736SOL    HW1 5227   1.987   0.511   2.935
 1736SOL    HW2 5228   1.915   0.559   3.074
 1737SOL     OW 5229   2.051   0.520   3.584
 1737SOL    HW1 5230   2.110   0.480   3.514
 1737SOL    HW2 5231   1.993   0.591   3.543
 1738SOL     OW 5232   3.231   0.950   3.522
 1738SOL    HW1 5233   3.270   1.039   3.542
 1738SOL    HW2 5234   3.241   0.930   3.425
 1739SOL     OW 5235   2.677   0.572   2.187
 1739SOL    HW1 5236   2.684   0.483   2.141
 1739SOL    HW2 5237   2.583   0.606   2.179
 1740SOL     OW 5238   3.519   0.604   3.068
 1740SOL    HW1 5239   3.481   0.535   3.130
 1740SOL    HW2 5240   3.601   0.568   3.024
 1741SOL     OW 5241   2.114   1.564   3.606
 1741SOL    HW1 5242   2.084   1.621   3.682
 1741SOL    HW2 5243   2.107   1.467   3.632
 1742SOL     OW 5244   2.533   0.464   3.131
 1742SOL    HW1 5245   2.499   0.375   3.101
 1742SOL    HW2 5246   2.559   0.518   3.051
 1743SOL     OW 5247   2.792   1.678   3.327
 1743SOL    HW1 5248   2.768   1.660   3.232
 1743SOL    HW2 5249   2.822   1.772   3.337
 1744SOL     OW 5250   2.335   0.500   2.053
 1744SOL    HW1 5251   2.396   0.580   2.057
 1744SOL    HW2 5252   2.240   0.531   2.060
 1745SOL     OW 5253   2.021   1.137   3.328
 1745SOL    HW1 5254   2.043   1.076   3.404
 1745SOL    HW2 5255   2.031   1.088   3.242
 1746SOL     OW 5256   3.209   1.059   3.096
 1746SOL    HW1 5257   3.233   0.996   3.022
 1746SOL    HW2 5258   3.119   1.099   3.078
 1747SOL     OW 5259   3.164   0.855   2.171
 1747SOL    HW1 5260   3.078   0.824   2.213
 1747SOL    HW2 5261   3.160   0.841   2.072
 1748SOL     OW 5262   3.621   1.747   3.016
 1748SOL    HW1 5263   3.682   1.777   2.943
 1748SOL    HW2 5264   3.583   1.658   2.994
 1749SOL     OW 5265   3.114   1.731   2.990
 1749SOL    HW1 5266   3.198   1.736   2.936
 1749SOL    HW2 5267   3.091   1.635   3.008
 1750SOL     OW 5268   1.945   1.258   2.884
 1750SOL    HW1 5269   1.940   1.257   2.984
 1750SOL    HW2 5270   1.862   1.217   2.846
 1751SOL     OW 5271   2.550   1.662   3.578
 1751SOL    HW1 5272   2.494   1.743   3.587
 1751SOL    HW2 5273   2.602   1.666   3.492
 1752SOL     OW 5274   3.588   0.135   2.385
 1752SOL    HW1 5275   3.661   0.118   2.318
 1752SOL    HW2 5276   3.557   0.048   2.423
 1753SOL     OW 5277   3.250   1.573   2.339
 1753SOL    HW1 5278   3.317   1.585   2.265
 1753SOL    HW2 5279   3.210   1.662   2.362
 1754SOL     OW 5280   1.992   1.794   3.713
 1754SOL    HW1 5281   1.951   1.720   3.766
 1754SOL    HW2 5282   2.056   1.845   3.771
 1755SOL     OW 5283   3.142   0.927   2.534
 1755SOL    HW1 5284   3.202   0.846   2.536
 1755SOL    HW2 5285   3.182   0.996   2.474
 1756SOL     OW 5286   2.692   1.273   3.284
 1756SOL    HW1 5287   2.687   1.306   3.379
 1756SOL    HW2 5288   2.606   1.292   3.238
 1757SOL     OW 5289   2.534   1.616   2.016
 1757SOL    HW1 5290   2.543   1.626   1.917
 1757SOL    HW2 5291   2.494   1.527   2.037
 1758SOL     OW 5292   3.512   1.720   3.256
 1758SOL    HW1 5293   3.565   1.730   3.172
 1758SOL    HW2 5294   3.485   1.810   3.290
 1759SOL     OW 5295   3.703   0.175   2.825
 1759SOL    HW1 5296   3.742   0.090   2.789
 1759SOL    HW2 5297   3.605   0.177   2.806
 1760SOL     OW 5298   2.125   0.326   2.582
 1760SOL    HW1 5299   2.046   0.377   2.548
 1760SOL    HW2 5300   2.116   0.311   2.680
 1761SOL     OW 5301   3.056   1.612   1.893
 1761SOL    HW1 5302   3.062   1.519   1.930
 1761SOL    HW2 5303   2.997   1.612   1.813
 1762SOL     OW 5304   2.684   1.002   3.234
 1762SOL    HW1 5305   2.724   1.001   3.142
 1762SOL    HW2 5306   2.694   1.094   3.274
 1763SOL     OW 5307   2.778   0.910   2.153
 1763SOL    HW1 5308   2.841   0.948   2.085
 1763SOL    HW2 5309   2.818   0.827   2.192
 1764SOL     OW 5310   3.366   1.607   1.906
 1764SOL    HW1 5311   3.274   1.644   1.913
 1764SOL    HW2 5312   3.404   1.627   1.816
 1765SOL     OW 5313   2.234   1.288   3.352
 1765SOL    HW1 5314   2.221   1.381   3.318
 1765SOL    HW2 5315   2.150   1.236   3.339
 1766SOL     OW 5316   3.476   1.292   3.151
 1766SOL    HW1 5317   3.536   1.295   3.231
 1766SOL    HW2 5318   3.401   1.356   3.164
 1767SOL     OW 5319   2.901   1.098   2.558
 1767SOL    HW1 5320   2.831   1.051   2.612
 1767SOL    HW2 5321   2.960   1.030   2.515
 1768SOL     OW 5322   2.876   0.236   2.833
 1768SOL    HW1 5323   2.868   0.200   2.740
 1768SOL    HW2 5324   2.874   0.160   2.898
 1769SOL     OW 5325   2.452   1.487   2.353
 1769SOL    HW1 5326   2.494   1.429   2.283
 1769SOL    HW2 5327   2.408   1.566   2.309
 1770SOL     OW 5328   3.571   0.385   3.243
 1770SOL    HW1 5329   3.644   0.454   3.247
 1770SOL    HW2 5330   3.599   0.310   3.184
 1771SOL     OW 5331   2.117   1.348   2.152
 1771SOL    HW1 5332   2.021   1.349   2.125
 1771SOL    HW2 5333   2.129   1.401   2.236
 1772SOL     OW 5334   1.967   1.013   3.588
 1772SOL    HW1 5335   1.890   0.980   3.642
 1772SOL    HW2 5336   2.052   0.983   3.630
 1773SOL     OW 5337   2.534   0.203   3.351
 1773SOL    HW1 5338   2.624   0.187   3.311
 1773SOL    HW2 5339   2.542   0.208   3.450
 1774SOL     OW 5340   1.937   0.345   1.895
 1774SOL    HW1 5341   1.845   0.317   1.866
 1774SOL    HW2 5342   1.968   0.422   1.839
 1775SOL     OW 5343   3.302   0.856   3.260
 1775SOL    HW1 5344   3.245   0.908   3.197
 1775SOL    HW2 5345   3.398   0.868   3.236
 1776SOL     OW 5346   1.934   0.166   2.180
 1776SOL    HW1 5347   1.917   0.249   2.126
 1776SOL    HW2 5348   2.024   0.129   2.158
 1777SOL     OW 5349   3.045   1.335   1.981
 1777SOL    HW1 5350   2.946   1.324   1.983
 1777SOL    HW2 5351   3.079   1.350   2.074
 1778SOL     OW 5352   2.475   0.842   3.293
 1778SOL    HW1 5353   2.531   0.923   3.276
 1778SOL    HW2 5354   2.534   0.762   3.296
 1779SOL     OW 5355   3.355   1.767   2.821
 1779SOL    HW1 5356   3.388   1.831   2.752
 1779SOL    HW2 5357   3.421   1.761   2.896
 1780SOL     OW 5358   2.578   0.565   3.570
 1780SOL    HW1 5359   2.597   0.630   3.644
 1780SOL    HW2 5360   2.638   0.485   3.579
 1781SOL     OW 5361   3.312   1.220   3.495
 1781SOL    HW1 5362   3.303   1.210   3.594
 1781SOL    HW2 5363   3.408   1.213   3.469
 1782SOL     OW 5364   2.252   1.741   3.422
 1782SOL    HW1 5365   2.161   1.782   3.420
 1782SOL    HW2 5366   2.245   1.647   3.454
 1783SOL     OW 5367   3.536   0.883   3.116
 1783SOL    HW1 5368   3.509   0.794   3.079
 1783SOL    HW2 5369   3.537   0.951   3.043
 1784SOL     OW 5370   3.087   0.325   2.311
 1784SOL    HW1 5371   3.152   0.251   2.300
 1784SOL    HW2 5372   3.107   0.375   2.395
 1785SOL     OW 5373   2.456   0.745   2.514
 1785SOL    HW1 5374   2.506   0.830   2.495
 1785SOL    HW2 5375   2.368   0.747   2.466
 1786SOL     OW 5376   3.639   0.342   3.504
 1786SOL    HW1 5377   3.622   0.373   3.410
 1786SOL    HW2 5378   3.555   0.305   3.542
 1787SOL     OW 5379   3.592   0.934   3.379
 1787SOL    HW1 5380   3.630   1.025   3.394
 1787SOL    HW2 5381   3.584   0.917   3.280
 1788SOL     OW 5382   2.721   1.374   1.878
 1788SOL    HW1 5383   2.675   1.389   1.966
 1788SOL    HW2 5384   2.765   1.459   1.848
 1789SOL     OW 5385   2.523   1.790   2.815
 1789SOL    HW1 5386   2.477   1.878   2.802
 1789SOL    HW2 5387   2.622   1.802   2.808
 1790SOL     OW 5388   2.721   0.956   2.723
 1790SOL    HW1 5389   2.775   0.887   2.771
 1790SOL    HW2 5390   2.689   1.025   2.789
 1791SOL     OW 5391   2.945   0.984   1.949
 1791SOL    HW1 5392   2.922   1.037   1.867
 1791SOL    HW2 5393   3.026   0.928   1.930
 1792SOL     OW 5394   3.723   1.569   2.713
 1792SOL    HW1 5395   3.652   1.557   2.643
 1792SOL    HW2 5396   3.724   1.490   2.773
 1793SOL     OW 5397   2.083   1.314   3.706
 1793SOL    HW1 5398   2.018   1.241   3.685
 1793SOL    HW2 5399   2.087   1.328   3.804
 1794SOL     OW 5400   1.941   1.240   2.515
 1794SOL    HW1 5401   1.940   1.193   2.603
 1794SOL    HW2 5402   2.023   1.212   2.464
 1795SOL     OW 5403   2.534   1.391   3.486
 1795SOL    HW1 5404   2.456   1.341   3.524
 1795SOL    HW2 5405   2.531   1.486   3.517
 1796SOL     OW 5406   3.686   0.192   3.089
 1796SOL    HW1 5407   3.682   0.102   3.133
 1796SOL    HW2 5408   3.689   0.181   2.990
 1797SOL     OW 5409   2.290   0.424   2.382
 1797SOL    HW1 5410   2.320   0.352   2.320
 1797SOL    HW2 5411   2.251   0.384   2.465
 1798SOL     OW 5412   3.567   1.487   2.966
 1798SOL    HW1 5413   3.474   1.462   2.939
 1798SOL    HW2 5414   3.593   1.437   3.048
 1799SOL     OW 5415   2.179   0.547   3.142
 1799SOL    HW1 5416   2.217   0.488   3.214
 1799SOL    HW2 5417   2.219   0.521   3.054
 1800SOL     OW 5418   2.674   1.586   2.549
 1800SOL    HW1 5419   2.706   1.596   2.455
 1800SOL    HW2 5420   2.595   1.524   2.551
 1801SOL     OW 5421   3.286   0.214   2.974
 1801SOL    HW1 5422   3.338   0.149   3.029
 1801SOL    HW2 5423   3.237   0.277   3.035
 1802SOL     OW 5424   2.863   0.034   3.016
 1802SOL    HW1 5425   2.800  -0.038   2.985
 1802SOL    HW2 5426   2.956  -0.002   3.016
 1803SOL     OW 5427   2.632   1.330   2.163
 1803SOL    HW1 5428   2.586   1.243   2.180
 1803SOL    HW2 5429   2.723   1.327   2.204
 1804SOL     OW 5430   2.480   1.567   3.146
 1804SOL    HW1 5431   2.475   1.649   3.203
 1804SOL    HW2 5432   2.569   1.564   3.101
 1805SOL     OW 5433   3.214   0.052   2.030
 1805SOL    HW1 5434   3.249   0.011   1.946
 1805SOL    HW2 5435   3.124   0.014   2.050
 1806SOL     OW 5436   3.162   0.453   2.553
 1806SOL    HW1 5437   3.103   0.533   2.557
 1806SOL    HW2 5438   3.177   0.418   2.646
 1807SOL     OW 5439   3.455   0.221   2.744
 1807SOL    HW1 5440   3.371   0.220   2.798
 1807SOL    HW2 5441   3.457   0.304   2.688
 1808SOL     OW 5442   1.901   1.077   2.162
 1808SOL    HW1 5443   2.000   1.066   2.153
 1808SOL    HW2 5444   1.861   0.991   2.194
 1809SOL     OW 5445   2.737   1.646   2.199
 1809SOL    HW1 5446   2.660   1.611   2.145
 1809SOL    HW2 5447   2.705   1.717   2.261
 1810SOL     OW 5448   2.092   0.628   3.837
 1810SOL    HW1 5449   1.999   0.626   3.874
 1810SOL    HW2 5450   2.093   0.589   3.745
 1811SOL     OW 5451   2.087   0.275   4.720
 1811SOL    HW1 5452   2.122   0.258   4.812
 1811SOL    HW2 5453   1.999   0.230   4.708
 1812SOL     OW 5454   1.881   0.368   4.371
 1812SOL    HW1 5455   1.799   0.411   4.410
 1812SOL    HW2 5456   1.853   0.295   4.308
 1813SOL     OW 5457   3.417   1.511   4.427
 1813SOL    HW1 5458   3.360   1.495   4.508
 1813SOL    HW2 5459   3.358   1.521   4.347
 1814SOL     OW 5460   2.997   0.703   4.441
 1814SOL    HW1 5461   3.054   0.781   4.416
 1814SOL    HW2 5462   2.937   0.729   4.517
 1815SOL     OW 5463   3.617   0.607   3.955
 1815SOL    HW1 5464   3.605   0.594   3.856
 1815SOL    HW2 5465   3.587   0.526   4.004
 1816SOL     OW 5466   2.630   1.144   4.747
 1816SOL    HW1 5467   2.552   1.161   4.807
 1816SOL    HW2 5468   2.664   1.231   4.711
 1817SOL     OW 5469   2.547   1.012   4.389
 1817SOL    HW1 5470   2.616   0.996   4.459
 1817SOL    HW2 5471   2.474   1.069   4.427
 1818SOL     OW 5472   3.465   0.447   4.461
 1818SOL    HW1 5473   3.391   0.493   4.411
 1818SOL    HW2 5474   3.516   0.515   4.514
 1819SOL     OW 5475   2.093   1.713   4.207
 1819SOL    HW1 5476   2.127   1.790   4.261
 1819SOL    HW2 5477   2.137   1.713   4.117
 1820SOL     OW 5478   2.092   1.434   4.262
 1820SOL    HW1 5479   2.066   1.530   4.262
 1820SOL    HW2 5480   2.021   1.380   4.307
 1821SOL     OW 5481   2.102   1.091   4.610
 1821SOL    HW1 5482   2.116   1.007   4.662
 1821SOL    HW2 5483   2.047   1.155   4.665
 1822SOL     OW 5484   2.468   0.964   3.847
 1822SOL    HW1 5485   2.475   1.048   3.793
 1822SOL    HW2 5486   2.514   0.977   3.935
 1823SOL     OW 5487   1.984   0.643   4.287
 1823SOL    HW1 5488   1.939   0.555   4.304
 1823SOL    HW2 5489   1.983   0.697   4.371
 1824SOL     OW 5490   3.704   1.767   4.083
 1824SOL    HW1 5491   3.758   1.738   4.163
 1824SOL    HW2 5492   3.734   1.857   4.054
 1825SOL     OW 5493   1.889   1.596   3.841
 1825SOL    HW1 5494   1.870   1.500   3.862
 1825SOL    HW2 5495   1.856   1.654   3.916
 1826SOL     OW 5496   3.551   0.922   4.336
 1826SOL    HW1 5497   3.646   0.893   4.344
 1826SOL    HW2 5498   3.543   0.987   4.261
 1827SOL     OW 5499   3.503   1.108   4.156
 1827SOL    HW1 5500   3.589   1.110   4.104
 1827SOL    HW2 5501   3.517   1.155   4.244
 1828SOL     OW 5502   2.475   1.365   4.450
 1828SOL    HW1 5503   2.426   1.278   4.459
 1828SOL    HW2 5504   2.452   1.408   4.363
 1829SOL     OW 5505   2.671   0.004   4.226
 1829SOL    HW1 5506   2.711   0.095   4.217
 1829SOL    HW2 5507   2.571   0.012   4.232
 1830SOL     OW 5508   3.387   0.999   3.914
 1830SOL    HW1 5509   3.324   0.923   3.927
 1830SOL    HW2 5510   3.435   1.017   4.000
 1831SOL     OW 5511   3.328   1.417   4.677
 1831SOL    HW1 5512   3.269   1.423   4.757
 1831SOL    HW2 5513   3.313   1.329   4.631
 1832SOL     OW 5514   3.529   1.714   4.296
 1832SOL    HW1 5515   3.488   1.691   4.208
 1832SOL    HW2 5516   3.511   1.640   4.361
 1833SOL     OW 5517   2.460   0.729   3.994
 1833SOL    HW1 5518   2.484   0.798   3.926
 1833SOL    HW2 5519   2.382   0.762   4.048
 1834SOL     OW 5520   3.143   0.345   4.668
 1834SOL    HW1 5521   3.057   0.295   4.655
 1834SOL    HW2 5522   3.205   0.291   4.724
 1835SOL     OW 5523   3.438   1.662   4.031
 1835SOL    HW1 5524   3.527   1.708   4.034
 1835SOL    HW2 5525   3.417   1.638   3.936
 1836SOL     OW 5526   2.903   0.701   4.153
 1836SOL    HW1 5527   2.929   0.697   4.249
 1836SOL    HW2 5528   2.818   0.650   4.139
 1837SOL     OW 5529   1.938   0.811   4.513
 1837SOL    HW1 5530   2.037   0.799   4.522
 1837SOL    HW2 5531   1.914   0.906   4.534
 1838SOL     OW 5532   2.727   0.348   3.919
 1838SOL    HW1 5533   2.786   0.411   3.870
 1838SOL    HW2 5534   2.746   0.254   3.890
 1839SOL     OW 5535   3.224   1.144   4.269
 1839SOL    HW1 5536   3.307   1.115   4.221
 1839SOL    HW2 5537   3.175   1.211   4.213
 1840SOL     OW 5538   2.870   1.456   4.201
 1840SOL    HW1 5539   2.824   1.528   4.149
 1840SOL    HW2 5540   2.866   1.476   4.299
 1841SOL     OW 5541   2.213   1.801   4.577
 1841SOL    HW1 5542   2.263   1.715   4.583
 1841SOL    HW2 5543   2.278   1.878   4.574
 1842SOL     OW 5544   3.657   1.066   4.597
 1842SOL    HW1 5545   3.595   1.051   4.521
 1842SOL    HW2 5546   3.605   1.077   4.682
 1843SOL     OW 5547   2.183   0.943   3.966
 1843SOL    HW1 5548   2.265   0.982   3.924
 1843SOL    HW2 5549   2.156   0.861   3.917
 1844SOL     OW 5550   3.320   0.735   4.452
 1844SOL    HW1 5551   3.315   0.670   4.527
 1844SOL    HW2 5552   3.400   0.794   4.465
 1845SOL     OW 5553   2.973   1.776   3.961
 1845SOL    HW1 5554   2.913   1.714   4.011
 1845SOL    HW2 5555   3.004   1.732   3.876
 1846SOL     OW 5556   3.494   1.377   3.805
 1846SOL    HW1 5557   3.462   1.471   3.795
 1846SOL    HW2 5558   3.418   1.314   3.793
 1847SOL     OW 5559   2.326   1.743   4.047
 1847SOL    HW1 5560   2.359   1.782   4.133
 1847SOL    HW2 5561   2.402   1.736   3.982
 1848SOL     OW 5562   3.262   0.107   4.150
 1848SOL    HW1 5563   3.238   0.070   4.060
 1848SOL    HW2 5564   3.361   0.123   4.154
 1849SOL     OW 5565   2.111   1.785   4.965
 1849SOL    HW1 5566   2.168   1.720   5.015
 1849SOL    HW2 5567   2.095   1.752   4.872
 1850SOL     OW 5568   2.802   1.698   4.628
 1850SOL    HW1 5569   2.882   1.641   4.649
 1850SOL    HW2 5570   2.753   1.658   4.551
 1851SOL     OW 5571   2.244   0.700   4.204
 1851SOL    HW1 5572   2.289   0.610   4.201
 1851SOL    HW2 5573   2.150   0.689   4.237
 1852SOL     OW 5574   2.476   0.122   3.841
 1852SOL    HW1 5575   2.574   0.100   3.848
 1852SOL    HW2 5576   2.445   0.105   3.748
 1853SOL     OW 5577   2.784   0.503   4.623
 1853SOL    HW1 5578   2.759   0.494   4.527
 1853SOL    HW2 5579   2.832   0.421   4.654
 1854SOL     OW 5580   2.401   0.064   4.236
 1854SOL    HW1 5581   2.320   0.065   4.294
 1854SOL    HW2 5582   2.404   0.147   4.181
 1855SOL     OW 5583   3.296   1.188   3.765
 1855SOL    HW1 5584   3.328   1.112   3.822
 1855SOL    HW2 5585   3.204   1.215   3.795
 1856SOL     OW 5586   2.159   0.035   3.895
 1856SOL    HW1 5587   2.208   0.119   3.874
 1856SOL    HW2 5588   2.221  -0.030   3.940
 1857SOL     OW 5589   2.797   0.236   4.204
 1857SOL    HW1 5590   2.749   0.277   4.126
 1857SOL    HW2 5591   2.896   0.234   4.185
 1858SOL     OW 5592   3.089   1.570   4.517
 1858SOL    HW1 5593   3.110   1.644   4.452
 1858SOL    HW2 5594   3.157   1.570   4.590
 1859SOL     OW 5595   2.321   1.152   4.465
 1859SOL    HW1 5596   2.250   1.125   4.530
 1859SOL    HW2 5597   2.295   1.124   4.372
 1860SOL     OW 5598   3.133   1.797   4.315
 1860SOL    HW1 5599   3.177   1.861   4.251
 1860SOL    HW2 5600   3.083   1.849   4.385
 1861SOL     OW 5601   2.894   0.549   3.740
 1861SOL    HW1 5602   2.853   0.631   3.701
 1861SOL    HW2 5603   2.958   0.575   3.813
 1862SOL     OW 5604   2.728   0.454   4.366
 1862SOL    HW1 5605   2.696   0.526   4.304
 1862SOL    HW2 5606   2.752   0.373   4.313
 1863SOL     OW 5607   2.879   0.039   4.477
 1863SOL    HW1 5608   2.807   0.044   4.408
 1863SOL    HW2 5609   2.855  -0.030   4.546
 1864SOL     OW 5610   3.291   1.173   4.591
 1864SOL    HW1 5611   3.236   1.089   4.584
 1864SOL    HW2 5612   3.317   1.202   4.499
 1865SOL     OW 5613   3.719   0.833   4.101
 1865SOL    HW1 5614   3.761   0.769   4.165
 1865SOL    HW2 5615   3.681   0.782   4.023
 1866SOL     OW 5616   2.350   1.385   3.898
 1866SOL    HW1 5617   2.263   1.370   3.945
 1866SOL    HW2 5618   2.333   1.411   3.803
 1867SOL     OW 5619   3.526   1.280   4.381
 1867SOL    HW1 5620   3.625   1.288   4.395
 1867SOL    HW2 5621   3.481   1.364   4.412
 1868SOL     OW 5622   3.252   0.575   3.802
 1868SOL    HW1 5623   3.198   0.554   3.883
 1868SOL    HW2 5624   3.343   0.534   3.811
 1869SOL     OW 5625   2.389   0.256   4.052
 1869SOL    HW1 5626   2.416   0.197   3.977
 1869SOL    HW2 5627   2.389   0.351   4.021
 1870SOL     OW 5628   3.500   1.099   4.803
 1870SOL    HW1 5629   3.505   1.180   4.862
 1870SOL    HW2 5630   3.414   1.101   4.752
 1871SOL     OW 5631   2.567   1.050   4.092
 1871SOL    HW1 5632   2.553   1.057   4.191
 1871SOL    HW2 5633   2.651   0.999   4.074
 1872SOL     OW 5634   2.229   1.100   4.225
 1872SOL    HW1 5635   2.222   1.183   4.169
 1872SOL    HW2 5636   2.233   1.020   4.165
 1873SOL     OW 5637   2.428   0.537   4.589
 1873SOL    HW1 5638   2.440   0.603   4.515
 1873SOL    HW2 5639   2.474   0.571   4.672
 1874SOL     OW 5640   3.114   1.348   4.112
 1874SOL    HW1 5641   3.164   1.425   4.152
 1874SOL    HW2 5642   3.019   1.350   4.144
 1875SOL     OW 5643   3.444   0.639   4.196
 1875SOL    HW1 5644   3.413   0.700   4.269
 1875SOL    HW2 5645   3.494   0.691   4.127
 1876SOL     OW 5646   3.071   0.525   3.999
 1876SOL    HW1 5647   3.084   0.441   4.053
 1876SOL    HW2 5648   3.042   0.599   4.059
 1877SOL     OW 5649   2.594   0.634   4.788
 1877SOL    HW1 5650   2.653   0.608   4.712
 1877SOL    HW2 5651   2.566   0.730   4.777
 1878SOL     OW 5652   2.169   0.063   4.342
 1878SOL    HW1 5653   2.158   0.157   4.375
 1878SOL    HW2 5654   2.164   0.000   4.419
 1879SOL     OW 5655   3.484   0.367   4.098
 1879SOL    HW1 5656   3.486   0.291   4.162
 1879SOL    HW2 5657   3.436   0.444   4.138
 1880SOL     OW 5658   3.402   0.274   3.849
 1880SOL    HW1 5659   3.341   0.199   3.872
 1880SOL    HW2 5660   3.424   0.326   3.932
 1881SOL     OW 5661   3.165   0.838   3.766
 1881SOL    HW1 5662   3.199   0.745   3.781
 1881SOL    HW2 5663   3.183   0.865   3.671
 1882SOL     OW 5664   2.930   1.333   4.573
 1882SOL    HW1 5665   2.937   1.249   4.518
 1882SOL    HW2 5666   2.992   1.402   4.537
 1883SOL     OW 5667   2.181   0.810   4.673
 1883SOL    HW1 5668   2.274   0.846   4.678
 1883SOL    HW2 5669   2.175   0.725   4.725
 1884SOL     OW 5670   1.870   1.326   3.924
 1884SOL    HW1 5671   1.777   1.347   3.893
 1884SOL    HW2 5672   1.880   1.227   3.937
 1885SOL     OW 5673   1.950   1.801   4.651
 1885SOL    HW1 5674   1.908   1.715   4.624
 1885SOL    HW2 5675   2.044   1.804   4.617
 1886SOL     OW 5676   2.366   1.568   4.634
 1886SOL    HW1 5677   2.432   1.642   4.643
 1886SOL    HW2 5678   2.410   1.489   4.592
 1887SOL     OW 5679   2.677   0.572   4.049
 1887SOL    HW1 5680   2.684   0.483   4.003
 1887SOL    HW2 5681   2.583   0.606   4.041
 1888SOL     OW 5682   2.533   0.464   4.993
 1888SOL    HW1 5683   2.499   0.375   4.963
 1888SOL    HW2 5684   2.559   0.518   4.913
 1889SOL     OW 5685   2.335   0.500   3.915
 1889SOL    HW1 5686   2.396   0.580   3.919
 1889SOL    HW2 5687   2.240   0.531   3.922
 1890SOL     OW 5688   3.209   1.059   4.958
 1890SOL    HW1 5689   3.233   0.996   4.884
 1890SOL    HW2 5690   3.119   1.099   4.940
 1891SOL     OW 5691   3.164   0.855   4.033
 1891SOL    HW1 5692   3.078   0.824   4.075
 1891SOL    HW2 5693   3.160   0.841   3.934
 1892SOL     OW 5694   3.621   1.747   4.878
 1892SOL    HW1 5695   3.682   1.777   4.805
 1892SOL    HW2 5696   3.583   1.658   4.856
 1893SOL     OW 5697   1.945   1.258   4.746
 1893SOL    HW1 5698   1.940   1.257   4.846
 1893SOL    HW2 5699   1.862   1.217   4.708
 1894SOL     OW 5700   3.588   0.135   4.247
 1894SOL    HW1 5701   3.661   0.118   4.180
 1894SOL    HW2 5702   3.557   0.048   4.285
 1895SOL     OW 5703   3.250   1.573   4.201
 1895SOL    HW1 5704   3.317   1.585   4.127
 1895SOL    HW2 5705   3.210   1.662   4.224
 1896SOL     OW 5706   3.142   0.927   4.396
 1896SOL    HW1 5707   3.202   0.846   4.398
 1896SOL    HW2 5708   3.182   0.996   4.336
 1897SOL     OW 5709   2.534   1.616   3.878
 1897SOL    HW1 5710   2.543   1.626   3.779
 1897SOL    HW2 5711   2.494   1.527   3.899
 1898SOL     OW 5712   3.703   0.175   4.687
 1898SOL    HW1 5713   3.742   0.090   4.651
 1898SOL    HW2 5714   3.605   0.177   4.668
 1899SOL     OW 5715   2.125   0.326   4.444
 1899SOL    HW1 5716   2.046   0.377   4.410
 1899SOL    HW2 5717   2.116   0.311   4.542
 1900SOL     OW 5718   3.056   1.612   3.755
 1900SOL    HW1 5719   3.062   1.519   3.792
 1900SOL    HW2 5720   2.997   1.612   3.675
 1901SOL     OW 5721   2.778   0.910   4.015
 1901SOL    HW1 5722   2.841   0.948   3.947
 1901SOL    HW2 5723   2.818   0.827   4.054
 1902SOL     OW 5724   3.366   1.607   3.768
 1902SOL    HW1 5725   3.274   1.644   3.775
 1902SOL    HW2 5726   3.404   1.627   3.678
 1903SOL     OW 5727   3.476   1.292   5.013
 1903SOL    HW1 5728   3.536   1.295   5.093
 1903SOL    HW2 5729   3.401   1.356   5.026
 1904SOL     OW 5730   2.901   1.098   4.420
 1904SOL    HW1 5731   2.831   1.051   4.474
 1904SOL    HW2 5732   2.960   1.030   4.377
 1905SOL     OW 5733   2.452   1.487   4.215
 1905SOL    HW1 5734   2.494   1.429   4.145
 1905SOL    HW2 5735   2.408   1.566   4.171
 1906SOL     OW 5736   2.117   1.348   4.014
 1906SOL    HW1 5737   2.021   1.349   3.987
 1906SOL    HW2 5738   2.129   1.401   4.098
 1907SOL     OW 5739   1.937   0.345   3.757
 1907SOL    HW1 5740   1.845   0.317   3.728
 1907SOL    HW2 5741   1.968   0.422   3.701
 1908SOL     OW 5742   1.934   0.166   4.042
 1908SOL    HW1 5743   1.917   0.249   3.988
 1908SOL    HW2 5744   2.024   0.129   4.020
 1909SOL     OW 5745   3.045   1.335   3.843
 1909SOL    HW1 5746   2.946   1.324   3.845
 1909SOL    HW2 5747   3.079   1.350   3.936
 1910SOL     OW 5748   3.536   0.883   4.978
 1910SOL    HW1 5749   3.509   0.794   4.941
 1910SOL    HW2 5750   3.537   0.951   4.905
 1911SOL     OW 5751   3.087   0.325   4.173
 1911SOL    HW1 5752   3.152   0.251   4.162
 1911SOL    HW2 5753   3.107   0.375   4.257
 1912SOL     OW 5754   2.456   0.745   4.376
 1912SOL    HW1 5755   2.506   0.830   4.357
 1912SOL    HW2 5756   2.368   0.747   4.328
 1913SOL     OW 5757   2.721   1.374   3.740
 1913SOL    HW1 5758   2.675   1.389   3.828
 1913SOL    HW2 5759   2.765   1.459   3.710
 1914SOL     OW 5760   2.523   1.790   4.677
 1914SOL    HW1 5761   2.477   1.878   4.664
 1914SOL    HW2 5762   2.622   1.802   4.670
 1915SOL     OW 5763   2.721   0.956   4.585
 1915SOL    HW1 5764   2.775   0.887   4.633
 1915SOL    HW2 5765   2.689   1.025   4.651
 1916SOL     OW 5766   2.945   0.984   3.811
 1916SOL    HW1 5767   2.922   1.037   3.729
 1916SOL    HW2 5768   3.026   0.928   3.792
 1917SOL     OW 5769   3.723   1.569   4.575
 1917SOL    HW1 5770   3.652   1.557   4.505
 1917SOL    HW2 5771   3.724   1.490   4.635
 1918SOL     OW 5772   1.941   1.240   4.377
 1918SOL    HW1 5773   1.940   1.193   4.465
 1918SOL    HW2 5774   2.023   1.212   4.326
 1919SOL     OW 5775   3.686   0.192   4.951
 1919SOL    HW1 5776   3.682   0.102   4.995
 1919SOL    HW2 5777   3.689   0.181   4.852
 1920SOL     OW 5778   2.290   0.424   4.244
 1920SOL    HW1 5779   2.320   0.352   4.182
 1920SOL    HW2 5780   2.251   0.384   4.327
 1921SOL     OW 5781   2.674   1.586   4.411
 1921SOL    HW1 5782   2.706   1.596   4.317
 1921SOL    HW2 5783   2.595   1.524   4.413
 1922SOL     OW 5784   2.632   1.330   4.025
 1922SOL    HW1 5785   2.586   1.243   4.042
 1922SOL    HW2 5786   2.723   1.327   4.066
 1923SOL     OW 5787   3.214   0.052   3.892
 1923SOL    HW1 5788   3.249   0.011   3.808
 1923SOL    HW2 5789   3.124   0.014   3.912
 1924SOL     OW 5790   3.162   0.453   4.415
 1924SOL    HW1 5791   3.103   0.533   4.419
 1924SOL    HW2 5792   3.177   0.418   4.508
 1925SOL     OW 5793   3.455   0.221   4.606
 1925SOL    HW1 5794   3.371   0.220   4.660
 1925SOL    HW2 5795   3.457   0.304   4.550
 1926SOL     OW 5796   1.901   1.077   4.024
 1926SOL    HW1 5797   2.000   1.066   4.015
 1926SOL    HW2 5798   1.861   0.991   4.056
 1927SOL     OW 5799   2.737   1.646   4.061
 1927SOL    HW1 5800   2.660   1.611   4.007
 1927SOL    HW2 5801   2.705   1.717   4.123
 1928SOL     OW 5802   2.092   2.490   0.113
 1928SOL    HW1 5803   1.999   2.488   0.150
 1928SOL    HW2 5804   2.093   2.451   0.021
 1929SOL     OW 5805   2.087   2.137   0.996
 1929SOL    HW1 5806   2.122   2.120   1.088
 1929SOL    HW2 5807   1.999   2.092   0.984
 1930SOL     OW 5808   1.881   2.230   0.647
 1930SOL    HW1 5809   1.799   2.273   0.686
 1930SOL    HW2 5810   1.853   2.157   0.584
 1931SOL     OW 5811   2.431   3.137   1.165
 1931SOL    HW1 5812   2.338   3.130   1.128
 1931SOL    HW2 5813   2.442   3.226   1.209
 1932SOL     OW 5814   3.417   3.373   0.703
 1932SOL    HW1 5815   3.360   3.357   0.784
 1932SOL    HW2 5816   3.358   3.383   0.623
 1933SOL     OW 5817   2.997   2.565   0.717
 1933SOL    HW1 5818   3.054   2.643   0.692
 1933SOL    HW2 5819   2.937   2.591   0.793
 1934SOL     OW 5820   3.617   2.469   0.231
 1934SOL    HW1 5821   3.605   2.456   0.132
 1934SOL    HW2 5822   3.587   2.388   0.280
 1935SOL     OW 5823   2.630   3.006   1.023
 1935SOL    HW1 5824   2.552   3.023   1.083
 1935SOL    HW2 5825   2.664   3.093   0.987
 1936SOL     OW 5826   2.712   2.660   1.823
 1936SOL    HW1 5827   2.708   2.736   1.888
 1936SOL    HW2 5828   2.734   2.696   1.732
 1937SOL     OW 5829   2.547   2.874   0.665
 1937SOL    HW1 5830   2.616   2.858   0.735
 1937SOL    HW2 5831   2.474   2.931   0.703
 1938SOL     OW 5832   2.548   3.023   1.803
 1938SOL    HW1 5833   2.608   3.102   1.817
 1938SOL    HW2 5834   2.462   3.054   1.762
 1939SOL     OW 5835   2.197   3.297   1.061
 1939SOL    HW1 5836   2.119   3.266   1.008
 1939SOL    HW2 5837   2.255   3.355   1.004
 1940SOL     OW 5838   3.322   3.367   1.339
 1940SOL    HW1 5839   3.346   3.461   1.365
 1940SOL    HW2 5840   3.306   3.313   1.421
 1941SOL     OW 5841   2.300   2.254   1.499
 1941SOL    HW1 5842   2.382   2.198   1.508
 1941SOL    HW2 5843   2.219   2.196   1.503
 1942SOL     OW 5844   3.465   2.309   0.737
 1942SOL    HW1 5845   3.391   2.355   0.687
 1942SOL    HW2 5846   3.516   2.377   0.790
 1943SOL     OW 5847   2.093   3.575   0.483
 1943SOL    HW1 5848   2.127   3.652   0.537
 1943SOL    HW2 5849   2.137   3.575   0.393
 1944SOL     OW 5850   2.989   3.203   1.690
 1944SOL    HW1 5851   3.036   3.203   1.778
 1944SOL    HW2 5852   2.941   3.116   1.679
 1945SOL     OW 5853   2.092   3.296   0.538
 1945SOL    HW1 5854   2.066   3.392   0.538
 1945SOL    HW2 5855   2.021   3.242   0.583
 1946SOL     OW 5856   2.102   2.953   0.886
 1946SOL    HW1 5857   2.116   2.869   0.938
 1946SOL    HW2 5858   2.047   3.017   0.941
 1947SOL     OW 5859   2.482   3.648   1.439
 1947SOL    HW1 5860   2.390   3.631   1.474
 1947SOL    HW2 5861   2.510   3.740   1.465
 1948SOL     OW 5862   2.468   2.826   0.123
 1948SOL    HW1 5863   2.475   2.910   0.069
 1948SOL    HW2 5864   2.514   2.839   0.211
 1949SOL     OW 5865   3.456   1.976   1.480
 1949SOL    HW1 5866   3.438   2.043   1.408
 1949SOL    HW2 5867   3.453   2.022   1.569
 1950SOL     OW 5868   1.984   2.505   0.563
 1950SOL    HW1 5869   1.939   2.417   0.580
 1950SOL    HW2 5870   1.983   2.559   0.647
 1951SOL     OW 5871   3.704   3.629   0.359
 1951SOL    HW1 5872   3.758   3.600   0.439
 1951SOL    HW2 5873   3.734   3.719   0.330
 1952SOL     OW 5874   1.889   3.458   0.117
 1952SOL    HW1 5875   1.870   3.362   0.138
 1952SOL    HW2 5876   1.856   3.516   0.192
 1953SOL     OW 5877   3.551   2.784   0.612
 1953SOL    HW1 5878   3.646   2.755   0.620
 1953SOL    HW2 5879   3.543   2.849   0.537
 1954SOL     OW 5880   3.503   2.970   0.432
 1954SOL    HW1 5881   3.589   2.972   0.380
 1954SOL    HW2 5882   3.517   3.017   0.520
 1955SOL     OW 5883   1.975   2.599   1.597
 1955SOL    HW1 5884   2.063   2.586   1.642
 1955SOL    HW2 5885   1.962   2.696   1.575
 1956SOL     OW 5886   2.475   3.227   0.726
 1956SOL    HW1 5887   2.426   3.140   0.735
 1956SOL    HW2 5888   2.452   3.270   0.639
 1957SOL     OW 5889   3.155   3.090   1.423
 1957SOL    HW1 5890   3.192   3.017   1.365
 1957SOL    HW2 5891   3.207   3.095   1.508
 1958SOL     OW 5892   2.671   1.866   0.502
 1958SOL    HW1 5893   2.711   1.957   0.493
 1958SOL    HW2 5894   2.571   1.874   0.508
 1959SOL     OW 5895   2.059   2.838   1.264
 1959SOL    HW1 5896   2.148   2.793   1.250
 1959SOL    HW2 5897   1.986   2.773   1.245
 1960SOL     OW 5898   3.387   2.861   0.190
 1960SOL    HW1 5899   3.324   2.785   0.203
 1960SOL    HW2 5900   3.435   2.879   0.276
 1961SOL     OW 5901   3.049   3.654   1.616
 1961SOL    HW1 5902   3.073   3.714   1.540
 1961SOL    HW2 5903   3.056   3.559   1.586
 1962SOL     OW 5904   2.179   2.113   1.801
 1962SOL    HW1 5905   2.250   2.184   1.807
 1962SOL    HW2 5906   2.091   2.152   1.829
 1963SOL     OW 5907   3.328   3.279   0.953
 1963SOL    HW1 5908   3.269   3.285   1.033
 1963SOL    HW2 5909   3.313   3.191   0.907
 1964SOL     OW 5910   3.529   3.576   0.572
 1964SOL    HW1 5911   3.488   3.553   0.484
 1964SOL    HW2 5912   3.511   3.502   0.637
 1965SOL     OW 5913   2.460   2.591   0.270
 1965SOL    HW1 5914   2.484   2.660   0.202
 1965SOL    HW2 5915   2.382   2.624   0.324
 1966SOL     OW 5916   3.143   2.207   0.944
 1966SOL    HW1 5917   3.057   2.157   0.931
 1966SOL    HW2 5918   3.205   2.153   1.000
 1967SOL     OW 5919   3.438   3.524   0.307
 1967SOL    HW1 5920   3.527   3.570   0.310
 1967SOL    HW2 5921   3.417   3.500   0.212
 1968SOL     OW 5922   2.669   2.467   1.465
 1968SOL    HW1 5923   2.622   2.464   1.554
 1968SOL    HW2 5924   2.618   2.412   1.399
 1969SOL     OW 5925   3.256   2.331   1.674
 1969SOL    HW1 5926   3.236   2.374   1.762
 1969SOL    HW2 5927   3.334   2.269   1.683
 1970SOL     OW 5928   2.835   2.752   1.572
 1970SOL    HW1 5929   2.881   2.668   1.543
 1970SOL    HW2 5930   2.779   2.786   1.497
 1971SOL     OW 5931   2.853   2.272   1.242
 1971SOL    HW1 5932   2.776   2.306   1.296
 1971SOL    HW2 5933   2.819   2.221   1.163
 1972SOL     OW 5934   2.903   2.563   0.429
 1972SOL    HW1 5935   2.929   2.559   0.525
 1972SOL    HW2 5936   2.818   2.512   0.415
 1973SOL     OW 5937   1.938   2.673   0.789
 1973SOL    HW1 5938   2.037   2.661   0.798
 1973SOL    HW2 5939   1.914   2.768   0.810
 1974SOL     OW 5940   1.992   3.683   1.571
 1974SOL    HW1 5941   1.982   3.668   1.670
 1974SOL    HW2 5942   1.906   3.719   1.535
 1975SOL     OW 5943   2.727   2.210   0.195
 1975SOL    HW1 5944   2.786   2.273   0.146
 1975SOL    HW2 5945   2.746   2.116   0.166
 1976SOL     OW 5946   3.581   2.447   1.831
 1976SOL    HW1 5947   3.555   2.536   1.795
 1976SOL    HW2 5948   3.579   2.379   1.758
 1977SOL     OW 5949   3.224   3.006   0.545
 1977SOL    HW1 5950   3.307   2.977   0.497
 1977SOL    HW2 5951   3.175   3.073   0.489
 1978SOL     OW 5952   2.412   2.058   0.885
 1978SOL    HW1 5953   2.407   2.053   0.985
 1978SOL    HW2 5954   2.414   2.154   0.856
 1979SOL     OW 5955   2.870   3.318   0.477
 1979SOL    HW1 5956   2.824   3.390   0.425
 1979SOL    HW2 5957   2.866   3.338   0.575
 1980SOL     OW 5958   2.213   3.663   0.853
 1980SOL    HW1 5959   2.263   3.577   0.859
 1980SOL    HW2 5960   2.278   3.740   0.850
 1981SOL     OW 5961   3.657   2.928   0.873
 1981SOL    HW1 5962   3.595   2.913   0.797
 1981SOL    HW2 5963   3.605   2.939   0.958
 1982SOL     OW 5964   3.089   3.412   1.506
 1982SOL    HW1 5965   3.095   3.335   1.570
 1982SOL    HW2 5966   3.037   3.386   1.426
 1983SOL     OW 5967   2.183   2.805   0.242
 1983SOL    HW1 5968   2.265   2.844   0.200
 1983SOL    HW2 5969   2.156   2.723   0.193
 1984SOL     OW 5970   3.320   2.597   0.728
 1984SOL    HW1 5971   3.315   2.532   0.803
 1984SOL    HW2 5972   3.400   2.656   0.741
 1985SOL     OW 5973   2.323   3.128   1.727
 1985SOL    HW1 5974   2.273   3.129   1.641
 1985SOL    HW2 5975   2.260   3.110   1.803
 1986SOL     OW 5976   2.973   3.638   0.237
 1986SOL    HW1 5977   2.913   3.576   0.287
 1986SOL    HW2 5978   3.004   3.594   0.152
 1987SOL     OW 5979   2.064   2.147   1.498
 1987SOL    HW1 5980   1.984   2.207   1.485
 1987SOL    HW2 5981   2.054   2.098   1.584
 1988SOL     OW 5982   3.494   3.239   0.081
 1988SOL    HW1 5983   3.462   3.333   0.071
 1988SOL    HW2 5984   3.418   3.176   0.069
 1989SOL     OW 5985   2.326   3.605   0.323
 1989SOL    HW1 5986   2.359   3.644   0.409
 1989SOL    HW2 5987   2.402   3.598   0.258
 1990SOL     OW 5988   3.262   1.969   0.426
 1990SOL    HW1 5989   3.238   1.932   0.336
 1990SOL    HW2 5990   3.361   1.985   0.430
 1991SOL     OW 5991   2.111   3.647   1.241
 1991SOL    HW1 5992   2.168   3.582   1.291
 1991SOL    HW2 5993   2.095   3.614   1.148
 1992SOL     OW 5994   2.802   3.560   0.904
 1992SOL    HW1 5995   2.882   3.503   0.925
 1992SOL    HW2 5996   2.753   3.520   0.827
 1993SOL     OW 5997   2.244   2.562   0.480
 1993SOL    HW1 5998   2.289   2.472   0.477
 1993SOL    HW2 5999   2.150   2.551   0.513
 1994SOL     OW 6000   3.409   2.084   1.729
 1994SOL    HW1 6001   3.404   2.121   1.821
 1994SOL    HW2 6002   3.337   2.015   1.717
 1995SOL     OW 6003   2.476   1.984   0.117
 1995SOL    HW1 6004   2.574   1.962   0.124
 1995SOL    HW2 6005   2.445   1.967   0.024
 1996SOL     OW 6006   2.643   2.126   1.749
 1996SOL    HW1 6007   2.710   2.065   1.792
 1996SOL    HW2 6008   2.570   2.145   1.814
 1997SOL     OW 6009   2.750   3.376   1.195
 1997SOL    HW1 6010   2.727   3.351   1.101
 1997SOL    HW2 6011   2.811   3.307   1.234
 1998SOL     OW 6012   3.213   2.452   1.433
 1998SOL    HW1 6013   3.241   2.409   1.518
 1998SOL    HW2 6014   3.238   2.548   1.434
 1999SOL     OW 6015   2.665   3.264   0.924
 1999SOL    HW1 6016   2.755   3.278   0.882
 1999SOL    HW2 6017   2.594   3.266   0.853
 2000SOL     OW 6018   2.784   2.365   0.899
 2000SOL    HW1 6019   2.759   2.356   0.803
 2000SOL    HW2 6020   2.832   2.283   0.930
 2001SOL     OW 6021   2.401   1.926   0.512
 2001SOL    HW1 6022   2.320   1.927   0.570
 2001SOL    HW2 6023   2.404   2.009   0.457
 2002SOL     OW 6024   3.296   3.050   0.041
 2002SOL    HW1 6025   3.328   2.974   0.098
 2002SOL    HW2 6026   3.204   3.077   0.071
 2003SOL     OW 6027   2.797   2.098   0.480
 2003SOL    HW1 6028   2.749   2.139   0.402
 2003SOL    HW2 6029   2.896   2.096   0.461
 2004SOL     OW 6030   2.938   2.545   1.464
 2004SOL    HW1 6031   2.858   2.484   1.467
 2004SOL    HW2 6032   3.019   2.492   1.440
 2005SOL     OW 6033   3.089   3.432   0.793
 2005SOL    HW1 6034   3.110   3.506   0.728
 2005SOL    HW2 6035   3.157   3.432   0.866
 2006SOL     OW 6036   2.321   3.014   0.741
 2006SOL    HW1 6037   2.250   2.987   0.806
 2006SOL    HW2 6038   2.295   2.986   0.648
 2007SOL     OW 6039   3.133   3.659   0.591
 2007SOL    HW1 6040   3.177   3.723   0.527
 2007SOL    HW2 6041   3.083   3.711   0.661
 2008SOL     OW 6042   2.894   2.411   0.016
 2008SOL    HW1 6043   2.853   2.493  -0.023
 2008SOL    HW2 6044   2.958   2.437   0.089
 2009SOL     OW 6045   1.940   2.418   1.386
 2009SOL    HW1 6046   2.032   2.417   1.345
 2009SOL    HW2 6047   1.934   2.492   1.453
 2010SOL     OW 6048   2.423   2.084   1.147
 2010SOL    HW1 6049   2.461   2.000   1.184
 2010SOL    HW2 6050   2.335   2.103   1.191
 2011SOL     OW 6051   2.728   2.316   0.642
 2011SOL    HW1 6052   2.696   2.388   0.580
 2011SOL    HW2 6053   2.752   2.235   0.589
 2012SOL     OW 6054   2.879   1.901   0.753
 2012SOL    HW1 6055   2.807   1.906   0.684
 2012SOL    HW2 6056   2.855   1.832   0.822
 2013SOL     OW 6057   3.291   3.035   0.867
 2013SOL    HW1 6058   3.236   2.951   0.860
 2013SOL    HW2 6059   3.317   3.064   0.775
 2014SOL     OW 6060   3.328   2.452   0.992
 2014SOL    HW1 6061   3.298   2.357   0.999
 2014SOL    HW2 6062   3.401   2.468   1.058
 2015SOL     OW 6063   3.719   2.695   0.377
 2015SOL    HW1 6064   3.761   2.631   0.441
 2015SOL    HW2 6065   3.681   2.644   0.299
 2016SOL     OW 6066   2.350   3.247   0.174
 2016SOL    HW1 6067   2.263   3.232   0.221
 2016SOL    HW2 6068   2.333   3.273   0.079
 2017SOL     OW 6069   3.526   3.142   0.657
 2017SOL    HW1 6070   3.625   3.150   0.671
 2017SOL    HW2 6071   3.481   3.226   0.688
 2018SOL     OW 6072   3.252   2.437   0.078
 2018SOL    HW1 6073   3.198   2.416   0.159
 2018SOL    HW2 6074   3.343   2.396   0.087
 2019SOL     OW 6075   2.389   2.118   0.328
 2019SOL    HW1 6076   2.416   2.059   0.253
 2019SOL    HW2 6077   2.389   2.213   0.297
 2020SOL     OW 6078   3.616   3.085   1.588
 2020SOL    HW1 6079   3.707   3.046   1.575
 2020SOL    HW2 6080   3.624   3.181   1.612
 2021SOL     OW 6081   2.926   3.209   1.340
 2021SOL    HW1 6082   2.846   3.186   1.395
 2021SOL    HW2 6083   3.009   3.183   1.389
 2022SOL     OW 6084   3.454   3.491   1.625
 2022SOL    HW1 6085   3.481   3.525   1.535
 2022SOL    HW2 6086   3.533   3.453   1.671
 2023SOL     OW 6087   2.973   3.057   1.100
 2023SOL    HW1 6088   2.933   3.101   1.181
 2023SOL    HW2 6089   2.932   3.094   1.017
 2024SOL     OW 6090   3.500   2.961   1.079
 2024SOL    HW1 6091   3.505   3.042   1.138
 2024SOL    HW2 6092   3.414   2.963   1.028
 2025SOL     OW 6093   2.777   1.951   1.402
 2025SOL    HW1 6094   2.802   1.931   1.307
 2025SOL    HW2 6095   2.849   2.007   1.444
 2026SOL     OW 6096   2.842   2.978   1.719
 2026SOL    HW1 6097   2.743   2.984   1.729
 2026SOL    HW2 6098   2.865   2.898   1.663
 2027SOL     OW 6099   2.567   2.912   0.368
 2027SOL    HW1 6100   2.553   2.919   0.467
 2027SOL    HW2 6101   2.651   2.861   0.350
 2028SOL     OW 6102   2.272   2.675   1.251
 2028SOL    HW1 6103   2.358   2.687   1.301
 2028SOL    HW2 6104   2.230   2.588   1.278
 2029SOL     OW 6105   3.136   2.248   1.262
 2029SOL    HW1 6106   3.157   2.322   1.326
 2029SOL    HW2 6107   3.047   2.265   1.219
 2030SOL     OW 6108   1.926   3.426   1.331
 2030SOL    HW1 6109   1.880   3.508   1.297
 2030SOL    HW2 6110   2.024   3.445   1.340
 2031SOL     OW 6111   2.229   2.962   0.501
 2031SOL    HW1 6112   2.222   3.045   0.445
 2031SOL    HW2 6113   2.233   2.882   0.441
 2032SOL     OW 6114   2.428   2.399   0.865
 2032SOL    HW1 6115   2.440   2.465   0.791
 2032SOL    HW2 6116   2.474   2.433   0.948
 2033SOL     OW 6117   3.114   3.210   0.388
 2033SOL    HW1 6118   3.164   3.287   0.428
 2033SOL    HW2 6119   3.019   3.212   0.420
 2034SOL     OW 6120   3.134   3.307   1.142
 2034SOL    HW1 6121   3.181   3.320   1.229
 2034SOL    HW2 6122   3.068   3.233   1.151
 2035SOL     OW 6123   3.444   2.501   0.472
 2035SOL    HW1 6124   3.413   2.562   0.545
 2035SOL    HW2 6125   3.494   2.553   0.403
 2036SOL     OW 6126   2.216   3.372   1.329
 2036SOL    HW1 6127   2.195   3.328   1.242
 2036SOL    HW2 6128   2.313   3.398   1.332
 2037SOL     OW 6129   2.264   2.613   1.598
 2037SOL    HW1 6130   2.332   2.668   1.551
 2037SOL    HW2 6131   2.304   2.525   1.625
 2038SOL     OW 6132   3.449   2.641   1.670
 2038SOL    HW1 6133   3.357   2.679   1.665
 2038SOL    HW2 6134   3.509   2.688   1.605
 2039SOL     OW 6135   2.875   1.967   1.770
 2039SOL    HW1 6136   2.881   2.052   1.718
 2039SOL    HW2 6137   2.907   1.891   1.713
 2040SOL     OW 6138   2.366   1.912   1.740
 2040SOL    HW1 6139   2.324   1.855   1.670
 2040SOL    HW2 6140   2.300   1.981   1.772
 2041SOL     OW 6141   2.435   2.732   1.029
 2041SOL    HW1 6142   2.479   2.821   1.020
 2041SOL    HW2 6143   2.372   2.732   1.106
 2042SOL     OW 6144   3.222   2.724   1.045
 2042SOL    HW1 6145   3.147   2.724   0.979
 2042SOL    HW2 6146   3.259   2.632   1.054
 2043SOL     OW 6147   3.071   2.387   0.275
 2043SOL    HW1 6148   3.084   2.303   0.329
 2043SOL    HW2 6149   3.042   2.461   0.335
 2044SOL     OW 6150   2.169   2.075   1.231
 2044SOL    HW1 6151   2.146   2.112   1.321
 2044SOL    HW2 6152   2.139   1.980   1.225
 2045SOL     OW 6153   1.899   3.172   1.282
 2045SOL    HW1 6154   1.952   3.123   1.350
 2045SOL    HW2 6155   1.921   3.270   1.287
 2046SOL     OW 6156   2.594   2.496   1.064
 2046SOL    HW1 6157   2.653   2.470   0.988
 2046SOL    HW2 6158   2.566   2.592   1.053
 2047SOL     OW 6159   3.590   2.797   1.854
 2047SOL    HW1 6160   3.544   2.790   1.765
 2047SOL    HW2 6161   3.528   2.841   1.920
 2048SOL     OW 6162   2.169   1.925   0.618
 2048SOL    HW1 6163   2.158   2.019   0.651
 2048SOL    HW2 6164   2.164   1.862   0.695
 2049SOL     OW 6165   3.484   2.229   0.374
 2049SOL    HW1 6166   3.486   2.153   0.438
 2049SOL    HW2 6167   3.436   2.306   0.414
 2050SOL     OW 6168   2.885   2.628   0.966
 2050SOL    HW1 6169   2.900   2.649   1.062
 2050SOL    HW2 6170   2.855   2.533   0.957
 2051SOL     OW 6171   2.842   3.435   1.700
 2051SOL    HW1 6172   2.822   3.479   1.612
 2051SOL    HW2 6173   2.881   3.344   1.684
 2052SOL     OW 6174   3.721   3.380   1.605
 2052SOL    HW1 6175   3.735   3.407   1.510
 2052SOL    HW2 6176   3.804   3.402   1.658
 2053SOL     OW 6177   2.212   2.760   1.804
 2053SOL    HW1 6178   2.288   2.804   1.852
 2053SOL    HW2 6179   2.247   2.713   1.722
 2054SOL     OW 6180   3.402   2.136   0.125
 2054SOL    HW1 6181   3.341   2.061   0.148
 2054SOL    HW2 6182   3.424   2.188   0.208
 2055SOL     OW 6183   3.165   2.700   0.042
 2055SOL    HW1 6184   3.199   2.607   0.057
 2055SOL    HW2 6185   3.183   2.727  -0.053
 2056SOL     OW 6186   2.930   3.195   0.849
 2056SOL    HW1 6187   2.937   3.111   0.794
 2056SOL    HW2 6188   2.992   3.264   0.813
 2057SOL     OW 6189   2.181   2.672   0.949
 2057SOL    HW1 6190   2.274   2.708   0.954
 2057SOL    HW2 6191   2.175   2.587   1.001
 2058SOL     OW 6192   2.201   2.371   1.006
 2058SOL    HW1 6193   2.149   2.288   0.989
 2058SOL    HW2 6194   2.278   2.376   0.942
 2059SOL     OW 6195   3.000   2.242   1.678
 2059SOL    HW1 6196   2.955   2.305   1.742
 2059SOL    HW2 6197   3.093   2.273   1.661
 2060SOL     OW 6198   3.022   2.069   1.477
 2060SOL    HW1 6199   3.022   2.133   1.554
 2060SOL    HW2 6200   3.050   2.117   1.394
 2061SOL     OW 6201   1.870   3.188   0.200
 2061SOL    HW1 6202   1.777   3.209   0.169
 2061SOL    HW2 6203   1.880   3.089   0.213
 2062SOL     OW 6204   1.950   3.663   0.927
 2062SOL    HW1 6205   1.908   3.577   0.900
 2062SOL    HW2 6206   2.044   3.666   0.893
 2063SOL     OW 6207   2.366   3.430   0.910
 2063SOL    HW1 6208   2.432   3.504   0.919
 2063SOL    HW2 6209   2.410   3.351   0.868
 2064SOL     OW 6210   2.864   2.658   1.238
 2064SOL    HW1 6211   2.905   2.626   1.324
 2064SOL    HW2 6212   2.768   2.631   1.235
 2065SOL     OW 6213   1.902   2.406   1.114
 2065SOL    HW1 6214   1.987   2.373   1.073
 2065SOL    HW2 6215   1.915   2.421   1.212
 2066SOL     OW 6216   2.051   2.382   1.722
 2066SOL    HW1 6217   2.110   2.342   1.652
 2066SOL    HW2 6218   1.993   2.453   1.681
 2067SOL     OW 6219   3.231   2.812   1.660
 2067SOL    HW1 6220   3.270   2.901   1.680
 2067SOL    HW2 6221   3.241   2.792   1.563
 2068SOL     OW 6222   2.677   2.434   0.325
 2068SOL    HW1 6223   2.684   2.345   0.279
 2068SOL    HW2 6224   2.583   2.468   0.317
 2069SOL     OW 6225   3.519   2.466   1.206
 2069SOL    HW1 6226   3.481   2.397   1.268
 2069SOL    HW2 6227   3.601   2.430   1.162
 2070SOL     OW 6228   2.114   3.426   1.744
 2070SOL    HW1 6229   2.084   3.483   1.820
 2070SOL    HW2 6230   2.107   3.329   1.770
 2071SOL     OW 6231   2.533   2.326   1.269
 2071SOL    HW1 6232   2.499   2.237   1.239
 2071SOL    HW2 6233   2.559   2.380   1.189
 2072SOL     OW 6234   2.792   3.540   1.465
 2072SOL    HW1 6235   2.768   3.522   1.370
 2072SOL    HW2 6236   2.822   3.634   1.475
 2073SOL     OW 6237   2.335   2.362   0.191
 2073SOL    HW1 6238   2.396   2.442   0.195
 2073SOL    HW2 6239   2.240   2.393   0.198
 2074SOL     OW 6240   2.021   2.999   1.466
 2074SOL    HW1 6241   2.043   2.938   1.542
 2074SOL    HW2 6242   2.031   2.950   1.380
 2075SOL     OW 6243   3.209   2.921   1.234
 2075SOL    HW1 6244   3.233   2.858   1.160
 2075SOL    HW2 6245   3.119   2.961   1.216
 2076SOL     OW 6246   3.164   2.717   0.309
 2076SOL    HW1 6247   3.078   2.686   0.351
 2076SOL    HW2 6248   3.160   2.703   0.210
 2077SOL     OW 6249   3.621   3.609   1.154
 2077SOL    HW1 6250   3.682   3.639   1.081
 2077SOL    HW2 6251   3.583   3.520   1.132
 2078SOL     OW 6252   3.114   3.593   1.128
 2078SOL    HW1 6253   3.198   3.598   1.074
 2078SOL    HW2 6254   3.091   3.497   1.146
 2079SOL     OW 6255   1.945   3.120   1.022
 2079SOL    HW1 6256   1.940   3.119   1.122
 2079SOL    HW2 6257   1.862   3.079   0.984
 2080SOL     OW 6258   2.550   3.524   1.716
 2080SOL    HW1 6259   2.494   3.605   1.725
 2080SOL    HW2 6260   2.602   3.528   1.630
 2081SOL     OW 6261   2.765   1.948   0.133
 2081SOL    HW1 6262   2.816   1.949   0.047
 2081SOL    HW2 6263   2.821   1.906   0.204
 2082SOL     OW 6264   3.588   1.997   0.523
 2082SOL    HW1 6265   3.661   1.980   0.456
 2082SOL    HW2 6266   3.557   1.910   0.561
 2083SOL     OW 6267   3.250   3.435   0.477
 2083SOL    HW1 6268   3.317   3.447   0.403
 2083SOL    HW2 6269   3.210   3.524   0.500
 2084SOL     OW 6270   1.992   3.656   1.851
 2084SOL    HW1 6271   1.951   3.582   1.904
 2084SOL    HW2 6272   2.056   3.707   1.909
 2085SOL     OW 6273   3.142   2.789   0.672
 2085SOL    HW1 6274   3.202   2.708   0.674
 2085SOL    HW2 6275   3.182   2.858   0.612
 2086SOL     OW 6276   2.692   3.135   1.422
 2086SOL    HW1 6277   2.687   3.168   1.517
 2086SOL    HW2 6278   2.606   3.154   1.376
 2087SOL     OW 6279   2.534   3.478   0.154
 2087SOL    HW1 6280   2.543   3.488   0.055
 2087SOL    HW2 6281   2.494   3.389   0.175
 2088SOL     OW 6282   3.512   3.582   1.394
 2088SOL    HW1 6283   3.565   3.592   1.310
 2088SOL    HW2 6284   3.485   3.672   1.428
 2089SOL     OW 6285   3.703   2.037   0.963
 2089SOL    HW1 6286   3.742   1.952   0.927
 2089SOL    HW2 6287   3.605   2.039   0.944
 2090SOL     OW 6288   2.125   2.188   0.720
 2090SOL    HW1 6289   2.046   2.239   0.686
 2090SOL    HW2 6290   2.116   2.173   0.818
 2091SOL     OW 6291   3.056   3.474   0.031
 2091SOL    HW1 6292   3.062   3.381   0.068
 2091SOL    HW2 6293   2.997   3.474  -0.049
 2092SOL     OW 6294   2.684   2.864   1.372
 2092SOL    HW1 6295   2.724   2.863   1.280
 2092SOL    HW2 6296   2.694   2.956   1.412
 2093SOL     OW 6297   2.778   2.772   0.291
 2093SOL    HW1 6298   2.841   2.810   0.223
 2093SOL    HW2 6299   2.818   2.689   0.330
 2094SOL     OW 6300   3.366   3.469   0.044
 2094SOL    HW1 6301   3.274   3.506   0.051
 2094SOL    HW2 6302   3.404   3.489  -0.046
 2095SOL     OW 6303   2.234   3.150   1.490
 2095SOL    HW1 6304   2.221   3.243   1.456
 2095SOL    HW2 6305   2.150   3.098   1.477
 2096SOL     OW 6306   3.476   3.154   1.289
 2096SOL    HW1 6307   3.536   3.157   1.369
 2096SOL    HW2 6308   3.401   3.218   1.302
 2097SOL     OW 6309   2.901   2.960   0.696
 2097SOL    HW1 6310   2.831   2.913   0.750
 2097SOL    HW2 6311   2.960   2.892   0.653
 2098SOL     OW 6312   2.876   2.098   0.971
 2098SOL    HW1 6313   2.868   2.062   0.878
 2098SOL    HW2 6314   2.874   2.022   1.036
 2099SOL     OW 6315   2.452   3.349   0.491
 2099SOL    HW1 6316   2.494   3.291   0.421
 2099SOL    HW2 6317   2.408   3.428   0.447
 2100SOL     OW 6318   3.571   2.247   1.381
 2100SOL    HW1 6319   3.644   2.316   1.385
 2100SOL    HW2 6320   3.599   2.172   1.322
 2101SOL     OW 6321   2.117   3.210   0.290
 2101SOL    HW1 6322   2.021   3.211   0.263
 2101SOL    HW2 6323   2.129   3.263   0.374
 2102SOL     OW 6324   1.967   2.875   1.726
 2102SOL    HW1 6325   1.890   2.842   1.780
 2102SOL    HW2 6326   2.052   2.845   1.768
 2103SOL     OW 6327   2.534   2.065   1.489
 2103SOL    HW1 6328   2.624   2.049   1.449
 2103SOL    HW2 6329   2.542   2.070   1.588
 2104SOL     OW 6330   1.937   2.207   0.033
 2104SOL    HW1 6331   1.845   2.179   0.004
 2104SOL    HW2 6332   1.968   2.284  -0.023
 2105SOL     OW 6333   3.302   2.718   1.398
 2105SOL    HW1 6334   3.245   2.770   1.335
 2105SOL    HW2 6335   3.398   2.730   1.374
 2106SOL     OW 6336   3.045   3.197   0.119
 2106SOL    HW1 6337   2.946   3.186   0.121
 2106SOL    HW2 6338   3.079   3.212   0.212
 2107SOL     OW 6339   2.475   2.704   1.431
 2107SOL    HW1 6340   2.531   2.785   1.414
 2107SOL    HW2 6341   2.534   2.624   1.434
 2108SOL     OW 6342   3.355   3.629   0.959
 2108SOL    HW1 6343   3.388   3.693   0.890
 2108SOL    HW2 6344   3.421   3.623   1.034
 2109SOL     OW 6345   2.578   2.427   1.708
 2109SOL    HW1 6346   2.597   2.492   1.782
 2109SOL    HW2 6347   2.638   2.347   1.717
 2110SOL     OW 6348   3.312   3.082   1.633
 2110SOL    HW1 6349   3.303   3.072   1.732
 2110SOL    HW2 6350   3.408   3.075   1.607
 2111SOL     OW 6351   2.252   3.603   1.560
 2111SOL    HW1 6352   2.161   3.644   1.558
 2111SOL    HW2 6353   2.245   3.509   1.592
 2112SOL     OW 6354   3.536   2.745   1.254
 2112SOL    HW1 6355   3.509   2.656   1.217
 2112SOL    HW2 6356   3.537   2.813   1.181
 2113SOL     OW 6357   3.087   2.187   0.449
 2113SOL    HW1 6358   3.152   2.113   0.438
 2113SOL    HW2 6359   3.107   2.237   0.533
 2114SOL     OW 6360   2.456   2.607   0.652
 2114SOL    HW1 6361   2.506   2.692   0.633
 2114SOL    HW2 6362   2.368   2.609   0.604
 2115SOL     OW 6363   3.639   2.204   1.642
 2115SOL    HW1 6364   3.622   2.235   1.548
 2115SOL    HW2 6365   3.555   2.167   1.680
 2116SOL     OW 6366   3.592   2.796   1.517
 2116SOL    HW1 6367   3.630   2.887   1.532
 2116SOL    HW2 6368   3.584   2.779   1.418
 2117SOL     OW 6369   2.721   3.236   0.016
 2117SOL    HW1 6370   2.675   3.251   0.104
 2117SOL    HW2 6371   2.765   3.321  -0.014
 2118SOL     OW 6372   2.523   3.652   0.953
 2118SOL    HW1 6373   2.477   3.740   0.940
 2118SOL    HW2 6374   2.622   3.664   0.946
 2119SOL     OW 6375   2.721   2.818   0.861
 2119SOL    HW1 6376   2.775   2.749   0.909
 2119SOL    HW2 6377   2.689   2.887   0.927
 2120SOL     OW 6378   2.945   2.846   0.087
 2120SOL    HW1 6379   2.922   2.899   0.005
 2120SOL    HW2 6380   3.026   2.790   0.068
 2121SOL     OW 6381   3.723   3.431   0.851
 2121SOL    HW1 6382   3.652   3.419   0.781
 2121SOL    HW2 6383   3.724   3.352   0.911
 2122SOL     OW 6384   2.083   3.176   1.844
 2122SOL    HW1 6385   2.018   3.103   1.823
 2122SOL    HW2 6386   2.087   3.190   1.942
 2123SOL     OW 6387   1.941   3.102   0.653
 2123SOL    HW1 6388   1.940   3.055   0.741
 2123SOL    HW2 6389   2.023   3.074   0.602
 2124SOL     OW 6390   2.534   3.253   1.624
 2124SOL    HW1 6391   2.456   3.203   1.662
 2124SOL    HW2 6392   2.531   3.348   1.655
 2125SOL     OW 6393   3.686   2.054   1.227
 2125SOL    HW1 6394   3.682   1.964   1.271
 2125SOL    HW2 6395   3.689   2.043   1.128
 2126SOL     OW 6396   2.290   2.286   0.520
 2126SOL    HW1 6397   2.320   2.214   0.458
 2126SOL    HW2 6398   2.251   2.246   0.603
 2127SOL     OW 6399   3.567   3.349   1.104
 2127SOL    HW1 6400   3.474   3.324   1.077
 2127SOL    HW2 6401   3.593   3.299   1.186
 2128SOL     OW 6402   2.179   2.409   1.280
 2128SOL    HW1 6403   2.217   2.350   1.352
 2128SOL    HW2 6404   2.219   2.383   1.192
 2129SOL     OW 6405   2.674   3.448   0.687
 2129SOL    HW1 6406   2.706   3.458   0.593
 2129SOL    HW2 6407   2.595   3.386   0.689
 2130SOL     OW 6408   3.286   2.076   1.112
 2130SOL    HW1 6409   3.338   2.011   1.167
 2130SOL    HW2 6410   3.237   2.139   1.173
 2131SOL     OW 6411   2.863   1.896   1.154
 2131SOL    HW1 6412   2.800   1.824   1.123
 2131SOL    HW2 6413   2.956   1.860   1.154
 2132SOL     OW 6414   2.632   3.192   0.301
 2132SOL    HW1 6415   2.586   3.105   0.318
 2132SOL    HW2 6416   2.723   3.189   0.342
 2133SOL     OW 6417   2.480   3.429   1.284
 2133SOL    HW1 6418   2.475   3.511   1.341
 2133SOL    HW2 6419   2.569   3.426   1.239
 2134SOL     OW 6420   3.214   1.914   0.168
 2134SOL    HW1 6421   3.249   1.873   0.084
 2134SOL    HW2 6422   3.124   1.876   0.188
 2135SOL     OW 6423   3.162   2.315   0.691
 2135SOL    HW1 6424   3.103   2.395   0.695
 2135SOL    HW2 6425   3.177   2.280   0.784
 2136SOL     OW 6426   3.455   2.083   0.882
 2136SOL    HW1 6427   3.371   2.082   0.936
 2136SOL    HW2 6428   3.457   2.166   0.826
 2137SOL     OW 6429   1.901   2.939   0.300
 2137SOL    HW1 6430   2.000   2.928   0.291
 2137SOL    HW2 6431   1.861   2.853   0.332
 2138SOL     OW 6432   2.737   3.508   0.337
 2138SOL    HW1 6433   2.660   3.473   0.283
 2138SOL    HW2 6434   2.705   3.579   0.399
 2139SOL     OW 6435   2.092   2.490   1.975
 2139SOL    HW1 6436   1.999   2.488   2.012
 2139SOL    HW2 6437   2.093   2.451   1.883
 2140SOL     OW 6438   2.087   2.137   2.858
 2140SOL    HW1 6439   2.122   2.120   2.950
 2140SOL    HW2 6440   1.999   2.092   2.846
 2141SOL     OW 6441   1.881   2.230   2.509
 2141SOL    HW1 6442   1.799   2.273   2.548
 2141SOL    HW2 6443   1.853   2.157   2.446
 2142SOL     OW 6444   2.431   3.137   3.027
 2142SOL    HW1 6445   2.338   3.130   2.990
 2142SOL    HW2 6446   2.442   3.226   3.071
 2143SOL     OW 6447   3.417   3.373   2.565
 2143SOL    HW1 6448   3.360   3.357   2.646
 2143SOL    HW2 6449   3.358   3.383   2.485
 2144SOL     OW 6450   2.997   2.565   2.579
 2144SOL    HW1 6451   3.054   2.643   2.554
 2144SOL    HW2 6452   2.937   2.591   2.655
 2145SOL     OW 6453   3.617   2.469   2.093
 2145SOL    HW1 6454   3.605   2.456   1.994
 2145SOL    HW2 6455   3.587   2.388   2.142
 2146SOL     OW 6456   2.630   3.006   2.885
 2146SOL    HW1 6457   2.552   3.023   2.945
 2146SOL    HW2 6458   2.664   3.093   2.849
 2147SOL     OW 6459   2.712   2.660   3.685
 2147SOL    HW1 6460   2.708   2.736   3.750
 2147SOL    HW2 6461   2.734   2.696   3.594
 2148SOL     OW 6462   2.547   2.874   2.527
 2148SOL    HW1 6463   2.616   2.858   2.597
 2148SOL    HW2 6464   2.474   2.931   2.565
 2149SOL     OW 6465   2.548   3.023   3.665
 2149SOL    HW1 6466   2.608   3.102   3.679
 2149SOL    HW2 6467   2.462   3.054   3.624
 2150SOL     OW 6468   2.197   3.297   2.923
 2150SOL    HW1 6469   2.119   3.266   2.870
 2150SOL    HW2 6470   2.255   3.355   2.866
 2151SOL     OW 6471   3.322   3.367   3.201
 2151SOL    HW1 6472   3.346   3.461   3.227
 2151SOL    HW2 6473   3.306   3.313   3.283
 2152SOL     OW 6474   2.300   2.254   3.361
 2152SOL    HW1 6475   2.382   2.198   3.370
 2152SOL    HW2 6476   2.219   2.196   3.365
 2153SOL     OW 6477   3.465   2.309   2.599
 2153SOL    HW1 6478   3.391   2.355   2.549
 2153SOL    HW2 6479   3.516   2.377   2.652
 2154SOL     OW 6480   2.093   3.575   2.345
 2154SOL    HW1 6481   2.127   3.652   2.399
 2154SOL    HW2 6482   2.137   3.575   2.255
 2155SOL     OW 6483   2.989   3.203   3.552
 2155SOL    HW1 6484   3.036   3.203   3.640
 2155SOL    HW2 6485   2.941   3.116   3.541
 2156SOL     OW 6486   2.092   3.296   2.400
 2156SOL    HW1 6487   2.066   3.392   2.400
 2156SOL    HW2 6488   2.021   3.242   2.445
 2157SOL     OW 6489   2.102   2.953   2.748
 2157SOL    HW1 6490   2.116   2.869   2.800
 2157SOL    HW2 6491   2.047   3.017   2.803
 2158SOL     OW 6492   2.482   3.648   3.301
 2158SOL    HW1 6493   2.390   3.631   3.336
 2158SOL    HW2 6494   2.510   3.740   3.327
 2159SOL     OW 6495   2.468   2.826   1.985
 2159SOL    HW1 6496   2.475   2.910   1.931
 2159SOL    HW2 6497   2.514   2.839   2.073
 2160SOL     OW 6498   3.456   1.976   3.342
 2160SOL    HW1 6499   3.438   2.043   3.270
 2160SOL    HW2 6500   3.453   2.022   3.431
 2161SOL     OW 6501   1.984   2.505   2.425
 2161SOL    HW1 6502   1.939   2.417   2.442
 2161SOL    HW2 6503   1.983   2.559   2.509
 2162SOL     OW 6504   3.704   3.629   2.221
 2162SOL    HW1 6505   3.758   3.600   2.301
 2162SOL    HW2 6506   3.734   3.719   2.192
 2163SOL     OW 6507   1.889   3.458   1.979
 2163SOL    HW1 6508   1.870   3.362   2.000
 2163SOL    HW2 6509   1.856   3.516   2.054
 2164SOL     OW 6510   3.551   2.784   2.474
 2164SOL    HW1 6511   3.646   2.755   2.482
 2164SOL    HW2 6512   3.543   2.849   2.399
 2165SOL     OW 6513   3.503   2.970   2.294
 2165SOL    HW1 6514   3.589   2.972   2.242
 2165SOL    HW2 6515   3.517   3.017   2.382
 2166SOL     OW 6516   1.975   2.599   3.459
 2166SOL    HW1 6517   2.063   2.586   3.504
 2166SOL    HW2 6518   1.962   2.696   3.437
 2167SOL     OW 6519   2.475   3.227   2.588
 2167SOL    HW1 6520   2.426   3.140   2.597
 2167SOL    HW2 6521   2.452   3.270   2.501
 2168SOL     OW 6522   3.155   3.090   3.285
 2168SOL    HW1 6523   3.192   3.017   3.227
 2168SOL    HW2 6524   3.207   3.095   3.370
 2169SOL     OW 6525   2.671   1.866   2.364
 2169SOL    HW1 6526   2.711   1.957   2.355
 2169SOL    HW2 6527   2.571   1.874   2.370
 2170SOL     OW 6528   2.059   2.838   3.126
 2170SOL    HW1 6529   2.148   2.793   3.112
 2170SOL    HW2 6530   1.986   2.773   3.107
 2171SOL     OW 6531   3.387   2.861   2.052
 2171SOL    HW1 6532   3.324   2.785   2.065
 2171SOL    HW2 6533   3.435   2.879   2.138
 2172SOL     OW 6534   3.049   3.654   3.478
 2172SOL    HW1 6535   3.073   3.714   3.402
 2172SOL    HW2 6536   3.056   3.559   3.448
 2173SOL     OW 6537   2.179   2.113   3.663
 2173SOL    HW1 6538   2.250   2.184   3.669
 2173SOL    HW2 6539   2.091   2.152   3.691
 2174SOL     OW 6540   3.328   3.279   2.815
 2174SOL    HW1 6541   3.269   3.285   2.895
 2174SOL    HW2 6542   3.313   3.191   2.769
 2175SOL     OW 6543   3.529   3.576   2.434
 2175SOL    HW1 6544   3.488   3.553   2.346
 2175SOL    HW2 6545   3.511   3.502   2.499
 2176SOL     OW 6546   3.143   2.207   2.806
 2176SOL    HW1 6547   3.057   2.157   2.793
 2176SOL    HW2 6548   3.205   2.153   2.862
 2177SOL     OW 6549   3.438   3.524   2.169
 2177SOL    HW1 6550   3.527   3.570   2.172
 2177SOL    HW2 6551   3.417   3.500   2.074
 2178SOL     OW 6552   2.669   2.467   3.327
 2178SOL    HW1 6553   2.622   2.464   3.416
 2178SOL    HW2 6554   2.618   2.412   3.261
 2179SOL     OW 6555   3.256   2.331   3.536
 2179SOL    HW1 6556   3.236   2.374   3.624
 2179SOL    HW2 6557   3.334   2.269   3.545
 2180SOL     OW 6558   2.835   2.752   3.434
 2180SOL    HW1 6559   2.881   2.668   3.405
 2180SOL    HW2 6560   2.779   2.786   3.359
 2181SOL     OW 6561   2.853   2.272   3.104
 2181SOL    HW1 6562   2.776   2.306   3.158
 2181SOL    HW2 6563   2.819   2.221   3.025
 2182SOL     OW 6564   2.903   2.563   2.291
 2182SOL    HW1 6565   2.929   2.559   2.387
 2182SOL    HW2 6566   2.818   2.512   2.277
 2183SOL     OW 6567   1.938   2.673   2.651
 2183SOL    HW1 6568   2.037   2.661   2.660
 2183SOL    HW2 6569   1.914   2.768   2.672
 2184SOL     OW 6570   1.992   3.683   3.433
 2184SOL    HW1 6571   1.982   3.668   3.532
 2184SOL    HW2 6572   1.906   3.719   3.397
 2185SOL     OW 6573   2.727   2.210   2.057
 2185SOL    HW1 6574   2.786   2.273   2.008
 2185SOL    HW2 6575   2.746   2.116   2.028
 2186SOL     OW 6576   3.581   2.447   3.693
 2186SOL    HW1 6577   3.555   2.536   3.657
 2186SOL    HW2 6578   3.579   2.379   3.620
 2187SOL     OW 6579   3.224   3.006   2.407
 2187SOL    HW1 6580   3.307   2.977   2.359
 2187SOL    HW2 6581   3.175   3.073   2.351
 2188SOL     OW 6582   2.412   2.058   2.747
 2188SOL    HW1 6583   2.407   2.053   2.847
 2188SOL    HW2 6584   2.414   2.154   2.718
 2189SOL     OW 6585   2.870   3.318   2.339
 2189SOL    HW1 6586   2.824   3.390   2.287
 2189SOL    HW2 6587   2.866   3.338   2.437
 2190SOL     OW 6588   2.213   3.663   2.715
 2190SOL    HW1 6589   2.263   3.577   2.721
 2190SOL    HW2 6590   2.278   3.740   2.712
 2191SOL     OW 6591   3.657   2.928   2.735
 2191SOL    HW1 6592   3.595   2.913   2.659
 2191SOL    HW2 6593   3.605   2.939   2.820
 2192SOL     OW 6594   3.089   3.412   3.368
 2192SOL    HW1 6595   3.095   3.335   3.432
 2192SOL    HW2 6596   3.037   3.386   3.288
 2193SOL     OW 6597   2.183   2.805   2.104
 2193SOL    HW1 6598   2.265   2.844   2.062
 2193SOL    HW2 6599   2.156   2.723   2.055
 2194SOL     OW 6600   3.320   2.597   2.590
 2194SOL    HW1 6601   3.315   2.532   2.665
 2194SOL    HW2 6602   3.400   2.656   2.603
 2195SOL     OW 6603   2.323   3.128   3.589
 2195SOL    HW1 6604   2.273   3.129   3.503
 2195SOL    HW2 6605   2.260   3.110   3.665
 2196SOL     OW 6606   2.973   3.638   2.099
 2196SOL    HW1 6607   2.913   3.576   2.149
 2196SOL    HW2 6608   3.004   3.594   2.014
 2197SOL     OW 6609   2.064   2.147   3.360
 2197SOL    HW1 6610   1.984   2.207   3.347
 2197SOL    HW2 6611   2.054   2.098   3.446
 2198SOL     OW 6612   3.494   3.239   1.943
 2198SOL    HW1 6613   3.462   3.333   1.933
 2198SOL    HW2 6614   3.418   3.176   1.931
 2199SOL     OW 6615   2.326   3.605   2.185
 2199SOL    HW1 6616   2.359   3.644   2.271
 2199SOL    HW2 6617   2.402   3.598   2.120
 2200SOL     OW 6618   3.262   1.969   2.288
 2200SOL    HW1 6619   3.238   1.932   2.198
 2200SOL    HW2 6620   3.361   1.985   2.292
 2201SOL     OW 6621   2.111   3.647   3.103
 2201SOL    HW1 6622   2.168   3.582   3.153
 2201SOL    HW2 6623   2.095   3.614   3.010
 2202SOL     OW 6624   2.802   3.560   2.766
 2202SOL    HW1 6625   2.882   3.503   2.787
 2202SOL    HW2 6626   2.753   3.520   2.689
 2203SOL     OW 6627   3.409   2.084   3.591
 2203SOL    HW1 6628   3.404   2.121   3.683
 2203SOL    HW2 6629   3.337   2.015   3.579
 2204SOL     OW 6630   2.476   1.984   1.979
 2204SOL    HW1 6631   2.574   1.962   1.986
 2204SOL    HW2 6632   2.445   1.967   1.886
 2205SOL     OW 6633   2.643   2.126   3.611
 2205SOL    HW1 6634   2.710   2.065   3.654
 2205SOL    HW2 6635   2.570   2.145   3.676
 2206SOL     OW 6636   2.750   3.376   3.057
 2206SOL    HW1 6637   2.727   3.351   2.963
 2206SOL    HW2 6638   2.811   3.307   3.096
 2207SOL     OW 6639   3.213   2.452   3.295
 2207SOL    HW1 6640   3.241   2.409   3.380
 2207SOL    HW2 6641   3.238   2.548   3.296
 2208SOL     OW 6642   2.665   3.264   2.786
 2208SOL    HW1 6643   2.755   3.278   2.744
 2208SOL    HW2 6644   2.594   3.266   2.715
 2209SOL     OW 6645   2.784   2.365   2.761
 2209SOL    HW1 6646   2.759   2.356   2.665
 2209SOL    HW2 6647   2.832   2.283   2.792
 2210SOL     OW 6648   2.401   1.926   2.374
 2210SOL    HW1 6649   2.320   1.927   2.432
 2210SOL    HW2 6650   2.404   2.009   2.319
 2211SOL     OW 6651   3.296   3.050   1.903
 2211SOL    HW1 6652   3.328   2.974   1.960
 2211SOL    HW2 6653   3.204   3.077   1.933
 2212SOL     OW 6654   2.159   1.897   2.033
 2212SOL    HW1 6655   2.208   1.981   2.012
 2212SOL    HW2 6656   2.221   1.832   2.078
 2213SOL     OW 6657   2.797   2.098   2.342
 2213SOL    HW1 6658   2.749   2.139   2.264
 2213SOL    HW2 6659   2.896   2.096   2.323
 2214SOL     OW 6660   2.938   2.545   3.326
 2214SOL    HW1 6661   2.858   2.484   3.329
 2214SOL    HW2 6662   3.019   2.492   3.302
 2215SOL     OW 6663   3.089   3.432   2.655
 2215SOL    HW1 6664   3.110   3.506   2.590
 2215SOL    HW2 6665   3.157   3.432   2.728
 2216SOL     OW 6666   2.321   3.014   2.603
 2216SOL    HW1 6667   2.250   2.987   2.668
 2216SOL    HW2 6668   2.295   2.986   2.510
 2217SOL     OW 6669   3.133   3.659   2.453
 2217SOL    HW1 6670   3.177   3.723   2.389
 2217SOL    HW2 6671   3.083   3.711   2.523
 2218SOL     OW 6672   2.894   2.411   1.878
 2218SOL    HW1 6673   2.853   2.493   1.839
 2218SOL    HW2 6674   2.958   2.437   1.951
 2219SOL     OW 6675   1.940   2.418   3.248
 2219SOL    HW1 6676   2.032   2.417   3.207
 2219SOL    HW2 6677   1.934   2.492   3.315
 2220SOL     OW 6678   2.423   2.084   3.009
 2220SOL    HW1 6679   2.461   2.000   3.046
 2220SOL    HW2 6680   2.335   2.103   3.053
 2221SOL     OW 6681   2.728   2.316   2.504
 2221SOL    HW1 6682   2.696   2.388   2.442
 2221SOL    HW2 6683   2.752   2.235   2.451
 2222SOL     OW 6684   2.879   1.901   2.615
 2222SOL    HW1 6685   2.807   1.906   2.546
 2222SOL    HW2 6686   2.855   1.832   2.684
 2223SOL     OW 6687   3.291   3.035   2.729
 2223SOL    HW1 6688   3.236   2.951   2.722
 2223SOL    HW2 6689   3.317   3.064   2.637
 2224SOL     OW 6690   3.328   2.452   2.854
 2224SOL    HW1 6691   3.298   2.357   2.861
 2224SOL    HW2 6692   3.401   2.468   2.920
 2225SOL     OW 6693   3.719   2.695   2.239
 2225SOL    HW1 6694   3.761   2.631   2.303
 2225SOL    HW2 6695   3.681   2.644   2.161
 2226SOL     OW 6696   2.350   3.247   2.036
 2226SOL    HW1 6697   2.263   3.232   2.083
 2226SOL    HW2 6698   2.333   3.273   1.941
 2227SOL     OW 6699   3.526   3.142   2.519
 2227SOL    HW1 6700   3.625   3.150   2.533
 2227SOL    HW2 6701   3.481   3.226   2.550
 2228SOL     OW 6702   3.252   2.437   1.940
 2228SOL    HW1 6703   3.198   2.416   2.021
 2228SOL    HW2 6704   3.343   2.396   1.949
 2229SOL     OW 6705   3.616   3.085   3.450
 2229SOL    HW1 6706   3.707   3.046   3.437
 2229SOL    HW2 6707   3.624   3.181   3.474
 2230SOL     OW 6708   2.926   3.209   3.202
 2230SOL    HW1 6709   2.846   3.186   3.257
 2230SOL    HW2 6710   3.009   3.183   3.251
 2231SOL     OW 6711   3.454   3.491   3.487
 2231SOL    HW1 6712   3.481   3.525   3.397
 2231SOL    HW2 6713   3.533   3.453   3.533
 2232SOL     OW 6714   2.973   3.057   2.962
 2232SOL    HW1 6715   2.933   3.101   3.043
 2232SOL    HW2 6716   2.932   3.094   2.879
 2233SOL     OW 6717   3.500   2.961   2.941
 2233SOL    HW1 6718   3.505   3.042   3.000
 2233SOL    HW2 6719   3.414   2.963   2.890
 2234SOL     OW 6720   2.777   1.951   3.264
 2234SOL    HW1 6721   2.802   1.931   3.169
 2234SOL    HW2 6722   2.849   2.007   3.306
 2235SOL     OW 6723   2.842   2.978   3.581
 2235SOL    HW1 6724   2.743   2.984   3.591
 2235SOL    HW2 6725   2.865   2.898   3.525
 2236SOL     OW 6726   2.567   2.912   2.230
 2236SOL    HW1 6727   2.553   2.919   2.329
 2236SOL    HW2 6728   2.651   2.861   2.212
 2237SOL     OW 6729   2.272   2.675   3.113
 2237SOL    HW1 6730   2.358   2.687   3.163
 2237SOL    HW2 6731   2.230   2.588   3.140
 2238SOL     OW 6732   3.136   2.248   3.124
 2238SOL    HW1 6733   3.157   2.322   3.188
 2238SOL    HW2 6734   3.047   2.265   3.081
 2239SOL     OW 6735   1.926   3.426   3.193
 2239SOL    HW1 6736   1.880   3.508   3.159
 2239SOL    HW2 6737   2.024   3.445   3.202
 2240SOL     OW 6738   2.229   2.962   2.363
 2240SOL    HW1 6739   2.222   3.045   2.307
 2240SOL    HW2 6740   2.233   2.882   2.303
 2241SOL     OW 6741   3.114   3.210   2.250
 2241SOL    HW1 6742   3.164   3.287   2.290
 2241SOL    HW2 6743   3.019   3.212   2.282
 2242SOL     OW 6744   3.134   3.307   3.004
 2242SOL    HW1 6745   3.181   3.320   3.091
 2242SOL    HW2 6746   3.068   3.233   3.013
 2243SOL     OW 6747   3.444   2.501   2.334
 2243SOL    HW1 6748   3.413   2.562   2.407
 2243SOL    HW2 6749   3.494   2.553   2.265
 2244SOL     OW 6750   2.216   3.372   3.191
 2244SOL    HW1 6751   2.195   3.328   3.104
 2244SOL    HW2 6752   2.313   3.398   3.194
 2245SOL     OW 6753   2.264   2.613   3.460
 2245SOL    HW1 6754   2.332   2.668   3.413
 2245SOL    HW2 6755   2.304   2.525   3.487
 2246SOL     OW 6756   3.449   2.641   3.532
 2246SOL    HW1 6757   3.357   2.679   3.527
 2246SOL    HW2 6758   3.509   2.688   3.467
 2247SOL     OW 6759   2.875   1.967   3.632
 2247SOL    HW1 6760   2.881   2.052   3.580
 2247SOL    HW2 6761   2.907   1.891   3.575
 2248SOL     OW 6762   2.366   1.912   3.602
 2248SOL    HW1 6763   2.324   1.855   3.532
 2248SOL    HW2 6764   2.300   1.981   3.634
 2249SOL     OW 6765   2.435   2.732   2.891
 2249SOL    HW1 6766   2.479   2.821   2.882
 2249SOL    HW2 6767   2.372   2.732   2.968
 2250SOL     OW 6768   3.222   2.724   2.907
 2250SOL    HW1 6769   3.147   2.724   2.841
 2250SOL    HW2 6770   3.259   2.632   2.916
 2251SOL     OW 6771   3.071   2.387   2.137
 2251SOL    HW1 6772   3.084   2.303   2.191
 2251SOL    HW2 6773   3.042   2.461   2.197
 2252SOL     OW 6774   2.169   2.075   3.093
 2252SOL    HW1 6775   2.146   2.112   3.183
 2252SOL    HW2 6776   2.139   1.980   3.087
 2253SOL     OW 6777   1.899   3.172   3.144
 2253SOL    HW1 6778   1.952   3.123   3.212
 2253SOL    HW2 6779   1.921   3.270   3.149
 2254SOL     OW 6780   2.594   2.496   2.926
 2254SOL    HW1 6781   2.653   2.470   2.850
 2254SOL    HW2 6782   2.566   2.592   2.915
 2255SOL     OW 6783   3.590   2.797   3.716
 2255SOL    HW1 6784   3.544   2.790   3.627
 2255SOL    HW2 6785   3.528   2.841   3.782
 2256SOL     OW 6786   2.169   1.925   2.480
 2256SOL    HW1 6787   2.158   2.019   2.513
 2256SOL    HW2 6788   2.164   1.862   2.557
 2257SOL     OW 6789   3.484   2.229   2.236
 2257SOL    HW1 6790   3.486   2.153   2.300
 2257SOL    HW2 6791   3.436   2.306   2.276
 2258SOL     OW 6792   2.885   2.628   2.828
 2258SOL    HW1 6793   2.900   2.649   2.924
 2258SOL    HW2 6794   2.855   2.533   2.819
 2259SOL     OW 6795   2.842   3.435   3.562
 2259SOL    HW1 6796   2.822   3.479   3.474
 2259SOL    HW2 6797   2.881   3.344   3.546
 2260SOL     OW 6798   3.721   3.380   3.467
 2260SOL    HW1 6799   3.735   3.407   3.372
 2260SOL    HW2 6800   3.804   3.402   3.520
 2261SOL     OW 6801   2.212   2.760   3.666
 2261SOL    HW1 6802   2.288   2.804   3.714
 2261SOL    HW2 6803   2.247   2.713   3.584
 2262SOL     OW 6804   3.402   2.136   1.987
 2262SOL    HW1 6805   3.341   2.061   2.010
 2262SOL    HW2 6806   3.424   2.188   2.070
 2263SOL     OW 6807   3.165   2.700   1.904
 2263SOL    HW1 6808   3.199   2.607   1.919
 2263SOL    HW2 6809   3.183   2.727   1.809
 2264SOL     OW 6810   2.930   3.195   2.711
 2264SOL    HW1 6811   2.937   3.111   2.656
 2264SOL    HW2 6812   2.992   3.264   2.675
 2265SOL     OW 6813   2.181   2.672   2.811
 2265SOL    HW1 6814   2.274   2.708   2.816
 2265SOL    HW2 6815   2.175   2.587   2.863
 2266SOL     OW 6816   2.201   2.371   2.868
 2266SOL    HW1 6817   2.149   2.288   2.851
 2266SOL    HW2 6818   2.278   2.376   2.804
 2267SOL     OW 6819   3.000   2.242   3.540
 2267SOL    HW1 6820   2.955   2.305   3.604
 2267SOL    HW2 6821   3.093   2.273   3.523
 2268SOL     OW 6822   3.022   2.069   3.339
 2268SOL    HW1 6823   3.022   2.133   3.416
 2268SOL    HW2 6824   3.050   2.117   3.256
 2269SOL     OW 6825   1.870   3.188   2.062
 2269SOL    HW1 6826   1.777   3.209   2.031
 2269SOL    HW2 6827   1.880   3.089   2.075
 2270SOL     OW 6828   1.950   3.663   2.789
 2270SOL    HW1 6829   1.908   3.577   2.762
 2270SOL    HW2 6830   2.044   3.666   2.755
 2271SOL     OW 6831   2.366   3.430   2.772
 2271SOL    HW1 6832   2.432   3.504   2.781
 2271SOL    HW2 6833   2.410   3.351   2.730
 2272SOL     OW 6834   2.864   2.658   3.100
 2272SOL    HW1 6835   2.905   2.626   3.186
 2272SOL    HW2 6836   2.768   2.631   3.097
 2273SOL     OW 6837   1.902   2.406   2.976
 2273SOL    HW1 6838   1.987   2.373   2.935
 2273SOL    HW2 6839   1.915   2.421   3.074
 2274SOL     OW 6840   2.051   2.382   3.584
 2274SOL    HW1 6841   2.110   2.342   3.514
 2274SOL    HW2 6842   1.993   2.453   3.543
 2275SOL     OW 6843   3.231   2.812   3.522
 2275SOL    HW1 6844   3.270   2.901   3.542
 2275SOL    HW2 6845   3.241   2.792   3.425
 2276SOL     OW 6846   3.519   2.466   3.068
 2276SOL    HW1 6847   3.481   2.397   3.130
 2276SOL    HW2 6848   3.601   2.430   3.024
 2277SOL     OW 6849   2.114   3.426   3.606
 2277SOL    HW1 6850   2.084   3.483   3.682
 2277SOL    HW2 6851   2.107   3.329   3.632
 2278SOL     OW 6852   2.533   2.326   3.131
 2278SOL    HW1 6853   2.499   2.237   3.101
 2278SOL    HW2 6854   2.559   2.380   3.051
 2279SOL     OW 6855   2.792   3.540   3.327
 2279SOL    HW1 6856   2.768   3.522   3.232
 2279SOL    HW2 6857   2.822   3.634   3.337
 2280SOL     OW 6858   2.021   2.999   3.328
 2280SOL    HW1 6859   2.043   2.938   3.404
 2280SOL    HW2 6860   2.031   2.950   3.242
 2281SOL     OW 6861   3.209   2.921   3.096
 2281SOL    HW1 6862   3.233   2.858   3.022
 2281SOL    HW2 6863   3.119   2.961   3.078
 2282SOL     OW 6864   3.164   2.717   2.171
 2282SOL    HW1 6865   3.078   2.686   2.213
 2282SOL    HW2 6866   3.160   2.703   2.072
 2283SOL     OW 6867   3.621   3.609   3.016
 2283SOL    HW1 6868   3.682   3.639   2.943
 2283SOL    HW2 6869   3.583   3.520   2.994
 2284SOL     OW 6870   3.114   3.593   2.990
 2284SOL    HW1 6871   3.198   3.598   2.936
 2284SOL    HW2 6872   3.091   3.497   3.008
 2285SOL     OW 6873   1.945   3.120   2.884
 2285SOL    HW1 6874   1.940   3.119   2.984
 2285SOL    HW2 6875   1.862   3.079   2.846
 2286SOL     OW 6876   2.550   3.524   3.578
 2286SOL    HW1 6877   2.494   3.605   3.587
 2286SOL    HW2 6878   2.602   3.528   3.492
 2287SOL     OW 6879   3.588   1.997   2.385
 2287SOL    HW1 6880   3.661   1.980   2.318
 2287SOL    HW2 6881   3.557   1.910   2.423
 2288SOL     OW 6882   3.250   3.435   2.339
 2288SOL    HW1 6883   3.317   3.447   2.265
 2288SOL    HW2 6884   3.210   3.524   2.362
 2289SOL     OW 6885   1.992   3.656   3.713
 2289SOL    HW1 6886   1.951   3.582   3.766
 2289SOL    HW2 6887   2.056   3.707   3.771
 2290SOL     OW 6888   3.142   2.789   2.534
 2290SOL    HW1 6889   3.202   2.708   2.536
 2290SOL    HW2 6890   3.182   2.858   2.474
 2291SOL     OW 6891   2.692   3.135   3.284
 2291SOL    HW1 6892   2.687   3.168   3.379
 2291SOL    HW2 6893   2.606   3.154   3.238
 2292SOL     OW 6894   2.534   3.478   2.016
 2292SOL    HW1 6895   2.543   3.488   1.917
 2292SOL    HW2 6896   2.494   3.389   2.037
 2293SOL     OW 6897   3.512   3.582   3.256
 2293SOL    HW1 6898   3.565   3.592   3.172
 2293SOL    HW2 6899   3.485   3.672   3.290
 2294SOL     OW 6900   3.703   2.037   2.825
 2294SOL    HW1 6901   3.742   1.952   2.789
 2294SOL    HW2 6902   3.605   2.039   2.806
 2295SOL     OW 6903   3.056   3.474   1.893
 2295SOL    HW1 6904   3.062   3.381   1.930
 2295SOL    HW2 6905   2.997   3.474   1.813
 2296SOL     OW 6906   2.684   2.864   3.234
 2296SOL    HW1 6907   2.724   2.863   3.142
 2296SOL    HW2 6908   2.694   2.956   3.274
 2297SOL     OW 6909   2.778   2.772   2.153
 2297SOL    HW1 6910   2.841   2.810   2.085
 2297SOL    HW2 6911   2.818   2.689   2.192
 2298SOL     OW 6912   3.366   3.469   1.906
 2298SOL    HW1 6913   3.274   3.506   1.913
 2298SOL    HW2 6914   3.404   3.489   1.816
 2299SOL     OW 6915   2.234   3.150   3.352
 2299SOL    HW1 6916   2.221   3.243   3.318
 2299SOL    HW2 6917   2.150   3.098   3.339
 2300SOL     OW 6918   3.476   3.154   3.151
 2300SOL    HW1 6919   3.536   3.157   3.231
 2300SOL    HW2 6920   3.401   3.218   3.164
 2301SOL     OW 6921   2.901   2.960   2.558
 2301SOL    HW1 6922   2.831   2.913   2.612
 2301SOL    HW2 6923   2.960   2.892   2.515
 2302SOL     OW 6924   2.876   2.098   2.833
 2302SOL    HW1 6925   2.868   2.062   2.740
 2302SOL    HW2 6926   2.874   2.022   2.898
 2303SOL     OW 6927   2.452   3.349   2.353
 2303SOL    HW1 6928   2.494   3.291   2.283
 2303SOL    HW2 6929   2.408   3.428   2.309
 2304SOL     OW 6930   3.571   2.247   3.243
 2304SOL    HW1 6931   3.644   2.316   3.247
 2304SOL    HW2 6932   3.599   2.172   3.184
 2305SOL     OW 6933   2.117   3.210   2.152
 2305SOL    HW1 6934   2.021   3.211   2.125
 2305SOL    HW2 6935   2.129   3.263   2.236
 2306SOL     OW 6936   1.967   2.875   3.588
 2306SOL    HW1 6937   1.890   2.842   3.642
 2306SOL    HW2 6938   2.052   2.845   3.630
 2307SOL     OW 6939   2.534   2.065   3.351
 2307SOL    HW1 6940   2.624   2.049   3.311
 2307SOL    HW2 6941   2.542   2.070   3.450
 2308SOL     OW 6942   1.937   2.207   1.895
 2308SOL    HW1 6943   1.845   2.179   1.866
 2308SOL    HW2 6944   1.968   2.284   1.839
 2309SOL     OW 6945   3.302   2.718   3.260
 2309SOL    HW1 6946   3.245   2.770   3.197
 2309SOL    HW2 6947   3.398   2.730   3.236
 2310SOL     OW 6948   1.934   2.028   2.180
 2310SOL    HW1 6949   1.917   2.111   2.126
 2310SOL    HW2 6950   2.024   1.991   2.158
 2311SOL     OW 6951   3.045   3.197   1.981
 2311SOL    HW1 6952   2.946   3.186   1.983
 2311SOL    HW2 6953   3.079   3.212   2.074
 2312SOL     OW 6954   2.475   2.704   3.293
 2312SOL    HW1 6955   2.531   2.785   3.276
 2312SOL    HW2 6956   2.534   2.624   3.296
 2313SOL     OW 6957   3.355   3.629   2.821
 2313SOL    HW1 6958   3.388   3.693   2.752
 2313SOL    HW2 6959   3.421   3.623   2.896
 2314SOL     OW 6960   2.578   2.427   3.570
 2314SOL    HW1 6961   2.597   2.492   3.644
 2314SOL    HW2 6962   2.638   2.347   3.579
 2315SOL     OW 6963   3.312   3.082   3.495
 2315SOL    HW1 6964   3.303   3.072   3.594
 2315SOL    HW2 6965   3.408   3.075   3.469
 2316SOL     OW 6966   2.252   3.603   3.422
 2316SOL    HW1 6967   2.161   3.644   3.420
 2316SOL    HW2 6968   2.245   3.509   3.454
 2317SOL     OW 6969   3.536   2.745   3.116
 2317SOL    HW1 6970   3.509   2.656   3.079
 2317SOL    HW2 6971   3.537   2.813   3.043
 2318SOL     OW 6972   3.087   2.187   2.311
 2318SOL    HW1 6973   3.152   2.113   2.300
 2318SOL    HW2 6974   3.107   2.237   2.395
 2319SOL     OW 6975   3.639   2.204   3.504
 2319SOL    HW1 6976   3.622   2.235   3.410
 2319SOL    HW2 6977   3.555   2.167   3.542
 2320SOL     OW 6978   3.592   2.796   3.379
 2320SOL    HW1 6979   3.630   2.887   3.394
 2320SOL    HW2 6980   3.584   2.779   3.280
 2321SOL     OW 6981   2.721   3.236   1.878
 2321SOL    HW1 6982   2.675   3.251   1.966
 2321SOL    HW2 6983   2.765   3.321   1.848
 2322SOL     OW 6984   2.523   3.652   2.815
 2322SOL    HW1 6985   2.477   3.740   2.802
 2322SOL    HW2 6986   2.622   3.664   2.808
 2323SOL     OW 6987   2.721   2.818   2.723
 2323SOL    HW1 6988   2.775   2.749   2.771
 2323SOL    HW2 6989   2.689   2.887   2.789
 2324SOL     OW 6990   2.945   2.846   1.949
 2324SOL    HW1 6991   2.922   2.899   1.867
 2324SOL    HW2 6992   3.026   2.790   1.930
 2325SOL     OW 6993   3.723   3.431   2.713
 2325SOL    HW1 6994   3.652   3.419   2.643
 2325SOL    HW2 6995   3.724   3.352   2.773
 2326SOL     OW 6996   2.083   3.176   3.706
 2326SOL    HW1 6997   2.018   3.103   3.685
 2326SOL    HW2 6998   2.087   3.190   3.804
 2327SOL     OW 6999   1.941   3.102   2.515
 2327SOL    HW1 7000   1.940   3.055   2.603
 2327SOL    HW2 7001   2.023   3.074   2.464
 2328SOL     OW 7002   2.534   3.253   3.486
 2328SOL    HW1 7003   2.456   3.203   3.524
 2328SOL    HW2 7004   2.531   3.348   3.517
 2329SOL     OW 7005   3.686   2.054   3.089
 2329SOL    HW1 7006   3.682   1.964   3.133
 2329SOL    HW2 7007   3.689   2.043   2.990
 2330SOL     OW 7008   3.567   3.349   2.966
 2330SOL    HW1 7009   3.474   3.324   2.939
 2330SOL    HW2 7010   3.593   3.299   3.048
 2331SOL     OW 7011   2.179   2.409   3.142
 2331SOL    HW1 7012   2.217   2.350   3.214
 2331SOL    HW2 7013   2.219   2.383   3.054
 2332SOL     OW 7014   2.674   3.448   2.549
 2332SOL    HW1 7015   2.706   3.458   2.455
 2332SOL    HW2 7016   2.595   3.386   2.551
 2333SOL     OW 7017   3.286   2.076   2.974
 2333SOL    HW1 7018   3.338   2.011   3.029
 2333SOL    HW2 7019   3.237   2.139   3.035
 2334SOL     OW 7020   2.863   1.896   3.016
 2334SOL    HW1 7021   2.800   1.824   2.985
 2334SOL    HW2 7022   2.956   1.860   3.016
 2335SOL     OW 7023   2.632   3.192   2.163
 2335SOL    HW1 7024   2.586   3.105   2.180
 2335SOL    HW2 7025   2.723   3.189   2.204
 2336SOL     OW 7026   2.480   3.429   3.146
 2336SOL    HW1 7027   2.475   3.511   3.203
 2336SOL    HW2 7028   2.569   3.426   3.101
 2337SOL     OW 7029   3.214   1.914   2.030
 2337SOL    HW1 7030   3.249   1.873   1.946
 2337SOL    HW2 7031   3.124   1.876   2.050
 2338SOL     OW 7032   3.162   2.315   2.553
 2338SOL    HW1 7033   3.103   2.395   2.557
 2338SOL    HW2 7034   3.177   2.280   2.646
 2339SOL     OW 7035   3.455   2.083   2.744
 2339SOL    HW1 7036   3.371   2.082   2.798
 2339SOL    HW2 7037   3.457   2.166   2.688
 2340SOL     OW 7038   1.901   2.939   2.162
 2340SOL    HW1 7039   2.000   2.928   2.153
 2340SOL    HW2 7040   1.861   2.853   2.194
 2341SOL     OW 7041   2.737   3.508   2.199
 2341SOL    HW1 7042   2.660   3.473   2.145
 2341SOL    HW2 7043   2.705   3.579   2.261
 2342SOL     OW 7044   2.092   2.490   3.837
 2342SOL    HW1 7045   1.999   2.488   3.874
 2342SOL    HW2 7046   2.093   2.451   3.745
 2343SOL     OW 7047   2.087   2.137   4.720
 2343SOL    HW1 7048   2.122   2.120   4.812
 2343SOL    HW2 7049   1.999   2.092   4.708
 2344SOL     OW 7050   1.881   2.230   4.371
 2344SOL    HW1 7051   1.799   2.273   4.410
 2344SOL    HW2 7052   1.853   2.157   4.308
 2345SOL     OW 7053   3.417   3.373   4.427
 2345SOL    HW1 7054   3.360   3.357   4.508
 2345SOL    HW2 7055   3.358   3.383   4.347
 2346SOL     OW 7056   2.997   2.565   4.441
 2346SOL    HW1 7057   3.054   2.643   4.416
 2346SOL    HW2 7058   2.937   2.591   4.517
 2347SOL     OW 7059   3.617   2.469   3.955
 2347SOL    HW1 7060   3.605   2.456   3.856
 2347SOL    HW2 7061   3.587   2.388   4.004
 2348SOL     OW 7062   2.630   3.006   4.747
 2348SOL    HW1 7063   2.552   3.023   4.807
 2348SOL    HW2 7064   2.664   3.093   4.711
 2349SOL     OW 7065   2.547   2.874   4.389
 2349SOL    HW1 7066   2.616   2.858   4.459
 2349SOL    HW2 7067   2.474   2.931   4.427
 2350SOL     OW 7068   3.465   2.309   4.461
 2350SOL    HW1 7069   3.391   2.355   4.411
 2350SOL    HW2 7070   3.516   2.377   4.514
 2351SOL     OW 7071   2.093   3.575   4.207
 2351SOL    HW1 7072   2.127   3.652   4.261
 2351SOL    HW2 7073   2.137   3.575   4.117
 2352SOL     OW 7074   2.092   3.296   4.262
 2352SOL    HW1 7075   2.066   3.392   4.262
 2352SOL    HW2 7076   2.021   3.242   4.307
 2353SOL     OW 7077   2.102   2.953   4.610
 2353SOL    HW1 7078   2.116   2.869   4.662
 2353SOL    HW2 7079   2.047   3.017   4.665
 2354SOL     OW 7080   2.468   2.826   3.847
 2354SOL    HW1 7081   2.475   2.910   3.793
 2354SOL    HW2 7082   2.514   2.839   3.935
 2355SOL     OW 7083   1.984   2.505   4.287
 2355SOL    HW1 7084   1.939   2.417   4.304
 2355SOL    HW2 7085   1.983   2.559   4.371
 2356SOL     OW 7086   3.704   3.629   4.083
 2356SOL    HW1 7087   3.758   3.600   4.163
 2356SOL    HW2 7088   3.734   3.719   4.054
 2357SOL     OW 7089   1.889   3.458   3.841
 2357SOL    HW1 7090   1.870   3.362   3.862
 2357SOL    HW2 7091   1.856   3.516   3.916
 2358SOL     OW 7092   3.551   2.784   4.336
 2358SOL    HW1 7093   3.646   2.755   4.344
 2358SOL    HW2 7094   3.543   2.849   4.261
 2359SOL     OW 7095   3.503   2.970   4.156
 2359SOL    HW1 7096   3.589   2.972   4.104
 2359SOL    HW2 7097   3.517   3.017   4.244
 2360SOL     OW 7098   2.475   3.227   4.450
 2360SOL    HW1 7099   2.426   3.140   4.459
 2360SOL    HW2 7100   2.452   3.270   4.363
 2361SOL     OW 7101   2.671   1.866   4.226
 2361SOL    HW1 7102   2.711   1.957   4.217
 2361SOL    HW2 7103   2.571   1.874   4.232
 2362SOL     OW 7104   3.387   2.861   3.914
 2362SOL    HW1 7105   3.324   2.785   3.927
 2362SOL    HW2 7106   3.435   2.879   4.000
 2363SOL     OW 7107   3.328   3.279   4.677
 2363SOL    HW1 7108   3.269   3.285   4.757
 2363SOL    HW2 7109   3.313   3.191   4.631
 2364SOL     OW 7110   3.529   3.576   4.296
 2364SOL    HW1 7111   3.488   3.553   4.208
 2364SOL    HW2 7112   3.511   3.502   4.361
 2365SOL     OW 7113   2.460   2.591   3.994
 2365SOL    HW1 7114   2.484   2.660   3.926
 2365SOL    HW2 7115   2.382   2.624   4.048
 2366SOL     OW 7116   3.143   2.207   4.668
 2366SOL    HW1 7117   3.057   2.157   4.655
 2366SOL    HW2 7118   3.205   2.153   4.724
 2367SOL     OW 7119   3.438   3.524   4.031
 2367SOL    HW1 7120   3.527   3.570   4.034
 2367SOL    HW2 7121   3.417   3.500   3.936
 2368SOL     OW 7122   2.903   2.563   4.153
 2368SOL    HW1 7123   2.929   2.559   4.249
 2368SOL    HW2 7124   2.818   2.512   4.139
 2369SOL     OW 7125   1.938   2.673   4.513
 2369SOL    HW1 7126   2.037   2.661   4.522
 2369SOL    HW2 7127   1.914   2.768   4.534
 2370SOL     OW 7128   2.727   2.210   3.919
 2370SOL    HW1 7129   2.786   2.273   3.870
 2370SOL    HW2 7130   2.746   2.116   3.890
 2371SOL     OW 7131   3.224   3.006   4.269
 2371SOL    HW1 7132   3.307   2.977   4.221
 2371SOL    HW2 7133   3.175   3.073   4.213
 2372SOL     OW 7134   2.870   3.318   4.201
 2372SOL    HW1 7135   2.824   3.390   4.149
 2372SOL    HW2 7136   2.866   3.338   4.299
 2373SOL     OW 7137   2.213   3.663   4.577
 2373SOL    HW1 7138   2.263   3.577   4.583
 2373SOL    HW2 7139   2.278   3.740   4.574
 2374SOL     OW 7140   3.657   2.928   4.597
 2374SOL    HW1 7141   3.595   2.913   4.521
 2374SOL    HW2 7142   3.605   2.939   4.682
 2375SOL     OW 7143   2.183   2.805   3.966
 2375SOL    HW1 7144   2.265   2.844   3.924
 2375SOL    HW2 7145   2.156   2.723   3.917
 2376SOL     OW 7146   3.320   2.597   4.452
 2376SOL    HW1 7147   3.315   2.532   4.527
 2376SOL    HW2 7148   3.400   2.656   4.465
 2377SOL     OW 7149   2.973   3.638   3.961
 2377SOL    HW1 7150   2.913   3.576   4.011
 2377SOL    HW2 7151   3.004   3.594   3.876
 2378SOL     OW 7152   3.494   3.239   3.805
 2378SOL    HW1 7153   3.462   3.333   3.795
 2378SOL    HW2 7154   3.418   3.176   3.793
 2379SOL     OW 7155   2.326   3.605   4.047
 2379SOL    HW1 7156   2.359   3.644   4.133
 2379SOL    HW2 7157   2.402   3.598   3.982
 2380SOL     OW 7158   3.262   1.969   4.150
 2380SOL    HW1 7159   3.238   1.932   4.060
 2380SOL    HW2 7160   3.361   1.985   4.154
 2381SOL     OW 7161   2.111   3.647   4.965
 2381SOL    HW1 7162   2.168   3.582   5.015
 2381SOL    HW2 7163   2.095   3.614   4.872
 2382SOL     OW 7164   2.802   3.560   4.628
 2382SOL    HW1 7165   2.882   3.503   4.649
 2382SOL    HW2 7166   2.753   3.520   4.551
 2383SOL     OW 7167   2.244   2.562   4.204
 2383SOL    HW1 7168   2.289   2.472   4.201
 2383SOL    HW2 7169   2.150   2.551   4.237
 2384SOL     OW 7170   2.476   1.984   3.841
 2384SOL    HW1 7171   2.574   1.962   3.848
 2384SOL    HW2 7172   2.445   1.967   3.748
 2385SOL     OW 7173   2.784   2.365   4.623
 2385SOL    HW1 7174   2.759   2.356   4.527
 2385SOL    HW2 7175   2.832   2.283   4.654
 2386SOL     OW 7176   2.401   1.926   4.236
 2386SOL    HW1 7177   2.320   1.927   4.294
 2386SOL    HW2 7178   2.404   2.009   4.181
 2387SOL     OW 7179   3.296   3.050   3.765
 2387SOL    HW1 7180   3.328   2.974   3.822
 2387SOL    HW2 7181   3.204   3.077   3.795
 2388SOL     OW 7182   2.159   1.897   3.895
 2388SOL    HW1 7183   2.208   1.981   3.874
 2388SOL    HW2 7184   2.221   1.832   3.940
 2389SOL     OW 7185   2.797   2.098   4.204
 2389SOL    HW1 7186   2.749   2.139   4.126
 2389SOL    HW2 7187   2.896   2.096   4.185
 2390SOL     OW 7188   3.089   3.432   4.517
 2390SOL    HW1 7189   3.110   3.506   4.452
 2390SOL    HW2 7190   3.157   3.432   4.590
 2391SOL     OW 7191   2.321   3.014   4.465
 2391SOL    HW1 7192   2.250   2.987   4.530
 2391SOL    HW2 7193   2.295   2.986   4.372
 2392SOL     OW 7194   3.133   3.659   4.315
 2392SOL    HW1 7195   3.177   3.723   4.251
 2392SOL    HW2 7196   3.083   3.711   4.385
 2393SOL     OW 7197   2.894   2.411   3.740
 2393SOL    HW1 7198   2.853   2.493   3.701
 2393SOL    HW2 7199   2.958   2.437   3.813
 2394SOL     OW 7200   2.728   2.316   4.366
 2394SOL    HW1 7201   2.696   2.388   4.304
 2394SOL    HW2 7202   2.752   2.235   4.313
 2395SOL     OW 7203   2.879   1.901   4.477
 2395SOL    HW1 7204   2.807   1.906   4.408
 2395SOL    HW2 7205   2.855   1.832   4.546
 2396SOL     OW 7206   3.291   3.035   4.591
 2396SOL    HW1 7207   3.236   2.951   4.584
 2396SOL    HW2 7208   3.317   3.064   4.499
 2397SOL     OW 7209   3.719   2.695   4.101
 2397SOL    HW1 7210   3.761   2.631   4.165
 2397SOL    HW2 7211   3.681   2.644   4.023
 2398SOL     OW 7212   2.350   3.247   3.898
 2398SOL    HW1 7213   2.263   3.232   3.945
 2398SOL    HW2 7214   2.333   3.273   3.803
 2399SOL     OW 7215   3.526   3.142   4.381
 2399SOL    HW1 7216   3.625   3.150   4.395
 2399SOL    HW2 7217   3.481   3.226   4.412
 2400SOL     OW 7218   3.252   2.437   3.802
 2400SOL    HW1 7219   3.198   2.416   3.883
 2400SOL    HW2 7220   3.343   2.396   3.811
 2401SOL     OW 7221   2.389   2.118   4.052
 2401SOL    HW1 7222   2.416   2.059   3.977
 2401SOL    HW2 7223   2.389   2.213   4.021
 2402SOL     OW 7224   3.500   2.961   4.803
 2402SOL    HW1 7225   3.505   3.042   4.862
 2402SOL    HW2 7226   3.414   2.963   4.752
 2403SOL     OW 7227   2.567   2.912   4.092
 2403SOL    HW1 7228   2.553   2.919   4.191
 2403SOL    HW2 7229   2.651   2.861   4.074
 2404SOL     OW 7230   2.229   2.962   4.225
 2404SOL    HW1 7231   2.222   3.045   4.169
 2404SOL    HW2 7232   2.233   2.882   4.165
 2405SOL     OW 7233   2.428   2.399   4.589
 2405SOL    HW1 7234   2.440   2.465   4.515
 2405SOL    HW2 7235   2.474   2.433   4.672
 2406SOL     OW 7236   3.114   3.210   4.112
 2406SOL    HW1 7237   3.164   3.287   4.152
 2406SOL    HW2 7238   3.019   3.212   4.144
 2407SOL     OW 7239   3.444   2.501   4.196
 2407SOL    HW1 7240   3.413   2.562   4.269
 2407SOL    HW2 7241   3.494   2.553   4.127
 2408SOL     OW 7242   3.071   2.387   3.999
 2408SOL    HW1 7243   3.084   2.303   4.053
 2408SOL    HW2 7244   3.042   2.461   4.059
 2409SOL     OW 7245   2.169   2.075   4.955
 2409SOL    HW1 7246   2.146   2.112   5.045
 2409SOL    HW2 7247   2.139   1.980   4.949
 2410SOL     OW 7248   2.594   2.496   4.788
 2410SOL    HW1 7249   2.653   2.470   4.712
 2410SOL    HW2 7250   2.566   2.592   4.777
 2411SOL     OW 7251   2.169   1.925   4.342
 2411SOL    HW1 7252   2.158   2.019   4.375
 2411SOL    HW2 7253   2.164   1.862   4.419
 2412SOL     OW 7254   3.484   2.229   4.098
 2412SOL    HW1 7255   3.486   2.153   4.162
 2412SOL    HW2 7256   3.436   2.306   4.138
 2413SOL     OW 7257   3.402   2.136   3.849
 2413SOL    HW1 7258   3.341   2.061   3.872
 2413SOL    HW2 7259   3.424   2.188   3.932
 2414SOL     OW 7260   3.165   2.700   3.766
 2414SOL    HW1 7261   3.199   2.607   3.781
 2414SOL    HW2 7262   3.183   2.727   3.671
 2415SOL     OW 7263   2.930   3.195   4.573
 2415SOL    HW1 7264   2.937   3.111   4.518
 2415SOL    HW2 7265   2.992   3.264   4.537
 2416SOL     OW 7266   2.181   2.672   4.673
 2416SOL    HW1 7267   2.274   2.708   4.678
 2416SOL    HW2 7268   2.175   2.587   4.725
 2417SOL     OW 7269   1.870   3.188   3.924
 2417SOL    HW1 7270   1.777   3.209   3.893
 2417SOL    HW2 7271   1.880   3.089   3.937
 2418SOL     OW 7272   1.950   3.663   4.651
 2418SOL    HW1 7273   1.908   3.577   4.624
 2418SOL    HW2 7274   2.044   3.666   4.617
 2419SOL     OW 7275   2.366   3.430   4.634
 2419SOL    HW1 7276   2.432   3.504   4.643
 2419SOL    HW2 7277   2.410   3.351   4.592
 2420SOL     OW 7278   2.677   2.434   4.049
 2420SOL    HW1 7279   2.684   2.345   4.003
 2420SOL    HW2 7280   2.583   2.468   4.041
 2421SOL     OW 7281   2.533   2.326   4.993
 2421SOL    HW1 7282   2.499   2.237   4.963
 2421SOL    HW2 7283   2.559   2.380   4.913
 2422SOL     OW 7284   2.335   2.362   3.915
 2422SOL    HW1 7285   2.396   2.442   3.919
 2422SOL    HW2 7286   2.240   2.393   3.922
 2423SOL     OW 7287   3.209   2.921   4.958
 2423SOL    HW1 7288   3.233   2.858   4.884
 2423SOL    HW2 7289   3.119   2.961   4.940
 2424SOL     OW 7290   3.164   2.717   4.033
 2424SOL    HW1 7291   3.078   2.686   4.075
 2424SOL    HW2 7292   3.160   2.703   3.934
 2425SOL     OW 7293   3.621   3.609   4.878
 2425SOL    HW1 7294   3.682   3.639   4.805
 2425SOL    HW2 7295   3.583   3.520   4.856
 2426SOL     OW 7296   1.945   3.120   4.746
 2426SOL    HW1 7297   1.940   3.119   4.846
 2426SOL    HW2 7298   1.862   3.079   4.708
 2427SOL     OW 7299   3.588   1.997   4.247
 2427SOL    HW1 7300   3.661   1.980   4.180
 2427SOL    HW2 7301   3.557   1.910   4.285
 2428SOL     OW 7302   3.250   3.435   4.201
 2428SOL    HW1 7303   3.317   3.447   4.127
 2428SOL    HW2 7304   3.210   3.524   4.224
 2429SOL     OW 7305   3.142   2.789   4.396
 2429SOL    HW1 7306   3.202   2.708   4.398
 2429SOL    HW2 7307   3.182   2.858   4.336
 2430SOL     OW 7308   2.534   3.478   3.878
 2430SOL    HW1 7309   2.543   3.488   3.779
 2430SOL    HW2 7310   2.494   3.389   3.899
 2431SOL     OW 7311   3.703   2.037   4.687
 2431SOL    HW1 7312   3.742   1.952   4.651
 2431SOL    HW2 7313   3.605   2.039   4.668
 2432SOL     OW 7314   2.125   2.188   4.444
 2432SOL    HW1 7315   2.046   2.239   4.410
 2432SOL    HW2 7316   2.116   2.173   4.542
 2433SOL     OW 7317   3.056   3.474   3.755
 2433SOL    HW1 7318   3.062   3.381   3.792
 2433SOL    HW2 7319   2.997   3.474   3.675
 2434SOL     OW 7320   2.778   2.772   4.015
 2434SOL    HW1 7321   2.841   2.810   3.947
 2434SOL    HW2 7322   2.818   2.689   4.054
 2435SOL     OW 7323   3.366   3.469   3.768
 2435SOL    HW1 7324   3.274   3.506   3.775
 2435SOL    HW2 7325   3.404   3.489   3.678
 2436SOL     OW 7326   3.476   3.154   5.013
 2436SOL    HW1 7327   3.536   3.157   5.093
 2436SOL    HW2 7328   3.401   3.218   5.026
 2437SOL     OW 7329   2.901   2.960   4.420
 2437SOL    HW1 7330   2.831   2.913   4.474
 2437SOL    HW2 7331   2.960   2.892   4.377
 2438SOL     OW 7332   2.452   3.349   4.215
 2438SOL    HW1 7333   2.494   3.291   4.145
 2438SOL    HW2 7334   2.408   3.428   4.171
 2439SOL     OW 7335   2.117   3.210   4.014
 2439SOL    HW1 7336   2.021   3.211   3.987
 2439SOL    HW2 7337   2.129   3.263   4.098
 2440SOL     OW 7338   1.937   2.207   3.757
 2440SOL    HW1 7339   1.845   2.179   3.728
 2440SOL    HW2 7340   1.968   2.284   3.701
 2441SOL     OW 7341   1.934   2.028   4.042
 2441SOL    HW1 7342   1.917   2.111   3.988
 2441SOL    HW2 7343   2.024   1.991   4.020
 2442SOL     OW 7344   3.045   3.197   3.843
 2442SOL    HW1 7345   2.946   3.186   3.845
 2442SOL    HW2 7346   3.079   3.212   3.936
 2443SOL     OW 7347   3.536   2.745   4.978
 2443SOL    HW1 7348   3.509   2.656   4.941
 2443SOL    HW2 7349   3.537   2.813   4.905
 2444SOL     OW 7350   3.087   2.187   4.173
 2444SOL    HW1 7351   3.152   2.113   4.162
 2444SOL    HW2 7352   3.107   2.237   4.257
 2445SOL     OW 7353   2.456   2.607   4.376
 2445SOL    HW1 7354   2.506   2.692   4.357
 2445SOL    HW2 7355   2.368   2.609   4.328
 2446SOL     OW 7356   2.721   3.236   3.740
 2446SOL    HW1 7357   2.675   3.251   3.828
 2446SOL    HW2 7358   2.765   3.321   3.710
 2447SOL     OW 7359   2.523   3.652   4.677
 2447SOL    HW1 7360   2.477   3.740   4.664
 2447SOL    HW2 7361   2.622   3.664   4.670
 2448SOL     OW 7362   2.721   2.818   4.585
 2448SOL    HW1 7363   2.775   2.749   4.633
 2448SOL    HW2 7364   2.689   2.887   4.651
 2449SOL     OW 7365   2.945   2.846   3.811
 2449SOL    HW1 7366   2.922   2.899   3.729
 2449SOL    HW2 7367   3.026   2.790   3.792
 2450SOL     OW 7368   3.723   3.431   4.575
 2450SOL    HW1 7369   3.652   3.419   4.505
 2450SOL    HW2 7370   3.724   3.352   4.635
 2451SOL     OW 7371   1.941   3.102   4.377
 2451SOL    HW1 7372   1.940   3.055   4.465
 2451SOL    HW2 7373   2.023   3.074   4.326
 2452SOL     OW 7374   3.686   2.054   4.951
 2452SOL    HW1 7375   3.682   1.964   4.995
 2452SOL    HW2 7376   3.689   2.043   4.852
 2453SOL     OW 7377   2.290   2.286   4.244
 2453SOL    HW1 7378   2.320   2.214   4.182
 2453SOL    HW2 7379   2.251   2.246   4.327
 2454SOL     OW 7380   2.674   3.448   4.411
 2454SOL    HW1 7381   2.706   3.458   4.317
 2454SOL    HW2 7382   2.595   3.386   4.413
 2455SOL     OW 7383   2.632   3.192   4.025
 2455SOL    HW1 7384   2.586   3.105   4.042
 2455SOL    HW2 7385   2.723   3.189   4.066
 2456SOL     OW 7386   3.214   1.914   3.892
 2456SOL    HW1 7387   3.249   1.873   3.808
 2456SOL    HW2 7388   3.124   1.876   3.912
 2457SOL     OW 7389   3.162   2.315   4.415
 2457SOL    HW1 7390   3.103   2.395   4.419
 2457SOL    HW2 7391   3.177   2.280   4.508
 2458SOL     OW 7392   3.455   2.083   4.606
 2458SOL    HW1 7393   3.371   2.082   4.660
 2458SOL    HW2 7394   3.457   2.166   4.550
 2459SOL     OW 7395   1.901   2.939   4.024
 2459SOL    HW1 7396   2.000   2.928   4.015
 2459SOL    HW2 7397   1.861   2.853   4.056
 2460SOL     OW 7398   2.737   3.508   4.061
 2460SOL    HW1 7399   2.660   3.473   4.007
 2460SOL    HW2 7400   2.705   3.579   4.123
 2461SOL     OW 7401   2.092   4.352   0.113
 2461SOL    HW1 7402   1.999   4.350   0.150
 2461SOL    HW2 7403   2.093   4.313   0.021
 2462SOL     OW 7404   2.087   3.999   0.996
 2462SOL    HW1 7405   2.122   3.982   1.088
 2462SOL    HW2 7406   1.999   3.954   0.984
 2463SOL     OW 7407   1.881   4.092   0.647
 2463SOL    HW1 7408   1.799   4.135   0.686
 2463SOL    HW2 7409   1.853   4.019   0.584
 2464SOL     OW 7410   2.997   4.427   0.717
 2464SOL    HW1 7411   3.054   4.505   0.692
 2464SOL    HW2 7412   2.937   4.453   0.793
 2465SOL     OW 7413   3.617   4.331   0.231
 2465SOL    HW1 7414   3.605   4.318   0.132
 2465SOL    HW2 7415   3.587   4.250   0.280
 2466SOL     OW 7416   2.630   4.868   1.023
 2466SOL    HW1 7417   2.552   4.885   1.083
 2466SOL    HW2 7418   2.664   4.955   0.987
 2467SOL     OW 7419   2.712   4.522   1.823
 2467SOL    HW1 7420   2.708   4.598   1.888
 2467SOL    HW2 7421   2.734   4.558   1.732
 2468SOL     OW 7422   2.547   4.736   0.665
 2468SOL    HW1 7423   2.616   4.720   0.735
 2468SOL    HW2 7424   2.474   4.793   0.703
 2469SOL     OW 7425   2.300   4.116   1.499
 2469SOL    HW1 7426   2.382   4.060   1.508
 2469SOL    HW2 7427   2.219   4.058   1.503
 2470SOL     OW 7428   3.465   4.171   0.737
 2470SOL    HW1 7429   3.391   4.217   0.687
 2470SOL    HW2 7430   3.516   4.239   0.790
 2471SOL     OW 7431   2.102   4.815   0.886
 2471SOL    HW1 7432   2.116   4.731   0.938
 2471SOL    HW2 7433   2.047   4.879   0.941
 2472SOL     OW 7434   3.456   3.838   1.480
 2472SOL    HW1 7435   3.438   3.905   1.408
 2472SOL    HW2 7436   3.453   3.884   1.569
 2473SOL     OW 7437   1.984   4.367   0.563
 2473SOL    HW1 7438   1.939   4.279   0.580
 2473SOL    HW2 7439   1.983   4.421   0.647
 2474SOL     OW 7440   1.975   4.461   1.597
 2474SOL    HW1 7441   2.063   4.448   1.642
 2474SOL    HW2 7442   1.962   4.558   1.575
 2475SOL     OW 7443   2.671   3.728   0.502
 2475SOL    HW1 7444   2.711   3.819   0.493
 2475SOL    HW2 7445   2.571   3.736   0.508
 2476SOL     OW 7446   2.059   4.700   1.264
 2476SOL    HW1 7447   2.148   4.655   1.250
 2476SOL    HW2 7448   1.986   4.635   1.245
 2477SOL     OW 7449   3.387   4.723   0.190
 2477SOL    HW1 7450   3.324   4.647   0.203
 2477SOL    HW2 7451   3.435   4.741   0.276
 2478SOL     OW 7452   2.179   3.975   1.801
 2478SOL    HW1 7453   2.250   4.046   1.807
 2478SOL    HW2 7454   2.091   4.014   1.829
 2479SOL     OW 7455   2.460   4.453   0.270
 2479SOL    HW1 7456   2.484   4.522   0.202
 2479SOL    HW2 7457   2.382   4.486   0.324
 2480SOL     OW 7458   3.143   4.069   0.944
 2480SOL    HW1 7459   3.057   4.019   0.931
 2480SOL    HW2 7460   3.205   4.015   1.000
 2481SOL     OW 7461   2.669   4.329   1.465
 2481SOL    HW1 7462   2.622   4.326   1.554
 2481SOL    HW2 7463   2.618   4.274   1.399
 2482SOL     OW 7464   3.256   4.193   1.674
 2482SOL    HW1 7465   3.236   4.236   1.762
 2482SOL    HW2 7466   3.334   4.131   1.683
 2483SOL     OW 7467   2.835   4.614   1.572
 2483SOL    HW1 7468   2.881   4.530   1.543
 2483SOL    HW2 7469   2.779   4.648   1.497
 2484SOL     OW 7470   2.853   4.134   1.242
 2484SOL    HW1 7471   2.776   4.168   1.296
 2484SOL    HW2 7472   2.819   4.083   1.163
 2485SOL     OW 7473   2.903   4.425   0.429
 2485SOL    HW1 7474   2.929   4.421   0.525
 2485SOL    HW2 7475   2.818   4.374   0.415
 2486SOL     OW 7476   1.938   4.535   0.789
 2486SOL    HW1 7477   2.037   4.523   0.798
 2486SOL    HW2 7478   1.914   4.630   0.810
 2487SOL     OW 7479   2.727   4.072   0.195
 2487SOL    HW1 7480   2.786   4.135   0.146
 2487SOL    HW2 7481   2.746   3.978   0.166
 2488SOL     OW 7482   3.581   4.309   1.831
 2488SOL    HW1 7483   3.555   4.398   1.795
 2488SOL    HW2 7484   3.579   4.241   1.758
 2489SOL     OW 7485   2.412   3.920   0.885
 2489SOL    HW1 7486   2.407   3.915   0.985
 2489SOL    HW2 7487   2.414   4.016   0.856
 2490SOL     OW 7488   3.320   4.459   0.728
 2490SOL    HW1 7489   3.315   4.394   0.803
 2490SOL    HW2 7490   3.400   4.518   0.741
 2491SOL     OW 7491   2.064   4.009   1.498
 2491SOL    HW1 7492   1.984   4.069   1.485
 2491SOL    HW2 7493   2.054   3.960   1.584
 2492SOL     OW 7494   3.262   3.831   0.426
 2492SOL    HW1 7495   3.238   3.794   0.336
 2492SOL    HW2 7496   3.361   3.847   0.430
 2493SOL     OW 7497   2.244   4.424   0.480
 2493SOL    HW1 7498   2.289   4.334   0.477
 2493SOL    HW2 7499   2.150   4.413   0.513
 2494SOL     OW 7500   3.409   3.946   1.729
 2494SOL    HW1 7501   3.404   3.983   1.821
 2494SOL    HW2 7502   3.337   3.877   1.717
 2495SOL     OW 7503   2.476   3.846   0.117
 2495SOL    HW1 7504   2.574   3.824   0.124
 2495SOL    HW2 7505   2.445   3.829   0.024
 2496SOL     OW 7506   2.643   3.988   1.749
 2496SOL    HW1 7507   2.710   3.927   1.792
 2496SOL    HW2 7508   2.570   4.007   1.814
 2497SOL     OW 7509   3.213   4.314   1.433
 2497SOL    HW1 7510   3.241   4.271   1.518
 2497SOL    HW2 7511   3.238   4.410   1.434
 2498SOL     OW 7512   2.784   4.227   0.899
 2498SOL    HW1 7513   2.759   4.218   0.803
 2498SOL    HW2 7514   2.832   4.145   0.930
 2499SOL     OW 7515   2.401   3.788   0.512
 2499SOL    HW1 7516   2.320   3.789   0.570
 2499SOL    HW2 7517   2.404   3.871   0.457
 2500SOL     OW 7518   2.797   3.960   0.480
 2500SOL    HW1 7519   2.749   4.001   0.402
 2500SOL    HW2 7520   2.896   3.958   0.461
 2501SOL     OW 7521   2.938   4.407   1.464
 2501SOL    HW1 7522   2.858   4.346   1.467
 2501SOL    HW2 7523   3.019   4.354   1.440
 2502SOL     OW 7524   2.894   4.273   0.016
 2502SOL    HW1 7525   2.853   4.355  -0.023
 2502SOL    HW2 7526   2.958   4.299   0.089
 2503SOL     OW 7527   1.940   4.280   1.386
 2503SOL    HW1 7528   2.032   4.279   1.345
 2503SOL    HW2 7529   1.934   4.354   1.453
 2504SOL     OW 7530   2.423   3.946   1.147
 2504SOL    HW1 7531   2.461   3.862   1.184
 2504SOL    HW2 7532   2.335   3.965   1.191
 2505SOL     OW 7533   2.728   4.178   0.642
 2505SOL    HW1 7534   2.696   4.250   0.580
 2505SOL    HW2 7535   2.752   4.097   0.589
 2506SOL     OW 7536   2.879   3.763   0.753
 2506SOL    HW1 7537   2.807   3.768   0.684
 2506SOL    HW2 7538   2.855   3.694   0.822
 2507SOL     OW 7539   3.328   4.314   0.992
 2507SOL    HW1 7540   3.298   4.219   0.999
 2507SOL    HW2 7541   3.401   4.330   1.058
 2508SOL     OW 7542   3.719   4.557   0.377
 2508SOL    HW1 7543   3.761   4.493   0.441
 2508SOL    HW2 7544   3.681   4.506   0.299
 2509SOL     OW 7545   3.252   4.299   0.078
 2509SOL    HW1 7546   3.198   4.278   0.159
 2509SOL    HW2 7547   3.343   4.258   0.087
 2510SOL     OW 7548   2.389   3.980   0.328
 2510SOL    HW1 7549   2.416   3.921   0.253
 2510SOL    HW2 7550   2.389   4.075   0.297
 2511SOL     OW 7551   3.500   4.823   1.079
 2511SOL    HW1 7552   3.505   4.904   1.138
 2511SOL    HW2 7553   3.414   4.825   1.028
 2512SOL     OW 7554   2.777   3.813   1.402
 2512SOL    HW1 7555   2.802   3.793   1.307
 2512SOL    HW2 7556   2.849   3.869   1.444
 2513SOL     OW 7557   2.272   4.537   1.251
 2513SOL    HW1 7558   2.358   4.549   1.301
 2513SOL    HW2 7559   2.230   4.450   1.278
 2514SOL     OW 7560   3.136   4.110   1.262
 2514SOL    HW1 7561   3.157   4.184   1.326
 2514SOL    HW2 7562   3.047   4.127   1.219
 2515SOL     OW 7563   2.428   4.261   0.865
 2515SOL    HW1 7564   2.440   4.327   0.791
 2515SOL    HW2 7565   2.474   4.295   0.948
 2516SOL     OW 7566   3.444   4.363   0.472
 2516SOL    HW1 7567   3.413   4.424   0.545
 2516SOL    HW2 7568   3.494   4.415   0.403
 2517SOL     OW 7569   2.264   4.475   1.598
 2517SOL    HW1 7570   2.332   4.530   1.551
 2517SOL    HW2 7571   2.304   4.387   1.625
 2518SOL     OW 7572   3.449   4.503   1.670
 2518SOL    HW1 7573   3.357   4.541   1.665
 2518SOL    HW2 7574   3.509   4.550   1.605
 2519SOL     OW 7575   2.875   3.829   1.770
 2519SOL    HW1 7576   2.881   3.914   1.718
 2519SOL    HW2 7577   2.907   3.753   1.713
 2520SOL     OW 7578   2.366   3.774   1.740
 2520SOL    HW1 7579   2.324   3.717   1.670
 2520SOL    HW2 7580   2.300   3.843   1.772
 2521SOL     OW 7581   2.435   4.594   1.029
 2521SOL    HW1 7582   2.479   4.683   1.020
 2521SOL    HW2 7583   2.372   4.594   1.106
 2522SOL     OW 7584   3.222   4.586   1.045
 2522SOL    HW1 7585   3.147   4.586   0.979
 2522SOL    HW2 7586   3.259   4.494   1.054
 2523SOL     OW 7587   3.071   4.249   0.275
 2523SOL    HW1 7588   3.084   4.165   0.329
 2523SOL    HW2 7589   3.042   4.323   0.335
 2524SOL     OW 7590   2.169   3.937   1.231
 2524SOL    HW1 7591   2.146   3.974   1.321
 2524SOL    HW2 7592   2.139   3.842   1.225
 2525SOL     OW 7593   2.594   4.358   1.064
 2525SOL    HW1 7594   2.653   4.332   0.988
 2525SOL    HW2 7595   2.566   4.454   1.053
 2526SOL     OW 7596   3.590   4.659   1.854
 2526SOL    HW1 7597   3.544   4.652   1.765
 2526SOL    HW2 7598   3.528   4.703   1.920
 2527SOL     OW 7599   2.169   3.787   0.618
 2527SOL    HW1 7600   2.158   3.881   0.651
 2527SOL    HW2 7601   2.164   3.724   0.695
 2528SOL     OW 7602   3.484   4.091   0.374
 2528SOL    HW1 7603   3.486   4.015   0.438
 2528SOL    HW2 7604   3.436   4.168   0.414
 2529SOL     OW 7605   2.885   4.490   0.966
 2529SOL    HW1 7606   2.900   4.511   1.062
 2529SOL    HW2 7607   2.855   4.395   0.957
 2530SOL     OW 7608   2.212   4.622   1.804
 2530SOL    HW1 7609   2.288   4.666   1.852
 2530SOL    HW2 7610   2.247   4.575   1.722
 2531SOL     OW 7611   3.402   3.998   0.125
 2531SOL    HW1 7612   3.341   3.923   0.148
 2531SOL    HW2 7613   3.424   4.050   0.208
 2532SOL     OW 7614   3.165   4.562   0.042
 2532SOL    HW1 7615   3.199   4.469   0.057
 2532SOL    HW2 7616   3.183   4.589  -0.053
 2533SOL     OW 7617   2.181   4.534   0.949
 2533SOL    HW1 7618   2.274   4.570   0.954
 2533SOL    HW2 7619   2.175   4.449   1.001
 2534SOL     OW 7620   2.201   4.233   1.006
 2534SOL    HW1 7621   2.149   4.150   0.989
 2534SOL    HW2 7622   2.278   4.238   0.942
 2535SOL     OW 7623   3.000   4.104   1.678
 2535SOL    HW1 7624   2.955   4.167   1.742
 2535SOL    HW2 7625   3.093   4.135   1.661
 2536SOL     OW 7626   3.022   3.931   1.477
 2536SOL    HW1 7627   3.022   3.995   1.554
 2536SOL    HW2 7628   3.050   3.979   1.394
 2537SOL     OW 7629   2.864   4.520   1.238
 2537SOL    HW1 7630   2.905   4.488   1.324
 2537SOL    HW2 7631   2.768   4.493   1.235
 2538SOL     OW 7632   1.902   4.268   1.114
 2538SOL    HW1 7633   1.987   4.235   1.073
 2538SOL    HW2 7634   1.915   4.283   1.212
 2539SOL     OW 7635   2.051   4.244   1.722
 2539SOL    HW1 7636   2.110   4.204   1.652
 2539SOL    HW2 7637   1.993   4.315   1.681
 2540SOL     OW 7638   3.231   4.674   1.660
 2540SOL    HW1 7639   3.270   4.763   1.680
 2540SOL    HW2 7640   3.241   4.654   1.563
 2541SOL     OW 7641   2.677   4.296   0.325
 2541SOL    HW1 7642   2.684   4.207   0.279
 2541SOL    HW2 7643   2.583   4.330   0.317
 2542SOL     OW 7644   3.519   4.328   1.206
 2542SOL    HW1 7645   3.481   4.259   1.268
 2542SOL    HW2 7646   3.601   4.292   1.162
 2543SOL     OW 7647   2.533   4.188   1.269
 2543SOL    HW1 7648   2.499   4.099   1.239
 2543SOL    HW2 7649   2.559   4.242   1.189
 2544SOL     OW 7650   2.335   4.224   0.191
 2544SOL    HW1 7651   2.396   4.304   0.195
 2544SOL    HW2 7652   2.240   4.255   0.198
 2545SOL     OW 7653   2.021   4.861   1.466
 2545SOL    HW1 7654   2.043   4.800   1.542
 2545SOL    HW2 7655   2.031   4.812   1.380
 2546SOL     OW 7656   3.209   4.783   1.234
 2546SOL    HW1 7657   3.233   4.720   1.160
 2546SOL    HW2 7658   3.119   4.823   1.216
 2547SOL     OW 7659   3.164   4.579   0.309
 2547SOL    HW1 7660   3.078   4.548   0.351
 2547SOL    HW2 7661   3.160   4.565   0.210
 2548SOL     OW 7662   2.765   3.810   0.133
 2548SOL    HW1 7663   2.816   3.811   0.047
 2548SOL    HW2 7664   2.821   3.768   0.204
 2549SOL     OW 7665   3.588   3.859   0.523
 2549SOL    HW1 7666   3.661   3.842   0.456
 2549SOL    HW2 7667   3.557   3.772   0.561
 2550SOL     OW 7668   3.142   4.651   0.672
 2550SOL    HW1 7669   3.202   4.570   0.674
 2550SOL    HW2 7670   3.182   4.720   0.612
 2551SOL     OW 7671   3.703   3.899   0.963
 2551SOL    HW1 7672   3.742   3.814   0.927
 2551SOL    HW2 7673   3.605   3.901   0.944
 2552SOL     OW 7674   2.125   4.050   0.720
 2552SOL    HW1 7675   2.046   4.101   0.686
 2552SOL    HW2 7676   2.116   4.035   0.818
 2553SOL     OW 7677   2.778   4.634   0.291
 2553SOL    HW1 7678   2.841   4.672   0.223
 2553SOL    HW2 7679   2.818   4.551   0.330
 2554SOL     OW 7680   2.876   3.960   0.971
 2554SOL    HW1 7681   2.868   3.924   0.878
 2554SOL    HW2 7682   2.874   3.884   1.036
 2555SOL     OW 7683   3.571   4.109   1.381
 2555SOL    HW1 7684   3.644   4.178   1.385
 2555SOL    HW2 7685   3.599   4.034   1.322
 2556SOL     OW 7686   1.967   4.737   1.726
 2556SOL    HW1 7687   1.890   4.704   1.780
 2556SOL    HW2 7688   2.052   4.707   1.768
 2557SOL     OW 7689   2.534   3.927   1.489
 2557SOL    HW1 7690   2.624   3.911   1.449
 2557SOL    HW2 7691   2.542   3.932   1.588
 2558SOL     OW 7692   1.937   4.069   0.033
 2558SOL    HW1 7693   1.845   4.041   0.004
 2558SOL    HW2 7694   1.968   4.146  -0.023
 2559SOL     OW 7695   3.302   4.580   1.398
 2559SOL    HW1 7696   3.245   4.632   1.335
 2559SOL    HW2 7697   3.398   4.592   1.374
 2560SOL     OW 7698   2.475   4.566   1.431
 2560SOL    HW1 7699   2.531   4.647   1.414
 2560SOL    HW2 7700   2.534   4.486   1.434
 2561SOL     OW 7701   2.578   4.289   1.708
 2561SOL    HW1 7702   2.597   4.354   1.782
 2561SOL    HW2 7703   2.638   4.209   1.717
 2562SOL     OW 7704   3.536   4.607   1.254
 2562SOL    HW1 7705   3.509   4.518   1.217
 2562SOL    HW2 7706   3.537   4.675   1.181
 2563SOL     OW 7707   3.087   4.049   0.449
 2563SOL    HW1 7708   3.152   3.975   0.438
 2563SOL    HW2 7709   3.107   4.099   0.533
 2564SOL     OW 7710   2.456   4.469   0.652
 2564SOL    HW1 7711   2.506   4.554   0.633
 2564SOL    HW2 7712   2.368   4.471   0.604
 2565SOL     OW 7713   3.639   4.066   1.642
 2565SOL    HW1 7714   3.622   4.097   1.548
 2565SOL    HW2 7715   3.555   4.029   1.680
 2566SOL     OW 7716   3.592   4.658   1.517
 2566SOL    HW1 7717   3.630   4.749   1.532
 2566SOL    HW2 7718   3.584   4.641   1.418
 2567SOL     OW 7719   2.945   4.708   0.087
 2567SOL    HW1 7720   2.922   4.761   0.005
 2567SOL    HW2 7721   3.026   4.652   0.068
 2568SOL     OW 7722   3.686   3.916   1.227
 2568SOL    HW1 7723   3.682   3.826   1.271
 2568SOL    HW2 7724   3.689   3.905   1.128
 2569SOL     OW 7725   2.290   4.148   0.520
 2569SOL    HW1 7726   2.320   4.076   0.458
 2569SOL    HW2 7727   2.251   4.108   0.603
 2570SOL     OW 7728   2.179   4.271   1.280
 2570SOL    HW1 7729   2.217   4.212   1.352
 2570SOL    HW2 7730   2.219   4.245   1.192
 2571SOL     OW 7731   3.286   3.938   1.112
 2571SOL    HW1 7732   3.338   3.873   1.167
 2571SOL    HW2 7733   3.237   4.001   1.173
 2572SOL     OW 7734   2.863   3.758   1.154
 2572SOL    HW1 7735   2.800   3.686   1.123
 2572SOL    HW2 7736   2.956   3.722   1.154
 2573SOL     OW 7737   3.214   3.776   0.168
 2573SOL    HW1 7738   3.249   3.735   0.084
 2573SOL    HW2 7739   3.124   3.738   0.188
 2574SOL     OW 7740   3.162   4.177   0.691
 2574SOL    HW1 7741   3.103   4.257   0.695
 2574SOL    HW2 7742   3.177   4.142   0.784
 2575SOL     OW 7743   3.455   3.945   0.882
 2575SOL    HW1 7744   3.371   3.944   0.936
 2575SOL    HW2 7745   3.457   4.028   0.826
 2576SOL     OW 7746   2.092   4.352   1.975
 2576SOL    HW1 7747   1.999   4.350   2.012
 2576SOL    HW2 7748   2.093   4.313   1.883
 2577SOL     OW 7749   2.087   3.999   2.858
 2577SOL    HW1 7750   2.122   3.982   2.950
 2577SOL    HW2 7751   1.999   3.954   2.846
 2578SOL     OW 7752   1.881   4.092   2.509
 2578SOL    HW1 7753   1.799   4.135   2.548
 2578SOL    HW2 7754   1.853   4.019   2.446
 2579SOL     OW 7755   2.997   4.427   2.579
 2579SOL    HW1 7756   3.054   4.505   2.554
 2579SOL    HW2 7757   2.937   4.453   2.655
 2580SOL     OW 7758   3.617   4.331   2.093
 2580SOL    HW1 7759   3.605   4.318   1.994
 2580SOL    HW2 7760   3.587   4.250   2.142
 2581SOL     OW 7761   2.630   4.868   2.885
 2581SOL    HW1 7762   2.552   4.885   2.945
 2581SOL    HW2 7763   2.664   4.955   2.849
 2582SOL     OW 7764   2.712   4.522   3.685
 2582SOL    HW1 7765   2.708   4.598   3.750
 2582SOL    HW2 7766   2.734   4.558   3.594
 2583SOL     OW 7767   2.547   4.736   2.527
 2583SOL    HW1 7768   2.616   4.720   2.597
 2583SOL    HW2 7769   2.474   4.793   2.565
 2584SOL     OW 7770   2.300   4.116   3.361
 2584SOL    HW1 7771   2.382   4.060   3.370
 2584SOL    HW2 7772   2.219   4.058   3.365
 2585SOL     OW 7773   3.465   4.171   2.599
 2585SOL    HW1 7774   3.391   4.217   2.549
 2585SOL    HW2 7775   3.516   4.239   2.652
 2586SOL     OW 7776   2.102   4.815   2.748
 2586SOL    HW1 7777   2.116   4.731   2.800
 2586SOL    HW2 7778   2.047   4.879   2.803
 2587SOL     OW 7779   3.456   3.838   3.342
 2587SOL    HW1 7780   3.438   3.905   3.270
 2587SOL    HW2 7781   3.453   3.884   3.431
 2588SOL     OW 7782   1.984   4.367   2.425
 2588SOL    HW1 7783   1.939   4.279   2.442
 2588SOL    HW2 7784   1.983   4.421   2.509
 2589SOL     OW 7785   1.975   4.461   3.459
 2589SOL    HW1 7786   2.063   4.448   3.504
 2589SOL    HW2 7787   1.962   4.558   3.437
 2590SOL     OW 7788   2.671   3.728   2.364
 2590SOL    HW1 7789   2.711   3.819   2.355
 2590SOL    HW2 7790   2.571   3.736   2.370
 2591SOL     OW 7791   2.059   4.700   3.126
 2591SOL    HW1 7792   2.148   4.655   3.112
 2591SOL    HW2 7793   1.986   4.635   3.107
 2592SOL     OW 7794   3.387   4.723   2.052
 2592SOL    HW1 7795   3.324   4.647   2.065
 2592SOL    HW2 7796   3.435   4.741   2.138
 2593SOL     OW 7797   2.179   3.975   3.663
 2593SOL    HW1 7798   2.250   4.046   3.669
 2593SOL    HW2 7799   2.091   4.014   3.691
 2594SOL     OW 7800   2.460   4.453   2.132
 2594SOL    HW1 7801   2.484   4.522   2.064
 2594SOL    HW2 7802   2.382   4.486   2.186
 2595SOL     OW 7803   3.143   4.069   2.806
 2595SOL    HW1 7804   3.057   4.019   2.793
 2595SOL    HW2 7805   3.205   4.015   2.862
 2596SOL     OW 7806   2.669   4.329   3.327
 2596SOL    HW1 7807   2.622   4.326   3.416
 2596SOL    HW2 7808   2.618   4.274   3.261
 2597SOL     OW 7809   3.256   4.193   3.536
 2597SOL    HW1 7810   3.236   4.236   3.624
 2597SOL    HW2 7811   3.334   4.131   3.545
 2598SOL     OW 7812   2.835   4.614   3.434
 2598SOL    HW1 7813   2.881   4.530   3.405
 2598SOL    HW2 7814   2.779   4.648   3.359
 2599SOL     OW 7815   2.853   4.134   3.104
 2599SOL    HW1 7816   2.776   4.168   3.158
 2599SOL    HW2 7817   2.819   4.083   3.025
 2600SOL     OW 7818   2.903   4.425   2.291
 2600SOL    HW1 7819   2.929   4.421   2.387
 2600SOL    HW2 7820   2.818   4.374   2.277
 2601SOL     OW 7821   1.938   4.535   2.651
 2601SOL    HW1 7822   2.037   4.523   2.660
 2601SOL    HW2 7823   1.914   4.630   2.672
 2602SOL     OW 7824   2.727   4.072   2.057
 2602SOL    HW1 7825   2.786   4.135   2.008
 2602SOL    HW2 7826   2.746   3.978   2.028
 2603SOL     OW 7827   3.581   4.309   3.693
 2603SOL    HW1 7828   3.555   4.398   3.657
 2603SOL    HW2 7829   3.579   4.241   3.620
 2604SOL     OW 7830   2.412   3.920   2.747
 2604SOL    HW1 7831   2.407   3.915   2.847
 2604SOL    HW2 7832   2.414   4.016   2.718
 2605SOL     OW 7833   3.320   4.459   2.590
 2605SOL    HW1 7834   3.315   4.394   2.665
 2605SOL    HW2 7835   3.400   4.518   2.603
 2606SOL     OW 7836   2.064   4.009   3.360
 2606SOL    HW1 7837   1.984   4.069   3.347
 2606SOL    HW2 7838   2.054   3.960   3.446
 2607SOL     OW 7839   3.262   3.831   2.288
 2607SOL    HW1 7840   3.238   3.794   2.198
 2607SOL    HW2 7841   3.361   3.847   2.292
 2608SOL     OW 7842   2.244   4.424   2.342
 2608SOL    HW1 7843   2.289   4.334   2.339
 2608SOL    HW2 7844   2.150   4.413   2.375
 2609SOL     OW 7845   3.409   3.946   3.591
 2609SOL    HW1 7846   3.404   3.983   3.683
 2609SOL    HW2 7847   3.337   3.877   3.579
 2610SOL     OW 7848   2.476   3.846   1.979
 2610SOL    HW1 7849   2.574   3.824   1.986
 2610SOL    HW2 7850   2.445   3.829   1.886
 2611SOL     OW 7851   2.643   3.988   3.611
 2611SOL    HW1 7852   2.710   3.927   3.654
 2611SOL    HW2 7853   2.570   4.007   3.676
 2612SOL     OW 7854   3.213   4.314   3.295
 2612SOL    HW1 7855   3.241   4.271   3.380
 2612SOL    HW2 7856   3.238   4.410   3.296
 2613SOL     OW 7857   2.784   4.227   2.761
 2613SOL    HW1 7858   2.759   4.218   2.665
 2613SOL    HW2 7859   2.832   4.145   2.792
 2614SOL     OW 7860   2.401   3.788   2.374
 2614SOL    HW1 7861   2.320   3.789   2.432
 2614SOL    HW2 7862   2.404   3.871   2.319
 2615SOL     OW 7863   2.159   3.759   2.033
 2615SOL    HW1 7864   2.208   3.843   2.012
 2615SOL    HW2 7865   2.221   3.694   2.078
 2616SOL     OW 7866   2.797   3.960   2.342
 2616SOL    HW1 7867   2.749   4.001   2.264
 2616SOL    HW2 7868   2.896   3.958   2.323
 2617SOL     OW 7869   2.938   4.407   3.326
 2617SOL    HW1 7870   2.858   4.346   3.329
 2617SOL    HW2 7871   3.019   4.354   3.302
 2618SOL     OW 7872   2.894   4.273   1.878
 2618SOL    HW1 7873   2.853   4.355   1.839
 2618SOL    HW2 7874   2.958   4.299   1.951
 2619SOL     OW 7875   1.940   4.280   3.248
 2619SOL    HW1 7876   2.032   4.279   3.207
 2619SOL    HW2 7877   1.934   4.354   3.315
 2620SOL     OW 7878   2.423   3.946   3.009
 2620SOL    HW1 7879   2.461   3.862   3.046
 2620SOL    HW2 7880   2.335   3.965   3.053
 2621SOL     OW 7881   2.728   4.178   2.504
 2621SOL    HW1 7882   2.696   4.250   2.442
 2621SOL    HW2 7883   2.752   4.097   2.451
 2622SOL     OW 7884   2.879   3.763   2.615
 2622SOL    HW1 7885   2.807   3.768   2.546
 2622SOL    HW2 7886   2.855   3.694   2.684
 2623SOL     OW 7887   3.328   4.314   2.854
 2623SOL    HW1 7888   3.298   4.219   2.861
 2623SOL    HW2 7889   3.401   4.330   2.920
 2624SOL     OW 7890   3.719   4.557   2.239
 2624SOL    HW1 7891   3.761   4.493   2.303
 2624SOL    HW2 7892   3.681   4.506   2.161
 2625SOL     OW 7893   3.252   4.299   1.940
 2625SOL    HW1 7894   3.198   4.278   2.021
 2625SOL    HW2 7895   3.343   4.258   1.949
 2626SOL     OW 7896   2.389   3.980   2.190
 2626SOL    HW1 7897   2.416   3.921   2.115
 2626SOL    HW2 7898   2.389   4.075   2.159
 2627SOL     OW 7899   3.500   4.823   2.941
 2627SOL    HW1 7900   3.505   4.904   3.000
 2627SOL    HW2 7901   3.414   4.825   2.890
 2628SOL     OW 7902   2.777   3.813   3.264
 2628SOL    HW1 7903   2.802   3.793   3.169
 2628SOL    HW2 7904   2.849   3.869   3.306
 2629SOL     OW 7905   2.272   4.537   3.113
 2629SOL    HW1 7906   2.358   4.549   3.163
 2629SOL    HW2 7907   2.230   4.450   3.140
 2630SOL     OW 7908   3.136   4.110   3.124
 2630SOL    HW1 7909   3.157   4.184   3.188
 2630SOL    HW2 7910   3.047   4.127   3.081
 2631SOL     OW 7911   2.428   4.261   2.727
 2631SOL    HW1 7912   2.440   4.327   2.653
 2631SOL    HW2 7913   2.474   4.295   2.810
 2632SOL     OW 7914   3.444   4.363   2.334
 2632SOL    HW1 7915   3.413   4.424   2.407
 2632SOL    HW2 7916   3.494   4.415   2.265
 2633SOL     OW 7917   2.264   4.475   3.460
 2633SOL    HW1 7918   2.332   4.530   3.413
 2633SOL    HW2 7919   2.304   4.387   3.487
 2634SOL     OW 7920   3.449   4.503   3.532
 2634SOL    HW1 7921   3.357   4.541   3.527
 2634SOL    HW2 7922   3.509   4.550   3.467
 2635SOL     OW 7923   2.875   3.829   3.632
 2635SOL    HW1 7924   2.881   3.914   3.580
 2635SOL    HW2 7925   2.907   3.753   3.575
 2636SOL     OW 7926   2.366   3.774   3.602
 2636SOL    HW1 7927   2.324   3.717   3.532
 2636SOL    HW2 7928   2.300   3.843   3.634
 2637SOL     OW 7929   2.435   4.594   2.891
 2637SOL    HW1 7930   2.479   4.683   2.882
 2637SOL    HW2 7931   2.372   4.594   2.968
 2638SOL     OW 7932   3.222   4.586   2.907
 2638SOL    HW1 7933   3.147   4.586   2.841
 2638SOL    HW2 7934   3.259   4.494   2.916
 2639SOL     OW 7935   3.071   4.249   2.137
 2639SOL    HW1 7936   3.084   4.165   2.191
 2639SOL    HW2 7937   3.042   4.323   2.197
 2640SOL     OW 7938   2.169   3.937   3.093
 2640SOL    HW1 7939   2.146   3.974   3.183
 2640SOL    HW2 7940   2.139   3.842   3.087
 2641SOL     OW 7941   2.594   4.358   2.926
 2641SOL    HW1 7942   2.653   4.332   2.850
 2641SOL    HW2 7943   2.566   4.454   2.915
 2642SOL     OW 7944   3.590   4.659   3.716
 2642SOL    HW1 7945   3.544   4.652   3.627
 2642SOL    HW2 7946   3.528   4.703   3.782
 2643SOL     OW 7947   2.169   3.787   2.480
 2643SOL    HW1 7948   2.158   3.881   2.513
 2643SOL    HW2 7949   2.164   3.724   2.557
 2644SOL     OW 7950   3.484   4.091   2.236
 2644SOL    HW1 7951   3.486   4.015   2.300
 2644SOL    HW2 7952   3.436   4.168   2.276
 2645SOL     OW 7953   2.885   4.490   2.828
 2645SOL    HW1 7954   2.900   4.511   2.924
 2645SOL    HW2 7955   2.855   4.395   2.819
 2646SOL     OW 7956   2.212   4.622   3.666
 2646SOL    HW1 7957   2.288   4.666   3.714
 2646SOL    HW2 7958   2.247   4.575   3.584
 2647SOL     OW 7959   3.402   3.998   1.987
 2647SOL    HW1 7960   3.341   3.923   2.010
 2647SOL    HW2 7961   3.424   4.050   2.070
 2648SOL     OW 7962   3.165   4.562   1.904
 2648SOL    HW1 7963   3.199   4.469   1.919
 2648SOL    HW2 7964   3.183   4.589   1.809
 2649SOL     OW 7965   2.181   4.534   2.811
 2649SOL    HW1 7966   2.274   4.570   2.816
 2649SOL    HW2 7967   2.175   4.449   2.863
 2650SOL     OW 7968   2.201   4.233   2.868
 2650SOL    HW1 7969   2.149   4.150   2.851
 2650SOL    HW2 7970   2.278   4.238   2.804
 2651SOL     OW 7971   3.000   4.104   3.540
 2651SOL    HW1 7972   2.955   4.167   3.604
 2651SOL    HW2 7973   3.093   4.135   3.523
 2652SOL     OW 7974   3.022   3.931   3.339
 2652SOL    HW1 7975   3.022   3.995   3.416
 2652SOL    HW2 7976   3.050   3.979   3.256
 2653SOL     OW 7977   2.864   4.520   3.100
 2653SOL    HW1 7978   2.905   4.488   3.186
 2653SOL    HW2 7979   2.768   4.493   3.097
 2654SOL     OW 7980   1.902   4.268   2.976
 2654SOL    HW1 7981   1.987   4.235   2.935
 2654SOL    HW2 7982   1.915   4.283   3.074
 2655SOL     OW 7983   2.051   4.244   3.584
 2655SOL    HW1 7984   2.110   4.204   3.514
 2655SOL    HW2 7985   1.993   4.315   3.543
 2656SOL     OW 7986   3.231   4.674   3.522
 2656SOL    HW1 7987   3.270   4.763   3.542
 2656SOL    HW2 7988   3.241   4.654   3.425
 2657SOL     OW 7989   2.677   4.296   2.187
 2657SOL    HW1 7990   2.684   4.207   2.141
 2657SOL    HW2 7991   2.583   4.330   2.179
 2658SOL     OW 7992   3.519   4.328   3.068
 2658SOL    HW1 7993   3.481   4.259   3.130
 2658SOL    HW2 7994   3.601   4.292   3.024
 2659SOL     OW 7995   2.533   4.188   3.131
 2659SOL    HW1 7996   2.499   4.099   3.101
 2659SOL    HW2 7997   2.559   4.242   3.051
 2660SOL     OW 7998   2.335   4.224   2.053
 2660SOL    HW1 7999   2.396   4.304   2.057
 2660SOL    HW2 8000   2.240   4.255   2.060
 2661SOL     OW 8001   2.021   4.861   3.328
 2661SOL    HW1 8002   2.043   4.800   3.404
 2661SOL    HW2 8003   2.031   4.812   3.242
 2662SOL     OW 8004   3.209   4.783   3.096
 2662SOL    HW1 8005   3.233   4.720   3.022
 2662SOL    HW2 8006   3.119   4.823   3.078
 2663SOL     OW 8007   3.164   4.579   2.171
 2663SOL    HW1 8008   3.078   4.548   2.213
 2663SOL    HW2 8009   3.160   4.565   2.072
 2664SOL     OW 8010   3.588   3.859   2.385
 2664SOL    HW1 8011   3.661   3.842   2.318
 2664SOL    HW2 8012   3.557   3.772   2.423
 2665SOL     OW 8013   3.142   4.651   2.534
 2665SOL    HW1 8014   3.202   4.570   2.536
 2665SOL    HW2 8015   3.182   4.720   2.474
 2666SOL     OW 8016   3.703   3.899   2.825
 2666SOL    HW1 8017   3.742   3.814   2.789
 2666SOL    HW2 8018   3.605   3.901   2.806
 2667SOL     OW 8019   2.125   4.050   2.582
 2667SOL    HW1 8020   2.046   4.101   2.548
 2667SOL    HW2 8021   2.116   4.035   2.680
 2668SOL     OW 8022   2.778   4.634   2.153
 2668SOL    HW1 8023   2.841   4.672   2.085
 2668SOL    HW2 8024   2.818   4.551   2.192
 2669SOL     OW 8025   2.876   3.960   2.833
 2669SOL    HW1 8026   2.868   3.924   2.740
 2669SOL    HW2 8027   2.874   3.884   2.898
 2670SOL     OW 8028   3.571   4.109   3.243
 2670SOL    HW1 8029   3.644   4.178   3.247
 2670SOL    HW2 8030   3.599   4.034   3.184
 2671SOL     OW 8031   1.967   4.737   3.588
 2671SOL    HW1 8032   1.890   4.704   3.642
 2671SOL    HW2 8033   2.052   4.707   3.630
 2672SOL     OW 8034   2.534   3.927   3.351
 2672SOL    HW1 8035   2.624   3.911   3.311
 2672SOL    HW2 8036   2.542   3.932   3.450
 2673SOL     OW 8037   1.937   4.069   1.895
 2673SOL    HW1 8038   1.845   4.041   1.866
 2673SOL    HW2 8039   1.968   4.146   1.839
 2674SOL     OW 8040   3.302   4.580   3.260
 2674SOL    HW1 8041   3.245   4.632   3.197
 2674SOL    HW2 8042   3.398   4.592   3.236
 2675SOL     OW 8043   1.934   3.890   2.180
 2675SOL    HW1 8044   1.917   3.973   2.126
 2675SOL    HW2 8045   2.024   3.853   2.158
 2676SOL     OW 8046   2.475   4.566   3.293
 2676SOL    HW1 8047   2.531   4.647   3.276
 2676SOL    HW2 8048   2.534   4.486   3.296
 2677SOL     OW 8049   2.578   4.289   3.570
 2677SOL    HW1 8050   2.597   4.354   3.644
 2677SOL    HW2 8051   2.638   4.209   3.579
 2678SOL     OW 8052   3.536   4.607   3.116
 2678SOL    HW1 8053   3.509   4.518   3.079
 2678SOL    HW2 8054   3.537   4.675   3.043
 2679SOL     OW 8055   3.087   4.049   2.311
 2679SOL    HW1 8056   3.152   3.975   2.300
 2679SOL    HW2 8057   3.107   4.099   2.395
 2680SOL     OW 8058   2.456   4.469   2.514
 2680SOL    HW1 8059   2.506   4.554   2.495
 2680SOL    HW2 8060   2.368   4.471   2.466
 2681SOL     OW 8061   3.639   4.066   3.504
 2681SOL    HW1 8062   3.622   4.097   3.410
 2681SOL    HW2 8063   3.555   4.029   3.542
 2682SOL     OW 8064   3.592   4.658   3.379
 2682SOL    HW1 8065   3.630   4.749   3.394
 2682SOL    HW2 8066   3.584   4.641   3.280
 2683SOL     OW 8067   2.945   4.708   1.949
 2683SOL    HW1 8068   2.922   4.761   1.867
 2683SOL    HW2 8069   3.026   4.652   1.930
 2684SOL     OW 8070   3.686   3.916   3.089
 2684SOL    HW1 8071   3.682   3.826   3.133
 2684SOL    HW2 8072   3.689   3.905   2.990
 2685SOL     OW 8073   2.290   4.148   2.382
 2685SOL    HW1 8074   2.320   4.076   2.320
 2685SOL    HW2 8075   2.251   4.108   2.465
 2686SOL     OW 8076   2.179   4.271   3.142
 2686SOL    HW1 8077   2.217   4.212   3.214
 2686SOL    HW2 8078   2.219   4.245   3.054
 2687SOL     OW 8079   3.286   3.938   2.974
 2687SOL    HW1 8080   3.338   3.873   3.029
 2687SOL    HW2 8081   3.237   4.001   3.035
 2688SOL     OW 8082   2.863   3.758   3.016
 2688SOL    HW1 8083   2.800   3.686   2.985
 2688SOL    HW2 8084   2.956   3.722   3.016
 2689SOL     OW 8085   3.214   3.776   2.030
 2689SOL    HW1 8086   3.249   3.735   1.946
 2689SOL    HW2 8087   3.124   3.738   2.050
 2690SOL     OW 8088   3.162   4.177   2.553
 2690SOL    HW1 8089   3.103   4.257   2.557
 2690SOL    HW2 8090   3.177   4.142   2.646
 2691SOL     OW 8091   3.455   3.945   2.744
 2691SOL    HW1 8092   3.371   3.944   2.798
 2691SOL    HW2 8093   3.457   4.028   2.688
 2692SOL     OW 8094   2.092   4.352   3.837
 2692SOL    HW1 8095   1.999   4.350   3.874
 2692SOL    HW2 8096   2.093   4.313   3.745
 2693SOL     OW 8097   2.087   3.999   4.720
 2693SOL    HW1 8098   2.122   3.982   4.812
 2693SOL    HW2 8099   1.999   3.954   4.708
 2694SOL     OW 8100   1.881   4.092   4.371
 2694SOL    HW1 8101   1.799   4.135   4.410
 2694SOL    HW2 8102   1.853   4.019   4.308
 2695SOL     OW 8103   2.997   4.427   4.441
 2695SOL    HW1 8104   3.054   4.505   4.416
 2695SOL    HW2 8105   2.937   4.453   4.517
 2696SOL     OW 8106   3.617   4.331   3.955
 2696SOL    HW1 8107   3.605   4.318   3.856
 2696SOL    HW2 8108   3.587   4.250   4.004
 2697SOL     OW 8109   2.547   4.736   4.389
 2697SOL    HW1 8110   2.616   4.720   4.459
 2697SOL    HW2 8111   2.474   4.793   4.427
 2698SOL     OW 8112   3.465   4.171   4.461
 2698SOL    HW1 8113   3.391   4.217   4.411
 2698SOL    HW2 8114   3.516   4.239   4.514
 2699SOL     OW 8115   2.102   4.815   4.610
 2699SOL    HW1 8116   2.116   4.731   4.662
 2699SOL    HW2 8117   2.047   4.879   4.665
 2700SOL     OW 8118   1.984   4.367   4.287
 2700SOL    HW1 8119   1.939   4.279   4.304
 2700SOL    HW2 8120   1.983   4.421   4.371
 2701SOL     OW 8121   2.475   5.089   4.450
 2701SOL    HW1 8122   2.426   5.002   4.459
 2701SOL    HW2 8123   2.452   5.132   4.363
 2702SOL     OW 8124   2.671   3.728   4.226
 2702SOL    HW1 8125   2.711   3.819   4.217
 2702SOL    HW2 8126   2.571   3.736   4.232
 2703SOL     OW 8127   3.387   4.723   3.914
 2703SOL    HW1 8128   3.324   4.647   3.927
 2703SOL    HW2 8129   3.435   4.741   4.000
 2704SOL     OW 8130   2.460   4.453   3.994
 2704SOL    HW1 8131   2.484   4.522   3.926
 2704SOL    HW2 8132   2.382   4.486   4.048
 2705SOL     OW 8133   3.143   4.069   4.668
 2705SOL    HW1 8134   3.057   4.019   4.655
 2705SOL    HW2 8135   3.205   4.015   4.724
 2706SOL     OW 8136   2.903   4.425   4.153
 2706SOL    HW1 8137   2.929   4.421   4.249
 2706SOL    HW2 8138   2.818   4.374   4.139
 2707SOL     OW 8139   1.938   4.535   4.513
 2707SOL    HW1 8140   2.037   4.523   4.522
 2707SOL    HW2 8141   1.914   4.630   4.534
 2708SOL     OW 8142   2.727   4.072   3.919
 2708SOL    HW1 8143   2.786   4.135   3.870
 2708SOL    HW2 8144   2.746   3.978   3.890
 2709SOL     OW 8145   3.320   4.459   4.452
 2709SOL    HW1 8146   3.315   4.394   4.527
 2709SOL    HW2 8147   3.400   4.518   4.465
 2710SOL     OW 8148   3.262   3.831   4.150
 2710SOL    HW1 8149   3.238   3.794   4.060
 2710SOL    HW2 8150   3.361   3.847   4.154
 2711SOL     OW 8151   2.244   4.424   4.204
 2711SOL    HW1 8152   2.289   4.334   4.201
 2711SOL    HW2 8153   2.150   4.413   4.237
 2712SOL     OW 8154   2.476   3.846   3.841
 2712SOL    HW1 8155   2.574   3.824   3.848
 2712SOL    HW2 8156   2.445   3.829   3.748
 2713SOL     OW 8157   2.784   4.227   4.623
 2713SOL    HW1 8158   2.759   4.218   4.527
 2713SOL    HW2 8159   2.832   4.145   4.654
 2714SOL     OW 8160   2.401   3.788   4.236
 2714SOL    HW1 8161   2.320   3.789   4.294
 2714SOL    HW2 8162   2.404   3.871   4.181
 2715SOL     OW 8163   2.159   3.759   3.895
 2715SOL    HW1 8164   2.208   3.843   3.874
 2715SOL    HW2 8165   2.221   3.694   3.940
 2716SOL     OW 8166   2.797   3.960   4.204
 2716SOL    HW1 8167   2.749   4.001   4.126
 2716SOL    HW2 8168   2.896   3.958   4.185
 2717SOL     OW 8169   2.894   4.273   3.740
 2717SOL    HW1 8170   2.853   4.355   3.701
 2717SOL    HW2 8171   2.958   4.299   3.813
 2718SOL     OW 8172   2.728   4.178   4.366
 2718SOL    HW1 8173   2.696   4.250   4.304
 2718SOL    HW2 8174   2.752   4.097   4.313
 2719SOL     OW 8175   2.879   3.763   4.477
 2719SOL    HW1 8176   2.807   3.768   4.408
 2719SOL    HW2 8177   2.855   3.694   4.546
 2720SOL     OW 8178   3.719   4.557   4.101
 2720SOL    HW1 8179   3.761   4.493   4.165
 2720SOL    HW2 8180   3.681   4.506   4.023
 2721SOL     OW 8181   3.252   4.299   3.802
 2721SOL    HW1 8182   3.198   4.278   3.883
 2721SOL    HW2 8183   3.343   4.258   3.811
 2722SOL     OW 8184   2.389   3.980   4.052
 2722SOL    HW1 8185   2.416   3.921   3.977
 2722SOL    HW2 8186   2.389   4.075   4.021
 2723SOL     OW 8187   2.973   4.919   4.824
 2723SOL    HW1 8188   2.933   4.963   4.905
 2723SOL    HW2 8189   2.932   4.956   4.741
 2724SOL     OW 8190   3.500   4.823   4.803
 2724SOL    HW1 8191   3.505   4.904   4.862
 2724SOL    HW2 8192   3.414   4.825   4.752
 2725SOL     OW 8193   2.428   4.261   4.589
 2725SOL    HW1 8194   2.440   4.327   4.515
 2725SOL    HW2 8195   2.474   4.295   4.672
 2726SOL     OW 8196   3.444   4.363   4.196
 2726SOL    HW1 8197   3.413   4.424   4.269
 2726SOL    HW2 8198   3.494   4.415   4.127
 2727SOL     OW 8199   2.435   4.594   4.753
 2727SOL    HW1 8200   2.479   4.683   4.744
 2727SOL    HW2 8201   2.372   4.594   4.830
 2728SOL     OW 8202   3.071   4.249   3.999
 2728SOL    HW1 8203   3.084   4.165   4.053
 2728SOL    HW2 8204   3.042   4.323   4.059
 2729SOL     OW 8205   2.169   3.937   4.955
 2729SOL    HW1 8206   2.146   3.974   5.045
 2729SOL    HW2 8207   2.139   3.842   4.949
 2730SOL     OW 8208   2.594   4.358   4.788
 2730SOL    HW1 8209   2.653   4.332   4.712
 2730SOL    HW2 8210   2.566   4.454   4.777
 2731SOL     OW 8211   2.169   3.787   4.342
 2731SOL    HW1 8212   2.158   3.881   4.375
 2731SOL    HW2 8213   2.164   3.724   4.419
 2732SOL     OW 8214   3.484   4.091   4.098
 2732SOL    HW1 8215   3.486   4.015   4.162
 2732SOL    HW2 8216   3.436   4.168   4.138
 2733SOL     OW 8217   3.402   3.998   3.849
 2733SOL    HW1 8218   3.341   3.923   3.872
 2733SOL    HW2 8219   3.424   4.050   3.932
 2734SOL     OW 8220   3.165   4.562   3.766
 2734SOL    HW1 8221   3.199   4.469   3.781
 2734SOL    HW2 8222   3.183   4.589   3.671
 2735SOL     OW 8223   2.181   4.534   4.673
 2735SOL    HW1 8224   2.274   4.570   4.678
 2735SOL    HW2 8225   2.175   4.449   4.725
 2736SOL     OW 8226   2.677   4.296   4.049
 2736SOL    HW1 8227   2.684   4.207   4.003
 2736SOL    HW2 8228   2.583   4.330   4.041
 2737SOL     OW 8229   2.533   4.188   4.993
 2737SOL    HW1 8230   2.499   4.099   4.963
 2737SOL    HW2 8231   2.559   4.242   4.913
 2738SOL     OW 8232   2.335   4.224   3.915
 2738SOL    HW1 8233   2.396   4.304   3.919
 2738SOL    HW2 8234   2.240   4.255   3.922
 2739SOL     OW 8235   3.164   4.579   4.033
 2739SOL    HW1 8236   3.078   4.548   4.075
 2739SOL    HW2 8237   3.160   4.565   3.934
 2740SOL     OW 8238   3.588   3.859   4.247
 2740SOL    HW1 8239   3.661   3.842   4.180
 2740SOL    HW2 8240   3.557   3.772   4.285
 2741SOL     OW 8241   3.142   4.651   4.396
 2741SOL    HW1 8242   3.202   4.570   4.398
 2741SOL    HW2 8243   3.182   4.720   4.336
 2742SOL     OW 8244   3.703   3.899   4.687
 2742SOL    HW1 8245   3.742   3.814   4.651
 2742SOL    HW2 8246   3.605   3.901   4.668
 2743SOL     OW 8247   2.125   4.050   4.444
 2743SOL    HW1 8248   2.046   4.101   4.410
 2743SOL    HW2 8249   2.116   4.035   4.542
 2744SOL     OW 8250   2.778   4.634   4.015
 2744SOL    HW1 8251   2.841   4.672   3.947
 2744SOL    HW2 8252   2.818   4.551   4.054
 2745SOL     OW 8253   1.937   4.069   3.757
 2745SOL    HW1 8254   1.845   4.041   3.728
 2745SOL    HW2 8255   1.968   4.146   3.701
 2746SOL     OW 8256   1.934   3.890   4.042
 2746SOL    HW1 8257   1.917   3.973   3.988
 2746SOL    HW2 8258   2.024   3.853   4.020
 2747SOL     OW 8259   3.536   4.607   4.978
 2747SOL    HW1 8260   3.509   4.518   4.941
 2747SOL    HW2 8261   3.537   4.675   4.905
 2748SOL     OW 8262   3.087   4.049   4.173
 2748SOL    HW1 8263   3.152   3.975   4.162
 2748SOL    HW2 8264   3.107   4.099   4.257
 2749SOL     OW 8265   2.456   4.469   4.376
 2749SOL    HW1 8266   2.506   4.554   4.357
 2749SOL    HW2 8267   2.368   4.471   4.328
 2750SOL     OW 8268   2.945   4.708   3.811
 2750SOL    HW1 8269   2.922   4.761   3.729
 2750SOL    HW2 8270   3.026   4.652   3.792
 2751SOL     OW 8271   3.686   3.916   4.951
 2751SOL    HW1 8272   3.682   3.826   4.995
 2751SOL    HW2 8273   3.689   3.905   4.852
 2752SOL     OW 8274   2.290   4.148   4.244
 2752SOL    HW1 8275   2.320   4.076   4.182
 2752SOL    HW2 8276   2.251   4.108   4.327
 2753SOL     OW 8277   3.214   3.776   3.892
 2753SOL    HW1 8278   3.249   3.735   3.808
 2753SOL    HW2 8279   3.124   3.738   3.912
 2754SOL     OW 8280   3.162   4.177   4.415
 2754SOL    HW1 8281   3.103   4.257   4.419
 2754SOL    HW2 8282   3.177   4.142   4.508
 2755SOL     OW 8283   3.455   3.945   4.606
 2755SOL    HW1 8284   3.371   3.944   4.660
 2755SOL    HW2 8285   3.457   4.028   4.550
 2756SOL     OW 8286   3.954   0.628   0.113
 2756SOL    HW1 8287   3.861   0.626   0.150
 2756SOL    HW2 8288   3.955   0.589   0.021
 2757SOL     OW 8289   3.949   0.275   0.996
 2757SOL    HW1 8290   3.984   0.258   1.088
 2757SOL    HW2 8291   3.861   0.230   0.984
 2758SOL     OW 8292   3.743   0.368   0.647
 2758SOL    HW1 8293   3.661   0.411   0.686
 2758SOL    HW2 8294   3.715   0.295   0.584
 2759SOL     OW 8295   4.293   1.275   1.165
 2759SOL    HW1 8296   4.200   1.268   1.128
 2759SOL    HW2 8297   4.304   1.364   1.209
 2760SOL     OW 8298   4.492   1.144   1.023
 2760SOL    HW1 8299   4.414   1.161   1.083
 2760SOL    HW2 8300   4.526   1.231   0.987
 2761SOL     OW 8301   4.574   0.798   1.823
 2761SOL    HW1 8302   4.570   0.874   1.888
 2761SOL    HW2 8303   4.596   0.834   1.732
 2762SOL     OW 8304   4.409   1.012   0.665
 2762SOL    HW1 8305   4.478   0.996   0.735
 2762SOL    HW2 8306   4.336   1.069   0.703
 2763SOL     OW 8307   4.410   1.161   1.803
 2763SOL    HW1 8308   4.470   1.240   1.817
 2763SOL    HW2 8309   4.324   1.192   1.762
 2764SOL     OW 8310   4.059   1.435   1.061
 2764SOL    HW1 8311   3.981   1.404   1.008
 2764SOL    HW2 8312   4.117   1.493   1.004
 2765SOL     OW 8313   4.162   0.392   1.499
 2765SOL    HW1 8314   4.244   0.336   1.508
 2765SOL    HW2 8315   4.081   0.334   1.503
 2766SOL     OW 8316   3.955   1.713   0.483
 2766SOL    HW1 8317   3.989   1.790   0.537
 2766SOL    HW2 8318   3.999   1.713   0.393
 2767SOL     OW 8319   3.954   1.434   0.538
 2767SOL    HW1 8320   3.928   1.530   0.538
 2767SOL    HW2 8321   3.883   1.380   0.583
 2768SOL     OW 8322   3.964   1.091   0.886
 2768SOL    HW1 8323   3.978   1.007   0.938
 2768SOL    HW2 8324   3.909   1.155   0.941
 2769SOL     OW 8325   4.344   1.786   1.439
 2769SOL    HW1 8326   4.252   1.769   1.474
 2769SOL    HW2 8327   4.372   1.878   1.465
 2770SOL     OW 8328   4.330   0.964   0.123
 2770SOL    HW1 8329   4.337   1.048   0.069
 2770SOL    HW2 8330   4.376   0.977   0.211
 2771SOL     OW 8331   3.846   0.643   0.563
 2771SOL    HW1 8332   3.801   0.555   0.580
 2771SOL    HW2 8333   3.845   0.697   0.647
 2772SOL     OW 8334   3.751   1.596   0.117
 2772SOL    HW1 8335   3.732   1.500   0.138
 2772SOL    HW2 8336   3.718   1.654   0.192
 2773SOL     OW 8337   3.837   0.737   1.597
 2773SOL    HW1 8338   3.925   0.724   1.642
 2773SOL    HW2 8339   3.824   0.834   1.575
 2774SOL     OW 8340   4.337   1.365   0.726
 2774SOL    HW1 8341   4.288   1.278   0.735
 2774SOL    HW2 8342   4.314   1.408   0.639
 2775SOL     OW 8343   4.533   0.004   0.502
 2775SOL    HW1 8344   4.573   0.095   0.493
 2775SOL    HW2 8345   4.433   0.012   0.508
 2776SOL     OW 8346   3.921   0.976   1.264
 2776SOL    HW1 8347   4.010   0.931   1.250
 2776SOL    HW2 8348   3.848   0.911   1.245
 2777SOL     OW 8349   4.041   0.251   1.801
 2777SOL    HW1 8350   4.112   0.322   1.807
 2777SOL    HW2 8351   3.953   0.290   1.829
 2778SOL     OW 8352   4.322   0.729   0.270
 2778SOL    HW1 8353   4.346   0.798   0.202
 2778SOL    HW2 8354   4.244   0.762   0.324
 2779SOL     OW 8355   4.531   0.605   1.465
 2779SOL    HW1 8356   4.484   0.602   1.554
 2779SOL    HW2 8357   4.480   0.550   1.399
 2780SOL     OW 8358   4.697   0.890   1.572
 2780SOL    HW1 8359   4.743   0.806   1.543
 2780SOL    HW2 8360   4.641   0.924   1.497
 2781SOL     OW 8361   3.800   0.811   0.789
 2781SOL    HW1 8362   3.899   0.799   0.798
 2781SOL    HW2 8363   3.776   0.906   0.810
 2782SOL     OW 8364   3.854   1.821   1.571
 2782SOL    HW1 8365   3.844   1.806   1.670
 2782SOL    HW2 8366   3.768   1.857   1.535
 2783SOL     OW 8367   4.589   0.348   0.195
 2783SOL    HW1 8368   4.648   0.411   0.146
 2783SOL    HW2 8369   4.608   0.254   0.166
 2784SOL     OW 8370   4.274   0.196   0.885
 2784SOL    HW1 8371   4.269   0.191   0.985
 2784SOL    HW2 8372   4.276   0.292   0.856
 2785SOL     OW 8373   4.732   1.456   0.477
 2785SOL    HW1 8374   4.686   1.528   0.425
 2785SOL    HW2 8375   4.728   1.476   0.575
 2786SOL     OW 8376   4.075   1.801   0.853
 2786SOL    HW1 8377   4.125   1.715   0.859
 2786SOL    HW2 8378   4.140   1.878   0.850
 2787SOL     OW 8379   4.045   0.943   0.242
 2787SOL    HW1 8380   4.127   0.982   0.200
 2787SOL    HW2 8381   4.018   0.861   0.193
 2788SOL     OW 8382   4.185   1.266   1.727
 2788SOL    HW1 8383   4.135   1.267   1.641
 2788SOL    HW2 8384   4.122   1.248   1.803
 2789SOL     OW 8385   3.926   0.285   1.498
 2789SOL    HW1 8386   3.846   0.345   1.485
 2789SOL    HW2 8387   3.916   0.236   1.584
 2790SOL     OW 8388   4.188   1.743   0.323
 2790SOL    HW1 8389   4.221   1.782   0.409
 2790SOL    HW2 8390   4.264   1.736   0.258
 2791SOL     OW 8391   3.973   1.785   1.241
 2791SOL    HW1 8392   4.030   1.720   1.291
 2791SOL    HW2 8393   3.957   1.752   1.148
 2792SOL     OW 8394   4.106   0.700   0.480
 2792SOL    HW1 8395   4.151   0.610   0.477
 2792SOL    HW2 8396   4.012   0.689   0.513
 2793SOL     OW 8397   4.338   0.122   0.117
 2793SOL    HW1 8398   4.436   0.100   0.124
 2793SOL    HW2 8399   4.307   0.105   0.024
 2794SOL     OW 8400   4.505   0.264   1.749
 2794SOL    HW1 8401   4.572   0.203   1.792
 2794SOL    HW2 8402   4.432   0.283   1.814
 2795SOL     OW 8403   4.612   1.514   1.195
 2795SOL    HW1 8404   4.589   1.489   1.101
 2795SOL    HW2 8405   4.673   1.445   1.234
 2796SOL     OW 8406   4.527   1.402   0.924
 2796SOL    HW1 8407   4.617   1.416   0.882
 2796SOL    HW2 8408   4.456   1.404   0.853
 2797SOL     OW 8409   4.646   0.503   0.899
 2797SOL    HW1 8410   4.621   0.494   0.803
 2797SOL    HW2 8411   4.694   0.421   0.930
 2798SOL     OW 8412   4.263   0.064   0.512
 2798SOL    HW1 8413   4.182   0.065   0.570
 2798SOL    HW2 8414   4.266   0.147   0.457
 2799SOL     OW 8415   4.021   0.035   0.171
 2799SOL    HW1 8416   4.070   0.119   0.150
 2799SOL    HW2 8417   4.083  -0.030   0.216
 2800SOL     OW 8418   4.659   0.236   0.480
 2800SOL    HW1 8419   4.611   0.277   0.402
 2800SOL    HW2 8420   4.758   0.234   0.461
 2801SOL     OW 8421   4.951   1.570   0.793
 2801SOL    HW1 8422   4.972   1.644   0.728
 2801SOL    HW2 8423   5.019   1.570   0.866
 2802SOL     OW 8424   4.183   1.152   0.741
 2802SOL    HW1 8425   4.112   1.125   0.806
 2802SOL    HW2 8426   4.157   1.124   0.648
 2803SOL     OW 8427   3.802   0.556   1.386
 2803SOL    HW1 8428   3.894   0.555   1.345
 2803SOL    HW2 8429   3.796   0.630   1.453
 2804SOL     OW 8430   4.285   0.222   1.147
 2804SOL    HW1 8431   4.323   0.138   1.184
 2804SOL    HW2 8432   4.197   0.241   1.191
 2805SOL     OW 8433   4.741   0.039   0.753
 2805SOL    HW1 8434   4.669   0.044   0.684
 2805SOL    HW2 8435   4.717  -0.030   0.822
 2806SOL     OW 8436   4.212   1.385   0.174
 2806SOL    HW1 8437   4.125   1.370   0.221
 2806SOL    HW2 8438   4.195   1.411   0.079
 2807SOL     OW 8439   4.251   0.256   0.328
 2807SOL    HW1 8440   4.278   0.197   0.253
 2807SOL    HW2 8441   4.251   0.351   0.297
 2808SOL     OW 8442   4.639   0.089   1.402
 2808SOL    HW1 8443   4.664   0.069   1.307
 2808SOL    HW2 8444   4.711   0.145   1.444
 2809SOL     OW 8445   4.704   1.116   1.719
 2809SOL    HW1 8446   4.605   1.122   1.729
 2809SOL    HW2 8447   4.727   1.036   1.663
 2810SOL     OW 8448   4.429   1.050   0.368
 2810SOL    HW1 8449   4.415   1.057   0.467
 2810SOL    HW2 8450   4.513   0.999   0.350
 2811SOL     OW 8451   4.134   0.813   1.251
 2811SOL    HW1 8452   4.220   0.825   1.301
 2811SOL    HW2 8453   4.092   0.726   1.278
 2812SOL     OW 8454   3.788   1.564   1.331
 2812SOL    HW1 8455   3.742   1.646   1.297
 2812SOL    HW2 8456   3.886   1.583   1.340
 2813SOL     OW 8457   4.091   1.100   0.501
 2813SOL    HW1 8458   4.084   1.183   0.445
 2813SOL    HW2 8459   4.095   1.020   0.441
 2814SOL     OW 8460   4.290   0.537   0.865
 2814SOL    HW1 8461   4.302   0.603   0.791
 2814SOL    HW2 8462   4.336   0.571   0.948
 2815SOL     OW 8463   4.078   1.510   1.329
 2815SOL    HW1 8464   4.057   1.466   1.242
 2815SOL    HW2 8465   4.175   1.536   1.332
 2816SOL     OW 8466   4.126   0.751   1.598
 2816SOL    HW1 8467   4.194   0.806   1.551
 2816SOL    HW2 8468   4.166   0.663   1.625
 2817SOL     OW 8469   4.228   0.050   1.740
 2817SOL    HW1 8470   4.186  -0.007   1.670
 2817SOL    HW2 8471   4.162   0.119   1.772
 2818SOL     OW 8472   4.297   0.870   1.029
 2818SOL    HW1 8473   4.341   0.959   1.020
 2818SOL    HW2 8474   4.234   0.870   1.106
 2819SOL     OW 8475   4.933   0.525   0.275
 2819SOL    HW1 8476   4.946   0.441   0.329
 2819SOL    HW2 8477   4.904   0.599   0.335
 2820SOL     OW 8478   4.031   0.213   1.231
 2820SOL    HW1 8479   4.008   0.250   1.321
 2820SOL    HW2 8480   4.001   0.118   1.225
 2821SOL     OW 8481   3.761   1.310   1.282
 2821SOL    HW1 8482   3.814   1.261   1.350
 2821SOL    HW2 8483   3.783   1.408   1.287
 2822SOL     OW 8484   4.456   0.634   1.064
 2822SOL    HW1 8485   4.515   0.608   0.988
 2822SOL    HW2 8486   4.428   0.730   1.053
 2823SOL     OW 8487   4.031   0.063   0.618
 2823SOL    HW1 8488   4.020   0.157   0.651
 2823SOL    HW2 8489   4.026   0.000   0.695
 2824SOL     OW 8490   4.747   0.766   0.966
 2824SOL    HW1 8491   4.762   0.787   1.062
 2824SOL    HW2 8492   4.717   0.671   0.957
 2825SOL     OW 8493   4.704   1.573   1.700
 2825SOL    HW1 8494   4.684   1.617   1.612
 2825SOL    HW2 8495   4.743   1.482   1.684
 2826SOL     OW 8496   4.074   0.898   1.804
 2826SOL    HW1 8497   4.150   0.942   1.852
 2826SOL    HW2 8498   4.109   0.851   1.722
 2827SOL     OW 8499   4.043   0.810   0.949
 2827SOL    HW1 8500   4.136   0.846   0.954
 2827SOL    HW2 8501   4.037   0.725   1.001
 2828SOL     OW 8502   4.063   0.509   1.006
 2828SOL    HW1 8503   4.011   0.426   0.989
 2828SOL    HW2 8504   4.140   0.514   0.942
 2829SOL     OW 8505   3.732   1.326   0.200
 2829SOL    HW1 8506   3.639   1.347   0.169
 2829SOL    HW2 8507   3.742   1.227   0.213
 2830SOL     OW 8508   3.812   1.801   0.927
 2830SOL    HW1 8509   3.770   1.715   0.900
 2830SOL    HW2 8510   3.906   1.804   0.893
 2831SOL     OW 8511   4.228   1.568   0.910
 2831SOL    HW1 8512   4.294   1.642   0.919
 2831SOL    HW2 8513   4.272   1.489   0.868
 2832SOL     OW 8514   4.726   0.796   1.238
 2832SOL    HW1 8515   4.767   0.764   1.324
 2832SOL    HW2 8516   4.630   0.769   1.235
 2833SOL     OW 8517   3.764   0.544   1.114
 2833SOL    HW1 8518   3.849   0.511   1.073
 2833SOL    HW2 8519   3.777   0.559   1.212
 2834SOL     OW 8520   3.913   0.520   1.722
 2834SOL    HW1 8521   3.972   0.480   1.652
 2834SOL    HW2 8522   3.855   0.591   1.681
 2835SOL     OW 8523   4.539   0.572   0.325
 2835SOL    HW1 8524   4.546   0.483   0.279
 2835SOL    HW2 8525   4.445   0.606   0.317
 2836SOL     OW 8526   3.976   1.564   1.744
 2836SOL    HW1 8527   3.946   1.621   1.820
 2836SOL    HW2 8528   3.969   1.467   1.770
 2837SOL     OW 8529   4.395   0.464   1.269
 2837SOL    HW1 8530   4.361   0.375   1.239
 2837SOL    HW2 8531   4.421   0.518   1.189
 2838SOL     OW 8532   4.654   1.678   1.465
 2838SOL    HW1 8533   4.630   1.660   1.370
 2838SOL    HW2 8534   4.684   1.772   1.475
 2839SOL     OW 8535   4.197   0.500   0.191
 2839SOL    HW1 8536   4.258   0.580   0.195
 2839SOL    HW2 8537   4.102   0.531   0.198
 2840SOL     OW 8538   3.883   1.137   1.466
 2840SOL    HW1 8539   3.905   1.076   1.542
 2840SOL    HW2 8540   3.893   1.088   1.380
 2841SOL     OW 8541   3.807   1.258   1.022
 2841SOL    HW1 8542   3.802   1.257   1.122
 2841SOL    HW2 8543   3.724   1.217   0.984
 2842SOL     OW 8544   4.412   1.662   1.716
 2842SOL    HW1 8545   4.356   1.743   1.725
 2842SOL    HW2 8546   4.464   1.666   1.630
 2843SOL     OW 8547   4.627   0.086   0.133
 2843SOL    HW1 8548   4.678   0.087   0.047
 2843SOL    HW2 8549   4.683   0.044   0.204
 2844SOL     OW 8550   3.854   1.794   1.851
 2844SOL    HW1 8551   3.813   1.720   1.904
 2844SOL    HW2 8552   3.918   1.845   1.909
 2845SOL     OW 8553   5.004   0.927   0.672
 2845SOL    HW1 8554   5.064   0.846   0.674
 2845SOL    HW2 8555   5.044   0.996   0.612
 2846SOL     OW 8556   4.554   1.273   1.422
 2846SOL    HW1 8557   4.549   1.306   1.517
 2846SOL    HW2 8558   4.468   1.292   1.376
 2847SOL     OW 8559   4.396   1.616   0.154
 2847SOL    HW1 8560   4.405   1.626   0.055
 2847SOL    HW2 8561   4.356   1.527   0.175
 2848SOL     OW 8562   3.987   0.326   0.720
 2848SOL    HW1 8563   3.908   0.377   0.686
 2848SOL    HW2 8564   3.978   0.311   0.818
 2849SOL     OW 8565   4.546   1.002   1.372
 2849SOL    HW1 8566   4.586   1.001   1.280
 2849SOL    HW2 8567   4.556   1.094   1.412
 2850SOL     OW 8568   4.096   1.288   1.490
 2850SOL    HW1 8569   4.083   1.381   1.456
 2850SOL    HW2 8570   4.012   1.236   1.477
 2851SOL     OW 8571   4.738   0.236   0.971
 2851SOL    HW1 8572   4.730   0.200   0.878
 2851SOL    HW2 8573   4.736   0.160   1.036
 2852SOL     OW 8574   4.314   1.487   0.491
 2852SOL    HW1 8575   4.356   1.429   0.421
 2852SOL    HW2 8576   4.270   1.566   0.447
 2853SOL     OW 8577   3.979   1.348   0.290
 2853SOL    HW1 8578   3.883   1.349   0.263
 2853SOL    HW2 8579   3.991   1.401   0.374
 2854SOL     OW 8580   3.829   1.013   1.726
 2854SOL    HW1 8581   3.752   0.980   1.780
 2854SOL    HW2 8582   3.914   0.983   1.768
 2855SOL     OW 8583   4.396   0.203   1.489
 2855SOL    HW1 8584   4.486   0.187   1.449
 2855SOL    HW2 8585   4.404   0.208   1.588
 2856SOL     OW 8586   3.799   0.345   0.033
 2856SOL    HW1 8587   3.707   0.317   0.004
 2856SOL    HW2 8588   3.830   0.422  -0.023
 2857SOL     OW 8589   4.337   0.842   1.431
 2857SOL    HW1 8590   4.393   0.923   1.414
 2857SOL    HW2 8591   4.396   0.762   1.434
 2858SOL     OW 8592   4.440   0.565   1.708
 2858SOL    HW1 8593   4.459   0.630   1.782
 2858SOL    HW2 8594   4.500   0.485   1.717
 2859SOL     OW 8595   4.114   1.741   1.560
 2859SOL    HW1 8596   4.023   1.782   1.558
 2859SOL    HW2 8597   4.107   1.647   1.592
 2860SOL     OW 8598   4.949   0.325   0.449
 2860SOL    HW1 8599   5.014   0.251   0.438
 2860SOL    HW2 8600   4.969   0.375   0.533
 2861SOL     OW 8601   4.318   0.745   0.652
 2861SOL    HW1 8602   4.368   0.830   0.633
 2861SOL    HW2 8603   4.230   0.747   0.604
 2862SOL     OW 8604   4.583   1.374   0.016
 2862SOL    HW1 8605   4.537   1.389   0.104
 2862SOL    HW2 8606   4.627   1.459  -0.014
 2863SOL     OW 8607   4.385   1.790   0.953
 2863SOL    HW1 8608   4.339   1.878   0.940
 2863SOL    HW2 8609   4.484   1.802   0.946
 2864SOL     OW 8610   4.583   0.956   0.861
 2864SOL    HW1 8611   4.637   0.887   0.909
 2864SOL    HW2 8612   4.551   1.025   0.927
 2865SOL     OW 8613   4.807   0.984   0.087
 2865SOL    HW1 8614   4.784   1.037   0.005
 2865SOL    HW2 8615   4.888   0.928   0.068
 2866SOL     OW 8616   3.945   1.314   1.844
 2866SOL    HW1 8617   3.880   1.241   1.823
 2866SOL    HW2 8618   3.949   1.328   1.942
 2867SOL     OW 8619   3.803   1.240   0.653
 2867SOL    HW1 8620   3.802   1.193   0.741
 2867SOL    HW2 8621   3.885   1.212   0.602
 2868SOL     OW 8622   4.396   1.391   1.624
 2868SOL    HW1 8623   4.318   1.341   1.662
 2868SOL    HW2 8624   4.393   1.486   1.655
 2869SOL     OW 8625   4.152   0.424   0.520
 2869SOL    HW1 8626   4.182   0.352   0.458
 2869SOL    HW2 8627   4.113   0.384   0.603
 2870SOL     OW 8628   4.041   0.547   1.280
 2870SOL    HW1 8629   4.079   0.488   1.352
 2870SOL    HW2 8630   4.081   0.521   1.192
 2871SOL     OW 8631   4.536   1.586   0.687
 2871SOL    HW1 8632   4.568   1.596   0.593
 2871SOL    HW2 8633   4.457   1.524   0.689
 2872SOL     OW 8634   4.725   0.034   1.154
 2872SOL    HW1 8635   4.662  -0.038   1.123
 2872SOL    HW2 8636   4.818  -0.002   1.154
 2873SOL     OW 8637   4.494   1.330   0.301
 2873SOL    HW1 8638   4.448   1.243   0.318
 2873SOL    HW2 8639   4.585   1.327   0.342
 2874SOL     OW 8640   4.342   1.567   1.284
 2874SOL    HW1 8641   4.337   1.649   1.341
 2874SOL    HW2 8642   4.431   1.564   1.239
 2875SOL     OW 8643   3.763   1.077   0.300
 2875SOL    HW1 8644   3.862   1.066   0.291
 2875SOL    HW2 8645   3.723   0.991   0.332
 2876SOL     OW 8646   4.599   1.646   0.337
 2876SOL    HW1 8647   4.522   1.611   0.283
 2876SOL    HW2 8648   4.567   1.717   0.399
 2877SOL     OW 8649   3.954   0.628   1.975
 2877SOL    HW1 8650   3.861   0.626   2.012
 2877SOL    HW2 8651   3.955   0.589   1.883
 2878SOL     OW 8652   3.949   0.275   2.858
 2878SOL    HW1 8653   3.984   0.258   2.950
 2878SOL    HW2 8654   3.861   0.230   2.846
 2879SOL     OW 8655   3.743   0.368   2.509
 2879SOL    HW1 8656   3.661   0.411   2.548
 2879SOL    HW2 8657   3.715   0.295   2.446
 2880SOL     OW 8658   4.293   1.275   3.027
 2880SOL    HW1 8659   4.200   1.268   2.990
 2880SOL    HW2 8660   4.304   1.364   3.071
 2881SOL     OW 8661   4.492   1.144   2.885
 2881SOL    HW1 8662   4.414   1.161   2.945
 2881SOL    HW2 8663   4.526   1.231   2.849
 2882SOL     OW 8664   4.574   0.798   3.685
 2882SOL    HW1 8665   4.570   0.874   3.750
 2882SOL    HW2 8666   4.596   0.834   3.594
 2883SOL     OW 8667   4.409   1.012   2.527
 2883SOL    HW1 8668   4.478   0.996   2.597
 2883SOL    HW2 8669   4.336   1.069   2.565
 2884SOL     OW 8670   4.410   1.161   3.665
 2884SOL    HW1 8671   4.470   1.240   3.679
 2884SOL    HW2 8672   4.324   1.192   3.624
 2885SOL     OW 8673   4.059   1.435   2.923
 2885SOL    HW1 8674   3.981   1.404   2.870
 2885SOL    HW2 8675   4.117   1.493   2.866
 2886SOL     OW 8676   4.162   0.392   3.361
 2886SOL    HW1 8677   4.244   0.336   3.370
 2886SOL    HW2 8678   4.081   0.334   3.365
 2887SOL     OW 8679   3.955   1.713   2.345
 2887SOL    HW1 8680   3.989   1.790   2.399
 2887SOL    HW2 8681   3.999   1.713   2.255
 2888SOL     OW 8682   3.954   1.434   2.400
 2888SOL    HW1 8683   3.928   1.530   2.400
 2888SOL    HW2 8684   3.883   1.380   2.445
 2889SOL     OW 8685   3.964   1.091   2.748
 2889SOL    HW1 8686   3.978   1.007   2.800
 2889SOL    HW2 8687   3.909   1.155   2.803
 2890SOL     OW 8688   4.344   1.786   3.301
 2890SOL    HW1 8689   4.252   1.769   3.336
 2890SOL    HW2 8690   4.372   1.878   3.327
 2891SOL     OW 8691   4.330   0.964   1.985
 2891SOL    HW1 8692   4.337   1.048   1.931
 2891SOL    HW2 8693   4.376   0.977   2.073
 2892SOL     OW 8694   3.846   0.643   2.425
 2892SOL    HW1 8695   3.801   0.555   2.442
 2892SOL    HW2 8696   3.845   0.697   2.509
 2893SOL     OW 8697   3.751   1.596   1.979
 2893SOL    HW1 8698   3.732   1.500   2.000
 2893SOL    HW2 8699   3.718   1.654   2.054
 2894SOL     OW 8700   3.837   0.737   3.459
 2894SOL    HW1 8701   3.925   0.724   3.504
 2894SOL    HW2 8702   3.824   0.834   3.437
 2895SOL     OW 8703   4.337   1.365   2.588
 2895SOL    HW1 8704   4.288   1.278   2.597
 2895SOL    HW2 8705   4.314   1.408   2.501
 2896SOL     OW 8706   4.533   0.004   2.364
 2896SOL    HW1 8707   4.573   0.095   2.355
 2896SOL    HW2 8708   4.433   0.012   2.370
 2897SOL     OW 8709   3.921   0.976   3.126
 2897SOL    HW1 8710   4.010   0.931   3.112
 2897SOL    HW2 8711   3.848   0.911   3.107
 2898SOL     OW 8712   4.041   0.251   3.663
 2898SOL    HW1 8713   4.112   0.322   3.669
 2898SOL    HW2 8714   3.953   0.290   3.691
 2899SOL     OW 8715   4.322   0.729   2.132
 2899SOL    HW1 8716   4.346   0.798   2.064
 2899SOL    HW2 8717   4.244   0.762   2.186
 2900SOL     OW 8718   4.531   0.605   3.327
 2900SOL    HW1 8719   4.484   0.602   3.416
 2900SOL    HW2 8720   4.480   0.550   3.261
 2901SOL     OW 8721   4.697   0.890   3.434
 2901SOL    HW1 8722   4.743   0.806   3.405
 2901SOL    HW2 8723   4.641   0.924   3.359
 2902SOL     OW 8724   3.800   0.811   2.651
 2902SOL    HW1 8725   3.899   0.799   2.660
 2902SOL    HW2 8726   3.776   0.906   2.672
 2903SOL     OW 8727   3.854   1.821   3.433
 2903SOL    HW1 8728   3.844   1.806   3.532
 2903SOL    HW2 8729   3.768   1.857   3.397
 2904SOL     OW 8730   4.589   0.348   2.057
 2904SOL    HW1 8731   4.648   0.411   2.008
 2904SOL    HW2 8732   4.608   0.254   2.028
 2905SOL     OW 8733   4.274   0.196   2.747
 2905SOL    HW1 8734   4.269   0.191   2.847
 2905SOL    HW2 8735   4.276   0.292   2.718
 2906SOL     OW 8736   4.732   1.456   2.339
 2906SOL    HW1 8737   4.686   1.528   2.287
 2906SOL    HW2 8738   4.728   1.476   2.437
 2907SOL     OW 8739   4.075   1.801   2.715
 2907SOL    HW1 8740   4.125   1.715   2.721
 2907SOL    HW2 8741   4.140   1.878   2.712
 2908SOL     OW 8742   4.045   0.943   2.104
 2908SOL    HW1 8743   4.127   0.982   2.062
 2908SOL    HW2 8744   4.018   0.861   2.055
 2909SOL     OW 8745   4.185   1.266   3.589
 2909SOL    HW1 8746   4.135   1.267   3.503
 2909SOL    HW2 8747   4.122   1.248   3.665
 2910SOL     OW 8748   3.926   0.285   3.360
 2910SOL    HW1 8749   3.846   0.345   3.347
 2910SOL    HW2 8750   3.916   0.236   3.446
 2911SOL     OW 8751   4.188   1.743   2.185
 2911SOL    HW1 8752   4.221   1.782   2.271
 2911SOL    HW2 8753   4.264   1.736   2.120
 2912SOL     OW 8754   3.973   1.785   3.103
 2912SOL    HW1 8755   4.030   1.720   3.153
 2912SOL    HW2 8756   3.957   1.752   3.010
 2913SOL     OW 8757   4.106   0.700   2.342
 2913SOL    HW1 8758   4.151   0.610   2.339
 2913SOL    HW2 8759   4.012   0.689   2.375
 2914SOL     OW 8760   4.338   0.122   1.979
 2914SOL    HW1 8761   4.436   0.100   1.986
 2914SOL    HW2 8762   4.307   0.105   1.886
 2915SOL     OW 8763   4.505   0.264   3.611
 2915SOL    HW1 8764   4.572   0.203   3.654
 2915SOL    HW2 8765   4.432   0.283   3.676
 2916SOL     OW 8766   4.612   1.514   3.057
 2916SOL    HW1 8767   4.589   1.489   2.963
 2916SOL    HW2 8768   4.673   1.445   3.096
 2917SOL     OW 8769   4.527   1.402   2.786
 2917SOL    HW1 8770   4.617   1.416   2.744
 2917SOL    HW2 8771   4.456   1.404   2.715
 2918SOL     OW 8772   4.646   0.503   2.761
 2918SOL    HW1 8773   4.621   0.494   2.665
 2918SOL    HW2 8774   4.694   0.421   2.792
 2919SOL     OW 8775   4.263   0.064   2.374
 2919SOL    HW1 8776   4.182   0.065   2.432
 2919SOL    HW2 8777   4.266   0.147   2.319
 2920SOL     OW 8778   4.021   0.035   2.033
 2920SOL    HW1 8779   4.070   0.119   2.012
 2920SOL    HW2 8780   4.083  -0.030   2.078
 2921SOL     OW 8781   4.659   0.236   2.342
 2921SOL    HW1 8782   4.611   0.277   2.264
 2921SOL    HW2 8783   4.758   0.234   2.323
 2922SOL     OW 8784   4.951   1.570   2.655
 2922SOL    HW1 8785   4.972   1.644   2.590
 2922SOL    HW2 8786   5.019   1.570   2.728
 2923SOL     OW 8787   4.183   1.152   2.603
 2923SOL    HW1 8788   4.112   1.125   2.668
 2923SOL    HW2 8789   4.157   1.124   2.510
 2924SOL     OW 8790   3.802   0.556   3.248
 2924SOL    HW1 8791   3.894   0.555   3.207
 2924SOL    HW2 8792   3.796   0.630   3.315
 2925SOL     OW 8793   4.285   0.222   3.009
 2925SOL    HW1 8794   4.323   0.138   3.046
 2925SOL    HW2 8795   4.197   0.241   3.053
 2926SOL     OW 8796   4.741   0.039   2.615
 2926SOL    HW1 8797   4.669   0.044   2.546
 2926SOL    HW2 8798   4.717  -0.030   2.684
 2927SOL     OW 8799   4.212   1.385   2.036
 2927SOL    HW1 8800   4.125   1.370   2.083
 2927SOL    HW2 8801   4.195   1.411   1.941
 2928SOL     OW 8802   4.251   0.256   2.190
 2928SOL    HW1 8803   4.278   0.197   2.115
 2928SOL    HW2 8804   4.251   0.351   2.159
 2929SOL     OW 8805   4.639   0.089   3.264
 2929SOL    HW1 8806   4.664   0.069   3.169
 2929SOL    HW2 8807   4.711   0.145   3.306
 2930SOL     OW 8808   4.704   1.116   3.581
 2930SOL    HW1 8809   4.605   1.122   3.591
 2930SOL    HW2 8810   4.727   1.036   3.525
 2931SOL     OW 8811   4.429   1.050   2.230
 2931SOL    HW1 8812   4.415   1.057   2.329
 2931SOL    HW2 8813   4.513   0.999   2.212
 2932SOL     OW 8814   4.134   0.813   3.113
 2932SOL    HW1 8815   4.220   0.825   3.163
 2932SOL    HW2 8816   4.092   0.726   3.140
 2933SOL     OW 8817   3.788   1.564   3.193
 2933SOL    HW1 8818   3.742   1.646   3.159
 2933SOL    HW2 8819   3.886   1.583   3.202
 2934SOL     OW 8820   4.091   1.100   2.363
 2934SOL    HW1 8821   4.084   1.183   2.307
 2934SOL    HW2 8822   4.095   1.020   2.303
 2935SOL     OW 8823   4.290   0.537   2.727
 2935SOL    HW1 8824   4.302   0.603   2.653
 2935SOL    HW2 8825   4.336   0.571   2.810
 2936SOL     OW 8826   4.078   1.510   3.191
 2936SOL    HW1 8827   4.057   1.466   3.104
 2936SOL    HW2 8828   4.175   1.536   3.194
 2937SOL     OW 8829   4.126   0.751   3.460
 2937SOL    HW1 8830   4.194   0.806   3.413
 2937SOL    HW2 8831   4.166   0.663   3.487
 2938SOL     OW 8832   4.228   0.050   3.602
 2938SOL    HW1 8833   4.186  -0.007   3.532
 2938SOL    HW2 8834   4.162   0.119   3.634
 2939SOL     OW 8835   4.297   0.870   2.891
 2939SOL    HW1 8836   4.341   0.959   2.882
 2939SOL    HW2 8837   4.234   0.870   2.968
 2940SOL     OW 8838   4.933   0.525   2.137
 2940SOL    HW1 8839   4.946   0.441   2.191
 2940SOL    HW2 8840   4.904   0.599   2.197
 2941SOL     OW 8841   4.031   0.213   3.093
 2941SOL    HW1 8842   4.008   0.250   3.183
 2941SOL    HW2 8843   4.001   0.118   3.087
 2942SOL     OW 8844   3.761   1.310   3.144
 2942SOL    HW1 8845   3.814   1.261   3.212
 2942SOL    HW2 8846   3.783   1.408   3.149
 2943SOL     OW 8847   4.456   0.634   2.926
 2943SOL    HW1 8848   4.515   0.608   2.850
 2943SOL    HW2 8849   4.428   0.730   2.915
 2944SOL     OW 8850   4.031   0.063   2.480
 2944SOL    HW1 8851   4.020   0.157   2.513
 2944SOL    HW2 8852   4.026   0.000   2.557
 2945SOL     OW 8853   4.747   0.766   2.828
 2945SOL    HW1 8854   4.762   0.787   2.924
 2945SOL    HW2 8855   4.717   0.671   2.819
 2946SOL     OW 8856   4.704   1.573   3.562
 2946SOL    HW1 8857   4.684   1.617   3.474
 2946SOL    HW2 8858   4.743   1.482   3.546
 2947SOL     OW 8859   4.074   0.898   3.666
 2947SOL    HW1 8860   4.150   0.942   3.714
 2947SOL    HW2 8861   4.109   0.851   3.584
 2948SOL     OW 8862   4.043   0.810   2.811
 2948SOL    HW1 8863   4.136   0.846   2.816
 2948SOL    HW2 8864   4.037   0.725   2.863
 2949SOL     OW 8865   4.063   0.509   2.868
 2949SOL    HW1 8866   4.011   0.426   2.851
 2949SOL    HW2 8867   4.140   0.514   2.804
 2950SOL     OW 8868   3.732   1.326   2.062
 2950SOL    HW1 8869   3.639   1.347   2.031
 2950SOL    HW2 8870   3.742   1.227   2.075
 2951SOL     OW 8871   3.812   1.801   2.789
 2951SOL    HW1 8872   3.770   1.715   2.762
 2951SOL    HW2 8873   3.906   1.804   2.755
 2952SOL     OW 8874   4.228   1.568   2.772
 2952SOL    HW1 8875   4.294   1.642   2.781
 2952SOL    HW2 8876   4.272   1.489   2.730
 2953SOL     OW 8877   4.726   0.796   3.100
 2953SOL    HW1 8878   4.767   0.764   3.186
 2953SOL    HW2 8879   4.630   0.769   3.097
 2954SOL     OW 8880   3.764   0.544   2.976
 2954SOL    HW1 8881   3.849   0.511   2.935
 2954SOL    HW2 8882   3.777   0.559   3.074
 2955SOL     OW 8883   3.913   0.520   3.584
 2955SOL    HW1 8884   3.972   0.480   3.514
 2955SOL    HW2 8885   3.855   0.591   3.543
 2956SOL     OW 8886   4.539   0.572   2.187
 2956SOL    HW1 8887   4.546   0.483   2.141
 2956SOL    HW2 8888   4.445   0.606   2.179
 2957SOL     OW 8889   3.976   1.564   3.606
 2957SOL    HW1 8890   3.946   1.621   3.682
 2957SOL    HW2 8891   3.969   1.467   3.632
 2958SOL     OW 8892   4.395   0.464   3.131
 2958SOL    HW1 8893   4.361   0.375   3.101
 2958SOL    HW2 8894   4.421   0.518   3.051
 2959SOL     OW 8895   4.654   1.678   3.327
 2959SOL    HW1 8896   4.630   1.660   3.232
 2959SOL    HW2 8897   4.684   1.772   3.337
 2960SOL     OW 8898   4.197   0.500   2.053
 2960SOL    HW1 8899   4.258   0.580   2.057
 2960SOL    HW2 8900   4.102   0.531   2.060
 2961SOL     OW 8901   3.883   1.137   3.328
 2961SOL    HW1 8902   3.905   1.076   3.404
 2961SOL    HW2 8903   3.893   1.088   3.242
 2962SOL     OW 8904   3.807   1.258   2.884
 2962SOL    HW1 8905   3.802   1.257   2.984
 2962SOL    HW2 8906   3.724   1.217   2.846
 2963SOL     OW 8907   4.412   1.662   3.578
 2963SOL    HW1 8908   4.356   1.743   3.587
 2963SOL    HW2 8909   4.464   1.666   3.492
 2964SOL     OW 8910   4.627   0.086   1.995
 2964SOL    HW1 8911   4.678   0.087   1.909
 2964SOL    HW2 8912   4.683   0.044   2.066
 2965SOL     OW 8913   3.854   1.794   3.713
 2965SOL    HW1 8914   3.813   1.720   3.766
 2965SOL    HW2 8915   3.918   1.845   3.771
 2966SOL     OW 8916   5.004   0.927   2.534
 2966SOL    HW1 8917   5.064   0.846   2.536
 2966SOL    HW2 8918   5.044   0.996   2.474
 2967SOL     OW 8919   4.554   1.273   3.284
 2967SOL    HW1 8920   4.549   1.306   3.379
 2967SOL    HW2 8921   4.468   1.292   3.238
 2968SOL     OW 8922   4.396   1.616   2.016
 2968SOL    HW1 8923   4.405   1.626   1.917
 2968SOL    HW2 8924   4.356   1.527   2.037
 2969SOL     OW 8925   3.987   0.326   2.582
 2969SOL    HW1 8926   3.908   0.377   2.548
 2969SOL    HW2 8927   3.978   0.311   2.680
 2970SOL     OW 8928   4.546   1.002   3.234
 2970SOL    HW1 8929   4.586   1.001   3.142
 2970SOL    HW2 8930   4.556   1.094   3.274
 2971SOL     OW 8931   4.096   1.288   3.352
 2971SOL    HW1 8932   4.083   1.381   3.318
 2971SOL    HW2 8933   4.012   1.236   3.339
 2972SOL     OW 8934   4.738   0.236   2.833
 2972SOL    HW1 8935   4.730   0.200   2.740
 2972SOL    HW2 8936   4.736   0.160   2.898
 2973SOL     OW 8937   4.314   1.487   2.353
 2973SOL    HW1 8938   4.356   1.429   2.283
 2973SOL    HW2 8939   4.270   1.566   2.309
 2974SOL     OW 8940   3.979   1.348   2.152
 2974SOL    HW1 8941   3.883   1.349   2.125
 2974SOL    HW2 8942   3.991   1.401   2.236
 2975SOL     OW 8943   3.829   1.013   3.588
 2975SOL    HW1 8944   3.752   0.980   3.642
 2975SOL    HW2 8945   3.914   0.983   3.630
 2976SOL     OW 8946   4.396   0.203   3.351
 2976SOL    HW1 8947   4.486   0.187   3.311
 2976SOL    HW2 8948   4.404   0.208   3.450
 2977SOL     OW 8949   3.799   0.345   1.895
 2977SOL    HW1 8950   3.707   0.317   1.866
 2977SOL    HW2 8951   3.830   0.422   1.839
 2978SOL     OW 8952   3.796   0.166   2.180
 2978SOL    HW1 8953   3.779   0.249   2.126
 2978SOL    HW2 8954   3.886   0.129   2.158
 2979SOL     OW 8955   4.337   0.842   3.293
 2979SOL    HW1 8956   4.393   0.923   3.276
 2979SOL    HW2 8957   4.396   0.762   3.296
 2980SOL     OW 8958   4.440   0.565   3.570
 2980SOL    HW1 8959   4.459   0.630   3.644
 2980SOL    HW2 8960   4.500   0.485   3.579
 2981SOL     OW 8961   4.114   1.741   3.422
 2981SOL    HW1 8962   4.023   1.782   3.420
 2981SOL    HW2 8963   4.107   1.647   3.454
 2982SOL     OW 8964   4.949   0.325   2.311
 2982SOL    HW1 8965   5.014   0.251   2.300
 2982SOL    HW2 8966   4.969   0.375   2.395
 2983SOL     OW 8967   4.318   0.745   2.514
 2983SOL    HW1 8968   4.368   0.830   2.495
 2983SOL    HW2 8969   4.230   0.747   2.466
 2984SOL     OW 8970   4.583   1.374   1.878
 2984SOL    HW1 8971   4.537   1.389   1.966
 2984SOL    HW2 8972   4.627   1.459   1.848
 2985SOL     OW 8973   4.385   1.790   2.815
 2985SOL    HW1 8974   4.339   1.878   2.802
 2985SOL    HW2 8975   4.484   1.802   2.808
 2986SOL     OW 8976   4.583   0.956   2.723
 2986SOL    HW1 8977   4.637   0.887   2.771
 2986SOL    HW2 8978   4.551   1.025   2.789
 2987SOL     OW 8979   3.945   1.314   3.706
 2987SOL    HW1 8980   3.880   1.241   3.685
 2987SOL    HW2 8981   3.949   1.328   3.804
 2988SOL     OW 8982   3.803   1.240   2.515
 2988SOL    HW1 8983   3.802   1.193   2.603
 2988SOL    HW2 8984   3.885   1.212   2.464
 2989SOL     OW 8985   4.396   1.391   3.486
 2989SOL    HW1 8986   4.318   1.341   3.524
 2989SOL    HW2 8987   4.393   1.486   3.517
 2990SOL     OW 8988   4.152   0.424   2.382
 2990SOL    HW1 8989   4.182   0.352   2.320
 2990SOL    HW2 8990   4.113   0.384   2.465
 2991SOL     OW 8991   4.041   0.547   3.142
 2991SOL    HW1 8992   4.079   0.488   3.214
 2991SOL    HW2 8993   4.081   0.521   3.054
 2992SOL     OW 8994   4.536   1.586   2.549
 2992SOL    HW1 8995   4.568   1.596   2.455
 2992SOL    HW2 8996   4.457   1.524   2.551
 2993SOL     OW 8997   4.725   0.034   3.016
 2993SOL    HW1 8998   4.662  -0.038   2.985
 2993SOL    HW2 8999   4.818  -0.002   3.016
 2994SOL     OW 9000   4.494   1.330   2.163
 2994SOL    HW1 9001   4.448   1.243   2.180
 2994SOL    HW2 9002   4.585   1.327   2.204
 2995SOL     OW 9003   4.342   1.567   3.146
 2995SOL    HW1 9004   4.337   1.649   3.203
 2995SOL    HW2 9005   4.431   1.564   3.101
 2996SOL     OW 9006   3.763   1.077   2.162
 2996SOL    HW1 9007   3.862   1.066   2.153
 2996SOL    HW2 9008   3.723   0.991   2.194
 2997SOL     OW 9009   4.599   1.646   2.199
 2997SOL    HW1 9010   4.522   1.611   2.145
 2997SOL    HW2 9011   4.567   1.717   2.261
 2998SOL     OW 9012   3.954   0.628   3.837
 2998SOL    HW1 9013   3.861   0.626   3.874
 2998SOL    HW2 9014   3.955   0.589   3.745
 2999SOL     OW 9015   3.949   0.275   4.720
 2999SOL    HW1 9016   3.984   0.258   4.812
 2999SOL    HW2 9017   3.861   0.230   4.708
 3000SOL     OW 9018   3.743   0.368   4.371
 3000SOL    HW1 9019   3.661   0.411   4.410
 3000SOL    HW2 9020   3.715   0.295   4.308
 3001SOL     OW 9021   4.492   1.144   4.747
 3001SOL    HW1 9022   4.414   1.161   4.807
 3001SOL    HW2 9023   4.526   1.231   4.711
 3002SOL     OW 9024   4.409   1.012   4.389
 3002SOL    HW1 9025   4.478   0.996   4.459
 3002SOL    HW2 9026   4.336   1.069   4.427
 3003SOL     OW 9027   3.955   1.713   4.207
 3003SOL    HW1 9028   3.989   1.790   4.261
 3003SOL    HW2 9029   3.999   1.713   4.117
 3004SOL     OW 9030   3.954   1.434   4.262
 3004SOL    HW1 9031   3.928   1.530   4.262
 3004SOL    HW2 9032   3.883   1.380   4.307
 3005SOL     OW 9033   3.964   1.091   4.610
 3005SOL    HW1 9034   3.978   1.007   4.662
 3005SOL    HW2 9035   3.909   1.155   4.665
 3006SOL     OW 9036   4.330   0.964   3.847
 3006SOL    HW1 9037   4.337   1.048   3.793
 3006SOL    HW2 9038   4.376   0.977   3.935
 3007SOL     OW 9039   3.846   0.643   4.287
 3007SOL    HW1 9040   3.801   0.555   4.304
 3007SOL    HW2 9041   3.845   0.697   4.371
 3008SOL     OW 9042   3.751   1.596   3.841
 3008SOL    HW1 9043   3.732   1.500   3.862
 3008SOL    HW2 9044   3.718   1.654   3.916
 3009SOL     OW 9045   4.337   1.365   4.450
 3009SOL    HW1 9046   4.288   1.278   4.459
 3009SOL    HW2 9047   4.314   1.408   4.363
 3010SOL     OW 9048   4.533   0.004   4.226
 3010SOL    HW1 9049   4.573   0.095   4.217
 3010SOL    HW2 9050   4.433   0.012   4.232
 3011SOL     OW 9051   4.322   0.729   3.994
 3011SOL    HW1 9052   4.346   0.798   3.926
 3011SOL    HW2 9053   4.244   0.762   4.048
 3012SOL     OW 9054   3.800   0.811   4.513
 3012SOL    HW1 9055   3.899   0.799   4.522
 3012SOL    HW2 9056   3.776   0.906   4.534
 3013SOL     OW 9057   4.589   0.348   3.919
 3013SOL    HW1 9058   4.648   0.411   3.870
 3013SOL    HW2 9059   4.608   0.254   3.890
 3014SOL     OW 9060   4.732   1.456   4.201
 3014SOL    HW1 9061   4.686   1.528   4.149
 3014SOL    HW2 9062   4.728   1.476   4.299
 3015SOL     OW 9063   4.075   1.801   4.577
 3015SOL    HW1 9064   4.125   1.715   4.583
 3015SOL    HW2 9065   4.140   1.878   4.574
 3016SOL     OW 9066   4.045   0.943   3.966
 3016SOL    HW1 9067   4.127   0.982   3.924
 3016SOL    HW2 9068   4.018   0.861   3.917
 3017SOL     OW 9069   4.188   1.743   4.047
 3017SOL    HW1 9070   4.221   1.782   4.133
 3017SOL    HW2 9071   4.264   1.736   3.982
 3018SOL     OW 9072   3.973   1.785   4.965
 3018SOL    HW1 9073   4.030   1.720   5.015
 3018SOL    HW2 9074   3.957   1.752   4.872
 3019SOL     OW 9075   4.106   0.700   4.204
 3019SOL    HW1 9076   4.151   0.610   4.201
 3019SOL    HW2 9077   4.012   0.689   4.237
 3020SOL     OW 9078   4.338   0.122   3.841
 3020SOL    HW1 9079   4.436   0.100   3.848
 3020SOL    HW2 9080   4.307   0.105   3.748
 3021SOL     OW 9081   4.646   0.503   4.623
 3021SOL    HW1 9082   4.621   0.494   4.527
 3021SOL    HW2 9083   4.694   0.421   4.654
 3022SOL     OW 9084   4.263   0.064   4.236
 3022SOL    HW1 9085   4.182   0.065   4.294
 3022SOL    HW2 9086   4.266   0.147   4.181
 3023SOL     OW 9087   4.021   0.035   3.895
 3023SOL    HW1 9088   4.070   0.119   3.874
 3023SOL    HW2 9089   4.083  -0.030   3.940
 3024SOL     OW 9090   4.659   0.236   4.204
 3024SOL    HW1 9091   4.611   0.277   4.126
 3024SOL    HW2 9092   4.758   0.234   4.185
 3025SOL     OW 9093   4.951   1.570   4.517
 3025SOL    HW1 9094   4.972   1.644   4.452
 3025SOL    HW2 9095   5.019   1.570   4.590
 3026SOL     OW 9096   4.183   1.152   4.465
 3026SOL    HW1 9097   4.112   1.125   4.530
 3026SOL    HW2 9098   4.157   1.124   4.372
 3027SOL     OW 9099   4.741   0.039   4.477
 3027SOL    HW1 9100   4.669   0.044   4.408
 3027SOL    HW2 9101   4.717  -0.030   4.546
 3028SOL     OW 9102   4.212   1.385   3.898
 3028SOL    HW1 9103   4.125   1.370   3.945
 3028SOL    HW2 9104   4.195   1.411   3.803
 3029SOL     OW 9105   4.251   0.256   4.052
 3029SOL    HW1 9106   4.278   0.197   3.977
 3029SOL    HW2 9107   4.251   0.351   4.021
 3030SOL     OW 9108   4.429   1.050   4.092
 3030SOL    HW1 9109   4.415   1.057   4.191
 3030SOL    HW2 9110   4.513   0.999   4.074
 3031SOL     OW 9111   4.091   1.100   4.225
 3031SOL    HW1 9112   4.084   1.183   4.169
 3031SOL    HW2 9113   4.095   1.020   4.165
 3032SOL     OW 9114   4.290   0.537   4.589
 3032SOL    HW1 9115   4.302   0.603   4.515
 3032SOL    HW2 9116   4.336   0.571   4.672
 3033SOL     OW 9117   4.996   1.445   4.866
 3033SOL    HW1 9118   5.043   1.458   4.953
 3033SOL    HW2 9119   4.930   1.371   4.875
 3034SOL     OW 9120   4.933   0.525   3.999
 3034SOL    HW1 9121   4.946   0.441   4.053
 3034SOL    HW2 9122   4.904   0.599   4.059
 3035SOL     OW 9123   4.456   0.634   4.788
 3035SOL    HW1 9124   4.515   0.608   4.712
 3035SOL    HW2 9125   4.428   0.730   4.777
 3036SOL     OW 9126   4.031   0.063   4.342
 3036SOL    HW1 9127   4.020   0.157   4.375
 3036SOL    HW2 9128   4.026   0.000   4.419
 3037SOL     OW 9129   4.747   0.766   4.690
 3037SOL    HW1 9130   4.762   0.787   4.786
 3037SOL    HW2 9131   4.717   0.671   4.681
 3038SOL     OW 9132   4.043   0.810   4.673
 3038SOL    HW1 9133   4.136   0.846   4.678
 3038SOL    HW2 9134   4.037   0.725   4.725
 3039SOL     OW 9135   3.732   1.326   3.924
 3039SOL    HW1 9136   3.639   1.347   3.893
 3039SOL    HW2 9137   3.742   1.227   3.937
 3040SOL     OW 9138   3.812   1.801   4.651
 3040SOL    HW1 9139   3.770   1.715   4.624
 3040SOL    HW2 9140   3.906   1.804   4.617
 3041SOL     OW 9141   4.228   1.568   4.634
 3041SOL    HW1 9142   4.294   1.642   4.643
 3041SOL    HW2 9143   4.272   1.489   4.592
 3042SOL     OW 9144   4.726   0.796   4.962
 3042SOL    HW1 9145   4.767   0.764   5.048
 3042SOL    HW2 9146   4.630   0.769   4.959
 3043SOL     OW 9147   4.539   0.572   4.049
 3043SOL    HW1 9148   4.546   0.483   4.003
 3043SOL    HW2 9149   4.445   0.606   4.041
 3044SOL     OW 9150   4.395   0.464   4.993
 3044SOL    HW1 9151   4.361   0.375   4.963
 3044SOL    HW2 9152   4.421   0.518   4.913
 3045SOL     OW 9153   4.197   0.500   3.915
 3045SOL    HW1 9154   4.258   0.580   3.919
 3045SOL    HW2 9155   4.102   0.531   3.922
 3046SOL     OW 9156   3.807   1.258   4.746
 3046SOL    HW1 9157   3.802   1.257   4.846
 3046SOL    HW2 9158   3.724   1.217   4.708
 3047SOL     OW 9159   4.627   0.086   3.857
 3047SOL    HW1 9160   4.678   0.087   3.771
 3047SOL    HW2 9161   4.683   0.044   3.928
 3048SOL     OW 9162   5.004   0.927   4.396
 3048SOL    HW1 9163   5.064   0.846   4.398
 3048SOL    HW2 9164   5.044   0.996   4.336
 3049SOL     OW 9165   4.396   1.616   3.878
 3049SOL    HW1 9166   4.405   1.626   3.779
 3049SOL    HW2 9167   4.356   1.527   3.899
 3050SOL     OW 9168   3.987   0.326   4.444
 3050SOL    HW1 9169   3.908   0.377   4.410
 3050SOL    HW2 9170   3.978   0.311   4.542
 3051SOL     OW 9171   4.314   1.487   4.215
 3051SOL    HW1 9172   4.356   1.429   4.145
 3051SOL    HW2 9173   4.270   1.566   4.171
 3052SOL     OW 9174   3.979   1.348   4.014
 3052SOL    HW1 9175   3.883   1.349   3.987
 3052SOL    HW2 9176   3.991   1.401   4.098
 3053SOL     OW 9177   3.799   0.345   3.757
 3053SOL    HW1 9178   3.707   0.317   3.728
 3053SOL    HW2 9179   3.830   0.422   3.701
 3054SOL     OW 9180   3.796   0.166   4.042
 3054SOL    HW1 9181   3.779   0.249   3.988
 3054SOL    HW2 9182   3.886   0.129   4.020
 3055SOL     OW 9183   4.949   0.325   4.173
 3055SOL    HW1 9184   5.014   0.251   4.162
 3055SOL    HW2 9185   4.969   0.375   4.257
 3056SOL     OW 9186   4.318   0.745   4.376
 3056SOL    HW1 9187   4.368   0.830   4.357
 3056SOL    HW2 9188   4.230   0.747   4.328
 3057SOL     OW 9189   4.583   1.374   3.740
 3057SOL    HW1 9190   4.537   1.389   3.828
 3057SOL    HW2 9191   4.627   1.459   3.710
 3058SOL     OW 9192   4.385   1.790   4.677
 3058SOL    HW1 9193   4.339   1.878   4.664
 3058SOL    HW2 9194   4.484   1.802   4.670
 3059SOL     OW 9195   4.583   0.956   4.585
 3059SOL    HW1 9196   4.637   0.887   4.633
 3059SOL    HW2 9197   4.551   1.025   4.651
 3060SOL     OW 9198   3.803   1.240   4.377
 3060SOL    HW1 9199   3.802   1.193   4.465
 3060SOL    HW2 9200   3.885   1.212   4.326
 3061SOL     OW 9201   4.152   0.424   4.244
 3061SOL    HW1 9202   4.182   0.352   4.182
 3061SOL    HW2 9203   4.113   0.384   4.327
 3062SOL     OW 9204   4.536   1.586   4.411
 3062SOL    HW1 9205   4.568   1.596   4.317
 3062SOL    HW2 9206   4.457   1.524   4.413
 3063SOL     OW 9207   4.494   1.330   4.025
 3063SOL    HW1 9208   4.448   1.243   4.042
 3063SOL    HW2 9209   4.585   1.327   4.066
 3064SOL     OW 9210   3.763   1.077   4.024
 3064SOL    HW1 9211   3.862   1.066   4.015
 3064SOL    HW2 9212   3.723   0.991   4.056
 3065SOL     OW 9213   4.599   1.646   4.061
 3065SOL    HW1 9214   4.522   1.611   4.007
 3065SOL    HW2 9215   4.567   1.717   4.123
 3066SOL     OW 9216   3.954   2.490   0.113
 3066SOL    HW1 9217   3.861   2.488   0.150
 3066SOL    HW2 9218   3.955   2.451   0.021
 3067SOL     OW 9219   3.949   2.137   0.996
 3067SOL    HW1 9220   3.984   2.120   1.088
 3067SOL    HW2 9221   3.861   2.092   0.984
 3068SOL     OW 9222   3.743   2.230   0.647
 3068SOL    HW1 9223   3.661   2.273   0.686
 3068SOL    HW2 9224   3.715   2.157   0.584
 3069SOL     OW 9225   4.293   3.137   1.165
 3069SOL    HW1 9226   4.200   3.130   1.128
 3069SOL    HW2 9227   4.304   3.226   1.209
 3070SOL     OW 9228   4.492   3.006   1.023
 3070SOL    HW1 9229   4.414   3.023   1.083
 3070SOL    HW2 9230   4.526   3.093   0.987
 3071SOL     OW 9231   4.574   2.660   1.823
 3071SOL    HW1 9232   4.570   2.736   1.888
 3071SOL    HW2 9233   4.596   2.696   1.732
 3072SOL     OW 9234   4.409   2.874   0.665
 3072SOL    HW1 9235   4.478   2.858   0.735
 3072SOL    HW2 9236   4.336   2.931   0.703
 3073SOL     OW 9237   4.410   3.023   1.803
 3073SOL    HW1 9238   4.470   3.102   1.817
 3073SOL    HW2 9239   4.324   3.054   1.762
 3074SOL     OW 9240   4.059   3.297   1.061
 3074SOL    HW1 9241   3.981   3.266   1.008
 3074SOL    HW2 9242   4.117   3.355   1.004
 3075SOL     OW 9243   4.162   2.254   1.499
 3075SOL    HW1 9244   4.244   2.198   1.508
 3075SOL    HW2 9245   4.081   2.196   1.503
 3076SOL     OW 9246   3.955   3.575   0.483
 3076SOL    HW1 9247   3.989   3.652   0.537
 3076SOL    HW2 9248   3.999   3.575   0.393
 3077SOL     OW 9249   3.954   3.296   0.538
 3077SOL    HW1 9250   3.928   3.392   0.538
 3077SOL    HW2 9251   3.883   3.242   0.583
 3078SOL     OW 9252   3.964   2.953   0.886
 3078SOL    HW1 9253   3.978   2.869   0.938
 3078SOL    HW2 9254   3.909   3.017   0.941
 3079SOL     OW 9255   4.344   3.648   1.439
 3079SOL    HW1 9256   4.252   3.631   1.474
 3079SOL    HW2 9257   4.372   3.740   1.465
 3080SOL     OW 9258   4.330   2.826   0.123
 3080SOL    HW1 9259   4.337   2.910   0.069
 3080SOL    HW2 9260   4.376   2.839   0.211
 3081SOL     OW 9261   3.846   2.505   0.563
 3081SOL    HW1 9262   3.801   2.417   0.580
 3081SOL    HW2 9263   3.845   2.559   0.647
 3082SOL     OW 9264   3.751   3.458   0.117
 3082SOL    HW1 9265   3.732   3.362   0.138
 3082SOL    HW2 9266   3.718   3.516   0.192
 3083SOL     OW 9267   3.837   2.599   1.597
 3083SOL    HW1 9268   3.925   2.586   1.642
 3083SOL    HW2 9269   3.824   2.696   1.575
 3084SOL     OW 9270   4.337   3.227   0.726
 3084SOL    HW1 9271   4.288   3.140   0.735
 3084SOL    HW2 9272   4.314   3.270   0.639
 3085SOL     OW 9273   4.533   1.866   0.502
 3085SOL    HW1 9274   4.573   1.957   0.493
 3085SOL    HW2 9275   4.433   1.874   0.508
 3086SOL     OW 9276   3.921   2.838   1.264
 3086SOL    HW1 9277   4.010   2.793   1.250
 3086SOL    HW2 9278   3.848   2.773   1.245
 3087SOL     OW 9279   4.041   2.113   1.801
 3087SOL    HW1 9280   4.112   2.184   1.807
 3087SOL    HW2 9281   3.953   2.152   1.829
 3088SOL     OW 9282   4.322   2.591   0.270
 3088SOL    HW1 9283   4.346   2.660   0.202
 3088SOL    HW2 9284   4.244   2.624   0.324
 3089SOL     OW 9285   4.531   2.467   1.465
 3089SOL    HW1 9286   4.484   2.464   1.554
 3089SOL    HW2 9287   4.480   2.412   1.399
 3090SOL     OW 9288   4.697   2.752   1.572
 3090SOL    HW1 9289   4.743   2.668   1.543
 3090SOL    HW2 9290   4.641   2.786   1.497
 3091SOL     OW 9291   4.715   2.272   1.242
 3091SOL    HW1 9292   4.638   2.306   1.296
 3091SOL    HW2 9293   4.681   2.221   1.163
 3092SOL     OW 9294   3.800   2.673   0.789
 3092SOL    HW1 9295   3.899   2.661   0.798
 3092SOL    HW2 9296   3.776   2.768   0.810
 3093SOL     OW 9297   3.854   3.683   1.571
 3093SOL    HW1 9298   3.844   3.668   1.670
 3093SOL    HW2 9299   3.768   3.719   1.535
 3094SOL     OW 9300   4.589   2.210   0.195
 3094SOL    HW1 9301   4.648   2.273   0.146
 3094SOL    HW2 9302   4.608   2.116   0.166
 3095SOL     OW 9303   4.274   2.058   0.885
 3095SOL    HW1 9304   4.269   2.053   0.985
 3095SOL    HW2 9305   4.276   2.154   0.856
 3096SOL     OW 9306   4.732   3.318   0.477
 3096SOL    HW1 9307   4.686   3.390   0.425
 3096SOL    HW2 9308   4.728   3.338   0.575
 3097SOL     OW 9309   4.075   3.663   0.853
 3097SOL    HW1 9310   4.125   3.577   0.859
 3097SOL    HW2 9311   4.140   3.740   0.850
 3098SOL     OW 9312   4.045   2.805   0.242
 3098SOL    HW1 9313   4.127   2.844   0.200
 3098SOL    HW2 9314   4.018   2.723   0.193
 3099SOL     OW 9315   4.185   3.128   1.727
 3099SOL    HW1 9316   4.135   3.129   1.641
 3099SOL    HW2 9317   4.122   3.110   1.803
 3100SOL     OW 9318   3.926   2.147   1.498
 3100SOL    HW1 9319   3.846   2.207   1.485
 3100SOL    HW2 9320   3.916   2.098   1.584
 3101SOL     OW 9321   4.188   3.605   0.323
 3101SOL    HW1 9322   4.221   3.644   0.409
 3101SOL    HW2 9323   4.264   3.598   0.258
 3102SOL     OW 9324   3.973   3.647   1.241
 3102SOL    HW1 9325   4.030   3.582   1.291
 3102SOL    HW2 9326   3.957   3.614   1.148
 3103SOL     OW 9327   4.106   2.562   0.480
 3103SOL    HW1 9328   4.151   2.472   0.477
 3103SOL    HW2 9329   4.012   2.551   0.513
 3104SOL     OW 9330   4.338   1.984   0.117
 3104SOL    HW1 9331   4.436   1.962   0.124
 3104SOL    HW2 9332   4.307   1.967   0.024
 3105SOL     OW 9333   4.505   2.126   1.749
 3105SOL    HW1 9334   4.572   2.065   1.792
 3105SOL    HW2 9335   4.432   2.145   1.814
 3106SOL     OW 9336   4.612   3.376   1.195
 3106SOL    HW1 9337   4.589   3.351   1.101
 3106SOL    HW2 9338   4.673   3.307   1.234
 3107SOL     OW 9339   4.527   3.264   0.924
 3107SOL    HW1 9340   4.617   3.278   0.882
 3107SOL    HW2 9341   4.456   3.266   0.853
 3108SOL     OW 9342   4.646   2.365   0.899
 3108SOL    HW1 9343   4.621   2.356   0.803
 3108SOL    HW2 9344   4.694   2.283   0.930
 3109SOL     OW 9345   4.263   1.926   0.512
 3109SOL    HW1 9346   4.182   1.927   0.570
 3109SOL    HW2 9347   4.266   2.009   0.457
 3110SOL     OW 9348   4.659   2.098   0.480
 3110SOL    HW1 9349   4.611   2.139   0.402
 3110SOL    HW2 9350   4.758   2.096   0.461
 3111SOL     OW 9351   4.951   3.432   0.793
 3111SOL    HW1 9352   4.972   3.506   0.728
 3111SOL    HW2 9353   5.019   3.432   0.866
 3112SOL     OW 9354   4.183   3.014   0.741
 3112SOL    HW1 9355   4.112   2.987   0.806
 3112SOL    HW2 9356   4.157   2.986   0.648
 3113SOL     OW 9357   3.802   2.418   1.386
 3113SOL    HW1 9358   3.894   2.417   1.345
 3113SOL    HW2 9359   3.796   2.492   1.453
 3114SOL     OW 9360   4.285   2.084   1.147
 3114SOL    HW1 9361   4.323   2.000   1.184
 3114SOL    HW2 9362   4.197   2.103   1.191
 3115SOL     OW 9363   4.741   1.901   0.753
 3115SOL    HW1 9364   4.669   1.906   0.684
 3115SOL    HW2 9365   4.717   1.832   0.822
 3116SOL     OW 9366   4.212   3.247   0.174
 3116SOL    HW1 9367   4.125   3.232   0.221
 3116SOL    HW2 9368   4.195   3.273   0.079
 3117SOL     OW 9369   4.251   2.118   0.328
 3117SOL    HW1 9370   4.278   2.059   0.253
 3117SOL    HW2 9371   4.251   2.213   0.297
 3118SOL     OW 9372   4.639   1.951   1.402
 3118SOL    HW1 9373   4.664   1.931   1.307
 3118SOL    HW2 9374   4.711   2.007   1.444
 3119SOL     OW 9375   4.704   2.978   1.719
 3119SOL    HW1 9376   4.605   2.984   1.729
 3119SOL    HW2 9377   4.727   2.898   1.663
 3120SOL     OW 9378   4.429   2.912   0.368
 3120SOL    HW1 9379   4.415   2.919   0.467
 3120SOL    HW2 9380   4.513   2.861   0.350
 3121SOL     OW 9381   4.134   2.675   1.251
 3121SOL    HW1 9382   4.220   2.687   1.301
 3121SOL    HW2 9383   4.092   2.588   1.278
 3122SOL     OW 9384   3.788   3.426   1.331
 3122SOL    HW1 9385   3.742   3.508   1.297
 3122SOL    HW2 9386   3.886   3.445   1.340
 3123SOL     OW 9387   4.091   2.962   0.501
 3123SOL    HW1 9388   4.084   3.045   0.445
 3123SOL    HW2 9389   4.095   2.882   0.441
 3124SOL     OW 9390   4.290   2.399   0.865
 3124SOL    HW1 9391   4.302   2.465   0.791
 3124SOL    HW2 9392   4.336   2.433   0.948
 3125SOL     OW 9393   4.078   3.372   1.329
 3125SOL    HW1 9394   4.057   3.328   1.242
 3125SOL    HW2 9395   4.175   3.398   1.332
 3126SOL     OW 9396   4.126   2.613   1.598
 3126SOL    HW1 9397   4.194   2.668   1.551
 3126SOL    HW2 9398   4.166   2.525   1.625
 3127SOL     OW 9399   4.737   1.967   1.770
 3127SOL    HW1 9400   4.743   2.052   1.718
 3127SOL    HW2 9401   4.769   1.891   1.713
 3128SOL     OW 9402   4.228   1.912   1.740
 3128SOL    HW1 9403   4.186   1.855   1.670
 3128SOL    HW2 9404   4.162   1.981   1.772
 3129SOL     OW 9405   4.297   2.732   1.029
 3129SOL    HW1 9406   4.341   2.821   1.020
 3129SOL    HW2 9407   4.234   2.732   1.106
 3130SOL     OW 9408   4.933   2.387   0.275
 3130SOL    HW1 9409   4.946   2.303   0.329
 3130SOL    HW2 9410   4.904   2.461   0.335
 3131SOL     OW 9411   4.031   2.075   1.231
 3131SOL    HW1 9412   4.008   2.112   1.321
 3131SOL    HW2 9413   4.001   1.980   1.225
 3132SOL     OW 9414   3.761   3.172   1.282
 3132SOL    HW1 9415   3.814   3.123   1.350
 3132SOL    HW2 9416   3.783   3.270   1.287
 3133SOL     OW 9417   4.456   2.496   1.064
 3133SOL    HW1 9418   4.515   2.470   0.988
 3133SOL    HW2 9419   4.428   2.592   1.053
 3134SOL     OW 9420   4.031   1.925   0.618
 3134SOL    HW1 9421   4.020   2.019   0.651
 3134SOL    HW2 9422   4.026   1.862   0.695
 3135SOL     OW 9423   4.747   2.628   0.966
 3135SOL    HW1 9424   4.762   2.649   1.062
 3135SOL    HW2 9425   4.717   2.533   0.957
 3136SOL     OW 9426   4.704   3.435   1.700
 3136SOL    HW1 9427   4.684   3.479   1.612
 3136SOL    HW2 9428   4.743   3.344   1.684
 3137SOL     OW 9429   4.074   2.760   1.804
 3137SOL    HW1 9430   4.150   2.804   1.852
 3137SOL    HW2 9431   4.109   2.713   1.722
 3138SOL     OW 9432   4.043   2.672   0.949
 3138SOL    HW1 9433   4.136   2.708   0.954
 3138SOL    HW2 9434   4.037   2.587   1.001
 3139SOL     OW 9435   4.063   2.371   1.006
 3139SOL    HW1 9436   4.011   2.288   0.989
 3139SOL    HW2 9437   4.140   2.376   0.942
 3140SOL     OW 9438   3.732   3.188   0.200
 3140SOL    HW1 9439   3.639   3.209   0.169
 3140SOL    HW2 9440   3.742   3.089   0.213
 3141SOL     OW 9441   3.812   3.663   0.927
 3141SOL    HW1 9442   3.770   3.577   0.900
 3141SOL    HW2 9443   3.906   3.666   0.893
 3142SOL     OW 9444   4.228   3.430   0.910
 3142SOL    HW1 9445   4.294   3.504   0.919
 3142SOL    HW2 9446   4.272   3.351   0.868
 3143SOL     OW 9447   4.726   2.658   1.238
 3143SOL    HW1 9448   4.767   2.626   1.324
 3143SOL    HW2 9449   4.630   2.631   1.235
 3144SOL     OW 9450   3.764   2.406   1.114
 3144SOL    HW1 9451   3.849   2.373   1.073
 3144SOL    HW2 9452   3.777   2.421   1.212
 3145SOL     OW 9453   3.913   2.382   1.722
 3145SOL    HW1 9454   3.972   2.342   1.652
 3145SOL    HW2 9455   3.855   2.453   1.681
 3146SOL     OW 9456   4.539   2.434   0.325
 3146SOL    HW1 9457   4.546   2.345   0.279
 3146SOL    HW2 9458   4.445   2.468   0.317
 3147SOL     OW 9459   3.976   3.426   1.744
 3147SOL    HW1 9460   3.946   3.483   1.820
 3147SOL    HW2 9461   3.969   3.329   1.770
 3148SOL     OW 9462   4.395   2.326   1.269
 3148SOL    HW1 9463   4.361   2.237   1.239
 3148SOL    HW2 9464   4.421   2.380   1.189
 3149SOL     OW 9465   4.654   3.540   1.465
 3149SOL    HW1 9466   4.630   3.522   1.370
 3149SOL    HW2 9467   4.684   3.634   1.475
 3150SOL     OW 9468   4.197   2.362   0.191
 3150SOL    HW1 9469   4.258   2.442   0.195
 3150SOL    HW2 9470   4.102   2.393   0.198
 3151SOL     OW 9471   3.883   2.999   1.466
 3151SOL    HW1 9472   3.905   2.938   1.542
 3151SOL    HW2 9473   3.893   2.950   1.380
 3152SOL     OW 9474   3.807   3.120   1.022
 3152SOL    HW1 9475   3.802   3.119   1.122
 3152SOL    HW2 9476   3.724   3.079   0.984
 3153SOL     OW 9477   4.412   3.524   1.716
 3153SOL    HW1 9478   4.356   3.605   1.725
 3153SOL    HW2 9479   4.464   3.528   1.630
 3154SOL     OW 9480   4.627   1.948   0.133
 3154SOL    HW1 9481   4.678   1.949   0.047
 3154SOL    HW2 9482   4.683   1.906   0.204
 3155SOL     OW 9483   3.854   3.656   1.851
 3155SOL    HW1 9484   3.813   3.582   1.904
 3155SOL    HW2 9485   3.918   3.707   1.909
 3156SOL     OW 9486   5.004   2.789   0.672
 3156SOL    HW1 9487   5.064   2.708   0.674
 3156SOL    HW2 9488   5.044   2.858   0.612
 3157SOL     OW 9489   4.554   3.135   1.422
 3157SOL    HW1 9490   4.549   3.168   1.517
 3157SOL    HW2 9491   4.468   3.154   1.376
 3158SOL     OW 9492   4.396   3.478   0.154
 3158SOL    HW1 9493   4.405   3.488   0.055
 3158SOL    HW2 9494   4.356   3.389   0.175
 3159SOL     OW 9495   3.987   2.188   0.720
 3159SOL    HW1 9496   3.908   2.239   0.686
 3159SOL    HW2 9497   3.978   2.173   0.818
 3160SOL     OW 9498   4.546   2.864   1.372
 3160SOL    HW1 9499   4.586   2.863   1.280
 3160SOL    HW2 9500   4.556   2.956   1.412
 3161SOL     OW 9501   4.096   3.150   1.490
 3161SOL    HW1 9502   4.083   3.243   1.456
 3161SOL    HW2 9503   4.012   3.098   1.477
 3162SOL     OW 9504   4.738   2.098   0.971
 3162SOL    HW1 9505   4.730   2.062   0.878
 3162SOL    HW2 9506   4.736   2.022   1.036
 3163SOL     OW 9507   4.314   3.349   0.491
 3163SOL    HW1 9508   4.356   3.291   0.421
 3163SOL    HW2 9509   4.270   3.428   0.447
 3164SOL     OW 9510   3.979   3.210   0.290
 3164SOL    HW1 9511   3.883   3.211   0.263
 3164SOL    HW2 9512   3.991   3.263   0.374
 3165SOL     OW 9513   3.829   2.875   1.726
 3165SOL    HW1 9514   3.752   2.842   1.780
 3165SOL    HW2 9515   3.914   2.845   1.768
 3166SOL     OW 9516   4.396   2.065   1.489
 3166SOL    HW1 9517   4.486   2.049   1.449
 3166SOL    HW2 9518   4.404   2.070   1.588
 3167SOL     OW 9519   3.799   2.207   0.033
 3167SOL    HW1 9520   3.707   2.179   0.004
 3167SOL    HW2 9521   3.830   2.284  -0.023
 3168SOL     OW 9522   4.337   2.704   1.431
 3168SOL    HW1 9523   4.393   2.785   1.414
 3168SOL    HW2 9524   4.396   2.624   1.434
 3169SOL     OW 9525   4.440   2.427   1.708
 3169SOL    HW1 9526   4.459   2.492   1.782
 3169SOL    HW2 9527   4.500   2.347   1.717
 3170SOL     OW 9528   4.114   3.603   1.560
 3170SOL    HW1 9529   4.023   3.644   1.558
 3170SOL    HW2 9530   4.107   3.509   1.592
 3171SOL     OW 9531   4.949   2.187   0.449
 3171SOL    HW1 9532   5.014   2.113   0.438
 3171SOL    HW2 9533   4.969   2.237   0.533
 3172SOL     OW 9534   4.318   2.607   0.652
 3172SOL    HW1 9535   4.368   2.692   0.633
 3172SOL    HW2 9536   4.230   2.609   0.604
 3173SOL     OW 9537   4.583   3.236   0.016
 3173SOL    HW1 9538   4.537   3.251   0.104
 3173SOL    HW2 9539   4.627   3.321  -0.014
 3174SOL     OW 9540   4.385   3.652   0.953
 3174SOL    HW1 9541   4.339   3.740   0.940
 3174SOL    HW2 9542   4.484   3.664   0.946
 3175SOL     OW 9543   4.583   2.818   0.861
 3175SOL    HW1 9544   4.637   2.749   0.909
 3175SOL    HW2 9545   4.551   2.887   0.927
 3176SOL     OW 9546   4.807   2.846   0.087
 3176SOL    HW1 9547   4.784   2.899   0.005
 3176SOL    HW2 9548   4.888   2.790   0.068
 3177SOL     OW 9549   3.945   3.176   1.844
 3177SOL    HW1 9550   3.880   3.103   1.823
 3177SOL    HW2 9551   3.949   3.190   1.942
 3178SOL     OW 9552   3.803   3.102   0.653
 3178SOL    HW1 9553   3.802   3.055   0.741
 3178SOL    HW2 9554   3.885   3.074   0.602
 3179SOL     OW 9555   4.396   3.253   1.624
 3179SOL    HW1 9556   4.318   3.203   1.662
 3179SOL    HW2 9557   4.393   3.348   1.655
 3180SOL     OW 9558   4.152   2.286   0.520
 3180SOL    HW1 9559   4.182   2.214   0.458
 3180SOL    HW2 9560   4.113   2.246   0.603
 3181SOL     OW 9561   4.041   2.409   1.280
 3181SOL    HW1 9562   4.079   2.350   1.352
 3181SOL    HW2 9563   4.081   2.383   1.192
 3182SOL     OW 9564   4.536   3.448   0.687
 3182SOL    HW1 9565   4.568   3.458   0.593
 3182SOL    HW2 9566   4.457   3.386   0.689
 3183SOL     OW 9567   4.725   1.896   1.154
 3183SOL    HW1 9568   4.662   1.824   1.123
 3183SOL    HW2 9569   4.818   1.860   1.154
 3184SOL     OW 9570   4.494   3.192   0.301
 3184SOL    HW1 9571   4.448   3.105   0.318
 3184SOL    HW2 9572   4.585   3.189   0.342
 3185SOL     OW 9573   4.342   3.429   1.284
 3185SOL    HW1 9574   4.337   3.511   1.341
 3185SOL    HW2 9575   4.431   3.426   1.239
 3186SOL     OW 9576   3.763   2.939   0.300
 3186SOL    HW1 9577   3.862   2.928   0.291
 3186SOL    HW2 9578   3.723   2.853   0.332
 3187SOL     OW 9579   4.599   3.508   0.337
 3187SOL    HW1 9580   4.522   3.473   0.283
 3187SOL    HW2 9581   4.567   3.579   0.399
 3188SOL     OW 9582   3.954   2.490   1.975
 3188SOL    HW1 9583   3.861   2.488   2.012
 3188SOL    HW2 9584   3.955   2.451   1.883
 3189SOL     OW 9585   3.949   2.137   2.858
 3189SOL    HW1 9586   3.984   2.120   2.950
 3189SOL    HW2 9587   3.861   2.092   2.846
 3190SOL     OW 9588   3.743   2.230   2.509
 3190SOL    HW1 9589   3.661   2.273   2.548
 3190SOL    HW2 9590   3.715   2.157   2.446
 3191SOL     OW 9591   4.293   3.137   3.027
 3191SOL    HW1 9592   4.200   3.130   2.990
 3191SOL    HW2 9593   4.304   3.226   3.071
 3192SOL     OW 9594   4.492   3.006   2.885
 3192SOL    HW1 9595   4.414   3.023   2.945
 3192SOL    HW2 9596   4.526   3.093   2.849
 3193SOL     OW 9597   4.574   2.660   3.685
 3193SOL    HW1 9598   4.570   2.736   3.750
 3193SOL    HW2 9599   4.596   2.696   3.594
 3194SOL     OW 9600   4.409   2.874   2.527
 3194SOL    HW1 9601   4.478   2.858   2.597
 3194SOL    HW2 9602   4.336   2.931   2.565
 3195SOL     OW 9603   4.410   3.023   3.665
 3195SOL    HW1 9604   4.470   3.102   3.679
 3195SOL    HW2 9605   4.324   3.054   3.624
 3196SOL     OW 9606   4.059   3.297   2.923
 3196SOL    HW1 9607   3.981   3.266   2.870
 3196SOL    HW2 9608   4.117   3.355   2.866
 3197SOL     OW 9609   4.162   2.254   3.361
 3197SOL    HW1 9610   4.244   2.198   3.370
 3197SOL    HW2 9611   4.081   2.196   3.365
 3198SOL     OW 9612   3.955   3.575   2.345
 3198SOL    HW1 9613   3.989   3.652   2.399
 3198SOL    HW2 9614   3.999   3.575   2.255
 3199SOL     OW 9615   3.954   3.296   2.400
 3199SOL    HW1 9616   3.928   3.392   2.400
 3199SOL    HW2 9617   3.883   3.242   2.445
 3200SOL     OW 9618   3.964   2.953   2.748
 3200SOL    HW1 9619   3.978   2.869   2.800
 3200SOL    HW2 9620   3.909   3.017   2.803
 3201SOL     OW 9621   4.344   3.648   3.301
 3201SOL    HW1 9622   4.252   3.631   3.336
 3201SOL    HW2 9623   4.372   3.740   3.327
 3202SOL     OW 9624   4.330   2.826   1.985
 3202SOL    HW1 9625   4.337   2.910   1.931
 3202SOL    HW2 9626   4.376   2.839   2.073
 3203SOL     OW 9627   3.846   2.505   2.425
 3203SOL    HW1 9628   3.801   2.417   2.442
 3203SOL    HW2 9629   3.845   2.559   2.509
 3204SOL     OW 9630   3.751   3.458   1.979
 3204SOL    HW1 9631   3.732   3.362   2.000
 3204SOL    HW2 9632   3.718   3.516   2.054
 3205SOL     OW 9633   3.837   2.599   3.459
 3205SOL    HW1 9634   3.925   2.586   3.504
 3205SOL    HW2 9635   3.824   2.696   3.437
 3206SOL     OW 9636   4.337   3.227   2.588
 3206SOL    HW1 9637   4.288   3.140   2.597
 3206SOL    HW2 9638   4.314   3.270   2.501
 3207SOL     OW 9639   4.533   1.866   2.364
 3207SOL    HW1 9640   4.573   1.957   2.355
 3207SOL    HW2 9641   4.433   1.874   2.370
 3208SOL     OW 9642   3.921   2.838   3.126
 3208SOL    HW1 9643   4.010   2.793   3.112
 3208SOL    HW2 9644   3.848   2.773   3.107
 3209SOL     OW 9645   4.041   2.113   3.663
 3209SOL    HW1 9646   4.112   2.184   3.669
 3209SOL    HW2 9647   3.953   2.152   3.691
 3210SOL     OW 9648   4.322   2.591   2.132
 3210SOL    HW1 9649   4.346   2.660   2.064
 3210SOL    HW2 9650   4.244   2.624   2.186
 3211SOL     OW 9651   4.531   2.467   3.327
 3211SOL    HW1 9652   4.484   2.464   3.416
 3211SOL    HW2 9653   4.480   2.412   3.261
 3212SOL     OW 9654   4.697   2.752   3.434
 3212SOL    HW1 9655   4.743   2.668   3.405
 3212SOL    HW2 9656   4.641   2.786   3.359
 3213SOL     OW 9657   4.715   2.272   3.104
 3213SOL    HW1 9658   4.638   2.306   3.158
 3213SOL    HW2 9659   4.681   2.221   3.025
 3214SOL     OW 9660   3.800   2.673   2.651
 3214SOL    HW1 9661   3.899   2.661   2.660
 3214SOL    HW2 9662   3.776   2.768   2.672
 3215SOL     OW 9663   3.854   3.683   3.433
 3215SOL    HW1 9664   3.844   3.668   3.532
 3215SOL    HW2 9665   3.768   3.719   3.397
 3216SOL     OW 9666   4.589   2.210   2.057
 3216SOL    HW1 9667   4.648   2.273   2.008
 3216SOL    HW2 9668   4.608   2.116   2.028
 3217SOL     OW 9669   4.274   2.058   2.747
 3217SOL    HW1 9670   4.269   2.053   2.847
 3217SOL    HW2 9671   4.276   2.154   2.718
 3218SOL     OW 9672   4.732   3.318   2.339
 3218SOL    HW1 9673   4.686   3.390   2.287
 3218SOL    HW2 9674   4.728   3.338   2.437
 3219SOL     OW 9675   4.075   3.663   2.715
 3219SOL    HW1 9676   4.125   3.577   2.721
 3219SOL    HW2 9677   4.140   3.740   2.712
 3220SOL     OW 9678   4.045   2.805   2.104
 3220SOL    HW1 9679   4.127   2.844   2.062
 3220SOL    HW2 9680   4.018   2.723   2.055
 3221SOL     OW 9681   4.185   3.128   3.589
 3221SOL    HW1 9682   4.135   3.129   3.503
 3221SOL    HW2 9683   4.122   3.110   3.665
 3222SOL     OW 9684   3.926   2.147   3.360
 3222SOL    HW1 9685   3.846   2.207   3.347
 3222SOL    HW2 9686   3.916   2.098   3.446
 3223SOL     OW 9687   4.188   3.605   2.185
 3223SOL    HW1 9688   4.221   3.644   2.271
 3223SOL    HW2 9689   4.264   3.598   2.120
 3224SOL     OW 9690   3.973   3.647   3.103
 3224SOL    HW1 9691   4.030   3.582   3.153
 3224SOL    HW2 9692   3.957   3.614   3.010
 3225SOL     OW 9693   4.106   2.562   2.342
 3225SOL    HW1 9694   4.151   2.472   2.339
 3225SOL    HW2 9695   4.012   2.551   2.375
 3226SOL     OW 9696   4.338   1.984   1.979
 3226SOL    HW1 9697   4.436   1.962   1.986
 3226SOL    HW2 9698   4.307   1.967   1.886
 3227SOL     OW 9699   4.505   2.126   3.611
 3227SOL    HW1 9700   4.572   2.065   3.654
 3227SOL    HW2 9701   4.432   2.145   3.676
 3228SOL     OW 9702   4.612   3.376   3.057
 3228SOL    HW1 9703   4.589   3.351   2.963
 3228SOL    HW2 9704   4.673   3.307   3.096
 3229SOL     OW 9705   4.527   3.264   2.786
 3229SOL    HW1 9706   4.617   3.278   2.744
 3229SOL    HW2 9707   4.456   3.266   2.715
 3230SOL     OW 9708   4.646   2.365   2.761
 3230SOL    HW1 9709   4.621   2.356   2.665
 3230SOL    HW2 9710   4.694   2.283   2.792
 3231SOL     OW 9711   4.263   1.926   2.374
 3231SOL    HW1 9712   4.182   1.927   2.432
 3231SOL    HW2 9713   4.266   2.009   2.319
 3232SOL     OW 9714   4.021   1.897   2.033
 3232SOL    HW1 9715   4.070   1.981   2.012
 3232SOL    HW2 9716   4.083   1.832   2.078
 3233SOL     OW 9717   4.659   2.098   2.342
 3233SOL    HW1 9718   4.611   2.139   2.264
 3233SOL    HW2 9719   4.758   2.096   2.323
 3234SOL     OW 9720   4.951   3.432   2.655
 3234SOL    HW1 9721   4.972   3.506   2.590
 3234SOL    HW2 9722   5.019   3.432   2.728
 3235SOL     OW 9723   4.183   3.014   2.603
 3235SOL    HW1 9724   4.112   2.987   2.668
 3235SOL    HW2 9725   4.157   2.986   2.510
 3236SOL     OW 9726   3.802   2.418   3.248
 3236SOL    HW1 9727   3.894   2.417   3.207
 3236SOL    HW2 9728   3.796   2.492   3.315
 3237SOL     OW 9729   4.285   2.084   3.009
 3237SOL    HW1 9730   4.323   2.000   3.046
 3237SOL    HW2 9731   4.197   2.103   3.053
 3238SOL     OW 9732   4.741   1.901   2.615
 3238SOL    HW1 9733   4.669   1.906   2.546
 3238SOL    HW2 9734   4.717   1.832   2.684
 3239SOL     OW 9735   4.212   3.247   2.036
 3239SOL    HW1 9736   4.125   3.232   2.083
 3239SOL    HW2 9737   4.195   3.273   1.941
 3240SOL     OW 9738   4.251   2.118   2.190
 3240SOL    HW1 9739   4.278   2.059   2.115
 3240SOL    HW2 9740   4.251   2.213   2.159
 3241SOL     OW 9741   4.639   1.951   3.264
 3241SOL    HW1 9742   4.664   1.931   3.169
 3241SOL    HW2 9743   4.711   2.007   3.306
 3242SOL     OW 9744   4.704   2.978   3.581
 3242SOL    HW1 9745   4.605   2.984   3.591
 3242SOL    HW2 9746   4.727   2.898   3.525
 3243SOL     OW 9747   4.429   2.912   2.230
 3243SOL    HW1 9748   4.415   2.919   2.329
 3243SOL    HW2 9749   4.513   2.861   2.212
 3244SOL     OW 9750   4.134   2.675   3.113
 3244SOL    HW1 9751   4.220   2.687   3.163
 3244SOL    HW2 9752   4.092   2.588   3.140
 3245SOL     OW 9753   3.788   3.426   3.193
 3245SOL    HW1 9754   3.742   3.508   3.159
 3245SOL    HW2 9755   3.886   3.445   3.202
 3246SOL     OW 9756   4.091   2.962   2.363
 3246SOL    HW1 9757   4.084   3.045   2.307
 3246SOL    HW2 9758   4.095   2.882   2.303
 3247SOL     OW 9759   4.290   2.399   2.727
 3247SOL    HW1 9760   4.302   2.465   2.653
 3247SOL    HW2 9761   4.336   2.433   2.810
 3248SOL     OW 9762   4.078   3.372   3.191
 3248SOL    HW1 9763   4.057   3.328   3.104
 3248SOL    HW2 9764   4.175   3.398   3.194
 3249SOL     OW 9765   4.126   2.613   3.460
 3249SOL    HW1 9766   4.194   2.668   3.413
 3249SOL    HW2 9767   4.166   2.525   3.487
 3250SOL     OW 9768   4.737   1.967   3.632
 3250SOL    HW1 9769   4.743   2.052   3.580
 3250SOL    HW2 9770   4.769   1.891   3.575
 3251SOL     OW 9771   4.228   1.912   3.602
 3251SOL    HW1 9772   4.186   1.855   3.532
 3251SOL    HW2 9773   4.162   1.981   3.634
 3252SOL     OW 9774   4.297   2.732   2.891
 3252SOL    HW1 9775   4.341   2.821   2.882
 3252SOL    HW2 9776   4.234   2.732   2.968
 3253SOL     OW 9777   4.933   2.387   2.137
 3253SOL    HW1 9778   4.946   2.303   2.191
 3253SOL    HW2 9779   4.904   2.461   2.197
 3254SOL     OW 9780   4.031   2.075   3.093
 3254SOL    HW1 9781   4.008   2.112   3.183
 3254SOL    HW2 9782   4.001   1.980   3.087
 3255SOL     OW 9783   3.761   3.172   3.144
 3255SOL    HW1 9784   3.814   3.123   3.212
 3255SOL    HW2 9785   3.783   3.270   3.149
 3256SOL     OW 9786   4.456   2.496   2.926
 3256SOL    HW1 9787   4.515   2.470   2.850
 3256SOL    HW2 9788   4.428   2.592   2.915
 3257SOL     OW 9789   4.031   1.925   2.480
 3257SOL    HW1 9790   4.020   2.019   2.513
 3257SOL    HW2 9791   4.026   1.862   2.557
 3258SOL     OW 9792   4.747   2.628   2.828
 3258SOL    HW1 9793   4.762   2.649   2.924
 3258SOL    HW2 9794   4.717   2.533   2.819
 3259SOL     OW 9795   4.704   3.435   3.562
 3259SOL    HW1 9796   4.684   3.479   3.474
 3259SOL    HW2 9797   4.743   3.344   3.546
 3260SOL     OW 9798   4.074   2.760   3.666
 3260SOL    HW1 9799   4.150   2.804   3.714
 3260SOL    HW2 9800   4.109   2.713   3.584
 3261SOL     OW 9801   4.043   2.672   2.811
 3261SOL    HW1 9802   4.136   2.708   2.816
 3261SOL    HW2 9803   4.037   2.587   2.863
 3262SOL     OW 9804   4.063   2.371   2.868
 3262SOL    HW1 9805   4.011   2.288   2.851
 3262SOL    HW2 9806   4.140   2.376   2.804
 3263SOL     OW 9807   3.732   3.188   2.062
 3263SOL    HW1 9808   3.639   3.209   2.031
 3263SOL    HW2 9809   3.742   3.089   2.075
 3264SOL     OW 9810   3.812   3.663   2.789
 3264SOL    HW1 9811   3.770   3.577   2.762
 3264SOL    HW2 9812   3.906   3.666   2.755
 3265SOL     OW 9813   4.228   3.430   2.772
 3265SOL    HW1 9814   4.294   3.504   2.781
 3265SOL    HW2 9815   4.272   3.351   2.730
 3266SOL     OW 9816   4.726   2.658   3.100
 3266SOL    HW1 9817   4.767   2.626   3.186
 3266SOL    HW2 9818   4.630   2.631   3.097
 3267SOL     OW 9819   3.764   2.406   2.976
 3267SOL    HW1 9820   3.849   2.373   2.935
 3267SOL    HW2 9821   3.777   2.421   3.074
 3268SOL     OW 9822   3.913   2.382   3.584
 3268SOL    HW1 9823   3.972   2.342   3.514
 3268SOL    HW2 9824   3.855   2.453   3.543
 3269SOL     OW 9825   4.539   2.434   2.187
 3269SOL    HW1 9826   4.546   2.345   2.141
 3269SOL    HW2 9827   4.445   2.468   2.179
 3270SOL     OW 9828   3.976   3.426   3.606
 3270SOL    HW1 9829   3.946   3.483   3.682
 3270SOL    HW2 9830   3.969   3.329   3.632
 3271SOL     OW 9831   4.395   2.326   3.131
 3271SOL    HW1 9832   4.361   2.237   3.101
 3271SOL    HW2 9833   4.421   2.380   3.051
 3272SOL     OW 9834   4.654   3.540   3.327
 3272SOL    HW1 9835   4.630   3.522   3.232
 3272SOL    HW2 9836   4.684   3.634   3.337
 3273SOL     OW 9837   4.197   2.362   2.053
 3273SOL    HW1 9838   4.258   2.442   2.057
 3273SOL    HW2 9839   4.102   2.393   2.060
 3274SOL     OW 9840   3.883   2.999   3.328
 3274SOL    HW1 9841   3.905   2.938   3.404
 3274SOL    HW2 9842   3.893   2.950   3.242
 3275SOL     OW 9843   3.807   3.120   2.884
 3275SOL    HW1 9844   3.802   3.119   2.984
 3275SOL    HW2 9845   3.724   3.079   2.846
 3276SOL     OW 9846   4.412   3.524   3.578
 3276SOL    HW1 9847   4.356   3.605   3.587
 3276SOL    HW2 9848   4.464   3.528   3.492
 3277SOL     OW 9849   3.854   3.656   3.713
 3277SOL    HW1 9850   3.813   3.582   3.766
 3277SOL    HW2 9851   3.918   3.707   3.771
 3278SOL     OW 9852   5.004   2.789   2.534
 3278SOL    HW1 9853   5.064   2.708   2.536
 3278SOL    HW2 9854   5.044   2.858   2.474
 3279SOL     OW 9855   4.554   3.135   3.284
 3279SOL    HW1 9856   4.549   3.168   3.379
 3279SOL    HW2 9857   4.468   3.154   3.238
 3280SOL     OW 9858   4.396   3.478   2.016
 3280SOL    HW1 9859   4.405   3.488   1.917
 3280SOL    HW2 9860   4.356   3.389   2.037
 3281SOL     OW 9861   3.987   2.188   2.582
 3281SOL    HW1 9862   3.908   2.239   2.548
 3281SOL    HW2 9863   3.978   2.173   2.680
 3282SOL     OW 9864   4.546   2.864   3.234
 3282SOL    HW1 9865   4.586   2.863   3.142
 3282SOL    HW2 9866   4.556   2.956   3.274
 3283SOL     OW 9867   4.096   3.150   3.352
 3283SOL    HW1 9868   4.083   3.243   3.318
 3283SOL    HW2 9869   4.012   3.098   3.339
 3284SOL     OW 9870   4.738   2.098   2.833
 3284SOL    HW1 9871   4.730   2.062   2.740
 3284SOL    HW2 9872   4.736   2.022   2.898
 3285SOL     OW 9873   4.314   3.349   2.353
 3285SOL    HW1 9874   4.356   3.291   2.283
 3285SOL    HW2 9875   4.270   3.428   2.309
 3286SOL     OW 9876   3.979   3.210   2.152
 3286SOL    HW1 9877   3.883   3.211   2.125
 3286SOL    HW2 9878   3.991   3.263   2.236
 3287SOL     OW 9879   3.829   2.875   3.588
 3287SOL    HW1 9880   3.752   2.842   3.642
 3287SOL    HW2 9881   3.914   2.845   3.630
 3288SOL     OW 9882   4.396   2.065   3.351
 3288SOL    HW1 9883   4.486   2.049   3.311
 3288SOL    HW2 9884   4.404   2.070   3.450
 3289SOL     OW 9885   3.799   2.207   1.895
 3289SOL    HW1 9886   3.707   2.179   1.866
 3289SOL    HW2 9887   3.830   2.284   1.839
 3290SOL     OW 9888   3.796   2.028   2.180
 3290SOL    HW1 9889   3.779   2.111   2.126
 3290SOL    HW2 9890   3.886   1.991   2.158
 3291SOL     OW 9891   4.337   2.704   3.293
 3291SOL    HW1 9892   4.393   2.785   3.276
 3291SOL    HW2 9893   4.396   2.624   3.296
 3292SOL     OW 9894   4.440   2.427   3.570
 3292SOL    HW1 9895   4.459   2.492   3.644
 3292SOL    HW2 9896   4.500   2.347   3.579
 3293SOL     OW 9897   4.114   3.603   3.422
 3293SOL    HW1 9898   4.023   3.644   3.420
 3293SOL    HW2 9899   4.107   3.509   3.454
 3294SOL     OW 9900   4.949   2.187   2.311
 3294SOL    HW1 9901   5.014   2.113   2.300
 3294SOL    HW2 9902   4.969   2.237   2.395
 3295SOL     OW 9903   4.318   2.607   2.514
 3295SOL    HW1 9904   4.368   2.692   2.495
 3295SOL    HW2 9905   4.230   2.609   2.466
 3296SOL     OW 9906   4.583   3.236   1.878
 3296SOL    HW1 9907   4.537   3.251   1.966
 3296SOL    HW2 9908   4.627   3.321   1.848
 3297SOL     OW 9909   4.385   3.652   2.815
 3297SOL    HW1 9910   4.339   3.740   2.802
 3297SOL    HW2 9911   4.484   3.664   2.808
 3298SOL     OW 9912   4.583   2.818   2.723
 3298SOL    HW1 9913   4.637   2.749   2.771
 3298SOL    HW2 9914   4.551   2.887   2.789
 3299SOL     OW 9915   3.945   3.176   3.706
 3299SOL    HW1 9916   3.880   3.103   3.685
 3299SOL    HW2 9917   3.949   3.190   3.804
 3300SOL     OW 9918   3.803   3.102   2.515
 3300SOL    HW1 9919   3.802   3.055   2.603
 3300SOL    HW2 9920   3.885   3.074   2.464
 3301SOL     OW 9921   4.396   3.253   3.486
 3301SOL    HW1 9922   4.318   3.203   3.524
 3301SOL    HW2 9923   4.393   3.348   3.517
 3302SOL     OW 9924   4.152   2.286   2.382
 3302SOL    HW1 9925   4.182   2.214   2.320
 3302SOL    HW2 9926   4.113   2.246   2.465
 3303SOL     OW 9927   4.041   2.409   3.142
 3303SOL    HW1 9928   4.079   2.350   3.214
 3303SOL    HW2 9929   4.081   2.383   3.054
 3304SOL     OW 9930   4.536   3.448   2.549
 3304SOL    HW1 9931   4.568   3.458   2.455
 3304SOL    HW2 9932   4.457   3.386   2.551
 3305SOL     OW 9933   4.725   1.896   3.016
 3305SOL    HW1 9934   4.662   1.824   2.985
 3305SOL    HW2 9935   4.818   1.860   3.016
 3306SOL     OW 9936   4.494   3.192   2.163
 3306SOL    HW1 9937   4.448   3.105   2.180
 3306SOL    HW2 9938   4.585   3.189   2.204
 3307SOL     OW 9939   4.342   3.429   3.146
 3307SOL    HW1 9940   4.337   3.511   3.203
 3307SOL    HW2 9941   4.431   3.426   3.101
 3308SOL     OW 9942   3.763   2.939   2.162
 3308SOL    HW1 9943   3.862   2.928   2.153
 3308SOL    HW2 9944   3.723   2.853   2.194
 3309SOL     OW 9945   4.599   3.508   2.199
 3309SOL    HW1 9946   4.522   3.473   2.145
 3309SOL    HW2 9947   4.567   3.579   2.261
 3310SOL     OW 9948   3.954   2.490   3.837
 3310SOL    HW1 9949   3.861   2.488   3.874
 3310SOL    HW2 9950   3.955   2.451   3.745
 3311SOL     OW 9951   3.949   2.137   4.720
 3311SOL    HW1 9952   3.984   2.120   4.812
 3311SOL    HW2 9953   3.861   2.092   4.708
 3312SOL     OW 9954   3.743   2.230   4.371
 3312SOL    HW1 9955   3.661   2.273   4.410
 3312SOL    HW2 9956   3.715   2.157   4.308
 3313SOL     OW 9957   4.492   3.006   4.747
 3313SOL    HW1 9958   4.414   3.023   4.807
 3313SOL    HW2 9959   4.526   3.093   4.711
 3314SOL     OW 9960   4.409   2.874   4.389
 3314SOL    HW1 9961   4.478   2.858   4.459
 3314SOL    HW2 9962   4.336   2.931   4.427
 3315SOL     OW 9963   3.955   3.575   4.207
 3315SOL    HW1 9964   3.989   3.652   4.261
 3315SOL    HW2 9965   3.999   3.575   4.117
 3316SOL     OW 9966   3.954   3.296   4.262
 3316SOL    HW1 9967   3.928   3.392   4.262
 3316SOL    HW2 9968   3.883   3.242   4.307
 3317SOL     OW 9969   3.964   2.953   4.610
 3317SOL    HW1 9970   3.978   2.869   4.662
 3317SOL    HW2 9971   3.909   3.017   4.665
 3318SOL     OW 9972   4.330   2.826   3.847
 3318SOL    HW1 9973   4.337   2.910   3.793
 3318SOL    HW2 9974   4.376   2.839   3.935
 3319SOL     OW 9975   3.846   2.505   4.287
 3319SOL    HW1 9976   3.801   2.417   4.304
 3319SOL    HW2 9977   3.845   2.559   4.371
 3320SOL     OW 9978   3.751   3.458   3.841
 3320SOL    HW1 9979   3.732   3.362   3.862
 3320SOL    HW2 9980   3.718   3.516   3.916
 3321SOL     OW 9981   4.337   3.227   4.450
 3321SOL    HW1 9982   4.288   3.140   4.459
 3321SOL    HW2 9983   4.314   3.270   4.363
 3322SOL     OW 9984   4.533   1.866   4.226
 3322SOL    HW1 9985   4.573   1.957   4.217
 3322SOL    HW2 9986   4.433   1.874   4.232
 3323SOL     OW 9987   4.322   2.591   3.994
 3323SOL    HW1 9988   4.346   2.660   3.926
 3323SOL    HW2 9989   4.244   2.624   4.048
 3324SOL     OW 9990   3.800   2.673   4.513
 3324SOL    HW1 9991   3.899   2.661   4.522
 3324SOL    HW2 9992   3.776   2.768   4.534
 3325SOL     OW 9993   4.589   2.210   3.919
 3325SOL    HW1 9994   4.648   2.273   3.870
 3325SOL    HW2 9995   4.608   2.116   3.890
 3326SOL     OW 9996   4.732   3.318   4.201
 3326SOL    HW1 9997   4.686   3.390   4.149
 3326SOL    HW2 9998   4.728   3.338   4.299
 3327SOL     OW 9999   4.075   3.663   4.577
 3327SOL    HW110000   4.125   3.577   4.583
 3327SOL    HW210001   4.140   3.740   4.574
 3328SOL     OW10002   4.045   2.805   3.966
 3328SOL    HW110003   4.127   2.844   3.924
 3328SOL    HW210004   4.018   2.723   3.917
 3329SOL     OW10005   4.188   3.605   4.047
 3329SOL    HW110006   4.221   3.644   4.133
 3329SOL    HW210007   4.264   3.598   3.982
 3330SOL     OW10008   3.973   3.647   4.965
 3330SOL    HW110009   4.030   3.582   5.015
 3330SOL    HW210010   3.957   3.614   4.872
 3331SOL     OW10011   4.106   2.562   4.204
 3331SOL    HW110012   4.151   2.472   4.201
 3331SOL    HW210013   4.012   2.551   4.237
 3332SOL     OW10014   4.338   1.984   3.841
 3332SOL    HW110015   4.436   1.962   3.848
 3332SOL    HW210016   4.307   1.967   3.748
 3333SOL     OW10017   4.646   2.365   4.623
 3333SOL    HW110018   4.621   2.356   4.527
 3333SOL    HW210019   4.694   2.283   4.654
 3334SOL     OW10020   4.263   1.926   4.236
 3334SOL    HW110021   4.182   1.927   4.294
 3334SOL    HW210022   4.266   2.009   4.181
 3335SOL     OW10023   4.021   1.897   3.895
 3335SOL    HW110024   4.070   1.981   3.874
 3335SOL    HW210025   4.083   1.832   3.940
 3336SOL     OW10026   4.659   2.098   4.204
 3336SOL    HW110027   4.611   2.139   4.126
 3336SOL    HW210028   4.758   2.096   4.185
 3337SOL     OW10029   4.951   3.432   4.517
 3337SOL    HW110030   4.972   3.506   4.452
 3337SOL    HW210031   5.019   3.432   4.590
 3338SOL     OW10032   4.183   3.014   4.465
 3338SOL    HW110033   4.112   2.987   4.530
 3338SOL    HW210034   4.157   2.986   4.372
 3339SOL     OW10035   4.741   1.901   4.477
 3339SOL    HW110036   4.669   1.906   4.408
 3339SOL    HW210037   4.717   1.832   4.546
 3340SOL     OW10038   4.212   3.247   3.898
 3340SOL    HW110039   4.125   3.232   3.945
 3340SOL    HW210040   4.195   3.273   3.803
 3341SOL     OW10041   4.251   2.118   4.052
 3341SOL    HW110042   4.278   2.059   3.977
 3341SOL    HW210043   4.251   2.213   4.021
 3342SOL     OW10044   4.429   2.912   4.092
 3342SOL    HW110045   4.415   2.919   4.191
 3342SOL    HW210046   4.513   2.861   4.074
 3343SOL     OW10047   4.091   2.962   4.225
 3343SOL    HW110048   4.084   3.045   4.169
 3343SOL    HW210049   4.095   2.882   4.165
 3344SOL     OW10050   4.290   2.399   4.589
 3344SOL    HW110051   4.302   2.465   4.515
 3344SOL    HW210052   4.336   2.433   4.672
 3345SOL     OW10053   4.996   3.307   4.866
 3345SOL    HW110054   5.043   3.320   4.953
 3345SOL    HW210055   4.930   3.233   4.875
 3346SOL     OW10056   4.933   2.387   3.999
 3346SOL    HW110057   4.946   2.303   4.053
 3346SOL    HW210058   4.904   2.461   4.059
 3347SOL     OW10059   4.031   2.075   4.955
 3347SOL    HW110060   4.008   2.112   5.045
 3347SOL    HW210061   4.001   1.980   4.949
 3348SOL     OW10062   4.456   2.496   4.788
 3348SOL    HW110063   4.515   2.470   4.712
 3348SOL    HW210064   4.428   2.592   4.777
 3349SOL     OW10065   4.031   1.925   4.342
 3349SOL    HW110066   4.020   2.019   4.375
 3349SOL    HW210067   4.026   1.862   4.419
 3350SOL     OW10068   4.747   2.628   4.690
 3350SOL    HW110069   4.762   2.649   4.786
 3350SOL    HW210070   4.717   2.533   4.681
 3351SOL     OW10071   4.043   2.672   4.673
 3351SOL    HW110072   4.136   2.708   4.678
 3351SOL    HW210073   4.037   2.587   4.725
 3352SOL     OW10074   3.732   3.188   3.924
 3352SOL    HW110075   3.639   3.209   3.893
 3352SOL    HW210076   3.742   3.089   3.937
 3353SOL     OW10077   3.812   3.663   4.651
 3353SOL    HW110078   3.770   3.577   4.624
 3353SOL    HW210079   3.906   3.666   4.617
 3354SOL     OW10080   4.228   3.430   4.634
 3354SOL    HW110081   4.294   3.504   4.643
 3354SOL    HW210082   4.272   3.351   4.592
 3355SOL     OW10083   4.726   2.658   4.962
 3355SOL    HW110084   4.767   2.626   5.048
 3355SOL    HW210085   4.630   2.631   4.959
 3356SOL     OW10086   4.539   2.434   4.049
 3356SOL    HW110087   4.546   2.345   4.003
 3356SOL    HW210088   4.445   2.468   4.041
 3357SOL     OW10089   4.395   2.326   4.993
 3357SOL    HW110090   4.361   2.237   4.963
 3357SOL    HW210091   4.421   2.380   4.913
 3358SOL     OW10092   4.197   2.362   3.915
 3358SOL    HW110093   4.258   2.442   3.919
 3358SOL    HW210094   4.102   2.393   3.922
 3359SOL     OW10095   3.807   3.120   4.746
 3359SOL    HW110096   3.802   3.119   4.846
 3359SOL    HW210097   3.724   3.079   4.708
 3360SOL     OW10098   5.004   2.789   4.396
 3360SOL    HW110099   5.064   2.708   4.398
 3360SOL    HW210100   5.044   2.858   4.336
 3361SOL     OW10101   4.396   3.478   3.878
 3361SOL    HW110102   4.405   3.488   3.779
 3361SOL    HW210103   4.356   3.389   3.899
 3362SOL     OW10104   3.987   2.188   4.444
 3362SOL    HW110105   3.908   2.239   4.410
 3362SOL    HW210106   3.978   2.173   4.542
 3363SOL     OW10107   4.314   3.349   4.215
 3363SOL    HW110108   4.356   3.291   4.145
 3363SOL    HW210109   4.270   3.428   4.171
 3364SOL     OW10110   3.979   3.210   4.014
 3364SOL    HW110111   3.883   3.211   3.987
 3364SOL    HW210112   3.991   3.263   4.098
 3365SOL     OW10113   3.799   2.207   3.757
 3365SOL    HW110114   3.707   2.179   3.728
 3365SOL    HW210115   3.830   2.284   3.701
 3366SOL     OW10116   3.796   2.028   4.042
 3366SOL    HW110117   3.779   2.111   3.988
 3366SOL    HW210118   3.886   1.991   4.020
 3367SOL     OW10119   4.949   2.187   4.173
 3367SOL    HW110120   5.014   2.113   4.162
 3367SOL    HW210121   4.969   2.237   4.257
 3368SOL     OW10122   4.318   2.607   4.376
 3368SOL    HW110123   4.368   2.692   4.357
 3368SOL    HW210124   4.230   2.609   4.328
 3369SOL     OW10125   4.583   3.236   3.740
 3369SOL    HW110126   4.537   3.251   3.828
 3369SOL    HW210127   4.627   3.321   3.710
 3370SOL     OW10128   4.385   3.652   4.677
 3370SOL    HW110129   4.339   3.740   4.664
 3370SOL    HW210130   4.484   3.664   4.670
 3371SOL     OW10131   4.583   2.818   4.585
 3371SOL    HW110132   4.637   2.749   4.633
 3371SOL    HW210133   4.551   2.887   4.651
 3372SOL     OW10134   3.803   3.102   4.377
 3372SOL    HW110135   3.802   3.055   4.465
 3372SOL    HW210136   3.885   3.074   4.326
 3373SOL     OW10137   4.152   2.286   4.244
 3373SOL    HW110138   4.182   2.214   4.182
 3373SOL    HW210139   4.113   2.246   4.327
 3374SOL     OW10140   4.536   3.448   4.411
 3374SOL    HW110141   4.568   3.458   4.317
 3374SOL    HW210142   4.457   3.386   4.413
 3375SOL     OW10143   4.494   3.192   4.025
 3375SOL    HW110144   4.448   3.105   4.042
 3375SOL    HW210145   4.585   3.189   4.066
 3376SOL     OW10146   3.763   2.939   4.024
 3376SOL    HW110147   3.862   2.928   4.015
 3376SOL    HW210148   3.723   2.853   4.056
 3377SOL     OW10149   4.599   3.508   4.061
 3377SOL    HW110150   4.522   3.473   4.007
 3377SOL    HW210151   4.567   3.579   4.123
 3378SOL     OW10152   3.954   4.352   0.113
 3378SOL    HW110153   3.861   4.350   0.150
 3378SOL    HW210154   3.955   4.313   0.021
 3379SOL     OW10155   3.949   3.999   0.996
 3379SOL    HW110156   3.984   3.982   1.088
 3379SOL    HW210157   3.861   3.954   0.984
 3380SOL     OW10158   3.743   4.092   0.647
 3380SOL    HW110159   3.661   4.135   0.686
 3380SOL    HW210160   3.715   4.019   0.584
 3381SOL     OW10161   4.492   4.868   1.023
 3381SOL    HW110162   4.414   4.885   1.083
 3381SOL    HW210163   4.526   4.955   0.987
 3382SOL     OW10164   4.574   4.522   1.823
 3382SOL    HW110165   4.570   4.598   1.888
 3382SOL    HW210166   4.596   4.558   1.732
 3383SOL     OW10167   4.409   4.736   0.665
 3383SOL    HW110168   4.478   4.720   0.735
 3383SOL    HW210169   4.336   4.793   0.703
 3384SOL     OW10170   4.162   4.116   1.499
 3384SOL    HW110171   4.244   4.060   1.508
 3384SOL    HW210172   4.081   4.058   1.503
 3385SOL     OW10173   3.964   4.815   0.886
 3385SOL    HW110174   3.978   4.731   0.938
 3385SOL    HW210175   3.909   4.879   0.941
 3386SOL     OW10176   3.846   4.367   0.563
 3386SOL    HW110177   3.801   4.279   0.580
 3386SOL    HW210178   3.845   4.421   0.647
 3387SOL     OW10179   3.837   4.461   1.597
 3387SOL    HW110180   3.925   4.448   1.642
 3387SOL    HW210181   3.824   4.558   1.575
 3388SOL     OW10182   4.533   3.728   0.502
 3388SOL    HW110183   4.573   3.819   0.493
 3388SOL    HW210184   4.433   3.736   0.508
 3389SOL     OW10185   3.921   4.700   1.264
 3389SOL    HW110186   4.010   4.655   1.250
 3389SOL    HW210187   3.848   4.635   1.245
 3390SOL     OW10188   4.041   3.975   1.801
 3390SOL    HW110189   4.112   4.046   1.807
 3390SOL    HW210190   3.953   4.014   1.829
 3391SOL     OW10191   4.322   4.453   0.270
 3391SOL    HW110192   4.346   4.522   0.202
 3391SOL    HW210193   4.244   4.486   0.324
 3392SOL     OW10194   4.531   4.329   1.465
 3392SOL    HW110195   4.484   4.326   1.554
 3392SOL    HW210196   4.480   4.274   1.399
 3393SOL     OW10197   4.697   4.614   1.572
 3393SOL    HW110198   4.743   4.530   1.543
 3393SOL    HW210199   4.641   4.648   1.497
 3394SOL     OW10200   4.715   4.134   1.242
 3394SOL    HW110201   4.638   4.168   1.296
 3394SOL    HW210202   4.681   4.083   1.163
 3395SOL     OW10203   3.800   4.535   0.789
 3395SOL    HW110204   3.899   4.523   0.798
 3395SOL    HW210205   3.776   4.630   0.810
 3396SOL     OW10206   4.589   4.072   0.195
 3396SOL    HW110207   4.648   4.135   0.146
 3396SOL    HW210208   4.608   3.978   0.166
 3397SOL     OW10209   4.274   3.920   0.885
 3397SOL    HW110210   4.269   3.915   0.985
 3397SOL    HW210211   4.276   4.016   0.856
 3398SOL     OW10212   3.926   4.009   1.498
 3398SOL    HW110213   3.846   4.069   1.485
 3398SOL    HW210214   3.916   3.960   1.584
 3399SOL     OW10215   4.106   4.424   0.480
 3399SOL    HW110216   4.151   4.334   0.477
 3399SOL    HW210217   4.012   4.413   0.513
 3400SOL     OW10218   4.338   3.846   0.117
 3400SOL    HW110219   4.436   3.824   0.124
 3400SOL    HW210220   4.307   3.829   0.024
 3401SOL     OW10221   4.505   3.988   1.749
 3401SOL    HW110222   4.572   3.927   1.792
 3401SOL    HW210223   4.432   4.007   1.814
 3402SOL     OW10224   4.646   4.227   0.899
 3402SOL    HW110225   4.621   4.218   0.803
 3402SOL    HW210226   4.694   4.145   0.930
 3403SOL     OW10227   4.263   3.788   0.512
 3403SOL    HW110228   4.182   3.789   0.570
 3403SOL    HW210229   4.266   3.871   0.457
 3404SOL     OW10230   4.659   3.960   0.480
 3404SOL    HW110231   4.611   4.001   0.402
 3404SOL    HW210232   4.758   3.958   0.461
 3405SOL     OW10233   3.802   4.280   1.386
 3405SOL    HW110234   3.894   4.279   1.345
 3405SOL    HW210235   3.796   4.354   1.453
 3406SOL     OW10236   4.285   3.946   1.147
 3406SOL    HW110237   4.323   3.862   1.184
 3406SOL    HW210238   4.197   3.965   1.191
 3407SOL     OW10239   4.741   3.763   0.753
 3407SOL    HW110240   4.669   3.768   0.684
 3407SOL    HW210241   4.717   3.694   0.822
 3408SOL     OW10242   4.251   3.980   0.328
 3408SOL    HW110243   4.278   3.921   0.253
 3408SOL    HW210244   4.251   4.075   0.297
 3409SOL     OW10245   4.639   3.813   1.402
 3409SOL    HW110246   4.664   3.793   1.307
 3409SOL    HW210247   4.711   3.869   1.444
 3410SOL     OW10248   4.704   4.840   1.719
 3410SOL    HW110249   4.605   4.846   1.729
 3410SOL    HW210250   4.727   4.760   1.663
 3411SOL     OW10251   4.134   4.537   1.251
 3411SOL    HW110252   4.220   4.549   1.301
 3411SOL    HW210253   4.092   4.450   1.278
 3412SOL     OW10254   4.290   4.261   0.865
 3412SOL    HW110255   4.302   4.327   0.791
 3412SOL    HW210256   4.336   4.295   0.948
 3413SOL     OW10257   4.126   4.475   1.598
 3413SOL    HW110258   4.194   4.530   1.551
 3413SOL    HW210259   4.166   4.387   1.625
 3414SOL     OW10260   4.737   3.829   1.770
 3414SOL    HW110261   4.743   3.914   1.718
 3414SOL    HW210262   4.769   3.753   1.713
 3415SOL     OW10263   4.228   3.774   1.740
 3415SOL    HW110264   4.186   3.717   1.670
 3415SOL    HW210265   4.162   3.843   1.772
 3416SOL     OW10266   4.297   4.594   1.029
 3416SOL    HW110267   4.341   4.683   1.020
 3416SOL    HW210268   4.234   4.594   1.106
 3417SOL     OW10269   4.933   4.249   0.275
 3417SOL    HW110270   4.946   4.165   0.329
 3417SOL    HW210271   4.904   4.323   0.335
 3418SOL     OW10272   4.031   3.937   1.231
 3418SOL    HW110273   4.008   3.974   1.321
 3418SOL    HW210274   4.001   3.842   1.225
 3419SOL     OW10275   4.456   4.358   1.064
 3419SOL    HW110276   4.515   4.332   0.988
 3419SOL    HW210277   4.428   4.454   1.053
 3420SOL     OW10278   4.031   3.787   0.618
 3420SOL    HW110279   4.020   3.881   0.651
 3420SOL    HW210280   4.026   3.724   0.695
 3421SOL     OW10281   4.747   4.490   0.966
 3421SOL    HW110282   4.762   4.511   1.062
 3421SOL    HW210283   4.717   4.395   0.957
 3422SOL     OW10284   4.074   4.622   1.804
 3422SOL    HW110285   4.150   4.666   1.852
 3422SOL    HW210286   4.109   4.575   1.722
 3423SOL     OW10287   4.043   4.534   0.949
 3423SOL    HW110288   4.136   4.570   0.954
 3423SOL    HW210289   4.037   4.449   1.001
 3424SOL     OW10290   4.063   4.233   1.006
 3424SOL    HW110291   4.011   4.150   0.989
 3424SOL    HW210292   4.140   4.238   0.942
 3425SOL     OW10293   4.726   4.520   1.238
 3425SOL    HW110294   4.767   4.488   1.324
 3425SOL    HW210295   4.630   4.493   1.235
 3426SOL     OW10296   3.764   4.268   1.114
 3426SOL    HW110297   3.849   4.235   1.073
 3426SOL    HW210298   3.777   4.283   1.212
 3427SOL     OW10299   3.913   4.244   1.722
 3427SOL    HW110300   3.972   4.204   1.652
 3427SOL    HW210301   3.855   4.315   1.681
 3428SOL     OW10302   4.539   4.296   0.325
 3428SOL    HW110303   4.546   4.207   0.279
 3428SOL    HW210304   4.445   4.330   0.317
 3429SOL     OW10305   4.395   4.188   1.269
 3429SOL    HW110306   4.361   4.099   1.239
 3429SOL    HW210307   4.421   4.242   1.189
 3430SOL     OW10308   4.197   4.224   0.191
 3430SOL    HW110309   4.258   4.304   0.195
 3430SOL    HW210310   4.102   4.255   0.198
 3431SOL     OW10311   3.883   4.861   1.466
 3431SOL    HW110312   3.905   4.800   1.542
 3431SOL    HW210313   3.893   4.812   1.380
 3432SOL     OW10314   5.026   4.579   0.309
 3432SOL    HW110315   4.940   4.548   0.351
 3432SOL    HW210316   5.022   4.565   0.210
 3433SOL     OW10317   4.627   3.810   0.133
 3433SOL    HW110318   4.678   3.811   0.047
 3433SOL    HW210319   4.683   3.768   0.204
 3434SOL     OW10320   3.987   4.050   0.720
 3434SOL    HW110321   3.908   4.101   0.686
 3434SOL    HW210322   3.978   4.035   0.818
 3435SOL     OW10323   4.640   4.634   0.291
 3435SOL    HW110324   4.703   4.672   0.223
 3435SOL    HW210325   4.680   4.551   0.330
 3436SOL     OW10326   4.738   3.960   0.971
 3436SOL    HW110327   4.730   3.924   0.878
 3436SOL    HW210328   4.736   3.884   1.036
 3437SOL     OW10329   3.829   4.737   1.726
 3437SOL    HW110330   3.752   4.704   1.780
 3437SOL    HW210331   3.914   4.707   1.768
 3438SOL     OW10332   4.396   3.927   1.489
 3438SOL    HW110333   4.486   3.911   1.449
 3438SOL    HW210334   4.404   3.932   1.588
 3439SOL     OW10335   3.799   4.069   0.033
 3439SOL    HW110336   3.707   4.041   0.004
 3439SOL    HW210337   3.830   4.146  -0.023
 3440SOL     OW10338   4.337   4.566   1.431
 3440SOL    HW110339   4.393   4.647   1.414
 3440SOL    HW210340   4.396   4.486   1.434
 3441SOL     OW10341   4.440   4.289   1.708
 3441SOL    HW110342   4.459   4.354   1.782
 3441SOL    HW210343   4.500   4.209   1.717
 3442SOL     OW10344   4.949   4.049   0.449
 3442SOL    HW110345   5.014   3.975   0.438
 3442SOL    HW210346   4.969   4.099   0.533
 3443SOL     OW10347   4.318   4.469   0.652
 3443SOL    HW110348   4.368   4.554   0.633
 3443SOL    HW210349   4.230   4.471   0.604
 3444SOL     OW10350   4.807   4.708   0.087
 3444SOL    HW110351   4.784   4.761   0.005
 3444SOL    HW210352   4.888   4.652   0.068
 3445SOL     OW10353   4.152   4.148   0.520
 3445SOL    HW110354   4.182   4.076   0.458
 3445SOL    HW210355   4.113   4.108   0.603
 3446SOL     OW10356   4.041   4.271   1.280
 3446SOL    HW110357   4.079   4.212   1.352
 3446SOL    HW210358   4.081   4.245   1.192
 3447SOL     OW10359   4.725   3.758   1.154
 3447SOL    HW110360   4.662   3.686   1.123
 3447SOL    HW210361   4.818   3.722   1.154
 3448SOL     OW10362   3.954   4.352   1.975
 3448SOL    HW110363   3.861   4.350   2.012
 3448SOL    HW210364   3.955   4.313   1.883
 3449SOL     OW10365   3.949   3.999   2.858
 3449SOL    HW110366   3.984   3.982   2.950
 3449SOL    HW210367   3.861   3.954   2.846
 3450SOL     OW10368   3.743   4.092   2.509
 3450SOL    HW110369   3.661   4.135   2.548
 3450SOL    HW210370   3.715   4.019   2.446
 3451SOL     OW10371   4.492   4.868   2.885
 3451SOL    HW110372   4.414   4.885   2.945
 3451SOL    HW210373   4.526   4.955   2.849
 3452SOL     OW10374   4.574   4.522   3.685
 3452SOL    HW110375   4.570   4.598   3.750
 3452SOL    HW210376   4.596   4.558   3.594
 3453SOL     OW10377   4.409   4.736   2.527
 3453SOL    HW110378   4.478   4.720   2.597
 3453SOL    HW210379   4.336   4.793   2.565
 3454SOL     OW10380   4.162   4.116   3.361
 3454SOL    HW110381   4.244   4.060   3.370
 3454SOL    HW210382   4.081   4.058   3.365
 3455SOL     OW10383   3.964   4.815   2.748
 3455SOL    HW110384   3.978   4.731   2.800
 3455SOL    HW210385   3.909   4.879   2.803
 3456SOL     OW10386   3.846   4.367   2.425
 3456SOL    HW110387   3.801   4.279   2.442
 3456SOL    HW210388   3.845   4.421   2.509
 3457SOL     OW10389   3.837   4.461   3.459
 3457SOL    HW110390   3.925   4.448   3.504
 3457SOL    HW210391   3.824   4.558   3.437
 3458SOL     OW10392   4.533   3.728   2.364
 3458SOL    HW110393   4.573   3.819   2.355
 3458SOL    HW210394   4.433   3.736   2.370
 3459SOL     OW10395   3.921   4.700   3.126
 3459SOL    HW110396   4.010   4.655   3.112
 3459SOL    HW210397   3.848   4.635   3.107
 3460SOL     OW10398   4.041   3.975   3.663
 3460SOL    HW110399   4.112   4.046   3.669
 3460SOL    HW210400   3.953   4.014   3.691
 3461SOL     OW10401   4.322   4.453   2.132
 3461SOL    HW110402   4.346   4.522   2.064
 3461SOL    HW210403   4.244   4.486   2.186
 3462SOL     OW10404   4.531   4.329   3.327
 3462SOL    HW110405   4.484   4.326   3.416
 3462SOL    HW210406   4.480   4.274   3.261
 3463SOL     OW10407   4.697   4.614   3.434
 3463SOL    HW110408   4.743   4.530   3.405
 3463SOL    HW210409   4.641   4.648   3.359
 3464SOL     OW10410   4.715   4.134   3.104
 3464SOL    HW110411   4.638   4.168   3.158
 3464SOL    HW210412   4.681   4.083   3.025
 3465SOL     OW10413   3.800   4.535   2.651
 3465SOL    HW110414   3.899   4.523   2.660
 3465SOL    HW210415   3.776   4.630   2.672
 3466SOL     OW10416   4.589   4.072   2.057
 3466SOL    HW110417   4.648   4.135   2.008
 3466SOL    HW210418   4.608   3.978   2.028
 3467SOL     OW10419   4.274   3.920   2.747
 3467SOL    HW110420   4.269   3.915   2.847
 3467SOL    HW210421   4.276   4.016   2.718
 3468SOL     OW10422   3.926   4.009   3.360
 3468SOL    HW110423   3.846   4.069   3.347
 3468SOL    HW210424   3.916   3.960   3.446
 3469SOL     OW10425   4.106   4.424   2.342
 3469SOL    HW110426   4.151   4.334   2.339
 3469SOL    HW210427   4.012   4.413   2.375
 3470SOL     OW10428   4.338   3.846   1.979
 3470SOL    HW110429   4.436   3.824   1.986
 3470SOL    HW210430   4.307   3.829   1.886
 3471SOL     OW10431   4.505   3.988   3.611
 3471SOL    HW110432   4.572   3.927   3.654
 3471SOL    HW210433   4.432   4.007   3.676
 3472SOL     OW10434   4.646   4.227   2.761
 3472SOL    HW110435   4.621   4.218   2.665
 3472SOL    HW210436   4.694   4.145   2.792
 3473SOL     OW10437   4.263   3.788   2.374
 3473SOL    HW110438   4.182   3.789   2.432
 3473SOL    HW210439   4.266   3.871   2.319
 3474SOL     OW10440   4.021   3.759   2.033
 3474SOL    HW110441   4.070   3.843   2.012
 3474SOL    HW210442   4.083   3.694   2.078
 3475SOL     OW10443   4.659   3.960   2.342
 3475SOL    HW110444   4.611   4.001   2.264
 3475SOL    HW210445   4.758   3.958   2.323
 3476SOL     OW10446   3.802   4.280   3.248
 3476SOL    HW110447   3.894   4.279   3.207
 3476SOL    HW210448   3.796   4.354   3.315
 3477SOL     OW10449   4.285   3.946   3.009
 3477SOL    HW110450   4.323   3.862   3.046
 3477SOL    HW210451   4.197   3.965   3.053
 3478SOL     OW10452   4.741   3.763   2.615
 3478SOL    HW110453   4.669   3.768   2.546
 3478SOL    HW210454   4.717   3.694   2.684
 3479SOL     OW10455   4.251   3.980   2.190
 3479SOL    HW110456   4.278   3.921   2.115
 3479SOL    HW210457   4.251   4.075   2.159
 3480SOL     OW10458   4.639   3.813   3.264
 3480SOL    HW110459   4.664   3.793   3.169
 3480SOL    HW210460   4.711   3.869   3.306
 3481SOL     OW10461   4.704   4.840   3.581
 3481SOL    HW110462   4.605   4.846   3.591
 3481SOL    HW210463   4.727   4.760   3.525
 3482SOL     OW10464   4.134   4.537   3.113
 3482SOL    HW110465   4.220   4.549   3.163
 3482SOL    HW210466   4.092   4.450   3.140
 3483SOL     OW10467   4.290   4.261   2.727
 3483SOL    HW110468   4.302   4.327   2.653
 3483SOL    HW210469   4.336   4.295   2.810
 3484SOL     OW10470   4.126   4.475   3.460
 3484SOL    HW110471   4.194   4.530   3.413
 3484SOL    HW210472   4.166   4.387   3.487
 3485SOL     OW10473   4.737   3.829   3.632
 3485SOL    HW110474   4.743   3.914   3.580
 3485SOL    HW210475   4.769   3.753   3.575
 3486SOL     OW10476   4.228   3.774   3.602
 3486SOL    HW110477   4.186   3.717   3.532
 3486SOL    HW210478   4.162   3.843   3.634
 3487SOL     OW10479   4.297   4.594   2.891
 3487SOL    HW110480   4.341   4.683   2.882
 3487SOL    HW210481   4.234   4.594   2.968
 3488SOL     OW10482   4.933   4.249   2.137
 3488SOL    HW110483   4.946   4.165   2.191
 3488SOL    HW210484   4.904   4.323   2.197
 3489SOL     OW10485   4.031   3.937   3.093
 3489SOL    HW110486   4.008   3.974   3.183
 3489SOL    HW210487   4.001   3.842   3.087
 3490SOL     OW10488   4.456   4.358   2.926
 3490SOL    HW110489   4.515   4.332   2.850
 3490SOL    HW210490   4.428   4.454   2.915
 3491SOL     OW10491   4.031   3.787   2.480
 3491SOL    HW110492   4.020   3.881   2.513
 3491SOL    HW210493   4.026   3.724   2.557
 3492SOL     OW10494   4.747   4.490   2.828
 3492SOL    HW110495   4.762   4.511   2.924
 3492SOL    HW210496   4.717   4.395   2.819
 3493SOL     OW10497   4.074   4.622   3.666
 3493SOL    HW110498   4.150   4.666   3.714
 3493SOL    HW210499   4.109   4.575   3.584
 3494SOL     OW10500   4.043   4.534   2.811
 3494SOL    HW110501   4.136   4.570   2.816
 3494SOL    HW210502   4.037   4.449   2.863
 3495SOL     OW10503   4.063   4.233   2.868
 3495SOL    HW110504   4.011   4.150   2.851
 3495SOL    HW210505   4.140   4.238   2.804
 3496SOL     OW10506   4.726   4.520   3.100
 3496SOL    HW110507   4.767   4.488   3.186
 3496SOL    HW210508   4.630   4.493   3.097
 3497SOL     OW10509   3.764   4.268   2.976
 3497SOL    HW110510   3.849   4.235   2.935
 3497SOL    HW210511   3.777   4.283   3.074
 3498SOL     OW10512   3.913   4.244   3.584
 3498SOL    HW110513   3.972   4.204   3.514
 3498SOL    HW210514   3.855   4.315   3.543
 3499SOL     OW10515   4.539   4.296   2.187
 3499SOL    HW110516   4.546   4.207   2.141
 3499SOL    HW210517   4.445   4.330   2.179
 3500SOL     OW10518   4.395   4.188   3.131
 3500SOL    HW110519   4.361   4.099   3.101
 3500SOL    HW210520   4.421   4.242   3.051
 3501SOL     OW10521   4.197   4.224   2.053
 3501SOL    HW110522   4.258   4.304   2.057
 3501SOL    HW210523   4.102   4.255   2.060
 3502SOL     OW10524   3.883   4.861   3.328
 3502SOL    HW110525   3.905   4.800   3.404
 3502SOL    HW210526   3.893   4.812   3.242
 3503SOL     OW10527   5.026   4.579   2.171
 3503SOL    HW110528   4.940   4.548   2.213
 3503SOL    HW210529   5.022   4.565   2.072
 3504SOL     OW10530   3.987   4.050   2.582
 3504SOL    HW110531   3.908   4.101   2.548
 3504SOL    HW210532   3.978   4.035   2.680
 3505SOL     OW10533   4.640   4.634   2.153
 3505SOL    HW110534   4.703   4.672   2.085
 3505SOL    HW210535   4.680   4.551   2.192
 3506SOL     OW10536   4.738   3.960   2.833
 3506SOL    HW110537   4.730   3.924   2.740
 3506SOL    HW210538   4.736   3.884   2.898
 3507SOL     OW10539   3.829   4.737   3.588
 3507SOL    HW110540   3.752   4.704   3.642
 3507SOL    HW210541   3.914   4.707   3.630
 3508SOL     OW10542   4.396   3.927   3.351
 3508SOL    HW110543   4.486   3.911   3.311
 3508SOL    HW210544   4.404   3.932   3.450
 3509SOL     OW10545   3.799   4.069   1.895
 3509SOL    HW110546   3.707   4.041   1.866
 3509SOL    HW210547   3.830   4.146   1.839
 3510SOL     OW10548   3.796   3.890   2.180
 3510SOL    HW110549   3.779   3.973   2.126
 3510SOL    HW210550   3.886   3.853   2.158
 3511SOL     OW10551   4.337   4.566   3.293
 3511SOL    HW110552   4.393   4.647   3.276
 3511SOL    HW210553   4.396   4.486   3.296
 3512SOL     OW10554   4.440   4.289   3.570
 3512SOL    HW110555   4.459   4.354   3.644
 3512SOL    HW210556   4.500   4.209   3.579
 3513SOL     OW10557   4.949   4.049   2.311
 3513SOL    HW110558   5.014   3.975   2.300
 3513SOL    HW210559   4.969   4.099   2.395
 3514SOL     OW10560   4.318   4.469   2.514
 3514SOL    HW110561   4.368   4.554   2.495
 3514SOL    HW210562   4.230   4.471   2.466
 3515SOL     OW10563   4.152   4.148   2.382
 3515SOL    HW110564   4.182   4.076   2.320
 3515SOL    HW210565   4.113   4.108   2.465
 3516SOL     OW10566   4.041   4.271   3.142
 3516SOL    HW110567   4.079   4.212   3.214
 3516SOL    HW210568   4.081   4.245   3.054
 3517SOL     OW10569   4.725   3.758   3.016
 3517SOL    HW110570   4.662   3.686   2.985
 3517SOL    HW210571   4.818   3.722   3.016
 3518SOL     OW10572   3.954   4.352   3.837
 3518SOL    HW110573   3.861   4.350   3.874
 3518SOL    HW210574   3.955   4.313   3.745
 3519SOL     OW10575   3.949   3.999   4.720
 3519SOL    HW110576   3.984   3.982   4.812
 3519SOL    HW210577   3.861   3.954   4.708
 3520SOL     OW10578   3.743   4.092   4.371
 3520SOL    HW110579   3.661   4.135   4.410
 3520SOL    HW210580   3.715   4.019   4.308
 3521SOL     OW10581   4.409   4.736   4.389
 3521SOL    HW110582   4.478   4.720   4.459
 3521SOL    HW210583   4.336   4.793   4.427
 3522SOL     OW10584   3.964   4.815   4.610
 3522SOL    HW110585   3.978   4.731   4.662
 3522SOL    HW210586   3.909   4.879   4.665
 3523SOL     OW10587   3.846   4.367   4.287
 3523SOL    HW110588   3.801   4.279   4.304
 3523SOL    HW210589   3.845   4.421   4.371
 3524SOL     OW10590   4.337   5.089   4.450
 3524SOL    HW110591   4.288   5.002   4.459
 3524SOL    HW210592   4.314   5.132   4.363
 3525SOL     OW10593   4.533   3.728   4.226
 3525SOL    HW110594   4.573   3.819   4.217
 3525SOL    HW210595   4.433   3.736   4.232
 3526SOL     OW10596   4.322   4.453   3.994
 3526SOL    HW110597   4.346   4.522   3.926
 3526SOL    HW210598   4.244   4.486   4.048
 3527SOL     OW10599   3.800   4.535   4.513
 3527SOL    HW110600   3.899   4.523   4.522
 3527SOL    HW210601   3.776   4.630   4.534
 3528SOL     OW10602   4.589   4.072   3.919
 3528SOL    HW110603   4.648   4.135   3.870
 3528SOL    HW210604   4.608   3.978   3.890
 3529SOL     OW10605   4.106   4.424   4.204
 3529SOL    HW110606   4.151   4.334   4.201
 3529SOL    HW210607   4.012   4.413   4.237
 3530SOL     OW10608   4.338   3.846   3.841
 3530SOL    HW110609   4.436   3.824   3.848
 3530SOL    HW210610   4.307   3.829   3.748
 3531SOL     OW10611   4.646   4.227   4.623
 3531SOL    HW110612   4.621   4.218   4.527
 3531SOL    HW210613   4.694   4.145   4.654
 3532SOL     OW10614   4.263   3.788   4.236
 3532SOL    HW110615   4.182   3.789   4.294
 3532SOL    HW210616   4.266   3.871   4.181
 3533SOL     OW10617   4.021   3.759   3.895
 3533SOL    HW110618   4.070   3.843   3.874
 3533SOL    HW210619   4.083   3.694   3.940
 3534SOL     OW10620   4.659   3.960   4.204
 3534SOL    HW110621   4.611   4.001   4.126
 3534SOL    HW210622   4.758   3.958   4.185
 3535SOL     OW10623   4.741   3.763   4.477
 3535SOL    HW110624   4.669   3.768   4.408
 3535SOL    HW210625   4.717   3.694   4.546
 3536SOL     OW10626   4.251   3.980   4.052
 3536SOL    HW110627   4.278   3.921   3.977
 3536SOL    HW210628   4.251   4.075   4.021
 3537SOL     OW10629   4.290   4.261   4.589
 3537SOL    HW110630   4.302   4.327   4.515
 3537SOL    HW210631   4.336   4.295   4.672
 3538SOL     OW10632   4.297   4.594   4.753
 3538SOL    HW110633   4.341   4.683   4.744
 3538SOL    HW210634   4.234   4.594   4.830
 3539SOL     OW10635   4.933   4.249   3.999
 3539SOL    HW110636   4.946   4.165   4.053
 3539SOL    HW210637   4.904   4.323   4.059
 3540SOL     OW10638   4.031   3.937   4.955
 3540SOL    HW110639   4.008   3.974   5.045
 3540SOL    HW210640   4.001   3.842   4.949
 3541SOL     OW10641   4.456   4.358   4.788
 3541SOL    HW110642   4.515   4.332   4.712
 3541SOL    HW210643   4.428   4.454   4.777
 3542SOL     OW10644   4.031   3.787   4.342
 3542SOL    HW110645   4.020   3.881   4.375
 3542SOL    HW210646   4.026   3.724   4.419
 3543SOL     OW10647   4.747   4.490   4.690
 3543SOL    HW110648   4.762   4.511   4.786
 3543SOL    HW210649   4.717   4.395   4.681
 3544SOL     OW10650   4.792   5.057   4.573
 3544SOL    HW110651   4.799   4.973   4.518
 3544SOL    HW210652   4.854   5.126   4.537
 3545SOL     OW10653   4.043   4.534   4.673
 3545SOL    HW110654   4.136   4.570   4.678
 3545SOL    HW210655   4.037   4.449   4.725
 3546SOL     OW10656   4.539   4.296   4.049
 3546SOL    HW110657   4.546   4.207   4.003
 3546SOL    HW210658   4.445   4.330   4.041
 3547SOL     OW10659   4.395   4.188   4.993
 3547SOL    HW110660   4.361   4.099   4.963
 3547SOL    HW210661   4.421   4.242   4.913
 3548SOL     OW10662   4.197   4.224   3.915
 3548SOL    HW110663   4.258   4.304   3.919
 3548SOL    HW210664   4.102   4.255   3.922
 3549SOL     OW10665   5.026   4.579   4.033
 3549SOL    HW110666   4.940   4.548   4.075
 3549SOL    HW210667   5.022   4.565   3.934
 3550SOL     OW10668   3.987   4.050   4.444
 3550SOL    HW110669   3.908   4.101   4.410
 3550SOL    HW210670   3.978   4.035   4.542
 3551SOL     OW10671   4.640   4.634   4.015
 3551SOL    HW110672   4.703   4.672   3.947
 3551SOL    HW210673   4.680   4.551   4.054
 3552SOL     OW10674   3.799   4.069   3.757
 3552SOL    HW110675   3.707   4.041   3.728
 3552SOL    HW210676   3.830   4.146   3.701
 3553SOL     OW10677   3.796   3.890   4.042
 3553SOL    HW110678   3.779   3.973   3.988
 3553SOL    HW210679   3.886   3.853   4.020
 3554SOL     OW10680   4.949   4.049   4.173
 3554SOL    HW110681   5.014   3.975   4.162
 3554SOL    HW210682   4.969   4.099   4.257
 3555SOL     OW10683   4.318   4.469   4.376
 3555SOL    HW110684   4.368   4.554   4.357
 3555SOL    HW210685   4.230   4.471   4.328
 3556SOL     OW10686   4.152   4.148   4.244
 3556SOL    HW110687   4.182   4.076   4.182
 3556SOL    HW210688   4.113   4.108   4.327
   4.77370   4.77370   4.77370
