mobley_3266352_GMX.gro created by acpype (v: 2023.10.27) on Thu May 21 00:01:15 2026
   23
    1MOL     C1    1   2.386   2.344   2.068
    1MOL     C2    2   2.481   2.420   2.137
    1MOL     C3    3   2.291   2.271   2.138
    1MOL     C4    4   2.479   2.423   2.277
    1MOL     C5    5   2.289   2.274   2.278
    1MOL     C6    6   2.383   2.350   2.347
    1MOL     C7    7   2.282   2.278   2.562
    1MOL     C8    8   2.480   2.431   2.561
    1MOL     C9    9   2.430   2.572   2.581
    1MOL     N1   10   2.381   2.353   2.488
    1MOL     F1   11   2.522   2.645   2.648
    1MOL     F2   12   2.406   2.633   2.463
    1MOL     F3   13   2.316   2.574   2.653
    1MOL     H1   14   2.388   2.342   1.959
    1MOL     H2   15   2.555   2.477   2.083
    1MOL     H3   16   2.217   2.212   2.084
    1MOL     H4   17   2.553   2.483   2.330
    1MOL     H5   18   2.214   2.217   2.331
    1MOL     H6   19   2.185   2.328   2.557
    1MOL     H7   20   2.312   2.268   2.667
    1MOL     H8   21   2.271   2.178   2.519
    1MOL     H9   22   2.499   2.383   2.658
    1MOL    H10   23   2.574   2.432   2.505
   4.77370   4.77370   4.77370
