; mobley_2178600_GMX_OPLS.top created by acpype (v: 2023.10.27) on Thu May 21 00:02:30 2026

; Include forcefield parameters
#include "ffoplsaa.itp"

; Include mobley_2178600_GMX.itp topology
#include "mobley_2178600_GMX.itp"

; Ligand position restraints
#ifdef POSRES_LIG
#include "posre_mobley_2178600.itp"
#endif

[ system ]
 mobley_2178600

[ molecules ]
; Compound        nmols
 mobley_2178600   1     
