; mobley_2178600_GMX_OPLS.itp created by acpype (v: 2023.10.27) on Thu May 21 00:02:30 2026

; For OPLS atomtypes manual fine tuning
; AC_at:OPLS_at:OPLScode: Possible_Alternatives (see ffoplsaa.atp and ffoplsaanb.itp)
; c3:CT:opls_135: ['136', '137', '149', '157', '158', '206', '209', '210', '223B', '224B', '245', '246', '274', '283', '284', '285', '292', '292B', '293B', '296', '307', '308', '505']
; cl:x:opls_x: []
; hc:HC:opls_140: []
; h1:HC:opls_140: []

[ moleculetype ]
;name            nrexcl
 mobley_2178600   3

[ atoms ]
;   nr  type  resi  res  atom  cgnr     charge      mass       ; qtot   bond_type
     1 opls_135     1   MOL    C1    1    -0.093100     12.01100 ; qtot -0.093  CT  
     2 opls_135     1   MOL    C2    2    -0.079400     12.01100 ; qtot -0.172  CT  
     3 opls_135     1   MOL    C3    3    -0.080400     12.01100 ; qtot -0.253  CT  
     4 opls_135     1   MOL    C4    4    -0.092400     12.01100 ; qtot -0.345  CT  
     5 opls_135     1   MOL    C5    5     0.039000     12.01100 ; qtot -0.306  CT  
     6 opls_x     1   MOL   CL1    6    -0.202401      0.00000 ; qtot -0.509  x   
     7 opls_140     1   MOL    H1    7     0.034367      1.00800 ; qtot -0.474  HC  
     8 opls_140     1   MOL    H2    8     0.034367      1.00800 ; qtot -0.440  HC  
     9 opls_140     1   MOL    H3    9     0.034367      1.00800 ; qtot -0.406  HC  
    10 opls_140     1   MOL    H4   10     0.040700      1.00800 ; qtot -0.365  HC  
    11 opls_140     1   MOL    H5   11     0.040700      1.00800 ; qtot -0.324  HC  
    12 opls_140     1   MOL    H6   12     0.041700      1.00800 ; qtot -0.282  HC  
    13 opls_140     1   MOL    H7   13     0.041700      1.00800 ; qtot -0.241  HC  
    14 opls_140     1   MOL    H8   14     0.056700      1.00800 ; qtot -0.184  HC  
    15 opls_140     1   MOL    H9   15     0.056700      1.00800 ; qtot -0.127  HC  
    16 opls_140     1   MOL   H10   16     0.063700      1.00800 ; qtot -0.064  HC  
    17 opls_140     1   MOL   H11   17     0.063700      1.00800 ; qtot  0.000  HC  

[ bonds ]
;   ai     aj funct   r             k
     1      2   1 ;    1.5354e-01    1.9154e+05 ;     C1 - C2         CT - CT    
     1      7   1 ;    1.0962e-01    2.8891e+05 ;     C1 - H1         CT - HC    
     1      8   1 ;    1.0962e-01    2.8891e+05 ;     C1 - H2         CT - HC    
     1      9   1 ;    1.0962e-01    2.8891e+05 ;     C1 - H3         CT - HC    
     2      3   1 ;    1.5354e-01    1.9154e+05 ;     C2 - C3         CT - CT    
     2     10   1 ;    1.0962e-01    2.8891e+05 ;     C2 - H4         CT - HC    
     2     11   1 ;    1.0962e-01    2.8891e+05 ;     C2 - H5         CT - HC    
     3      4   1 ;    1.5354e-01    1.9154e+05 ;     C3 - C4         CT - CT    
     3     12   1 ;    1.0962e-01    2.8891e+05 ;     C3 - H6         CT - HC    
     3     13   1 ;    1.0962e-01    2.8891e+05 ;     C3 - H7         CT - HC    
     4      5   1 ;    1.5354e-01    1.9154e+05 ;     C4 - C5         CT - CT    
     4     14   1 ;    1.0962e-01    2.8891e+05 ;     C4 - H8         CT - HC    
     4     15   1 ;    1.0962e-01    2.8891e+05 ;     C4 - H9         CT - HC    
     5      6   1 ;    1.8092e-01    1.3724e+05 ;     C5 - CL1        CT - x     
     5     16   1 ;    1.0969e-01    2.8804e+05 ;     C5 - H10        CT - HC    
     5     17   1 ;    1.0969e-01    2.8804e+05 ;     C5 - H11        CT - HC    

[ pairs ]
;   ai     aj    funct
     1      4      1 ;     C1 - C4    
     1     12      1 ;     C1 - H6    
     1     13      1 ;     C1 - H7    
     2      5      1 ;     C2 - C5    
     2     14      1 ;     C2 - H8    
     2     15      1 ;     C2 - H9    
     3      6      1 ;     C3 - CL1   
     3     16      1 ;     C3 - H10   
     3     17      1 ;     C3 - H11   
     4     10      1 ;     C4 - H4    
     4     11      1 ;     C4 - H5    
     5     12      1 ;     C5 - H6    
     5     13      1 ;     C5 - H7    
     6     14      1 ;    CL1 - H8    
     6     15      1 ;    CL1 - H9    
     7      3      1 ;     H1 - C3    
     7     10      1 ;     H1 - H4    
     7     11      1 ;     H1 - H5    
     8      3      1 ;     H2 - C3    
     8     10      1 ;     H2 - H4    
     8     11      1 ;     H2 - H5    
     9      3      1 ;     H3 - C3    
     9     10      1 ;     H3 - H4    
     9     11      1 ;     H3 - H5    
    10     12      1 ;     H4 - H6    
    10     13      1 ;     H4 - H7    
    11     12      1 ;     H5 - H6    
    11     13      1 ;     H5 - H7    
    12     14      1 ;     H6 - H8    
    12     15      1 ;     H6 - H9    
    13     14      1 ;     H7 - H8    
    13     15      1 ;     H7 - H9    
    14     16      1 ;     H8 - H10   
    14     17      1 ;     H8 - H11   
    15     16      1 ;     H9 - H10   
    15     17      1 ;     H9 - H11   

[ angles ]
;   ai     aj     ak    funct   theta         cth
     1      2      3      1 ;    1.1263e+02    5.0099e+02 ;     C1 - C2   - C3       CT -   CT - CT  
     1      2     10      1 ;    1.0968e+02    3.6208e+02 ;     C1 - C2   - H4       CT -   CT - HC  
     1      2     11      1 ;    1.0968e+02    3.6208e+02 ;     C1 - C2   - H5       CT -   CT - HC  
     2      1      7      1 ;    1.0968e+02    3.6208e+02 ;     C2 - C1   - H1       CT -   CT - HC  
     2      1      8      1 ;    1.0968e+02    3.6208e+02 ;     C2 - C1   - H2       CT -   CT - HC  
     2      1      9      1 ;    1.0968e+02    3.6208e+02 ;     C2 - C1   - H3       CT -   CT - HC  
     2      3      4      1 ;    1.1263e+02    5.0099e+02 ;     C2 - C3   - C4       CT -   CT - CT  
     2      3     12      1 ;    1.0968e+02    3.6208e+02 ;     C2 - C3   - H6       CT -   CT - HC  
     2      3     13      1 ;    1.0968e+02    3.6208e+02 ;     C2 - C3   - H7       CT -   CT - HC  
     3      2     10      1 ;    1.0968e+02    3.6208e+02 ;     C3 - C2   - H4       CT -   CT - HC  
     3      2     11      1 ;    1.0968e+02    3.6208e+02 ;     C3 - C2   - H5       CT -   CT - HC  
     3      4      5      1 ;    1.1263e+02    5.0099e+02 ;     C3 - C4   - C5       CT -   CT - CT  
     3      4     14      1 ;    1.0968e+02    3.6208e+02 ;     C3 - C4   - H8       CT -   CT - HC  
     3      4     15      1 ;    1.0968e+02    3.6208e+02 ;     C3 - C4   - H9       CT -   CT - HC  
     4      3     12      1 ;    1.0968e+02    3.6208e+02 ;     C4 - C3   - H6       CT -   CT - HC  
     4      3     13      1 ;    1.0968e+02    3.6208e+02 ;     C4 - C3   - H7       CT -   CT - HC  
     4      5      6      1 ;    1.1039e+02    5.3254e+02 ;     C4 - C5   - CL1      CT -   CT - x   
     4      5     16      1 ;    1.0959e+02    3.6217e+02 ;     C4 - C5   - H10      CT -   CT - HC  
     4      5     17      1 ;    1.0959e+02    3.6217e+02 ;     C4 - C5   - H11      CT -   CT - HC  
     5      4     14      1 ;    1.0968e+02    3.6208e+02 ;     C5 - C4   - H8       CT -   CT - HC  
     5      4     15      1 ;    1.0968e+02    3.6208e+02 ;     C5 - C4   - H9       CT -   CT - HC  
     6      5     16      1 ;    1.0682e+02    3.6183e+02 ;    CL1 - C5   - H10       x -   CT - HC  
     6      5     17      1 ;    1.0682e+02    3.6183e+02 ;    CL1 - C5   - H11       x -   CT - HC  
     7      1      8      1 ;    1.0773e+02    2.9957e+02 ;     H1 - C1   - H2       HC -   CT - HC  
     7      1      9      1 ;    1.0773e+02    2.9957e+02 ;     H1 - C1   - H3       HC -   CT - HC  
     8      1      9      1 ;    1.0773e+02    2.9957e+02 ;     H2 - C1   - H3       HC -   CT - HC  
    10      2     11      1 ;    1.0773e+02    2.9957e+02 ;     H4 - C2   - H5       HC -   CT - HC  
    12      3     13      1 ;    1.0773e+02    2.9957e+02 ;     H6 - C3   - H7       HC -   CT - HC  
    14      4     15      1 ;    1.0773e+02    2.9957e+02 ;     H8 - C4   - H9       HC -   CT - HC  
    16      5     17      1 ;    1.0855e+02    2.9824e+02 ;    H10 - C5   - H11      HC -   CT - HC  

[ dihedrals ] ; propers
; for gromacs 4.5 or higher, using funct 9
;    i      j      k      l   func   phase     kd      pn
     1      2      3      4      9 ;     0.00   2.17568   3 ;     C1-    C2-    C3-    C4
     1      2      3     12      9 ;     0.00   0.54392   3 ;     C1-    C2-    C3-    H6
     1      2      3     13      9 ;     0.00   0.54392   3 ;     C1-    C2-    C3-    H7
     2      3      4      5      9 ;     0.00   2.17568   3 ;     C2-    C3-    C4-    C5
     2      3      4     14      9 ;     0.00   0.54392   3 ;     C2-    C3-    C4-    H8
     2      3      4     15      9 ;     0.00   0.54392   3 ;     C2-    C3-    C4-    H9
     3      4      5      6      9 ;     0.00   0.65084   3 ;     C3-    C4-    C5-   CL1
     3      4      5     16      9 ;     0.00   0.65084   3 ;     C3-    C4-    C5-   H10
     3      4      5     17      9 ;     0.00   0.65084   3 ;     C3-    C4-    C5-   H11
     4      3      2     10      9 ;     0.00   0.54392   3 ;     C4-    C3-    C2-    H4
     4      3      2     11      9 ;     0.00   0.54392   3 ;     C4-    C3-    C2-    H5
     5      4      3     12      9 ;     0.00   0.54392   3 ;     C5-    C4-    C3-    H6
     5      4      3     13      9 ;     0.00   0.54392   3 ;     C5-    C4-    C3-    H7
     6      5      4     14      9 ;     0.00   0.75312   3 ;    CL1-    C5-    C4-    H8
     6      5      4     15      9 ;     0.00   0.75312   3 ;    CL1-    C5-    C4-    H9
     7      1      2      3      9 ;     0.00   0.54392   3 ;     H1-    C1-    C2-    C3
     7      1      2     10      9 ;     0.00   0.50208   3 ;     H1-    C1-    C2-    H4
     7      1      2     11      9 ;     0.00   0.50208   3 ;     H1-    C1-    C2-    H5
     8      1      2      3      9 ;     0.00   0.54392   3 ;     H2-    C1-    C2-    C3
     8      1      2     10      9 ;     0.00   0.50208   3 ;     H2-    C1-    C2-    H4
     8      1      2     11      9 ;     0.00   0.50208   3 ;     H2-    C1-    C2-    H5
     9      1      2      3      9 ;     0.00   0.54392   3 ;     H3-    C1-    C2-    C3
     9      1      2     10      9 ;     0.00   0.50208   3 ;     H3-    C1-    C2-    H4
     9      1      2     11      9 ;     0.00   0.50208   3 ;     H3-    C1-    C2-    H5
    10      2      3     12      9 ;     0.00   0.50208   3 ;     H4-    C2-    C3-    H6
    10      2      3     13      9 ;     0.00   0.50208   3 ;     H4-    C2-    C3-    H7
    11      2      3     12      9 ;     0.00   0.50208   3 ;     H5-    C2-    C3-    H6
    11      2      3     13      9 ;     0.00   0.50208   3 ;     H5-    C2-    C3-    H7
    12      3      4     14      9 ;     0.00   0.50208   3 ;     H6-    C3-    C4-    H8
    12      3      4     15      9 ;     0.00   0.50208   3 ;     H6-    C3-    C4-    H9
    13      3      4     14      9 ;     0.00   0.50208   3 ;     H7-    C3-    C4-    H8
    13      3      4     15      9 ;     0.00   0.50208   3 ;     H7-    C3-    C4-    H9
    14      4      5     16      9 ;     0.00   0.65084   3 ;     H8-    C4-    C5-   H10
    14      4      5     17      9 ;     0.00   0.65084   3 ;     H8-    C4-    C5-   H11
    15      4      5     16      9 ;     0.00   0.65084   3 ;     H9-    C4-    C5-   H10
    15      4      5     17      9 ;     0.00   0.65084   3 ;     H9-    C4-    C5-   H11
