ZINC01586303
    17
  -6.3090000  -7.6540000  -2.5390000  -5.7390000  -6.7260000  -1.4780000
  -5.4080000  -7.4810000  -0.1920000  -4.8350000  -6.5440000   0.8730000
  -4.5070000  -7.3030000   2.1520000  -3.8420000  -6.1970000   3.3760000
  -6.5390000  -7.0930000  -3.4500000  -5.5940000  -8.4420000  -2.7960000
  -7.2320000  -8.1280000  -2.1900000  -4.8360000  -6.2440000  -1.8710000
  -6.4650000  -5.9320000  -1.2680000  -6.3140000  -7.9650000   0.1940000
  -4.6850000  -8.2770000  -0.4090000  -3.9300000  -6.0610000   0.4840000
  -5.5590000  -5.7490000   1.0870000  -5.4020000  -7.7680000   2.5760000
  -3.7620000  -8.0820000   1.9690000
