mobley_2178600_GMX.gro created by acpype (v: 2023.10.27) on Thu May 21 00:02:30 2026
 17
    1  MOL   C1    1  -0.631  -0.765  -0.254
    1  MOL   C2    2  -0.574  -0.673  -0.148
    1  MOL   C3    3  -0.541  -0.748  -0.019
    1  MOL   C4    4  -0.484  -0.654   0.087
    1  MOL   C5    5  -0.451  -0.730   0.215
    1  MOL  CL1    6  -0.384  -0.620   0.338
    1  MOL   H1    7  -0.654  -0.709  -0.345
    1  MOL   H2    8  -0.559  -0.844  -0.280
    1  MOL   H3    9  -0.723  -0.813  -0.219
    1  MOL   H4   10  -0.484  -0.624  -0.187
    1  MOL   H5   11  -0.647  -0.593  -0.127
    1  MOL   H6   12  -0.631  -0.796   0.019
    1  MOL   H7   13  -0.468  -0.828  -0.041
    1  MOL   H8   14  -0.393  -0.606   0.048
    1  MOL   H9   15  -0.556  -0.575   0.109
    1  MOL  H10   16  -0.540  -0.777   0.258
    1  MOL  H11   17  -0.376  -0.808   0.197
    6.94000     5.38600    13.65200
