%VERSION  VERSION_STAMP = V0001.000  DATE = 05/21/26  00:02:31                  
%FLAG TITLE                                                                     
%FORMAT(20a4)                                                                   
ZINC01586303                                                                    
%FLAG POINTERS                                                                  
%FORMAT(10I8)                                                                   
      17       4      11       5      26       4      33       3       0       0
      83       1       5       4       3       4       7       5       4       0
       0       0       0       0       0       0       0       0      17       0
       0
%FLAG ATOM_NAME                                                                 
%FORMAT(20a4)                                                                   
C1  C2  C3  C4  C5  Cl1 H1  H2  H3  H4  H5  H6  H7  H8  H9  H10 H11 
%FLAG CHARGE                                                                    
%FORMAT(5E16.8)                                                                 
 -1.69649613E+00 -1.44685062E+00 -1.46507292E+00 -1.68374052E+00  7.10669700E-01
 -3.65174892E+00  6.26245784E-01  6.26245784E-01  6.26245784E-01  7.41647610E-01
  7.41647610E-01  7.59869910E-01  7.59869910E-01  1.03320441E+00  1.03320441E+00
  1.16076051E+00  1.16076051E+00
%FLAG ATOMIC_NUMBER                                                             
%FORMAT(10I8)                                                                   
       6       6       6       6       6      17       1       1       1       1
       1       1       1       1       1       1       1
%FLAG MASS                                                                      
%FORMAT(5E16.8)                                                                 
  1.20100000E+01  1.20100000E+01  1.20100000E+01  1.20100000E+01  1.20100000E+01
  3.54500000E+01  1.00800000E+00  1.00800000E+00  1.00800000E+00  1.00800000E+00
  1.00800000E+00  1.00800000E+00  1.00800000E+00  1.00800000E+00  1.00800000E+00
  1.00800000E+00  1.00800000E+00
%FLAG ATOM_TYPE_INDEX                                                           
%FORMAT(10I8)                                                                   
       1       1       1       1       1       2       3       3       3       3
       3       3       3       3       3       4       4
%FLAG NUMBER_EXCLUDED_ATOMS                                                     
%FORMAT(10I8)                                                                   
      10      12      14      10       7       4       4       3       2       3
       2       3       2       3       2       1       1
%FLAG NONBONDED_PARM_INDEX                                                      
%FORMAT(10I8)                                                                   
       1       2       4       7       2       3       5       8       4       5
       6       9       7       8       9      10
%FLAG RESIDUE_LABEL                                                             
%FORMAT(20a4)                                                                   
MOL 
%FLAG RESIDUE_POINTER                                                           
%FORMAT(10I8)                                                                   
       1
%FLAG BOND_FORCE_CONSTANT                                                       
%FORMAT(5E16.8)                                                                 
  2.28890000E+02  3.45250000E+02  1.64000000E+02  3.44220000E+02
%FLAG BOND_EQUIL_VALUE                                                          
%FORMAT(5E16.8)                                                                 
  1.53540000E+00  1.09620000E+00  1.80920000E+00  1.09690000E+00
%FLAG ANGLE_FORCE_CONSTANT                                                      
%FORMAT(5E16.8)                                                                 
  5.98700000E+01  4.32700000E+01  6.36400000E+01  4.32800000E+01  4.32400000E+01
  3.58000000E+01  3.56400000E+01
%FLAG ANGLE_EQUIL_VALUE                                                         
%FORMAT(5E16.8)                                                                 
  1.96576518E+00  1.91427794E+00  1.92666979E+00  1.91270715E+00  1.86436151E+00
  1.88024401E+00  1.89455572E+00
%FLAG DIHEDRAL_FORCE_CONSTANT                                                   
%FORMAT(5E16.8)                                                                 
  5.20000000E-01  1.30000000E-01  1.55555556E-01  1.80000000E-01  1.20000000E-01
%FLAG DIHEDRAL_PERIODICITY                                                      
%FORMAT(5E16.8)                                                                 
  3.00000000E+00  3.00000000E+00  3.00000000E+00  3.00000000E+00  3.00000000E+00
%FLAG DIHEDRAL_PHASE                                                            
%FORMAT(5E16.8)                                                                 
  0.00000000E+00  0.00000000E+00  0.00000000E+00  0.00000000E+00  0.00000000E+00
%FLAG SCEE_SCALE_FACTOR                                                         
%FORMAT(5E16.8)                                                                 
  1.20000000E+00  1.20000000E+00  1.20000000E+00  1.20000000E+00  1.20000000E+00
%FLAG SCNB_SCALE_FACTOR                                                         
%FORMAT(5E16.8)                                                                 
  2.00000000E+00  2.00000000E+00  2.00000000E+00  2.00000000E+00  2.00000000E+00
%FLAG SOLTY                                                                     
%FORMAT(5E16.8)                                                                 
  0.00000000E+00  0.00000000E+00  0.00000000E+00  0.00000000E+00
%FLAG LENNARD_JONES_ACOEF                                                       
%FORMAT(5E16.8)                                                                 
  1.02073671E+06  1.80018612E+06  3.17107030E+06  1.00235148E+05  1.79601155E+05
  7.94617769E+03  6.97998263E+04  1.25585106E+05  5.22955465E+03  3.39005767E+03
%FLAG LENNARD_JONES_BCOEF                                                       
%FORMAT(5E16.8)                                                                 
  6.63431737E+02  1.10195051E+03  1.82923847E+03  1.37787728E+02  2.30684859E+02
  2.57122925E+01  1.14981426E+02  1.92900608E+02  2.08590256E+01  1.67944276E+01
%FLAG BONDS_INC_HYDROGEN                                                        
%FORMAT(10I8)                                                                   
       0      18       2       0      21       2       0      24       2       3
      27       2       3      30       2       6      33       2       6      36
       2       9      39       2       9      42       2      12      45       4
      12      48       4
%FLAG BONDS_WITHOUT_HYDROGEN                                                    
%FORMAT(10I8)                                                                   
       0       3       1       3       6       1       6       9       1       9
      12       1      12      15       3
%FLAG ANGLES_INC_HYDROGEN                                                       
%FORMAT(10I8)                                                                   
       0       3      27       2       0       3      30       2       3       0
      18       2       3       0      21       2       3       0      24       2
       3       6      33       2       3       6      36       2       6       3
      27       2       6       3      30       2       6       9      39       2
       6       9      42       2       9       6      33       2       9       6
      36       2       9      12      45       4       9      12      48       4
      12       9      39       2      12       9      42       2      15      12
      45       5      15      12      48       5      18       0      21       6
      18       0      24       6      21       0      24       6      27       3
      30       6      33       6      36       6      39       9      42       6
      45      12      48       7
%FLAG ANGLES_WITHOUT_HYDROGEN                                                   
%FORMAT(10I8)                                                                   
       0       3       6       1       3       6       9       1       6       9
      12       1       9      12      15       3
%FLAG DIHEDRALS_INC_HYDROGEN                                                    
%FORMAT(10I8)                                                                   
       0       3       6      33       2       0       3       6      36       2
       3       6       9      39       2       3       6       9      42       2
      18       0       3       6       2      21       0       3       6       2
      24       0       3       6       2       6       9      12      45       3
       6       9      12      48       3       9       6       3      27       2
       9       6       3      30       2      12       9       6      33       2
      12       9       6      36       2      15      12       9      39       4
      15      12       9      42       4      18       0       3      27       5
      18       0       3      30       5      21       0       3      27       5
      21       0       3      30       5      24       0       3      27       5
      24       0       3      30       5      27       3       6      33       5
      27       3       6      36       5      30       3       6      33       5
      30       3       6      36       5      33       6       9      39       5
      33       6       9      42       5      36       6       9      39       5
      36       6       9      42       5      39       9      12      45       3
      39       9      12      48       3      42       9      12      45       3
      42       9      12      48       3
%FLAG DIHEDRALS_WITHOUT_HYDROGEN                                                
%FORMAT(10I8)                                                                   
       0       3       6       9       1       3       6       9      12       1
       6       9      12      15       3
%FLAG EXCLUDED_ATOMS_LIST                                                       
%FORMAT(10I8)                                                                   
       2       3       4       7       8       9      10      11      12      13
       3       4       5       7       8       9      10      11      12      13
      14      15       4       5       6       7       8       9      10      11
      12      13      14      15      16      17       5       6      10      11
      12      13      14      15      16      17       6      12      13      14
      15      16      17      14      15      16      17       8       9      10
      11       9      10      11      10      11      11      12      13      12
      13      13      14      15      14      15      15      16      17      16
      17      17       0
%FLAG HBOND_ACOEF                                                               
%FORMAT(5E16.8)                                                                 

%FLAG HBOND_BCOEF                                                               
%FORMAT(5E16.8)                                                                 

%FLAG HBCUT                                                                     
%FORMAT(5E16.8)                                                                 

%FLAG AMBER_ATOM_TYPE                                                           
%FORMAT(20a4)                                                                   
c3  c3  c3  c3  c3  cl  hc  hc  hc  hc  hc  hc  hc  hc  hc  h1  h1  
%FLAG TREE_CHAIN_CLASSIFICATION                                                 
%FORMAT(20a4)                                                                   
BLA BLA BLA BLA BLA BLA BLA BLA BLA BLA BLA BLA BLA BLA BLA BLA BLA 
%FLAG JOIN_ARRAY                                                                
%FORMAT(10I8)                                                                   
       0       0       0       0       0       0       0       0       0       0
       0       0       0       0       0       0       0
%FLAG IROTAT                                                                    
%FORMAT(10I8)                                                                   
       0       0       0       0       0       0       0       0       0       0
       0       0       0       0       0       0       0
%FLAG RADIUS_SET                                                                
%FORMAT(1a80)                                                                   
modified Bondi radii (mbondi)                                                   
%FLAG RADII                                                                     
%FORMAT(5E16.8)                                                                 
  1.70000000E+00  1.70000000E+00  1.70000000E+00  1.70000000E+00  1.70000000E+00
  1.70000000E+00  1.30000000E+00  1.30000000E+00  1.30000000E+00  1.30000000E+00
  1.30000000E+00  1.30000000E+00  1.30000000E+00  1.30000000E+00  1.30000000E+00
  1.30000000E+00  1.30000000E+00
%FLAG SCREEN                                                                    
%FORMAT(5E16.8)                                                                 
  7.20000000E-01  7.20000000E-01  7.20000000E-01  7.20000000E-01  7.20000000E-01
  8.00000000E-01  8.50000000E-01  8.50000000E-01  8.50000000E-01  8.50000000E-01
  8.50000000E-01  8.50000000E-01  8.50000000E-01  8.50000000E-01  8.50000000E-01
  8.50000000E-01  8.50000000E-01
%FLAG IPOL                                                                      
%FORMAT(1I8)                                                                    
       0
