mobley_1792062_GMX.gro created by acpype (v: 2023.10.27) on Thu May 21 00:01:58 2026
 8
    1  MOL   C1    1   0.062  -0.073   0.053
    1  MOL   C2    2   0.111  -0.183  -0.038
    1  MOL  BR1    3  -0.050  -0.150   0.192
    1  MOL  BR2    4   0.219  -0.105  -0.181
    1  MOL   H1    5   0.144  -0.021   0.103
    1  MOL   H2    6   0.000  -0.000   0.000
    1  MOL   H3    7   0.030  -0.237  -0.086
    1  MOL   H4    8   0.176  -0.254   0.014
    5.36800     5.08600     7.46600
