mobley_1881249_GMX.gro created by acpype (v: 2023.10.27) on Thu May 21 00:04:27 2026
 9949
    1MOL     C1    1   2.269   2.419   2.439
    1MOL     C2    2   2.277   2.406   2.589
    1MOL     C3    3   2.431   2.246   2.131
    1MOL     C4    4   2.354   2.321   2.359
    1MOL     C5    5   2.343   2.343   2.208
    1MOL     O1    6   2.198   2.504   2.386
    1MOL     H1    7   2.380   2.423   2.622
    1MOL     H2    8   2.243   2.307   2.619
    1MOL     H3    9   2.212   2.481   2.635
    1MOL     H4   10   2.402   2.143   2.151
    1MOL     H5   11   2.536   2.258   2.159
    1MOL     H6   12   2.421   2.264   2.024
    1MOL     H7   13   2.321   2.220   2.384
    1MOL     H8   14   2.458   2.333   2.391
    1MOL     H9   15   2.239   2.331   2.176
    1MOL    H10   16   2.372   2.446   2.184
    2SOL     OW   17   0.230   0.628   0.113
    2SOL    HW1   18   0.137   0.626   0.150
    2SOL    HW2   19   0.231   0.589   0.021
    3SOL     OW   20   0.225   0.275   0.996
    3SOL    HW1   21   0.260   0.258   1.088
    3SOL    HW2   22   0.137   0.230   0.984
    4SOL     OW   23   0.019   0.368   0.647
    4SOL    HW1   24  -0.063   0.411   0.686
    4SOL    HW2   25  -0.009   0.295   0.584
    5SOL     OW   26   0.569   1.275   1.165
    5SOL    HW1   27   0.476   1.268   1.128
    5SOL    HW2   28   0.580   1.364   1.209
    6SOL     OW   29   1.555   1.511   0.703
    6SOL    HW1   30   1.498   1.495   0.784
    6SOL    HW2   31   1.496   1.521   0.623
    7SOL     OW   32   1.135   0.703   0.717
    7SOL    HW1   33   1.192   0.781   0.692
    7SOL    HW2   34   1.075   0.729   0.793
    8SOL     OW   35   1.755   0.607   0.231
    8SOL    HW1   36   1.743   0.594   0.132
    8SOL    HW2   37   1.725   0.526   0.280
    9SOL     OW   38   0.768   1.144   1.023
    9SOL    HW1   39   0.690   1.161   1.083
    9SOL    HW2   40   0.802   1.231   0.987
   10SOL     OW   41   0.850   0.798   1.823
   10SOL    HW1   42   0.846   0.874   1.888
   10SOL    HW2   43   0.872   0.834   1.732
   11SOL     OW   44   0.685   1.012   0.665
   11SOL    HW1   45   0.754   0.996   0.735
   11SOL    HW2   46   0.612   1.069   0.703
   12SOL     OW   47   0.686   1.161   1.803
   12SOL    HW1   48   0.746   1.240   1.817
   12SOL    HW2   49   0.600   1.192   1.762
   13SOL     OW   50   0.335   1.435   1.061
   13SOL    HW1   51   0.257   1.404   1.008
   13SOL    HW2   52   0.393   1.493   1.004
   14SOL     OW   53   1.460   1.505   1.339
   14SOL    HW1   54   1.484   1.599   1.365
   14SOL    HW2   55   1.444   1.451   1.421
   15SOL     OW   56   0.438   0.392   1.499
   15SOL    HW1   57   0.520   0.336   1.508
   15SOL    HW2   58   0.357   0.334   1.503
   16SOL     OW   59   1.603   0.447   0.737
   16SOL    HW1   60   1.529   0.493   0.687
   16SOL    HW2   61   1.654   0.515   0.790
   17SOL     OW   62   0.231   1.713   0.483
   17SOL    HW1   63   0.265   1.790   0.537
   17SOL    HW2   64   0.275   1.713   0.393
   18SOL     OW   65   1.127   1.341   1.690
   18SOL    HW1   66   1.174   1.341   1.778
   18SOL    HW2   67   1.079   1.254   1.679
   19SOL     OW   68   0.230   1.434   0.538
   19SOL    HW1   69   0.204   1.530   0.538
   19SOL    HW2   70   0.159   1.380   0.583
   20SOL     OW   71   0.240   1.091   0.886
   20SOL    HW1   72   0.254   1.007   0.938
   20SOL    HW2   73   0.185   1.155   0.941
   21SOL     OW   74   0.620   1.786   1.439
   21SOL    HW1   75   0.528   1.769   1.474
   21SOL    HW2   76   0.648   1.878   1.465
   22SOL     OW   77   0.606   0.964   0.123
   22SOL    HW1   78   0.613   1.048   0.069
   22SOL    HW2   79   0.652   0.977   0.211
   23SOL     OW   80   1.594   0.114   1.480
   23SOL    HW1   81   1.576   0.181   1.408
   23SOL    HW2   82   1.591   0.160   1.569
   24SOL     OW   83   0.122   0.643   0.563
   24SOL    HW1   84   0.077   0.555   0.580
   24SOL    HW2   85   0.121   0.697   0.647
   25SOL     OW   86   1.842   1.767   0.359
   25SOL    HW1   87   1.896   1.738   0.439
   25SOL    HW2   88   1.872   1.857   0.330
   26SOL     OW   89   0.027   1.596   0.117
   26SOL    HW1   90   0.008   1.500   0.138
   26SOL    HW2   91  -0.006   1.654   0.192
   27SOL     OW   92   1.689   0.922   0.612
   27SOL    HW1   93   1.784   0.893   0.620
   27SOL    HW2   94   1.681   0.987   0.537
   28SOL     OW   95   1.641   1.108   0.432
   28SOL    HW1   96   1.727   1.110   0.380
   28SOL    HW2   97   1.655   1.155   0.520
   29SOL     OW   98   0.113   0.737   1.597
   29SOL    HW1   99   0.201   0.724   1.642
   29SOL    HW2  100   0.100   0.834   1.575
   30SOL     OW  101   0.613   1.365   0.726
   30SOL    HW1  102   0.564   1.278   0.735
   30SOL    HW2  103   0.590   1.408   0.639
   31SOL     OW  104   1.293   1.228   1.423
   31SOL    HW1  105   1.330   1.155   1.365
   31SOL    HW2  106   1.345   1.233   1.508
   32SOL     OW  107   0.809   0.004   0.502
   32SOL    HW1  108   0.849   0.095   0.493
   32SOL    HW2  109   0.709   0.012   0.508
   33SOL     OW  110   0.197   0.976   1.264
   33SOL    HW1  111   0.286   0.931   1.250
   33SOL    HW2  112   0.124   0.911   1.245
   34SOL     OW  113   1.525   0.999   0.190
   34SOL    HW1  114   1.462   0.923   0.203
   34SOL    HW2  115   1.573   1.017   0.276
   35SOL     OW  116   1.187   1.792   1.616
   35SOL    HW1  117   1.211   1.852   1.540
   35SOL    HW2  118   1.194   1.697   1.586
   36SOL     OW  119   0.317   0.251   1.801
   36SOL    HW1  120   0.388   0.322   1.807
   36SOL    HW2  121   0.229   0.290   1.829
   37SOL     OW  122   1.466   1.417   0.953
   37SOL    HW1  123   1.407   1.423   1.033
   37SOL    HW2  124   1.451   1.329   0.907
   38SOL     OW  125   1.667   1.714   0.572
   38SOL    HW1  126   1.626   1.691   0.484
   38SOL    HW2  127   1.649   1.640   0.637
   39SOL     OW  128   0.598   0.729   0.270
   39SOL    HW1  129   0.622   0.798   0.202
   39SOL    HW2  130   0.520   0.762   0.324
   40SOL     OW  131   1.281   0.345   0.944
   40SOL    HW1  132   1.195   0.295   0.931
   40SOL    HW2  133   1.343   0.291   1.000
   41SOL     OW  134   1.576   1.662   0.307
   41SOL    HW1  135   1.665   1.708   0.310
   41SOL    HW2  136   1.555   1.638   0.212
   42SOL     OW  137   0.807   0.605   1.465
   42SOL    HW1  138   0.760   0.602   1.554
   42SOL    HW2  139   0.756   0.550   1.399
   43SOL     OW  140   1.394   0.469   1.674
   43SOL    HW1  141   1.374   0.512   1.762
   43SOL    HW2  142   1.472   0.407   1.683
   44SOL     OW  143   0.973   0.890   1.572
   44SOL    HW1  144   1.019   0.806   1.543
   44SOL    HW2  145   0.917   0.924   1.497
   45SOL     OW  146   0.991   0.410   1.242
   45SOL    HW1  147   0.914   0.444   1.296
   45SOL    HW2  148   0.957   0.359   1.163
   46SOL     OW  149   1.041   0.701   0.429
   46SOL    HW1  150   1.067   0.697   0.525
   46SOL    HW2  151   0.956   0.650   0.415
   47SOL     OW  152   0.076   0.811   0.789
   47SOL    HW1  153   0.175   0.799   0.798
   47SOL    HW2  154   0.052   0.906   0.810
   48SOL     OW  155   0.130   1.821   1.571
   48SOL    HW1  156   0.120   1.806   1.670
   48SOL    HW2  157   0.044   1.857   1.535
   49SOL     OW  158   0.865   0.348   0.195
   49SOL    HW1  159   0.924   0.411   0.146
   49SOL    HW2  160   0.884   0.254   0.166
   50SOL     OW  161   1.719   0.585   1.831
   50SOL    HW1  162   1.693   0.674   1.795
   50SOL    HW2  163   1.717   0.517   1.758
   51SOL     OW  164   1.362   1.144   0.545
   51SOL    HW1  165   1.445   1.115   0.497
   51SOL    HW2  166   1.313   1.211   0.489
   52SOL     OW  167   0.550   0.196   0.885
   52SOL    HW1  168   0.545   0.191   0.985
   52SOL    HW2  169   0.552   0.292   0.856
   53SOL     OW  170   1.008   1.456   0.477
   53SOL    HW1  171   0.962   1.528   0.425
   53SOL    HW2  172   1.004   1.476   0.575
   54SOL     OW  173   0.351   1.801   0.853
   54SOL    HW1  174   0.401   1.715   0.859
   54SOL    HW2  175   0.416   1.878   0.850
   55SOL     OW  176   1.795   1.066   0.873
   55SOL    HW1  177   1.733   1.051   0.797
   55SOL    HW2  178   1.743   1.077   0.958
   56SOL     OW  179   1.227   1.550   1.506
   56SOL    HW1  180   1.233   1.473   1.570
   56SOL    HW2  181   1.175   1.524   1.426
   57SOL     OW  182   0.321   0.943   0.242
   57SOL    HW1  183   0.403   0.982   0.200
   57SOL    HW2  184   0.294   0.861   0.193
   58SOL     OW  185   1.458   0.735   0.728
   58SOL    HW1  186   1.453   0.670   0.803
   58SOL    HW2  187   1.538   0.794   0.741
   59SOL     OW  188   0.461   1.266   1.727
   59SOL    HW1  189   0.411   1.267   1.641
   59SOL    HW2  190   0.398   1.248   1.803
   60SOL     OW  191   1.111   1.776   0.237
   60SOL    HW1  192   1.051   1.714   0.287
   60SOL    HW2  193   1.142   1.732   0.152
   61SOL     OW  194   0.202   0.285   1.498
   61SOL    HW1  195   0.122   0.345   1.485
   61SOL    HW2  196   0.192   0.236   1.584
   62SOL     OW  197   1.632   1.377   0.081
   62SOL    HW1  198   1.600   1.471   0.071
   62SOL    HW2  199   1.556   1.314   0.069
   63SOL     OW  200   0.464   1.743   0.323
   63SOL    HW1  201   0.497   1.782   0.409
   63SOL    HW2  202   0.540   1.736   0.258
   64SOL     OW  203   1.400   0.107   0.426
   64SOL    HW1  204   1.376   0.070   0.336
   64SOL    HW2  205   1.499   0.123   0.430
   65SOL     OW  206   0.249   1.785   1.241
   65SOL    HW1  207   0.306   1.720   1.291
   65SOL    HW2  208   0.233   1.752   1.148
   66SOL     OW  209   0.940   1.698   0.904
   66SOL    HW1  210   1.020   1.641   0.925
   66SOL    HW2  211   0.891   1.658   0.827
   67SOL     OW  212   0.382   0.700   0.480
   67SOL    HW1  213   0.427   0.610   0.477
   67SOL    HW2  214   0.288   0.689   0.513
   68SOL     OW  215   1.547   0.222   1.729
   68SOL    HW1  216   1.542   0.259   1.821
   68SOL    HW2  217   1.475   0.153   1.717
   69SOL     OW  218   0.614   0.122   0.117
   69SOL    HW1  219   0.712   0.100   0.124
   69SOL    HW2  220   0.583   0.105   0.024
   70SOL     OW  221   0.781   0.264   1.749
   70SOL    HW1  222   0.848   0.203   1.792
   70SOL    HW2  223   0.708   0.283   1.814
   71SOL     OW  224   0.888   1.514   1.195
   71SOL    HW1  225   0.865   1.489   1.101
   71SOL    HW2  226   0.949   1.445   1.234
   72SOL     OW  227   1.351   0.590   1.433
   72SOL    HW1  228   1.379   0.547   1.518
   72SOL    HW2  229   1.376   0.686   1.434
   73SOL     OW  230   0.803   1.402   0.924
   73SOL    HW1  231   0.893   1.416   0.882
   73SOL    HW2  232   0.732   1.404   0.853
   74SOL     OW  233   0.922   0.503   0.899
   74SOL    HW1  234   0.897   0.494   0.803
   74SOL    HW2  235   0.970   0.421   0.930
   75SOL     OW  236   0.539   0.064   0.512
   75SOL    HW1  237   0.458   0.065   0.570
   75SOL    HW2  238   0.542   0.147   0.457
   76SOL     OW  239   1.434   1.188   0.041
   76SOL    HW1  240   1.466   1.112   0.098
   76SOL    HW2  241   1.342   1.215   0.071
   77SOL     OW  242   0.297   0.035   0.171
   77SOL    HW1  243   0.346   0.119   0.150
   77SOL    HW2  244   0.359  -0.030   0.216
   78SOL     OW  245   0.935   0.236   0.480
   78SOL    HW1  246   0.887   0.277   0.402
   78SOL    HW2  247   1.034   0.234   0.461
   79SOL     OW  248   1.076   0.683   1.464
   79SOL    HW1  249   0.996   0.622   1.467
   79SOL    HW2  250   1.157   0.630   1.440
   80SOL     OW  251   1.227   1.570   0.793
   80SOL    HW1  252   1.248   1.644   0.728
   80SOL    HW2  253   1.295   1.570   0.866
   81SOL     OW  254   0.459   1.152   0.741
   81SOL    HW1  255   0.388   1.125   0.806
   81SOL    HW2  256   0.433   1.124   0.648
   82SOL     OW  257   1.271   1.797   0.591
   82SOL    HW1  258   1.315   1.861   0.527
   82SOL    HW2  259   1.221   1.849   0.661
   83SOL     OW  260   1.032   0.549   0.016
   83SOL    HW1  261   0.991   0.631  -0.023
   83SOL    HW2  262   1.096   0.575   0.089
   84SOL     OW  263   0.078   0.556   1.386
   84SOL    HW1  264   0.170   0.555   1.345
   84SOL    HW2  265   0.072   0.630   1.453
   85SOL     OW  266   0.561   0.222   1.147
   85SOL    HW1  267   0.599   0.138   1.184
   85SOL    HW2  268   0.473   0.241   1.191
   86SOL     OW  269   0.866   0.454   0.642
   86SOL    HW1  270   0.834   0.526   0.580
   86SOL    HW2  271   0.890   0.373   0.589
   87SOL     OW  272   1.017   0.039   0.753
   87SOL    HW1  273   0.945   0.044   0.684
   87SOL    HW2  274   0.993  -0.030   0.822
   88SOL     OW  275   1.429   1.173   0.867
   88SOL    HW1  276   1.374   1.089   0.860
   88SOL    HW2  277   1.455   1.202   0.775
   89SOL     OW  278   1.466   0.590   0.992
   89SOL    HW1  279   1.436   0.495   0.999
   89SOL    HW2  280   1.539   0.606   1.058
   90SOL     OW  281   1.857   0.833   0.377
   90SOL    HW1  282   1.899   0.769   0.441
   90SOL    HW2  283   1.819   0.782   0.299
   91SOL     OW  284   0.488   1.385   0.174
   91SOL    HW1  285   0.401   1.370   0.221
   91SOL    HW2  286   0.471   1.411   0.079
   92SOL     OW  287   1.664   1.280   0.657
   92SOL    HW1  288   1.763   1.288   0.671
   92SOL    HW2  289   1.619   1.364   0.688
   93SOL     OW  290   1.390   0.575   0.078
   93SOL    HW1  291   1.336   0.554   0.159
   93SOL    HW2  292   1.481   0.534   0.087
   94SOL     OW  293   0.527   0.256   0.328
   94SOL    HW1  294   0.554   0.197   0.253
   94SOL    HW2  295   0.527   0.351   0.297
   95SOL     OW  296   1.754   1.223   1.588
   95SOL    HW1  297   1.845   1.184   1.575
   95SOL    HW2  298   1.762   1.319   1.612
   96SOL     OW  299   1.064   1.347   1.340
   96SOL    HW1  300   0.984   1.324   1.395
   96SOL    HW2  301   1.147   1.321   1.389
   97SOL     OW  302   1.592   1.629   1.625
   97SOL    HW1  303   1.619   1.663   1.535
   97SOL    HW2  304   1.671   1.591   1.671
   98SOL     OW  305   1.111   1.195   1.100
   98SOL    HW1  306   1.071   1.239   1.181
   98SOL    HW2  307   1.070   1.232   1.017
   99SOL     OW  308   1.638   1.099   1.079
   99SOL    HW1  309   1.643   1.180   1.138
   99SOL    HW2  310   1.552   1.101   1.028
  100SOL     OW  311   0.915   0.089   1.402
  100SOL    HW1  312   0.940   0.069   1.307
  100SOL    HW2  313   0.987   0.145   1.444
  101SOL     OW  314   0.980   1.116   1.719
  101SOL    HW1  315   0.881   1.122   1.729
  101SOL    HW2  316   1.003   1.036   1.663
  102SOL     OW  317   0.705   1.050   0.368
  102SOL    HW1  318   0.691   1.057   0.467
  102SOL    HW2  319   0.789   0.999   0.350
  103SOL     OW  320   0.410   0.813   1.251
  103SOL    HW1  321   0.496   0.825   1.301
  103SOL    HW2  322   0.368   0.726   1.278
  104SOL     OW  323   1.274   0.386   1.262
  104SOL    HW1  324   1.295   0.460   1.326
  104SOL    HW2  325   1.185   0.403   1.219
  105SOL     OW  326   0.064   1.564   1.331
  105SOL    HW1  327   0.018   1.646   1.297
  105SOL    HW2  328   0.162   1.583   1.340
  106SOL     OW  329   0.367   1.100   0.501
  106SOL    HW1  330   0.360   1.183   0.445
  106SOL    HW2  331   0.371   1.020   0.441
  107SOL     OW  332   0.566   0.537   0.865
  107SOL    HW1  333   0.578   0.603   0.791
  107SOL    HW2  334   0.612   0.571   0.948
  108SOL     OW  335   1.252   1.348   0.388
  108SOL    HW1  336   1.302   1.425   0.428
  108SOL    HW2  337   1.157   1.350   0.420
  109SOL     OW  338   1.272   1.445   1.142
  109SOL    HW1  339   1.319   1.458   1.229
  109SOL    HW2  340   1.206   1.371   1.151
  110SOL     OW  341   1.582   0.639   0.472
  110SOL    HW1  342   1.551   0.700   0.545
  110SOL    HW2  343   1.632   0.691   0.403
  111SOL     OW  344   0.354   1.510   1.329
  111SOL    HW1  345   0.333   1.466   1.242
  111SOL    HW2  346   0.451   1.536   1.332
  112SOL     OW  347   0.402   0.751   1.598
  112SOL    HW1  348   0.470   0.806   1.551
  112SOL    HW2  349   0.442   0.663   1.625
  113SOL     OW  350   1.587   0.779   1.670
  113SOL    HW1  351   1.495   0.817   1.665
  113SOL    HW2  352   1.647   0.826   1.605
  114SOL     OW  353   1.013   0.105   1.770
  114SOL    HW1  354   1.019   0.190   1.718
  114SOL    HW2  355   1.045   0.029   1.713
  115SOL     OW  356   0.504   0.050   1.740
  115SOL    HW1  357   0.462  -0.007   1.670
  115SOL    HW2  358   0.438   0.119   1.772
  116SOL     OW  359   0.573   0.870   1.029
  116SOL    HW1  360   0.617   0.959   1.020
  116SOL    HW2  361   0.510   0.870   1.106
  117SOL     OW  362   1.360   0.862   1.045
  117SOL    HW1  363   1.285   0.862   0.979
  117SOL    HW2  364   1.397   0.770   1.054
  118SOL     OW  365   1.209   0.525   0.275
  118SOL    HW1  366   1.222   0.441   0.329
  118SOL    HW2  367   1.180   0.599   0.335
  119SOL     OW  368   0.307   0.213   1.231
  119SOL    HW1  369   0.284   0.250   1.321
  119SOL    HW2  370   0.277   0.118   1.225
  120SOL     OW  371   0.037   1.310   1.282
  120SOL    HW1  372   0.090   1.261   1.350
  120SOL    HW2  373   0.059   1.408   1.287
  121SOL     OW  374   0.732   0.634   1.064
  121SOL    HW1  375   0.791   0.608   0.988
  121SOL    HW2  376   0.704   0.730   1.053
  122SOL     OW  377   1.728   0.935   1.854
  122SOL    HW1  378   1.682   0.928   1.765
  122SOL    HW2  379   1.666   0.979   1.920
  123SOL     OW  380   0.307   0.063   0.618
  123SOL    HW1  381   0.296   0.157   0.651
  123SOL    HW2  382   0.302   0.000   0.695
  124SOL     OW  383   1.622   0.367   0.374
  124SOL    HW1  384   1.624   0.291   0.438
  124SOL    HW2  385   1.574   0.444   0.414
  125SOL     OW  386   1.023   0.766   0.966
  125SOL    HW1  387   1.038   0.787   1.062
  125SOL    HW2  388   0.993   0.671   0.957
  126SOL     OW  389   0.980   1.573   1.700
  126SOL    HW1  390   0.960   1.617   1.612
  126SOL    HW2  391   1.019   1.482   1.684
  127SOL     OW  392   1.859   1.518   1.605
  127SOL    HW1  393   1.873   1.545   1.510
  127SOL    HW2  394   1.942   1.540   1.658
  128SOL     OW  395   0.350   0.898   1.804
  128SOL    HW1  396   0.426   0.942   1.852
  128SOL    HW2  397   0.385   0.851   1.722
  129SOL     OW  398   1.540   0.274   0.125
  129SOL    HW1  399   1.479   0.199   0.148
  129SOL    HW2  400   1.562   0.326   0.208
  130SOL     OW  401   1.303   0.838   0.042
  130SOL    HW1  402   1.337   0.745   0.057
  130SOL    HW2  403   1.321   0.865  -0.053
  131SOL     OW  404   1.068   1.333   0.849
  131SOL    HW1  405   1.075   1.249   0.794
  131SOL    HW2  406   1.130   1.402   0.813
  132SOL     OW  407   0.319   0.810   0.949
  132SOL    HW1  408   0.412   0.846   0.954
  132SOL    HW2  409   0.313   0.725   1.001
  133SOL     OW  410   0.339   0.509   1.006
  133SOL    HW1  411   0.287   0.426   0.989
  133SOL    HW2  412   0.416   0.514   0.942
  134SOL     OW  413   1.138   0.380   1.678
  134SOL    HW1  414   1.093   0.443   1.742
  134SOL    HW2  415   1.231   0.411   1.661
  135SOL     OW  416   1.160   0.207   1.477
  135SOL    HW1  417   1.160   0.271   1.554
  135SOL    HW2  418   1.188   0.255   1.394
  136SOL     OW  419   0.008   1.326   0.200
  136SOL    HW1  420  -0.085   1.347   0.169
  136SOL    HW2  421   0.018   1.227   0.213
  137SOL     OW  422   0.088   1.801   0.927
  137SOL    HW1  423   0.046   1.715   0.900
  137SOL    HW2  424   0.182   1.804   0.893
  138SOL     OW  425   0.504   1.568   0.910
  138SOL    HW1  426   0.570   1.642   0.919
  138SOL    HW2  427   0.548   1.489   0.868
  139SOL     OW  428   1.002   0.796   1.238
  139SOL    HW1  429   1.043   0.764   1.324
  139SOL    HW2  430   0.906   0.769   1.235
  140SOL     OW  431   0.040   0.544   1.114
  140SOL    HW1  432   0.125   0.511   1.073
  140SOL    HW2  433   0.053   0.559   1.212
  141SOL     OW  434   0.189   0.520   1.722
  141SOL    HW1  435   0.248   0.480   1.652
  141SOL    HW2  436   0.131   0.591   1.681
  142SOL     OW  437   1.369   0.950   1.660
  142SOL    HW1  438   1.408   1.039   1.680
  142SOL    HW2  439   1.379   0.930   1.563
  143SOL     OW  440   0.815   0.572   0.325
  143SOL    HW1  441   0.822   0.483   0.279
  143SOL    HW2  442   0.721   0.606   0.317
  144SOL     OW  443   1.657   0.604   1.206
  144SOL    HW1  444   1.619   0.535   1.268
  144SOL    HW2  445   1.739   0.568   1.162
  145SOL     OW  446   0.252   1.564   1.744
  145SOL    HW1  447   0.222   1.621   1.820
  145SOL    HW2  448   0.245   1.467   1.770
  146SOL     OW  449   0.671   0.464   1.269
  146SOL    HW1  450   0.637   0.375   1.239
  146SOL    HW2  451   0.697   0.518   1.189
  147SOL     OW  452   0.930   1.678   1.465
  147SOL    HW1  453   0.906   1.660   1.370
  147SOL    HW2  454   0.960   1.772   1.475
  148SOL     OW  455   0.473   0.500   0.191
  148SOL    HW1  456   0.534   0.580   0.195
  148SOL    HW2  457   0.378   0.531   0.198
  149SOL     OW  458   0.159   1.137   1.466
  149SOL    HW1  459   0.181   1.076   1.542
  149SOL    HW2  460   0.169   1.088   1.380
  150SOL     OW  461   1.347   1.059   1.234
  150SOL    HW1  462   1.371   0.996   1.160
  150SOL    HW2  463   1.257   1.099   1.216
  151SOL     OW  464   1.302   0.855   0.309
  151SOL    HW1  465   1.216   0.824   0.351
  151SOL    HW2  466   1.298   0.841   0.210
  152SOL     OW  467   1.759   1.747   1.154
  152SOL    HW1  468   1.820   1.777   1.081
  152SOL    HW2  469   1.721   1.658   1.132
  153SOL     OW  470   1.252   1.731   1.128
  153SOL    HW1  471   1.336   1.736   1.074
  153SOL    HW2  472   1.229   1.635   1.146
  154SOL     OW  473   0.083   1.258   1.022
  154SOL    HW1  474   0.078   1.257   1.122
  154SOL    HW2  475   0.000   1.217   0.984
  155SOL     OW  476   0.688   1.662   1.716
  155SOL    HW1  477   0.632   1.743   1.725
  155SOL    HW2  478   0.740   1.666   1.630
  156SOL     OW  479   0.903   0.086   0.133
  156SOL    HW1  480   0.954   0.087   0.047
  156SOL    HW2  481   0.959   0.044   0.204
  157SOL     OW  482   1.726   0.135   0.523
  157SOL    HW1  483   1.799   0.118   0.456
  157SOL    HW2  484   1.695   0.048   0.561
  158SOL     OW  485   1.388   1.573   0.477
  158SOL    HW1  486   1.455   1.585   0.403
  158SOL    HW2  487   1.348   1.662   0.500
  159SOL     OW  488   0.130   1.794   1.851
  159SOL    HW1  489   0.089   1.720   1.904
  159SOL    HW2  490   0.194   1.845   1.909
  160SOL     OW  491   1.280   0.927   0.672
  160SOL    HW1  492   1.340   0.846   0.674
  160SOL    HW2  493   1.320   0.996   0.612
  161SOL     OW  494   0.830   1.273   1.422
  161SOL    HW1  495   0.825   1.306   1.517
  161SOL    HW2  496   0.744   1.292   1.376
  162SOL     OW  497   0.672   1.616   0.154
  162SOL    HW1  498   0.681   1.626   0.055
  162SOL    HW2  499   0.632   1.527   0.175
  163SOL     OW  500   1.650   1.720   1.394
  163SOL    HW1  501   1.703   1.730   1.310
  163SOL    HW2  502   1.623   1.810   1.428
  164SOL     OW  503   1.841   0.175   0.963
  164SOL    HW1  504   1.880   0.090   0.927
  164SOL    HW2  505   1.743   0.177   0.944
  165SOL     OW  506   0.263   0.326   0.720
  165SOL    HW1  507   0.184   0.377   0.686
  165SOL    HW2  508   0.254   0.311   0.818
  166SOL     OW  509   1.194   1.612   0.031
  166SOL    HW1  510   1.200   1.519   0.068
  166SOL    HW2  511   1.135   1.612  -0.049
  167SOL     OW  512   0.822   1.002   1.372
  167SOL    HW1  513   0.862   1.001   1.280
  167SOL    HW2  514   0.832   1.094   1.412
  168SOL     OW  515   0.916   0.910   0.291
  168SOL    HW1  516   0.979   0.948   0.223
  168SOL    HW2  517   0.956   0.827   0.330
  169SOL     OW  518   1.504   1.607   0.044
  169SOL    HW1  519   1.412   1.644   0.051
  169SOL    HW2  520   1.542   1.627  -0.046
  170SOL     OW  521   0.372   1.288   1.490
  170SOL    HW1  522   0.359   1.381   1.456
  170SOL    HW2  523   0.288   1.236   1.477
  171SOL     OW  524   1.614   1.292   1.289
  171SOL    HW1  525   1.674   1.295   1.369
  171SOL    HW2  526   1.539   1.356   1.302
  172SOL     OW  527   1.039   1.098   0.696
  172SOL    HW1  528   0.969   1.051   0.750
  172SOL    HW2  529   1.098   1.030   0.653
  173SOL     OW  530   1.014   0.236   0.971
  173SOL    HW1  531   1.006   0.200   0.878
  173SOL    HW2  532   1.012   0.160   1.036
  174SOL     OW  533   0.590   1.487   0.491
  174SOL    HW1  534   0.632   1.429   0.421
  174SOL    HW2  535   0.546   1.566   0.447
  175SOL     OW  536   1.709   0.385   1.381
  175SOL    HW1  537   1.782   0.454   1.385
  175SOL    HW2  538   1.737   0.310   1.322
  176SOL     OW  539   0.255   1.348   0.290
  176SOL    HW1  540   0.159   1.349   0.263
  176SOL    HW2  541   0.267   1.401   0.374
  177SOL     OW  542   0.105   1.013   1.726
  177SOL    HW1  543   0.028   0.980   1.780
  177SOL    HW2  544   0.190   0.983   1.768
  178SOL     OW  545   0.672   0.203   1.489
  178SOL    HW1  546   0.762   0.187   1.449
  178SOL    HW2  547   0.680   0.208   1.588
  179SOL     OW  548   0.075   0.345   0.033
  179SOL    HW1  549  -0.017   0.317   0.004
  179SOL    HW2  550   0.106   0.422  -0.023
  180SOL     OW  551   1.440   0.856   1.398
  180SOL    HW1  552   1.383   0.908   1.335
  180SOL    HW2  553   1.536   0.868   1.374
  181SOL     OW  554   0.072   0.166   0.318
  181SOL    HW1  555   0.055   0.249   0.264
  181SOL    HW2  556   0.162   0.129   0.296
  182SOL     OW  557   1.183   1.335   0.119
  182SOL    HW1  558   1.084   1.324   0.121
  182SOL    HW2  559   1.217   1.350   0.212
  183SOL     OW  560   0.613   0.842   1.431
  183SOL    HW1  561   0.669   0.923   1.414
  183SOL    HW2  562   0.672   0.762   1.434
  184SOL     OW  563   1.493   1.767   0.959
  184SOL    HW1  564   1.526   1.831   0.890
  184SOL    HW2  565   1.559   1.761   1.034
  185SOL     OW  566   0.716   0.565   1.708
  185SOL    HW1  567   0.735   0.630   1.782
  185SOL    HW2  568   0.776   0.485   1.717
  186SOL     OW  569   1.450   1.220   1.633
  186SOL    HW1  570   1.441   1.210   1.732
  186SOL    HW2  571   1.546   1.213   1.607
  187SOL     OW  572   0.390   1.741   1.560
  187SOL    HW1  573   0.299   1.782   1.558
  187SOL    HW2  574   0.383   1.647   1.592
  188SOL     OW  575   1.674   0.883   1.254
  188SOL    HW1  576   1.647   0.794   1.217
  188SOL    HW2  577   1.675   0.951   1.181
  189SOL     OW  578   1.225   0.325   0.449
  189SOL    HW1  579   1.290   0.251   0.438
  189SOL    HW2  580   1.245   0.375   0.533
  190SOL     OW  581   0.594   0.745   0.652
  190SOL    HW1  582   0.644   0.830   0.633
  190SOL    HW2  583   0.506   0.747   0.604
  191SOL     OW  584   1.777   0.342   1.642
  191SOL    HW1  585   1.760   0.373   1.548
  191SOL    HW2  586   1.693   0.305   1.680
  192SOL     OW  587   1.730   0.934   1.517
  192SOL    HW1  588   1.768   1.025   1.532
  192SOL    HW2  589   1.722   0.917   1.418
  193SOL     OW  590   0.859   1.374   0.016
  193SOL    HW1  591   0.813   1.389   0.104
  193SOL    HW2  592   0.903   1.459  -0.014
  194SOL     OW  593   0.661   1.790   0.953
  194SOL    HW1  594   0.615   1.878   0.940
  194SOL    HW2  595   0.760   1.802   0.946
  195SOL     OW  596   0.859   0.956   0.861
  195SOL    HW1  597   0.913   0.887   0.909
  195SOL    HW2  598   0.827   1.025   0.927
  196SOL     OW  599   1.083   0.984   0.087
  196SOL    HW1  600   1.060   1.037   0.005
  196SOL    HW2  601   1.164   0.928   0.068
  197SOL     OW  602   1.861   1.569   0.851
  197SOL    HW1  603   1.790   1.557   0.781
  197SOL    HW2  604   1.862   1.490   0.911
  198SOL     OW  605   0.221   1.314   1.844
  198SOL    HW1  606   0.156   1.241   1.823
  198SOL    HW2  607   0.225   1.328   1.942
  199SOL     OW  608   0.079   1.240   0.653
  199SOL    HW1  609   0.078   1.193   0.741
  199SOL    HW2  610   0.161   1.212   0.602
  200SOL     OW  611   0.672   1.391   1.624
  200SOL    HW1  612   0.594   1.341   1.662
  200SOL    HW2  613   0.669   1.486   1.655
  201SOL     OW  614   1.824   0.192   1.227
  201SOL    HW1  615   1.820   0.102   1.271
  201SOL    HW2  616   1.827   0.181   1.128
  202SOL     OW  617   0.428   0.424   0.520
  202SOL    HW1  618   0.458   0.352   0.458
  202SOL    HW2  619   0.389   0.384   0.603
  203SOL     OW  620   1.705   1.487   1.104
  203SOL    HW1  621   1.612   1.462   1.077
  203SOL    HW2  622   1.731   1.437   1.186
  204SOL     OW  623   0.317   0.547   1.280
  204SOL    HW1  624   0.355   0.488   1.352
  204SOL    HW2  625   0.357   0.521   1.192
  205SOL     OW  626   0.812   1.586   0.687
  205SOL    HW1  627   0.844   1.596   0.593
  205SOL    HW2  628   0.733   1.524   0.689
  206SOL     OW  629   1.424   0.214   1.112
  206SOL    HW1  630   1.476   0.149   1.167
  206SOL    HW2  631   1.375   0.277   1.173
  207SOL     OW  632   1.001   0.034   1.154
  207SOL    HW1  633   0.938  -0.038   1.123
  207SOL    HW2  634   1.094  -0.002   1.154
  208SOL     OW  635   0.770   1.330   0.301
  208SOL    HW1  636   0.724   1.243   0.318
  208SOL    HW2  637   0.861   1.327   0.342
  209SOL     OW  638   0.618   1.567   1.284
  209SOL    HW1  639   0.613   1.649   1.341
  209SOL    HW2  640   0.707   1.564   1.239
  210SOL     OW  641   1.352   0.052   0.168
  210SOL    HW1  642   1.387   0.011   0.084
  210SOL    HW2  643   1.262   0.014   0.188
  211SOL     OW  644   1.300   0.453   0.691
  211SOL    HW1  645   1.241   0.533   0.695
  211SOL    HW2  646   1.315   0.418   0.784
  212SOL     OW  647   1.593   0.221   0.882
  212SOL    HW1  648   1.509   0.220   0.936
  212SOL    HW2  649   1.595   0.304   0.826
  213SOL     OW  650   0.039   1.077   0.300
  213SOL    HW1  651   0.138   1.066   0.291
  213SOL    HW2  652  -0.001   0.991   0.332
  214SOL     OW  653   0.875   1.646   0.337
  214SOL    HW1  654   0.798   1.611   0.283
  214SOL    HW2  655   0.843   1.717   0.399
  215SOL     OW  656   0.230   0.628   1.975
  215SOL    HW1  657   0.137   0.626   2.012
  215SOL    HW2  658   0.231   0.589   1.883
  216SOL     OW  659   0.225   0.275   2.858
  216SOL    HW1  660   0.260   0.258   2.950
  216SOL    HW2  661   0.137   0.230   2.846
  217SOL     OW  662   0.019   0.368   2.509
  217SOL    HW1  663  -0.063   0.411   2.548
  217SOL    HW2  664  -0.009   0.295   2.446
  218SOL     OW  665   0.569   1.275   3.027
  218SOL    HW1  666   0.476   1.268   2.990
  218SOL    HW2  667   0.580   1.364   3.071
  219SOL     OW  668   1.555   1.511   2.565
  219SOL    HW1  669   1.498   1.495   2.646
  219SOL    HW2  670   1.496   1.521   2.485
  220SOL     OW  671   1.135   0.703   2.579
  220SOL    HW1  672   1.192   0.781   2.554
  220SOL    HW2  673   1.075   0.729   2.655
  221SOL     OW  674   1.755   0.607   2.093
  221SOL    HW1  675   1.743   0.594   1.994
  221SOL    HW2  676   1.725   0.526   2.142
  222SOL     OW  677   0.768   1.144   2.885
  222SOL    HW1  678   0.690   1.161   2.945
  222SOL    HW2  679   0.802   1.231   2.849
  223SOL     OW  680   0.850   0.798   3.685
  223SOL    HW1  681   0.846   0.874   3.750
  223SOL    HW2  682   0.872   0.834   3.594
  224SOL     OW  683   0.685   1.012   2.527
  224SOL    HW1  684   0.754   0.996   2.597
  224SOL    HW2  685   0.612   1.069   2.565
  225SOL     OW  686   0.686   1.161   3.665
  225SOL    HW1  687   0.746   1.240   3.679
  225SOL    HW2  688   0.600   1.192   3.624
  226SOL     OW  689   0.335   1.435   2.923
  226SOL    HW1  690   0.257   1.404   2.870
  226SOL    HW2  691   0.393   1.493   2.866
  227SOL     OW  692   1.460   1.505   3.201
  227SOL    HW1  693   1.484   1.599   3.227
  227SOL    HW2  694   1.444   1.451   3.283
  228SOL     OW  695   0.438   0.392   3.361
  228SOL    HW1  696   0.520   0.336   3.370
  228SOL    HW2  697   0.357   0.334   3.365
  229SOL     OW  698   1.603   0.447   2.599
  229SOL    HW1  699   1.529   0.493   2.549
  229SOL    HW2  700   1.654   0.515   2.652
  230SOL     OW  701   0.231   1.713   2.345
  230SOL    HW1  702   0.265   1.790   2.399
  230SOL    HW2  703   0.275   1.713   2.255
  231SOL     OW  704   1.127   1.341   3.552
  231SOL    HW1  705   1.174   1.341   3.640
  231SOL    HW2  706   1.079   1.254   3.541
  232SOL     OW  707   0.230   1.434   2.400
  232SOL    HW1  708   0.204   1.530   2.400
  232SOL    HW2  709   0.159   1.380   2.445
  233SOL     OW  710   0.240   1.091   2.748
  233SOL    HW1  711   0.254   1.007   2.800
  233SOL    HW2  712   0.185   1.155   2.803
  234SOL     OW  713   0.620   1.786   3.301
  234SOL    HW1  714   0.528   1.769   3.336
  234SOL    HW2  715   0.648   1.878   3.327
  235SOL     OW  716   0.606   0.964   1.985
  235SOL    HW1  717   0.613   1.048   1.931
  235SOL    HW2  718   0.652   0.977   2.073
  236SOL     OW  719   1.594   0.114   3.342
  236SOL    HW1  720   1.576   0.181   3.270
  236SOL    HW2  721   1.591   0.160   3.431
  237SOL     OW  722   0.122   0.643   2.425
  237SOL    HW1  723   0.077   0.555   2.442
  237SOL    HW2  724   0.121   0.697   2.509
  238SOL     OW  725   1.842   1.767   2.221
  238SOL    HW1  726   1.896   1.738   2.301
  238SOL    HW2  727   1.872   1.857   2.192
  239SOL     OW  728   0.027   1.596   1.979
  239SOL    HW1  729   0.008   1.500   2.000
  239SOL    HW2  730  -0.006   1.654   2.054
  240SOL     OW  731   1.689   0.922   2.474
  240SOL    HW1  732   1.784   0.893   2.482
  240SOL    HW2  733   1.681   0.987   2.399
  241SOL     OW  734   1.641   1.108   2.294
  241SOL    HW1  735   1.727   1.110   2.242
  241SOL    HW2  736   1.655   1.155   2.382
  242SOL     OW  737   0.113   0.737   3.459
  242SOL    HW1  738   0.201   0.724   3.504
  242SOL    HW2  739   0.100   0.834   3.437
  243SOL     OW  740   0.613   1.365   2.588
  243SOL    HW1  741   0.564   1.278   2.597
  243SOL    HW2  742   0.590   1.408   2.501
  244SOL     OW  743   1.293   1.228   3.285
  244SOL    HW1  744   1.330   1.155   3.227
  244SOL    HW2  745   1.345   1.233   3.370
  245SOL     OW  746   0.809   0.004   2.364
  245SOL    HW1  747   0.849   0.095   2.355
  245SOL    HW2  748   0.709   0.012   2.370
  246SOL     OW  749   0.197   0.976   3.126
  246SOL    HW1  750   0.286   0.931   3.112
  246SOL    HW2  751   0.124   0.911   3.107
  247SOL     OW  752   1.525   0.999   2.052
  247SOL    HW1  753   1.462   0.923   2.065
  247SOL    HW2  754   1.573   1.017   2.138
  248SOL     OW  755   1.187   1.792   3.478
  248SOL    HW1  756   1.211   1.852   3.402
  248SOL    HW2  757   1.194   1.697   3.448
  249SOL     OW  758   0.317   0.251   3.663
  249SOL    HW1  759   0.388   0.322   3.669
  249SOL    HW2  760   0.229   0.290   3.691
  250SOL     OW  761   1.466   1.417   2.815
  250SOL    HW1  762   1.407   1.423   2.895
  250SOL    HW2  763   1.451   1.329   2.769
  251SOL     OW  764   1.667   1.714   2.434
  251SOL    HW1  765   1.626   1.691   2.346
  251SOL    HW2  766   1.649   1.640   2.499
  252SOL     OW  767   0.598   0.729   2.132
  252SOL    HW1  768   0.622   0.798   2.064
  252SOL    HW2  769   0.520   0.762   2.186
  253SOL     OW  770   1.281   0.345   2.806
  253SOL    HW1  771   1.195   0.295   2.793
  253SOL    HW2  772   1.343   0.291   2.862
  254SOL     OW  773   1.576   1.662   2.169
  254SOL    HW1  774   1.665   1.708   2.172
  254SOL    HW2  775   1.555   1.638   2.074
  255SOL     OW  776   0.807   0.605   3.327
  255SOL    HW1  777   0.760   0.602   3.416
  255SOL    HW2  778   0.756   0.550   3.261
  256SOL     OW  779   1.394   0.469   3.536
  256SOL    HW1  780   1.374   0.512   3.624
  256SOL    HW2  781   1.472   0.407   3.545
  257SOL     OW  782   0.973   0.890   3.434
  257SOL    HW1  783   1.019   0.806   3.405
  257SOL    HW2  784   0.917   0.924   3.359
  258SOL     OW  785   0.991   0.410   3.104
  258SOL    HW1  786   0.914   0.444   3.158
  258SOL    HW2  787   0.957   0.359   3.025
  259SOL     OW  788   1.041   0.701   2.291
  259SOL    HW1  789   1.067   0.697   2.387
  259SOL    HW2  790   0.956   0.650   2.277
  260SOL     OW  791   0.076   0.811   2.651
  260SOL    HW1  792   0.175   0.799   2.660
  260SOL    HW2  793   0.052   0.906   2.672
  261SOL     OW  794   0.130   1.821   3.433
  261SOL    HW1  795   0.120   1.806   3.532
  261SOL    HW2  796   0.044   1.857   3.397
  262SOL     OW  797   0.865   0.348   2.057
  262SOL    HW1  798   0.924   0.411   2.008
  262SOL    HW2  799   0.884   0.254   2.028
  263SOL     OW  800   1.719   0.585   3.693
  263SOL    HW1  801   1.693   0.674   3.657
  263SOL    HW2  802   1.717   0.517   3.620
  264SOL     OW  803   1.362   1.144   2.407
  264SOL    HW1  804   1.445   1.115   2.359
  264SOL    HW2  805   1.313   1.211   2.351
  265SOL     OW  806   0.550   0.196   2.747
  265SOL    HW1  807   0.545   0.191   2.847
  265SOL    HW2  808   0.552   0.292   2.718
  266SOL     OW  809   1.008   1.456   2.339
  266SOL    HW1  810   0.962   1.528   2.287
  266SOL    HW2  811   1.004   1.476   2.437
  267SOL     OW  812   0.351   1.801   2.715
  267SOL    HW1  813   0.401   1.715   2.721
  267SOL    HW2  814   0.416   1.878   2.712
  268SOL     OW  815   1.795   1.066   2.735
  268SOL    HW1  816   1.733   1.051   2.659
  268SOL    HW2  817   1.743   1.077   2.820
  269SOL     OW  818   1.227   1.550   3.368
  269SOL    HW1  819   1.233   1.473   3.432
  269SOL    HW2  820   1.175   1.524   3.288
  270SOL     OW  821   0.321   0.943   2.104
  270SOL    HW1  822   0.403   0.982   2.062
  270SOL    HW2  823   0.294   0.861   2.055
  271SOL     OW  824   1.458   0.735   2.590
  271SOL    HW1  825   1.453   0.670   2.665
  271SOL    HW2  826   1.538   0.794   2.603
  272SOL     OW  827   0.461   1.266   3.589
  272SOL    HW1  828   0.411   1.267   3.503
  272SOL    HW2  829   0.398   1.248   3.665
  273SOL     OW  830   1.111   1.776   2.099
  273SOL    HW1  831   1.051   1.714   2.149
  273SOL    HW2  832   1.142   1.732   2.014
  274SOL     OW  833   0.202   0.285   3.360
  274SOL    HW1  834   0.122   0.345   3.347
  274SOL    HW2  835   0.192   0.236   3.446
  275SOL     OW  836   1.632   1.377   1.943
  275SOL    HW1  837   1.600   1.471   1.933
  275SOL    HW2  838   1.556   1.314   1.931
  276SOL     OW  839   0.464   1.743   2.185
  276SOL    HW1  840   0.497   1.782   2.271
  276SOL    HW2  841   0.540   1.736   2.120
  277SOL     OW  842   1.400   0.107   2.288
  277SOL    HW1  843   1.376   0.070   2.198
  277SOL    HW2  844   1.499   0.123   2.292
  278SOL     OW  845   0.249   1.785   3.103
  278SOL    HW1  846   0.306   1.720   3.153
  278SOL    HW2  847   0.233   1.752   3.010
  279SOL     OW  848   0.940   1.698   2.766
  279SOL    HW1  849   1.020   1.641   2.787
  279SOL    HW2  850   0.891   1.658   2.689
  280SOL     OW  851   0.382   0.700   2.342
  280SOL    HW1  852   0.427   0.610   2.339
  280SOL    HW2  853   0.288   0.689   2.375
  281SOL     OW  854   1.547   0.222   3.591
  281SOL    HW1  855   1.542   0.259   3.683
  281SOL    HW2  856   1.475   0.153   3.579
  282SOL     OW  857   0.614   0.122   1.979
  282SOL    HW1  858   0.712   0.100   1.986
  282SOL    HW2  859   0.583   0.105   1.886
  283SOL     OW  860   0.781   0.264   3.611
  283SOL    HW1  861   0.848   0.203   3.654
  283SOL    HW2  862   0.708   0.283   3.676
  284SOL     OW  863   0.888   1.514   3.057
  284SOL    HW1  864   0.865   1.489   2.963
  284SOL    HW2  865   0.949   1.445   3.096
  285SOL     OW  866   1.351   0.590   3.295
  285SOL    HW1  867   1.379   0.547   3.380
  285SOL    HW2  868   1.376   0.686   3.296
  286SOL     OW  869   0.803   1.402   2.786
  286SOL    HW1  870   0.893   1.416   2.744
  286SOL    HW2  871   0.732   1.404   2.715
  287SOL     OW  872   0.922   0.503   2.761
  287SOL    HW1  873   0.897   0.494   2.665
  287SOL    HW2  874   0.970   0.421   2.792
  288SOL     OW  875   0.539   0.064   2.374
  288SOL    HW1  876   0.458   0.065   2.432
  288SOL    HW2  877   0.542   0.147   2.319
  289SOL     OW  878   1.434   1.188   1.903
  289SOL    HW1  879   1.466   1.112   1.960
  289SOL    HW2  880   1.342   1.215   1.933
  290SOL     OW  881   0.297   0.035   2.033
  290SOL    HW1  882   0.346   0.119   2.012
  290SOL    HW2  883   0.359  -0.030   2.078
  291SOL     OW  884   0.935   0.236   2.342
  291SOL    HW1  885   0.887   0.277   2.264
  291SOL    HW2  886   1.034   0.234   2.323
  292SOL     OW  887   1.076   0.683   3.326
  292SOL    HW1  888   0.996   0.622   3.329
  292SOL    HW2  889   1.157   0.630   3.302
  293SOL     OW  890   1.227   1.570   2.655
  293SOL    HW1  891   1.248   1.644   2.590
  293SOL    HW2  892   1.295   1.570   2.728
  294SOL     OW  893   0.459   1.152   2.603
  294SOL    HW1  894   0.388   1.125   2.668
  294SOL    HW2  895   0.433   1.124   2.510
  295SOL     OW  896   1.271   1.797   2.453
  295SOL    HW1  897   1.315   1.861   2.389
  295SOL    HW2  898   1.221   1.849   2.523
  296SOL     OW  899   1.032   0.549   1.878
  296SOL    HW1  900   0.991   0.631   1.839
  296SOL    HW2  901   1.096   0.575   1.951
  297SOL     OW  902   0.078   0.556   3.248
  297SOL    HW1  903   0.170   0.555   3.207
  297SOL    HW2  904   0.072   0.630   3.315
  298SOL     OW  905   0.561   0.222   3.009
  298SOL    HW1  906   0.599   0.138   3.046
  298SOL    HW2  907   0.473   0.241   3.053
  299SOL     OW  908   0.866   0.454   2.504
  299SOL    HW1  909   0.834   0.526   2.442
  299SOL    HW2  910   0.890   0.373   2.451
  300SOL     OW  911   1.017   0.039   2.615
  300SOL    HW1  912   0.945   0.044   2.546
  300SOL    HW2  913   0.993  -0.030   2.684
  301SOL     OW  914   1.429   1.173   2.729
  301SOL    HW1  915   1.374   1.089   2.722
  301SOL    HW2  916   1.455   1.202   2.637
  302SOL     OW  917   1.466   0.590   2.854
  302SOL    HW1  918   1.436   0.495   2.861
  302SOL    HW2  919   1.539   0.606   2.920
  303SOL     OW  920   1.857   0.833   2.239
  303SOL    HW1  921   1.899   0.769   2.303
  303SOL    HW2  922   1.819   0.782   2.161
  304SOL     OW  923   0.488   1.385   2.036
  304SOL    HW1  924   0.401   1.370   2.083
  304SOL    HW2  925   0.471   1.411   1.941
  305SOL     OW  926   1.664   1.280   2.519
  305SOL    HW1  927   1.763   1.288   2.533
  305SOL    HW2  928   1.619   1.364   2.550
  306SOL     OW  929   1.390   0.575   1.940
  306SOL    HW1  930   1.336   0.554   2.021
  306SOL    HW2  931   1.481   0.534   1.949
  307SOL     OW  932   0.527   0.256   2.190
  307SOL    HW1  933   0.554   0.197   2.115
  307SOL    HW2  934   0.527   0.351   2.159
  308SOL     OW  935   1.754   1.223   3.450
  308SOL    HW1  936   1.845   1.184   3.437
  308SOL    HW2  937   1.762   1.319   3.474
  309SOL     OW  938   1.064   1.347   3.202
  309SOL    HW1  939   0.984   1.324   3.257
  309SOL    HW2  940   1.147   1.321   3.251
  310SOL     OW  941   1.592   1.629   3.487
  310SOL    HW1  942   1.619   1.663   3.397
  310SOL    HW2  943   1.671   1.591   3.533
  311SOL     OW  944   1.111   1.195   2.962
  311SOL    HW1  945   1.071   1.239   3.043
  311SOL    HW2  946   1.070   1.232   2.879
  312SOL     OW  947   1.638   1.099   2.941
  312SOL    HW1  948   1.643   1.180   3.000
  312SOL    HW2  949   1.552   1.101   2.890
  313SOL     OW  950   0.915   0.089   3.264
  313SOL    HW1  951   0.940   0.069   3.169
  313SOL    HW2  952   0.987   0.145   3.306
  314SOL     OW  953   0.980   1.116   3.581
  314SOL    HW1  954   0.881   1.122   3.591
  314SOL    HW2  955   1.003   1.036   3.525
  315SOL     OW  956   0.705   1.050   2.230
  315SOL    HW1  957   0.691   1.057   2.329
  315SOL    HW2  958   0.789   0.999   2.212
  316SOL     OW  959   0.410   0.813   3.113
  316SOL    HW1  960   0.496   0.825   3.163
  316SOL    HW2  961   0.368   0.726   3.140
  317SOL     OW  962   1.274   0.386   3.124
  317SOL    HW1  963   1.295   0.460   3.188
  317SOL    HW2  964   1.185   0.403   3.081
  318SOL     OW  965   0.064   1.564   3.193
  318SOL    HW1  966   0.018   1.646   3.159
  318SOL    HW2  967   0.162   1.583   3.202
  319SOL     OW  968   0.367   1.100   2.363
  319SOL    HW1  969   0.360   1.183   2.307
  319SOL    HW2  970   0.371   1.020   2.303
  320SOL     OW  971   0.566   0.537   2.727
  320SOL    HW1  972   0.578   0.603   2.653
  320SOL    HW2  973   0.612   0.571   2.810
  321SOL     OW  974   1.252   1.348   2.250
  321SOL    HW1  975   1.302   1.425   2.290
  321SOL    HW2  976   1.157   1.350   2.282
  322SOL     OW  977   1.272   1.445   3.004
  322SOL    HW1  978   1.319   1.458   3.091
  322SOL    HW2  979   1.206   1.371   3.013
  323SOL     OW  980   1.582   0.639   2.334
  323SOL    HW1  981   1.551   0.700   2.407
  323SOL    HW2  982   1.632   0.691   2.265
  324SOL     OW  983   0.354   1.510   3.191
  324SOL    HW1  984   0.333   1.466   3.104
  324SOL    HW2  985   0.451   1.536   3.194
  325SOL     OW  986   0.402   0.751   3.460
  325SOL    HW1  987   0.470   0.806   3.413
  325SOL    HW2  988   0.442   0.663   3.487
  326SOL     OW  989   1.587   0.779   3.532
  326SOL    HW1  990   1.495   0.817   3.527
  326SOL    HW2  991   1.647   0.826   3.467
  327SOL     OW  992   1.013   0.105   3.632
  327SOL    HW1  993   1.019   0.190   3.580
  327SOL    HW2  994   1.045   0.029   3.575
  328SOL     OW  995   0.504   0.050   3.602
  328SOL    HW1  996   0.462  -0.007   3.532
  328SOL    HW2  997   0.438   0.119   3.634
  329SOL     OW  998   0.573   0.870   2.891
  329SOL    HW1  999   0.617   0.959   2.882
  329SOL    HW2 1000   0.510   0.870   2.968
  330SOL     OW 1001   1.360   0.862   2.907
  330SOL    HW1 1002   1.285   0.862   2.841
  330SOL    HW2 1003   1.397   0.770   2.916
  331SOL     OW 1004   1.209   0.525   2.137
  331SOL    HW1 1005   1.222   0.441   2.191
  331SOL    HW2 1006   1.180   0.599   2.197
  332SOL     OW 1007   0.307   0.213   3.093
  332SOL    HW1 1008   0.284   0.250   3.183
  332SOL    HW2 1009   0.277   0.118   3.087
  333SOL     OW 1010   0.037   1.310   3.144
  333SOL    HW1 1011   0.090   1.261   3.212
  333SOL    HW2 1012   0.059   1.408   3.149
  334SOL     OW 1013   0.732   0.634   2.926
  334SOL    HW1 1014   0.791   0.608   2.850
  334SOL    HW2 1015   0.704   0.730   2.915
  335SOL     OW 1016   1.728   0.935   3.716
  335SOL    HW1 1017   1.682   0.928   3.627
  335SOL    HW2 1018   1.666   0.979   3.782
  336SOL     OW 1019   0.307   0.063   2.480
  336SOL    HW1 1020   0.296   0.157   2.513
  336SOL    HW2 1021   0.302   0.000   2.557
  337SOL     OW 1022   1.622   0.367   2.236
  337SOL    HW1 1023   1.624   0.291   2.300
  337SOL    HW2 1024   1.574   0.444   2.276
  338SOL     OW 1025   1.023   0.766   2.828
  338SOL    HW1 1026   1.038   0.787   2.924
  338SOL    HW2 1027   0.993   0.671   2.819
  339SOL     OW 1028   0.980   1.573   3.562
  339SOL    HW1 1029   0.960   1.617   3.474
  339SOL    HW2 1030   1.019   1.482   3.546
  340SOL     OW 1031   1.859   1.518   3.467
  340SOL    HW1 1032   1.873   1.545   3.372
  340SOL    HW2 1033   1.942   1.540   3.520
  341SOL     OW 1034   0.350   0.898   3.666
  341SOL    HW1 1035   0.426   0.942   3.714
  341SOL    HW2 1036   0.385   0.851   3.584
  342SOL     OW 1037   1.540   0.274   1.987
  342SOL    HW1 1038   1.479   0.199   2.010
  342SOL    HW2 1039   1.562   0.326   2.070
  343SOL     OW 1040   1.303   0.838   1.904
  343SOL    HW1 1041   1.337   0.745   1.919
  343SOL    HW2 1042   1.321   0.865   1.809
  344SOL     OW 1043   1.068   1.333   2.711
  344SOL    HW1 1044   1.075   1.249   2.656
  344SOL    HW2 1045   1.130   1.402   2.675
  345SOL     OW 1046   0.319   0.810   2.811
  345SOL    HW1 1047   0.412   0.846   2.816
  345SOL    HW2 1048   0.313   0.725   2.863
  346SOL     OW 1049   0.339   0.509   2.868
  346SOL    HW1 1050   0.287   0.426   2.851
  346SOL    HW2 1051   0.416   0.514   2.804
  347SOL     OW 1052   1.138   0.380   3.540
  347SOL    HW1 1053   1.093   0.443   3.604
  347SOL    HW2 1054   1.231   0.411   3.523
  348SOL     OW 1055   1.160   0.207   3.339
  348SOL    HW1 1056   1.160   0.271   3.416
  348SOL    HW2 1057   1.188   0.255   3.256
  349SOL     OW 1058   0.008   1.326   2.062
  349SOL    HW1 1059  -0.085   1.347   2.031
  349SOL    HW2 1060   0.018   1.227   2.075
  350SOL     OW 1061   0.088   1.801   2.789
  350SOL    HW1 1062   0.046   1.715   2.762
  350SOL    HW2 1063   0.182   1.804   2.755
  351SOL     OW 1064   0.504   1.568   2.772
  351SOL    HW1 1065   0.570   1.642   2.781
  351SOL    HW2 1066   0.548   1.489   2.730
  352SOL     OW 1067   1.002   0.796   3.100
  352SOL    HW1 1068   1.043   0.764   3.186
  352SOL    HW2 1069   0.906   0.769   3.097
  353SOL     OW 1070   0.040   0.544   2.976
  353SOL    HW1 1071   0.125   0.511   2.935
  353SOL    HW2 1072   0.053   0.559   3.074
  354SOL     OW 1073   0.189   0.520   3.584
  354SOL    HW1 1074   0.248   0.480   3.514
  354SOL    HW2 1075   0.131   0.591   3.543
  355SOL     OW 1076   1.369   0.950   3.522
  355SOL    HW1 1077   1.408   1.039   3.542
  355SOL    HW2 1078   1.379   0.930   3.425
  356SOL     OW 1079   0.815   0.572   2.187
  356SOL    HW1 1080   0.822   0.483   2.141
  356SOL    HW2 1081   0.721   0.606   2.179
  357SOL     OW 1082   1.657   0.604   3.068
  357SOL    HW1 1083   1.619   0.535   3.130
  357SOL    HW2 1084   1.739   0.568   3.024
  358SOL     OW 1085   0.252   1.564   3.606
  358SOL    HW1 1086   0.222   1.621   3.682
  358SOL    HW2 1087   0.245   1.467   3.632
  359SOL     OW 1088   0.671   0.464   3.131
  359SOL    HW1 1089   0.637   0.375   3.101
  359SOL    HW2 1090   0.697   0.518   3.051
  360SOL     OW 1091   0.930   1.678   3.327
  360SOL    HW1 1092   0.906   1.660   3.232
  360SOL    HW2 1093   0.960   1.772   3.337
  361SOL     OW 1094   0.473   0.500   2.053
  361SOL    HW1 1095   0.534   0.580   2.057
  361SOL    HW2 1096   0.378   0.531   2.060
  362SOL     OW 1097   0.159   1.137   3.328
  362SOL    HW1 1098   0.181   1.076   3.404
  362SOL    HW2 1099   0.169   1.088   3.242
  363SOL     OW 1100   1.347   1.059   3.096
  363SOL    HW1 1101   1.371   0.996   3.022
  363SOL    HW2 1102   1.257   1.099   3.078
  364SOL     OW 1103   1.302   0.855   2.171
  364SOL    HW1 1104   1.216   0.824   2.213
  364SOL    HW2 1105   1.298   0.841   2.072
  365SOL     OW 1106   1.759   1.747   3.016
  365SOL    HW1 1107   1.820   1.777   2.943
  365SOL    HW2 1108   1.721   1.658   2.994
  366SOL     OW 1109   1.252   1.731   2.990
  366SOL    HW1 1110   1.336   1.736   2.936
  366SOL    HW2 1111   1.229   1.635   3.008
  367SOL     OW 1112   0.083   1.258   2.884
  367SOL    HW1 1113   0.078   1.257   2.984
  367SOL    HW2 1114   0.000   1.217   2.846
  368SOL     OW 1115   0.688   1.662   3.578
  368SOL    HW1 1116   0.632   1.743   3.587
  368SOL    HW2 1117   0.740   1.666   3.492
  369SOL     OW 1118   1.726   0.135   2.385
  369SOL    HW1 1119   1.799   0.118   2.318
  369SOL    HW2 1120   1.695   0.048   2.423
  370SOL     OW 1121   1.388   1.573   2.339
  370SOL    HW1 1122   1.455   1.585   2.265
  370SOL    HW2 1123   1.348   1.662   2.362
  371SOL     OW 1124   0.130   1.794   3.713
  371SOL    HW1 1125   0.089   1.720   3.766
  371SOL    HW2 1126   0.194   1.845   3.771
  372SOL     OW 1127   1.280   0.927   2.534
  372SOL    HW1 1128   1.340   0.846   2.536
  372SOL    HW2 1129   1.320   0.996   2.474
  373SOL     OW 1130   0.830   1.273   3.284
  373SOL    HW1 1131   0.825   1.306   3.379
  373SOL    HW2 1132   0.744   1.292   3.238
  374SOL     OW 1133   0.672   1.616   2.016
  374SOL    HW1 1134   0.681   1.626   1.917
  374SOL    HW2 1135   0.632   1.527   2.037
  375SOL     OW 1136   1.650   1.720   3.256
  375SOL    HW1 1137   1.703   1.730   3.172
  375SOL    HW2 1138   1.623   1.810   3.290
  376SOL     OW 1139   1.841   0.175   2.825
  376SOL    HW1 1140   1.880   0.090   2.789
  376SOL    HW2 1141   1.743   0.177   2.806
  377SOL     OW 1142   0.263   0.326   2.582
  377SOL    HW1 1143   0.184   0.377   2.548
  377SOL    HW2 1144   0.254   0.311   2.680
  378SOL     OW 1145   1.194   1.612   1.893
  378SOL    HW1 1146   1.200   1.519   1.930
  378SOL    HW2 1147   1.135   1.612   1.813
  379SOL     OW 1148   0.822   1.002   3.234
  379SOL    HW1 1149   0.862   1.001   3.142
  379SOL    HW2 1150   0.832   1.094   3.274
  380SOL     OW 1151   0.916   0.910   2.153
  380SOL    HW1 1152   0.979   0.948   2.085
  380SOL    HW2 1153   0.956   0.827   2.192
  381SOL     OW 1154   1.504   1.607   1.906
  381SOL    HW1 1155   1.412   1.644   1.913
  381SOL    HW2 1156   1.542   1.627   1.816
  382SOL     OW 1157   0.372   1.288   3.352
  382SOL    HW1 1158   0.359   1.381   3.318
  382SOL    HW2 1159   0.288   1.236   3.339
  383SOL     OW 1160   1.614   1.292   3.151
  383SOL    HW1 1161   1.674   1.295   3.231
  383SOL    HW2 1162   1.539   1.356   3.164
  384SOL     OW 1163   1.039   1.098   2.558
  384SOL    HW1 1164   0.969   1.051   2.612
  384SOL    HW2 1165   1.098   1.030   2.515
  385SOL     OW 1166   1.014   0.236   2.833
  385SOL    HW1 1167   1.006   0.200   2.740
  385SOL    HW2 1168   1.012   0.160   2.898
  386SOL     OW 1169   0.590   1.487   2.353
  386SOL    HW1 1170   0.632   1.429   2.283
  386SOL    HW2 1171   0.546   1.566   2.309
  387SOL     OW 1172   1.709   0.385   3.243
  387SOL    HW1 1173   1.782   0.454   3.247
  387SOL    HW2 1174   1.737   0.310   3.184
  388SOL     OW 1175   0.255   1.348   2.152
  388SOL    HW1 1176   0.159   1.349   2.125
  388SOL    HW2 1177   0.267   1.401   2.236
  389SOL     OW 1178   0.105   1.013   3.588
  389SOL    HW1 1179   0.028   0.980   3.642
  389SOL    HW2 1180   0.190   0.983   3.630
  390SOL     OW 1181   0.672   0.203   3.351
  390SOL    HW1 1182   0.762   0.187   3.311
  390SOL    HW2 1183   0.680   0.208   3.450
  391SOL     OW 1184   0.075   0.345   1.895
  391SOL    HW1 1185  -0.017   0.317   1.866
  391SOL    HW2 1186   0.106   0.422   1.839
  392SOL     OW 1187   1.440   0.856   3.260
  392SOL    HW1 1188   1.383   0.908   3.197
  392SOL    HW2 1189   1.536   0.868   3.236
  393SOL     OW 1190   0.072   0.166   2.180
  393SOL    HW1 1191   0.055   0.249   2.126
  393SOL    HW2 1192   0.162   0.129   2.158
  394SOL     OW 1193   1.183   1.335   1.981
  394SOL    HW1 1194   1.084   1.324   1.983
  394SOL    HW2 1195   1.217   1.350   2.074
  395SOL     OW 1196   0.613   0.842   3.293
  395SOL    HW1 1197   0.669   0.923   3.276
  395SOL    HW2 1198   0.672   0.762   3.296
  396SOL     OW 1199   1.493   1.767   2.821
  396SOL    HW1 1200   1.526   1.831   2.752
  396SOL    HW2 1201   1.559   1.761   2.896
  397SOL     OW 1202   0.716   0.565   3.570
  397SOL    HW1 1203   0.735   0.630   3.644
  397SOL    HW2 1204   0.776   0.485   3.579
  398SOL     OW 1205   1.450   1.220   3.495
  398SOL    HW1 1206   1.441   1.210   3.594
  398SOL    HW2 1207   1.546   1.213   3.469
  399SOL     OW 1208   0.390   1.741   3.422
  399SOL    HW1 1209   0.299   1.782   3.420
  399SOL    HW2 1210   0.383   1.647   3.454
  400SOL     OW 1211   1.674   0.883   3.116
  400SOL    HW1 1212   1.647   0.794   3.079
  400SOL    HW2 1213   1.675   0.951   3.043
  401SOL     OW 1214   1.225   0.325   2.311
  401SOL    HW1 1215   1.290   0.251   2.300
  401SOL    HW2 1216   1.245   0.375   2.395
  402SOL     OW 1217   0.594   0.745   2.514
  402SOL    HW1 1218   0.644   0.830   2.495
  402SOL    HW2 1219   0.506   0.747   2.466
  403SOL     OW 1220   1.777   0.342   3.504
  403SOL    HW1 1221   1.760   0.373   3.410
  403SOL    HW2 1222   1.693   0.305   3.542
  404SOL     OW 1223   1.730   0.934   3.379
  404SOL    HW1 1224   1.768   1.025   3.394
  404SOL    HW2 1225   1.722   0.917   3.280
  405SOL     OW 1226   0.859   1.374   1.878
  405SOL    HW1 1227   0.813   1.389   1.966
  405SOL    HW2 1228   0.903   1.459   1.848
  406SOL     OW 1229   0.661   1.790   2.815
  406SOL    HW1 1230   0.615   1.878   2.802
  406SOL    HW2 1231   0.760   1.802   2.808
  407SOL     OW 1232   0.859   0.956   2.723
  407SOL    HW1 1233   0.913   0.887   2.771
  407SOL    HW2 1234   0.827   1.025   2.789
  408SOL     OW 1235   1.083   0.984   1.949
  408SOL    HW1 1236   1.060   1.037   1.867
  408SOL    HW2 1237   1.164   0.928   1.930
  409SOL     OW 1238   1.861   1.569   2.713
  409SOL    HW1 1239   1.790   1.557   2.643
  409SOL    HW2 1240   1.862   1.490   2.773
  410SOL     OW 1241   0.221   1.314   3.706
  410SOL    HW1 1242   0.156   1.241   3.685
  410SOL    HW2 1243   0.225   1.328   3.804
  411SOL     OW 1244   0.079   1.240   2.515
  411SOL    HW1 1245   0.078   1.193   2.603
  411SOL    HW2 1246   0.161   1.212   2.464
  412SOL     OW 1247   0.672   1.391   3.486
  412SOL    HW1 1248   0.594   1.341   3.524
  412SOL    HW2 1249   0.669   1.486   3.517
  413SOL     OW 1250   1.824   0.192   3.089
  413SOL    HW1 1251   1.820   0.102   3.133
  413SOL    HW2 1252   1.827   0.181   2.990
  414SOL     OW 1253   0.428   0.424   2.382
  414SOL    HW1 1254   0.458   0.352   2.320
  414SOL    HW2 1255   0.389   0.384   2.465
  415SOL     OW 1256   1.705   1.487   2.966
  415SOL    HW1 1257   1.612   1.462   2.939
  415SOL    HW2 1258   1.731   1.437   3.048
  416SOL     OW 1259   0.317   0.547   3.142
  416SOL    HW1 1260   0.355   0.488   3.214
  416SOL    HW2 1261   0.357   0.521   3.054
  417SOL     OW 1262   0.812   1.586   2.549
  417SOL    HW1 1263   0.844   1.596   2.455
  417SOL    HW2 1264   0.733   1.524   2.551
  418SOL     OW 1265   1.424   0.214   2.974
  418SOL    HW1 1266   1.476   0.149   3.029
  418SOL    HW2 1267   1.375   0.277   3.035
  419SOL     OW 1268   1.001   0.034   3.016
  419SOL    HW1 1269   0.938  -0.038   2.985
  419SOL    HW2 1270   1.094  -0.002   3.016
  420SOL     OW 1271   0.770   1.330   2.163
  420SOL    HW1 1272   0.724   1.243   2.180
  420SOL    HW2 1273   0.861   1.327   2.204
  421SOL     OW 1274   0.618   1.567   3.146
  421SOL    HW1 1275   0.613   1.649   3.203
  421SOL    HW2 1276   0.707   1.564   3.101
  422SOL     OW 1277   1.352   0.052   2.030
  422SOL    HW1 1278   1.387   0.011   1.946
  422SOL    HW2 1279   1.262   0.014   2.050
  423SOL     OW 1280   1.300   0.453   2.553
  423SOL    HW1 1281   1.241   0.533   2.557
  423SOL    HW2 1282   1.315   0.418   2.646
  424SOL     OW 1283   1.593   0.221   2.744
  424SOL    HW1 1284   1.509   0.220   2.798
  424SOL    HW2 1285   1.595   0.304   2.688
  425SOL     OW 1286   0.039   1.077   2.162
  425SOL    HW1 1287   0.138   1.066   2.153
  425SOL    HW2 1288  -0.001   0.991   2.194
  426SOL     OW 1289   0.875   1.646   2.199
  426SOL    HW1 1290   0.798   1.611   2.145
  426SOL    HW2 1291   0.843   1.717   2.261
  427SOL     OW 1292   0.230   0.628   3.837
  427SOL    HW1 1293   0.137   0.626   3.874
  427SOL    HW2 1294   0.231   0.589   3.745
  428SOL     OW 1295   0.019   0.368   4.371
  428SOL    HW1 1296  -0.063   0.411   4.410
  428SOL    HW2 1297  -0.009   0.295   4.308
  429SOL     OW 1298   1.555   1.511   4.427
  429SOL    HW1 1299   1.498   1.495   4.508
  429SOL    HW2 1300   1.496   1.521   4.347
  430SOL     OW 1301   1.135   0.703   4.441
  430SOL    HW1 1302   1.192   0.781   4.416
  430SOL    HW2 1303   1.075   0.729   4.517
  431SOL     OW 1304   1.755   0.607   3.955
  431SOL    HW1 1305   1.743   0.594   3.856
  431SOL    HW2 1306   1.725   0.526   4.004
  432SOL     OW 1307   0.685   1.012   4.389
  432SOL    HW1 1308   0.754   0.996   4.459
  432SOL    HW2 1309   0.612   1.069   4.427
  433SOL     OW 1310   1.603   0.447   4.461
  433SOL    HW1 1311   1.529   0.493   4.411
  433SOL    HW2 1312   1.654   0.515   4.514
  434SOL     OW 1313   0.231   1.713   4.207
  434SOL    HW1 1314   0.265   1.790   4.261
  434SOL    HW2 1315   0.275   1.713   4.117
  435SOL     OW 1316   0.230   1.434   4.262
  435SOL    HW1 1317   0.204   1.530   4.262
  435SOL    HW2 1318   0.159   1.380   4.307
  436SOL     OW 1319   0.240   1.091   4.610
  436SOL    HW1 1320   0.254   1.007   4.662
  436SOL    HW2 1321   0.185   1.155   4.665
  437SOL     OW 1322   0.606   0.964   3.847
  437SOL    HW1 1323   0.613   1.048   3.793
  437SOL    HW2 1324   0.652   0.977   3.935
  438SOL     OW 1325   0.122   0.643   4.287
  438SOL    HW1 1326   0.077   0.555   4.304
  438SOL    HW2 1327   0.121   0.697   4.371
  439SOL     OW 1328   1.842   1.767   4.083
  439SOL    HW1 1329   1.896   1.738   4.163
  439SOL    HW2 1330   1.872   1.857   4.054
  440SOL     OW 1331   0.027   1.596   3.841
  440SOL    HW1 1332   0.008   1.500   3.862
  440SOL    HW2 1333  -0.006   1.654   3.916
  441SOL     OW 1334   1.689   0.922   4.336
  441SOL    HW1 1335   1.784   0.893   4.344
  441SOL    HW2 1336   1.681   0.987   4.261
  442SOL     OW 1337   1.641   1.108   4.156
  442SOL    HW1 1338   1.727   1.110   4.104
  442SOL    HW2 1339   1.655   1.155   4.244
  443SOL     OW 1340   0.613   1.365   4.450
  443SOL    HW1 1341   0.564   1.278   4.459
  443SOL    HW2 1342   0.590   1.408   4.363
  444SOL     OW 1343   0.809   0.004   4.226
  444SOL    HW1 1344   0.849   0.095   4.217
  444SOL    HW2 1345   0.709   0.012   4.232
  445SOL     OW 1346   1.525   0.999   3.914
  445SOL    HW1 1347   1.462   0.923   3.927
  445SOL    HW2 1348   1.573   1.017   4.000
  446SOL     OW 1349   1.466   1.417   4.677
  446SOL    HW1 1350   1.407   1.423   4.757
  446SOL    HW2 1351   1.451   1.329   4.631
  447SOL     OW 1352   1.667   1.714   4.296
  447SOL    HW1 1353   1.626   1.691   4.208
  447SOL    HW2 1354   1.649   1.640   4.361
  448SOL     OW 1355   0.598   0.729   3.994
  448SOL    HW1 1356   0.622   0.798   3.926
  448SOL    HW2 1357   0.520   0.762   4.048
  449SOL     OW 1358   1.281   0.345   4.668
  449SOL    HW1 1359   1.195   0.295   4.655
  449SOL    HW2 1360   1.343   0.291   4.724
  450SOL     OW 1361   1.576   1.662   4.031
  450SOL    HW1 1362   1.665   1.708   4.034
  450SOL    HW2 1363   1.555   1.638   3.936
  451SOL     OW 1364   1.041   0.701   4.153
  451SOL    HW1 1365   1.067   0.697   4.249
  451SOL    HW2 1366   0.956   0.650   4.139
  452SOL     OW 1367   0.076   0.811   4.513
  452SOL    HW1 1368   0.175   0.799   4.522
  452SOL    HW2 1369   0.052   0.906   4.534
  453SOL     OW 1370   0.865   0.348   3.919
  453SOL    HW1 1371   0.924   0.411   3.870
  453SOL    HW2 1372   0.884   0.254   3.890
  454SOL     OW 1373   1.362   1.144   4.269
  454SOL    HW1 1374   1.445   1.115   4.221
  454SOL    HW2 1375   1.313   1.211   4.213
  455SOL     OW 1376   1.008   1.456   4.201
  455SOL    HW1 1377   0.962   1.528   4.149
  455SOL    HW2 1378   1.004   1.476   4.299
  456SOL     OW 1379   0.351   1.801   4.577
  456SOL    HW1 1380   0.401   1.715   4.583
  456SOL    HW2 1381   0.416   1.878   4.574
  457SOL     OW 1382   1.795   1.066   4.597
  457SOL    HW1 1383   1.733   1.051   4.521
  457SOL    HW2 1384   1.743   1.077   4.682
  458SOL     OW 1385   0.321   0.943   3.966
  458SOL    HW1 1386   0.403   0.982   3.924
  458SOL    HW2 1387   0.294   0.861   3.917
  459SOL     OW 1388   1.458   0.735   4.452
  459SOL    HW1 1389   1.453   0.670   4.527
  459SOL    HW2 1390   1.538   0.794   4.465
  460SOL     OW 1391   1.111   1.776   3.961
  460SOL    HW1 1392   1.051   1.714   4.011
  460SOL    HW2 1393   1.142   1.732   3.876
  461SOL     OW 1394   1.632   1.377   3.805
  461SOL    HW1 1395   1.600   1.471   3.795
  461SOL    HW2 1396   1.556   1.314   3.793
  462SOL     OW 1397   0.464   1.743   4.047
  462SOL    HW1 1398   0.497   1.782   4.133
  462SOL    HW2 1399   0.540   1.736   3.982
  463SOL     OW 1400   1.400   0.107   4.150
  463SOL    HW1 1401   1.376   0.070   4.060
  463SOL    HW2 1402   1.499   0.123   4.154
  464SOL     OW 1403   0.382   0.700   4.204
  464SOL    HW1 1404   0.427   0.610   4.201
  464SOL    HW2 1405   0.288   0.689   4.237
  465SOL     OW 1406   0.614   0.122   3.841
  465SOL    HW1 1407   0.712   0.100   3.848
  465SOL    HW2 1408   0.583   0.105   3.748
  466SOL     OW 1409   0.539   0.064   4.236
  466SOL    HW1 1410   0.458   0.065   4.294
  466SOL    HW2 1411   0.542   0.147   4.181
  467SOL     OW 1412   1.434   1.188   3.765
  467SOL    HW1 1413   1.466   1.112   3.822
  467SOL    HW2 1414   1.342   1.215   3.795
  468SOL     OW 1415   0.297   0.035   3.895
  468SOL    HW1 1416   0.346   0.119   3.874
  468SOL    HW2 1417   0.359  -0.030   3.940
  469SOL     OW 1418   0.935   0.236   4.204
  469SOL    HW1 1419   0.887   0.277   4.126
  469SOL    HW2 1420   1.034   0.234   4.185
  470SOL     OW 1421   0.459   1.152   4.465
  470SOL    HW1 1422   0.388   1.125   4.530
  470SOL    HW2 1423   0.433   1.124   4.372
  471SOL     OW 1424   1.271   1.797   4.315
  471SOL    HW1 1425   1.315   1.861   4.251
  471SOL    HW2 1426   1.221   1.849   4.385
  472SOL     OW 1427   1.032   0.549   3.740
  472SOL    HW1 1428   0.991   0.631   3.701
  472SOL    HW2 1429   1.096   0.575   3.813
  473SOL     OW 1430   0.866   0.454   4.366
  473SOL    HW1 1431   0.834   0.526   4.304
  473SOL    HW2 1432   0.890   0.373   4.313
  474SOL     OW 1433   1.017   0.039   4.477
  474SOL    HW1 1434   0.945   0.044   4.408
  474SOL    HW2 1435   0.993  -0.030   4.546
  475SOL     OW 1436   1.857   0.833   4.101
  475SOL    HW1 1437   1.899   0.769   4.165
  475SOL    HW2 1438   1.819   0.782   4.023
  476SOL     OW 1439   0.488   1.385   3.898
  476SOL    HW1 1440   0.401   1.370   3.945
  476SOL    HW2 1441   0.471   1.411   3.803
  477SOL     OW 1442   1.664   1.280   4.381
  477SOL    HW1 1443   1.763   1.288   4.395
  477SOL    HW2 1444   1.619   1.364   4.412
  478SOL     OW 1445   1.390   0.575   3.802
  478SOL    HW1 1446   1.336   0.554   3.883
  478SOL    HW2 1447   1.481   0.534   3.811
  479SOL     OW 1448   0.527   0.256   4.052
  479SOL    HW1 1449   0.554   0.197   3.977
  479SOL    HW2 1450   0.527   0.351   4.021
  480SOL     OW 1451   0.705   1.050   4.092
  480SOL    HW1 1452   0.691   1.057   4.191
  480SOL    HW2 1453   0.789   0.999   4.074
  481SOL     OW 1454   0.367   1.100   4.225
  481SOL    HW1 1455   0.360   1.183   4.169
  481SOL    HW2 1456   0.371   1.020   4.165
  482SOL     OW 1457   0.566   0.537   4.589
  482SOL    HW1 1458   0.578   0.603   4.515
  482SOL    HW2 1459   0.612   0.571   4.672
  483SOL     OW 1460   1.252   1.348   4.112
  483SOL    HW1 1461   1.302   1.425   4.152
  483SOL    HW2 1462   1.157   1.350   4.144
  484SOL     OW 1463   1.582   0.639   4.196
  484SOL    HW1 1464   1.551   0.700   4.269
  484SOL    HW2 1465   1.632   0.691   4.127
  485SOL     OW 1466   1.209   0.525   3.999
  485SOL    HW1 1467   1.222   0.441   4.053
  485SOL    HW2 1468   1.180   0.599   4.059
  486SOL     OW 1469   0.732   0.634   4.788
  486SOL    HW1 1470   0.791   0.608   4.712
  486SOL    HW2 1471   0.704   0.730   4.777
  487SOL     OW 1472   0.307   0.063   4.342
  487SOL    HW1 1473   0.296   0.157   4.375
  487SOL    HW2 1474   0.302   0.000   4.419
  488SOL     OW 1475   1.622   0.367   4.098
  488SOL    HW1 1476   1.624   0.291   4.162
  488SOL    HW2 1477   1.574   0.444   4.138
  489SOL     OW 1478   1.540   0.274   3.849
  489SOL    HW1 1479   1.479   0.199   3.872
  489SOL    HW2 1480   1.562   0.326   3.932
  490SOL     OW 1481   1.303   0.838   3.766
  490SOL    HW1 1482   1.337   0.745   3.781
  490SOL    HW2 1483   1.321   0.865   3.671
  491SOL     OW 1484   1.068   1.333   4.573
  491SOL    HW1 1485   1.075   1.249   4.518
  491SOL    HW2 1486   1.130   1.402   4.537
  492SOL     OW 1487   0.008   1.326   3.924
  492SOL    HW1 1488  -0.085   1.347   3.893
  492SOL    HW2 1489   0.018   1.227   3.937
  493SOL     OW 1490   0.088   1.801   4.651
  493SOL    HW1 1491   0.046   1.715   4.624
  493SOL    HW2 1492   0.182   1.804   4.617
  494SOL     OW 1493   0.504   1.568   4.634
  494SOL    HW1 1494   0.570   1.642   4.643
  494SOL    HW2 1495   0.548   1.489   4.592
  495SOL     OW 1496   0.815   0.572   4.049
  495SOL    HW1 1497   0.822   0.483   4.003
  495SOL    HW2 1498   0.721   0.606   4.041
  496SOL     OW 1499   0.473   0.500   3.915
  496SOL    HW1 1500   0.534   0.580   3.919
  496SOL    HW2 1501   0.378   0.531   3.922
  497SOL     OW 1502   1.302   0.855   4.033
  497SOL    HW1 1503   1.216   0.824   4.075
  497SOL    HW2 1504   1.298   0.841   3.934
  498SOL     OW 1505   1.726   0.135   4.247
  498SOL    HW1 1506   1.799   0.118   4.180
  498SOL    HW2 1507   1.695   0.048   4.285
  499SOL     OW 1508   1.388   1.573   4.201
  499SOL    HW1 1509   1.455   1.585   4.127
  499SOL    HW2 1510   1.348   1.662   4.224
  500SOL     OW 1511   1.280   0.927   4.396
  500SOL    HW1 1512   1.340   0.846   4.398
  500SOL    HW2 1513   1.320   0.996   4.336
  501SOL     OW 1514   0.672   1.616   3.878
  501SOL    HW1 1515   0.681   1.626   3.779
  501SOL    HW2 1516   0.632   1.527   3.899
  502SOL     OW 1517   1.841   0.175   4.687
  502SOL    HW1 1518   1.880   0.090   4.651
  502SOL    HW2 1519   1.743   0.177   4.668
  503SOL     OW 1520   0.263   0.326   4.444
  503SOL    HW1 1521   0.184   0.377   4.410
  503SOL    HW2 1522   0.254   0.311   4.542
  504SOL     OW 1523   1.194   1.612   3.755
  504SOL    HW1 1524   1.200   1.519   3.792
  504SOL    HW2 1525   1.135   1.612   3.675
  505SOL     OW 1526   0.916   0.910   4.015
  505SOL    HW1 1527   0.979   0.948   3.947
  505SOL    HW2 1528   0.956   0.827   4.054
  506SOL     OW 1529   1.504   1.607   3.768
  506SOL    HW1 1530   1.412   1.644   3.775
  506SOL    HW2 1531   1.542   1.627   3.678
  507SOL     OW 1532   1.039   1.098   4.420
  507SOL    HW1 1533   0.969   1.051   4.474
  507SOL    HW2 1534   1.098   1.030   4.377
  508SOL     OW 1535   0.590   1.487   4.215
  508SOL    HW1 1536   0.632   1.429   4.145
  508SOL    HW2 1537   0.546   1.566   4.171
  509SOL     OW 1538   0.255   1.348   4.014
  509SOL    HW1 1539   0.159   1.349   3.987
  509SOL    HW2 1540   0.267   1.401   4.098
  510SOL     OW 1541   0.075   0.345   3.757
  510SOL    HW1 1542  -0.017   0.317   3.728
  510SOL    HW2 1543   0.106   0.422   3.701
  511SOL     OW 1544   0.072   0.166   4.042
  511SOL    HW1 1545   0.055   0.249   3.988
  511SOL    HW2 1546   0.162   0.129   4.020
  512SOL     OW 1547   1.183   1.335   3.843
  512SOL    HW1 1548   1.084   1.324   3.845
  512SOL    HW2 1549   1.217   1.350   3.936
  513SOL     OW 1550   1.225   0.325   4.173
  513SOL    HW1 1551   1.290   0.251   4.162
  513SOL    HW2 1552   1.245   0.375   4.257
  514SOL     OW 1553   0.594   0.745   4.376
  514SOL    HW1 1554   0.644   0.830   4.357
  514SOL    HW2 1555   0.506   0.747   4.328
  515SOL     OW 1556   0.859   1.374   3.740
  515SOL    HW1 1557   0.813   1.389   3.828
  515SOL    HW2 1558   0.903   1.459   3.710
  516SOL     OW 1559   0.661   1.790   4.677
  516SOL    HW1 1560   0.615   1.878   4.664
  516SOL    HW2 1561   0.760   1.802   4.670
  517SOL     OW 1562   0.859   0.956   4.585
  517SOL    HW1 1563   0.913   0.887   4.633
  517SOL    HW2 1564   0.827   1.025   4.651
  518SOL     OW 1565   1.083   0.984   3.811
  518SOL    HW1 1566   1.060   1.037   3.729
  518SOL    HW2 1567   1.164   0.928   3.792
  519SOL     OW 1568   1.861   1.569   4.575
  519SOL    HW1 1569   1.790   1.557   4.505
  519SOL    HW2 1570   1.862   1.490   4.635
  520SOL     OW 1571   0.079   1.240   4.377
  520SOL    HW1 1572   0.078   1.193   4.465
  520SOL    HW2 1573   0.161   1.212   4.326
  521SOL     OW 1574   1.824   0.192   4.951
  521SOL    HW1 1575   1.820   0.102   4.995
  521SOL    HW2 1576   1.827   0.181   4.852
  522SOL     OW 1577   0.428   0.424   4.244
  522SOL    HW1 1578   0.458   0.352   4.182
  522SOL    HW2 1579   0.389   0.384   4.327
  523SOL     OW 1580   0.812   1.586   4.411
  523SOL    HW1 1581   0.844   1.596   4.317
  523SOL    HW2 1582   0.733   1.524   4.413
  524SOL     OW 1583   0.770   1.330   4.025
  524SOL    HW1 1584   0.724   1.243   4.042
  524SOL    HW2 1585   0.861   1.327   4.066
  525SOL     OW 1586   1.352   0.052   3.892
  525SOL    HW1 1587   1.387   0.011   3.808
  525SOL    HW2 1588   1.262   0.014   3.912
  526SOL     OW 1589   1.300   0.453   4.415
  526SOL    HW1 1590   1.241   0.533   4.419
  526SOL    HW2 1591   1.315   0.418   4.508
  527SOL     OW 1592   1.593   0.221   4.606
  527SOL    HW1 1593   1.509   0.220   4.660
  527SOL    HW2 1594   1.595   0.304   4.550
  528SOL     OW 1595   0.039   1.077   4.024
  528SOL    HW1 1596   0.138   1.066   4.015
  528SOL    HW2 1597  -0.001   0.991   4.056
  529SOL     OW 1598   0.875   1.646   4.061
  529SOL    HW1 1599   0.798   1.611   4.007
  529SOL    HW2 1600   0.843   1.717   4.123
  530SOL     OW 1601   0.230   2.490   0.113
  530SOL    HW1 1602   0.137   2.488   0.150
  530SOL    HW2 1603   0.231   2.451   0.021
  531SOL     OW 1604   0.225   2.137   0.996
  531SOL    HW1 1605   0.260   2.120   1.088
  531SOL    HW2 1606   0.137   2.092   0.984
  532SOL     OW 1607   0.019   2.230   0.647
  532SOL    HW1 1608  -0.063   2.273   0.686
  532SOL    HW2 1609  -0.009   2.157   0.584
  533SOL     OW 1610   0.569   3.137   1.165
  533SOL    HW1 1611   0.476   3.130   1.128
  533SOL    HW2 1612   0.580   3.226   1.209
  534SOL     OW 1613   1.555   3.373   0.703
  534SOL    HW1 1614   1.498   3.357   0.784
  534SOL    HW2 1615   1.496   3.383   0.623
  535SOL     OW 1616   1.135   2.565   0.717
  535SOL    HW1 1617   1.192   2.643   0.692
  535SOL    HW2 1618   1.075   2.591   0.793
  536SOL     OW 1619   1.755   2.469   0.231
  536SOL    HW1 1620   1.743   2.456   0.132
  536SOL    HW2 1621   1.725   2.388   0.280
  537SOL     OW 1622   0.768   3.006   1.023
  537SOL    HW1 1623   0.690   3.023   1.083
  537SOL    HW2 1624   0.802   3.093   0.987
  538SOL     OW 1625   0.850   2.660   1.823
  538SOL    HW1 1626   0.846   2.736   1.888
  538SOL    HW2 1627   0.872   2.696   1.732
  539SOL     OW 1628   0.685   2.874   0.665
  539SOL    HW1 1629   0.754   2.858   0.735
  539SOL    HW2 1630   0.612   2.931   0.703
  540SOL     OW 1631   0.686   3.023   1.803
  540SOL    HW1 1632   0.746   3.102   1.817
  540SOL    HW2 1633   0.600   3.054   1.762
  541SOL     OW 1634   0.335   3.297   1.061
  541SOL    HW1 1635   0.257   3.266   1.008
  541SOL    HW2 1636   0.393   3.355   1.004
  542SOL     OW 1637   1.460   3.367   1.339
  542SOL    HW1 1638   1.484   3.461   1.365
  542SOL    HW2 1639   1.444   3.313   1.421
  543SOL     OW 1640   0.438   2.254   1.499
  543SOL    HW1 1641   0.520   2.198   1.508
  543SOL    HW2 1642   0.357   2.196   1.503
  544SOL     OW 1643   1.603   2.309   0.737
  544SOL    HW1 1644   1.529   2.355   0.687
  544SOL    HW2 1645   1.654   2.377   0.790
  545SOL     OW 1646   0.231   3.575   0.483
  545SOL    HW1 1647   0.265   3.652   0.537
  545SOL    HW2 1648   0.275   3.575   0.393
  546SOL     OW 1649   1.127   3.203   1.690
  546SOL    HW1 1650   1.174   3.203   1.778
  546SOL    HW2 1651   1.079   3.116   1.679
  547SOL     OW 1652   0.230   3.296   0.538
  547SOL    HW1 1653   0.204   3.392   0.538
  547SOL    HW2 1654   0.159   3.242   0.583
  548SOL     OW 1655   0.240   2.953   0.886
  548SOL    HW1 1656   0.254   2.869   0.938
  548SOL    HW2 1657   0.185   3.017   0.941
  549SOL     OW 1658   0.620   3.648   1.439
  549SOL    HW1 1659   0.528   3.631   1.474
  549SOL    HW2 1660   0.648   3.740   1.465
  550SOL     OW 1661   0.606   2.826   0.123
  550SOL    HW1 1662   0.613   2.910   0.069
  550SOL    HW2 1663   0.652   2.839   0.211
  551SOL     OW 1664   1.594   1.976   1.480
  551SOL    HW1 1665   1.576   2.043   1.408
  551SOL    HW2 1666   1.591   2.022   1.569
  552SOL     OW 1667   0.122   2.505   0.563
  552SOL    HW1 1668   0.077   2.417   0.580
  552SOL    HW2 1669   0.121   2.559   0.647
  553SOL     OW 1670   1.842   3.629   0.359
  553SOL    HW1 1671   1.896   3.600   0.439
  553SOL    HW2 1672   1.872   3.719   0.330
  554SOL     OW 1673   0.027   3.458   0.117
  554SOL    HW1 1674   0.008   3.362   0.138
  554SOL    HW2 1675  -0.006   3.516   0.192
  555SOL     OW 1676   1.689   2.784   0.612
  555SOL    HW1 1677   1.784   2.755   0.620
  555SOL    HW2 1678   1.681   2.849   0.537
  556SOL     OW 1679   1.641   2.970   0.432
  556SOL    HW1 1680   1.727   2.972   0.380
  556SOL    HW2 1681   1.655   3.017   0.520
  557SOL     OW 1682   0.113   2.599   1.597
  557SOL    HW1 1683   0.201   2.586   1.642
  557SOL    HW2 1684   0.100   2.696   1.575
  558SOL     OW 1685   0.613   3.227   0.726
  558SOL    HW1 1686   0.564   3.140   0.735
  558SOL    HW2 1687   0.590   3.270   0.639
  559SOL     OW 1688   1.293   3.090   1.423
  559SOL    HW1 1689   1.330   3.017   1.365
  559SOL    HW2 1690   1.345   3.095   1.508
  560SOL     OW 1691   0.809   1.866   0.502
  560SOL    HW1 1692   0.849   1.957   0.493
  560SOL    HW2 1693   0.709   1.874   0.508
  561SOL     OW 1694   0.197   2.838   1.264
  561SOL    HW1 1695   0.286   2.793   1.250
  561SOL    HW2 1696   0.124   2.773   1.245
  562SOL     OW 1697   1.525   2.861   0.190
  562SOL    HW1 1698   1.462   2.785   0.203
  562SOL    HW2 1699   1.573   2.879   0.276
  563SOL     OW 1700   1.187   3.654   1.616
  563SOL    HW1 1701   1.211   3.714   1.540
  563SOL    HW2 1702   1.194   3.559   1.586
  564SOL     OW 1703   0.317   2.113   1.801
  564SOL    HW1 1704   0.388   2.184   1.807
  564SOL    HW2 1705   0.229   2.152   1.829
  565SOL     OW 1706   1.466   3.279   0.953
  565SOL    HW1 1707   1.407   3.285   1.033
  565SOL    HW2 1708   1.451   3.191   0.907
  566SOL     OW 1709   1.667   3.576   0.572
  566SOL    HW1 1710   1.626   3.553   0.484
  566SOL    HW2 1711   1.649   3.502   0.637
  567SOL     OW 1712   0.598   2.591   0.270
  567SOL    HW1 1713   0.622   2.660   0.202
  567SOL    HW2 1714   0.520   2.624   0.324
  568SOL     OW 1715   1.281   2.207   0.944
  568SOL    HW1 1716   1.195   2.157   0.931
  568SOL    HW2 1717   1.343   2.153   1.000
  569SOL     OW 1718   1.576   3.524   0.307
  569SOL    HW1 1719   1.665   3.570   0.310
  569SOL    HW2 1720   1.555   3.500   0.212
  570SOL     OW 1721   0.807   2.467   1.465
  570SOL    HW1 1722   0.760   2.464   1.554
  570SOL    HW2 1723   0.756   2.412   1.399
  571SOL     OW 1724   1.394   2.331   1.674
  571SOL    HW1 1725   1.374   2.374   1.762
  571SOL    HW2 1726   1.472   2.269   1.683
  572SOL     OW 1727   0.973   2.752   1.572
  572SOL    HW1 1728   1.019   2.668   1.543
  572SOL    HW2 1729   0.917   2.786   1.497
  573SOL     OW 1730   0.991   2.272   1.242
  573SOL    HW1 1731   0.914   2.306   1.296
  573SOL    HW2 1732   0.957   2.221   1.163
  574SOL     OW 1733   1.041   2.563   0.429
  574SOL    HW1 1734   1.067   2.559   0.525
  574SOL    HW2 1735   0.956   2.512   0.415
  575SOL     OW 1736   0.076   2.673   0.789
  575SOL    HW1 1737   0.175   2.661   0.798
  575SOL    HW2 1738   0.052   2.768   0.810
  576SOL     OW 1739   0.130   3.683   1.571
  576SOL    HW1 1740   0.120   3.668   1.670
  576SOL    HW2 1741   0.044   3.719   1.535
  577SOL     OW 1742   0.865   2.210   0.195
  577SOL    HW1 1743   0.924   2.273   0.146
  577SOL    HW2 1744   0.884   2.116   0.166
  578SOL     OW 1745   1.719   2.447   1.831
  578SOL    HW1 1746   1.693   2.536   1.795
  578SOL    HW2 1747   1.717   2.379   1.758
  579SOL     OW 1748   1.362   3.006   0.545
  579SOL    HW1 1749   1.445   2.977   0.497
  579SOL    HW2 1750   1.313   3.073   0.489
  580SOL     OW 1751   0.550   2.058   0.885
  580SOL    HW1 1752   0.545   2.053   0.985
  580SOL    HW2 1753   0.552   2.154   0.856
  581SOL     OW 1754   1.008   3.318   0.477
  581SOL    HW1 1755   0.962   3.390   0.425
  581SOL    HW2 1756   1.004   3.338   0.575
  582SOL     OW 1757   0.351   3.663   0.853
  582SOL    HW1 1758   0.401   3.577   0.859
  582SOL    HW2 1759   0.416   3.740   0.850
  583SOL     OW 1760   1.795   2.928   0.873
  583SOL    HW1 1761   1.733   2.913   0.797
  583SOL    HW2 1762   1.743   2.939   0.958
  584SOL     OW 1763   1.227   3.412   1.506
  584SOL    HW1 1764   1.233   3.335   1.570
  584SOL    HW2 1765   1.175   3.386   1.426
  585SOL     OW 1766   0.321   2.805   0.242
  585SOL    HW1 1767   0.403   2.844   0.200
  585SOL    HW2 1768   0.294   2.723   0.193
  586SOL     OW 1769   1.458   2.597   0.728
  586SOL    HW1 1770   1.453   2.532   0.803
  586SOL    HW2 1771   1.538   2.656   0.741
  587SOL     OW 1772   0.461   3.128   1.727
  587SOL    HW1 1773   0.411   3.129   1.641
  587SOL    HW2 1774   0.398   3.110   1.803
  588SOL     OW 1775   1.111   3.638   0.237
  588SOL    HW1 1776   1.051   3.576   0.287
  588SOL    HW2 1777   1.142   3.594   0.152
  589SOL     OW 1778   0.202   2.147   1.498
  589SOL    HW1 1779   0.122   2.207   1.485
  589SOL    HW2 1780   0.192   2.098   1.584
  590SOL     OW 1781   1.632   3.239   0.081
  590SOL    HW1 1782   1.600   3.333   0.071
  590SOL    HW2 1783   1.556   3.176   0.069
  591SOL     OW 1784   0.464   3.605   0.323
  591SOL    HW1 1785   0.497   3.644   0.409
  591SOL    HW2 1786   0.540   3.598   0.258
  592SOL     OW 1787   1.400   1.969   0.426
  592SOL    HW1 1788   1.376   1.932   0.336
  592SOL    HW2 1789   1.499   1.985   0.430
  593SOL     OW 1790   0.249   3.647   1.241
  593SOL    HW1 1791   0.306   3.582   1.291
  593SOL    HW2 1792   0.233   3.614   1.148
  594SOL     OW 1793   0.940   3.560   0.904
  594SOL    HW1 1794   1.020   3.503   0.925
  594SOL    HW2 1795   0.891   3.520   0.827
  595SOL     OW 1796   0.382   2.562   0.480
  595SOL    HW1 1797   0.427   2.472   0.477
  595SOL    HW2 1798   0.288   2.551   0.513
  596SOL     OW 1799   1.547   2.084   1.729
  596SOL    HW1 1800   1.542   2.121   1.821
  596SOL    HW2 1801   1.475   2.015   1.717
  597SOL     OW 1802   0.781   2.126   1.749
  597SOL    HW1 1803   0.848   2.065   1.792
  597SOL    HW2 1804   0.708   2.145   1.814
  598SOL     OW 1805   0.888   3.376   1.195
  598SOL    HW1 1806   0.865   3.351   1.101
  598SOL    HW2 1807   0.949   3.307   1.234
  599SOL     OW 1808   1.351   2.452   1.433
  599SOL    HW1 1809   1.379   2.409   1.518
  599SOL    HW2 1810   1.376   2.548   1.434
  600SOL     OW 1811   0.803   3.264   0.924
  600SOL    HW1 1812   0.893   3.278   0.882
  600SOL    HW2 1813   0.732   3.266   0.853
  601SOL     OW 1814   0.922   2.365   0.899
  601SOL    HW1 1815   0.897   2.356   0.803
  601SOL    HW2 1816   0.970   2.283   0.930
  602SOL     OW 1817   0.539   1.926   0.512
  602SOL    HW1 1818   0.458   1.927   0.570
  602SOL    HW2 1819   0.542   2.009   0.457
  603SOL     OW 1820   1.434   3.050   0.041
  603SOL    HW1 1821   1.466   2.974   0.098
  603SOL    HW2 1822   1.342   3.077   0.071
  604SOL     OW 1823   0.297   1.897   0.171
  604SOL    HW1 1824   0.346   1.981   0.150
  604SOL    HW2 1825   0.359   1.832   0.216
  605SOL     OW 1826   0.935   2.098   0.480
  605SOL    HW1 1827   0.887   2.139   0.402
  605SOL    HW2 1828   1.034   2.096   0.461
  606SOL     OW 1829   1.076   2.545   1.464
  606SOL    HW1 1830   0.996   2.484   1.467
  606SOL    HW2 1831   1.157   2.492   1.440
  607SOL     OW 1832   1.227   3.432   0.793
  607SOL    HW1 1833   1.248   3.506   0.728
  607SOL    HW2 1834   1.295   3.432   0.866
  608SOL     OW 1835   0.459   3.014   0.741
  608SOL    HW1 1836   0.388   2.987   0.806
  608SOL    HW2 1837   0.433   2.986   0.648
  609SOL     OW 1838   1.271   3.659   0.591
  609SOL    HW1 1839   1.315   3.723   0.527
  609SOL    HW2 1840   1.221   3.711   0.661
  610SOL     OW 1841   1.032   2.411   0.016
  610SOL    HW1 1842   0.991   2.493  -0.023
  610SOL    HW2 1843   1.096   2.437   0.089
  611SOL     OW 1844   0.078   2.418   1.386
  611SOL    HW1 1845   0.170   2.417   1.345
  611SOL    HW2 1846   0.072   2.492   1.453
  612SOL     OW 1847   0.561   2.084   1.147
  612SOL    HW1 1848   0.599   2.000   1.184
  612SOL    HW2 1849   0.473   2.103   1.191
  613SOL     OW 1850   0.866   2.316   0.642
  613SOL    HW1 1851   0.834   2.388   0.580
  613SOL    HW2 1852   0.890   2.235   0.589
  614SOL     OW 1853   1.017   1.901   0.753
  614SOL    HW1 1854   0.945   1.906   0.684
  614SOL    HW2 1855   0.993   1.832   0.822
  615SOL     OW 1856   1.429   3.035   0.867
  615SOL    HW1 1857   1.374   2.951   0.860
  615SOL    HW2 1858   1.455   3.064   0.775
  616SOL     OW 1859   1.466   2.452   0.992
  616SOL    HW1 1860   1.436   2.357   0.999
  616SOL    HW2 1861   1.539   2.468   1.058
  617SOL     OW 1862   1.857   2.695   0.377
  617SOL    HW1 1863   1.899   2.631   0.441
  617SOL    HW2 1864   1.819   2.644   0.299
  618SOL     OW 1865   0.488   3.247   0.174
  618SOL    HW1 1866   0.401   3.232   0.221
  618SOL    HW2 1867   0.471   3.273   0.079
  619SOL     OW 1868   1.664   3.142   0.657
  619SOL    HW1 1869   1.763   3.150   0.671
  619SOL    HW2 1870   1.619   3.226   0.688
  620SOL     OW 1871   1.390   2.437   0.078
  620SOL    HW1 1872   1.336   2.416   0.159
  620SOL    HW2 1873   1.481   2.396   0.087
  621SOL     OW 1874   0.527   2.118   0.328
  621SOL    HW1 1875   0.554   2.059   0.253
  621SOL    HW2 1876   0.527   2.213   0.297
  622SOL     OW 1877   1.754   3.085   1.588
  622SOL    HW1 1878   1.845   3.046   1.575
  622SOL    HW2 1879   1.762   3.181   1.612
  623SOL     OW 1880   1.064   3.209   1.340
  623SOL    HW1 1881   0.984   3.186   1.395
  623SOL    HW2 1882   1.147   3.183   1.389
  624SOL     OW 1883   1.592   3.491   1.625
  624SOL    HW1 1884   1.619   3.525   1.535
  624SOL    HW2 1885   1.671   3.453   1.671
  625SOL     OW 1886   1.111   3.057   1.100
  625SOL    HW1 1887   1.071   3.101   1.181
  625SOL    HW2 1888   1.070   3.094   1.017
  626SOL     OW 1889   1.638   2.961   1.079
  626SOL    HW1 1890   1.643   3.042   1.138
  626SOL    HW2 1891   1.552   2.963   1.028
  627SOL     OW 1892   0.915   1.951   1.402
  627SOL    HW1 1893   0.940   1.931   1.307
  627SOL    HW2 1894   0.987   2.007   1.444
  628SOL     OW 1895   0.980   2.978   1.719
  628SOL    HW1 1896   0.881   2.984   1.729
  628SOL    HW2 1897   1.003   2.898   1.663
  629SOL     OW 1898   0.705   2.912   0.368
  629SOL    HW1 1899   0.691   2.919   0.467
  629SOL    HW2 1900   0.789   2.861   0.350
  630SOL     OW 1901   0.410   2.675   1.251
  630SOL    HW1 1902   0.496   2.687   1.301
  630SOL    HW2 1903   0.368   2.588   1.278
  631SOL     OW 1904   1.274   2.248   1.262
  631SOL    HW1 1905   1.295   2.322   1.326
  631SOL    HW2 1906   1.185   2.265   1.219
  632SOL     OW 1907   0.064   3.426   1.331
  632SOL    HW1 1908   0.018   3.508   1.297
  632SOL    HW2 1909   0.162   3.445   1.340
  633SOL     OW 1910   0.367   2.962   0.501
  633SOL    HW1 1911   0.360   3.045   0.445
  633SOL    HW2 1912   0.371   2.882   0.441
  634SOL     OW 1913   0.566   2.399   0.865
  634SOL    HW1 1914   0.578   2.465   0.791
  634SOL    HW2 1915   0.612   2.433   0.948
  635SOL     OW 1916   1.252   3.210   0.388
  635SOL    HW1 1917   1.302   3.287   0.428
  635SOL    HW2 1918   1.157   3.212   0.420
  636SOL     OW 1919   1.272   3.307   1.142
  636SOL    HW1 1920   1.319   3.320   1.229
  636SOL    HW2 1921   1.206   3.233   1.151
  637SOL     OW 1922   1.582   2.501   0.472
  637SOL    HW1 1923   1.551   2.562   0.545
  637SOL    HW2 1924   1.632   2.553   0.403
  638SOL     OW 1925   0.354   3.372   1.329
  638SOL    HW1 1926   0.333   3.328   1.242
  638SOL    HW2 1927   0.451   3.398   1.332
  639SOL     OW 1928   0.402   2.613   1.598
  639SOL    HW1 1929   0.470   2.668   1.551
  639SOL    HW2 1930   0.442   2.525   1.625
  640SOL     OW 1931   1.587   2.641   1.670
  640SOL    HW1 1932   1.495   2.679   1.665
  640SOL    HW2 1933   1.647   2.688   1.605
  641SOL     OW 1934   1.013   1.967   1.770
  641SOL    HW1 1935   1.019   2.052   1.718
  641SOL    HW2 1936   1.045   1.891   1.713
  642SOL     OW 1937   0.504   1.912   1.740
  642SOL    HW1 1938   0.462   1.855   1.670
  642SOL    HW2 1939   0.438   1.981   1.772
  643SOL     OW 1940   0.573   2.732   1.029
  643SOL    HW1 1941   0.617   2.821   1.020
  643SOL    HW2 1942   0.510   2.732   1.106
  644SOL     OW 1943   1.360   2.724   1.045
  644SOL    HW1 1944   1.285   2.724   0.979
  644SOL    HW2 1945   1.397   2.632   1.054
  645SOL     OW 1946   1.209   2.387   0.275
  645SOL    HW1 1947   1.222   2.303   0.329
  645SOL    HW2 1948   1.180   2.461   0.335
  646SOL     OW 1949   0.307   2.075   1.231
  646SOL    HW1 1950   0.284   2.112   1.321
  646SOL    HW2 1951   0.277   1.980   1.225
  647SOL     OW 1952   0.037   3.172   1.282
  647SOL    HW1 1953   0.090   3.123   1.350
  647SOL    HW2 1954   0.059   3.270   1.287
  648SOL     OW 1955   0.732   2.496   1.064
  648SOL    HW1 1956   0.791   2.470   0.988
  648SOL    HW2 1957   0.704   2.592   1.053
  649SOL     OW 1958   1.728   2.797   1.854
  649SOL    HW1 1959   1.682   2.790   1.765
  649SOL    HW2 1960   1.666   2.841   1.920
  650SOL     OW 1961   0.307   1.925   0.618
  650SOL    HW1 1962   0.296   2.019   0.651
  650SOL    HW2 1963   0.302   1.862   0.695
  651SOL     OW 1964   1.622   2.229   0.374
  651SOL    HW1 1965   1.624   2.153   0.438
  651SOL    HW2 1966   1.574   2.306   0.414
  652SOL     OW 1967   1.023   2.628   0.966
  652SOL    HW1 1968   1.038   2.649   1.062
  652SOL    HW2 1969   0.993   2.533   0.957
  653SOL     OW 1970   0.980   3.435   1.700
  653SOL    HW1 1971   0.960   3.479   1.612
  653SOL    HW2 1972   1.019   3.344   1.684
  654SOL     OW 1973   1.859   3.380   1.605
  654SOL    HW1 1974   1.873   3.407   1.510
  654SOL    HW2 1975   1.942   3.402   1.658
  655SOL     OW 1976   0.350   2.760   1.804
  655SOL    HW1 1977   0.426   2.804   1.852
  655SOL    HW2 1978   0.385   2.713   1.722
  656SOL     OW 1979   1.540   2.136   0.125
  656SOL    HW1 1980   1.479   2.061   0.148
  656SOL    HW2 1981   1.562   2.188   0.208
  657SOL     OW 1982   1.303   2.700   0.042
  657SOL    HW1 1983   1.337   2.607   0.057
  657SOL    HW2 1984   1.321   2.727  -0.053
  658SOL     OW 1985   1.068   3.195   0.849
  658SOL    HW1 1986   1.075   3.111   0.794
  658SOL    HW2 1987   1.130   3.264   0.813
  659SOL     OW 1988   0.319   2.672   0.949
  659SOL    HW1 1989   0.412   2.708   0.954
  659SOL    HW2 1990   0.313   2.587   1.001
  660SOL     OW 1991   0.339   2.371   1.006
  660SOL    HW1 1992   0.287   2.288   0.989
  660SOL    HW2 1993   0.416   2.376   0.942
  661SOL     OW 1994   1.138   2.242   1.678
  661SOL    HW1 1995   1.093   2.305   1.742
  661SOL    HW2 1996   1.231   2.273   1.661
  662SOL     OW 1997   1.160   2.069   1.477
  662SOL    HW1 1998   1.160   2.133   1.554
  662SOL    HW2 1999   1.188   2.117   1.394
  663SOL     OW 2000   0.008   3.188   0.200
  663SOL    HW1 2001  -0.085   3.209   0.169
  663SOL    HW2 2002   0.018   3.089   0.213
  664SOL     OW 2003   0.088   3.663   0.927
  664SOL    HW1 2004   0.046   3.577   0.900
  664SOL    HW2 2005   0.182   3.666   0.893
  665SOL     OW 2006   0.504   3.430   0.910
  665SOL    HW1 2007   0.570   3.504   0.919
  665SOL    HW2 2008   0.548   3.351   0.868
  666SOL     OW 2009   1.002   2.658   1.238
  666SOL    HW1 2010   1.043   2.626   1.324
  666SOL    HW2 2011   0.906   2.631   1.235
  667SOL     OW 2012   0.040   2.406   1.114
  667SOL    HW1 2013   0.125   2.373   1.073
  667SOL    HW2 2014   0.053   2.421   1.212
  668SOL     OW 2015   0.189   2.382   1.722
  668SOL    HW1 2016   0.248   2.342   1.652
  668SOL    HW2 2017   0.131   2.453   1.681
  669SOL     OW 2018   1.369   2.812   1.660
  669SOL    HW1 2019   1.408   2.901   1.680
  669SOL    HW2 2020   1.379   2.792   1.563
  670SOL     OW 2021   0.815   2.434   0.325
  670SOL    HW1 2022   0.822   2.345   0.279
  670SOL    HW2 2023   0.721   2.468   0.317
  671SOL     OW 2024   1.657   2.466   1.206
  671SOL    HW1 2025   1.619   2.397   1.268
  671SOL    HW2 2026   1.739   2.430   1.162
  672SOL     OW 2027   0.252   3.426   1.744
  672SOL    HW1 2028   0.222   3.483   1.820
  672SOL    HW2 2029   0.245   3.329   1.770
  673SOL     OW 2030   0.671   2.326   1.269
  673SOL    HW1 2031   0.637   2.237   1.239
  673SOL    HW2 2032   0.697   2.380   1.189
  674SOL     OW 2033   0.930   3.540   1.465
  674SOL    HW1 2034   0.906   3.522   1.370
  674SOL    HW2 2035   0.960   3.634   1.475
  675SOL     OW 2036   0.473   2.362   0.191
  675SOL    HW1 2037   0.534   2.442   0.195
  675SOL    HW2 2038   0.378   2.393   0.198
  676SOL     OW 2039   0.159   2.999   1.466
  676SOL    HW1 2040   0.181   2.938   1.542
  676SOL    HW2 2041   0.169   2.950   1.380
  677SOL     OW 2042   1.347   2.921   1.234
  677SOL    HW1 2043   1.371   2.858   1.160
  677SOL    HW2 2044   1.257   2.961   1.216
  678SOL     OW 2045   1.302   2.717   0.309
  678SOL    HW1 2046   1.216   2.686   0.351
  678SOL    HW2 2047   1.298   2.703   0.210
  679SOL     OW 2048   1.759   3.609   1.154
  679SOL    HW1 2049   1.820   3.639   1.081
  679SOL    HW2 2050   1.721   3.520   1.132
  680SOL     OW 2051   1.252   3.593   1.128
  680SOL    HW1 2052   1.336   3.598   1.074
  680SOL    HW2 2053   1.229   3.497   1.146
  681SOL     OW 2054   0.083   3.120   1.022
  681SOL    HW1 2055   0.078   3.119   1.122
  681SOL    HW2 2056   0.000   3.079   0.984
  682SOL     OW 2057   0.688   3.524   1.716
  682SOL    HW1 2058   0.632   3.605   1.725
  682SOL    HW2 2059   0.740   3.528   1.630
  683SOL     OW 2060   0.903   1.948   0.133
  683SOL    HW1 2061   0.954   1.949   0.047
  683SOL    HW2 2062   0.959   1.906   0.204
  684SOL     OW 2063   1.726   1.997   0.523
  684SOL    HW1 2064   1.799   1.980   0.456
  684SOL    HW2 2065   1.695   1.910   0.561
  685SOL     OW 2066   1.388   3.435   0.477
  685SOL    HW1 2067   1.455   3.447   0.403
  685SOL    HW2 2068   1.348   3.524   0.500
  686SOL     OW 2069   0.130   3.656   1.851
  686SOL    HW1 2070   0.089   3.582   1.904
  686SOL    HW2 2071   0.194   3.707   1.909
  687SOL     OW 2072   1.280   2.789   0.672
  687SOL    HW1 2073   1.340   2.708   0.674
  687SOL    HW2 2074   1.320   2.858   0.612
  688SOL     OW 2075   0.830   3.135   1.422
  688SOL    HW1 2076   0.825   3.168   1.517
  688SOL    HW2 2077   0.744   3.154   1.376
  689SOL     OW 2078   0.672   3.478   0.154
  689SOL    HW1 2079   0.681   3.488   0.055
  689SOL    HW2 2080   0.632   3.389   0.175
  690SOL     OW 2081   1.650   3.582   1.394
  690SOL    HW1 2082   1.703   3.592   1.310
  690SOL    HW2 2083   1.623   3.672   1.428
  691SOL     OW 2084   1.841   2.037   0.963
  691SOL    HW1 2085   1.880   1.952   0.927
  691SOL    HW2 2086   1.743   2.039   0.944
  692SOL     OW 2087   0.263   2.188   0.720
  692SOL    HW1 2088   0.184   2.239   0.686
  692SOL    HW2 2089   0.254   2.173   0.818
  693SOL     OW 2090   1.194   3.474   0.031
  693SOL    HW1 2091   1.200   3.381   0.068
  693SOL    HW2 2092   1.135   3.474  -0.049
  694SOL     OW 2093   0.822   2.864   1.372
  694SOL    HW1 2094   0.862   2.863   1.280
  694SOL    HW2 2095   0.832   2.956   1.412
  695SOL     OW 2096   0.916   2.772   0.291
  695SOL    HW1 2097   0.979   2.810   0.223
  695SOL    HW2 2098   0.956   2.689   0.330
  696SOL     OW 2099   1.504   3.469   0.044
  696SOL    HW1 2100   1.412   3.506   0.051
  696SOL    HW2 2101   1.542   3.489  -0.046
  697SOL     OW 2102   0.372   3.150   1.490
  697SOL    HW1 2103   0.359   3.243   1.456
  697SOL    HW2 2104   0.288   3.098   1.477
  698SOL     OW 2105   1.614   3.154   1.289
  698SOL    HW1 2106   1.674   3.157   1.369
  698SOL    HW2 2107   1.539   3.218   1.302
  699SOL     OW 2108   1.039   2.960   0.696
  699SOL    HW1 2109   0.969   2.913   0.750
  699SOL    HW2 2110   1.098   2.892   0.653
  700SOL     OW 2111   1.014   2.098   0.971
  700SOL    HW1 2112   1.006   2.062   0.878
  700SOL    HW2 2113   1.012   2.022   1.036
  701SOL     OW 2114   0.590   3.349   0.491
  701SOL    HW1 2115   0.632   3.291   0.421
  701SOL    HW2 2116   0.546   3.428   0.447
  702SOL     OW 2117   1.709   2.247   1.381
  702SOL    HW1 2118   1.782   2.316   1.385
  702SOL    HW2 2119   1.737   2.172   1.322
  703SOL     OW 2120   0.255   3.210   0.290
  703SOL    HW1 2121   0.159   3.211   0.263
  703SOL    HW2 2122   0.267   3.263   0.374
  704SOL     OW 2123   0.105   2.875   1.726
  704SOL    HW1 2124   0.028   2.842   1.780
  704SOL    HW2 2125   0.190   2.845   1.768
  705SOL     OW 2126   0.672   2.065   1.489
  705SOL    HW1 2127   0.762   2.049   1.449
  705SOL    HW2 2128   0.680   2.070   1.588
  706SOL     OW 2129   0.075   2.207   0.033
  706SOL    HW1 2130  -0.017   2.179   0.004
  706SOL    HW2 2131   0.106   2.284  -0.023
  707SOL     OW 2132   1.440   2.718   1.398
  707SOL    HW1 2133   1.383   2.770   1.335
  707SOL    HW2 2134   1.536   2.730   1.374
  708SOL     OW 2135   0.072   2.028   0.318
  708SOL    HW1 2136   0.055   2.111   0.264
  708SOL    HW2 2137   0.162   1.991   0.296
  709SOL     OW 2138   1.183   3.197   0.119
  709SOL    HW1 2139   1.084   3.186   0.121
  709SOL    HW2 2140   1.217   3.212   0.212
  710SOL     OW 2141   0.613   2.704   1.431
  710SOL    HW1 2142   0.669   2.785   1.414
  710SOL    HW2 2143   0.672   2.624   1.434
  711SOL     OW 2144   1.493   3.629   0.959
  711SOL    HW1 2145   1.526   3.693   0.890
  711SOL    HW2 2146   1.559   3.623   1.034
  712SOL     OW 2147   0.716   2.427   1.708
  712SOL    HW1 2148   0.735   2.492   1.782
  712SOL    HW2 2149   0.776   2.347   1.717
  713SOL     OW 2150   1.450   3.082   1.633
  713SOL    HW1 2151   1.441   3.072   1.732
  713SOL    HW2 2152   1.546   3.075   1.607
  714SOL     OW 2153   0.390   3.603   1.560
  714SOL    HW1 2154   0.299   3.644   1.558
  714SOL    HW2 2155   0.383   3.509   1.592
  715SOL     OW 2156   1.674   2.745   1.254
  715SOL    HW1 2157   1.647   2.656   1.217
  715SOL    HW2 2158   1.675   2.813   1.181
  716SOL     OW 2159   1.225   2.187   0.449
  716SOL    HW1 2160   1.290   2.113   0.438
  716SOL    HW2 2161   1.245   2.237   0.533
  717SOL     OW 2162   0.594   2.607   0.652
  717SOL    HW1 2163   0.644   2.692   0.633
  717SOL    HW2 2164   0.506   2.609   0.604
  718SOL     OW 2165   1.777   2.204   1.642
  718SOL    HW1 2166   1.760   2.235   1.548
  718SOL    HW2 2167   1.693   2.167   1.680
  719SOL     OW 2168   1.730   2.796   1.517
  719SOL    HW1 2169   1.768   2.887   1.532
  719SOL    HW2 2170   1.722   2.779   1.418
  720SOL     OW 2171   0.859   3.236   0.016
  720SOL    HW1 2172   0.813   3.251   0.104
  720SOL    HW2 2173   0.903   3.321  -0.014
  721SOL     OW 2174   0.661   3.652   0.953
  721SOL    HW1 2175   0.615   3.740   0.940
  721SOL    HW2 2176   0.760   3.664   0.946
  722SOL     OW 2177   0.859   2.818   0.861
  722SOL    HW1 2178   0.913   2.749   0.909
  722SOL    HW2 2179   0.827   2.887   0.927
  723SOL     OW 2180   1.083   2.846   0.087
  723SOL    HW1 2181   1.060   2.899   0.005
  723SOL    HW2 2182   1.164   2.790   0.068
  724SOL     OW 2183   1.861   3.431   0.851
  724SOL    HW1 2184   1.790   3.419   0.781
  724SOL    HW2 2185   1.862   3.352   0.911
  725SOL     OW 2186   0.221   3.176   1.844
  725SOL    HW1 2187   0.156   3.103   1.823
  725SOL    HW2 2188   0.225   3.190   1.942
  726SOL     OW 2189   0.079   3.102   0.653
  726SOL    HW1 2190   0.078   3.055   0.741
  726SOL    HW2 2191   0.161   3.074   0.602
  727SOL     OW 2192   0.672   3.253   1.624
  727SOL    HW1 2193   0.594   3.203   1.662
  727SOL    HW2 2194   0.669   3.348   1.655
  728SOL     OW 2195   1.824   2.054   1.227
  728SOL    HW1 2196   1.820   1.964   1.271
  728SOL    HW2 2197   1.827   2.043   1.128
  729SOL     OW 2198   0.428   2.286   0.520
  729SOL    HW1 2199   0.458   2.214   0.458
  729SOL    HW2 2200   0.389   2.246   0.603
  730SOL     OW 2201   1.705   3.349   1.104
  730SOL    HW1 2202   1.612   3.324   1.077
  730SOL    HW2 2203   1.731   3.299   1.186
  731SOL     OW 2204   0.317   2.409   1.280
  731SOL    HW1 2205   0.355   2.350   1.352
  731SOL    HW2 2206   0.357   2.383   1.192
  732SOL     OW 2207   0.812   3.448   0.687
  732SOL    HW1 2208   0.844   3.458   0.593
  732SOL    HW2 2209   0.733   3.386   0.689
  733SOL     OW 2210   1.424   2.076   1.112
  733SOL    HW1 2211   1.476   2.011   1.167
  733SOL    HW2 2212   1.375   2.139   1.173
  734SOL     OW 2213   1.001   1.896   1.154
  734SOL    HW1 2214   0.938   1.824   1.123
  734SOL    HW2 2215   1.094   1.860   1.154
  735SOL     OW 2216   0.770   3.192   0.301
  735SOL    HW1 2217   0.724   3.105   0.318
  735SOL    HW2 2218   0.861   3.189   0.342
  736SOL     OW 2219   0.618   3.429   1.284
  736SOL    HW1 2220   0.613   3.511   1.341
  736SOL    HW2 2221   0.707   3.426   1.239
  737SOL     OW 2222   1.352   1.914   0.168
  737SOL    HW1 2223   1.387   1.873   0.084
  737SOL    HW2 2224   1.262   1.876   0.188
  738SOL     OW 2225   1.300   2.315   0.691
  738SOL    HW1 2226   1.241   2.395   0.695
  738SOL    HW2 2227   1.315   2.280   0.784
  739SOL     OW 2228   1.593   2.083   0.882
  739SOL    HW1 2229   1.509   2.082   0.936
  739SOL    HW2 2230   1.595   2.166   0.826
  740SOL     OW 2231   0.039   2.939   0.300
  740SOL    HW1 2232   0.138   2.928   0.291
  740SOL    HW2 2233  -0.001   2.853   0.332
  741SOL     OW 2234   0.875   3.508   0.337
  741SOL    HW1 2235   0.798   3.473   0.283
  741SOL    HW2 2236   0.843   3.579   0.399
  742SOL     OW 2237   0.230   2.490   1.975
  742SOL    HW1 2238   0.137   2.488   2.012
  742SOL    HW2 2239   0.231   2.451   1.883
  743SOL     OW 2240   0.225   2.137   2.858
  743SOL    HW1 2241   0.260   2.120   2.950
  743SOL    HW2 2242   0.137   2.092   2.846
  744SOL     OW 2243   0.019   2.230   2.509
  744SOL    HW1 2244  -0.063   2.273   2.548
  744SOL    HW2 2245  -0.009   2.157   2.446
  745SOL     OW 2246   0.569   3.137   3.027
  745SOL    HW1 2247   0.476   3.130   2.990
  745SOL    HW2 2248   0.580   3.226   3.071
  746SOL     OW 2249   1.555   3.373   2.565
  746SOL    HW1 2250   1.498   3.357   2.646
  746SOL    HW2 2251   1.496   3.383   2.485
  747SOL     OW 2252   1.135   2.565   2.579
  747SOL    HW1 2253   1.192   2.643   2.554
  747SOL    HW2 2254   1.075   2.591   2.655
  748SOL     OW 2255   1.755   2.469   2.093
  748SOL    HW1 2256   1.743   2.456   1.994
  748SOL    HW2 2257   1.725   2.388   2.142
  749SOL     OW 2258   0.768   3.006   2.885
  749SOL    HW1 2259   0.690   3.023   2.945
  749SOL    HW2 2260   0.802   3.093   2.849
  750SOL     OW 2261   0.850   2.660   3.685
  750SOL    HW1 2262   0.846   2.736   3.750
  750SOL    HW2 2263   0.872   2.696   3.594
  751SOL     OW 2264   0.685   2.874   2.527
  751SOL    HW1 2265   0.754   2.858   2.597
  751SOL    HW2 2266   0.612   2.931   2.565
  752SOL     OW 2267   0.686   3.023   3.665
  752SOL    HW1 2268   0.746   3.102   3.679
  752SOL    HW2 2269   0.600   3.054   3.624
  753SOL     OW 2270   0.335   3.297   2.923
  753SOL    HW1 2271   0.257   3.266   2.870
  753SOL    HW2 2272   0.393   3.355   2.866
  754SOL     OW 2273   1.460   3.367   3.201
  754SOL    HW1 2274   1.484   3.461   3.227
  754SOL    HW2 2275   1.444   3.313   3.283
  755SOL     OW 2276   0.438   2.254   3.361
  755SOL    HW1 2277   0.520   2.198   3.370
  755SOL    HW2 2278   0.357   2.196   3.365
  756SOL     OW 2279   1.603   2.309   2.599
  756SOL    HW1 2280   1.529   2.355   2.549
  756SOL    HW2 2281   1.654   2.377   2.652
  757SOL     OW 2282   0.231   3.575   2.345
  757SOL    HW1 2283   0.265   3.652   2.399
  757SOL    HW2 2284   0.275   3.575   2.255
  758SOL     OW 2285   1.127   3.203   3.552
  758SOL    HW1 2286   1.174   3.203   3.640
  758SOL    HW2 2287   1.079   3.116   3.541
  759SOL     OW 2288   0.230   3.296   2.400
  759SOL    HW1 2289   0.204   3.392   2.400
  759SOL    HW2 2290   0.159   3.242   2.445
  760SOL     OW 2291   0.240   2.953   2.748
  760SOL    HW1 2292   0.254   2.869   2.800
  760SOL    HW2 2293   0.185   3.017   2.803
  761SOL     OW 2294   0.620   3.648   3.301
  761SOL    HW1 2295   0.528   3.631   3.336
  761SOL    HW2 2296   0.648   3.740   3.327
  762SOL     OW 2297   0.606   2.826   1.985
  762SOL    HW1 2298   0.613   2.910   1.931
  762SOL    HW2 2299   0.652   2.839   2.073
  763SOL     OW 2300   1.594   1.976   3.342
  763SOL    HW1 2301   1.576   2.043   3.270
  763SOL    HW2 2302   1.591   2.022   3.431
  764SOL     OW 2303   0.122   2.505   2.425
  764SOL    HW1 2304   0.077   2.417   2.442
  764SOL    HW2 2305   0.121   2.559   2.509
  765SOL     OW 2306   1.842   3.629   2.221
  765SOL    HW1 2307   1.896   3.600   2.301
  765SOL    HW2 2308   1.872   3.719   2.192
  766SOL     OW 2309   0.027   3.458   1.979
  766SOL    HW1 2310   0.008   3.362   2.000
  766SOL    HW2 2311  -0.006   3.516   2.054
  767SOL     OW 2312   1.689   2.784   2.474
  767SOL    HW1 2313   1.784   2.755   2.482
  767SOL    HW2 2314   1.681   2.849   2.399
  768SOL     OW 2315   1.641   2.970   2.294
  768SOL    HW1 2316   1.727   2.972   2.242
  768SOL    HW2 2317   1.655   3.017   2.382
  769SOL     OW 2318   0.113   2.599   3.459
  769SOL    HW1 2319   0.201   2.586   3.504
  769SOL    HW2 2320   0.100   2.696   3.437
  770SOL     OW 2321   0.613   3.227   2.588
  770SOL    HW1 2322   0.564   3.140   2.597
  770SOL    HW2 2323   0.590   3.270   2.501
  771SOL     OW 2324   1.293   3.090   3.285
  771SOL    HW1 2325   1.330   3.017   3.227
  771SOL    HW2 2326   1.345   3.095   3.370
  772SOL     OW 2327   0.809   1.866   2.364
  772SOL    HW1 2328   0.849   1.957   2.355
  772SOL    HW2 2329   0.709   1.874   2.370
  773SOL     OW 2330   0.197   2.838   3.126
  773SOL    HW1 2331   0.286   2.793   3.112
  773SOL    HW2 2332   0.124   2.773   3.107
  774SOL     OW 2333   1.525   2.861   2.052
  774SOL    HW1 2334   1.462   2.785   2.065
  774SOL    HW2 2335   1.573   2.879   2.138
  775SOL     OW 2336   1.187   3.654   3.478
  775SOL    HW1 2337   1.211   3.714   3.402
  775SOL    HW2 2338   1.194   3.559   3.448
  776SOL     OW 2339   0.317   2.113   3.663
  776SOL    HW1 2340   0.388   2.184   3.669
  776SOL    HW2 2341   0.229   2.152   3.691
  777SOL     OW 2342   1.466   3.279   2.815
  777SOL    HW1 2343   1.407   3.285   2.895
  777SOL    HW2 2344   1.451   3.191   2.769
  778SOL     OW 2345   1.667   3.576   2.434
  778SOL    HW1 2346   1.626   3.553   2.346
  778SOL    HW2 2347   1.649   3.502   2.499
  779SOL     OW 2348   0.598   2.591   2.132
  779SOL    HW1 2349   0.622   2.660   2.064
  779SOL    HW2 2350   0.520   2.624   2.186
  780SOL     OW 2351   1.281   2.207   2.806
  780SOL    HW1 2352   1.195   2.157   2.793
  780SOL    HW2 2353   1.343   2.153   2.862
  781SOL     OW 2354   1.576   3.524   2.169
  781SOL    HW1 2355   1.665   3.570   2.172
  781SOL    HW2 2356   1.555   3.500   2.074
  782SOL     OW 2357   0.807   2.467   3.327
  782SOL    HW1 2358   0.760   2.464   3.416
  782SOL    HW2 2359   0.756   2.412   3.261
  783SOL     OW 2360   1.394   2.331   3.536
  783SOL    HW1 2361   1.374   2.374   3.624
  783SOL    HW2 2362   1.472   2.269   3.545
  784SOL     OW 2363   0.973   2.752   3.434
  784SOL    HW1 2364   1.019   2.668   3.405
  784SOL    HW2 2365   0.917   2.786   3.359
  785SOL     OW 2366   0.991   2.272   3.104
  785SOL    HW1 2367   0.914   2.306   3.158
  785SOL    HW2 2368   0.957   2.221   3.025
  786SOL     OW 2369   1.041   2.563   2.291
  786SOL    HW1 2370   1.067   2.559   2.387
  786SOL    HW2 2371   0.956   2.512   2.277
  787SOL     OW 2372   0.076   2.673   2.651
  787SOL    HW1 2373   0.175   2.661   2.660
  787SOL    HW2 2374   0.052   2.768   2.672
  788SOL     OW 2375   0.130   3.683   3.433
  788SOL    HW1 2376   0.120   3.668   3.532
  788SOL    HW2 2377   0.044   3.719   3.397
  789SOL     OW 2378   0.865   2.210   2.057
  789SOL    HW1 2379   0.924   2.273   2.008
  789SOL    HW2 2380   0.884   2.116   2.028
  790SOL     OW 2381   1.719   2.447   3.693
  790SOL    HW1 2382   1.693   2.536   3.657
  790SOL    HW2 2383   1.717   2.379   3.620
  791SOL     OW 2384   1.362   3.006   2.407
  791SOL    HW1 2385   1.445   2.977   2.359
  791SOL    HW2 2386   1.313   3.073   2.351
  792SOL     OW 2387   0.550   2.058   2.747
  792SOL    HW1 2388   0.545   2.053   2.847
  792SOL    HW2 2389   0.552   2.154   2.718
  793SOL     OW 2390   1.008   3.318   2.339
  793SOL    HW1 2391   0.962   3.390   2.287
  793SOL    HW2 2392   1.004   3.338   2.437
  794SOL     OW 2393   0.351   3.663   2.715
  794SOL    HW1 2394   0.401   3.577   2.721
  794SOL    HW2 2395   0.416   3.740   2.712
  795SOL     OW 2396   1.795   2.928   2.735
  795SOL    HW1 2397   1.733   2.913   2.659
  795SOL    HW2 2398   1.743   2.939   2.820
  796SOL     OW 2399   1.227   3.412   3.368
  796SOL    HW1 2400   1.233   3.335   3.432
  796SOL    HW2 2401   1.175   3.386   3.288
  797SOL     OW 2402   0.321   2.805   2.104
  797SOL    HW1 2403   0.403   2.844   2.062
  797SOL    HW2 2404   0.294   2.723   2.055
  798SOL     OW 2405   1.458   2.597   2.590
  798SOL    HW1 2406   1.453   2.532   2.665
  798SOL    HW2 2407   1.538   2.656   2.603
  799SOL     OW 2408   0.461   3.128   3.589
  799SOL    HW1 2409   0.411   3.129   3.503
  799SOL    HW2 2410   0.398   3.110   3.665
  800SOL     OW 2411   1.111   3.638   2.099
  800SOL    HW1 2412   1.051   3.576   2.149
  800SOL    HW2 2413   1.142   3.594   2.014
  801SOL     OW 2414   0.202   2.147   3.360
  801SOL    HW1 2415   0.122   2.207   3.347
  801SOL    HW2 2416   0.192   2.098   3.446
  802SOL     OW 2417   1.632   3.239   1.943
  802SOL    HW1 2418   1.600   3.333   1.933
  802SOL    HW2 2419   1.556   3.176   1.931
  803SOL     OW 2420   0.464   3.605   2.185
  803SOL    HW1 2421   0.497   3.644   2.271
  803SOL    HW2 2422   0.540   3.598   2.120
  804SOL     OW 2423   1.400   1.969   2.288
  804SOL    HW1 2424   1.376   1.932   2.198
  804SOL    HW2 2425   1.499   1.985   2.292
  805SOL     OW 2426   0.249   3.647   3.103
  805SOL    HW1 2427   0.306   3.582   3.153
  805SOL    HW2 2428   0.233   3.614   3.010
  806SOL     OW 2429   0.940   3.560   2.766
  806SOL    HW1 2430   1.020   3.503   2.787
  806SOL    HW2 2431   0.891   3.520   2.689
  807SOL     OW 2432   0.382   2.562   2.342
  807SOL    HW1 2433   0.427   2.472   2.339
  807SOL    HW2 2434   0.288   2.551   2.375
  808SOL     OW 2435   1.547   2.084   3.591
  808SOL    HW1 2436   1.542   2.121   3.683
  808SOL    HW2 2437   1.475   2.015   3.579
  809SOL     OW 2438   0.614   1.984   1.979
  809SOL    HW1 2439   0.712   1.962   1.986
  809SOL    HW2 2440   0.583   1.967   1.886
  810SOL     OW 2441   0.781   2.126   3.611
  810SOL    HW1 2442   0.848   2.065   3.654
  810SOL    HW2 2443   0.708   2.145   3.676
  811SOL     OW 2444   0.888   3.376   3.057
  811SOL    HW1 2445   0.865   3.351   2.963
  811SOL    HW2 2446   0.949   3.307   3.096
  812SOL     OW 2447   1.351   2.452   3.295
  812SOL    HW1 2448   1.379   2.409   3.380
  812SOL    HW2 2449   1.376   2.548   3.296
  813SOL     OW 2450   0.803   3.264   2.786
  813SOL    HW1 2451   0.893   3.278   2.744
  813SOL    HW2 2452   0.732   3.266   2.715
  814SOL     OW 2453   0.922   2.365   2.761
  814SOL    HW1 2454   0.897   2.356   2.665
  814SOL    HW2 2455   0.970   2.283   2.792
  815SOL     OW 2456   0.539   1.926   2.374
  815SOL    HW1 2457   0.458   1.927   2.432
  815SOL    HW2 2458   0.542   2.009   2.319
  816SOL     OW 2459   1.434   3.050   1.903
  816SOL    HW1 2460   1.466   2.974   1.960
  816SOL    HW2 2461   1.342   3.077   1.933
  817SOL     OW 2462   0.297   1.897   2.033
  817SOL    HW1 2463   0.346   1.981   2.012
  817SOL    HW2 2464   0.359   1.832   2.078
  818SOL     OW 2465   0.935   2.098   2.342
  818SOL    HW1 2466   0.887   2.139   2.264
  818SOL    HW2 2467   1.034   2.096   2.323
  819SOL     OW 2468   1.076   2.545   3.326
  819SOL    HW1 2469   0.996   2.484   3.329
  819SOL    HW2 2470   1.157   2.492   3.302
  820SOL     OW 2471   1.227   3.432   2.655
  820SOL    HW1 2472   1.248   3.506   2.590
  820SOL    HW2 2473   1.295   3.432   2.728
  821SOL     OW 2474   0.459   3.014   2.603
  821SOL    HW1 2475   0.388   2.987   2.668
  821SOL    HW2 2476   0.433   2.986   2.510
  822SOL     OW 2477   1.271   3.659   2.453
  822SOL    HW1 2478   1.315   3.723   2.389
  822SOL    HW2 2479   1.221   3.711   2.523
  823SOL     OW 2480   1.032   2.411   1.878
  823SOL    HW1 2481   0.991   2.493   1.839
  823SOL    HW2 2482   1.096   2.437   1.951
  824SOL     OW 2483   0.078   2.418   3.248
  824SOL    HW1 2484   0.170   2.417   3.207
  824SOL    HW2 2485   0.072   2.492   3.315
  825SOL     OW 2486   0.561   2.084   3.009
  825SOL    HW1 2487   0.599   2.000   3.046
  825SOL    HW2 2488   0.473   2.103   3.053
  826SOL     OW 2489   0.866   2.316   2.504
  826SOL    HW1 2490   0.834   2.388   2.442
  826SOL    HW2 2491   0.890   2.235   2.451
  827SOL     OW 2492   1.017   1.901   2.615
  827SOL    HW1 2493   0.945   1.906   2.546
  827SOL    HW2 2494   0.993   1.832   2.684
  828SOL     OW 2495   1.429   3.035   2.729
  828SOL    HW1 2496   1.374   2.951   2.722
  828SOL    HW2 2497   1.455   3.064   2.637
  829SOL     OW 2498   1.466   2.452   2.854
  829SOL    HW1 2499   1.436   2.357   2.861
  829SOL    HW2 2500   1.539   2.468   2.920
  830SOL     OW 2501   1.857   2.695   2.239
  830SOL    HW1 2502   1.899   2.631   2.303
  830SOL    HW2 2503   1.819   2.644   2.161
  831SOL     OW 2504   0.488   3.247   2.036
  831SOL    HW1 2505   0.401   3.232   2.083
  831SOL    HW2 2506   0.471   3.273   1.941
  832SOL     OW 2507   1.664   3.142   2.519
  832SOL    HW1 2508   1.763   3.150   2.533
  832SOL    HW2 2509   1.619   3.226   2.550
  833SOL     OW 2510   1.390   2.437   1.940
  833SOL    HW1 2511   1.336   2.416   2.021
  833SOL    HW2 2512   1.481   2.396   1.949
  834SOL     OW 2513   0.527   2.118   2.190
  834SOL    HW1 2514   0.554   2.059   2.115
  834SOL    HW2 2515   0.527   2.213   2.159
  835SOL     OW 2516   1.754   3.085   3.450
  835SOL    HW1 2517   1.845   3.046   3.437
  835SOL    HW2 2518   1.762   3.181   3.474
  836SOL     OW 2519   1.064   3.209   3.202
  836SOL    HW1 2520   0.984   3.186   3.257
  836SOL    HW2 2521   1.147   3.183   3.251
  837SOL     OW 2522   1.592   3.491   3.487
  837SOL    HW1 2523   1.619   3.525   3.397
  837SOL    HW2 2524   1.671   3.453   3.533
  838SOL     OW 2525   1.111   3.057   2.962
  838SOL    HW1 2526   1.071   3.101   3.043
  838SOL    HW2 2527   1.070   3.094   2.879
  839SOL     OW 2528   1.638   2.961   2.941
  839SOL    HW1 2529   1.643   3.042   3.000
  839SOL    HW2 2530   1.552   2.963   2.890
  840SOL     OW 2531   0.915   1.951   3.264
  840SOL    HW1 2532   0.940   1.931   3.169
  840SOL    HW2 2533   0.987   2.007   3.306
  841SOL     OW 2534   0.980   2.978   3.581
  841SOL    HW1 2535   0.881   2.984   3.591
  841SOL    HW2 2536   1.003   2.898   3.525
  842SOL     OW 2537   0.705   2.912   2.230
  842SOL    HW1 2538   0.691   2.919   2.329
  842SOL    HW2 2539   0.789   2.861   2.212
  843SOL     OW 2540   0.410   2.675   3.113
  843SOL    HW1 2541   0.496   2.687   3.163
  843SOL    HW2 2542   0.368   2.588   3.140
  844SOL     OW 2543   1.274   2.248   3.124
  844SOL    HW1 2544   1.295   2.322   3.188
  844SOL    HW2 2545   1.185   2.265   3.081
  845SOL     OW 2546   0.064   3.426   3.193
  845SOL    HW1 2547   0.018   3.508   3.159
  845SOL    HW2 2548   0.162   3.445   3.202
  846SOL     OW 2549   0.367   2.962   2.363
  846SOL    HW1 2550   0.360   3.045   2.307
  846SOL    HW2 2551   0.371   2.882   2.303
  847SOL     OW 2552   0.566   2.399   2.727
  847SOL    HW1 2553   0.578   2.465   2.653
  847SOL    HW2 2554   0.612   2.433   2.810
  848SOL     OW 2555   1.252   3.210   2.250
  848SOL    HW1 2556   1.302   3.287   2.290
  848SOL    HW2 2557   1.157   3.212   2.282
  849SOL     OW 2558   1.272   3.307   3.004
  849SOL    HW1 2559   1.319   3.320   3.091
  849SOL    HW2 2560   1.206   3.233   3.013
  850SOL     OW 2561   1.582   2.501   2.334
  850SOL    HW1 2562   1.551   2.562   2.407
  850SOL    HW2 2563   1.632   2.553   2.265
  851SOL     OW 2564   0.354   3.372   3.191
  851SOL    HW1 2565   0.333   3.328   3.104
  851SOL    HW2 2566   0.451   3.398   3.194
  852SOL     OW 2567   0.402   2.613   3.460
  852SOL    HW1 2568   0.470   2.668   3.413
  852SOL    HW2 2569   0.442   2.525   3.487
  853SOL     OW 2570   1.587   2.641   3.532
  853SOL    HW1 2571   1.495   2.679   3.527
  853SOL    HW2 2572   1.647   2.688   3.467
  854SOL     OW 2573   1.013   1.967   3.632
  854SOL    HW1 2574   1.019   2.052   3.580
  854SOL    HW2 2575   1.045   1.891   3.575
  855SOL     OW 2576   0.504   1.912   3.602
  855SOL    HW1 2577   0.462   1.855   3.532
  855SOL    HW2 2578   0.438   1.981   3.634
  856SOL     OW 2579   0.573   2.732   2.891
  856SOL    HW1 2580   0.617   2.821   2.882
  856SOL    HW2 2581   0.510   2.732   2.968
  857SOL     OW 2582   1.360   2.724   2.907
  857SOL    HW1 2583   1.285   2.724   2.841
  857SOL    HW2 2584   1.397   2.632   2.916
  858SOL     OW 2585   1.209   2.387   2.137
  858SOL    HW1 2586   1.222   2.303   2.191
  858SOL    HW2 2587   1.180   2.461   2.197
  859SOL     OW 2588   0.307   2.075   3.093
  859SOL    HW1 2589   0.284   2.112   3.183
  859SOL    HW2 2590   0.277   1.980   3.087
  860SOL     OW 2591   0.037   3.172   3.144
  860SOL    HW1 2592   0.090   3.123   3.212
  860SOL    HW2 2593   0.059   3.270   3.149
  861SOL     OW 2594   0.732   2.496   2.926
  861SOL    HW1 2595   0.791   2.470   2.850
  861SOL    HW2 2596   0.704   2.592   2.915
  862SOL     OW 2597   1.728   2.797   3.716
  862SOL    HW1 2598   1.682   2.790   3.627
  862SOL    HW2 2599   1.666   2.841   3.782
  863SOL     OW 2600   0.307   1.925   2.480
  863SOL    HW1 2601   0.296   2.019   2.513
  863SOL    HW2 2602   0.302   1.862   2.557
  864SOL     OW 2603   1.622   2.229   2.236
  864SOL    HW1 2604   1.624   2.153   2.300
  864SOL    HW2 2605   1.574   2.306   2.276
  865SOL     OW 2606   1.023   2.628   2.828
  865SOL    HW1 2607   1.038   2.649   2.924
  865SOL    HW2 2608   0.993   2.533   2.819
  866SOL     OW 2609   0.980   3.435   3.562
  866SOL    HW1 2610   0.960   3.479   3.474
  866SOL    HW2 2611   1.019   3.344   3.546
  867SOL     OW 2612   1.859   3.380   3.467
  867SOL    HW1 2613   1.873   3.407   3.372
  867SOL    HW2 2614   1.942   3.402   3.520
  868SOL     OW 2615   0.350   2.760   3.666
  868SOL    HW1 2616   0.426   2.804   3.714
  868SOL    HW2 2617   0.385   2.713   3.584
  869SOL     OW 2618   1.540   2.136   1.987
  869SOL    HW1 2619   1.479   2.061   2.010
  869SOL    HW2 2620   1.562   2.188   2.070
  870SOL     OW 2621   1.303   2.700   1.904
  870SOL    HW1 2622   1.337   2.607   1.919
  870SOL    HW2 2623   1.321   2.727   1.809
  871SOL     OW 2624   1.068   3.195   2.711
  871SOL    HW1 2625   1.075   3.111   2.656
  871SOL    HW2 2626   1.130   3.264   2.675
  872SOL     OW 2627   0.319   2.672   2.811
  872SOL    HW1 2628   0.412   2.708   2.816
  872SOL    HW2 2629   0.313   2.587   2.863
  873SOL     OW 2630   0.339   2.371   2.868
  873SOL    HW1 2631   0.287   2.288   2.851
  873SOL    HW2 2632   0.416   2.376   2.804
  874SOL     OW 2633   1.138   2.242   3.540
  874SOL    HW1 2634   1.093   2.305   3.604
  874SOL    HW2 2635   1.231   2.273   3.523
  875SOL     OW 2636   1.160   2.069   3.339
  875SOL    HW1 2637   1.160   2.133   3.416
  875SOL    HW2 2638   1.188   2.117   3.256
  876SOL     OW 2639   0.008   3.188   2.062
  876SOL    HW1 2640  -0.085   3.209   2.031
  876SOL    HW2 2641   0.018   3.089   2.075
  877SOL     OW 2642   0.088   3.663   2.789
  877SOL    HW1 2643   0.046   3.577   2.762
  877SOL    HW2 2644   0.182   3.666   2.755
  878SOL     OW 2645   0.504   3.430   2.772
  878SOL    HW1 2646   0.570   3.504   2.781
  878SOL    HW2 2647   0.548   3.351   2.730
  879SOL     OW 2648   1.002   2.658   3.100
  879SOL    HW1 2649   1.043   2.626   3.186
  879SOL    HW2 2650   0.906   2.631   3.097
  880SOL     OW 2651   0.040   2.406   2.976
  880SOL    HW1 2652   0.125   2.373   2.935
  880SOL    HW2 2653   0.053   2.421   3.074
  881SOL     OW 2654   0.189   2.382   3.584
  881SOL    HW1 2655   0.248   2.342   3.514
  881SOL    HW2 2656   0.131   2.453   3.543
  882SOL     OW 2657   1.369   2.812   3.522
  882SOL    HW1 2658   1.408   2.901   3.542
  882SOL    HW2 2659   1.379   2.792   3.425
  883SOL     OW 2660   0.815   2.434   2.187
  883SOL    HW1 2661   0.822   2.345   2.141
  883SOL    HW2 2662   0.721   2.468   2.179
  884SOL     OW 2663   1.657   2.466   3.068
  884SOL    HW1 2664   1.619   2.397   3.130
  884SOL    HW2 2665   1.739   2.430   3.024
  885SOL     OW 2666   0.252   3.426   3.606
  885SOL    HW1 2667   0.222   3.483   3.682
  885SOL    HW2 2668   0.245   3.329   3.632
  886SOL     OW 2669   0.671   2.326   3.131
  886SOL    HW1 2670   0.637   2.237   3.101
  886SOL    HW2 2671   0.697   2.380   3.051
  887SOL     OW 2672   0.930   3.540   3.327
  887SOL    HW1 2673   0.906   3.522   3.232
  887SOL    HW2 2674   0.960   3.634   3.337
  888SOL     OW 2675   0.473   2.362   2.053
  888SOL    HW1 2676   0.534   2.442   2.057
  888SOL    HW2 2677   0.378   2.393   2.060
  889SOL     OW 2678   0.159   2.999   3.328
  889SOL    HW1 2679   0.181   2.938   3.404
  889SOL    HW2 2680   0.169   2.950   3.242
  890SOL     OW 2681   1.347   2.921   3.096
  890SOL    HW1 2682   1.371   2.858   3.022
  890SOL    HW2 2683   1.257   2.961   3.078
  891SOL     OW 2684   1.302   2.717   2.171
  891SOL    HW1 2685   1.216   2.686   2.213
  891SOL    HW2 2686   1.298   2.703   2.072
  892SOL     OW 2687   1.759   3.609   3.016
  892SOL    HW1 2688   1.820   3.639   2.943
  892SOL    HW2 2689   1.721   3.520   2.994
  893SOL     OW 2690   1.252   3.593   2.990
  893SOL    HW1 2691   1.336   3.598   2.936
  893SOL    HW2 2692   1.229   3.497   3.008
  894SOL     OW 2693   0.083   3.120   2.884
  894SOL    HW1 2694   0.078   3.119   2.984
  894SOL    HW2 2695   0.000   3.079   2.846
  895SOL     OW 2696   0.688   3.524   3.578
  895SOL    HW1 2697   0.632   3.605   3.587
  895SOL    HW2 2698   0.740   3.528   3.492
  896SOL     OW 2699   1.726   1.997   2.385
  896SOL    HW1 2700   1.799   1.980   2.318
  896SOL    HW2 2701   1.695   1.910   2.423
  897SOL     OW 2702   1.388   3.435   2.339
  897SOL    HW1 2703   1.455   3.447   2.265
  897SOL    HW2 2704   1.348   3.524   2.362
  898SOL     OW 2705   0.130   3.656   3.713
  898SOL    HW1 2706   0.089   3.582   3.766
  898SOL    HW2 2707   0.194   3.707   3.771
  899SOL     OW 2708   1.280   2.789   2.534
  899SOL    HW1 2709   1.340   2.708   2.536
  899SOL    HW2 2710   1.320   2.858   2.474
  900SOL     OW 2711   0.830   3.135   3.284
  900SOL    HW1 2712   0.825   3.168   3.379
  900SOL    HW2 2713   0.744   3.154   3.238
  901SOL     OW 2714   0.672   3.478   2.016
  901SOL    HW1 2715   0.681   3.488   1.917
  901SOL    HW2 2716   0.632   3.389   2.037
  902SOL     OW 2717   1.650   3.582   3.256
  902SOL    HW1 2718   1.703   3.592   3.172
  902SOL    HW2 2719   1.623   3.672   3.290
  903SOL     OW 2720   1.841   2.037   2.825
  903SOL    HW1 2721   1.880   1.952   2.789
  903SOL    HW2 2722   1.743   2.039   2.806
  904SOL     OW 2723   0.263   2.188   2.582
  904SOL    HW1 2724   0.184   2.239   2.548
  904SOL    HW2 2725   0.254   2.173   2.680
  905SOL     OW 2726   1.194   3.474   1.893
  905SOL    HW1 2727   1.200   3.381   1.930
  905SOL    HW2 2728   1.135   3.474   1.813
  906SOL     OW 2729   0.822   2.864   3.234
  906SOL    HW1 2730   0.862   2.863   3.142
  906SOL    HW2 2731   0.832   2.956   3.274
  907SOL     OW 2732   0.916   2.772   2.153
  907SOL    HW1 2733   0.979   2.810   2.085
  907SOL    HW2 2734   0.956   2.689   2.192
  908SOL     OW 2735   1.504   3.469   1.906
  908SOL    HW1 2736   1.412   3.506   1.913
  908SOL    HW2 2737   1.542   3.489   1.816
  909SOL     OW 2738   0.372   3.150   3.352
  909SOL    HW1 2739   0.359   3.243   3.318
  909SOL    HW2 2740   0.288   3.098   3.339
  910SOL     OW 2741   1.614   3.154   3.151
  910SOL    HW1 2742   1.674   3.157   3.231
  910SOL    HW2 2743   1.539   3.218   3.164
  911SOL     OW 2744   1.039   2.960   2.558
  911SOL    HW1 2745   0.969   2.913   2.612
  911SOL    HW2 2746   1.098   2.892   2.515
  912SOL     OW 2747   1.014   2.098   2.833
  912SOL    HW1 2748   1.006   2.062   2.740
  912SOL    HW2 2749   1.012   2.022   2.898
  913SOL     OW 2750   0.590   3.349   2.353
  913SOL    HW1 2751   0.632   3.291   2.283
  913SOL    HW2 2752   0.546   3.428   2.309
  914SOL     OW 2753   1.709   2.247   3.243
  914SOL    HW1 2754   1.782   2.316   3.247
  914SOL    HW2 2755   1.737   2.172   3.184
  915SOL     OW 2756   0.255   3.210   2.152
  915SOL    HW1 2757   0.159   3.211   2.125
  915SOL    HW2 2758   0.267   3.263   2.236
  916SOL     OW 2759   0.105   2.875   3.588
  916SOL    HW1 2760   0.028   2.842   3.642
  916SOL    HW2 2761   0.190   2.845   3.630
  917SOL     OW 2762   0.672   2.065   3.351
  917SOL    HW1 2763   0.762   2.049   3.311
  917SOL    HW2 2764   0.680   2.070   3.450
  918SOL     OW 2765   0.075   2.207   1.895
  918SOL    HW1 2766  -0.017   2.179   1.866
  918SOL    HW2 2767   0.106   2.284   1.839
  919SOL     OW 2768   1.440   2.718   3.260
  919SOL    HW1 2769   1.383   2.770   3.197
  919SOL    HW2 2770   1.536   2.730   3.236
  920SOL     OW 2771   0.072   2.028   2.180
  920SOL    HW1 2772   0.055   2.111   2.126
  920SOL    HW2 2773   0.162   1.991   2.158
  921SOL     OW 2774   1.183   3.197   1.981
  921SOL    HW1 2775   1.084   3.186   1.983
  921SOL    HW2 2776   1.217   3.212   2.074
  922SOL     OW 2777   0.613   2.704   3.293
  922SOL    HW1 2778   0.669   2.785   3.276
  922SOL    HW2 2779   0.672   2.624   3.296
  923SOL     OW 2780   1.493   3.629   2.821
  923SOL    HW1 2781   1.526   3.693   2.752
  923SOL    HW2 2782   1.559   3.623   2.896
  924SOL     OW 2783   0.716   2.427   3.570
  924SOL    HW1 2784   0.735   2.492   3.644
  924SOL    HW2 2785   0.776   2.347   3.579
  925SOL     OW 2786   1.450   3.082   3.495
  925SOL    HW1 2787   1.441   3.072   3.594
  925SOL    HW2 2788   1.546   3.075   3.469
  926SOL     OW 2789   0.390   3.603   3.422
  926SOL    HW1 2790   0.299   3.644   3.420
  926SOL    HW2 2791   0.383   3.509   3.454
  927SOL     OW 2792   1.674   2.745   3.116
  927SOL    HW1 2793   1.647   2.656   3.079
  927SOL    HW2 2794   1.675   2.813   3.043
  928SOL     OW 2795   1.225   2.187   2.311
  928SOL    HW1 2796   1.290   2.113   2.300
  928SOL    HW2 2797   1.245   2.237   2.395
  929SOL     OW 2798   0.594   2.607   2.514
  929SOL    HW1 2799   0.644   2.692   2.495
  929SOL    HW2 2800   0.506   2.609   2.466
  930SOL     OW 2801   1.777   2.204   3.504
  930SOL    HW1 2802   1.760   2.235   3.410
  930SOL    HW2 2803   1.693   2.167   3.542
  931SOL     OW 2804   1.730   2.796   3.379
  931SOL    HW1 2805   1.768   2.887   3.394
  931SOL    HW2 2806   1.722   2.779   3.280
  932SOL     OW 2807   0.859   3.236   1.878
  932SOL    HW1 2808   0.813   3.251   1.966
  932SOL    HW2 2809   0.903   3.321   1.848
  933SOL     OW 2810   0.661   3.652   2.815
  933SOL    HW1 2811   0.615   3.740   2.802
  933SOL    HW2 2812   0.760   3.664   2.808
  934SOL     OW 2813   0.859   2.818   2.723
  934SOL    HW1 2814   0.913   2.749   2.771
  934SOL    HW2 2815   0.827   2.887   2.789
  935SOL     OW 2816   1.083   2.846   1.949
  935SOL    HW1 2817   1.060   2.899   1.867
  935SOL    HW2 2818   1.164   2.790   1.930
  936SOL     OW 2819   1.861   3.431   2.713
  936SOL    HW1 2820   1.790   3.419   2.643
  936SOL    HW2 2821   1.862   3.352   2.773
  937SOL     OW 2822   0.221   3.176   3.706
  937SOL    HW1 2823   0.156   3.103   3.685
  937SOL    HW2 2824   0.225   3.190   3.804
  938SOL     OW 2825   0.079   3.102   2.515
  938SOL    HW1 2826   0.078   3.055   2.603
  938SOL    HW2 2827   0.161   3.074   2.464
  939SOL     OW 2828   0.672   3.253   3.486
  939SOL    HW1 2829   0.594   3.203   3.524
  939SOL    HW2 2830   0.669   3.348   3.517
  940SOL     OW 2831   1.824   2.054   3.089
  940SOL    HW1 2832   1.820   1.964   3.133
  940SOL    HW2 2833   1.827   2.043   2.990
  941SOL     OW 2834   0.428   2.286   2.382
  941SOL    HW1 2835   0.458   2.214   2.320
  941SOL    HW2 2836   0.389   2.246   2.465
  942SOL     OW 2837   1.705   3.349   2.966
  942SOL    HW1 2838   1.612   3.324   2.939
  942SOL    HW2 2839   1.731   3.299   3.048
  943SOL     OW 2840   0.317   2.409   3.142
  943SOL    HW1 2841   0.355   2.350   3.214
  943SOL    HW2 2842   0.357   2.383   3.054
  944SOL     OW 2843   0.812   3.448   2.549
  944SOL    HW1 2844   0.844   3.458   2.455
  944SOL    HW2 2845   0.733   3.386   2.551
  945SOL     OW 2846   1.424   2.076   2.974
  945SOL    HW1 2847   1.476   2.011   3.029
  945SOL    HW2 2848   1.375   2.139   3.035
  946SOL     OW 2849   1.001   1.896   3.016
  946SOL    HW1 2850   0.938   1.824   2.985
  946SOL    HW2 2851   1.094   1.860   3.016
  947SOL     OW 2852   0.770   3.192   2.163
  947SOL    HW1 2853   0.724   3.105   2.180
  947SOL    HW2 2854   0.861   3.189   2.204
  948SOL     OW 2855   0.618   3.429   3.146
  948SOL    HW1 2856   0.613   3.511   3.203
  948SOL    HW2 2857   0.707   3.426   3.101
  949SOL     OW 2858   1.352   1.914   2.030
  949SOL    HW1 2859   1.387   1.873   1.946
  949SOL    HW2 2860   1.262   1.876   2.050
  950SOL     OW 2861   1.300   2.315   2.553
  950SOL    HW1 2862   1.241   2.395   2.557
  950SOL    HW2 2863   1.315   2.280   2.646
  951SOL     OW 2864   1.593   2.083   2.744
  951SOL    HW1 2865   1.509   2.082   2.798
  951SOL    HW2 2866   1.595   2.166   2.688
  952SOL     OW 2867   0.039   2.939   2.162
  952SOL    HW1 2868   0.138   2.928   2.153
  952SOL    HW2 2869  -0.001   2.853   2.194
  953SOL     OW 2870   0.875   3.508   2.199
  953SOL    HW1 2871   0.798   3.473   2.145
  953SOL    HW2 2872   0.843   3.579   2.261
  954SOL     OW 2873   0.230   2.490   3.837
  954SOL    HW1 2874   0.137   2.488   3.874
  954SOL    HW2 2875   0.231   2.451   3.745
  955SOL     OW 2876   0.019   2.230   4.371
  955SOL    HW1 2877  -0.063   2.273   4.410
  955SOL    HW2 2878  -0.009   2.157   4.308
  956SOL     OW 2879   1.555   3.373   4.427
  956SOL    HW1 2880   1.498   3.357   4.508
  956SOL    HW2 2881   1.496   3.383   4.347
  957SOL     OW 2882   1.135   2.565   4.441
  957SOL    HW1 2883   1.192   2.643   4.416
  957SOL    HW2 2884   1.075   2.591   4.517
  958SOL     OW 2885   1.755   2.469   3.955
  958SOL    HW1 2886   1.743   2.456   3.856
  958SOL    HW2 2887   1.725   2.388   4.004
  959SOL     OW 2888   0.685   2.874   4.389
  959SOL    HW1 2889   0.754   2.858   4.459
  959SOL    HW2 2890   0.612   2.931   4.427
  960SOL     OW 2891   1.603   2.309   4.461
  960SOL    HW1 2892   1.529   2.355   4.411
  960SOL    HW2 2893   1.654   2.377   4.514
  961SOL     OW 2894   0.231   3.575   4.207
  961SOL    HW1 2895   0.265   3.652   4.261
  961SOL    HW2 2896   0.275   3.575   4.117
  962SOL     OW 2897   0.230   3.296   4.262
  962SOL    HW1 2898   0.204   3.392   4.262
  962SOL    HW2 2899   0.159   3.242   4.307
  963SOL     OW 2900   0.240   2.953   4.610
  963SOL    HW1 2901   0.254   2.869   4.662
  963SOL    HW2 2902   0.185   3.017   4.665
  964SOL     OW 2903   0.606   2.826   3.847
  964SOL    HW1 2904   0.613   2.910   3.793
  964SOL    HW2 2905   0.652   2.839   3.935
  965SOL     OW 2906   0.122   2.505   4.287
  965SOL    HW1 2907   0.077   2.417   4.304
  965SOL    HW2 2908   0.121   2.559   4.371
  966SOL     OW 2909   1.842   3.629   4.083
  966SOL    HW1 2910   1.896   3.600   4.163
  966SOL    HW2 2911   1.872   3.719   4.054
  967SOL     OW 2912   0.027   3.458   3.841
  967SOL    HW1 2913   0.008   3.362   3.862
  967SOL    HW2 2914  -0.006   3.516   3.916
  968SOL     OW 2915   1.689   2.784   4.336
  968SOL    HW1 2916   1.784   2.755   4.344
  968SOL    HW2 2917   1.681   2.849   4.261
  969SOL     OW 2918   1.641   2.970   4.156
  969SOL    HW1 2919   1.727   2.972   4.104
  969SOL    HW2 2920   1.655   3.017   4.244
  970SOL     OW 2921   0.613   3.227   4.450
  970SOL    HW1 2922   0.564   3.140   4.459
  970SOL    HW2 2923   0.590   3.270   4.363
  971SOL     OW 2924   0.809   1.866   4.226
  971SOL    HW1 2925   0.849   1.957   4.217
  971SOL    HW2 2926   0.709   1.874   4.232
  972SOL     OW 2927   1.525   2.861   3.914
  972SOL    HW1 2928   1.462   2.785   3.927
  972SOL    HW2 2929   1.573   2.879   4.000
  973SOL     OW 2930   1.466   3.279   4.677
  973SOL    HW1 2931   1.407   3.285   4.757
  973SOL    HW2 2932   1.451   3.191   4.631
  974SOL     OW 2933   1.667   3.576   4.296
  974SOL    HW1 2934   1.626   3.553   4.208
  974SOL    HW2 2935   1.649   3.502   4.361
  975SOL     OW 2936   0.598   2.591   3.994
  975SOL    HW1 2937   0.622   2.660   3.926
  975SOL    HW2 2938   0.520   2.624   4.048
  976SOL     OW 2939   1.281   2.207   4.668
  976SOL    HW1 2940   1.195   2.157   4.655
  976SOL    HW2 2941   1.343   2.153   4.724
  977SOL     OW 2942   1.576   3.524   4.031
  977SOL    HW1 2943   1.665   3.570   4.034
  977SOL    HW2 2944   1.555   3.500   3.936
  978SOL     OW 2945   1.041   2.563   4.153
  978SOL    HW1 2946   1.067   2.559   4.249
  978SOL    HW2 2947   0.956   2.512   4.139
  979SOL     OW 2948   0.076   2.673   4.513
  979SOL    HW1 2949   0.175   2.661   4.522
  979SOL    HW2 2950   0.052   2.768   4.534
  980SOL     OW 2951   0.865   2.210   3.919
  980SOL    HW1 2952   0.924   2.273   3.870
  980SOL    HW2 2953   0.884   2.116   3.890
  981SOL     OW 2954   1.362   3.006   4.269
  981SOL    HW1 2955   1.445   2.977   4.221
  981SOL    HW2 2956   1.313   3.073   4.213
  982SOL     OW 2957   0.550   2.058   4.609
  982SOL    HW1 2958   0.545   2.053   4.709
  982SOL    HW2 2959   0.552   2.154   4.580
  983SOL     OW 2960   1.008   3.318   4.201
  983SOL    HW1 2961   0.962   3.390   4.149
  983SOL    HW2 2962   1.004   3.338   4.299
  984SOL     OW 2963   0.351   3.663   4.577
  984SOL    HW1 2964   0.401   3.577   4.583
  984SOL    HW2 2965   0.416   3.740   4.574
  985SOL     OW 2966   1.795   2.928   4.597
  985SOL    HW1 2967   1.733   2.913   4.521
  985SOL    HW2 2968   1.743   2.939   4.682
  986SOL     OW 2969   0.321   2.805   3.966
  986SOL    HW1 2970   0.403   2.844   3.924
  986SOL    HW2 2971   0.294   2.723   3.917
  987SOL     OW 2972   1.458   2.597   4.452
  987SOL    HW1 2973   1.453   2.532   4.527
  987SOL    HW2 2974   1.538   2.656   4.465
  988SOL     OW 2975   1.111   3.638   3.961
  988SOL    HW1 2976   1.051   3.576   4.011
  988SOL    HW2 2977   1.142   3.594   3.876
  989SOL     OW 2978   1.632   3.239   3.805
  989SOL    HW1 2979   1.600   3.333   3.795
  989SOL    HW2 2980   1.556   3.176   3.793
  990SOL     OW 2981   0.464   3.605   4.047
  990SOL    HW1 2982   0.497   3.644   4.133
  990SOL    HW2 2983   0.540   3.598   3.982
  991SOL     OW 2984   1.400   1.969   4.150
  991SOL    HW1 2985   1.376   1.932   4.060
  991SOL    HW2 2986   1.499   1.985   4.154
  992SOL     OW 2987   0.382   2.562   4.204
  992SOL    HW1 2988   0.427   2.472   4.201
  992SOL    HW2 2989   0.288   2.551   4.237
  993SOL     OW 2990   0.614   1.984   3.841
  993SOL    HW1 2991   0.712   1.962   3.848
  993SOL    HW2 2992   0.583   1.967   3.748
  994SOL     OW 2993   0.539   1.926   4.236
  994SOL    HW1 2994   0.458   1.927   4.294
  994SOL    HW2 2995   0.542   2.009   4.181
  995SOL     OW 2996   1.434   3.050   3.765
  995SOL    HW1 2997   1.466   2.974   3.822
  995SOL    HW2 2998   1.342   3.077   3.795
  996SOL     OW 2999   0.297   1.897   3.895
  996SOL    HW1 3000   0.346   1.981   3.874
  996SOL    HW2 3001   0.359   1.832   3.940
  997SOL     OW 3002   0.935   2.098   4.204
  997SOL    HW1 3003   0.887   2.139   4.126
  997SOL    HW2 3004   1.034   2.096   4.185
  998SOL     OW 3005   0.459   3.014   4.465
  998SOL    HW1 3006   0.388   2.987   4.530
  998SOL    HW2 3007   0.433   2.986   4.372
  999SOL     OW 3008   1.271   3.659   4.315
  999SOL    HW1 3009   1.315   3.723   4.251
  999SOL    HW2 3010   1.221   3.711   4.385
 1000SOL     OW 3011   1.032   2.411   3.740
 1000SOL    HW1 3012   0.991   2.493   3.701
 1000SOL    HW2 3013   1.096   2.437   3.813
 1001SOL     OW 3014   0.866   2.316   4.366
 1001SOL    HW1 3015   0.834   2.388   4.304
 1001SOL    HW2 3016   0.890   2.235   4.313
 1002SOL     OW 3017   1.017   1.901   4.477
 1002SOL    HW1 3018   0.945   1.906   4.408
 1002SOL    HW2 3019   0.993   1.832   4.546
 1003SOL     OW 3020   1.857   2.695   4.101
 1003SOL    HW1 3021   1.899   2.631   4.165
 1003SOL    HW2 3022   1.819   2.644   4.023
 1004SOL     OW 3023   0.488   3.247   3.898
 1004SOL    HW1 3024   0.401   3.232   3.945
 1004SOL    HW2 3025   0.471   3.273   3.803
 1005SOL     OW 3026   1.664   3.142   4.381
 1005SOL    HW1 3027   1.763   3.150   4.395
 1005SOL    HW2 3028   1.619   3.226   4.412
 1006SOL     OW 3029   1.390   2.437   3.802
 1006SOL    HW1 3030   1.336   2.416   3.883
 1006SOL    HW2 3031   1.481   2.396   3.811
 1007SOL     OW 3032   0.527   2.118   4.052
 1007SOL    HW1 3033   0.554   2.059   3.977
 1007SOL    HW2 3034   0.527   2.213   4.021
 1008SOL     OW 3035   0.705   2.912   4.092
 1008SOL    HW1 3036   0.691   2.919   4.191
 1008SOL    HW2 3037   0.789   2.861   4.074
 1009SOL     OW 3038   0.367   2.962   4.225
 1009SOL    HW1 3039   0.360   3.045   4.169
 1009SOL    HW2 3040   0.371   2.882   4.165
 1010SOL     OW 3041   0.566   2.399   4.589
 1010SOL    HW1 3042   0.578   2.465   4.515
 1010SOL    HW2 3043   0.612   2.433   4.672
 1011SOL     OW 3044   1.252   3.210   4.112
 1011SOL    HW1 3045   1.302   3.287   4.152
 1011SOL    HW2 3046   1.157   3.212   4.144
 1012SOL     OW 3047   1.582   2.501   4.196
 1012SOL    HW1 3048   1.551   2.562   4.269
 1012SOL    HW2 3049   1.632   2.553   4.127
 1013SOL     OW 3050   1.209   2.387   3.999
 1013SOL    HW1 3051   1.222   2.303   4.053
 1013SOL    HW2 3052   1.180   2.461   4.059
 1014SOL     OW 3053   0.732   2.496   4.788
 1014SOL    HW1 3054   0.791   2.470   4.712
 1014SOL    HW2 3055   0.704   2.592   4.777
 1015SOL     OW 3056   0.307   1.925   4.342
 1015SOL    HW1 3057   0.296   2.019   4.375
 1015SOL    HW2 3058   0.302   1.862   4.419
 1016SOL     OW 3059   1.622   2.229   4.098
 1016SOL    HW1 3060   1.624   2.153   4.162
 1016SOL    HW2 3061   1.574   2.306   4.138
 1017SOL     OW 3062   1.540   2.136   3.849
 1017SOL    HW1 3063   1.479   2.061   3.872
 1017SOL    HW2 3064   1.562   2.188   3.932
 1018SOL     OW 3065   1.303   2.700   3.766
 1018SOL    HW1 3066   1.337   2.607   3.781
 1018SOL    HW2 3067   1.321   2.727   3.671
 1019SOL     OW 3068   1.068   3.195   4.573
 1019SOL    HW1 3069   1.075   3.111   4.518
 1019SOL    HW2 3070   1.130   3.264   4.537
 1020SOL     OW 3071   0.008   3.188   3.924
 1020SOL    HW1 3072  -0.085   3.209   3.893
 1020SOL    HW2 3073   0.018   3.089   3.937
 1021SOL     OW 3074   0.088   3.663   4.651
 1021SOL    HW1 3075   0.046   3.577   4.624
 1021SOL    HW2 3076   0.182   3.666   4.617
 1022SOL     OW 3077   0.504   3.430   4.634
 1022SOL    HW1 3078   0.570   3.504   4.643
 1022SOL    HW2 3079   0.548   3.351   4.592
 1023SOL     OW 3080   0.815   2.434   4.049
 1023SOL    HW1 3081   0.822   2.345   4.003
 1023SOL    HW2 3082   0.721   2.468   4.041
 1024SOL     OW 3083   0.473   2.362   3.915
 1024SOL    HW1 3084   0.534   2.442   3.919
 1024SOL    HW2 3085   0.378   2.393   3.922
 1025SOL     OW 3086   1.302   2.717   4.033
 1025SOL    HW1 3087   1.216   2.686   4.075
 1025SOL    HW2 3088   1.298   2.703   3.934
 1026SOL     OW 3089   1.726   1.997   4.247
 1026SOL    HW1 3090   1.799   1.980   4.180
 1026SOL    HW2 3091   1.695   1.910   4.285
 1027SOL     OW 3092   1.388   3.435   4.201
 1027SOL    HW1 3093   1.455   3.447   4.127
 1027SOL    HW2 3094   1.348   3.524   4.224
 1028SOL     OW 3095   1.280   2.789   4.396
 1028SOL    HW1 3096   1.340   2.708   4.398
 1028SOL    HW2 3097   1.320   2.858   4.336
 1029SOL     OW 3098   0.672   3.478   3.878
 1029SOL    HW1 3099   0.681   3.488   3.779
 1029SOL    HW2 3100   0.632   3.389   3.899
 1030SOL     OW 3101   1.841   2.037   4.687
 1030SOL    HW1 3102   1.880   1.952   4.651
 1030SOL    HW2 3103   1.743   2.039   4.668
 1031SOL     OW 3104   0.263   2.188   4.444
 1031SOL    HW1 3105   0.184   2.239   4.410
 1031SOL    HW2 3106   0.254   2.173   4.542
 1032SOL     OW 3107   1.194   3.474   3.755
 1032SOL    HW1 3108   1.200   3.381   3.792
 1032SOL    HW2 3109   1.135   3.474   3.675
 1033SOL     OW 3110   0.916   2.772   4.015
 1033SOL    HW1 3111   0.979   2.810   3.947
 1033SOL    HW2 3112   0.956   2.689   4.054
 1034SOL     OW 3113   1.504   3.469   3.768
 1034SOL    HW1 3114   1.412   3.506   3.775
 1034SOL    HW2 3115   1.542   3.489   3.678
 1035SOL     OW 3116   1.039   2.960   4.420
 1035SOL    HW1 3117   0.969   2.913   4.474
 1035SOL    HW2 3118   1.098   2.892   4.377
 1036SOL     OW 3119   0.590   3.349   4.215
 1036SOL    HW1 3120   0.632   3.291   4.145
 1036SOL    HW2 3121   0.546   3.428   4.171
 1037SOL     OW 3122   0.255   3.210   4.014
 1037SOL    HW1 3123   0.159   3.211   3.987
 1037SOL    HW2 3124   0.267   3.263   4.098
 1038SOL     OW 3125   0.075   2.207   3.757
 1038SOL    HW1 3126  -0.017   2.179   3.728
 1038SOL    HW2 3127   0.106   2.284   3.701
 1039SOL     OW 3128   0.072   2.028   4.042
 1039SOL    HW1 3129   0.055   2.111   3.988
 1039SOL    HW2 3130   0.162   1.991   4.020
 1040SOL     OW 3131   1.183   3.197   3.843
 1040SOL    HW1 3132   1.084   3.186   3.845
 1040SOL    HW2 3133   1.217   3.212   3.936
 1041SOL     OW 3134   1.225   2.187   4.173
 1041SOL    HW1 3135   1.290   2.113   4.162
 1041SOL    HW2 3136   1.245   2.237   4.257
 1042SOL     OW 3137   0.594   2.607   4.376
 1042SOL    HW1 3138   0.644   2.692   4.357
 1042SOL    HW2 3139   0.506   2.609   4.328
 1043SOL     OW 3140   0.859   3.236   3.740
 1043SOL    HW1 3141   0.813   3.251   3.828
 1043SOL    HW2 3142   0.903   3.321   3.710
 1044SOL     OW 3143   0.661   3.652   4.677
 1044SOL    HW1 3144   0.615   3.740   4.664
 1044SOL    HW2 3145   0.760   3.664   4.670
 1045SOL     OW 3146   0.859   2.818   4.585
 1045SOL    HW1 3147   0.913   2.749   4.633
 1045SOL    HW2 3148   0.827   2.887   4.651
 1046SOL     OW 3149   1.083   2.846   3.811
 1046SOL    HW1 3150   1.060   2.899   3.729
 1046SOL    HW2 3151   1.164   2.790   3.792
 1047SOL     OW 3152   1.861   3.431   4.575
 1047SOL    HW1 3153   1.790   3.419   4.505
 1047SOL    HW2 3154   1.862   3.352   4.635
 1048SOL     OW 3155   0.079   3.102   4.377
 1048SOL    HW1 3156   0.078   3.055   4.465
 1048SOL    HW2 3157   0.161   3.074   4.326
 1049SOL     OW 3158   0.428   2.286   4.244
 1049SOL    HW1 3159   0.458   2.214   4.182
 1049SOL    HW2 3160   0.389   2.246   4.327
 1050SOL     OW 3161   0.812   3.448   4.411
 1050SOL    HW1 3162   0.844   3.458   4.317
 1050SOL    HW2 3163   0.733   3.386   4.413
 1051SOL     OW 3164   0.770   3.192   4.025
 1051SOL    HW1 3165   0.724   3.105   4.042
 1051SOL    HW2 3166   0.861   3.189   4.066
 1052SOL     OW 3167   1.352   1.914   3.892
 1052SOL    HW1 3168   1.387   1.873   3.808
 1052SOL    HW2 3169   1.262   1.876   3.912
 1053SOL     OW 3170   1.300   2.315   4.415
 1053SOL    HW1 3171   1.241   2.395   4.419
 1053SOL    HW2 3172   1.315   2.280   4.508
 1054SOL     OW 3173   1.593   2.083   4.606
 1054SOL    HW1 3174   1.509   2.082   4.660
 1054SOL    HW2 3175   1.595   2.166   4.550
 1055SOL     OW 3176   0.039   2.939   4.024
 1055SOL    HW1 3177   0.138   2.928   4.015
 1055SOL    HW2 3178  -0.001   2.853   4.056
 1056SOL     OW 3179   0.875   3.508   4.061
 1056SOL    HW1 3180   0.798   3.473   4.007
 1056SOL    HW2 3181   0.843   3.579   4.123
 1057SOL     OW 3182   0.230   4.352   0.113
 1057SOL    HW1 3183   0.137   4.350   0.150
 1057SOL    HW2 3184   0.231   4.313   0.021
 1058SOL     OW 3185   0.225   3.999   0.996
 1058SOL    HW1 3186   0.260   3.982   1.088
 1058SOL    HW2 3187   0.137   3.954   0.984
 1059SOL     OW 3188   0.019   4.092   0.647
 1059SOL    HW1 3189  -0.063   4.135   0.686
 1059SOL    HW2 3190  -0.009   4.019   0.584
 1060SOL     OW 3191   1.135   4.427   0.717
 1060SOL    HW1 3192   1.192   4.505   0.692
 1060SOL    HW2 3193   1.075   4.453   0.793
 1061SOL     OW 3194   1.755   4.331   0.231
 1061SOL    HW1 3195   1.743   4.318   0.132
 1061SOL    HW2 3196   1.725   4.250   0.280
 1062SOL     OW 3197   0.850   4.522   1.823
 1062SOL    HW1 3198   0.846   4.598   1.888
 1062SOL    HW2 3199   0.872   4.558   1.732
 1063SOL     OW 3200   0.685   4.736   0.665
 1063SOL    HW1 3201   0.754   4.720   0.735
 1063SOL    HW2 3202   0.612   4.793   0.703
 1064SOL     OW 3203   0.438   4.116   1.499
 1064SOL    HW1 3204   0.520   4.060   1.508
 1064SOL    HW2 3205   0.357   4.058   1.503
 1065SOL     OW 3206   1.603   4.171   0.737
 1065SOL    HW1 3207   1.529   4.217   0.687
 1065SOL    HW2 3208   1.654   4.239   0.790
 1066SOL     OW 3209   1.594   3.838   1.480
 1066SOL    HW1 3210   1.576   3.905   1.408
 1066SOL    HW2 3211   1.591   3.884   1.569
 1067SOL     OW 3212   0.122   4.367   0.563
 1067SOL    HW1 3213   0.077   4.279   0.580
 1067SOL    HW2 3214   0.121   4.421   0.647
 1068SOL     OW 3215   0.113   4.461   1.597
 1068SOL    HW1 3216   0.201   4.448   1.642
 1068SOL    HW2 3217   0.100   4.558   1.575
 1069SOL     OW 3218   0.809   3.728   0.502
 1069SOL    HW1 3219   0.849   3.819   0.493
 1069SOL    HW2 3220   0.709   3.736   0.508
 1070SOL     OW 3221   0.317   3.975   1.801
 1070SOL    HW1 3222   0.388   4.046   1.807
 1070SOL    HW2 3223   0.229   4.014   1.829
 1071SOL     OW 3224   0.598   4.453   0.270
 1071SOL    HW1 3225   0.622   4.522   0.202
 1071SOL    HW2 3226   0.520   4.486   0.324
 1072SOL     OW 3227   1.281   4.069   0.944
 1072SOL    HW1 3228   1.195   4.019   0.931
 1072SOL    HW2 3229   1.343   4.015   1.000
 1073SOL     OW 3230   0.807   4.329   1.465
 1073SOL    HW1 3231   0.760   4.326   1.554
 1073SOL    HW2 3232   0.756   4.274   1.399
 1074SOL     OW 3233   1.394   4.193   1.674
 1074SOL    HW1 3234   1.374   4.236   1.762
 1074SOL    HW2 3235   1.472   4.131   1.683
 1075SOL     OW 3236   0.991   4.134   1.242
 1075SOL    HW1 3237   0.914   4.168   1.296
 1075SOL    HW2 3238   0.957   4.083   1.163
 1076SOL     OW 3239   1.041   4.425   0.429
 1076SOL    HW1 3240   1.067   4.421   0.525
 1076SOL    HW2 3241   0.956   4.374   0.415
 1077SOL     OW 3242   0.076   4.535   0.789
 1077SOL    HW1 3243   0.175   4.523   0.798
 1077SOL    HW2 3244   0.052   4.630   0.810
 1078SOL     OW 3245   0.865   4.072   0.195
 1078SOL    HW1 3246   0.924   4.135   0.146
 1078SOL    HW2 3247   0.884   3.978   0.166
 1079SOL     OW 3248   1.719   4.309   1.831
 1079SOL    HW1 3249   1.693   4.398   1.795
 1079SOL    HW2 3250   1.717   4.241   1.758
 1080SOL     OW 3251   0.550   3.920   0.885
 1080SOL    HW1 3252   0.545   3.915   0.985
 1080SOL    HW2 3253   0.552   4.016   0.856
 1081SOL     OW 3254   1.458   4.459   0.728
 1081SOL    HW1 3255   1.453   4.394   0.803
 1081SOL    HW2 3256   1.538   4.518   0.741
 1082SOL     OW 3257   0.202   4.009   1.498
 1082SOL    HW1 3258   0.122   4.069   1.485
 1082SOL    HW2 3259   0.192   3.960   1.584
 1083SOL     OW 3260   1.400   3.831   0.426
 1083SOL    HW1 3261   1.376   3.794   0.336
 1083SOL    HW2 3262   1.499   3.847   0.430
 1084SOL     OW 3263   0.382   4.424   0.480
 1084SOL    HW1 3264   0.427   4.334   0.477
 1084SOL    HW2 3265   0.288   4.413   0.513
 1085SOL     OW 3266   1.547   3.946   1.729
 1085SOL    HW1 3267   1.542   3.983   1.821
 1085SOL    HW2 3268   1.475   3.877   1.717
 1086SOL     OW 3269   0.781   3.988   1.749
 1086SOL    HW1 3270   0.848   3.927   1.792
 1086SOL    HW2 3271   0.708   4.007   1.814
 1087SOL     OW 3272   1.351   4.314   1.433
 1087SOL    HW1 3273   1.379   4.271   1.518
 1087SOL    HW2 3274   1.376   4.410   1.434
 1088SOL     OW 3275   0.922   4.227   0.899
 1088SOL    HW1 3276   0.897   4.218   0.803
 1088SOL    HW2 3277   0.970   4.145   0.930
 1089SOL     OW 3278   0.539   3.788   0.512
 1089SOL    HW1 3279   0.458   3.789   0.570
 1089SOL    HW2 3280   0.542   3.871   0.457
 1090SOL     OW 3281   0.297   3.759   0.171
 1090SOL    HW1 3282   0.346   3.843   0.150
 1090SOL    HW2 3283   0.359   3.694   0.216
 1091SOL     OW 3284   0.935   3.960   0.480
 1091SOL    HW1 3285   0.887   4.001   0.402
 1091SOL    HW2 3286   1.034   3.958   0.461
 1092SOL     OW 3287   1.076   4.407   1.464
 1092SOL    HW1 3288   0.996   4.346   1.467
 1092SOL    HW2 3289   1.157   4.354   1.440
 1093SOL     OW 3290   1.032   4.273   0.016
 1093SOL    HW1 3291   0.991   4.355  -0.023
 1093SOL    HW2 3292   1.096   4.299   0.089
 1094SOL     OW 3293   0.078   4.280   1.386
 1094SOL    HW1 3294   0.170   4.279   1.345
 1094SOL    HW2 3295   0.072   4.354   1.453
 1095SOL     OW 3296   0.561   3.946   1.147
 1095SOL    HW1 3297   0.599   3.862   1.184
 1095SOL    HW2 3298   0.473   3.965   1.191
 1096SOL     OW 3299   0.866   4.178   0.642
 1096SOL    HW1 3300   0.834   4.250   0.580
 1096SOL    HW2 3301   0.890   4.097   0.589
 1097SOL     OW 3302   1.017   3.763   0.753
 1097SOL    HW1 3303   0.945   3.768   0.684
 1097SOL    HW2 3304   0.993   3.694   0.822
 1098SOL     OW 3305   1.466   4.314   0.992
 1098SOL    HW1 3306   1.436   4.219   0.999
 1098SOL    HW2 3307   1.539   4.330   1.058
 1099SOL     OW 3308   1.857   4.557   0.377
 1099SOL    HW1 3309   1.899   4.493   0.441
 1099SOL    HW2 3310   1.819   4.506   0.299
 1100SOL     OW 3311   1.390   4.299   0.078
 1100SOL    HW1 3312   1.336   4.278   0.159
 1100SOL    HW2 3313   1.481   4.258   0.087
 1101SOL     OW 3314   0.527   3.980   0.328
 1101SOL    HW1 3315   0.554   3.921   0.253
 1101SOL    HW2 3316   0.527   4.075   0.297
 1102SOL     OW 3317   0.915   3.813   1.402
 1102SOL    HW1 3318   0.940   3.793   1.307
 1102SOL    HW2 3319   0.987   3.869   1.444
 1103SOL     OW 3320   0.410   4.537   1.251
 1103SOL    HW1 3321   0.496   4.549   1.301
 1103SOL    HW2 3322   0.368   4.450   1.278
 1104SOL     OW 3323   1.274   4.110   1.262
 1104SOL    HW1 3324   1.295   4.184   1.326
 1104SOL    HW2 3325   1.185   4.127   1.219
 1105SOL     OW 3326   0.566   4.261   0.865
 1105SOL    HW1 3327   0.578   4.327   0.791
 1105SOL    HW2 3328   0.612   4.295   0.948
 1106SOL     OW 3329   1.582   4.363   0.472
 1106SOL    HW1 3330   1.551   4.424   0.545
 1106SOL    HW2 3331   1.632   4.415   0.403
 1107SOL     OW 3332   0.402   4.475   1.598
 1107SOL    HW1 3333   0.470   4.530   1.551
 1107SOL    HW2 3334   0.442   4.387   1.625
 1108SOL     OW 3335   1.587   4.503   1.670
 1108SOL    HW1 3336   1.495   4.541   1.665
 1108SOL    HW2 3337   1.647   4.550   1.605
 1109SOL     OW 3338   1.013   3.829   1.770
 1109SOL    HW1 3339   1.019   3.914   1.718
 1109SOL    HW2 3340   1.045   3.753   1.713
 1110SOL     OW 3341   0.504   3.774   1.740
 1110SOL    HW1 3342   0.462   3.717   1.670
 1110SOL    HW2 3343   0.438   3.843   1.772
 1111SOL     OW 3344   0.573   4.594   1.029
 1111SOL    HW1 3345   0.617   4.683   1.020
 1111SOL    HW2 3346   0.510   4.594   1.106
 1112SOL     OW 3347   1.360   4.586   1.045
 1112SOL    HW1 3348   1.285   4.586   0.979
 1112SOL    HW2 3349   1.397   4.494   1.054
 1113SOL     OW 3350   1.209   4.249   0.275
 1113SOL    HW1 3351   1.222   4.165   0.329
 1113SOL    HW2 3352   1.180   4.323   0.335
 1114SOL     OW 3353   0.307   3.937   1.231
 1114SOL    HW1 3354   0.284   3.974   1.321
 1114SOL    HW2 3355   0.277   3.842   1.225
 1115SOL     OW 3356   0.732   4.358   1.064
 1115SOL    HW1 3357   0.791   4.332   0.988
 1115SOL    HW2 3358   0.704   4.454   1.053
 1116SOL     OW 3359   1.728   4.659   1.854
 1116SOL    HW1 3360   1.682   4.652   1.765
 1116SOL    HW2 3361   1.666   4.703   1.920
 1117SOL     OW 3362   0.307   3.787   0.618
 1117SOL    HW1 3363   0.296   3.881   0.651
 1117SOL    HW2 3364   0.302   3.724   0.695
 1118SOL     OW 3365   1.622   4.091   0.374
 1118SOL    HW1 3366   1.624   4.015   0.438
 1118SOL    HW2 3367   1.574   4.168   0.414
 1119SOL     OW 3368   1.023   4.490   0.966
 1119SOL    HW1 3369   1.038   4.511   1.062
 1119SOL    HW2 3370   0.993   4.395   0.957
 1120SOL     OW 3371   1.540   3.998   0.125
 1120SOL    HW1 3372   1.479   3.923   0.148
 1120SOL    HW2 3373   1.562   4.050   0.208
 1121SOL     OW 3374   1.303   4.562   0.042
 1121SOL    HW1 3375   1.337   4.469   0.057
 1121SOL    HW2 3376   1.321   4.589  -0.053
 1122SOL     OW 3377   0.319   4.534   0.949
 1122SOL    HW1 3378   0.412   4.570   0.954
 1122SOL    HW2 3379   0.313   4.449   1.001
 1123SOL     OW 3380   0.339   4.233   1.006
 1123SOL    HW1 3381   0.287   4.150   0.989
 1123SOL    HW2 3382   0.416   4.238   0.942
 1124SOL     OW 3383   1.138   4.104   1.678
 1124SOL    HW1 3384   1.093   4.167   1.742
 1124SOL    HW2 3385   1.231   4.135   1.661
 1125SOL     OW 3386   1.160   3.931   1.477
 1125SOL    HW1 3387   1.160   3.995   1.554
 1125SOL    HW2 3388   1.188   3.979   1.394
 1126SOL     OW 3389   1.002   4.520   1.238
 1126SOL    HW1 3390   1.043   4.488   1.324
 1126SOL    HW2 3391   0.906   4.493   1.235
 1127SOL     OW 3392   0.040   4.268   1.114
 1127SOL    HW1 3393   0.125   4.235   1.073
 1127SOL    HW2 3394   0.053   4.283   1.212
 1128SOL     OW 3395   0.189   4.244   1.722
 1128SOL    HW1 3396   0.248   4.204   1.652
 1128SOL    HW2 3397   0.131   4.315   1.681
 1129SOL     OW 3398   0.815   4.296   0.325
 1129SOL    HW1 3399   0.822   4.207   0.279
 1129SOL    HW2 3400   0.721   4.330   0.317
 1130SOL     OW 3401   1.657   4.328   1.206
 1130SOL    HW1 3402   1.619   4.259   1.268
 1130SOL    HW2 3403   1.739   4.292   1.162
 1131SOL     OW 3404   0.671   4.188   1.269
 1131SOL    HW1 3405   0.637   4.099   1.239
 1131SOL    HW2 3406   0.697   4.242   1.189
 1132SOL     OW 3407   0.473   4.224   0.191
 1132SOL    HW1 3408   0.534   4.304   0.195
 1132SOL    HW2 3409   0.378   4.255   0.198
 1133SOL     OW 3410   0.903   3.810   0.133
 1133SOL    HW1 3411   0.954   3.811   0.047
 1133SOL    HW2 3412   0.959   3.768   0.204
 1134SOL     OW 3413   1.726   3.859   0.523
 1134SOL    HW1 3414   1.799   3.842   0.456
 1134SOL    HW2 3415   1.695   3.772   0.561
 1135SOL     OW 3416   1.280   4.651   0.672
 1135SOL    HW1 3417   1.340   4.570   0.674
 1135SOL    HW2 3418   1.320   4.720   0.612
 1136SOL     OW 3419   1.841   3.899   0.963
 1136SOL    HW1 3420   1.880   3.814   0.927
 1136SOL    HW2 3421   1.743   3.901   0.944
 1137SOL     OW 3422   0.263   4.050   0.720
 1137SOL    HW1 3423   0.184   4.101   0.686
 1137SOL    HW2 3424   0.254   4.035   0.818
 1138SOL     OW 3425   1.014   3.960   0.971
 1138SOL    HW1 3426   1.006   3.924   0.878
 1138SOL    HW2 3427   1.012   3.884   1.036
 1139SOL     OW 3428   1.709   4.109   1.381
 1139SOL    HW1 3429   1.782   4.178   1.385
 1139SOL    HW2 3430   1.737   4.034   1.322
 1140SOL     OW 3431   0.105   4.737   1.726
 1140SOL    HW1 3432   0.028   4.704   1.780
 1140SOL    HW2 3433   0.190   4.707   1.768
 1141SOL     OW 3434   0.672   3.927   1.489
 1141SOL    HW1 3435   0.762   3.911   1.449
 1141SOL    HW2 3436   0.680   3.932   1.588
 1142SOL     OW 3437   0.075   4.069   0.033
 1142SOL    HW1 3438  -0.017   4.041   0.004
 1142SOL    HW2 3439   0.106   4.146  -0.023
 1143SOL     OW 3440   1.440   4.580   1.398
 1143SOL    HW1 3441   1.383   4.632   1.335
 1143SOL    HW2 3442   1.536   4.592   1.374
 1144SOL     OW 3443   0.072   3.890   0.318
 1144SOL    HW1 3444   0.055   3.973   0.264
 1144SOL    HW2 3445   0.162   3.853   0.296
 1145SOL     OW 3446   0.613   4.566   1.431
 1145SOL    HW1 3447   0.669   4.647   1.414
 1145SOL    HW2 3448   0.672   4.486   1.434
 1146SOL     OW 3449   0.716   4.289   1.708
 1146SOL    HW1 3450   0.735   4.354   1.782
 1146SOL    HW2 3451   0.776   4.209   1.717
 1147SOL     OW 3452   1.674   4.607   1.254
 1147SOL    HW1 3453   1.647   4.518   1.217
 1147SOL    HW2 3454   1.675   4.675   1.181
 1148SOL     OW 3455   1.225   4.049   0.449
 1148SOL    HW1 3456   1.290   3.975   0.438
 1148SOL    HW2 3457   1.245   4.099   0.533
 1149SOL     OW 3458   0.594   4.469   0.652
 1149SOL    HW1 3459   0.644   4.554   0.633
 1149SOL    HW2 3460   0.506   4.471   0.604
 1150SOL     OW 3461   1.777   4.066   1.642
 1150SOL    HW1 3462   1.760   4.097   1.548
 1150SOL    HW2 3463   1.693   4.029   1.680
 1151SOL     OW 3464   1.730   4.658   1.517
 1151SOL    HW1 3465   1.768   4.749   1.532
 1151SOL    HW2 3466   1.722   4.641   1.418
 1152SOL     OW 3467   1.824   3.916   1.227
 1152SOL    HW1 3468   1.820   3.826   1.271
 1152SOL    HW2 3469   1.827   3.905   1.128
 1153SOL     OW 3470   0.428   4.148   0.520
 1153SOL    HW1 3471   0.458   4.076   0.458
 1153SOL    HW2 3472   0.389   4.108   0.603
 1154SOL     OW 3473   0.317   4.271   1.280
 1154SOL    HW1 3474   0.355   4.212   1.352
 1154SOL    HW2 3475   0.357   4.245   1.192
 1155SOL     OW 3476   1.424   3.938   1.112
 1155SOL    HW1 3477   1.476   3.873   1.167
 1155SOL    HW2 3478   1.375   4.001   1.173
 1156SOL     OW 3479   1.001   3.758   1.154
 1156SOL    HW1 3480   0.938   3.686   1.123
 1156SOL    HW2 3481   1.094   3.722   1.154
 1157SOL     OW 3482   1.352   3.776   0.168
 1157SOL    HW1 3483   1.387   3.735   0.084
 1157SOL    HW2 3484   1.262   3.738   0.188
 1158SOL     OW 3485   1.300   4.177   0.691
 1158SOL    HW1 3486   1.241   4.257   0.695
 1158SOL    HW2 3487   1.315   4.142   0.784
 1159SOL     OW 3488   1.593   3.945   0.882
 1159SOL    HW1 3489   1.509   3.944   0.936
 1159SOL    HW2 3490   1.595   4.028   0.826
 1160SOL     OW 3491   0.230   4.352   1.975
 1160SOL    HW1 3492   0.137   4.350   2.012
 1160SOL    HW2 3493   0.231   4.313   1.883
 1161SOL     OW 3494   0.225   3.999   2.858
 1161SOL    HW1 3495   0.260   3.982   2.950
 1161SOL    HW2 3496   0.137   3.954   2.846
 1162SOL     OW 3497   0.019   4.092   2.509
 1162SOL    HW1 3498  -0.063   4.135   2.548
 1162SOL    HW2 3499  -0.009   4.019   2.446
 1163SOL     OW 3500   1.135   4.427   2.579
 1163SOL    HW1 3501   1.192   4.505   2.554
 1163SOL    HW2 3502   1.075   4.453   2.655
 1164SOL     OW 3503   1.755   4.331   2.093
 1164SOL    HW1 3504   1.743   4.318   1.994
 1164SOL    HW2 3505   1.725   4.250   2.142
 1165SOL     OW 3506   0.850   4.522   3.685
 1165SOL    HW1 3507   0.846   4.598   3.750
 1165SOL    HW2 3508   0.872   4.558   3.594
 1166SOL     OW 3509   0.685   4.736   2.527
 1166SOL    HW1 3510   0.754   4.720   2.597
 1166SOL    HW2 3511   0.612   4.793   2.565
 1167SOL     OW 3512   0.438   4.116   3.361
 1167SOL    HW1 3513   0.520   4.060   3.370
 1167SOL    HW2 3514   0.357   4.058   3.365
 1168SOL     OW 3515   1.603   4.171   2.599
 1168SOL    HW1 3516   1.529   4.217   2.549
 1168SOL    HW2 3517   1.654   4.239   2.652
 1169SOL     OW 3518   1.594   3.838   3.342
 1169SOL    HW1 3519   1.576   3.905   3.270
 1169SOL    HW2 3520   1.591   3.884   3.431
 1170SOL     OW 3521   0.122   4.367   2.425
 1170SOL    HW1 3522   0.077   4.279   2.442
 1170SOL    HW2 3523   0.121   4.421   2.509
 1171SOL     OW 3524   0.113   4.461   3.459
 1171SOL    HW1 3525   0.201   4.448   3.504
 1171SOL    HW2 3526   0.100   4.558   3.437
 1172SOL     OW 3527   0.809   3.728   2.364
 1172SOL    HW1 3528   0.849   3.819   2.355
 1172SOL    HW2 3529   0.709   3.736   2.370
 1173SOL     OW 3530   0.317   3.975   3.663
 1173SOL    HW1 3531   0.388   4.046   3.669
 1173SOL    HW2 3532   0.229   4.014   3.691
 1174SOL     OW 3533   0.598   4.453   2.132
 1174SOL    HW1 3534   0.622   4.522   2.064
 1174SOL    HW2 3535   0.520   4.486   2.186
 1175SOL     OW 3536   1.281   4.069   2.806
 1175SOL    HW1 3537   1.195   4.019   2.793
 1175SOL    HW2 3538   1.343   4.015   2.862
 1176SOL     OW 3539   0.807   4.329   3.327
 1176SOL    HW1 3540   0.760   4.326   3.416
 1176SOL    HW2 3541   0.756   4.274   3.261
 1177SOL     OW 3542   1.394   4.193   3.536
 1177SOL    HW1 3543   1.374   4.236   3.624
 1177SOL    HW2 3544   1.472   4.131   3.545
 1178SOL     OW 3545   0.991   4.134   3.104
 1178SOL    HW1 3546   0.914   4.168   3.158
 1178SOL    HW2 3547   0.957   4.083   3.025
 1179SOL     OW 3548   1.041   4.425   2.291
 1179SOL    HW1 3549   1.067   4.421   2.387
 1179SOL    HW2 3550   0.956   4.374   2.277
 1180SOL     OW 3551   0.076   4.535   2.651
 1180SOL    HW1 3552   0.175   4.523   2.660
 1180SOL    HW2 3553   0.052   4.630   2.672
 1181SOL     OW 3554   0.865   4.072   2.057
 1181SOL    HW1 3555   0.924   4.135   2.008
 1181SOL    HW2 3556   0.884   3.978   2.028
 1182SOL     OW 3557   1.719   4.309   3.693
 1182SOL    HW1 3558   1.693   4.398   3.657
 1182SOL    HW2 3559   1.717   4.241   3.620
 1183SOL     OW 3560   0.550   3.920   2.747
 1183SOL    HW1 3561   0.545   3.915   2.847
 1183SOL    HW2 3562   0.552   4.016   2.718
 1184SOL     OW 3563   1.458   4.459   2.590
 1184SOL    HW1 3564   1.453   4.394   2.665
 1184SOL    HW2 3565   1.538   4.518   2.603
 1185SOL     OW 3566   0.202   4.009   3.360
 1185SOL    HW1 3567   0.122   4.069   3.347
 1185SOL    HW2 3568   0.192   3.960   3.446
 1186SOL     OW 3569   1.400   3.831   2.288
 1186SOL    HW1 3570   1.376   3.794   2.198
 1186SOL    HW2 3571   1.499   3.847   2.292
 1187SOL     OW 3572   0.382   4.424   2.342
 1187SOL    HW1 3573   0.427   4.334   2.339
 1187SOL    HW2 3574   0.288   4.413   2.375
 1188SOL     OW 3575   1.547   3.946   3.591
 1188SOL    HW1 3576   1.542   3.983   3.683
 1188SOL    HW2 3577   1.475   3.877   3.579
 1189SOL     OW 3578   0.614   3.846   1.979
 1189SOL    HW1 3579   0.712   3.824   1.986
 1189SOL    HW2 3580   0.583   3.829   1.886
 1190SOL     OW 3581   0.781   3.988   3.611
 1190SOL    HW1 3582   0.848   3.927   3.654
 1190SOL    HW2 3583   0.708   4.007   3.676
 1191SOL     OW 3584   1.351   4.314   3.295
 1191SOL    HW1 3585   1.379   4.271   3.380
 1191SOL    HW2 3586   1.376   4.410   3.296
 1192SOL     OW 3587   0.922   4.227   2.761
 1192SOL    HW1 3588   0.897   4.218   2.665
 1192SOL    HW2 3589   0.970   4.145   2.792
 1193SOL     OW 3590   0.539   3.788   2.374
 1193SOL    HW1 3591   0.458   3.789   2.432
 1193SOL    HW2 3592   0.542   3.871   2.319
 1194SOL     OW 3593   0.297   3.759   2.033
 1194SOL    HW1 3594   0.346   3.843   2.012
 1194SOL    HW2 3595   0.359   3.694   2.078
 1195SOL     OW 3596   0.935   3.960   2.342
 1195SOL    HW1 3597   0.887   4.001   2.264
 1195SOL    HW2 3598   1.034   3.958   2.323
 1196SOL     OW 3599   1.076   4.407   3.326
 1196SOL    HW1 3600   0.996   4.346   3.329
 1196SOL    HW2 3601   1.157   4.354   3.302
 1197SOL     OW 3602   1.032   4.273   1.878
 1197SOL    HW1 3603   0.991   4.355   1.839
 1197SOL    HW2 3604   1.096   4.299   1.951
 1198SOL     OW 3605   0.078   4.280   3.248
 1198SOL    HW1 3606   0.170   4.279   3.207
 1198SOL    HW2 3607   0.072   4.354   3.315
 1199SOL     OW 3608   0.561   3.946   3.009
 1199SOL    HW1 3609   0.599   3.862   3.046
 1199SOL    HW2 3610   0.473   3.965   3.053
 1200SOL     OW 3611   0.866   4.178   2.504
 1200SOL    HW1 3612   0.834   4.250   2.442
 1200SOL    HW2 3613   0.890   4.097   2.451
 1201SOL     OW 3614   1.017   3.763   2.615
 1201SOL    HW1 3615   0.945   3.768   2.546
 1201SOL    HW2 3616   0.993   3.694   2.684
 1202SOL     OW 3617   1.466   4.314   2.854
 1202SOL    HW1 3618   1.436   4.219   2.861
 1202SOL    HW2 3619   1.539   4.330   2.920
 1203SOL     OW 3620   1.857   4.557   2.239
 1203SOL    HW1 3621   1.899   4.493   2.303
 1203SOL    HW2 3622   1.819   4.506   2.161
 1204SOL     OW 3623   1.390   4.299   1.940
 1204SOL    HW1 3624   1.336   4.278   2.021
 1204SOL    HW2 3625   1.481   4.258   1.949
 1205SOL     OW 3626   0.527   3.980   2.190
 1205SOL    HW1 3627   0.554   3.921   2.115
 1205SOL    HW2 3628   0.527   4.075   2.159
 1206SOL     OW 3629   0.915   3.813   3.264
 1206SOL    HW1 3630   0.940   3.793   3.169
 1206SOL    HW2 3631   0.987   3.869   3.306
 1207SOL     OW 3632   0.410   4.537   3.113
 1207SOL    HW1 3633   0.496   4.549   3.163
 1207SOL    HW2 3634   0.368   4.450   3.140
 1208SOL     OW 3635   1.274   4.110   3.124
 1208SOL    HW1 3636   1.295   4.184   3.188
 1208SOL    HW2 3637   1.185   4.127   3.081
 1209SOL     OW 3638   0.566   4.261   2.727
 1209SOL    HW1 3639   0.578   4.327   2.653
 1209SOL    HW2 3640   0.612   4.295   2.810
 1210SOL     OW 3641   1.582   4.363   2.334
 1210SOL    HW1 3642   1.551   4.424   2.407
 1210SOL    HW2 3643   1.632   4.415   2.265
 1211SOL     OW 3644   0.402   4.475   3.460
 1211SOL    HW1 3645   0.470   4.530   3.413
 1211SOL    HW2 3646   0.442   4.387   3.487
 1212SOL     OW 3647   1.587   4.503   3.532
 1212SOL    HW1 3648   1.495   4.541   3.527
 1212SOL    HW2 3649   1.647   4.550   3.467
 1213SOL     OW 3650   1.013   3.829   3.632
 1213SOL    HW1 3651   1.019   3.914   3.580
 1213SOL    HW2 3652   1.045   3.753   3.575
 1214SOL     OW 3653   0.504   3.774   3.602
 1214SOL    HW1 3654   0.462   3.717   3.532
 1214SOL    HW2 3655   0.438   3.843   3.634
 1215SOL     OW 3656   0.573   4.594   2.891
 1215SOL    HW1 3657   0.617   4.683   2.882
 1215SOL    HW2 3658   0.510   4.594   2.968
 1216SOL     OW 3659   1.360   4.586   2.907
 1216SOL    HW1 3660   1.285   4.586   2.841
 1216SOL    HW2 3661   1.397   4.494   2.916
 1217SOL     OW 3662   1.209   4.249   2.137
 1217SOL    HW1 3663   1.222   4.165   2.191
 1217SOL    HW2 3664   1.180   4.323   2.197
 1218SOL     OW 3665   0.307   3.937   3.093
 1218SOL    HW1 3666   0.284   3.974   3.183
 1218SOL    HW2 3667   0.277   3.842   3.087
 1219SOL     OW 3668   0.732   4.358   2.926
 1219SOL    HW1 3669   0.791   4.332   2.850
 1219SOL    HW2 3670   0.704   4.454   2.915
 1220SOL     OW 3671   1.728   4.659   3.716
 1220SOL    HW1 3672   1.682   4.652   3.627
 1220SOL    HW2 3673   1.666   4.703   3.782
 1221SOL     OW 3674   0.307   3.787   2.480
 1221SOL    HW1 3675   0.296   3.881   2.513
 1221SOL    HW2 3676   0.302   3.724   2.557
 1222SOL     OW 3677   1.622   4.091   2.236
 1222SOL    HW1 3678   1.624   4.015   2.300
 1222SOL    HW2 3679   1.574   4.168   2.276
 1223SOL     OW 3680   1.023   4.490   2.828
 1223SOL    HW1 3681   1.038   4.511   2.924
 1223SOL    HW2 3682   0.993   4.395   2.819
 1224SOL     OW 3683   1.540   3.998   1.987
 1224SOL    HW1 3684   1.479   3.923   2.010
 1224SOL    HW2 3685   1.562   4.050   2.070
 1225SOL     OW 3686   1.303   4.562   1.904
 1225SOL    HW1 3687   1.337   4.469   1.919
 1225SOL    HW2 3688   1.321   4.589   1.809
 1226SOL     OW 3689   0.319   4.534   2.811
 1226SOL    HW1 3690   0.412   4.570   2.816
 1226SOL    HW2 3691   0.313   4.449   2.863
 1227SOL     OW 3692   0.339   4.233   2.868
 1227SOL    HW1 3693   0.287   4.150   2.851
 1227SOL    HW2 3694   0.416   4.238   2.804
 1228SOL     OW 3695   1.138   4.104   3.540
 1228SOL    HW1 3696   1.093   4.167   3.604
 1228SOL    HW2 3697   1.231   4.135   3.523
 1229SOL     OW 3698   1.160   3.931   3.339
 1229SOL    HW1 3699   1.160   3.995   3.416
 1229SOL    HW2 3700   1.188   3.979   3.256
 1230SOL     OW 3701   1.002   4.520   3.100
 1230SOL    HW1 3702   1.043   4.488   3.186
 1230SOL    HW2 3703   0.906   4.493   3.097
 1231SOL     OW 3704   0.040   4.268   2.976
 1231SOL    HW1 3705   0.125   4.235   2.935
 1231SOL    HW2 3706   0.053   4.283   3.074
 1232SOL     OW 3707   0.189   4.244   3.584
 1232SOL    HW1 3708   0.248   4.204   3.514
 1232SOL    HW2 3709   0.131   4.315   3.543
 1233SOL     OW 3710   0.815   4.296   2.187
 1233SOL    HW1 3711   0.822   4.207   2.141
 1233SOL    HW2 3712   0.721   4.330   2.179
 1234SOL     OW 3713   1.657   4.328   3.068
 1234SOL    HW1 3714   1.619   4.259   3.130
 1234SOL    HW2 3715   1.739   4.292   3.024
 1235SOL     OW 3716   0.671   4.188   3.131
 1235SOL    HW1 3717   0.637   4.099   3.101
 1235SOL    HW2 3718   0.697   4.242   3.051
 1236SOL     OW 3719   0.473   4.224   2.053
 1236SOL    HW1 3720   0.534   4.304   2.057
 1236SOL    HW2 3721   0.378   4.255   2.060
 1237SOL     OW 3722   1.726   3.859   2.385
 1237SOL    HW1 3723   1.799   3.842   2.318
 1237SOL    HW2 3724   1.695   3.772   2.423
 1238SOL     OW 3725   1.280   4.651   2.534
 1238SOL    HW1 3726   1.340   4.570   2.536
 1238SOL    HW2 3727   1.320   4.720   2.474
 1239SOL     OW 3728   1.841   3.899   2.825
 1239SOL    HW1 3729   1.880   3.814   2.789
 1239SOL    HW2 3730   1.743   3.901   2.806
 1240SOL     OW 3731   0.263   4.050   2.582
 1240SOL    HW1 3732   0.184   4.101   2.548
 1240SOL    HW2 3733   0.254   4.035   2.680
 1241SOL     OW 3734   0.916   4.634   2.153
 1241SOL    HW1 3735   0.979   4.672   2.085
 1241SOL    HW2 3736   0.956   4.551   2.192
 1242SOL     OW 3737   1.014   3.960   2.833
 1242SOL    HW1 3738   1.006   3.924   2.740
 1242SOL    HW2 3739   1.012   3.884   2.898
 1243SOL     OW 3740   1.709   4.109   3.243
 1243SOL    HW1 3741   1.782   4.178   3.247
 1243SOL    HW2 3742   1.737   4.034   3.184
 1244SOL     OW 3743   0.105   4.737   3.588
 1244SOL    HW1 3744   0.028   4.704   3.642
 1244SOL    HW2 3745   0.190   4.707   3.630
 1245SOL     OW 3746   0.672   3.927   3.351
 1245SOL    HW1 3747   0.762   3.911   3.311
 1245SOL    HW2 3748   0.680   3.932   3.450
 1246SOL     OW 3749   0.075   4.069   1.895
 1246SOL    HW1 3750  -0.017   4.041   1.866
 1246SOL    HW2 3751   0.106   4.146   1.839
 1247SOL     OW 3752   1.440   4.580   3.260
 1247SOL    HW1 3753   1.383   4.632   3.197
 1247SOL    HW2 3754   1.536   4.592   3.236
 1248SOL     OW 3755   0.072   3.890   2.180
 1248SOL    HW1 3756   0.055   3.973   2.126
 1248SOL    HW2 3757   0.162   3.853   2.158
 1249SOL     OW 3758   0.613   4.566   3.293
 1249SOL    HW1 3759   0.669   4.647   3.276
 1249SOL    HW2 3760   0.672   4.486   3.296
 1250SOL     OW 3761   0.716   4.289   3.570
 1250SOL    HW1 3762   0.735   4.354   3.644
 1250SOL    HW2 3763   0.776   4.209   3.579
 1251SOL     OW 3764   1.674   4.607   3.116
 1251SOL    HW1 3765   1.647   4.518   3.079
 1251SOL    HW2 3766   1.675   4.675   3.043
 1252SOL     OW 3767   1.225   4.049   2.311
 1252SOL    HW1 3768   1.290   3.975   2.300
 1252SOL    HW2 3769   1.245   4.099   2.395
 1253SOL     OW 3770   0.594   4.469   2.514
 1253SOL    HW1 3771   0.644   4.554   2.495
 1253SOL    HW2 3772   0.506   4.471   2.466
 1254SOL     OW 3773   1.777   4.066   3.504
 1254SOL    HW1 3774   1.760   4.097   3.410
 1254SOL    HW2 3775   1.693   4.029   3.542
 1255SOL     OW 3776   1.730   4.658   3.379
 1255SOL    HW1 3777   1.768   4.749   3.394
 1255SOL    HW2 3778   1.722   4.641   3.280
 1256SOL     OW 3779   1.824   3.916   3.089
 1256SOL    HW1 3780   1.820   3.826   3.133
 1256SOL    HW2 3781   1.827   3.905   2.990
 1257SOL     OW 3782   0.428   4.148   2.382
 1257SOL    HW1 3783   0.458   4.076   2.320
 1257SOL    HW2 3784   0.389   4.108   2.465
 1258SOL     OW 3785   0.317   4.271   3.142
 1258SOL    HW1 3786   0.355   4.212   3.214
 1258SOL    HW2 3787   0.357   4.245   3.054
 1259SOL     OW 3788   1.424   3.938   2.974
 1259SOL    HW1 3789   1.476   3.873   3.029
 1259SOL    HW2 3790   1.375   4.001   3.035
 1260SOL     OW 3791   1.001   3.758   3.016
 1260SOL    HW1 3792   0.938   3.686   2.985
 1260SOL    HW2 3793   1.094   3.722   3.016
 1261SOL     OW 3794   1.352   3.776   2.030
 1261SOL    HW1 3795   1.387   3.735   1.946
 1261SOL    HW2 3796   1.262   3.738   2.050
 1262SOL     OW 3797   1.300   4.177   2.553
 1262SOL    HW1 3798   1.241   4.257   2.557
 1262SOL    HW2 3799   1.315   4.142   2.646
 1263SOL     OW 3800   1.593   3.945   2.744
 1263SOL    HW1 3801   1.509   3.944   2.798
 1263SOL    HW2 3802   1.595   4.028   2.688
 1264SOL     OW 3803   0.230   4.352   3.837
 1264SOL    HW1 3804   0.137   4.350   3.874
 1264SOL    HW2 3805   0.231   4.313   3.745
 1265SOL     OW 3806   0.019   4.092   4.371
 1265SOL    HW1 3807  -0.063   4.135   4.410
 1265SOL    HW2 3808  -0.009   4.019   4.308
 1266SOL     OW 3809   1.135   4.427   4.441
 1266SOL    HW1 3810   1.192   4.505   4.416
 1266SOL    HW2 3811   1.075   4.453   4.517
 1267SOL     OW 3812   1.755   4.331   3.955
 1267SOL    HW1 3813   1.743   4.318   3.856
 1267SOL    HW2 3814   1.725   4.250   4.004
 1268SOL     OW 3815   0.685   4.736   4.389
 1268SOL    HW1 3816   0.754   4.720   4.459
 1268SOL    HW2 3817   0.612   4.793   4.427
 1269SOL     OW 3818   1.603   4.171   4.461
 1269SOL    HW1 3819   1.529   4.217   4.411
 1269SOL    HW2 3820   1.654   4.239   4.514
 1270SOL     OW 3821   0.240   4.815   4.610
 1270SOL    HW1 3822   0.254   4.731   4.662
 1270SOL    HW2 3823   0.185   4.879   4.665
 1271SOL     OW 3824   0.122   4.367   4.287
 1271SOL    HW1 3825   0.077   4.279   4.304
 1271SOL    HW2 3826   0.121   4.421   4.371
 1272SOL     OW 3827   0.809   3.728   4.226
 1272SOL    HW1 3828   0.849   3.819   4.217
 1272SOL    HW2 3829   0.709   3.736   4.232
 1273SOL     OW 3830   0.598   4.453   3.994
 1273SOL    HW1 3831   0.622   4.522   3.926
 1273SOL    HW2 3832   0.520   4.486   4.048
 1274SOL     OW 3833   1.281   4.069   4.668
 1274SOL    HW1 3834   1.195   4.019   4.655
 1274SOL    HW2 3835   1.343   4.015   4.724
 1275SOL     OW 3836   1.041   4.425   4.153
 1275SOL    HW1 3837   1.067   4.421   4.249
 1275SOL    HW2 3838   0.956   4.374   4.139
 1276SOL     OW 3839   0.076   4.535   4.513
 1276SOL    HW1 3840   0.175   4.523   4.522
 1276SOL    HW2 3841   0.052   4.630   4.534
 1277SOL     OW 3842   0.865   4.072   3.919
 1277SOL    HW1 3843   0.924   4.135   3.870
 1277SOL    HW2 3844   0.884   3.978   3.890
 1278SOL     OW 3845   0.550   3.920   4.609
 1278SOL    HW1 3846   0.545   3.915   4.709
 1278SOL    HW2 3847   0.552   4.016   4.580
 1279SOL     OW 3848   1.458   4.459   4.452
 1279SOL    HW1 3849   1.453   4.394   4.527
 1279SOL    HW2 3850   1.538   4.518   4.465
 1280SOL     OW 3851   1.400   3.831   4.150
 1280SOL    HW1 3852   1.376   3.794   4.060
 1280SOL    HW2 3853   1.499   3.847   4.154
 1281SOL     OW 3854   0.382   4.424   4.204
 1281SOL    HW1 3855   0.427   4.334   4.201
 1281SOL    HW2 3856   0.288   4.413   4.237
 1282SOL     OW 3857   0.614   3.846   3.841
 1282SOL    HW1 3858   0.712   3.824   3.848
 1282SOL    HW2 3859   0.583   3.829   3.748
 1283SOL     OW 3860   0.539   3.788   4.236
 1283SOL    HW1 3861   0.458   3.789   4.294
 1283SOL    HW2 3862   0.542   3.871   4.181
 1284SOL     OW 3863   0.297   3.759   3.895
 1284SOL    HW1 3864   0.346   3.843   3.874
 1284SOL    HW2 3865   0.359   3.694   3.940
 1285SOL     OW 3866   0.935   3.960   4.204
 1285SOL    HW1 3867   0.887   4.001   4.126
 1285SOL    HW2 3868   1.034   3.958   4.185
 1286SOL     OW 3869   1.032   4.273   3.740
 1286SOL    HW1 3870   0.991   4.355   3.701
 1286SOL    HW2 3871   1.096   4.299   3.813
 1287SOL     OW 3872   0.866   4.178   4.366
 1287SOL    HW1 3873   0.834   4.250   4.304
 1287SOL    HW2 3874   0.890   4.097   4.313
 1288SOL     OW 3875   1.017   3.763   4.477
 1288SOL    HW1 3876   0.945   3.768   4.408
 1288SOL    HW2 3877   0.993   3.694   4.546
 1289SOL     OW 3878   1.857   4.557   4.101
 1289SOL    HW1 3879   1.899   4.493   4.165
 1289SOL    HW2 3880   1.819   4.506   4.023
 1290SOL     OW 3881   1.390   4.299   3.802
 1290SOL    HW1 3882   1.336   4.278   3.883
 1290SOL    HW2 3883   1.481   4.258   3.811
 1291SOL     OW 3884   0.527   3.980   4.052
 1291SOL    HW1 3885   0.554   3.921   3.977
 1291SOL    HW2 3886   0.527   4.075   4.021
 1292SOL     OW 3887   1.111   4.919   4.824
 1292SOL    HW1 3888   1.071   4.963   4.905
 1292SOL    HW2 3889   1.070   4.956   4.741
 1293SOL     OW 3890   0.566   4.261   4.589
 1293SOL    HW1 3891   0.578   4.327   4.515
 1293SOL    HW2 3892   0.612   4.295   4.672
 1294SOL     OW 3893   1.582   4.363   4.196
 1294SOL    HW1 3894   1.551   4.424   4.269
 1294SOL    HW2 3895   1.632   4.415   4.127
 1295SOL     OW 3896   1.209   4.249   3.999
 1295SOL    HW1 3897   1.222   4.165   4.053
 1295SOL    HW2 3898   1.180   4.323   4.059
 1296SOL     OW 3899   0.732   4.358   4.788
 1296SOL    HW1 3900   0.791   4.332   4.712
 1296SOL    HW2 3901   0.704   4.454   4.777
 1297SOL     OW 3902   0.307   3.787   4.342
 1297SOL    HW1 3903   0.296   3.881   4.375
 1297SOL    HW2 3904   0.302   3.724   4.419
 1298SOL     OW 3905   1.622   4.091   4.098
 1298SOL    HW1 3906   1.624   4.015   4.162
 1298SOL    HW2 3907   1.574   4.168   4.138
 1299SOL     OW 3908   1.540   3.998   3.849
 1299SOL    HW1 3909   1.479   3.923   3.872
 1299SOL    HW2 3910   1.562   4.050   3.932
 1300SOL     OW 3911   1.303   4.562   3.766
 1300SOL    HW1 3912   1.337   4.469   3.781
 1300SOL    HW2 3913   1.321   4.589   3.671
 1301SOL     OW 3914   0.815   4.296   4.049
 1301SOL    HW1 3915   0.822   4.207   4.003
 1301SOL    HW2 3916   0.721   4.330   4.041
 1302SOL     OW 3917   0.473   4.224   3.915
 1302SOL    HW1 3918   0.534   4.304   3.919
 1302SOL    HW2 3919   0.378   4.255   3.922
 1303SOL     OW 3920   1.726   3.859   4.247
 1303SOL    HW1 3921   1.799   3.842   4.180
 1303SOL    HW2 3922   1.695   3.772   4.285
 1304SOL     OW 3923   1.280   4.651   4.396
 1304SOL    HW1 3924   1.340   4.570   4.398
 1304SOL    HW2 3925   1.320   4.720   4.336
 1305SOL     OW 3926   1.841   3.899   4.687
 1305SOL    HW1 3927   1.880   3.814   4.651
 1305SOL    HW2 3928   1.743   3.901   4.668
 1306SOL     OW 3929   0.263   4.050   4.444
 1306SOL    HW1 3930   0.184   4.101   4.410
 1306SOL    HW2 3931   0.254   4.035   4.542
 1307SOL     OW 3932   0.916   4.634   4.015
 1307SOL    HW1 3933   0.979   4.672   3.947
 1307SOL    HW2 3934   0.956   4.551   4.054
 1308SOL     OW 3935   0.075   4.069   3.757
 1308SOL    HW1 3936  -0.017   4.041   3.728
 1308SOL    HW2 3937   0.106   4.146   3.701
 1309SOL     OW 3938   0.072   3.890   4.042
 1309SOL    HW1 3939   0.055   3.973   3.988
 1309SOL    HW2 3940   0.162   3.853   4.020
 1310SOL     OW 3941   1.674   4.607   4.978
 1310SOL    HW1 3942   1.647   4.518   4.941
 1310SOL    HW2 3943   1.675   4.675   4.905
 1311SOL     OW 3944   1.225   4.049   4.173
 1311SOL    HW1 3945   1.290   3.975   4.162
 1311SOL    HW2 3946   1.245   4.099   4.257
 1312SOL     OW 3947   0.594   4.469   4.376
 1312SOL    HW1 3948   0.644   4.554   4.357
 1312SOL    HW2 3949   0.506   4.471   4.328
 1313SOL     OW 3950   0.428   4.148   4.244
 1313SOL    HW1 3951   0.458   4.076   4.182
 1313SOL    HW2 3952   0.389   4.108   4.327
 1314SOL     OW 3953   1.352   3.776   3.892
 1314SOL    HW1 3954   1.387   3.735   3.808
 1314SOL    HW2 3955   1.262   3.738   3.912
 1315SOL     OW 3956   1.300   4.177   4.415
 1315SOL    HW1 3957   1.241   4.257   4.419
 1315SOL    HW2 3958   1.315   4.142   4.508
 1316SOL     OW 3959   1.593   3.945   4.606
 1316SOL    HW1 3960   1.509   3.944   4.660
 1316SOL    HW2 3961   1.595   4.028   4.550
 1317SOL     OW 3962   2.092   0.628   0.113
 1317SOL    HW1 3963   1.999   0.626   0.150
 1317SOL    HW2 3964   2.093   0.589   0.021
 1318SOL     OW 3965   2.087   0.275   0.996
 1318SOL    HW1 3966   2.122   0.258   1.088
 1318SOL    HW2 3967   1.999   0.230   0.984
 1319SOL     OW 3968   1.881   0.368   0.647
 1319SOL    HW1 3969   1.799   0.411   0.686
 1319SOL    HW2 3970   1.853   0.295   0.584
 1320SOL     OW 3971   2.431   1.275   1.165
 1320SOL    HW1 3972   2.338   1.268   1.128
 1320SOL    HW2 3973   2.442   1.364   1.209
 1321SOL     OW 3974   3.417   1.511   0.703
 1321SOL    HW1 3975   3.360   1.495   0.784
 1321SOL    HW2 3976   3.358   1.521   0.623
 1322SOL     OW 3977   2.997   0.703   0.717
 1322SOL    HW1 3978   3.054   0.781   0.692
 1322SOL    HW2 3979   2.937   0.729   0.793
 1323SOL     OW 3980   3.617   0.607   0.231
 1323SOL    HW1 3981   3.605   0.594   0.132
 1323SOL    HW2 3982   3.587   0.526   0.280
 1324SOL     OW 3983   2.630   1.144   1.023
 1324SOL    HW1 3984   2.552   1.161   1.083
 1324SOL    HW2 3985   2.664   1.231   0.987
 1325SOL     OW 3986   2.712   0.798   1.823
 1325SOL    HW1 3987   2.708   0.874   1.888
 1325SOL    HW2 3988   2.734   0.834   1.732
 1326SOL     OW 3989   2.547   1.012   0.665
 1326SOL    HW1 3990   2.616   0.996   0.735
 1326SOL    HW2 3991   2.474   1.069   0.703
 1327SOL     OW 3992   2.548   1.161   1.803
 1327SOL    HW1 3993   2.608   1.240   1.817
 1327SOL    HW2 3994   2.462   1.192   1.762
 1328SOL     OW 3995   2.197   1.435   1.061
 1328SOL    HW1 3996   2.119   1.404   1.008
 1328SOL    HW2 3997   2.255   1.493   1.004
 1329SOL     OW 3998   3.322   1.505   1.339
 1329SOL    HW1 3999   3.346   1.599   1.365
 1329SOL    HW2 4000   3.306   1.451   1.421
 1330SOL     OW 4001   2.300   0.392   1.499
 1330SOL    HW1 4002   2.382   0.336   1.508
 1330SOL    HW2 4003   2.219   0.334   1.503
 1331SOL     OW 4004   3.465   0.447   0.737
 1331SOL    HW1 4005   3.391   0.493   0.687
 1331SOL    HW2 4006   3.516   0.515   0.790
 1332SOL     OW 4007   2.093   1.713   0.483
 1332SOL    HW1 4008   2.127   1.790   0.537
 1332SOL    HW2 4009   2.137   1.713   0.393
 1333SOL     OW 4010   2.989   1.341   1.690
 1333SOL    HW1 4011   3.036   1.341   1.778
 1333SOL    HW2 4012   2.941   1.254   1.679
 1334SOL     OW 4013   2.092   1.434   0.538
 1334SOL    HW1 4014   2.066   1.530   0.538
 1334SOL    HW2 4015   2.021   1.380   0.583
 1335SOL     OW 4016   2.102   1.091   0.886
 1335SOL    HW1 4017   2.116   1.007   0.938
 1335SOL    HW2 4018   2.047   1.155   0.941
 1336SOL     OW 4019   2.482   1.786   1.439
 1336SOL    HW1 4020   2.390   1.769   1.474
 1336SOL    HW2 4021   2.510   1.878   1.465
 1337SOL     OW 4022   2.468   0.964   0.123
 1337SOL    HW1 4023   2.475   1.048   0.069
 1337SOL    HW2 4024   2.514   0.977   0.211
 1338SOL     OW 4025   3.456   0.114   1.480
 1338SOL    HW1 4026   3.438   0.181   1.408
 1338SOL    HW2 4027   3.453   0.160   1.569
 1339SOL     OW 4028   1.984   0.643   0.563
 1339SOL    HW1 4029   1.939   0.555   0.580
 1339SOL    HW2 4030   1.983   0.697   0.647
 1340SOL     OW 4031   3.704   1.767   0.359
 1340SOL    HW1 4032   3.758   1.738   0.439
 1340SOL    HW2 4033   3.734   1.857   0.330
 1341SOL     OW 4034   1.889   1.596   0.117
 1341SOL    HW1 4035   1.870   1.500   0.138
 1341SOL    HW2 4036   1.856   1.654   0.192
 1342SOL     OW 4037   3.551   0.922   0.612
 1342SOL    HW1 4038   3.646   0.893   0.620
 1342SOL    HW2 4039   3.543   0.987   0.537
 1343SOL     OW 4040   3.503   1.108   0.432
 1343SOL    HW1 4041   3.589   1.110   0.380
 1343SOL    HW2 4042   3.517   1.155   0.520
 1344SOL     OW 4043   1.975   0.737   1.597
 1344SOL    HW1 4044   2.063   0.724   1.642
 1344SOL    HW2 4045   1.962   0.834   1.575
 1345SOL     OW 4046   2.475   1.365   0.726
 1345SOL    HW1 4047   2.426   1.278   0.735
 1345SOL    HW2 4048   2.452   1.408   0.639
 1346SOL     OW 4049   3.155   1.228   1.423
 1346SOL    HW1 4050   3.192   1.155   1.365
 1346SOL    HW2 4051   3.207   1.233   1.508
 1347SOL     OW 4052   2.671   0.004   0.502
 1347SOL    HW1 4053   2.711   0.095   0.493
 1347SOL    HW2 4054   2.571   0.012   0.508
 1348SOL     OW 4055   2.059   0.976   1.264
 1348SOL    HW1 4056   2.148   0.931   1.250
 1348SOL    HW2 4057   1.986   0.911   1.245
 1349SOL     OW 4058   3.387   0.999   0.190
 1349SOL    HW1 4059   3.324   0.923   0.203
 1349SOL    HW2 4060   3.435   1.017   0.276
 1350SOL     OW 4061   3.049   1.792   1.616
 1350SOL    HW1 4062   3.073   1.852   1.540
 1350SOL    HW2 4063   3.056   1.697   1.586
 1351SOL     OW 4064   2.179   0.251   1.801
 1351SOL    HW1 4065   2.250   0.322   1.807
 1351SOL    HW2 4066   2.091   0.290   1.829
 1352SOL     OW 4067   3.328   1.417   0.953
 1352SOL    HW1 4068   3.269   1.423   1.033
 1352SOL    HW2 4069   3.313   1.329   0.907
 1353SOL     OW 4070   3.529   1.714   0.572
 1353SOL    HW1 4071   3.488   1.691   0.484
 1353SOL    HW2 4072   3.511   1.640   0.637
 1354SOL     OW 4073   2.460   0.729   0.270
 1354SOL    HW1 4074   2.484   0.798   0.202
 1354SOL    HW2 4075   2.382   0.762   0.324
 1355SOL     OW 4076   3.143   0.345   0.944
 1355SOL    HW1 4077   3.057   0.295   0.931
 1355SOL    HW2 4078   3.205   0.291   1.000
 1356SOL     OW 4079   3.438   1.662   0.307
 1356SOL    HW1 4080   3.527   1.708   0.310
 1356SOL    HW2 4081   3.417   1.638   0.212
 1357SOL     OW 4082   2.669   0.605   1.465
 1357SOL    HW1 4083   2.622   0.602   1.554
 1357SOL    HW2 4084   2.618   0.550   1.399
 1358SOL     OW 4085   3.256   0.469   1.674
 1358SOL    HW1 4086   3.236   0.512   1.762
 1358SOL    HW2 4087   3.334   0.407   1.683
 1359SOL     OW 4088   2.835   0.890   1.572
 1359SOL    HW1 4089   2.881   0.806   1.543
 1359SOL    HW2 4090   2.779   0.924   1.497
 1360SOL     OW 4091   2.853   0.410   1.242
 1360SOL    HW1 4092   2.776   0.444   1.296
 1360SOL    HW2 4093   2.819   0.359   1.163
 1361SOL     OW 4094   2.903   0.701   0.429
 1361SOL    HW1 4095   2.929   0.697   0.525
 1361SOL    HW2 4096   2.818   0.650   0.415
 1362SOL     OW 4097   1.938   0.811   0.789
 1362SOL    HW1 4098   2.037   0.799   0.798
 1362SOL    HW2 4099   1.914   0.906   0.810
 1363SOL     OW 4100   1.992   1.821   1.571
 1363SOL    HW1 4101   1.982   1.806   1.670
 1363SOL    HW2 4102   1.906   1.857   1.535
 1364SOL     OW 4103   2.727   0.348   0.195
 1364SOL    HW1 4104   2.786   0.411   0.146
 1364SOL    HW2 4105   2.746   0.254   0.166
 1365SOL     OW 4106   3.581   0.585   1.831
 1365SOL    HW1 4107   3.555   0.674   1.795
 1365SOL    HW2 4108   3.579   0.517   1.758
 1366SOL     OW 4109   3.224   1.144   0.545
 1366SOL    HW1 4110   3.307   1.115   0.497
 1366SOL    HW2 4111   3.175   1.211   0.489
 1367SOL     OW 4112   2.412   0.196   0.885
 1367SOL    HW1 4113   2.407   0.191   0.985
 1367SOL    HW2 4114   2.414   0.292   0.856
 1368SOL     OW 4115   2.870   1.456   0.477
 1368SOL    HW1 4116   2.824   1.528   0.425
 1368SOL    HW2 4117   2.866   1.476   0.575
 1369SOL     OW 4118   2.213   1.801   0.853
 1369SOL    HW1 4119   2.263   1.715   0.859
 1369SOL    HW2 4120   2.278   1.878   0.850
 1370SOL     OW 4121   3.657   1.066   0.873
 1370SOL    HW1 4122   3.595   1.051   0.797
 1370SOL    HW2 4123   3.605   1.077   0.958
 1371SOL     OW 4124   3.089   1.550   1.506
 1371SOL    HW1 4125   3.095   1.473   1.570
 1371SOL    HW2 4126   3.037   1.524   1.426
 1372SOL     OW 4127   2.183   0.943   0.242
 1372SOL    HW1 4128   2.265   0.982   0.200
 1372SOL    HW2 4129   2.156   0.861   0.193
 1373SOL     OW 4130   3.320   0.735   0.728
 1373SOL    HW1 4131   3.315   0.670   0.803
 1373SOL    HW2 4132   3.400   0.794   0.741
 1374SOL     OW 4133   2.323   1.266   1.727
 1374SOL    HW1 4134   2.273   1.267   1.641
 1374SOL    HW2 4135   2.260   1.248   1.803
 1375SOL     OW 4136   2.973   1.776   0.237
 1375SOL    HW1 4137   2.913   1.714   0.287
 1375SOL    HW2 4138   3.004   1.732   0.152
 1376SOL     OW 4139   2.064   0.285   1.498
 1376SOL    HW1 4140   1.984   0.345   1.485
 1376SOL    HW2 4141   2.054   0.236   1.584
 1377SOL     OW 4142   3.494   1.377   0.081
 1377SOL    HW1 4143   3.462   1.471   0.071
 1377SOL    HW2 4144   3.418   1.314   0.069
 1378SOL     OW 4145   2.326   1.743   0.323
 1378SOL    HW1 4146   2.359   1.782   0.409
 1378SOL    HW2 4147   2.402   1.736   0.258
 1379SOL     OW 4148   3.262   0.107   0.426
 1379SOL    HW1 4149   3.238   0.070   0.336
 1379SOL    HW2 4150   3.361   0.123   0.430
 1380SOL     OW 4151   2.111   1.785   1.241
 1380SOL    HW1 4152   2.168   1.720   1.291
 1380SOL    HW2 4153   2.095   1.752   1.148
 1381SOL     OW 4154   2.802   1.698   0.904
 1381SOL    HW1 4155   2.882   1.641   0.925
 1381SOL    HW2 4156   2.753   1.658   0.827
 1382SOL     OW 4157   2.244   0.700   0.480
 1382SOL    HW1 4158   2.289   0.610   0.477
 1382SOL    HW2 4159   2.150   0.689   0.513
 1383SOL     OW 4160   3.409   0.222   1.729
 1383SOL    HW1 4161   3.404   0.259   1.821
 1383SOL    HW2 4162   3.337   0.153   1.717
 1384SOL     OW 4163   2.476   0.122   0.117
 1384SOL    HW1 4164   2.574   0.100   0.124
 1384SOL    HW2 4165   2.445   0.105   0.024
 1385SOL     OW 4166   2.643   0.264   1.749
 1385SOL    HW1 4167   2.710   0.203   1.792
 1385SOL    HW2 4168   2.570   0.283   1.814
 1386SOL     OW 4169   2.750   1.514   1.195
 1386SOL    HW1 4170   2.727   1.489   1.101
 1386SOL    HW2 4171   2.811   1.445   1.234
 1387SOL     OW 4172   3.213   0.590   1.433
 1387SOL    HW1 4173   3.241   0.547   1.518
 1387SOL    HW2 4174   3.238   0.686   1.434
 1388SOL     OW 4175   2.665   1.402   0.924
 1388SOL    HW1 4176   2.755   1.416   0.882
 1388SOL    HW2 4177   2.594   1.404   0.853
 1389SOL     OW 4178   2.784   0.503   0.899
 1389SOL    HW1 4179   2.759   0.494   0.803
 1389SOL    HW2 4180   2.832   0.421   0.930
 1390SOL     OW 4181   2.401   0.064   0.512
 1390SOL    HW1 4182   2.320   0.065   0.570
 1390SOL    HW2 4183   2.404   0.147   0.457
 1391SOL     OW 4184   3.296   1.188   0.041
 1391SOL    HW1 4185   3.328   1.112   0.098
 1391SOL    HW2 4186   3.204   1.215   0.071
 1392SOL     OW 4187   2.159   0.035   0.171
 1392SOL    HW1 4188   2.208   0.119   0.150
 1392SOL    HW2 4189   2.221  -0.030   0.216
 1393SOL     OW 4190   2.797   0.236   0.480
 1393SOL    HW1 4191   2.749   0.277   0.402
 1393SOL    HW2 4192   2.896   0.234   0.461
 1394SOL     OW 4193   2.938   0.683   1.464
 1394SOL    HW1 4194   2.858   0.622   1.467
 1394SOL    HW2 4195   3.019   0.630   1.440
 1395SOL     OW 4196   3.089   1.570   0.793
 1395SOL    HW1 4197   3.110   1.644   0.728
 1395SOL    HW2 4198   3.157   1.570   0.866
 1396SOL     OW 4199   2.321   1.152   0.741
 1396SOL    HW1 4200   2.250   1.125   0.806
 1396SOL    HW2 4201   2.295   1.124   0.648
 1397SOL     OW 4202   3.133   1.797   0.591
 1397SOL    HW1 4203   3.177   1.861   0.527
 1397SOL    HW2 4204   3.083   1.849   0.661
 1398SOL     OW 4205   2.894   0.549   0.016
 1398SOL    HW1 4206   2.853   0.631  -0.023
 1398SOL    HW2 4207   2.958   0.575   0.089
 1399SOL     OW 4208   1.940   0.556   1.386
 1399SOL    HW1 4209   2.032   0.555   1.345
 1399SOL    HW2 4210   1.934   0.630   1.453
 1400SOL     OW 4211   2.423   0.222   1.147
 1400SOL    HW1 4212   2.461   0.138   1.184
 1400SOL    HW2 4213   2.335   0.241   1.191
 1401SOL     OW 4214   2.728   0.454   0.642
 1401SOL    HW1 4215   2.696   0.526   0.580
 1401SOL    HW2 4216   2.752   0.373   0.589
 1402SOL     OW 4217   2.879   0.039   0.753
 1402SOL    HW1 4218   2.807   0.044   0.684
 1402SOL    HW2 4219   2.855  -0.030   0.822
 1403SOL     OW 4220   3.291   1.173   0.867
 1403SOL    HW1 4221   3.236   1.089   0.860
 1403SOL    HW2 4222   3.317   1.202   0.775
 1404SOL     OW 4223   3.328   0.590   0.992
 1404SOL    HW1 4224   3.298   0.495   0.999
 1404SOL    HW2 4225   3.401   0.606   1.058
 1405SOL     OW 4226   3.719   0.833   0.377
 1405SOL    HW1 4227   3.761   0.769   0.441
 1405SOL    HW2 4228   3.681   0.782   0.299
 1406SOL     OW 4229   2.350   1.385   0.174
 1406SOL    HW1 4230   2.263   1.370   0.221
 1406SOL    HW2 4231   2.333   1.411   0.079
 1407SOL     OW 4232   3.526   1.280   0.657
 1407SOL    HW1 4233   3.625   1.288   0.671
 1407SOL    HW2 4234   3.481   1.364   0.688
 1408SOL     OW 4235   3.252   0.575   0.078
 1408SOL    HW1 4236   3.198   0.554   0.159
 1408SOL    HW2 4237   3.343   0.534   0.087
 1409SOL     OW 4238   2.389   0.256   0.328
 1409SOL    HW1 4239   2.416   0.197   0.253
 1409SOL    HW2 4240   2.389   0.351   0.297
 1410SOL     OW 4241   3.616   1.223   1.588
 1410SOL    HW1 4242   3.707   1.184   1.575
 1410SOL    HW2 4243   3.624   1.319   1.612
 1411SOL     OW 4244   2.926   1.347   1.340
 1411SOL    HW1 4245   2.846   1.324   1.395
 1411SOL    HW2 4246   3.009   1.321   1.389
 1412SOL     OW 4247   3.454   1.629   1.625
 1412SOL    HW1 4248   3.481   1.663   1.535
 1412SOL    HW2 4249   3.533   1.591   1.671
 1413SOL     OW 4250   2.973   1.195   1.100
 1413SOL    HW1 4251   2.933   1.239   1.181
 1413SOL    HW2 4252   2.932   1.232   1.017
 1414SOL     OW 4253   3.500   1.099   1.079
 1414SOL    HW1 4254   3.505   1.180   1.138
 1414SOL    HW2 4255   3.414   1.101   1.028
 1415SOL     OW 4256   2.777   0.089   1.402
 1415SOL    HW1 4257   2.802   0.069   1.307
 1415SOL    HW2 4258   2.849   0.145   1.444
 1416SOL     OW 4259   2.842   1.116   1.719
 1416SOL    HW1 4260   2.743   1.122   1.729
 1416SOL    HW2 4261   2.865   1.036   1.663
 1417SOL     OW 4262   2.567   1.050   0.368
 1417SOL    HW1 4263   2.553   1.057   0.467
 1417SOL    HW2 4264   2.651   0.999   0.350
 1418SOL     OW 4265   2.272   0.813   1.251
 1418SOL    HW1 4266   2.358   0.825   1.301
 1418SOL    HW2 4267   2.230   0.726   1.278
 1419SOL     OW 4268   3.136   0.386   1.262
 1419SOL    HW1 4269   3.157   0.460   1.326
 1419SOL    HW2 4270   3.047   0.403   1.219
 1420SOL     OW 4271   1.926   1.564   1.331
 1420SOL    HW1 4272   1.880   1.646   1.297
 1420SOL    HW2 4273   2.024   1.583   1.340
 1421SOL     OW 4274   2.229   1.100   0.501
 1421SOL    HW1 4275   2.222   1.183   0.445
 1421SOL    HW2 4276   2.233   1.020   0.441
 1422SOL     OW 4277   2.428   0.537   0.865
 1422SOL    HW1 4278   2.440   0.603   0.791
 1422SOL    HW2 4279   2.474   0.571   0.948
 1423SOL     OW 4280   3.114   1.348   0.388
 1423SOL    HW1 4281   3.164   1.425   0.428
 1423SOL    HW2 4282   3.019   1.350   0.420
 1424SOL     OW 4283   3.134   1.445   1.142
 1424SOL    HW1 4284   3.181   1.458   1.229
 1424SOL    HW2 4285   3.068   1.371   1.151
 1425SOL     OW 4286   3.444   0.639   0.472
 1425SOL    HW1 4287   3.413   0.700   0.545
 1425SOL    HW2 4288   3.494   0.691   0.403
 1426SOL     OW 4289   2.216   1.510   1.329
 1426SOL    HW1 4290   2.195   1.466   1.242
 1426SOL    HW2 4291   2.313   1.536   1.332
 1427SOL     OW 4292   2.264   0.751   1.598
 1427SOL    HW1 4293   2.332   0.806   1.551
 1427SOL    HW2 4294   2.304   0.663   1.625
 1428SOL     OW 4295   3.449   0.779   1.670
 1428SOL    HW1 4296   3.357   0.817   1.665
 1428SOL    HW2 4297   3.509   0.826   1.605
 1429SOL     OW 4298   2.875   0.105   1.770
 1429SOL    HW1 4299   2.881   0.190   1.718
 1429SOL    HW2 4300   2.907   0.029   1.713
 1430SOL     OW 4301   2.366   0.050   1.740
 1430SOL    HW1 4302   2.324  -0.007   1.670
 1430SOL    HW2 4303   2.300   0.119   1.772
 1431SOL     OW 4304   2.435   0.870   1.029
 1431SOL    HW1 4305   2.479   0.959   1.020
 1431SOL    HW2 4306   2.372   0.870   1.106
 1432SOL     OW 4307   3.222   0.862   1.045
 1432SOL    HW1 4308   3.147   0.862   0.979
 1432SOL    HW2 4309   3.259   0.770   1.054
 1433SOL     OW 4310   3.071   0.525   0.275
 1433SOL    HW1 4311   3.084   0.441   0.329
 1433SOL    HW2 4312   3.042   0.599   0.335
 1434SOL     OW 4313   2.169   0.213   1.231
 1434SOL    HW1 4314   2.146   0.250   1.321
 1434SOL    HW2 4315   2.139   0.118   1.225
 1435SOL     OW 4316   1.899   1.310   1.282
 1435SOL    HW1 4317   1.952   1.261   1.350
 1435SOL    HW2 4318   1.921   1.408   1.287
 1436SOL     OW 4319   2.594   0.634   1.064
 1436SOL    HW1 4320   2.653   0.608   0.988
 1436SOL    HW2 4321   2.566   0.730   1.053
 1437SOL     OW 4322   3.590   0.935   1.854
 1437SOL    HW1 4323   3.544   0.928   1.765
 1437SOL    HW2 4324   3.528   0.979   1.920
 1438SOL     OW 4325   2.169   0.063   0.618
 1438SOL    HW1 4326   2.158   0.157   0.651
 1438SOL    HW2 4327   2.164   0.000   0.695
 1439SOL     OW 4328   3.484   0.367   0.374
 1439SOL    HW1 4329   3.486   0.291   0.438
 1439SOL    HW2 4330   3.436   0.444   0.414
 1440SOL     OW 4331   2.885   0.766   0.966
 1440SOL    HW1 4332   2.900   0.787   1.062
 1440SOL    HW2 4333   2.855   0.671   0.957
 1441SOL     OW 4334   2.842   1.573   1.700
 1441SOL    HW1 4335   2.822   1.617   1.612
 1441SOL    HW2 4336   2.881   1.482   1.684
 1442SOL     OW 4337   3.721   1.518   1.605
 1442SOL    HW1 4338   3.735   1.545   1.510
 1442SOL    HW2 4339   3.804   1.540   1.658
 1443SOL     OW 4340   2.212   0.898   1.804
 1443SOL    HW1 4341   2.288   0.942   1.852
 1443SOL    HW2 4342   2.247   0.851   1.722
 1444SOL     OW 4343   3.402   0.274   0.125
 1444SOL    HW1 4344   3.341   0.199   0.148
 1444SOL    HW2 4345   3.424   0.326   0.208
 1445SOL     OW 4346   3.165   0.838   0.042
 1445SOL    HW1 4347   3.199   0.745   0.057
 1445SOL    HW2 4348   3.183   0.865  -0.053
 1446SOL     OW 4349   2.930   1.333   0.849
 1446SOL    HW1 4350   2.937   1.249   0.794
 1446SOL    HW2 4351   2.992   1.402   0.813
 1447SOL     OW 4352   2.181   0.810   0.949
 1447SOL    HW1 4353   2.274   0.846   0.954
 1447SOL    HW2 4354   2.175   0.725   1.001
 1448SOL     OW 4355   2.201   0.509   1.006
 1448SOL    HW1 4356   2.149   0.426   0.989
 1448SOL    HW2 4357   2.278   0.514   0.942
 1449SOL     OW 4358   3.000   0.380   1.678
 1449SOL    HW1 4359   2.955   0.443   1.742
 1449SOL    HW2 4360   3.093   0.411   1.661
 1450SOL     OW 4361   3.022   0.207   1.477
 1450SOL    HW1 4362   3.022   0.271   1.554
 1450SOL    HW2 4363   3.050   0.255   1.394
 1451SOL     OW 4364   1.870   1.326   0.200
 1451SOL    HW1 4365   1.777   1.347   0.169
 1451SOL    HW2 4366   1.880   1.227   0.213
 1452SOL     OW 4367   1.950   1.801   0.927
 1452SOL    HW1 4368   1.908   1.715   0.900
 1452SOL    HW2 4369   2.044   1.804   0.893
 1453SOL     OW 4370   2.366   1.568   0.910
 1453SOL    HW1 4371   2.432   1.642   0.919
 1453SOL    HW2 4372   2.410   1.489   0.868
 1454SOL     OW 4373   2.864   0.796   1.238
 1454SOL    HW1 4374   2.905   0.764   1.324
 1454SOL    HW2 4375   2.768   0.769   1.235
 1455SOL     OW 4376   1.902   0.544   1.114
 1455SOL    HW1 4377   1.987   0.511   1.073
 1455SOL    HW2 4378   1.915   0.559   1.212
 1456SOL     OW 4379   2.051   0.520   1.722
 1456SOL    HW1 4380   2.110   0.480   1.652
 1456SOL    HW2 4381   1.993   0.591   1.681
 1457SOL     OW 4382   3.231   0.950   1.660
 1457SOL    HW1 4383   3.270   1.039   1.680
 1457SOL    HW2 4384   3.241   0.930   1.563
 1458SOL     OW 4385   2.677   0.572   0.325
 1458SOL    HW1 4386   2.684   0.483   0.279
 1458SOL    HW2 4387   2.583   0.606   0.317
 1459SOL     OW 4388   3.519   0.604   1.206
 1459SOL    HW1 4389   3.481   0.535   1.268
 1459SOL    HW2 4390   3.601   0.568   1.162
 1460SOL     OW 4391   2.114   1.564   1.744
 1460SOL    HW1 4392   2.084   1.621   1.820
 1460SOL    HW2 4393   2.107   1.467   1.770
 1461SOL     OW 4394   2.533   0.464   1.269
 1461SOL    HW1 4395   2.499   0.375   1.239
 1461SOL    HW2 4396   2.559   0.518   1.189
 1462SOL     OW 4397   2.792   1.678   1.465
 1462SOL    HW1 4398   2.768   1.660   1.370
 1462SOL    HW2 4399   2.822   1.772   1.475
 1463SOL     OW 4400   2.335   0.500   0.191
 1463SOL    HW1 4401   2.396   0.580   0.195
 1463SOL    HW2 4402   2.240   0.531   0.198
 1464SOL     OW 4403   2.021   1.137   1.466
 1464SOL    HW1 4404   2.043   1.076   1.542
 1464SOL    HW2 4405   2.031   1.088   1.380
 1465SOL     OW 4406   3.209   1.059   1.234
 1465SOL    HW1 4407   3.233   0.996   1.160
 1465SOL    HW2 4408   3.119   1.099   1.216
 1466SOL     OW 4409   3.164   0.855   0.309
 1466SOL    HW1 4410   3.078   0.824   0.351
 1466SOL    HW2 4411   3.160   0.841   0.210
 1467SOL     OW 4412   3.621   1.747   1.154
 1467SOL    HW1 4413   3.682   1.777   1.081
 1467SOL    HW2 4414   3.583   1.658   1.132
 1468SOL     OW 4415   3.114   1.731   1.128
 1468SOL    HW1 4416   3.198   1.736   1.074
 1468SOL    HW2 4417   3.091   1.635   1.146
 1469SOL     OW 4418   1.945   1.258   1.022
 1469SOL    HW1 4419   1.940   1.257   1.122
 1469SOL    HW2 4420   1.862   1.217   0.984
 1470SOL     OW 4421   2.550   1.662   1.716
 1470SOL    HW1 4422   2.494   1.743   1.725
 1470SOL    HW2 4423   2.602   1.666   1.630
 1471SOL     OW 4424   2.765   0.086   0.133
 1471SOL    HW1 4425   2.816   0.087   0.047
 1471SOL    HW2 4426   2.821   0.044   0.204
 1472SOL     OW 4427   3.588   0.135   0.523
 1472SOL    HW1 4428   3.661   0.118   0.456
 1472SOL    HW2 4429   3.557   0.048   0.561
 1473SOL     OW 4430   3.250   1.573   0.477
 1473SOL    HW1 4431   3.317   1.585   0.403
 1473SOL    HW2 4432   3.210   1.662   0.500
 1474SOL     OW 4433   1.992   1.794   1.851
 1474SOL    HW1 4434   1.951   1.720   1.904
 1474SOL    HW2 4435   2.056   1.845   1.909
 1475SOL     OW 4436   3.142   0.927   0.672
 1475SOL    HW1 4437   3.202   0.846   0.674
 1475SOL    HW2 4438   3.182   0.996   0.612
 1476SOL     OW 4439   2.692   1.273   1.422
 1476SOL    HW1 4440   2.687   1.306   1.517
 1476SOL    HW2 4441   2.606   1.292   1.376
 1477SOL     OW 4442   2.534   1.616   0.154
 1477SOL    HW1 4443   2.543   1.626   0.055
 1477SOL    HW2 4444   2.494   1.527   0.175
 1478SOL     OW 4445   3.512   1.720   1.394
 1478SOL    HW1 4446   3.565   1.730   1.310
 1478SOL    HW2 4447   3.485   1.810   1.428
 1479SOL     OW 4448   3.703   0.175   0.963
 1479SOL    HW1 4449   3.742   0.090   0.927
 1479SOL    HW2 4450   3.605   0.177   0.944
 1480SOL     OW 4451   2.125   0.326   0.720
 1480SOL    HW1 4452   2.046   0.377   0.686
 1480SOL    HW2 4453   2.116   0.311   0.818
 1481SOL     OW 4454   3.056   1.612   0.031
 1481SOL    HW1 4455   3.062   1.519   0.068
 1481SOL    HW2 4456   2.997   1.612  -0.049
 1482SOL     OW 4457   2.684   1.002   1.372
 1482SOL    HW1 4458   2.724   1.001   1.280
 1482SOL    HW2 4459   2.694   1.094   1.412
 1483SOL     OW 4460   2.778   0.910   0.291
 1483SOL    HW1 4461   2.841   0.948   0.223
 1483SOL    HW2 4462   2.818   0.827   0.330
 1484SOL     OW 4463   3.366   1.607   0.044
 1484SOL    HW1 4464   3.274   1.644   0.051
 1484SOL    HW2 4465   3.404   1.627  -0.046
 1485SOL     OW 4466   2.234   1.288   1.490
 1485SOL    HW1 4467   2.221   1.381   1.456
 1485SOL    HW2 4468   2.150   1.236   1.477
 1486SOL     OW 4469   3.476   1.292   1.289
 1486SOL    HW1 4470   3.536   1.295   1.369
 1486SOL    HW2 4471   3.401   1.356   1.302
 1487SOL     OW 4472   2.901   1.098   0.696
 1487SOL    HW1 4473   2.831   1.051   0.750
 1487SOL    HW2 4474   2.960   1.030   0.653
 1488SOL     OW 4475   2.876   0.236   0.971
 1488SOL    HW1 4476   2.868   0.200   0.878
 1488SOL    HW2 4477   2.874   0.160   1.036
 1489SOL     OW 4478   2.452   1.487   0.491
 1489SOL    HW1 4479   2.494   1.429   0.421
 1489SOL    HW2 4480   2.408   1.566   0.447
 1490SOL     OW 4481   3.571   0.385   1.381
 1490SOL    HW1 4482   3.644   0.454   1.385
 1490SOL    HW2 4483   3.599   0.310   1.322
 1491SOL     OW 4484   2.117   1.348   0.290
 1491SOL    HW1 4485   2.021   1.349   0.263
 1491SOL    HW2 4486   2.129   1.401   0.374
 1492SOL     OW 4487   1.967   1.013   1.726
 1492SOL    HW1 4488   1.890   0.980   1.780
 1492SOL    HW2 4489   2.052   0.983   1.768
 1493SOL     OW 4490   2.534   0.203   1.489
 1493SOL    HW1 4491   2.624   0.187   1.449
 1493SOL    HW2 4492   2.542   0.208   1.588
 1494SOL     OW 4493   3.302   0.856   1.398
 1494SOL    HW1 4494   3.245   0.908   1.335
 1494SOL    HW2 4495   3.398   0.868   1.374
 1495SOL     OW 4496   3.045   1.335   0.119
 1495SOL    HW1 4497   2.946   1.324   0.121
 1495SOL    HW2 4498   3.079   1.350   0.212
 1496SOL     OW 4499   2.475   0.842   1.431
 1496SOL    HW1 4500   2.531   0.923   1.414
 1496SOL    HW2 4501   2.534   0.762   1.434
 1497SOL     OW 4502   3.355   1.767   0.959
 1497SOL    HW1 4503   3.388   1.831   0.890
 1497SOL    HW2 4504   3.421   1.761   1.034
 1498SOL     OW 4505   2.578   0.565   1.708
 1498SOL    HW1 4506   2.597   0.630   1.782
 1498SOL    HW2 4507   2.638   0.485   1.717
 1499SOL     OW 4508   3.312   1.220   1.633
 1499SOL    HW1 4509   3.303   1.210   1.732
 1499SOL    HW2 4510   3.408   1.213   1.607
 1500SOL     OW 4511   2.252   1.741   1.560
 1500SOL    HW1 4512   2.161   1.782   1.558
 1500SOL    HW2 4513   2.245   1.647   1.592
 1501SOL     OW 4514   3.536   0.883   1.254
 1501SOL    HW1 4515   3.509   0.794   1.217
 1501SOL    HW2 4516   3.537   0.951   1.181
 1502SOL     OW 4517   3.087   0.325   0.449
 1502SOL    HW1 4518   3.152   0.251   0.438
 1502SOL    HW2 4519   3.107   0.375   0.533
 1503SOL     OW 4520   2.456   0.745   0.652
 1503SOL    HW1 4521   2.506   0.830   0.633
 1503SOL    HW2 4522   2.368   0.747   0.604
 1504SOL     OW 4523   3.639   0.342   1.642
 1504SOL    HW1 4524   3.622   0.373   1.548
 1504SOL    HW2 4525   3.555   0.305   1.680
 1505SOL     OW 4526   3.592   0.934   1.517
 1505SOL    HW1 4527   3.630   1.025   1.532
 1505SOL    HW2 4528   3.584   0.917   1.418
 1506SOL     OW 4529   2.721   1.374   0.016
 1506SOL    HW1 4530   2.675   1.389   0.104
 1506SOL    HW2 4531   2.765   1.459  -0.014
 1507SOL     OW 4532   2.523   1.790   0.953
 1507SOL    HW1 4533   2.477   1.878   0.940
 1507SOL    HW2 4534   2.622   1.802   0.946
 1508SOL     OW 4535   2.721   0.956   0.861
 1508SOL    HW1 4536   2.775   0.887   0.909
 1508SOL    HW2 4537   2.689   1.025   0.927
 1509SOL     OW 4538   2.945   0.984   0.087
 1509SOL    HW1 4539   2.922   1.037   0.005
 1509SOL    HW2 4540   3.026   0.928   0.068
 1510SOL     OW 4541   3.723   1.569   0.851
 1510SOL    HW1 4542   3.652   1.557   0.781
 1510SOL    HW2 4543   3.724   1.490   0.911
 1511SOL     OW 4544   2.083   1.314   1.844
 1511SOL    HW1 4545   2.018   1.241   1.823
 1511SOL    HW2 4546   2.087   1.328   1.942
 1512SOL     OW 4547   1.941   1.240   0.653
 1512SOL    HW1 4548   1.940   1.193   0.741
 1512SOL    HW2 4549   2.023   1.212   0.602
 1513SOL     OW 4550   2.534   1.391   1.624
 1513SOL    HW1 4551   2.456   1.341   1.662
 1513SOL    HW2 4552   2.531   1.486   1.655
 1514SOL     OW 4553   3.686   0.192   1.227
 1514SOL    HW1 4554   3.682   0.102   1.271
 1514SOL    HW2 4555   3.689   0.181   1.128
 1515SOL     OW 4556   2.290   0.424   0.520
 1515SOL    HW1 4557   2.320   0.352   0.458
 1515SOL    HW2 4558   2.251   0.384   0.603
 1516SOL     OW 4559   3.567   1.487   1.104
 1516SOL    HW1 4560   3.474   1.462   1.077
 1516SOL    HW2 4561   3.593   1.437   1.186
 1517SOL     OW 4562   2.179   0.547   1.280
 1517SOL    HW1 4563   2.217   0.488   1.352
 1517SOL    HW2 4564   2.219   0.521   1.192
 1518SOL     OW 4565   2.674   1.586   0.687
 1518SOL    HW1 4566   2.706   1.596   0.593
 1518SOL    HW2 4567   2.595   1.524   0.689
 1519SOL     OW 4568   3.286   0.214   1.112
 1519SOL    HW1 4569   3.338   0.149   1.167
 1519SOL    HW2 4570   3.237   0.277   1.173
 1520SOL     OW 4571   2.863   0.034   1.154
 1520SOL    HW1 4572   2.800  -0.038   1.123
 1520SOL    HW2 4573   2.956  -0.002   1.154
 1521SOL     OW 4574   2.632   1.330   0.301
 1521SOL    HW1 4575   2.586   1.243   0.318
 1521SOL    HW2 4576   2.723   1.327   0.342
 1522SOL     OW 4577   2.480   1.567   1.284
 1522SOL    HW1 4578   2.475   1.649   1.341
 1522SOL    HW2 4579   2.569   1.564   1.239
 1523SOL     OW 4580   3.214   0.052   0.168
 1523SOL    HW1 4581   3.249   0.011   0.084
 1523SOL    HW2 4582   3.124   0.014   0.188
 1524SOL     OW 4583   3.162   0.453   0.691
 1524SOL    HW1 4584   3.103   0.533   0.695
 1524SOL    HW2 4585   3.177   0.418   0.784
 1525SOL     OW 4586   3.455   0.221   0.882
 1525SOL    HW1 4587   3.371   0.220   0.936
 1525SOL    HW2 4588   3.457   0.304   0.826
 1526SOL     OW 4589   1.901   1.077   0.300
 1526SOL    HW1 4590   2.000   1.066   0.291
 1526SOL    HW2 4591   1.861   0.991   0.332
 1527SOL     OW 4592   2.737   1.646   0.337
 1527SOL    HW1 4593   2.660   1.611   0.283
 1527SOL    HW2 4594   2.705   1.717   0.399
 1528SOL     OW 4595   2.092   0.628   1.975
 1528SOL    HW1 4596   1.999   0.626   2.012
 1528SOL    HW2 4597   2.093   0.589   1.883
 1529SOL     OW 4598   2.087   0.275   2.858
 1529SOL    HW1 4599   2.122   0.258   2.950
 1529SOL    HW2 4600   1.999   0.230   2.846
 1530SOL     OW 4601   1.881   0.368   2.509
 1530SOL    HW1 4602   1.799   0.411   2.548
 1530SOL    HW2 4603   1.853   0.295   2.446
 1531SOL     OW 4604   2.431   1.275   3.027
 1531SOL    HW1 4605   2.338   1.268   2.990
 1531SOL    HW2 4606   2.442   1.364   3.071
 1532SOL     OW 4607   3.417   1.511   2.565
 1532SOL    HW1 4608   3.360   1.495   2.646
 1532SOL    HW2 4609   3.358   1.521   2.485
 1533SOL     OW 4610   2.997   0.703   2.579
 1533SOL    HW1 4611   3.054   0.781   2.554
 1533SOL    HW2 4612   2.937   0.729   2.655
 1534SOL     OW 4613   3.617   0.607   2.093
 1534SOL    HW1 4614   3.605   0.594   1.994
 1534SOL    HW2 4615   3.587   0.526   2.142
 1535SOL     OW 4616   2.630   1.144   2.885
 1535SOL    HW1 4617   2.552   1.161   2.945
 1535SOL    HW2 4618   2.664   1.231   2.849
 1536SOL     OW 4619   2.712   0.798   3.685
 1536SOL    HW1 4620   2.708   0.874   3.750
 1536SOL    HW2 4621   2.734   0.834   3.594
 1537SOL     OW 4622   2.547   1.012   2.527
 1537SOL    HW1 4623   2.616   0.996   2.597
 1537SOL    HW2 4624   2.474   1.069   2.565
 1538SOL     OW 4625   2.548   1.161   3.665
 1538SOL    HW1 4626   2.608   1.240   3.679
 1538SOL    HW2 4627   2.462   1.192   3.624
 1539SOL     OW 4628   2.197   1.435   2.923
 1539SOL    HW1 4629   2.119   1.404   2.870
 1539SOL    HW2 4630   2.255   1.493   2.866
 1540SOL     OW 4631   3.322   1.505   3.201
 1540SOL    HW1 4632   3.346   1.599   3.227
 1540SOL    HW2 4633   3.306   1.451   3.283
 1541SOL     OW 4634   2.300   0.392   3.361
 1541SOL    HW1 4635   2.382   0.336   3.370
 1541SOL    HW2 4636   2.219   0.334   3.365
 1542SOL     OW 4637   3.465   0.447   2.599
 1542SOL    HW1 4638   3.391   0.493   2.549
 1542SOL    HW2 4639   3.516   0.515   2.652
 1543SOL     OW 4640   2.093   1.713   2.345
 1543SOL    HW1 4641   2.127   1.790   2.399
 1543SOL    HW2 4642   2.137   1.713   2.255
 1544SOL     OW 4643   2.989   1.341   3.552
 1544SOL    HW1 4644   3.036   1.341   3.640
 1544SOL    HW2 4645   2.941   1.254   3.541
 1545SOL     OW 4646   2.092   1.434   2.400
 1545SOL    HW1 4647   2.066   1.530   2.400
 1545SOL    HW2 4648   2.021   1.380   2.445
 1546SOL     OW 4649   2.102   1.091   2.748
 1546SOL    HW1 4650   2.116   1.007   2.800
 1546SOL    HW2 4651   2.047   1.155   2.803
 1547SOL     OW 4652   2.482   1.786   3.301
 1547SOL    HW1 4653   2.390   1.769   3.336
 1547SOL    HW2 4654   2.510   1.878   3.327
 1548SOL     OW 4655   2.468   0.964   1.985
 1548SOL    HW1 4656   2.475   1.048   1.931
 1548SOL    HW2 4657   2.514   0.977   2.073
 1549SOL     OW 4658   3.456   0.114   3.342
 1549SOL    HW1 4659   3.438   0.181   3.270
 1549SOL    HW2 4660   3.453   0.160   3.431
 1550SOL     OW 4661   1.984   0.643   2.425
 1550SOL    HW1 4662   1.939   0.555   2.442
 1550SOL    HW2 4663   1.983   0.697   2.509
 1551SOL     OW 4664   3.704   1.767   2.221
 1551SOL    HW1 4665   3.758   1.738   2.301
 1551SOL    HW2 4666   3.734   1.857   2.192
 1552SOL     OW 4667   1.889   1.596   1.979
 1552SOL    HW1 4668   1.870   1.500   2.000
 1552SOL    HW2 4669   1.856   1.654   2.054
 1553SOL     OW 4670   3.551   0.922   2.474
 1553SOL    HW1 4671   3.646   0.893   2.482
 1553SOL    HW2 4672   3.543   0.987   2.399
 1554SOL     OW 4673   3.503   1.108   2.294
 1554SOL    HW1 4674   3.589   1.110   2.242
 1554SOL    HW2 4675   3.517   1.155   2.382
 1555SOL     OW 4676   1.975   0.737   3.459
 1555SOL    HW1 4677   2.063   0.724   3.504
 1555SOL    HW2 4678   1.962   0.834   3.437
 1556SOL     OW 4679   2.475   1.365   2.588
 1556SOL    HW1 4680   2.426   1.278   2.597
 1556SOL    HW2 4681   2.452   1.408   2.501
 1557SOL     OW 4682   3.155   1.228   3.285
 1557SOL    HW1 4683   3.192   1.155   3.227
 1557SOL    HW2 4684   3.207   1.233   3.370
 1558SOL     OW 4685   2.671   0.004   2.364
 1558SOL    HW1 4686   2.711   0.095   2.355
 1558SOL    HW2 4687   2.571   0.012   2.370
 1559SOL     OW 4688   2.059   0.976   3.126
 1559SOL    HW1 4689   2.148   0.931   3.112
 1559SOL    HW2 4690   1.986   0.911   3.107
 1560SOL     OW 4691   3.387   0.999   2.052
 1560SOL    HW1 4692   3.324   0.923   2.065
 1560SOL    HW2 4693   3.435   1.017   2.138
 1561SOL     OW 4694   3.049   1.792   3.478
 1561SOL    HW1 4695   3.073   1.852   3.402
 1561SOL    HW2 4696   3.056   1.697   3.448
 1562SOL     OW 4697   2.179   0.251   3.663
 1562SOL    HW1 4698   2.250   0.322   3.669
 1562SOL    HW2 4699   2.091   0.290   3.691
 1563SOL     OW 4700   3.328   1.417   2.815
 1563SOL    HW1 4701   3.269   1.423   2.895
 1563SOL    HW2 4702   3.313   1.329   2.769
 1564SOL     OW 4703   3.529   1.714   2.434
 1564SOL    HW1 4704   3.488   1.691   2.346
 1564SOL    HW2 4705   3.511   1.640   2.499
 1565SOL     OW 4706   2.460   0.729   2.132
 1565SOL    HW1 4707   2.484   0.798   2.064
 1565SOL    HW2 4708   2.382   0.762   2.186
 1566SOL     OW 4709   3.143   0.345   2.806
 1566SOL    HW1 4710   3.057   0.295   2.793
 1566SOL    HW2 4711   3.205   0.291   2.862
 1567SOL     OW 4712   3.438   1.662   2.169
 1567SOL    HW1 4713   3.527   1.708   2.172
 1567SOL    HW2 4714   3.417   1.638   2.074
 1568SOL     OW 4715   2.669   0.605   3.327
 1568SOL    HW1 4716   2.622   0.602   3.416
 1568SOL    HW2 4717   2.618   0.550   3.261
 1569SOL     OW 4718   3.256   0.469   3.536
 1569SOL    HW1 4719   3.236   0.512   3.624
 1569SOL    HW2 4720   3.334   0.407   3.545
 1570SOL     OW 4721   2.835   0.890   3.434
 1570SOL    HW1 4722   2.881   0.806   3.405
 1570SOL    HW2 4723   2.779   0.924   3.359
 1571SOL     OW 4724   2.853   0.410   3.104
 1571SOL    HW1 4725   2.776   0.444   3.158
 1571SOL    HW2 4726   2.819   0.359   3.025
 1572SOL     OW 4727   2.903   0.701   2.291
 1572SOL    HW1 4728   2.929   0.697   2.387
 1572SOL    HW2 4729   2.818   0.650   2.277
 1573SOL     OW 4730   1.938   0.811   2.651
 1573SOL    HW1 4731   2.037   0.799   2.660
 1573SOL    HW2 4732   1.914   0.906   2.672
 1574SOL     OW 4733   1.992   1.821   3.433
 1574SOL    HW1 4734   1.982   1.806   3.532
 1574SOL    HW2 4735   1.906   1.857   3.397
 1575SOL     OW 4736   2.727   0.348   2.057
 1575SOL    HW1 4737   2.786   0.411   2.008
 1575SOL    HW2 4738   2.746   0.254   2.028
 1576SOL     OW 4739   3.581   0.585   3.693
 1576SOL    HW1 4740   3.555   0.674   3.657
 1576SOL    HW2 4741   3.579   0.517   3.620
 1577SOL     OW 4742   3.224   1.144   2.407
 1577SOL    HW1 4743   3.307   1.115   2.359
 1577SOL    HW2 4744   3.175   1.211   2.351
 1578SOL     OW 4745   2.412   0.196   2.747
 1578SOL    HW1 4746   2.407   0.191   2.847
 1578SOL    HW2 4747   2.414   0.292   2.718
 1579SOL     OW 4748   2.870   1.456   2.339
 1579SOL    HW1 4749   2.824   1.528   2.287
 1579SOL    HW2 4750   2.866   1.476   2.437
 1580SOL     OW 4751   2.213   1.801   2.715
 1580SOL    HW1 4752   2.263   1.715   2.721
 1580SOL    HW2 4753   2.278   1.878   2.712
 1581SOL     OW 4754   3.657   1.066   2.735
 1581SOL    HW1 4755   3.595   1.051   2.659
 1581SOL    HW2 4756   3.605   1.077   2.820
 1582SOL     OW 4757   3.089   1.550   3.368
 1582SOL    HW1 4758   3.095   1.473   3.432
 1582SOL    HW2 4759   3.037   1.524   3.288
 1583SOL     OW 4760   2.183   0.943   2.104
 1583SOL    HW1 4761   2.265   0.982   2.062
 1583SOL    HW2 4762   2.156   0.861   2.055
 1584SOL     OW 4763   3.320   0.735   2.590
 1584SOL    HW1 4764   3.315   0.670   2.665
 1584SOL    HW2 4765   3.400   0.794   2.603
 1585SOL     OW 4766   2.323   1.266   3.589
 1585SOL    HW1 4767   2.273   1.267   3.503
 1585SOL    HW2 4768   2.260   1.248   3.665
 1586SOL     OW 4769   2.973   1.776   2.099
 1586SOL    HW1 4770   2.913   1.714   2.149
 1586SOL    HW2 4771   3.004   1.732   2.014
 1587SOL     OW 4772   2.064   0.285   3.360
 1587SOL    HW1 4773   1.984   0.345   3.347
 1587SOL    HW2 4774   2.054   0.236   3.446
 1588SOL     OW 4775   3.494   1.377   1.943
 1588SOL    HW1 4776   3.462   1.471   1.933
 1588SOL    HW2 4777   3.418   1.314   1.931
 1589SOL     OW 4778   2.326   1.743   2.185
 1589SOL    HW1 4779   2.359   1.782   2.271
 1589SOL    HW2 4780   2.402   1.736   2.120
 1590SOL     OW 4781   3.262   0.107   2.288
 1590SOL    HW1 4782   3.238   0.070   2.198
 1590SOL    HW2 4783   3.361   0.123   2.292
 1591SOL     OW 4784   2.111   1.785   3.103
 1591SOL    HW1 4785   2.168   1.720   3.153
 1591SOL    HW2 4786   2.095   1.752   3.010
 1592SOL     OW 4787   2.802   1.698   2.766
 1592SOL    HW1 4788   2.882   1.641   2.787
 1592SOL    HW2 4789   2.753   1.658   2.689
 1593SOL     OW 4790   2.244   0.700   2.342
 1593SOL    HW1 4791   2.289   0.610   2.339
 1593SOL    HW2 4792   2.150   0.689   2.375
 1594SOL     OW 4793   3.409   0.222   3.591
 1594SOL    HW1 4794   3.404   0.259   3.683
 1594SOL    HW2 4795   3.337   0.153   3.579
 1595SOL     OW 4796   2.476   0.122   1.979
 1595SOL    HW1 4797   2.574   0.100   1.986
 1595SOL    HW2 4798   2.445   0.105   1.886
 1596SOL     OW 4799   2.643   0.264   3.611
 1596SOL    HW1 4800   2.710   0.203   3.654
 1596SOL    HW2 4801   2.570   0.283   3.676
 1597SOL     OW 4802   2.750   1.514   3.057
 1597SOL    HW1 4803   2.727   1.489   2.963
 1597SOL    HW2 4804   2.811   1.445   3.096
 1598SOL     OW 4805   3.213   0.590   3.295
 1598SOL    HW1 4806   3.241   0.547   3.380
 1598SOL    HW2 4807   3.238   0.686   3.296
 1599SOL     OW 4808   2.665   1.402   2.786
 1599SOL    HW1 4809   2.755   1.416   2.744
 1599SOL    HW2 4810   2.594   1.404   2.715
 1600SOL     OW 4811   2.784   0.503   2.761
 1600SOL    HW1 4812   2.759   0.494   2.665
 1600SOL    HW2 4813   2.832   0.421   2.792
 1601SOL     OW 4814   2.401   0.064   2.374
 1601SOL    HW1 4815   2.320   0.065   2.432
 1601SOL    HW2 4816   2.404   0.147   2.319
 1602SOL     OW 4817   3.296   1.188   1.903
 1602SOL    HW1 4818   3.328   1.112   1.960
 1602SOL    HW2 4819   3.204   1.215   1.933
 1603SOL     OW 4820   2.159   0.035   2.033
 1603SOL    HW1 4821   2.208   0.119   2.012
 1603SOL    HW2 4822   2.221  -0.030   2.078
 1604SOL     OW 4823   2.797   0.236   2.342
 1604SOL    HW1 4824   2.749   0.277   2.264
 1604SOL    HW2 4825   2.896   0.234   2.323
 1605SOL     OW 4826   2.938   0.683   3.326
 1605SOL    HW1 4827   2.858   0.622   3.329
 1605SOL    HW2 4828   3.019   0.630   3.302
 1606SOL     OW 4829   3.089   1.570   2.655
 1606SOL    HW1 4830   3.110   1.644   2.590
 1606SOL    HW2 4831   3.157   1.570   2.728
 1607SOL     OW 4832   2.321   1.152   2.603
 1607SOL    HW1 4833   2.250   1.125   2.668
 1607SOL    HW2 4834   2.295   1.124   2.510
 1608SOL     OW 4835   3.133   1.797   2.453
 1608SOL    HW1 4836   3.177   1.861   2.389
 1608SOL    HW2 4837   3.083   1.849   2.523
 1609SOL     OW 4838   2.894   0.549   1.878
 1609SOL    HW1 4839   2.853   0.631   1.839
 1609SOL    HW2 4840   2.958   0.575   1.951
 1610SOL     OW 4841   1.940   0.556   3.248
 1610SOL    HW1 4842   2.032   0.555   3.207
 1610SOL    HW2 4843   1.934   0.630   3.315
 1611SOL     OW 4844   2.423   0.222   3.009
 1611SOL    HW1 4845   2.461   0.138   3.046
 1611SOL    HW2 4846   2.335   0.241   3.053
 1612SOL     OW 4847   2.728   0.454   2.504
 1612SOL    HW1 4848   2.696   0.526   2.442
 1612SOL    HW2 4849   2.752   0.373   2.451
 1613SOL     OW 4850   2.879   0.039   2.615
 1613SOL    HW1 4851   2.807   0.044   2.546
 1613SOL    HW2 4852   2.855  -0.030   2.684
 1614SOL     OW 4853   3.291   1.173   2.729
 1614SOL    HW1 4854   3.236   1.089   2.722
 1614SOL    HW2 4855   3.317   1.202   2.637
 1615SOL     OW 4856   3.328   0.590   2.854
 1615SOL    HW1 4857   3.298   0.495   2.861
 1615SOL    HW2 4858   3.401   0.606   2.920
 1616SOL     OW 4859   3.719   0.833   2.239
 1616SOL    HW1 4860   3.761   0.769   2.303
 1616SOL    HW2 4861   3.681   0.782   2.161
 1617SOL     OW 4862   2.350   1.385   2.036
 1617SOL    HW1 4863   2.263   1.370   2.083
 1617SOL    HW2 4864   2.333   1.411   1.941
 1618SOL     OW 4865   3.526   1.280   2.519
 1618SOL    HW1 4866   3.625   1.288   2.533
 1618SOL    HW2 4867   3.481   1.364   2.550
 1619SOL     OW 4868   3.252   0.575   1.940
 1619SOL    HW1 4869   3.198   0.554   2.021
 1619SOL    HW2 4870   3.343   0.534   1.949
 1620SOL     OW 4871   2.389   0.256   2.190
 1620SOL    HW1 4872   2.416   0.197   2.115
 1620SOL    HW2 4873   2.389   0.351   2.159
 1621SOL     OW 4874   3.616   1.223   3.450
 1621SOL    HW1 4875   3.707   1.184   3.437
 1621SOL    HW2 4876   3.624   1.319   3.474
 1622SOL     OW 4877   2.926   1.347   3.202
 1622SOL    HW1 4878   2.846   1.324   3.257
 1622SOL    HW2 4879   3.009   1.321   3.251
 1623SOL     OW 4880   3.454   1.629   3.487
 1623SOL    HW1 4881   3.481   1.663   3.397
 1623SOL    HW2 4882   3.533   1.591   3.533
 1624SOL     OW 4883   2.973   1.195   2.962
 1624SOL    HW1 4884   2.933   1.239   3.043
 1624SOL    HW2 4885   2.932   1.232   2.879
 1625SOL     OW 4886   3.500   1.099   2.941
 1625SOL    HW1 4887   3.505   1.180   3.000
 1625SOL    HW2 4888   3.414   1.101   2.890
 1626SOL     OW 4889   2.777   0.089   3.264
 1626SOL    HW1 4890   2.802   0.069   3.169
 1626SOL    HW2 4891   2.849   0.145   3.306
 1627SOL     OW 4892   2.842   1.116   3.581
 1627SOL    HW1 4893   2.743   1.122   3.591
 1627SOL    HW2 4894   2.865   1.036   3.525
 1628SOL     OW 4895   2.567   1.050   2.230
 1628SOL    HW1 4896   2.553   1.057   2.329
 1628SOL    HW2 4897   2.651   0.999   2.212
 1629SOL     OW 4898   2.272   0.813   3.113
 1629SOL    HW1 4899   2.358   0.825   3.163
 1629SOL    HW2 4900   2.230   0.726   3.140
 1630SOL     OW 4901   3.136   0.386   3.124
 1630SOL    HW1 4902   3.157   0.460   3.188
 1630SOL    HW2 4903   3.047   0.403   3.081
 1631SOL     OW 4904   1.926   1.564   3.193
 1631SOL    HW1 4905   1.880   1.646   3.159
 1631SOL    HW2 4906   2.024   1.583   3.202
 1632SOL     OW 4907   2.229   1.100   2.363
 1632SOL    HW1 4908   2.222   1.183   2.307
 1632SOL    HW2 4909   2.233   1.020   2.303
 1633SOL     OW 4910   2.428   0.537   2.727
 1633SOL    HW1 4911   2.440   0.603   2.653
 1633SOL    HW2 4912   2.474   0.571   2.810
 1634SOL     OW 4913   3.114   1.348   2.250
 1634SOL    HW1 4914   3.164   1.425   2.290
 1634SOL    HW2 4915   3.019   1.350   2.282
 1635SOL     OW 4916   3.134   1.445   3.004
 1635SOL    HW1 4917   3.181   1.458   3.091
 1635SOL    HW2 4918   3.068   1.371   3.013
 1636SOL     OW 4919   3.444   0.639   2.334
 1636SOL    HW1 4920   3.413   0.700   2.407
 1636SOL    HW2 4921   3.494   0.691   2.265
 1637SOL     OW 4922   2.216   1.510   3.191
 1637SOL    HW1 4923   2.195   1.466   3.104
 1637SOL    HW2 4924   2.313   1.536   3.194
 1638SOL     OW 4925   2.264   0.751   3.460
 1638SOL    HW1 4926   2.332   0.806   3.413
 1638SOL    HW2 4927   2.304   0.663   3.487
 1639SOL     OW 4928   3.449   0.779   3.532
 1639SOL    HW1 4929   3.357   0.817   3.527
 1639SOL    HW2 4930   3.509   0.826   3.467
 1640SOL     OW 4931   2.875   0.105   3.632
 1640SOL    HW1 4932   2.881   0.190   3.580
 1640SOL    HW2 4933   2.907   0.029   3.575
 1641SOL     OW 4934   2.366   0.050   3.602
 1641SOL    HW1 4935   2.324  -0.007   3.532
 1641SOL    HW2 4936   2.300   0.119   3.634
 1642SOL     OW 4937   2.435   0.870   2.891
 1642SOL    HW1 4938   2.479   0.959   2.882
 1642SOL    HW2 4939   2.372   0.870   2.968
 1643SOL     OW 4940   3.222   0.862   2.907
 1643SOL    HW1 4941   3.147   0.862   2.841
 1643SOL    HW2 4942   3.259   0.770   2.916
 1644SOL     OW 4943   3.071   0.525   2.137
 1644SOL    HW1 4944   3.084   0.441   2.191
 1644SOL    HW2 4945   3.042   0.599   2.197
 1645SOL     OW 4946   2.169   0.213   3.093
 1645SOL    HW1 4947   2.146   0.250   3.183
 1645SOL    HW2 4948   2.139   0.118   3.087
 1646SOL     OW 4949   1.899   1.310   3.144
 1646SOL    HW1 4950   1.952   1.261   3.212
 1646SOL    HW2 4951   1.921   1.408   3.149
 1647SOL     OW 4952   2.594   0.634   2.926
 1647SOL    HW1 4953   2.653   0.608   2.850
 1647SOL    HW2 4954   2.566   0.730   2.915
 1648SOL     OW 4955   3.590   0.935   3.716
 1648SOL    HW1 4956   3.544   0.928   3.627
 1648SOL    HW2 4957   3.528   0.979   3.782
 1649SOL     OW 4958   2.169   0.063   2.480
 1649SOL    HW1 4959   2.158   0.157   2.513
 1649SOL    HW2 4960   2.164   0.000   2.557
 1650SOL     OW 4961   3.484   0.367   2.236
 1650SOL    HW1 4962   3.486   0.291   2.300
 1650SOL    HW2 4963   3.436   0.444   2.276
 1651SOL     OW 4964   2.885   0.766   2.828
 1651SOL    HW1 4965   2.900   0.787   2.924
 1651SOL    HW2 4966   2.855   0.671   2.819
 1652SOL     OW 4967   2.842   1.573   3.562
 1652SOL    HW1 4968   2.822   1.617   3.474
 1652SOL    HW2 4969   2.881   1.482   3.546
 1653SOL     OW 4970   3.721   1.518   3.467
 1653SOL    HW1 4971   3.735   1.545   3.372
 1653SOL    HW2 4972   3.804   1.540   3.520
 1654SOL     OW 4973   2.212   0.898   3.666
 1654SOL    HW1 4974   2.288   0.942   3.714
 1654SOL    HW2 4975   2.247   0.851   3.584
 1655SOL     OW 4976   3.402   0.274   1.987
 1655SOL    HW1 4977   3.341   0.199   2.010
 1655SOL    HW2 4978   3.424   0.326   2.070
 1656SOL     OW 4979   3.165   0.838   1.904
 1656SOL    HW1 4980   3.199   0.745   1.919
 1656SOL    HW2 4981   3.183   0.865   1.809
 1657SOL     OW 4982   2.930   1.333   2.711
 1657SOL    HW1 4983   2.937   1.249   2.656
 1657SOL    HW2 4984   2.992   1.402   2.675
 1658SOL     OW 4985   2.181   0.810   2.811
 1658SOL    HW1 4986   2.274   0.846   2.816
 1658SOL    HW2 4987   2.175   0.725   2.863
 1659SOL     OW 4988   2.201   0.509   2.868
 1659SOL    HW1 4989   2.149   0.426   2.851
 1659SOL    HW2 4990   2.278   0.514   2.804
 1660SOL     OW 4991   3.000   0.380   3.540
 1660SOL    HW1 4992   2.955   0.443   3.604
 1660SOL    HW2 4993   3.093   0.411   3.523
 1661SOL     OW 4994   3.022   0.207   3.339
 1661SOL    HW1 4995   3.022   0.271   3.416
 1661SOL    HW2 4996   3.050   0.255   3.256
 1662SOL     OW 4997   1.870   1.326   2.062
 1662SOL    HW1 4998   1.777   1.347   2.031
 1662SOL    HW2 4999   1.880   1.227   2.075
 1663SOL     OW 5000   1.950   1.801   2.789
 1663SOL    HW1 5001   1.908   1.715   2.762
 1663SOL    HW2 5002   2.044   1.804   2.755
 1664SOL     OW 5003   2.366   1.568   2.772
 1664SOL    HW1 5004   2.432   1.642   2.781
 1664SOL    HW2 5005   2.410   1.489   2.730
 1665SOL     OW 5006   2.864   0.796   3.100
 1665SOL    HW1 5007   2.905   0.764   3.186
 1665SOL    HW2 5008   2.768   0.769   3.097
 1666SOL     OW 5009   1.902   0.544   2.976
 1666SOL    HW1 5010   1.987   0.511   2.935
 1666SOL    HW2 5011   1.915   0.559   3.074
 1667SOL     OW 5012   2.051   0.520   3.584
 1667SOL    HW1 5013   2.110   0.480   3.514
 1667SOL    HW2 5014   1.993   0.591   3.543
 1668SOL     OW 5015   3.231   0.950   3.522
 1668SOL    HW1 5016   3.270   1.039   3.542
 1668SOL    HW2 5017   3.241   0.930   3.425
 1669SOL     OW 5018   2.677   0.572   2.187
 1669SOL    HW1 5019   2.684   0.483   2.141
 1669SOL    HW2 5020   2.583   0.606   2.179
 1670SOL     OW 5021   3.519   0.604   3.068
 1670SOL    HW1 5022   3.481   0.535   3.130
 1670SOL    HW2 5023   3.601   0.568   3.024
 1671SOL     OW 5024   2.114   1.564   3.606
 1671SOL    HW1 5025   2.084   1.621   3.682
 1671SOL    HW2 5026   2.107   1.467   3.632
 1672SOL     OW 5027   2.533   0.464   3.131
 1672SOL    HW1 5028   2.499   0.375   3.101
 1672SOL    HW2 5029   2.559   0.518   3.051
 1673SOL     OW 5030   2.792   1.678   3.327
 1673SOL    HW1 5031   2.768   1.660   3.232
 1673SOL    HW2 5032   2.822   1.772   3.337
 1674SOL     OW 5033   2.335   0.500   2.053
 1674SOL    HW1 5034   2.396   0.580   2.057
 1674SOL    HW2 5035   2.240   0.531   2.060
 1675SOL     OW 5036   2.021   1.137   3.328
 1675SOL    HW1 5037   2.043   1.076   3.404
 1675SOL    HW2 5038   2.031   1.088   3.242
 1676SOL     OW 5039   3.209   1.059   3.096
 1676SOL    HW1 5040   3.233   0.996   3.022
 1676SOL    HW2 5041   3.119   1.099   3.078
 1677SOL     OW 5042   3.164   0.855   2.171
 1677SOL    HW1 5043   3.078   0.824   2.213
 1677SOL    HW2 5044   3.160   0.841   2.072
 1678SOL     OW 5045   3.621   1.747   3.016
 1678SOL    HW1 5046   3.682   1.777   2.943
 1678SOL    HW2 5047   3.583   1.658   2.994
 1679SOL     OW 5048   3.114   1.731   2.990
 1679SOL    HW1 5049   3.198   1.736   2.936
 1679SOL    HW2 5050   3.091   1.635   3.008
 1680SOL     OW 5051   1.945   1.258   2.884
 1680SOL    HW1 5052   1.940   1.257   2.984
 1680SOL    HW2 5053   1.862   1.217   2.846
 1681SOL     OW 5054   2.550   1.662   3.578
 1681SOL    HW1 5055   2.494   1.743   3.587
 1681SOL    HW2 5056   2.602   1.666   3.492
 1682SOL     OW 5057   3.588   0.135   2.385
 1682SOL    HW1 5058   3.661   0.118   2.318
 1682SOL    HW2 5059   3.557   0.048   2.423
 1683SOL     OW 5060   3.250   1.573   2.339
 1683SOL    HW1 5061   3.317   1.585   2.265
 1683SOL    HW2 5062   3.210   1.662   2.362
 1684SOL     OW 5063   1.992   1.794   3.713
 1684SOL    HW1 5064   1.951   1.720   3.766
 1684SOL    HW2 5065   2.056   1.845   3.771
 1685SOL     OW 5066   3.142   0.927   2.534
 1685SOL    HW1 5067   3.202   0.846   2.536
 1685SOL    HW2 5068   3.182   0.996   2.474
 1686SOL     OW 5069   2.692   1.273   3.284
 1686SOL    HW1 5070   2.687   1.306   3.379
 1686SOL    HW2 5071   2.606   1.292   3.238
 1687SOL     OW 5072   2.534   1.616   2.016
 1687SOL    HW1 5073   2.543   1.626   1.917
 1687SOL    HW2 5074   2.494   1.527   2.037
 1688SOL     OW 5075   3.512   1.720   3.256
 1688SOL    HW1 5076   3.565   1.730   3.172
 1688SOL    HW2 5077   3.485   1.810   3.290
 1689SOL     OW 5078   3.703   0.175   2.825
 1689SOL    HW1 5079   3.742   0.090   2.789
 1689SOL    HW2 5080   3.605   0.177   2.806
 1690SOL     OW 5081   2.125   0.326   2.582
 1690SOL    HW1 5082   2.046   0.377   2.548
 1690SOL    HW2 5083   2.116   0.311   2.680
 1691SOL     OW 5084   3.056   1.612   1.893
 1691SOL    HW1 5085   3.062   1.519   1.930
 1691SOL    HW2 5086   2.997   1.612   1.813
 1692SOL     OW 5087   2.684   1.002   3.234
 1692SOL    HW1 5088   2.724   1.001   3.142
 1692SOL    HW2 5089   2.694   1.094   3.274
 1693SOL     OW 5090   2.778   0.910   2.153
 1693SOL    HW1 5091   2.841   0.948   2.085
 1693SOL    HW2 5092   2.818   0.827   2.192
 1694SOL     OW 5093   3.366   1.607   1.906
 1694SOL    HW1 5094   3.274   1.644   1.913
 1694SOL    HW2 5095   3.404   1.627   1.816
 1695SOL     OW 5096   2.234   1.288   3.352
 1695SOL    HW1 5097   2.221   1.381   3.318
 1695SOL    HW2 5098   2.150   1.236   3.339
 1696SOL     OW 5099   3.476   1.292   3.151
 1696SOL    HW1 5100   3.536   1.295   3.231
 1696SOL    HW2 5101   3.401   1.356   3.164
 1697SOL     OW 5102   2.901   1.098   2.558
 1697SOL    HW1 5103   2.831   1.051   2.612
 1697SOL    HW2 5104   2.960   1.030   2.515
 1698SOL     OW 5105   2.876   0.236   2.833
 1698SOL    HW1 5106   2.868   0.200   2.740
 1698SOL    HW2 5107   2.874   0.160   2.898
 1699SOL     OW 5108   2.452   1.487   2.353
 1699SOL    HW1 5109   2.494   1.429   2.283
 1699SOL    HW2 5110   2.408   1.566   2.309
 1700SOL     OW 5111   3.571   0.385   3.243
 1700SOL    HW1 5112   3.644   0.454   3.247
 1700SOL    HW2 5113   3.599   0.310   3.184
 1701SOL     OW 5114   2.117   1.348   2.152
 1701SOL    HW1 5115   2.021   1.349   2.125
 1701SOL    HW2 5116   2.129   1.401   2.236
 1702SOL     OW 5117   1.967   1.013   3.588
 1702SOL    HW1 5118   1.890   0.980   3.642
 1702SOL    HW2 5119   2.052   0.983   3.630
 1703SOL     OW 5120   2.534   0.203   3.351
 1703SOL    HW1 5121   2.624   0.187   3.311
 1703SOL    HW2 5122   2.542   0.208   3.450
 1704SOL     OW 5123   1.937   0.345   1.895
 1704SOL    HW1 5124   1.845   0.317   1.866
 1704SOL    HW2 5125   1.968   0.422   1.839
 1705SOL     OW 5126   3.302   0.856   3.260
 1705SOL    HW1 5127   3.245   0.908   3.197
 1705SOL    HW2 5128   3.398   0.868   3.236
 1706SOL     OW 5129   1.934   0.166   2.180
 1706SOL    HW1 5130   1.917   0.249   2.126
 1706SOL    HW2 5131   2.024   0.129   2.158
 1707SOL     OW 5132   3.045   1.335   1.981
 1707SOL    HW1 5133   2.946   1.324   1.983
 1707SOL    HW2 5134   3.079   1.350   2.074
 1708SOL     OW 5135   2.475   0.842   3.293
 1708SOL    HW1 5136   2.531   0.923   3.276
 1708SOL    HW2 5137   2.534   0.762   3.296
 1709SOL     OW 5138   3.355   1.767   2.821
 1709SOL    HW1 5139   3.388   1.831   2.752
 1709SOL    HW2 5140   3.421   1.761   2.896
 1710SOL     OW 5141   2.578   0.565   3.570
 1710SOL    HW1 5142   2.597   0.630   3.644
 1710SOL    HW2 5143   2.638   0.485   3.579
 1711SOL     OW 5144   3.312   1.220   3.495
 1711SOL    HW1 5145   3.303   1.210   3.594
 1711SOL    HW2 5146   3.408   1.213   3.469
 1712SOL     OW 5147   2.252   1.741   3.422
 1712SOL    HW1 5148   2.161   1.782   3.420
 1712SOL    HW2 5149   2.245   1.647   3.454
 1713SOL     OW 5150   3.536   0.883   3.116
 1713SOL    HW1 5151   3.509   0.794   3.079
 1713SOL    HW2 5152   3.537   0.951   3.043
 1714SOL     OW 5153   3.087   0.325   2.311
 1714SOL    HW1 5154   3.152   0.251   2.300
 1714SOL    HW2 5155   3.107   0.375   2.395
 1715SOL     OW 5156   2.456   0.745   2.514
 1715SOL    HW1 5157   2.506   0.830   2.495
 1715SOL    HW2 5158   2.368   0.747   2.466
 1716SOL     OW 5159   3.639   0.342   3.504
 1716SOL    HW1 5160   3.622   0.373   3.410
 1716SOL    HW2 5161   3.555   0.305   3.542
 1717SOL     OW 5162   3.592   0.934   3.379
 1717SOL    HW1 5163   3.630   1.025   3.394
 1717SOL    HW2 5164   3.584   0.917   3.280
 1718SOL     OW 5165   2.721   1.374   1.878
 1718SOL    HW1 5166   2.675   1.389   1.966
 1718SOL    HW2 5167   2.765   1.459   1.848
 1719SOL     OW 5168   2.523   1.790   2.815
 1719SOL    HW1 5169   2.477   1.878   2.802
 1719SOL    HW2 5170   2.622   1.802   2.808
 1720SOL     OW 5171   2.721   0.956   2.723
 1720SOL    HW1 5172   2.775   0.887   2.771
 1720SOL    HW2 5173   2.689   1.025   2.789
 1721SOL     OW 5174   2.945   0.984   1.949
 1721SOL    HW1 5175   2.922   1.037   1.867
 1721SOL    HW2 5176   3.026   0.928   1.930
 1722SOL     OW 5177   3.723   1.569   2.713
 1722SOL    HW1 5178   3.652   1.557   2.643
 1722SOL    HW2 5179   3.724   1.490   2.773
 1723SOL     OW 5180   2.083   1.314   3.706
 1723SOL    HW1 5181   2.018   1.241   3.685
 1723SOL    HW2 5182   2.087   1.328   3.804
 1724SOL     OW 5183   1.941   1.240   2.515
 1724SOL    HW1 5184   1.940   1.193   2.603
 1724SOL    HW2 5185   2.023   1.212   2.464
 1725SOL     OW 5186   2.534   1.391   3.486
 1725SOL    HW1 5187   2.456   1.341   3.524
 1725SOL    HW2 5188   2.531   1.486   3.517
 1726SOL     OW 5189   3.686   0.192   3.089
 1726SOL    HW1 5190   3.682   0.102   3.133
 1726SOL    HW2 5191   3.689   0.181   2.990
 1727SOL     OW 5192   2.290   0.424   2.382
 1727SOL    HW1 5193   2.320   0.352   2.320
 1727SOL    HW2 5194   2.251   0.384   2.465
 1728SOL     OW 5195   3.567   1.487   2.966
 1728SOL    HW1 5196   3.474   1.462   2.939
 1728SOL    HW2 5197   3.593   1.437   3.048
 1729SOL     OW 5198   2.179   0.547   3.142
 1729SOL    HW1 5199   2.217   0.488   3.214
 1729SOL    HW2 5200   2.219   0.521   3.054
 1730SOL     OW 5201   2.674   1.586   2.549
 1730SOL    HW1 5202   2.706   1.596   2.455
 1730SOL    HW2 5203   2.595   1.524   2.551
 1731SOL     OW 5204   3.286   0.214   2.974
 1731SOL    HW1 5205   3.338   0.149   3.029
 1731SOL    HW2 5206   3.237   0.277   3.035
 1732SOL     OW 5207   2.863   0.034   3.016
 1732SOL    HW1 5208   2.800  -0.038   2.985
 1732SOL    HW2 5209   2.956  -0.002   3.016
 1733SOL     OW 5210   2.632   1.330   2.163
 1733SOL    HW1 5211   2.586   1.243   2.180
 1733SOL    HW2 5212   2.723   1.327   2.204
 1734SOL     OW 5213   2.480   1.567   3.146
 1734SOL    HW1 5214   2.475   1.649   3.203
 1734SOL    HW2 5215   2.569   1.564   3.101
 1735SOL     OW 5216   3.214   0.052   2.030
 1735SOL    HW1 5217   3.249   0.011   1.946
 1735SOL    HW2 5218   3.124   0.014   2.050
 1736SOL     OW 5219   3.162   0.453   2.553
 1736SOL    HW1 5220   3.103   0.533   2.557
 1736SOL    HW2 5221   3.177   0.418   2.646
 1737SOL     OW 5222   3.455   0.221   2.744
 1737SOL    HW1 5223   3.371   0.220   2.798
 1737SOL    HW2 5224   3.457   0.304   2.688
 1738SOL     OW 5225   1.901   1.077   2.162
 1738SOL    HW1 5226   2.000   1.066   2.153
 1738SOL    HW2 5227   1.861   0.991   2.194
 1739SOL     OW 5228   2.737   1.646   2.199
 1739SOL    HW1 5229   2.660   1.611   2.145
 1739SOL    HW2 5230   2.705   1.717   2.261
 1740SOL     OW 5231   2.092   0.628   3.837
 1740SOL    HW1 5232   1.999   0.626   3.874
 1740SOL    HW2 5233   2.093   0.589   3.745
 1741SOL     OW 5234   2.087   0.275   4.720
 1741SOL    HW1 5235   2.122   0.258   4.812
 1741SOL    HW2 5236   1.999   0.230   4.708
 1742SOL     OW 5237   1.881   0.368   4.371
 1742SOL    HW1 5238   1.799   0.411   4.410
 1742SOL    HW2 5239   1.853   0.295   4.308
 1743SOL     OW 5240   3.417   1.511   4.427
 1743SOL    HW1 5241   3.360   1.495   4.508
 1743SOL    HW2 5242   3.358   1.521   4.347
 1744SOL     OW 5243   2.997   0.703   4.441
 1744SOL    HW1 5244   3.054   0.781   4.416
 1744SOL    HW2 5245   2.937   0.729   4.517
 1745SOL     OW 5246   3.617   0.607   3.955
 1745SOL    HW1 5247   3.605   0.594   3.856
 1745SOL    HW2 5248   3.587   0.526   4.004
 1746SOL     OW 5249   2.547   1.012   4.389
 1746SOL    HW1 5250   2.616   0.996   4.459
 1746SOL    HW2 5251   2.474   1.069   4.427
 1747SOL     OW 5252   3.465   0.447   4.461
 1747SOL    HW1 5253   3.391   0.493   4.411
 1747SOL    HW2 5254   3.516   0.515   4.514
 1748SOL     OW 5255   2.093   1.713   4.207
 1748SOL    HW1 5256   2.127   1.790   4.261
 1748SOL    HW2 5257   2.137   1.713   4.117
 1749SOL     OW 5258   2.092   1.434   4.262
 1749SOL    HW1 5259   2.066   1.530   4.262
 1749SOL    HW2 5260   2.021   1.380   4.307
 1750SOL     OW 5261   2.102   1.091   4.610
 1750SOL    HW1 5262   2.116   1.007   4.662
 1750SOL    HW2 5263   2.047   1.155   4.665
 1751SOL     OW 5264   2.468   0.964   3.847
 1751SOL    HW1 5265   2.475   1.048   3.793
 1751SOL    HW2 5266   2.514   0.977   3.935
 1752SOL     OW 5267   1.984   0.643   4.287
 1752SOL    HW1 5268   1.939   0.555   4.304
 1752SOL    HW2 5269   1.983   0.697   4.371
 1753SOL     OW 5270   3.704   1.767   4.083
 1753SOL    HW1 5271   3.758   1.738   4.163
 1753SOL    HW2 5272   3.734   1.857   4.054
 1754SOL     OW 5273   1.889   1.596   3.841
 1754SOL    HW1 5274   1.870   1.500   3.862
 1754SOL    HW2 5275   1.856   1.654   3.916
 1755SOL     OW 5276   3.551   0.922   4.336
 1755SOL    HW1 5277   3.646   0.893   4.344
 1755SOL    HW2 5278   3.543   0.987   4.261
 1756SOL     OW 5279   3.503   1.108   4.156
 1756SOL    HW1 5280   3.589   1.110   4.104
 1756SOL    HW2 5281   3.517   1.155   4.244
 1757SOL     OW 5282   2.475   1.365   4.450
 1757SOL    HW1 5283   2.426   1.278   4.459
 1757SOL    HW2 5284   2.452   1.408   4.363
 1758SOL     OW 5285   2.671   0.004   4.226
 1758SOL    HW1 5286   2.711   0.095   4.217
 1758SOL    HW2 5287   2.571   0.012   4.232
 1759SOL     OW 5288   3.387   0.999   3.914
 1759SOL    HW1 5289   3.324   0.923   3.927
 1759SOL    HW2 5290   3.435   1.017   4.000
 1760SOL     OW 5291   3.328   1.417   4.677
 1760SOL    HW1 5292   3.269   1.423   4.757
 1760SOL    HW2 5293   3.313   1.329   4.631
 1761SOL     OW 5294   3.529   1.714   4.296
 1761SOL    HW1 5295   3.488   1.691   4.208
 1761SOL    HW2 5296   3.511   1.640   4.361
 1762SOL     OW 5297   2.460   0.729   3.994
 1762SOL    HW1 5298   2.484   0.798   3.926
 1762SOL    HW2 5299   2.382   0.762   4.048
 1763SOL     OW 5300   3.143   0.345   4.668
 1763SOL    HW1 5301   3.057   0.295   4.655
 1763SOL    HW2 5302   3.205   0.291   4.724
 1764SOL     OW 5303   3.438   1.662   4.031
 1764SOL    HW1 5304   3.527   1.708   4.034
 1764SOL    HW2 5305   3.417   1.638   3.936
 1765SOL     OW 5306   2.903   0.701   4.153
 1765SOL    HW1 5307   2.929   0.697   4.249
 1765SOL    HW2 5308   2.818   0.650   4.139
 1766SOL     OW 5309   1.938   0.811   4.513
 1766SOL    HW1 5310   2.037   0.799   4.522
 1766SOL    HW2 5311   1.914   0.906   4.534
 1767SOL     OW 5312   2.727   0.348   3.919
 1767SOL    HW1 5313   2.786   0.411   3.870
 1767SOL    HW2 5314   2.746   0.254   3.890
 1768SOL     OW 5315   3.224   1.144   4.269
 1768SOL    HW1 5316   3.307   1.115   4.221
 1768SOL    HW2 5317   3.175   1.211   4.213
 1769SOL     OW 5318   2.870   1.456   4.201
 1769SOL    HW1 5319   2.824   1.528   4.149
 1769SOL    HW2 5320   2.866   1.476   4.299
 1770SOL     OW 5321   2.213   1.801   4.577
 1770SOL    HW1 5322   2.263   1.715   4.583
 1770SOL    HW2 5323   2.278   1.878   4.574
 1771SOL     OW 5324   3.657   1.066   4.597
 1771SOL    HW1 5325   3.595   1.051   4.521
 1771SOL    HW2 5326   3.605   1.077   4.682
 1772SOL     OW 5327   2.183   0.943   3.966
 1772SOL    HW1 5328   2.265   0.982   3.924
 1772SOL    HW2 5329   2.156   0.861   3.917
 1773SOL     OW 5330   3.320   0.735   4.452
 1773SOL    HW1 5331   3.315   0.670   4.527
 1773SOL    HW2 5332   3.400   0.794   4.465
 1774SOL     OW 5333   2.973   1.776   3.961
 1774SOL    HW1 5334   2.913   1.714   4.011
 1774SOL    HW2 5335   3.004   1.732   3.876
 1775SOL     OW 5336   3.494   1.377   3.805
 1775SOL    HW1 5337   3.462   1.471   3.795
 1775SOL    HW2 5338   3.418   1.314   3.793
 1776SOL     OW 5339   2.326   1.743   4.047
 1776SOL    HW1 5340   2.359   1.782   4.133
 1776SOL    HW2 5341   2.402   1.736   3.982
 1777SOL     OW 5342   3.262   0.107   4.150
 1777SOL    HW1 5343   3.238   0.070   4.060
 1777SOL    HW2 5344   3.361   0.123   4.154
 1778SOL     OW 5345   2.244   0.700   4.204
 1778SOL    HW1 5346   2.289   0.610   4.201
 1778SOL    HW2 5347   2.150   0.689   4.237
 1779SOL     OW 5348   2.476   0.122   3.841
 1779SOL    HW1 5349   2.574   0.100   3.848
 1779SOL    HW2 5350   2.445   0.105   3.748
 1780SOL     OW 5351   2.401   0.064   4.236
 1780SOL    HW1 5352   2.320   0.065   4.294
 1780SOL    HW2 5353   2.404   0.147   4.181
 1781SOL     OW 5354   3.296   1.188   3.765
 1781SOL    HW1 5355   3.328   1.112   3.822
 1781SOL    HW2 5356   3.204   1.215   3.795
 1782SOL     OW 5357   2.159   0.035   3.895
 1782SOL    HW1 5358   2.208   0.119   3.874
 1782SOL    HW2 5359   2.221  -0.030   3.940
 1783SOL     OW 5360   2.797   0.236   4.204
 1783SOL    HW1 5361   2.749   0.277   4.126
 1783SOL    HW2 5362   2.896   0.234   4.185
 1784SOL     OW 5363   2.321   1.152   4.465
 1784SOL    HW1 5364   2.250   1.125   4.530
 1784SOL    HW2 5365   2.295   1.124   4.372
 1785SOL     OW 5366   3.133   1.797   4.315
 1785SOL    HW1 5367   3.177   1.861   4.251
 1785SOL    HW2 5368   3.083   1.849   4.385
 1786SOL     OW 5369   2.894   0.549   3.740
 1786SOL    HW1 5370   2.853   0.631   3.701
 1786SOL    HW2 5371   2.958   0.575   3.813
 1787SOL     OW 5372   2.728   0.454   4.366
 1787SOL    HW1 5373   2.696   0.526   4.304
 1787SOL    HW2 5374   2.752   0.373   4.313
 1788SOL     OW 5375   2.879   0.039   4.477
 1788SOL    HW1 5376   2.807   0.044   4.408
 1788SOL    HW2 5377   2.855  -0.030   4.546
 1789SOL     OW 5378   3.719   0.833   4.101
 1789SOL    HW1 5379   3.761   0.769   4.165
 1789SOL    HW2 5380   3.681   0.782   4.023
 1790SOL     OW 5381   2.350   1.385   3.898
 1790SOL    HW1 5382   2.263   1.370   3.945
 1790SOL    HW2 5383   2.333   1.411   3.803
 1791SOL     OW 5384   3.526   1.280   4.381
 1791SOL    HW1 5385   3.625   1.288   4.395
 1791SOL    HW2 5386   3.481   1.364   4.412
 1792SOL     OW 5387   3.252   0.575   3.802
 1792SOL    HW1 5388   3.198   0.554   3.883
 1792SOL    HW2 5389   3.343   0.534   3.811
 1793SOL     OW 5390   2.389   0.256   4.052
 1793SOL    HW1 5391   2.416   0.197   3.977
 1793SOL    HW2 5392   2.389   0.351   4.021
 1794SOL     OW 5393   2.567   1.050   4.092
 1794SOL    HW1 5394   2.553   1.057   4.191
 1794SOL    HW2 5395   2.651   0.999   4.074
 1795SOL     OW 5396   2.229   1.100   4.225
 1795SOL    HW1 5397   2.222   1.183   4.169
 1795SOL    HW2 5398   2.233   1.020   4.165
 1796SOL     OW 5399   2.428   0.537   4.589
 1796SOL    HW1 5400   2.440   0.603   4.515
 1796SOL    HW2 5401   2.474   0.571   4.672
 1797SOL     OW 5402   3.114   1.348   4.112
 1797SOL    HW1 5403   3.164   1.425   4.152
 1797SOL    HW2 5404   3.019   1.350   4.144
 1798SOL     OW 5405   3.444   0.639   4.196
 1798SOL    HW1 5406   3.413   0.700   4.269
 1798SOL    HW2 5407   3.494   0.691   4.127
 1799SOL     OW 5408   3.071   0.525   3.999
 1799SOL    HW1 5409   3.084   0.441   4.053
 1799SOL    HW2 5410   3.042   0.599   4.059
 1800SOL     OW 5411   2.594   0.634   4.788
 1800SOL    HW1 5412   2.653   0.608   4.712
 1800SOL    HW2 5413   2.566   0.730   4.777
 1801SOL     OW 5414   2.169   0.063   4.342
 1801SOL    HW1 5415   2.158   0.157   4.375
 1801SOL    HW2 5416   2.164   0.000   4.419
 1802SOL     OW 5417   3.484   0.367   4.098
 1802SOL    HW1 5418   3.486   0.291   4.162
 1802SOL    HW2 5419   3.436   0.444   4.138
 1803SOL     OW 5420   3.402   0.274   3.849
 1803SOL    HW1 5421   3.341   0.199   3.872
 1803SOL    HW2 5422   3.424   0.326   3.932
 1804SOL     OW 5423   3.165   0.838   3.766
 1804SOL    HW1 5424   3.199   0.745   3.781
 1804SOL    HW2 5425   3.183   0.865   3.671
 1805SOL     OW 5426   2.930   1.333   4.573
 1805SOL    HW1 5427   2.937   1.249   4.518
 1805SOL    HW2 5428   2.992   1.402   4.537
 1806SOL     OW 5429   1.870   1.326   3.924
 1806SOL    HW1 5430   1.777   1.347   3.893
 1806SOL    HW2 5431   1.880   1.227   3.937
 1807SOL     OW 5432   1.950   1.801   4.651
 1807SOL    HW1 5433   1.908   1.715   4.624
 1807SOL    HW2 5434   2.044   1.804   4.617
 1808SOL     OW 5435   2.366   1.568   4.634
 1808SOL    HW1 5436   2.432   1.642   4.643
 1808SOL    HW2 5437   2.410   1.489   4.592
 1809SOL     OW 5438   2.677   0.572   4.049
 1809SOL    HW1 5439   2.684   0.483   4.003
 1809SOL    HW2 5440   2.583   0.606   4.041
 1810SOL     OW 5441   2.335   0.500   3.915
 1810SOL    HW1 5442   2.396   0.580   3.919
 1810SOL    HW2 5443   2.240   0.531   3.922
 1811SOL     OW 5444   3.164   0.855   4.033
 1811SOL    HW1 5445   3.078   0.824   4.075
 1811SOL    HW2 5446   3.160   0.841   3.934
 1812SOL     OW 5447   3.588   0.135   4.247
 1812SOL    HW1 5448   3.661   0.118   4.180
 1812SOL    HW2 5449   3.557   0.048   4.285
 1813SOL     OW 5450   3.250   1.573   4.201
 1813SOL    HW1 5451   3.317   1.585   4.127
 1813SOL    HW2 5452   3.210   1.662   4.224
 1814SOL     OW 5453   3.142   0.927   4.396
 1814SOL    HW1 5454   3.202   0.846   4.398
 1814SOL    HW2 5455   3.182   0.996   4.336
 1815SOL     OW 5456   2.534   1.616   3.878
 1815SOL    HW1 5457   2.543   1.626   3.779
 1815SOL    HW2 5458   2.494   1.527   3.899
 1816SOL     OW 5459   3.703   0.175   4.687
 1816SOL    HW1 5460   3.742   0.090   4.651
 1816SOL    HW2 5461   3.605   0.177   4.668
 1817SOL     OW 5462   2.125   0.326   4.444
 1817SOL    HW1 5463   2.046   0.377   4.410
 1817SOL    HW2 5464   2.116   0.311   4.542
 1818SOL     OW 5465   3.056   1.612   3.755
 1818SOL    HW1 5466   3.062   1.519   3.792
 1818SOL    HW2 5467   2.997   1.612   3.675
 1819SOL     OW 5468   2.778   0.910   4.015
 1819SOL    HW1 5469   2.841   0.948   3.947
 1819SOL    HW2 5470   2.818   0.827   4.054
 1820SOL     OW 5471   3.366   1.607   3.768
 1820SOL    HW1 5472   3.274   1.644   3.775
 1820SOL    HW2 5473   3.404   1.627   3.678
 1821SOL     OW 5474   2.901   1.098   4.420
 1821SOL    HW1 5475   2.831   1.051   4.474
 1821SOL    HW2 5476   2.960   1.030   4.377
 1822SOL     OW 5477   2.452   1.487   4.215
 1822SOL    HW1 5478   2.494   1.429   4.145
 1822SOL    HW2 5479   2.408   1.566   4.171
 1823SOL     OW 5480   2.117   1.348   4.014
 1823SOL    HW1 5481   2.021   1.349   3.987
 1823SOL    HW2 5482   2.129   1.401   4.098
 1824SOL     OW 5483   1.937   0.345   3.757
 1824SOL    HW1 5484   1.845   0.317   3.728
 1824SOL    HW2 5485   1.968   0.422   3.701
 1825SOL     OW 5486   1.934   0.166   4.042
 1825SOL    HW1 5487   1.917   0.249   3.988
 1825SOL    HW2 5488   2.024   0.129   4.020
 1826SOL     OW 5489   3.045   1.335   3.843
 1826SOL    HW1 5490   2.946   1.324   3.845
 1826SOL    HW2 5491   3.079   1.350   3.936
 1827SOL     OW 5492   3.087   0.325   4.173
 1827SOL    HW1 5493   3.152   0.251   4.162
 1827SOL    HW2 5494   3.107   0.375   4.257
 1828SOL     OW 5495   2.456   0.745   4.376
 1828SOL    HW1 5496   2.506   0.830   4.357
 1828SOL    HW2 5497   2.368   0.747   4.328
 1829SOL     OW 5498   2.721   1.374   3.740
 1829SOL    HW1 5499   2.675   1.389   3.828
 1829SOL    HW2 5500   2.765   1.459   3.710
 1830SOL     OW 5501   2.523   1.790   4.677
 1830SOL    HW1 5502   2.477   1.878   4.664
 1830SOL    HW2 5503   2.622   1.802   4.670
 1831SOL     OW 5504   2.721   0.956   4.585
 1831SOL    HW1 5505   2.775   0.887   4.633
 1831SOL    HW2 5506   2.689   1.025   4.651
 1832SOL     OW 5507   2.945   0.984   3.811
 1832SOL    HW1 5508   2.922   1.037   3.729
 1832SOL    HW2 5509   3.026   0.928   3.792
 1833SOL     OW 5510   3.723   1.569   4.575
 1833SOL    HW1 5511   3.652   1.557   4.505
 1833SOL    HW2 5512   3.724   1.490   4.635
 1834SOL     OW 5513   1.941   1.240   4.377
 1834SOL    HW1 5514   1.940   1.193   4.465
 1834SOL    HW2 5515   2.023   1.212   4.326
 1835SOL     OW 5516   3.686   0.192   4.951
 1835SOL    HW1 5517   3.682   0.102   4.995
 1835SOL    HW2 5518   3.689   0.181   4.852
 1836SOL     OW 5519   2.290   0.424   4.244
 1836SOL    HW1 5520   2.320   0.352   4.182
 1836SOL    HW2 5521   2.251   0.384   4.327
 1837SOL     OW 5522   2.674   1.586   4.411
 1837SOL    HW1 5523   2.706   1.596   4.317
 1837SOL    HW2 5524   2.595   1.524   4.413
 1838SOL     OW 5525   2.632   1.330   4.025
 1838SOL    HW1 5526   2.586   1.243   4.042
 1838SOL    HW2 5527   2.723   1.327   4.066
 1839SOL     OW 5528   3.214   0.052   3.892
 1839SOL    HW1 5529   3.249   0.011   3.808
 1839SOL    HW2 5530   3.124   0.014   3.912
 1840SOL     OW 5531   3.162   0.453   4.415
 1840SOL    HW1 5532   3.103   0.533   4.419
 1840SOL    HW2 5533   3.177   0.418   4.508
 1841SOL     OW 5534   3.455   0.221   4.606
 1841SOL    HW1 5535   3.371   0.220   4.660
 1841SOL    HW2 5536   3.457   0.304   4.550
 1842SOL     OW 5537   1.901   1.077   4.024
 1842SOL    HW1 5538   2.000   1.066   4.015
 1842SOL    HW2 5539   1.861   0.991   4.056
 1843SOL     OW 5540   2.737   1.646   4.061
 1843SOL    HW1 5541   2.660   1.611   4.007
 1843SOL    HW2 5542   2.705   1.717   4.123
 1844SOL     OW 5543   2.092   2.490   0.113
 1844SOL    HW1 5544   1.999   2.488   0.150
 1844SOL    HW2 5545   2.093   2.451   0.021
 1845SOL     OW 5546   2.087   2.137   0.996
 1845SOL    HW1 5547   2.122   2.120   1.088
 1845SOL    HW2 5548   1.999   2.092   0.984
 1846SOL     OW 5549   1.881   2.230   0.647
 1846SOL    HW1 5550   1.799   2.273   0.686
 1846SOL    HW2 5551   1.853   2.157   0.584
 1847SOL     OW 5552   2.431   3.137   1.165
 1847SOL    HW1 5553   2.338   3.130   1.128
 1847SOL    HW2 5554   2.442   3.226   1.209
 1848SOL     OW 5555   3.417   3.373   0.703
 1848SOL    HW1 5556   3.360   3.357   0.784
 1848SOL    HW2 5557   3.358   3.383   0.623
 1849SOL     OW 5558   2.997   2.565   0.717
 1849SOL    HW1 5559   3.054   2.643   0.692
 1849SOL    HW2 5560   2.937   2.591   0.793
 1850SOL     OW 5561   3.617   2.469   0.231
 1850SOL    HW1 5562   3.605   2.456   0.132
 1850SOL    HW2 5563   3.587   2.388   0.280
 1851SOL     OW 5564   2.630   3.006   1.023
 1851SOL    HW1 5565   2.552   3.023   1.083
 1851SOL    HW2 5566   2.664   3.093   0.987
 1852SOL     OW 5567   2.712   2.660   1.823
 1852SOL    HW1 5568   2.708   2.736   1.888
 1852SOL    HW2 5569   2.734   2.696   1.732
 1853SOL     OW 5570   2.547   2.874   0.665
 1853SOL    HW1 5571   2.616   2.858   0.735
 1853SOL    HW2 5572   2.474   2.931   0.703
 1854SOL     OW 5573   2.548   3.023   1.803
 1854SOL    HW1 5574   2.608   3.102   1.817
 1854SOL    HW2 5575   2.462   3.054   1.762
 1855SOL     OW 5576   2.197   3.297   1.061
 1855SOL    HW1 5577   2.119   3.266   1.008
 1855SOL    HW2 5578   2.255   3.355   1.004
 1856SOL     OW 5579   3.322   3.367   1.339
 1856SOL    HW1 5580   3.346   3.461   1.365
 1856SOL    HW2 5581   3.306   3.313   1.421
 1857SOL     OW 5582   2.300   2.254   1.499
 1857SOL    HW1 5583   2.382   2.198   1.508
 1857SOL    HW2 5584   2.219   2.196   1.503
 1858SOL     OW 5585   3.465   2.309   0.737
 1858SOL    HW1 5586   3.391   2.355   0.687
 1858SOL    HW2 5587   3.516   2.377   0.790
 1859SOL     OW 5588   2.093   3.575   0.483
 1859SOL    HW1 5589   2.127   3.652   0.537
 1859SOL    HW2 5590   2.137   3.575   0.393
 1860SOL     OW 5591   2.989   3.203   1.690
 1860SOL    HW1 5592   3.036   3.203   1.778
 1860SOL    HW2 5593   2.941   3.116   1.679
 1861SOL     OW 5594   2.092   3.296   0.538
 1861SOL    HW1 5595   2.066   3.392   0.538
 1861SOL    HW2 5596   2.021   3.242   0.583
 1862SOL     OW 5597   2.102   2.953   0.886
 1862SOL    HW1 5598   2.116   2.869   0.938
 1862SOL    HW2 5599   2.047   3.017   0.941
 1863SOL     OW 5600   2.482   3.648   1.439
 1863SOL    HW1 5601   2.390   3.631   1.474
 1863SOL    HW2 5602   2.510   3.740   1.465
 1864SOL     OW 5603   2.468   2.826   0.123
 1864SOL    HW1 5604   2.475   2.910   0.069
 1864SOL    HW2 5605   2.514   2.839   0.211
 1865SOL     OW 5606   3.456   1.976   1.480
 1865SOL    HW1 5607   3.438   2.043   1.408
 1865SOL    HW2 5608   3.453   2.022   1.569
 1866SOL     OW 5609   1.984   2.505   0.563
 1866SOL    HW1 5610   1.939   2.417   0.580
 1866SOL    HW2 5611   1.983   2.559   0.647
 1867SOL     OW 5612   3.704   3.629   0.359
 1867SOL    HW1 5613   3.758   3.600   0.439
 1867SOL    HW2 5614   3.734   3.719   0.330
 1868SOL     OW 5615   1.889   3.458   0.117
 1868SOL    HW1 5616   1.870   3.362   0.138
 1868SOL    HW2 5617   1.856   3.516   0.192
 1869SOL     OW 5618   3.551   2.784   0.612
 1869SOL    HW1 5619   3.646   2.755   0.620
 1869SOL    HW2 5620   3.543   2.849   0.537
 1870SOL     OW 5621   3.503   2.970   0.432
 1870SOL    HW1 5622   3.589   2.972   0.380
 1870SOL    HW2 5623   3.517   3.017   0.520
 1871SOL     OW 5624   1.975   2.599   1.597
 1871SOL    HW1 5625   2.063   2.586   1.642
 1871SOL    HW2 5626   1.962   2.696   1.575
 1872SOL     OW 5627   2.475   3.227   0.726
 1872SOL    HW1 5628   2.426   3.140   0.735
 1872SOL    HW2 5629   2.452   3.270   0.639
 1873SOL     OW 5630   3.155   3.090   1.423
 1873SOL    HW1 5631   3.192   3.017   1.365
 1873SOL    HW2 5632   3.207   3.095   1.508
 1874SOL     OW 5633   2.671   1.866   0.502
 1874SOL    HW1 5634   2.711   1.957   0.493
 1874SOL    HW2 5635   2.571   1.874   0.508
 1875SOL     OW 5636   2.059   2.838   1.264
 1875SOL    HW1 5637   2.148   2.793   1.250
 1875SOL    HW2 5638   1.986   2.773   1.245
 1876SOL     OW 5639   3.387   2.861   0.190
 1876SOL    HW1 5640   3.324   2.785   0.203
 1876SOL    HW2 5641   3.435   2.879   0.276
 1877SOL     OW 5642   3.049   3.654   1.616
 1877SOL    HW1 5643   3.073   3.714   1.540
 1877SOL    HW2 5644   3.056   3.559   1.586
 1878SOL     OW 5645   2.179   2.113   1.801
 1878SOL    HW1 5646   2.250   2.184   1.807
 1878SOL    HW2 5647   2.091   2.152   1.829
 1879SOL     OW 5648   3.328   3.279   0.953
 1879SOL    HW1 5649   3.269   3.285   1.033
 1879SOL    HW2 5650   3.313   3.191   0.907
 1880SOL     OW 5651   3.529   3.576   0.572
 1880SOL    HW1 5652   3.488   3.553   0.484
 1880SOL    HW2 5653   3.511   3.502   0.637
 1881SOL     OW 5654   2.460   2.591   0.270
 1881SOL    HW1 5655   2.484   2.660   0.202
 1881SOL    HW2 5656   2.382   2.624   0.324
 1882SOL     OW 5657   3.143   2.207   0.944
 1882SOL    HW1 5658   3.057   2.157   0.931
 1882SOL    HW2 5659   3.205   2.153   1.000
 1883SOL     OW 5660   3.438   3.524   0.307
 1883SOL    HW1 5661   3.527   3.570   0.310
 1883SOL    HW2 5662   3.417   3.500   0.212
 1884SOL     OW 5663   2.669   2.467   1.465
 1884SOL    HW1 5664   2.622   2.464   1.554
 1884SOL    HW2 5665   2.618   2.412   1.399
 1885SOL     OW 5666   3.256   2.331   1.674
 1885SOL    HW1 5667   3.236   2.374   1.762
 1885SOL    HW2 5668   3.334   2.269   1.683
 1886SOL     OW 5669   2.835   2.752   1.572
 1886SOL    HW1 5670   2.881   2.668   1.543
 1886SOL    HW2 5671   2.779   2.786   1.497
 1887SOL     OW 5672   2.853   2.272   1.242
 1887SOL    HW1 5673   2.776   2.306   1.296
 1887SOL    HW2 5674   2.819   2.221   1.163
 1888SOL     OW 5675   2.903   2.563   0.429
 1888SOL    HW1 5676   2.929   2.559   0.525
 1888SOL    HW2 5677   2.818   2.512   0.415
 1889SOL     OW 5678   1.938   2.673   0.789
 1889SOL    HW1 5679   2.037   2.661   0.798
 1889SOL    HW2 5680   1.914   2.768   0.810
 1890SOL     OW 5681   1.992   3.683   1.571
 1890SOL    HW1 5682   1.982   3.668   1.670
 1890SOL    HW2 5683   1.906   3.719   1.535
 1891SOL     OW 5684   2.727   2.210   0.195
 1891SOL    HW1 5685   2.786   2.273   0.146
 1891SOL    HW2 5686   2.746   2.116   0.166
 1892SOL     OW 5687   3.581   2.447   1.831
 1892SOL    HW1 5688   3.555   2.536   1.795
 1892SOL    HW2 5689   3.579   2.379   1.758
 1893SOL     OW 5690   3.224   3.006   0.545
 1893SOL    HW1 5691   3.307   2.977   0.497
 1893SOL    HW2 5692   3.175   3.073   0.489
 1894SOL     OW 5693   2.412   2.058   0.885
 1894SOL    HW1 5694   2.407   2.053   0.985
 1894SOL    HW2 5695   2.414   2.154   0.856
 1895SOL     OW 5696   2.870   3.318   0.477
 1895SOL    HW1 5697   2.824   3.390   0.425
 1895SOL    HW2 5698   2.866   3.338   0.575
 1896SOL     OW 5699   2.213   3.663   0.853
 1896SOL    HW1 5700   2.263   3.577   0.859
 1896SOL    HW2 5701   2.278   3.740   0.850
 1897SOL     OW 5702   3.657   2.928   0.873
 1897SOL    HW1 5703   3.595   2.913   0.797
 1897SOL    HW2 5704   3.605   2.939   0.958
 1898SOL     OW 5705   3.089   3.412   1.506
 1898SOL    HW1 5706   3.095   3.335   1.570
 1898SOL    HW2 5707   3.037   3.386   1.426
 1899SOL     OW 5708   2.183   2.805   0.242
 1899SOL    HW1 5709   2.265   2.844   0.200
 1899SOL    HW2 5710   2.156   2.723   0.193
 1900SOL     OW 5711   3.320   2.597   0.728
 1900SOL    HW1 5712   3.315   2.532   0.803
 1900SOL    HW2 5713   3.400   2.656   0.741
 1901SOL     OW 5714   2.323   3.128   1.727
 1901SOL    HW1 5715   2.273   3.129   1.641
 1901SOL    HW2 5716   2.260   3.110   1.803
 1902SOL     OW 5717   2.973   3.638   0.237
 1902SOL    HW1 5718   2.913   3.576   0.287
 1902SOL    HW2 5719   3.004   3.594   0.152
 1903SOL     OW 5720   2.064   2.147   1.498
 1903SOL    HW1 5721   1.984   2.207   1.485
 1903SOL    HW2 5722   2.054   2.098   1.584
 1904SOL     OW 5723   3.494   3.239   0.081
 1904SOL    HW1 5724   3.462   3.333   0.071
 1904SOL    HW2 5725   3.418   3.176   0.069
 1905SOL     OW 5726   2.326   3.605   0.323
 1905SOL    HW1 5727   2.359   3.644   0.409
 1905SOL    HW2 5728   2.402   3.598   0.258
 1906SOL     OW 5729   3.262   1.969   0.426
 1906SOL    HW1 5730   3.238   1.932   0.336
 1906SOL    HW2 5731   3.361   1.985   0.430
 1907SOL     OW 5732   2.111   3.647   1.241
 1907SOL    HW1 5733   2.168   3.582   1.291
 1907SOL    HW2 5734   2.095   3.614   1.148
 1908SOL     OW 5735   2.802   3.560   0.904
 1908SOL    HW1 5736   2.882   3.503   0.925
 1908SOL    HW2 5737   2.753   3.520   0.827
 1909SOL     OW 5738   2.244   2.562   0.480
 1909SOL    HW1 5739   2.289   2.472   0.477
 1909SOL    HW2 5740   2.150   2.551   0.513
 1910SOL     OW 5741   3.409   2.084   1.729
 1910SOL    HW1 5742   3.404   2.121   1.821
 1910SOL    HW2 5743   3.337   2.015   1.717
 1911SOL     OW 5744   2.643   2.126   1.749
 1911SOL    HW1 5745   2.710   2.065   1.792
 1911SOL    HW2 5746   2.570   2.145   1.814
 1912SOL     OW 5747   2.750   3.376   1.195
 1912SOL    HW1 5748   2.727   3.351   1.101
 1912SOL    HW2 5749   2.811   3.307   1.234
 1913SOL     OW 5750   3.213   2.452   1.433
 1913SOL    HW1 5751   3.241   2.409   1.518
 1913SOL    HW2 5752   3.238   2.548   1.434
 1914SOL     OW 5753   2.665   3.264   0.924
 1914SOL    HW1 5754   2.755   3.278   0.882
 1914SOL    HW2 5755   2.594   3.266   0.853
 1915SOL     OW 5756   2.784   2.365   0.899
 1915SOL    HW1 5757   2.759   2.356   0.803
 1915SOL    HW2 5758   2.832   2.283   0.930
 1916SOL     OW 5759   2.401   1.926   0.512
 1916SOL    HW1 5760   2.320   1.927   0.570
 1916SOL    HW2 5761   2.404   2.009   0.457
 1917SOL     OW 5762   3.296   3.050   0.041
 1917SOL    HW1 5763   3.328   2.974   0.098
 1917SOL    HW2 5764   3.204   3.077   0.071
 1918SOL     OW 5765   2.159   1.897   0.171
 1918SOL    HW1 5766   2.208   1.981   0.150
 1918SOL    HW2 5767   2.221   1.832   0.216
 1919SOL     OW 5768   2.797   2.098   0.480
 1919SOL    HW1 5769   2.749   2.139   0.402
 1919SOL    HW2 5770   2.896   2.096   0.461
 1920SOL     OW 5771   2.938   2.545   1.464
 1920SOL    HW1 5772   2.858   2.484   1.467
 1920SOL    HW2 5773   3.019   2.492   1.440
 1921SOL     OW 5774   3.089   3.432   0.793
 1921SOL    HW1 5775   3.110   3.506   0.728
 1921SOL    HW2 5776   3.157   3.432   0.866
 1922SOL     OW 5777   2.321   3.014   0.741
 1922SOL    HW1 5778   2.250   2.987   0.806
 1922SOL    HW2 5779   2.295   2.986   0.648
 1923SOL     OW 5780   3.133   3.659   0.591
 1923SOL    HW1 5781   3.177   3.723   0.527
 1923SOL    HW2 5782   3.083   3.711   0.661
 1924SOL     OW 5783   2.894   2.411   0.016
 1924SOL    HW1 5784   2.853   2.493  -0.023
 1924SOL    HW2 5785   2.958   2.437   0.089
 1925SOL     OW 5786   1.940   2.418   1.386
 1925SOL    HW1 5787   2.032   2.417   1.345
 1925SOL    HW2 5788   1.934   2.492   1.453
 1926SOL     OW 5789   2.423   2.084   1.147
 1926SOL    HW1 5790   2.461   2.000   1.184
 1926SOL    HW2 5791   2.335   2.103   1.191
 1927SOL     OW 5792   2.728   2.316   0.642
 1927SOL    HW1 5793   2.696   2.388   0.580
 1927SOL    HW2 5794   2.752   2.235   0.589
 1928SOL     OW 5795   2.879   1.901   0.753
 1928SOL    HW1 5796   2.807   1.906   0.684
 1928SOL    HW2 5797   2.855   1.832   0.822
 1929SOL     OW 5798   3.291   3.035   0.867
 1929SOL    HW1 5799   3.236   2.951   0.860
 1929SOL    HW2 5800   3.317   3.064   0.775
 1930SOL     OW 5801   3.328   2.452   0.992
 1930SOL    HW1 5802   3.298   2.357   0.999
 1930SOL    HW2 5803   3.401   2.468   1.058
 1931SOL     OW 5804   3.719   2.695   0.377
 1931SOL    HW1 5805   3.761   2.631   0.441
 1931SOL    HW2 5806   3.681   2.644   0.299
 1932SOL     OW 5807   2.350   3.247   0.174
 1932SOL    HW1 5808   2.263   3.232   0.221
 1932SOL    HW2 5809   2.333   3.273   0.079
 1933SOL     OW 5810   3.526   3.142   0.657
 1933SOL    HW1 5811   3.625   3.150   0.671
 1933SOL    HW2 5812   3.481   3.226   0.688
 1934SOL     OW 5813   3.252   2.437   0.078
 1934SOL    HW1 5814   3.198   2.416   0.159
 1934SOL    HW2 5815   3.343   2.396   0.087
 1935SOL     OW 5816   2.389   2.118   0.328
 1935SOL    HW1 5817   2.416   2.059   0.253
 1935SOL    HW2 5818   2.389   2.213   0.297
 1936SOL     OW 5819   3.616   3.085   1.588
 1936SOL    HW1 5820   3.707   3.046   1.575
 1936SOL    HW2 5821   3.624   3.181   1.612
 1937SOL     OW 5822   2.926   3.209   1.340
 1937SOL    HW1 5823   2.846   3.186   1.395
 1937SOL    HW2 5824   3.009   3.183   1.389
 1938SOL     OW 5825   3.454   3.491   1.625
 1938SOL    HW1 5826   3.481   3.525   1.535
 1938SOL    HW2 5827   3.533   3.453   1.671
 1939SOL     OW 5828   2.973   3.057   1.100
 1939SOL    HW1 5829   2.933   3.101   1.181
 1939SOL    HW2 5830   2.932   3.094   1.017
 1940SOL     OW 5831   3.500   2.961   1.079
 1940SOL    HW1 5832   3.505   3.042   1.138
 1940SOL    HW2 5833   3.414   2.963   1.028
 1941SOL     OW 5834   2.777   1.951   1.402
 1941SOL    HW1 5835   2.802   1.931   1.307
 1941SOL    HW2 5836   2.849   2.007   1.444
 1942SOL     OW 5837   2.842   2.978   1.719
 1942SOL    HW1 5838   2.743   2.984   1.729
 1942SOL    HW2 5839   2.865   2.898   1.663
 1943SOL     OW 5840   2.567   2.912   0.368
 1943SOL    HW1 5841   2.553   2.919   0.467
 1943SOL    HW2 5842   2.651   2.861   0.350
 1944SOL     OW 5843   2.272   2.675   1.251
 1944SOL    HW1 5844   2.358   2.687   1.301
 1944SOL    HW2 5845   2.230   2.588   1.278
 1945SOL     OW 5846   3.136   2.248   1.262
 1945SOL    HW1 5847   3.157   2.322   1.326
 1945SOL    HW2 5848   3.047   2.265   1.219
 1946SOL     OW 5849   1.926   3.426   1.331
 1946SOL    HW1 5850   1.880   3.508   1.297
 1946SOL    HW2 5851   2.024   3.445   1.340
 1947SOL     OW 5852   2.229   2.962   0.501
 1947SOL    HW1 5853   2.222   3.045   0.445
 1947SOL    HW2 5854   2.233   2.882   0.441
 1948SOL     OW 5855   2.428   2.399   0.865
 1948SOL    HW1 5856   2.440   2.465   0.791
 1948SOL    HW2 5857   2.474   2.433   0.948
 1949SOL     OW 5858   3.114   3.210   0.388
 1949SOL    HW1 5859   3.164   3.287   0.428
 1949SOL    HW2 5860   3.019   3.212   0.420
 1950SOL     OW 5861   3.134   3.307   1.142
 1950SOL    HW1 5862   3.181   3.320   1.229
 1950SOL    HW2 5863   3.068   3.233   1.151
 1951SOL     OW 5864   3.444   2.501   0.472
 1951SOL    HW1 5865   3.413   2.562   0.545
 1951SOL    HW2 5866   3.494   2.553   0.403
 1952SOL     OW 5867   2.216   3.372   1.329
 1952SOL    HW1 5868   2.195   3.328   1.242
 1952SOL    HW2 5869   2.313   3.398   1.332
 1953SOL     OW 5870   2.264   2.613   1.598
 1953SOL    HW1 5871   2.332   2.668   1.551
 1953SOL    HW2 5872   2.304   2.525   1.625
 1954SOL     OW 5873   3.449   2.641   1.670
 1954SOL    HW1 5874   3.357   2.679   1.665
 1954SOL    HW2 5875   3.509   2.688   1.605
 1955SOL     OW 5876   2.875   1.967   1.770
 1955SOL    HW1 5877   2.881   2.052   1.718
 1955SOL    HW2 5878   2.907   1.891   1.713
 1956SOL     OW 5879   2.366   1.912   1.740
 1956SOL    HW1 5880   2.324   1.855   1.670
 1956SOL    HW2 5881   2.300   1.981   1.772
 1957SOL     OW 5882   2.435   2.732   1.029
 1957SOL    HW1 5883   2.479   2.821   1.020
 1957SOL    HW2 5884   2.372   2.732   1.106
 1958SOL     OW 5885   3.222   2.724   1.045
 1958SOL    HW1 5886   3.147   2.724   0.979
 1958SOL    HW2 5887   3.259   2.632   1.054
 1959SOL     OW 5888   3.071   2.387   0.275
 1959SOL    HW1 5889   3.084   2.303   0.329
 1959SOL    HW2 5890   3.042   2.461   0.335
 1960SOL     OW 5891   2.169   2.075   1.231
 1960SOL    HW1 5892   2.146   2.112   1.321
 1960SOL    HW2 5893   2.139   1.980   1.225
 1961SOL     OW 5894   1.899   3.172   1.282
 1961SOL    HW1 5895   1.952   3.123   1.350
 1961SOL    HW2 5896   1.921   3.270   1.287
 1962SOL     OW 5897   2.594   2.496   1.064
 1962SOL    HW1 5898   2.653   2.470   0.988
 1962SOL    HW2 5899   2.566   2.592   1.053
 1963SOL     OW 5900   3.590   2.797   1.854
 1963SOL    HW1 5901   3.544   2.790   1.765
 1963SOL    HW2 5902   3.528   2.841   1.920
 1964SOL     OW 5903   2.169   1.925   0.618
 1964SOL    HW1 5904   2.158   2.019   0.651
 1964SOL    HW2 5905   2.164   1.862   0.695
 1965SOL     OW 5906   3.484   2.229   0.374
 1965SOL    HW1 5907   3.486   2.153   0.438
 1965SOL    HW2 5908   3.436   2.306   0.414
 1966SOL     OW 5909   2.885   2.628   0.966
 1966SOL    HW1 5910   2.900   2.649   1.062
 1966SOL    HW2 5911   2.855   2.533   0.957
 1967SOL     OW 5912   2.842   3.435   1.700
 1967SOL    HW1 5913   2.822   3.479   1.612
 1967SOL    HW2 5914   2.881   3.344   1.684
 1968SOL     OW 5915   3.721   3.380   1.605
 1968SOL    HW1 5916   3.735   3.407   1.510
 1968SOL    HW2 5917   3.804   3.402   1.658
 1969SOL     OW 5918   2.212   2.760   1.804
 1969SOL    HW1 5919   2.288   2.804   1.852
 1969SOL    HW2 5920   2.247   2.713   1.722
 1970SOL     OW 5921   3.402   2.136   0.125
 1970SOL    HW1 5922   3.341   2.061   0.148
 1970SOL    HW2 5923   3.424   2.188   0.208
 1971SOL     OW 5924   3.165   2.700   0.042
 1971SOL    HW1 5925   3.199   2.607   0.057
 1971SOL    HW2 5926   3.183   2.727  -0.053
 1972SOL     OW 5927   2.930   3.195   0.849
 1972SOL    HW1 5928   2.937   3.111   0.794
 1972SOL    HW2 5929   2.992   3.264   0.813
 1973SOL     OW 5930   2.181   2.672   0.949
 1973SOL    HW1 5931   2.274   2.708   0.954
 1973SOL    HW2 5932   2.175   2.587   1.001
 1974SOL     OW 5933   2.201   2.371   1.006
 1974SOL    HW1 5934   2.149   2.288   0.989
 1974SOL    HW2 5935   2.278   2.376   0.942
 1975SOL     OW 5936   3.000   2.242   1.678
 1975SOL    HW1 5937   2.955   2.305   1.742
 1975SOL    HW2 5938   3.093   2.273   1.661
 1976SOL     OW 5939   3.022   2.069   1.477
 1976SOL    HW1 5940   3.022   2.133   1.554
 1976SOL    HW2 5941   3.050   2.117   1.394
 1977SOL     OW 5942   1.870   3.188   0.200
 1977SOL    HW1 5943   1.777   3.209   0.169
 1977SOL    HW2 5944   1.880   3.089   0.213
 1978SOL     OW 5945   1.950   3.663   0.927
 1978SOL    HW1 5946   1.908   3.577   0.900
 1978SOL    HW2 5947   2.044   3.666   0.893
 1979SOL     OW 5948   2.366   3.430   0.910
 1979SOL    HW1 5949   2.432   3.504   0.919
 1979SOL    HW2 5950   2.410   3.351   0.868
 1980SOL     OW 5951   2.864   2.658   1.238
 1980SOL    HW1 5952   2.905   2.626   1.324
 1980SOL    HW2 5953   2.768   2.631   1.235
 1981SOL     OW 5954   1.902   2.406   1.114
 1981SOL    HW1 5955   1.987   2.373   1.073
 1981SOL    HW2 5956   1.915   2.421   1.212
 1982SOL     OW 5957   2.051   2.382   1.722
 1982SOL    HW1 5958   2.110   2.342   1.652
 1982SOL    HW2 5959   1.993   2.453   1.681
 1983SOL     OW 5960   3.231   2.812   1.660
 1983SOL    HW1 5961   3.270   2.901   1.680
 1983SOL    HW2 5962   3.241   2.792   1.563
 1984SOL     OW 5963   2.677   2.434   0.325
 1984SOL    HW1 5964   2.684   2.345   0.279
 1984SOL    HW2 5965   2.583   2.468   0.317
 1985SOL     OW 5966   3.519   2.466   1.206
 1985SOL    HW1 5967   3.481   2.397   1.268
 1985SOL    HW2 5968   3.601   2.430   1.162
 1986SOL     OW 5969   2.114   3.426   1.744
 1986SOL    HW1 5970   2.084   3.483   1.820
 1986SOL    HW2 5971   2.107   3.329   1.770
 1987SOL     OW 5972   2.533   2.326   1.269
 1987SOL    HW1 5973   2.499   2.237   1.239
 1987SOL    HW2 5974   2.559   2.380   1.189
 1988SOL     OW 5975   2.792   3.540   1.465
 1988SOL    HW1 5976   2.768   3.522   1.370
 1988SOL    HW2 5977   2.822   3.634   1.475
 1989SOL     OW 5978   2.335   2.362   0.191
 1989SOL    HW1 5979   2.396   2.442   0.195
 1989SOL    HW2 5980   2.240   2.393   0.198
 1990SOL     OW 5981   2.021   2.999   1.466
 1990SOL    HW1 5982   2.043   2.938   1.542
 1990SOL    HW2 5983   2.031   2.950   1.380
 1991SOL     OW 5984   3.209   2.921   1.234
 1991SOL    HW1 5985   3.233   2.858   1.160
 1991SOL    HW2 5986   3.119   2.961   1.216
 1992SOL     OW 5987   3.164   2.717   0.309
 1992SOL    HW1 5988   3.078   2.686   0.351
 1992SOL    HW2 5989   3.160   2.703   0.210
 1993SOL     OW 5990   3.621   3.609   1.154
 1993SOL    HW1 5991   3.682   3.639   1.081
 1993SOL    HW2 5992   3.583   3.520   1.132
 1994SOL     OW 5993   3.114   3.593   1.128
 1994SOL    HW1 5994   3.198   3.598   1.074
 1994SOL    HW2 5995   3.091   3.497   1.146
 1995SOL     OW 5996   1.945   3.120   1.022
 1995SOL    HW1 5997   1.940   3.119   1.122
 1995SOL    HW2 5998   1.862   3.079   0.984
 1996SOL     OW 5999   2.550   3.524   1.716
 1996SOL    HW1 6000   2.494   3.605   1.725
 1996SOL    HW2 6001   2.602   3.528   1.630
 1997SOL     OW 6002   2.765   1.948   0.133
 1997SOL    HW1 6003   2.816   1.949   0.047
 1997SOL    HW2 6004   2.821   1.906   0.204
 1998SOL     OW 6005   3.588   1.997   0.523
 1998SOL    HW1 6006   3.661   1.980   0.456
 1998SOL    HW2 6007   3.557   1.910   0.561
 1999SOL     OW 6008   3.250   3.435   0.477
 1999SOL    HW1 6009   3.317   3.447   0.403
 1999SOL    HW2 6010   3.210   3.524   0.500
 2000SOL     OW 6011   1.992   3.656   1.851
 2000SOL    HW1 6012   1.951   3.582   1.904
 2000SOL    HW2 6013   2.056   3.707   1.909
 2001SOL     OW 6014   3.142   2.789   0.672
 2001SOL    HW1 6015   3.202   2.708   0.674
 2001SOL    HW2 6016   3.182   2.858   0.612
 2002SOL     OW 6017   2.692   3.135   1.422
 2002SOL    HW1 6018   2.687   3.168   1.517
 2002SOL    HW2 6019   2.606   3.154   1.376
 2003SOL     OW 6020   2.534   3.478   0.154
 2003SOL    HW1 6021   2.543   3.488   0.055
 2003SOL    HW2 6022   2.494   3.389   0.175
 2004SOL     OW 6023   3.512   3.582   1.394
 2004SOL    HW1 6024   3.565   3.592   1.310
 2004SOL    HW2 6025   3.485   3.672   1.428
 2005SOL     OW 6026   3.703   2.037   0.963
 2005SOL    HW1 6027   3.742   1.952   0.927
 2005SOL    HW2 6028   3.605   2.039   0.944
 2006SOL     OW 6029   2.125   2.188   0.720
 2006SOL    HW1 6030   2.046   2.239   0.686
 2006SOL    HW2 6031   2.116   2.173   0.818
 2007SOL     OW 6032   3.056   3.474   0.031
 2007SOL    HW1 6033   3.062   3.381   0.068
 2007SOL    HW2 6034   2.997   3.474  -0.049
 2008SOL     OW 6035   2.684   2.864   1.372
 2008SOL    HW1 6036   2.724   2.863   1.280
 2008SOL    HW2 6037   2.694   2.956   1.412
 2009SOL     OW 6038   2.778   2.772   0.291
 2009SOL    HW1 6039   2.841   2.810   0.223
 2009SOL    HW2 6040   2.818   2.689   0.330
 2010SOL     OW 6041   3.366   3.469   0.044
 2010SOL    HW1 6042   3.274   3.506   0.051
 2010SOL    HW2 6043   3.404   3.489  -0.046
 2011SOL     OW 6044   2.234   3.150   1.490
 2011SOL    HW1 6045   2.221   3.243   1.456
 2011SOL    HW2 6046   2.150   3.098   1.477
 2012SOL     OW 6047   3.476   3.154   1.289
 2012SOL    HW1 6048   3.536   3.157   1.369
 2012SOL    HW2 6049   3.401   3.218   1.302
 2013SOL     OW 6050   2.901   2.960   0.696
 2013SOL    HW1 6051   2.831   2.913   0.750
 2013SOL    HW2 6052   2.960   2.892   0.653
 2014SOL     OW 6053   2.876   2.098   0.971
 2014SOL    HW1 6054   2.868   2.062   0.878
 2014SOL    HW2 6055   2.874   2.022   1.036
 2015SOL     OW 6056   2.452   3.349   0.491
 2015SOL    HW1 6057   2.494   3.291   0.421
 2015SOL    HW2 6058   2.408   3.428   0.447
 2016SOL     OW 6059   3.571   2.247   1.381
 2016SOL    HW1 6060   3.644   2.316   1.385
 2016SOL    HW2 6061   3.599   2.172   1.322
 2017SOL     OW 6062   2.117   3.210   0.290
 2017SOL    HW1 6063   2.021   3.211   0.263
 2017SOL    HW2 6064   2.129   3.263   0.374
 2018SOL     OW 6065   1.967   2.875   1.726
 2018SOL    HW1 6066   1.890   2.842   1.780
 2018SOL    HW2 6067   2.052   2.845   1.768
 2019SOL     OW 6068   2.534   2.065   1.489
 2019SOL    HW1 6069   2.624   2.049   1.449
 2019SOL    HW2 6070   2.542   2.070   1.588
 2020SOL     OW 6071   3.302   2.718   1.398
 2020SOL    HW1 6072   3.245   2.770   1.335
 2020SOL    HW2 6073   3.398   2.730   1.374
 2021SOL     OW 6074   1.934   2.028   0.318
 2021SOL    HW1 6075   1.917   2.111   0.264
 2021SOL    HW2 6076   2.024   1.991   0.296
 2022SOL     OW 6077   3.045   3.197   0.119
 2022SOL    HW1 6078   2.946   3.186   0.121
 2022SOL    HW2 6079   3.079   3.212   0.212
 2023SOL     OW 6080   2.475   2.704   1.431
 2023SOL    HW1 6081   2.531   2.785   1.414
 2023SOL    HW2 6082   2.534   2.624   1.434
 2024SOL     OW 6083   3.355   3.629   0.959
 2024SOL    HW1 6084   3.388   3.693   0.890
 2024SOL    HW2 6085   3.421   3.623   1.034
 2025SOL     OW 6086   2.578   2.427   1.708
 2025SOL    HW1 6087   2.597   2.492   1.782
 2025SOL    HW2 6088   2.638   2.347   1.717
 2026SOL     OW 6089   3.312   3.082   1.633
 2026SOL    HW1 6090   3.303   3.072   1.732
 2026SOL    HW2 6091   3.408   3.075   1.607
 2027SOL     OW 6092   2.252   3.603   1.560
 2027SOL    HW1 6093   2.161   3.644   1.558
 2027SOL    HW2 6094   2.245   3.509   1.592
 2028SOL     OW 6095   3.536   2.745   1.254
 2028SOL    HW1 6096   3.509   2.656   1.217
 2028SOL    HW2 6097   3.537   2.813   1.181
 2029SOL     OW 6098   3.087   2.187   0.449
 2029SOL    HW1 6099   3.152   2.113   0.438
 2029SOL    HW2 6100   3.107   2.237   0.533
 2030SOL     OW 6101   2.456   2.607   0.652
 2030SOL    HW1 6102   2.506   2.692   0.633
 2030SOL    HW2 6103   2.368   2.609   0.604
 2031SOL     OW 6104   3.639   2.204   1.642
 2031SOL    HW1 6105   3.622   2.235   1.548
 2031SOL    HW2 6106   3.555   2.167   1.680
 2032SOL     OW 6107   3.592   2.796   1.517
 2032SOL    HW1 6108   3.630   2.887   1.532
 2032SOL    HW2 6109   3.584   2.779   1.418
 2033SOL     OW 6110   2.721   3.236   0.016
 2033SOL    HW1 6111   2.675   3.251   0.104
 2033SOL    HW2 6112   2.765   3.321  -0.014
 2034SOL     OW 6113   2.523   3.652   0.953
 2034SOL    HW1 6114   2.477   3.740   0.940
 2034SOL    HW2 6115   2.622   3.664   0.946
 2035SOL     OW 6116   2.721   2.818   0.861
 2035SOL    HW1 6117   2.775   2.749   0.909
 2035SOL    HW2 6118   2.689   2.887   0.927
 2036SOL     OW 6119   2.945   2.846   0.087
 2036SOL    HW1 6120   2.922   2.899   0.005
 2036SOL    HW2 6121   3.026   2.790   0.068
 2037SOL     OW 6122   3.723   3.431   0.851
 2037SOL    HW1 6123   3.652   3.419   0.781
 2037SOL    HW2 6124   3.724   3.352   0.911
 2038SOL     OW 6125   2.083   3.176   1.844
 2038SOL    HW1 6126   2.018   3.103   1.823
 2038SOL    HW2 6127   2.087   3.190   1.942
 2039SOL     OW 6128   1.941   3.102   0.653
 2039SOL    HW1 6129   1.940   3.055   0.741
 2039SOL    HW2 6130   2.023   3.074   0.602
 2040SOL     OW 6131   2.534   3.253   1.624
 2040SOL    HW1 6132   2.456   3.203   1.662
 2040SOL    HW2 6133   2.531   3.348   1.655
 2041SOL     OW 6134   3.686   2.054   1.227
 2041SOL    HW1 6135   3.682   1.964   1.271
 2041SOL    HW2 6136   3.689   2.043   1.128
 2042SOL     OW 6137   2.290   2.286   0.520
 2042SOL    HW1 6138   2.320   2.214   0.458
 2042SOL    HW2 6139   2.251   2.246   0.603
 2043SOL     OW 6140   3.567   3.349   1.104
 2043SOL    HW1 6141   3.474   3.324   1.077
 2043SOL    HW2 6142   3.593   3.299   1.186
 2044SOL     OW 6143   2.179   2.409   1.280
 2044SOL    HW1 6144   2.217   2.350   1.352
 2044SOL    HW2 6145   2.219   2.383   1.192
 2045SOL     OW 6146   2.674   3.448   0.687
 2045SOL    HW1 6147   2.706   3.458   0.593
 2045SOL    HW2 6148   2.595   3.386   0.689
 2046SOL     OW 6149   3.286   2.076   1.112
 2046SOL    HW1 6150   3.338   2.011   1.167
 2046SOL    HW2 6151   3.237   2.139   1.173
 2047SOL     OW 6152   2.863   1.896   1.154
 2047SOL    HW1 6153   2.800   1.824   1.123
 2047SOL    HW2 6154   2.956   1.860   1.154
 2048SOL     OW 6155   2.632   3.192   0.301
 2048SOL    HW1 6156   2.586   3.105   0.318
 2048SOL    HW2 6157   2.723   3.189   0.342
 2049SOL     OW 6158   2.480   3.429   1.284
 2049SOL    HW1 6159   2.475   3.511   1.341
 2049SOL    HW2 6160   2.569   3.426   1.239
 2050SOL     OW 6161   3.214   1.914   0.168
 2050SOL    HW1 6162   3.249   1.873   0.084
 2050SOL    HW2 6163   3.124   1.876   0.188
 2051SOL     OW 6164   3.162   2.315   0.691
 2051SOL    HW1 6165   3.103   2.395   0.695
 2051SOL    HW2 6166   3.177   2.280   0.784
 2052SOL     OW 6167   3.455   2.083   0.882
 2052SOL    HW1 6168   3.371   2.082   0.936
 2052SOL    HW2 6169   3.457   2.166   0.826
 2053SOL     OW 6170   1.901   2.939   0.300
 2053SOL    HW1 6171   2.000   2.928   0.291
 2053SOL    HW2 6172   1.861   2.853   0.332
 2054SOL     OW 6173   2.737   3.508   0.337
 2054SOL    HW1 6174   2.660   3.473   0.283
 2054SOL    HW2 6175   2.705   3.579   0.399
 2055SOL     OW 6176   2.092   2.490   1.975
 2055SOL    HW1 6177   1.999   2.488   2.012
 2055SOL    HW2 6178   2.093   2.451   1.883
 2056SOL     OW 6179   2.087   2.137   2.858
 2056SOL    HW1 6180   2.122   2.120   2.950
 2056SOL    HW2 6181   1.999   2.092   2.846
 2057SOL     OW 6182   1.881   2.230   2.509
 2057SOL    HW1 6183   1.799   2.273   2.548
 2057SOL    HW2 6184   1.853   2.157   2.446
 2058SOL     OW 6185   2.431   3.137   3.027
 2058SOL    HW1 6186   2.338   3.130   2.990
 2058SOL    HW2 6187   2.442   3.226   3.071
 2059SOL     OW 6188   3.417   3.373   2.565
 2059SOL    HW1 6189   3.360   3.357   2.646
 2059SOL    HW2 6190   3.358   3.383   2.485
 2060SOL     OW 6191   2.997   2.565   2.579
 2060SOL    HW1 6192   3.054   2.643   2.554
 2060SOL    HW2 6193   2.937   2.591   2.655
 2061SOL     OW 6194   3.617   2.469   2.093
 2061SOL    HW1 6195   3.605   2.456   1.994
 2061SOL    HW2 6196   3.587   2.388   2.142
 2062SOL     OW 6197   2.630   3.006   2.885
 2062SOL    HW1 6198   2.552   3.023   2.945
 2062SOL    HW2 6199   2.664   3.093   2.849
 2063SOL     OW 6200   2.712   2.660   3.685
 2063SOL    HW1 6201   2.708   2.736   3.750
 2063SOL    HW2 6202   2.734   2.696   3.594
 2064SOL     OW 6203   2.547   2.874   2.527
 2064SOL    HW1 6204   2.616   2.858   2.597
 2064SOL    HW2 6205   2.474   2.931   2.565
 2065SOL     OW 6206   2.548   3.023   3.665
 2065SOL    HW1 6207   2.608   3.102   3.679
 2065SOL    HW2 6208   2.462   3.054   3.624
 2066SOL     OW 6209   2.197   3.297   2.923
 2066SOL    HW1 6210   2.119   3.266   2.870
 2066SOL    HW2 6211   2.255   3.355   2.866
 2067SOL     OW 6212   3.322   3.367   3.201
 2067SOL    HW1 6213   3.346   3.461   3.227
 2067SOL    HW2 6214   3.306   3.313   3.283
 2068SOL     OW 6215   2.300   2.254   3.361
 2068SOL    HW1 6216   2.382   2.198   3.370
 2068SOL    HW2 6217   2.219   2.196   3.365
 2069SOL     OW 6218   3.465   2.309   2.599
 2069SOL    HW1 6219   3.391   2.355   2.549
 2069SOL    HW2 6220   3.516   2.377   2.652
 2070SOL     OW 6221   2.093   3.575   2.345
 2070SOL    HW1 6222   2.127   3.652   2.399
 2070SOL    HW2 6223   2.137   3.575   2.255
 2071SOL     OW 6224   2.989   3.203   3.552
 2071SOL    HW1 6225   3.036   3.203   3.640
 2071SOL    HW2 6226   2.941   3.116   3.541
 2072SOL     OW 6227   2.092   3.296   2.400
 2072SOL    HW1 6228   2.066   3.392   2.400
 2072SOL    HW2 6229   2.021   3.242   2.445
 2073SOL     OW 6230   2.102   2.953   2.748
 2073SOL    HW1 6231   2.116   2.869   2.800
 2073SOL    HW2 6232   2.047   3.017   2.803
 2074SOL     OW 6233   2.482   3.648   3.301
 2074SOL    HW1 6234   2.390   3.631   3.336
 2074SOL    HW2 6235   2.510   3.740   3.327
 2075SOL     OW 6236   2.468   2.826   1.985
 2075SOL    HW1 6237   2.475   2.910   1.931
 2075SOL    HW2 6238   2.514   2.839   2.073
 2076SOL     OW 6239   3.456   1.976   3.342
 2076SOL    HW1 6240   3.438   2.043   3.270
 2076SOL    HW2 6241   3.453   2.022   3.431
 2077SOL     OW 6242   1.984   2.505   2.425
 2077SOL    HW1 6243   1.939   2.417   2.442
 2077SOL    HW2 6244   1.983   2.559   2.509
 2078SOL     OW 6245   3.704   3.629   2.221
 2078SOL    HW1 6246   3.758   3.600   2.301
 2078SOL    HW2 6247   3.734   3.719   2.192
 2079SOL     OW 6248   1.889   3.458   1.979
 2079SOL    HW1 6249   1.870   3.362   2.000
 2079SOL    HW2 6250   1.856   3.516   2.054
 2080SOL     OW 6251   3.551   2.784   2.474
 2080SOL    HW1 6252   3.646   2.755   2.482
 2080SOL    HW2 6253   3.543   2.849   2.399
 2081SOL     OW 6254   3.503   2.970   2.294
 2081SOL    HW1 6255   3.589   2.972   2.242
 2081SOL    HW2 6256   3.517   3.017   2.382
 2082SOL     OW 6257   1.975   2.599   3.459
 2082SOL    HW1 6258   2.063   2.586   3.504
 2082SOL    HW2 6259   1.962   2.696   3.437
 2083SOL     OW 6260   2.475   3.227   2.588
 2083SOL    HW1 6261   2.426   3.140   2.597
 2083SOL    HW2 6262   2.452   3.270   2.501
 2084SOL     OW 6263   3.155   3.090   3.285
 2084SOL    HW1 6264   3.192   3.017   3.227
 2084SOL    HW2 6265   3.207   3.095   3.370
 2085SOL     OW 6266   2.671   1.866   2.364
 2085SOL    HW1 6267   2.711   1.957   2.355
 2085SOL    HW2 6268   2.571   1.874   2.370
 2086SOL     OW 6269   2.059   2.838   3.126
 2086SOL    HW1 6270   2.148   2.793   3.112
 2086SOL    HW2 6271   1.986   2.773   3.107
 2087SOL     OW 6272   3.387   2.861   2.052
 2087SOL    HW1 6273   3.324   2.785   2.065
 2087SOL    HW2 6274   3.435   2.879   2.138
 2088SOL     OW 6275   3.049   3.654   3.478
 2088SOL    HW1 6276   3.073   3.714   3.402
 2088SOL    HW2 6277   3.056   3.559   3.448
 2089SOL     OW 6278   2.179   2.113   3.663
 2089SOL    HW1 6279   2.250   2.184   3.669
 2089SOL    HW2 6280   2.091   2.152   3.691
 2090SOL     OW 6281   3.328   3.279   2.815
 2090SOL    HW1 6282   3.269   3.285   2.895
 2090SOL    HW2 6283   3.313   3.191   2.769
 2091SOL     OW 6284   3.529   3.576   2.434
 2091SOL    HW1 6285   3.488   3.553   2.346
 2091SOL    HW2 6286   3.511   3.502   2.499
 2092SOL     OW 6287   2.460   2.591   2.132
 2092SOL    HW1 6288   2.484   2.660   2.064
 2092SOL    HW2 6289   2.382   2.624   2.186
 2093SOL     OW 6290   3.143   2.207   2.806
 2093SOL    HW1 6291   3.057   2.157   2.793
 2093SOL    HW2 6292   3.205   2.153   2.862
 2094SOL     OW 6293   3.438   3.524   2.169
 2094SOL    HW1 6294   3.527   3.570   2.172
 2094SOL    HW2 6295   3.417   3.500   2.074
 2095SOL     OW 6296   2.669   2.467   3.327
 2095SOL    HW1 6297   2.622   2.464   3.416
 2095SOL    HW2 6298   2.618   2.412   3.261
 2096SOL     OW 6299   3.256   2.331   3.536
 2096SOL    HW1 6300   3.236   2.374   3.624
 2096SOL    HW2 6301   3.334   2.269   3.545
 2097SOL     OW 6302   2.835   2.752   3.434
 2097SOL    HW1 6303   2.881   2.668   3.405
 2097SOL    HW2 6304   2.779   2.786   3.359
 2098SOL     OW 6305   2.853   2.272   3.104
 2098SOL    HW1 6306   2.776   2.306   3.158
 2098SOL    HW2 6307   2.819   2.221   3.025
 2099SOL     OW 6308   2.903   2.563   2.291
 2099SOL    HW1 6309   2.929   2.559   2.387
 2099SOL    HW2 6310   2.818   2.512   2.277
 2100SOL     OW 6311   1.938   2.673   2.651
 2100SOL    HW1 6312   2.037   2.661   2.660
 2100SOL    HW2 6313   1.914   2.768   2.672
 2101SOL     OW 6314   1.992   3.683   3.433
 2101SOL    HW1 6315   1.982   3.668   3.532
 2101SOL    HW2 6316   1.906   3.719   3.397
 2102SOL     OW 6317   2.727   2.210   2.057
 2102SOL    HW1 6318   2.786   2.273   2.008
 2102SOL    HW2 6319   2.746   2.116   2.028
 2103SOL     OW 6320   3.581   2.447   3.693
 2103SOL    HW1 6321   3.555   2.536   3.657
 2103SOL    HW2 6322   3.579   2.379   3.620
 2104SOL     OW 6323   3.224   3.006   2.407
 2104SOL    HW1 6324   3.307   2.977   2.359
 2104SOL    HW2 6325   3.175   3.073   2.351
 2105SOL     OW 6326   2.412   2.058   2.747
 2105SOL    HW1 6327   2.407   2.053   2.847
 2105SOL    HW2 6328   2.414   2.154   2.718
 2106SOL     OW 6329   2.870   3.318   2.339
 2106SOL    HW1 6330   2.824   3.390   2.287
 2106SOL    HW2 6331   2.866   3.338   2.437
 2107SOL     OW 6332   2.213   3.663   2.715
 2107SOL    HW1 6333   2.263   3.577   2.721
 2107SOL    HW2 6334   2.278   3.740   2.712
 2108SOL     OW 6335   3.657   2.928   2.735
 2108SOL    HW1 6336   3.595   2.913   2.659
 2108SOL    HW2 6337   3.605   2.939   2.820
 2109SOL     OW 6338   3.089   3.412   3.368
 2109SOL    HW1 6339   3.095   3.335   3.432
 2109SOL    HW2 6340   3.037   3.386   3.288
 2110SOL     OW 6341   2.183   2.805   2.104
 2110SOL    HW1 6342   2.265   2.844   2.062
 2110SOL    HW2 6343   2.156   2.723   2.055
 2111SOL     OW 6344   3.320   2.597   2.590
 2111SOL    HW1 6345   3.315   2.532   2.665
 2111SOL    HW2 6346   3.400   2.656   2.603
 2112SOL     OW 6347   2.323   3.128   3.589
 2112SOL    HW1 6348   2.273   3.129   3.503
 2112SOL    HW2 6349   2.260   3.110   3.665
 2113SOL     OW 6350   2.973   3.638   2.099
 2113SOL    HW1 6351   2.913   3.576   2.149
 2113SOL    HW2 6352   3.004   3.594   2.014
 2114SOL     OW 6353   2.064   2.147   3.360
 2114SOL    HW1 6354   1.984   2.207   3.347
 2114SOL    HW2 6355   2.054   2.098   3.446
 2115SOL     OW 6356   3.494   3.239   1.943
 2115SOL    HW1 6357   3.462   3.333   1.933
 2115SOL    HW2 6358   3.418   3.176   1.931
 2116SOL     OW 6359   2.326   3.605   2.185
 2116SOL    HW1 6360   2.359   3.644   2.271
 2116SOL    HW2 6361   2.402   3.598   2.120
 2117SOL     OW 6362   3.262   1.969   2.288
 2117SOL    HW1 6363   3.238   1.932   2.198
 2117SOL    HW2 6364   3.361   1.985   2.292
 2118SOL     OW 6365   2.111   3.647   3.103
 2118SOL    HW1 6366   2.168   3.582   3.153
 2118SOL    HW2 6367   2.095   3.614   3.010
 2119SOL     OW 6368   2.802   3.560   2.766
 2119SOL    HW1 6369   2.882   3.503   2.787
 2119SOL    HW2 6370   2.753   3.520   2.689
 2120SOL     OW 6371   3.409   2.084   3.591
 2120SOL    HW1 6372   3.404   2.121   3.683
 2120SOL    HW2 6373   3.337   2.015   3.579
 2121SOL     OW 6374   2.476   1.984   1.979
 2121SOL    HW1 6375   2.574   1.962   1.986
 2121SOL    HW2 6376   2.445   1.967   1.886
 2122SOL     OW 6377   2.643   2.126   3.611
 2122SOL    HW1 6378   2.710   2.065   3.654
 2122SOL    HW2 6379   2.570   2.145   3.676
 2123SOL     OW 6380   2.750   3.376   3.057
 2123SOL    HW1 6381   2.727   3.351   2.963
 2123SOL    HW2 6382   2.811   3.307   3.096
 2124SOL     OW 6383   3.213   2.452   3.295
 2124SOL    HW1 6384   3.241   2.409   3.380
 2124SOL    HW2 6385   3.238   2.548   3.296
 2125SOL     OW 6386   2.665   3.264   2.786
 2125SOL    HW1 6387   2.755   3.278   2.744
 2125SOL    HW2 6388   2.594   3.266   2.715
 2126SOL     OW 6389   2.784   2.365   2.761
 2126SOL    HW1 6390   2.759   2.356   2.665
 2126SOL    HW2 6391   2.832   2.283   2.792
 2127SOL     OW 6392   2.401   1.926   2.374
 2127SOL    HW1 6393   2.320   1.927   2.432
 2127SOL    HW2 6394   2.404   2.009   2.319
 2128SOL     OW 6395   3.296   3.050   1.903
 2128SOL    HW1 6396   3.328   2.974   1.960
 2128SOL    HW2 6397   3.204   3.077   1.933
 2129SOL     OW 6398   2.159   1.897   2.033
 2129SOL    HW1 6399   2.208   1.981   2.012
 2129SOL    HW2 6400   2.221   1.832   2.078
 2130SOL     OW 6401   2.797   2.098   2.342
 2130SOL    HW1 6402   2.749   2.139   2.264
 2130SOL    HW2 6403   2.896   2.096   2.323
 2131SOL     OW 6404   2.938   2.545   3.326
 2131SOL    HW1 6405   2.858   2.484   3.329
 2131SOL    HW2 6406   3.019   2.492   3.302
 2132SOL     OW 6407   3.089   3.432   2.655
 2132SOL    HW1 6408   3.110   3.506   2.590
 2132SOL    HW2 6409   3.157   3.432   2.728
 2133SOL     OW 6410   2.321   3.014   2.603
 2133SOL    HW1 6411   2.250   2.987   2.668
 2133SOL    HW2 6412   2.295   2.986   2.510
 2134SOL     OW 6413   3.133   3.659   2.453
 2134SOL    HW1 6414   3.177   3.723   2.389
 2134SOL    HW2 6415   3.083   3.711   2.523
 2135SOL     OW 6416   2.894   2.411   1.878
 2135SOL    HW1 6417   2.853   2.493   1.839
 2135SOL    HW2 6418   2.958   2.437   1.951
 2136SOL     OW 6419   1.940   2.418   3.248
 2136SOL    HW1 6420   2.032   2.417   3.207
 2136SOL    HW2 6421   1.934   2.492   3.315
 2137SOL     OW 6422   2.423   2.084   3.009
 2137SOL    HW1 6423   2.461   2.000   3.046
 2137SOL    HW2 6424   2.335   2.103   3.053
 2138SOL     OW 6425   2.728   2.316   2.504
 2138SOL    HW1 6426   2.696   2.388   2.442
 2138SOL    HW2 6427   2.752   2.235   2.451
 2139SOL     OW 6428   2.879   1.901   2.615
 2139SOL    HW1 6429   2.807   1.906   2.546
 2139SOL    HW2 6430   2.855   1.832   2.684
 2140SOL     OW 6431   3.291   3.035   2.729
 2140SOL    HW1 6432   3.236   2.951   2.722
 2140SOL    HW2 6433   3.317   3.064   2.637
 2141SOL     OW 6434   3.328   2.452   2.854
 2141SOL    HW1 6435   3.298   2.357   2.861
 2141SOL    HW2 6436   3.401   2.468   2.920
 2142SOL     OW 6437   3.719   2.695   2.239
 2142SOL    HW1 6438   3.761   2.631   2.303
 2142SOL    HW2 6439   3.681   2.644   2.161
 2143SOL     OW 6440   2.350   3.247   2.036
 2143SOL    HW1 6441   2.263   3.232   2.083
 2143SOL    HW2 6442   2.333   3.273   1.941
 2144SOL     OW 6443   3.526   3.142   2.519
 2144SOL    HW1 6444   3.625   3.150   2.533
 2144SOL    HW2 6445   3.481   3.226   2.550
 2145SOL     OW 6446   3.252   2.437   1.940
 2145SOL    HW1 6447   3.198   2.416   2.021
 2145SOL    HW2 6448   3.343   2.396   1.949
 2146SOL     OW 6449   3.616   3.085   3.450
 2146SOL    HW1 6450   3.707   3.046   3.437
 2146SOL    HW2 6451   3.624   3.181   3.474
 2147SOL     OW 6452   2.926   3.209   3.202
 2147SOL    HW1 6453   2.846   3.186   3.257
 2147SOL    HW2 6454   3.009   3.183   3.251
 2148SOL     OW 6455   3.454   3.491   3.487
 2148SOL    HW1 6456   3.481   3.525   3.397
 2148SOL    HW2 6457   3.533   3.453   3.533
 2149SOL     OW 6458   2.973   3.057   2.962
 2149SOL    HW1 6459   2.933   3.101   3.043
 2149SOL    HW2 6460   2.932   3.094   2.879
 2150SOL     OW 6461   3.500   2.961   2.941
 2150SOL    HW1 6462   3.505   3.042   3.000
 2150SOL    HW2 6463   3.414   2.963   2.890
 2151SOL     OW 6464   2.777   1.951   3.264
 2151SOL    HW1 6465   2.802   1.931   3.169
 2151SOL    HW2 6466   2.849   2.007   3.306
 2152SOL     OW 6467   2.842   2.978   3.581
 2152SOL    HW1 6468   2.743   2.984   3.591
 2152SOL    HW2 6469   2.865   2.898   3.525
 2153SOL     OW 6470   2.567   2.912   2.230
 2153SOL    HW1 6471   2.553   2.919   2.329
 2153SOL    HW2 6472   2.651   2.861   2.212
 2154SOL     OW 6473   2.272   2.675   3.113
 2154SOL    HW1 6474   2.358   2.687   3.163
 2154SOL    HW2 6475   2.230   2.588   3.140
 2155SOL     OW 6476   3.136   2.248   3.124
 2155SOL    HW1 6477   3.157   2.322   3.188
 2155SOL    HW2 6478   3.047   2.265   3.081
 2156SOL     OW 6479   1.926   3.426   3.193
 2156SOL    HW1 6480   1.880   3.508   3.159
 2156SOL    HW2 6481   2.024   3.445   3.202
 2157SOL     OW 6482   2.229   2.962   2.363
 2157SOL    HW1 6483   2.222   3.045   2.307
 2157SOL    HW2 6484   2.233   2.882   2.303
 2158SOL     OW 6485   3.114   3.210   2.250
 2158SOL    HW1 6486   3.164   3.287   2.290
 2158SOL    HW2 6487   3.019   3.212   2.282
 2159SOL     OW 6488   3.134   3.307   3.004
 2159SOL    HW1 6489   3.181   3.320   3.091
 2159SOL    HW2 6490   3.068   3.233   3.013
 2160SOL     OW 6491   3.444   2.501   2.334
 2160SOL    HW1 6492   3.413   2.562   2.407
 2160SOL    HW2 6493   3.494   2.553   2.265
 2161SOL     OW 6494   2.216   3.372   3.191
 2161SOL    HW1 6495   2.195   3.328   3.104
 2161SOL    HW2 6496   2.313   3.398   3.194
 2162SOL     OW 6497   2.264   2.613   3.460
 2162SOL    HW1 6498   2.332   2.668   3.413
 2162SOL    HW2 6499   2.304   2.525   3.487
 2163SOL     OW 6500   3.449   2.641   3.532
 2163SOL    HW1 6501   3.357   2.679   3.527
 2163SOL    HW2 6502   3.509   2.688   3.467
 2164SOL     OW 6503   2.875   1.967   3.632
 2164SOL    HW1 6504   2.881   2.052   3.580
 2164SOL    HW2 6505   2.907   1.891   3.575
 2165SOL     OW 6506   2.366   1.912   3.602
 2165SOL    HW1 6507   2.324   1.855   3.532
 2165SOL    HW2 6508   2.300   1.981   3.634
 2166SOL     OW 6509   2.435   2.732   2.891
 2166SOL    HW1 6510   2.479   2.821   2.882
 2166SOL    HW2 6511   2.372   2.732   2.968
 2167SOL     OW 6512   3.222   2.724   2.907
 2167SOL    HW1 6513   3.147   2.724   2.841
 2167SOL    HW2 6514   3.259   2.632   2.916
 2168SOL     OW 6515   3.071   2.387   2.137
 2168SOL    HW1 6516   3.084   2.303   2.191
 2168SOL    HW2 6517   3.042   2.461   2.197
 2169SOL     OW 6518   2.169   2.075   3.093
 2169SOL    HW1 6519   2.146   2.112   3.183
 2169SOL    HW2 6520   2.139   1.980   3.087
 2170SOL     OW 6521   1.899   3.172   3.144
 2170SOL    HW1 6522   1.952   3.123   3.212
 2170SOL    HW2 6523   1.921   3.270   3.149
 2171SOL     OW 6524   2.594   2.496   2.926
 2171SOL    HW1 6525   2.653   2.470   2.850
 2171SOL    HW2 6526   2.566   2.592   2.915
 2172SOL     OW 6527   3.590   2.797   3.716
 2172SOL    HW1 6528   3.544   2.790   3.627
 2172SOL    HW2 6529   3.528   2.841   3.782
 2173SOL     OW 6530   2.169   1.925   2.480
 2173SOL    HW1 6531   2.158   2.019   2.513
 2173SOL    HW2 6532   2.164   1.862   2.557
 2174SOL     OW 6533   3.484   2.229   2.236
 2174SOL    HW1 6534   3.486   2.153   2.300
 2174SOL    HW2 6535   3.436   2.306   2.276
 2175SOL     OW 6536   2.885   2.628   2.828
 2175SOL    HW1 6537   2.900   2.649   2.924
 2175SOL    HW2 6538   2.855   2.533   2.819
 2176SOL     OW 6539   2.842   3.435   3.562
 2176SOL    HW1 6540   2.822   3.479   3.474
 2176SOL    HW2 6541   2.881   3.344   3.546
 2177SOL     OW 6542   3.721   3.380   3.467
 2177SOL    HW1 6543   3.735   3.407   3.372
 2177SOL    HW2 6544   3.804   3.402   3.520
 2178SOL     OW 6545   2.212   2.760   3.666
 2178SOL    HW1 6546   2.288   2.804   3.714
 2178SOL    HW2 6547   2.247   2.713   3.584
 2179SOL     OW 6548   3.402   2.136   1.987
 2179SOL    HW1 6549   3.341   2.061   2.010
 2179SOL    HW2 6550   3.424   2.188   2.070
 2180SOL     OW 6551   3.165   2.700   1.904
 2180SOL    HW1 6552   3.199   2.607   1.919
 2180SOL    HW2 6553   3.183   2.727   1.809
 2181SOL     OW 6554   2.930   3.195   2.711
 2181SOL    HW1 6555   2.937   3.111   2.656
 2181SOL    HW2 6556   2.992   3.264   2.675
 2182SOL     OW 6557   2.181   2.672   2.811
 2182SOL    HW1 6558   2.274   2.708   2.816
 2182SOL    HW2 6559   2.175   2.587   2.863
 2183SOL     OW 6560   2.201   2.371   2.868
 2183SOL    HW1 6561   2.149   2.288   2.851
 2183SOL    HW2 6562   2.278   2.376   2.804
 2184SOL     OW 6563   3.000   2.242   3.540
 2184SOL    HW1 6564   2.955   2.305   3.604
 2184SOL    HW2 6565   3.093   2.273   3.523
 2185SOL     OW 6566   3.022   2.069   3.339
 2185SOL    HW1 6567   3.022   2.133   3.416
 2185SOL    HW2 6568   3.050   2.117   3.256
 2186SOL     OW 6569   1.870   3.188   2.062
 2186SOL    HW1 6570   1.777   3.209   2.031
 2186SOL    HW2 6571   1.880   3.089   2.075
 2187SOL     OW 6572   1.950   3.663   2.789
 2187SOL    HW1 6573   1.908   3.577   2.762
 2187SOL    HW2 6574   2.044   3.666   2.755
 2188SOL     OW 6575   2.366   3.430   2.772
 2188SOL    HW1 6576   2.432   3.504   2.781
 2188SOL    HW2 6577   2.410   3.351   2.730
 2189SOL     OW 6578   2.864   2.658   3.100
 2189SOL    HW1 6579   2.905   2.626   3.186
 2189SOL    HW2 6580   2.768   2.631   3.097
 2190SOL     OW 6581   1.902   2.406   2.976
 2190SOL    HW1 6582   1.987   2.373   2.935
 2190SOL    HW2 6583   1.915   2.421   3.074
 2191SOL     OW 6584   2.051   2.382   3.584
 2191SOL    HW1 6585   2.110   2.342   3.514
 2191SOL    HW2 6586   1.993   2.453   3.543
 2192SOL     OW 6587   3.231   2.812   3.522
 2192SOL    HW1 6588   3.270   2.901   3.542
 2192SOL    HW2 6589   3.241   2.792   3.425
 2193SOL     OW 6590   2.677   2.434   2.187
 2193SOL    HW1 6591   2.684   2.345   2.141
 2193SOL    HW2 6592   2.583   2.468   2.179
 2194SOL     OW 6593   3.519   2.466   3.068
 2194SOL    HW1 6594   3.481   2.397   3.130
 2194SOL    HW2 6595   3.601   2.430   3.024
 2195SOL     OW 6596   2.114   3.426   3.606
 2195SOL    HW1 6597   2.084   3.483   3.682
 2195SOL    HW2 6598   2.107   3.329   3.632
 2196SOL     OW 6599   2.533   2.326   3.131
 2196SOL    HW1 6600   2.499   2.237   3.101
 2196SOL    HW2 6601   2.559   2.380   3.051
 2197SOL     OW 6602   2.792   3.540   3.327
 2197SOL    HW1 6603   2.768   3.522   3.232
 2197SOL    HW2 6604   2.822   3.634   3.337
 2198SOL     OW 6605   2.021   2.999   3.328
 2198SOL    HW1 6606   2.043   2.938   3.404
 2198SOL    HW2 6607   2.031   2.950   3.242
 2199SOL     OW 6608   3.209   2.921   3.096
 2199SOL    HW1 6609   3.233   2.858   3.022
 2199SOL    HW2 6610   3.119   2.961   3.078
 2200SOL     OW 6611   3.164   2.717   2.171
 2200SOL    HW1 6612   3.078   2.686   2.213
 2200SOL    HW2 6613   3.160   2.703   2.072
 2201SOL     OW 6614   3.621   3.609   3.016
 2201SOL    HW1 6615   3.682   3.639   2.943
 2201SOL    HW2 6616   3.583   3.520   2.994
 2202SOL     OW 6617   3.114   3.593   2.990
 2202SOL    HW1 6618   3.198   3.598   2.936
 2202SOL    HW2 6619   3.091   3.497   3.008
 2203SOL     OW 6620   1.945   3.120   2.884
 2203SOL    HW1 6621   1.940   3.119   2.984
 2203SOL    HW2 6622   1.862   3.079   2.846
 2204SOL     OW 6623   2.550   3.524   3.578
 2204SOL    HW1 6624   2.494   3.605   3.587
 2204SOL    HW2 6625   2.602   3.528   3.492
 2205SOL     OW 6626   3.588   1.997   2.385
 2205SOL    HW1 6627   3.661   1.980   2.318
 2205SOL    HW2 6628   3.557   1.910   2.423
 2206SOL     OW 6629   3.250   3.435   2.339
 2206SOL    HW1 6630   3.317   3.447   2.265
 2206SOL    HW2 6631   3.210   3.524   2.362
 2207SOL     OW 6632   1.992   3.656   3.713
 2207SOL    HW1 6633   1.951   3.582   3.766
 2207SOL    HW2 6634   2.056   3.707   3.771
 2208SOL     OW 6635   3.142   2.789   2.534
 2208SOL    HW1 6636   3.202   2.708   2.536
 2208SOL    HW2 6637   3.182   2.858   2.474
 2209SOL     OW 6638   2.692   3.135   3.284
 2209SOL    HW1 6639   2.687   3.168   3.379
 2209SOL    HW2 6640   2.606   3.154   3.238
 2210SOL     OW 6641   2.534   3.478   2.016
 2210SOL    HW1 6642   2.543   3.488   1.917
 2210SOL    HW2 6643   2.494   3.389   2.037
 2211SOL     OW 6644   3.512   3.582   3.256
 2211SOL    HW1 6645   3.565   3.592   3.172
 2211SOL    HW2 6646   3.485   3.672   3.290
 2212SOL     OW 6647   3.703   2.037   2.825
 2212SOL    HW1 6648   3.742   1.952   2.789
 2212SOL    HW2 6649   3.605   2.039   2.806
 2213SOL     OW 6650   2.125   2.188   2.582
 2213SOL    HW1 6651   2.046   2.239   2.548
 2213SOL    HW2 6652   2.116   2.173   2.680
 2214SOL     OW 6653   3.056   3.474   1.893
 2214SOL    HW1 6654   3.062   3.381   1.930
 2214SOL    HW2 6655   2.997   3.474   1.813
 2215SOL     OW 6656   2.684   2.864   3.234
 2215SOL    HW1 6657   2.724   2.863   3.142
 2215SOL    HW2 6658   2.694   2.956   3.274
 2216SOL     OW 6659   2.778   2.772   2.153
 2216SOL    HW1 6660   2.841   2.810   2.085
 2216SOL    HW2 6661   2.818   2.689   2.192
 2217SOL     OW 6662   3.366   3.469   1.906
 2217SOL    HW1 6663   3.274   3.506   1.913
 2217SOL    HW2 6664   3.404   3.489   1.816
 2218SOL     OW 6665   2.234   3.150   3.352
 2218SOL    HW1 6666   2.221   3.243   3.318
 2218SOL    HW2 6667   2.150   3.098   3.339
 2219SOL     OW 6668   3.476   3.154   3.151
 2219SOL    HW1 6669   3.536   3.157   3.231
 2219SOL    HW2 6670   3.401   3.218   3.164
 2220SOL     OW 6671   2.901   2.960   2.558
 2220SOL    HW1 6672   2.831   2.913   2.612
 2220SOL    HW2 6673   2.960   2.892   2.515
 2221SOL     OW 6674   2.876   2.098   2.833
 2221SOL    HW1 6675   2.868   2.062   2.740
 2221SOL    HW2 6676   2.874   2.022   2.898
 2222SOL     OW 6677   2.452   3.349   2.353
 2222SOL    HW1 6678   2.494   3.291   2.283
 2222SOL    HW2 6679   2.408   3.428   2.309
 2223SOL     OW 6680   3.571   2.247   3.243
 2223SOL    HW1 6681   3.644   2.316   3.247
 2223SOL    HW2 6682   3.599   2.172   3.184
 2224SOL     OW 6683   2.117   3.210   2.152
 2224SOL    HW1 6684   2.021   3.211   2.125
 2224SOL    HW2 6685   2.129   3.263   2.236
 2225SOL     OW 6686   1.967   2.875   3.588
 2225SOL    HW1 6687   1.890   2.842   3.642
 2225SOL    HW2 6688   2.052   2.845   3.630
 2226SOL     OW 6689   2.534   2.065   3.351
 2226SOL    HW1 6690   2.624   2.049   3.311
 2226SOL    HW2 6691   2.542   2.070   3.450
 2227SOL     OW 6692   1.937   2.207   1.895
 2227SOL    HW1 6693   1.845   2.179   1.866
 2227SOL    HW2 6694   1.968   2.284   1.839
 2228SOL     OW 6695   3.302   2.718   3.260
 2228SOL    HW1 6696   3.245   2.770   3.197
 2228SOL    HW2 6697   3.398   2.730   3.236
 2229SOL     OW 6698   1.934   2.028   2.180
 2229SOL    HW1 6699   1.917   2.111   2.126
 2229SOL    HW2 6700   2.024   1.991   2.158
 2230SOL     OW 6701   3.045   3.197   1.981
 2230SOL    HW1 6702   2.946   3.186   1.983
 2230SOL    HW2 6703   3.079   3.212   2.074
 2231SOL     OW 6704   2.475   2.704   3.293
 2231SOL    HW1 6705   2.531   2.785   3.276
 2231SOL    HW2 6706   2.534   2.624   3.296
 2232SOL     OW 6707   3.355   3.629   2.821
 2232SOL    HW1 6708   3.388   3.693   2.752
 2232SOL    HW2 6709   3.421   3.623   2.896
 2233SOL     OW 6710   2.578   2.427   3.570
 2233SOL    HW1 6711   2.597   2.492   3.644
 2233SOL    HW2 6712   2.638   2.347   3.579
 2234SOL     OW 6713   3.312   3.082   3.495
 2234SOL    HW1 6714   3.303   3.072   3.594
 2234SOL    HW2 6715   3.408   3.075   3.469
 2235SOL     OW 6716   2.252   3.603   3.422
 2235SOL    HW1 6717   2.161   3.644   3.420
 2235SOL    HW2 6718   2.245   3.509   3.454
 2236SOL     OW 6719   3.536   2.745   3.116
 2236SOL    HW1 6720   3.509   2.656   3.079
 2236SOL    HW2 6721   3.537   2.813   3.043
 2237SOL     OW 6722   3.087   2.187   2.311
 2237SOL    HW1 6723   3.152   2.113   2.300
 2237SOL    HW2 6724   3.107   2.237   2.395
 2238SOL     OW 6725   2.456   2.607   2.514
 2238SOL    HW1 6726   2.506   2.692   2.495
 2238SOL    HW2 6727   2.368   2.609   2.466
 2239SOL     OW 6728   3.639   2.204   3.504
 2239SOL    HW1 6729   3.622   2.235   3.410
 2239SOL    HW2 6730   3.555   2.167   3.542
 2240SOL     OW 6731   3.592   2.796   3.379
 2240SOL    HW1 6732   3.630   2.887   3.394
 2240SOL    HW2 6733   3.584   2.779   3.280
 2241SOL     OW 6734   2.721   3.236   1.878
 2241SOL    HW1 6735   2.675   3.251   1.966
 2241SOL    HW2 6736   2.765   3.321   1.848
 2242SOL     OW 6737   2.523   3.652   2.815
 2242SOL    HW1 6738   2.477   3.740   2.802
 2242SOL    HW2 6739   2.622   3.664   2.808
 2243SOL     OW 6740   2.721   2.818   2.723
 2243SOL    HW1 6741   2.775   2.749   2.771
 2243SOL    HW2 6742   2.689   2.887   2.789
 2244SOL     OW 6743   2.945   2.846   1.949
 2244SOL    HW1 6744   2.922   2.899   1.867
 2244SOL    HW2 6745   3.026   2.790   1.930
 2245SOL     OW 6746   3.723   3.431   2.713
 2245SOL    HW1 6747   3.652   3.419   2.643
 2245SOL    HW2 6748   3.724   3.352   2.773
 2246SOL     OW 6749   2.083   3.176   3.706
 2246SOL    HW1 6750   2.018   3.103   3.685
 2246SOL    HW2 6751   2.087   3.190   3.804
 2247SOL     OW 6752   1.941   3.102   2.515
 2247SOL    HW1 6753   1.940   3.055   2.603
 2247SOL    HW2 6754   2.023   3.074   2.464
 2248SOL     OW 6755   2.534   3.253   3.486
 2248SOL    HW1 6756   2.456   3.203   3.524
 2248SOL    HW2 6757   2.531   3.348   3.517
 2249SOL     OW 6758   3.686   2.054   3.089
 2249SOL    HW1 6759   3.682   1.964   3.133
 2249SOL    HW2 6760   3.689   2.043   2.990
 2250SOL     OW 6761   3.567   3.349   2.966
 2250SOL    HW1 6762   3.474   3.324   2.939
 2250SOL    HW2 6763   3.593   3.299   3.048
 2251SOL     OW 6764   2.179   2.409   3.142
 2251SOL    HW1 6765   2.217   2.350   3.214
 2251SOL    HW2 6766   2.219   2.383   3.054
 2252SOL     OW 6767   2.674   3.448   2.549
 2252SOL    HW1 6768   2.706   3.458   2.455
 2252SOL    HW2 6769   2.595   3.386   2.551
 2253SOL     OW 6770   3.286   2.076   2.974
 2253SOL    HW1 6771   3.338   2.011   3.029
 2253SOL    HW2 6772   3.237   2.139   3.035
 2254SOL     OW 6773   2.863   1.896   3.016
 2254SOL    HW1 6774   2.800   1.824   2.985
 2254SOL    HW2 6775   2.956   1.860   3.016
 2255SOL     OW 6776   2.632   3.192   2.163
 2255SOL    HW1 6777   2.586   3.105   2.180
 2255SOL    HW2 6778   2.723   3.189   2.204
 2256SOL     OW 6779   2.480   3.429   3.146
 2256SOL    HW1 6780   2.475   3.511   3.203
 2256SOL    HW2 6781   2.569   3.426   3.101
 2257SOL     OW 6782   3.214   1.914   2.030
 2257SOL    HW1 6783   3.249   1.873   1.946
 2257SOL    HW2 6784   3.124   1.876   2.050
 2258SOL     OW 6785   3.162   2.315   2.553
 2258SOL    HW1 6786   3.103   2.395   2.557
 2258SOL    HW2 6787   3.177   2.280   2.646
 2259SOL     OW 6788   3.455   2.083   2.744
 2259SOL    HW1 6789   3.371   2.082   2.798
 2259SOL    HW2 6790   3.457   2.166   2.688
 2260SOL     OW 6791   1.901   2.939   2.162
 2260SOL    HW1 6792   2.000   2.928   2.153
 2260SOL    HW2 6793   1.861   2.853   2.194
 2261SOL     OW 6794   2.737   3.508   2.199
 2261SOL    HW1 6795   2.660   3.473   2.145
 2261SOL    HW2 6796   2.705   3.579   2.261
 2262SOL     OW 6797   2.092   2.490   3.837
 2262SOL    HW1 6798   1.999   2.488   3.874
 2262SOL    HW2 6799   2.093   2.451   3.745
 2263SOL     OW 6800   2.087   2.137   4.720
 2263SOL    HW1 6801   2.122   2.120   4.812
 2263SOL    HW2 6802   1.999   2.092   4.708
 2264SOL     OW 6803   1.881   2.230   4.371
 2264SOL    HW1 6804   1.799   2.273   4.410
 2264SOL    HW2 6805   1.853   2.157   4.308
 2265SOL     OW 6806   3.417   3.373   4.427
 2265SOL    HW1 6807   3.360   3.357   4.508
 2265SOL    HW2 6808   3.358   3.383   4.347
 2266SOL     OW 6809   2.997   2.565   4.441
 2266SOL    HW1 6810   3.054   2.643   4.416
 2266SOL    HW2 6811   2.937   2.591   4.517
 2267SOL     OW 6812   3.617   2.469   3.955
 2267SOL    HW1 6813   3.605   2.456   3.856
 2267SOL    HW2 6814   3.587   2.388   4.004
 2268SOL     OW 6815   2.547   2.874   4.389
 2268SOL    HW1 6816   2.616   2.858   4.459
 2268SOL    HW2 6817   2.474   2.931   4.427
 2269SOL     OW 6818   3.465   2.309   4.461
 2269SOL    HW1 6819   3.391   2.355   4.411
 2269SOL    HW2 6820   3.516   2.377   4.514
 2270SOL     OW 6821   2.093   3.575   4.207
 2270SOL    HW1 6822   2.127   3.652   4.261
 2270SOL    HW2 6823   2.137   3.575   4.117
 2271SOL     OW 6824   2.092   3.296   4.262
 2271SOL    HW1 6825   2.066   3.392   4.262
 2271SOL    HW2 6826   2.021   3.242   4.307
 2272SOL     OW 6827   2.102   2.953   4.610
 2272SOL    HW1 6828   2.116   2.869   4.662
 2272SOL    HW2 6829   2.047   3.017   4.665
 2273SOL     OW 6830   2.468   2.826   3.847
 2273SOL    HW1 6831   2.475   2.910   3.793
 2273SOL    HW2 6832   2.514   2.839   3.935
 2274SOL     OW 6833   1.984   2.505   4.287
 2274SOL    HW1 6834   1.939   2.417   4.304
 2274SOL    HW2 6835   1.983   2.559   4.371
 2275SOL     OW 6836   3.704   3.629   4.083
 2275SOL    HW1 6837   3.758   3.600   4.163
 2275SOL    HW2 6838   3.734   3.719   4.054
 2276SOL     OW 6839   1.889   3.458   3.841
 2276SOL    HW1 6840   1.870   3.362   3.862
 2276SOL    HW2 6841   1.856   3.516   3.916
 2277SOL     OW 6842   3.551   2.784   4.336
 2277SOL    HW1 6843   3.646   2.755   4.344
 2277SOL    HW2 6844   3.543   2.849   4.261
 2278SOL     OW 6845   3.503   2.970   4.156
 2278SOL    HW1 6846   3.589   2.972   4.104
 2278SOL    HW2 6847   3.517   3.017   4.244
 2279SOL     OW 6848   2.475   3.227   4.450
 2279SOL    HW1 6849   2.426   3.140   4.459
 2279SOL    HW2 6850   2.452   3.270   4.363
 2280SOL     OW 6851   2.671   1.866   4.226
 2280SOL    HW1 6852   2.711   1.957   4.217
 2280SOL    HW2 6853   2.571   1.874   4.232
 2281SOL     OW 6854   3.387   2.861   3.914
 2281SOL    HW1 6855   3.324   2.785   3.927
 2281SOL    HW2 6856   3.435   2.879   4.000
 2282SOL     OW 6857   3.328   3.279   4.677
 2282SOL    HW1 6858   3.269   3.285   4.757
 2282SOL    HW2 6859   3.313   3.191   4.631
 2283SOL     OW 6860   3.529   3.576   4.296
 2283SOL    HW1 6861   3.488   3.553   4.208
 2283SOL    HW2 6862   3.511   3.502   4.361
 2284SOL     OW 6863   2.460   2.591   3.994
 2284SOL    HW1 6864   2.484   2.660   3.926
 2284SOL    HW2 6865   2.382   2.624   4.048
 2285SOL     OW 6866   3.143   2.207   4.668
 2285SOL    HW1 6867   3.057   2.157   4.655
 2285SOL    HW2 6868   3.205   2.153   4.724
 2286SOL     OW 6869   3.438   3.524   4.031
 2286SOL    HW1 6870   3.527   3.570   4.034
 2286SOL    HW2 6871   3.417   3.500   3.936
 2287SOL     OW 6872   2.903   2.563   4.153
 2287SOL    HW1 6873   2.929   2.559   4.249
 2287SOL    HW2 6874   2.818   2.512   4.139
 2288SOL     OW 6875   1.938   2.673   4.513
 2288SOL    HW1 6876   2.037   2.661   4.522
 2288SOL    HW2 6877   1.914   2.768   4.534
 2289SOL     OW 6878   2.727   2.210   3.919
 2289SOL    HW1 6879   2.786   2.273   3.870
 2289SOL    HW2 6880   2.746   2.116   3.890
 2290SOL     OW 6881   3.224   3.006   4.269
 2290SOL    HW1 6882   3.307   2.977   4.221
 2290SOL    HW2 6883   3.175   3.073   4.213
 2291SOL     OW 6884   2.412   2.058   4.609
 2291SOL    HW1 6885   2.407   2.053   4.709
 2291SOL    HW2 6886   2.414   2.154   4.580
 2292SOL     OW 6887   2.870   3.318   4.201
 2292SOL    HW1 6888   2.824   3.390   4.149
 2292SOL    HW2 6889   2.866   3.338   4.299
 2293SOL     OW 6890   2.213   3.663   4.577
 2293SOL    HW1 6891   2.263   3.577   4.583
 2293SOL    HW2 6892   2.278   3.740   4.574
 2294SOL     OW 6893   3.657   2.928   4.597
 2294SOL    HW1 6894   3.595   2.913   4.521
 2294SOL    HW2 6895   3.605   2.939   4.682
 2295SOL     OW 6896   2.183   2.805   3.966
 2295SOL    HW1 6897   2.265   2.844   3.924
 2295SOL    HW2 6898   2.156   2.723   3.917
 2296SOL     OW 6899   3.320   2.597   4.452
 2296SOL    HW1 6900   3.315   2.532   4.527
 2296SOL    HW2 6901   3.400   2.656   4.465
 2297SOL     OW 6902   2.973   3.638   3.961
 2297SOL    HW1 6903   2.913   3.576   4.011
 2297SOL    HW2 6904   3.004   3.594   3.876
 2298SOL     OW 6905   3.494   3.239   3.805
 2298SOL    HW1 6906   3.462   3.333   3.795
 2298SOL    HW2 6907   3.418   3.176   3.793
 2299SOL     OW 6908   2.326   3.605   4.047
 2299SOL    HW1 6909   2.359   3.644   4.133
 2299SOL    HW2 6910   2.402   3.598   3.982
 2300SOL     OW 6911   3.262   1.969   4.150
 2300SOL    HW1 6912   3.238   1.932   4.060
 2300SOL    HW2 6913   3.361   1.985   4.154
 2301SOL     OW 6914   2.244   2.562   4.204
 2301SOL    HW1 6915   2.289   2.472   4.201
 2301SOL    HW2 6916   2.150   2.551   4.237
 2302SOL     OW 6917   2.476   1.984   3.841
 2302SOL    HW1 6918   2.574   1.962   3.848
 2302SOL    HW2 6919   2.445   1.967   3.748
 2303SOL     OW 6920   2.401   1.926   4.236
 2303SOL    HW1 6921   2.320   1.927   4.294
 2303SOL    HW2 6922   2.404   2.009   4.181
 2304SOL     OW 6923   3.296   3.050   3.765
 2304SOL    HW1 6924   3.328   2.974   3.822
 2304SOL    HW2 6925   3.204   3.077   3.795
 2305SOL     OW 6926   2.159   1.897   3.895
 2305SOL    HW1 6927   2.208   1.981   3.874
 2305SOL    HW2 6928   2.221   1.832   3.940
 2306SOL     OW 6929   2.797   2.098   4.204
 2306SOL    HW1 6930   2.749   2.139   4.126
 2306SOL    HW2 6931   2.896   2.096   4.185
 2307SOL     OW 6932   2.321   3.014   4.465
 2307SOL    HW1 6933   2.250   2.987   4.530
 2307SOL    HW2 6934   2.295   2.986   4.372
 2308SOL     OW 6935   3.133   3.659   4.315
 2308SOL    HW1 6936   3.177   3.723   4.251
 2308SOL    HW2 6937   3.083   3.711   4.385
 2309SOL     OW 6938   2.894   2.411   3.740
 2309SOL    HW1 6939   2.853   2.493   3.701
 2309SOL    HW2 6940   2.958   2.437   3.813
 2310SOL     OW 6941   2.728   2.316   4.366
 2310SOL    HW1 6942   2.696   2.388   4.304
 2310SOL    HW2 6943   2.752   2.235   4.313
 2311SOL     OW 6944   2.879   1.901   4.477
 2311SOL    HW1 6945   2.807   1.906   4.408
 2311SOL    HW2 6946   2.855   1.832   4.546
 2312SOL     OW 6947   3.719   2.695   4.101
 2312SOL    HW1 6948   3.761   2.631   4.165
 2312SOL    HW2 6949   3.681   2.644   4.023
 2313SOL     OW 6950   2.350   3.247   3.898
 2313SOL    HW1 6951   2.263   3.232   3.945
 2313SOL    HW2 6952   2.333   3.273   3.803
 2314SOL     OW 6953   3.526   3.142   4.381
 2314SOL    HW1 6954   3.625   3.150   4.395
 2314SOL    HW2 6955   3.481   3.226   4.412
 2315SOL     OW 6956   3.252   2.437   3.802
 2315SOL    HW1 6957   3.198   2.416   3.883
 2315SOL    HW2 6958   3.343   2.396   3.811
 2316SOL     OW 6959   2.389   2.118   4.052
 2316SOL    HW1 6960   2.416   2.059   3.977
 2316SOL    HW2 6961   2.389   2.213   4.021
 2317SOL     OW 6962   2.567   2.912   4.092
 2317SOL    HW1 6963   2.553   2.919   4.191
 2317SOL    HW2 6964   2.651   2.861   4.074
 2318SOL     OW 6965   2.229   2.962   4.225
 2318SOL    HW1 6966   2.222   3.045   4.169
 2318SOL    HW2 6967   2.233   2.882   4.165
 2319SOL     OW 6968   2.428   2.399   4.589
 2319SOL    HW1 6969   2.440   2.465   4.515
 2319SOL    HW2 6970   2.474   2.433   4.672
 2320SOL     OW 6971   3.114   3.210   4.112
 2320SOL    HW1 6972   3.164   3.287   4.152
 2320SOL    HW2 6973   3.019   3.212   4.144
 2321SOL     OW 6974   3.444   2.501   4.196
 2321SOL    HW1 6975   3.413   2.562   4.269
 2321SOL    HW2 6976   3.494   2.553   4.127
 2322SOL     OW 6977   3.071   2.387   3.999
 2322SOL    HW1 6978   3.084   2.303   4.053
 2322SOL    HW2 6979   3.042   2.461   4.059
 2323SOL     OW 6980   2.594   2.496   4.788
 2323SOL    HW1 6981   2.653   2.470   4.712
 2323SOL    HW2 6982   2.566   2.592   4.777
 2324SOL     OW 6983   2.169   1.925   4.342
 2324SOL    HW1 6984   2.158   2.019   4.375
 2324SOL    HW2 6985   2.164   1.862   4.419
 2325SOL     OW 6986   3.484   2.229   4.098
 2325SOL    HW1 6987   3.486   2.153   4.162
 2325SOL    HW2 6988   3.436   2.306   4.138
 2326SOL     OW 6989   3.402   2.136   3.849
 2326SOL    HW1 6990   3.341   2.061   3.872
 2326SOL    HW2 6991   3.424   2.188   3.932
 2327SOL     OW 6992   3.165   2.700   3.766
 2327SOL    HW1 6993   3.199   2.607   3.781
 2327SOL    HW2 6994   3.183   2.727   3.671
 2328SOL     OW 6995   2.930   3.195   4.573
 2328SOL    HW1 6996   2.937   3.111   4.518
 2328SOL    HW2 6997   2.992   3.264   4.537
 2329SOL     OW 6998   1.870   3.188   3.924
 2329SOL    HW1 6999   1.777   3.209   3.893
 2329SOL    HW2 7000   1.880   3.089   3.937
 2330SOL     OW 7001   1.950   3.663   4.651
 2330SOL    HW1 7002   1.908   3.577   4.624
 2330SOL    HW2 7003   2.044   3.666   4.617
 2331SOL     OW 7004   2.366   3.430   4.634
 2331SOL    HW1 7005   2.432   3.504   4.643
 2331SOL    HW2 7006   2.410   3.351   4.592
 2332SOL     OW 7007   2.677   2.434   4.049
 2332SOL    HW1 7008   2.684   2.345   4.003
 2332SOL    HW2 7009   2.583   2.468   4.041
 2333SOL     OW 7010   2.335   2.362   3.915
 2333SOL    HW1 7011   2.396   2.442   3.919
 2333SOL    HW2 7012   2.240   2.393   3.922
 2334SOL     OW 7013   3.164   2.717   4.033
 2334SOL    HW1 7014   3.078   2.686   4.075
 2334SOL    HW2 7015   3.160   2.703   3.934
 2335SOL     OW 7016   3.588   1.997   4.247
 2335SOL    HW1 7017   3.661   1.980   4.180
 2335SOL    HW2 7018   3.557   1.910   4.285
 2336SOL     OW 7019   3.250   3.435   4.201
 2336SOL    HW1 7020   3.317   3.447   4.127
 2336SOL    HW2 7021   3.210   3.524   4.224
 2337SOL     OW 7022   3.142   2.789   4.396
 2337SOL    HW1 7023   3.202   2.708   4.398
 2337SOL    HW2 7024   3.182   2.858   4.336
 2338SOL     OW 7025   2.534   3.478   3.878
 2338SOL    HW1 7026   2.543   3.488   3.779
 2338SOL    HW2 7027   2.494   3.389   3.899
 2339SOL     OW 7028   3.703   2.037   4.687
 2339SOL    HW1 7029   3.742   1.952   4.651
 2339SOL    HW2 7030   3.605   2.039   4.668
 2340SOL     OW 7031   2.125   2.188   4.444
 2340SOL    HW1 7032   2.046   2.239   4.410
 2340SOL    HW2 7033   2.116   2.173   4.542
 2341SOL     OW 7034   3.056   3.474   3.755
 2341SOL    HW1 7035   3.062   3.381   3.792
 2341SOL    HW2 7036   2.997   3.474   3.675
 2342SOL     OW 7037   2.778   2.772   4.015
 2342SOL    HW1 7038   2.841   2.810   3.947
 2342SOL    HW2 7039   2.818   2.689   4.054
 2343SOL     OW 7040   3.366   3.469   3.768
 2343SOL    HW1 7041   3.274   3.506   3.775
 2343SOL    HW2 7042   3.404   3.489   3.678
 2344SOL     OW 7043   2.901   2.960   4.420
 2344SOL    HW1 7044   2.831   2.913   4.474
 2344SOL    HW2 7045   2.960   2.892   4.377
 2345SOL     OW 7046   2.452   3.349   4.215
 2345SOL    HW1 7047   2.494   3.291   4.145
 2345SOL    HW2 7048   2.408   3.428   4.171
 2346SOL     OW 7049   2.117   3.210   4.014
 2346SOL    HW1 7050   2.021   3.211   3.987
 2346SOL    HW2 7051   2.129   3.263   4.098
 2347SOL     OW 7052   1.937   2.207   3.757
 2347SOL    HW1 7053   1.845   2.179   3.728
 2347SOL    HW2 7054   1.968   2.284   3.701
 2348SOL     OW 7055   1.934   2.028   4.042
 2348SOL    HW1 7056   1.917   2.111   3.988
 2348SOL    HW2 7057   2.024   1.991   4.020
 2349SOL     OW 7058   3.045   3.197   3.843
 2349SOL    HW1 7059   2.946   3.186   3.845
 2349SOL    HW2 7060   3.079   3.212   3.936
 2350SOL     OW 7061   3.087   2.187   4.173
 2350SOL    HW1 7062   3.152   2.113   4.162
 2350SOL    HW2 7063   3.107   2.237   4.257
 2351SOL     OW 7064   2.456   2.607   4.376
 2351SOL    HW1 7065   2.506   2.692   4.357
 2351SOL    HW2 7066   2.368   2.609   4.328
 2352SOL     OW 7067   2.721   3.236   3.740
 2352SOL    HW1 7068   2.675   3.251   3.828
 2352SOL    HW2 7069   2.765   3.321   3.710
 2353SOL     OW 7070   2.523   3.652   4.677
 2353SOL    HW1 7071   2.477   3.740   4.664
 2353SOL    HW2 7072   2.622   3.664   4.670
 2354SOL     OW 7073   2.721   2.818   4.585
 2354SOL    HW1 7074   2.775   2.749   4.633
 2354SOL    HW2 7075   2.689   2.887   4.651
 2355SOL     OW 7076   2.945   2.846   3.811
 2355SOL    HW1 7077   2.922   2.899   3.729
 2355SOL    HW2 7078   3.026   2.790   3.792
 2356SOL     OW 7079   3.723   3.431   4.575
 2356SOL    HW1 7080   3.652   3.419   4.505
 2356SOL    HW2 7081   3.724   3.352   4.635
 2357SOL     OW 7082   1.941   3.102   4.377
 2357SOL    HW1 7083   1.940   3.055   4.465
 2357SOL    HW2 7084   2.023   3.074   4.326
 2358SOL     OW 7085   2.290   2.286   4.244
 2358SOL    HW1 7086   2.320   2.214   4.182
 2358SOL    HW2 7087   2.251   2.246   4.327
 2359SOL     OW 7088   2.674   3.448   4.411
 2359SOL    HW1 7089   2.706   3.458   4.317
 2359SOL    HW2 7090   2.595   3.386   4.413
 2360SOL     OW 7091   2.632   3.192   4.025
 2360SOL    HW1 7092   2.586   3.105   4.042
 2360SOL    HW2 7093   2.723   3.189   4.066
 2361SOL     OW 7094   3.214   1.914   3.892
 2361SOL    HW1 7095   3.249   1.873   3.808
 2361SOL    HW2 7096   3.124   1.876   3.912
 2362SOL     OW 7097   3.162   2.315   4.415
 2362SOL    HW1 7098   3.103   2.395   4.419
 2362SOL    HW2 7099   3.177   2.280   4.508
 2363SOL     OW 7100   3.455   2.083   4.606
 2363SOL    HW1 7101   3.371   2.082   4.660
 2363SOL    HW2 7102   3.457   2.166   4.550
 2364SOL     OW 7103   1.901   2.939   4.024
 2364SOL    HW1 7104   2.000   2.928   4.015
 2364SOL    HW2 7105   1.861   2.853   4.056
 2365SOL     OW 7106   2.737   3.508   4.061
 2365SOL    HW1 7107   2.660   3.473   4.007
 2365SOL    HW2 7108   2.705   3.579   4.123
 2366SOL     OW 7109   2.092   4.352   0.113
 2366SOL    HW1 7110   1.999   4.350   0.150
 2366SOL    HW2 7111   2.093   4.313   0.021
 2367SOL     OW 7112   2.087   3.999   0.996
 2367SOL    HW1 7113   2.122   3.982   1.088
 2367SOL    HW2 7114   1.999   3.954   0.984
 2368SOL     OW 7115   1.881   4.092   0.647
 2368SOL    HW1 7116   1.799   4.135   0.686
 2368SOL    HW2 7117   1.853   4.019   0.584
 2369SOL     OW 7118   2.997   4.427   0.717
 2369SOL    HW1 7119   3.054   4.505   0.692
 2369SOL    HW2 7120   2.937   4.453   0.793
 2370SOL     OW 7121   3.617   4.331   0.231
 2370SOL    HW1 7122   3.605   4.318   0.132
 2370SOL    HW2 7123   3.587   4.250   0.280
 2371SOL     OW 7124   2.712   4.522   1.823
 2371SOL    HW1 7125   2.708   4.598   1.888
 2371SOL    HW2 7126   2.734   4.558   1.732
 2372SOL     OW 7127   2.547   4.736   0.665
 2372SOL    HW1 7128   2.616   4.720   0.735
 2372SOL    HW2 7129   2.474   4.793   0.703
 2373SOL     OW 7130   2.300   4.116   1.499
 2373SOL    HW1 7131   2.382   4.060   1.508
 2373SOL    HW2 7132   2.219   4.058   1.503
 2374SOL     OW 7133   3.465   4.171   0.737
 2374SOL    HW1 7134   3.391   4.217   0.687
 2374SOL    HW2 7135   3.516   4.239   0.790
 2375SOL     OW 7136   3.456   3.838   1.480
 2375SOL    HW1 7137   3.438   3.905   1.408
 2375SOL    HW2 7138   3.453   3.884   1.569
 2376SOL     OW 7139   1.984   4.367   0.563
 2376SOL    HW1 7140   1.939   4.279   0.580
 2376SOL    HW2 7141   1.983   4.421   0.647
 2377SOL     OW 7142   1.975   4.461   1.597
 2377SOL    HW1 7143   2.063   4.448   1.642
 2377SOL    HW2 7144   1.962   4.558   1.575
 2378SOL     OW 7145   2.671   3.728   0.502
 2378SOL    HW1 7146   2.711   3.819   0.493
 2378SOL    HW2 7147   2.571   3.736   0.508
 2379SOL     OW 7148   2.179   3.975   1.801
 2379SOL    HW1 7149   2.250   4.046   1.807
 2379SOL    HW2 7150   2.091   4.014   1.829
 2380SOL     OW 7151   2.460   4.453   0.270
 2380SOL    HW1 7152   2.484   4.522   0.202
 2380SOL    HW2 7153   2.382   4.486   0.324
 2381SOL     OW 7154   3.143   4.069   0.944
 2381SOL    HW1 7155   3.057   4.019   0.931
 2381SOL    HW2 7156   3.205   4.015   1.000
 2382SOL     OW 7157   2.669   4.329   1.465
 2382SOL    HW1 7158   2.622   4.326   1.554
 2382SOL    HW2 7159   2.618   4.274   1.399
 2383SOL     OW 7160   3.256   4.193   1.674
 2383SOL    HW1 7161   3.236   4.236   1.762
 2383SOL    HW2 7162   3.334   4.131   1.683
 2384SOL     OW 7163   2.853   4.134   1.242
 2384SOL    HW1 7164   2.776   4.168   1.296
 2384SOL    HW2 7165   2.819   4.083   1.163
 2385SOL     OW 7166   2.903   4.425   0.429
 2385SOL    HW1 7167   2.929   4.421   0.525
 2385SOL    HW2 7168   2.818   4.374   0.415
 2386SOL     OW 7169   1.938   4.535   0.789
 2386SOL    HW1 7170   2.037   4.523   0.798
 2386SOL    HW2 7171   1.914   4.630   0.810
 2387SOL     OW 7172   2.727   4.072   0.195
 2387SOL    HW1 7173   2.786   4.135   0.146
 2387SOL    HW2 7174   2.746   3.978   0.166
 2388SOL     OW 7175   3.581   4.309   1.831
 2388SOL    HW1 7176   3.555   4.398   1.795
 2388SOL    HW2 7177   3.579   4.241   1.758
 2389SOL     OW 7178   2.412   3.920   0.885
 2389SOL    HW1 7179   2.407   3.915   0.985
 2389SOL    HW2 7180   2.414   4.016   0.856
 2390SOL     OW 7181   3.320   4.459   0.728
 2390SOL    HW1 7182   3.315   4.394   0.803
 2390SOL    HW2 7183   3.400   4.518   0.741
 2391SOL     OW 7184   2.064   4.009   1.498
 2391SOL    HW1 7185   1.984   4.069   1.485
 2391SOL    HW2 7186   2.054   3.960   1.584
 2392SOL     OW 7187   3.262   3.831   0.426
 2392SOL    HW1 7188   3.238   3.794   0.336
 2392SOL    HW2 7189   3.361   3.847   0.430
 2393SOL     OW 7190   2.244   4.424   0.480
 2393SOL    HW1 7191   2.289   4.334   0.477
 2393SOL    HW2 7192   2.150   4.413   0.513
 2394SOL     OW 7193   3.409   3.946   1.729
 2394SOL    HW1 7194   3.404   3.983   1.821
 2394SOL    HW2 7195   3.337   3.877   1.717
 2395SOL     OW 7196   2.643   3.988   1.749
 2395SOL    HW1 7197   2.710   3.927   1.792
 2395SOL    HW2 7198   2.570   4.007   1.814
 2396SOL     OW 7199   3.213   4.314   1.433
 2396SOL    HW1 7200   3.241   4.271   1.518
 2396SOL    HW2 7201   3.238   4.410   1.434
 2397SOL     OW 7202   2.784   4.227   0.899
 2397SOL    HW1 7203   2.759   4.218   0.803
 2397SOL    HW2 7204   2.832   4.145   0.930
 2398SOL     OW 7205   2.401   3.788   0.512
 2398SOL    HW1 7206   2.320   3.789   0.570
 2398SOL    HW2 7207   2.404   3.871   0.457
 2399SOL     OW 7208   2.159   3.759   0.171
 2399SOL    HW1 7209   2.208   3.843   0.150
 2399SOL    HW2 7210   2.221   3.694   0.216
 2400SOL     OW 7211   2.797   3.960   0.480
 2400SOL    HW1 7212   2.749   4.001   0.402
 2400SOL    HW2 7213   2.896   3.958   0.461
 2401SOL     OW 7214   2.938   4.407   1.464
 2401SOL    HW1 7215   2.858   4.346   1.467
 2401SOL    HW2 7216   3.019   4.354   1.440
 2402SOL     OW 7217   2.894   4.273   0.016
 2402SOL    HW1 7218   2.853   4.355  -0.023
 2402SOL    HW2 7219   2.958   4.299   0.089
 2403SOL     OW 7220   1.940   4.280   1.386
 2403SOL    HW1 7221   2.032   4.279   1.345
 2403SOL    HW2 7222   1.934   4.354   1.453
 2404SOL     OW 7223   2.423   3.946   1.147
 2404SOL    HW1 7224   2.461   3.862   1.184
 2404SOL    HW2 7225   2.335   3.965   1.191
 2405SOL     OW 7226   2.728   4.178   0.642
 2405SOL    HW1 7227   2.696   4.250   0.580
 2405SOL    HW2 7228   2.752   4.097   0.589
 2406SOL     OW 7229   2.879   3.763   0.753
 2406SOL    HW1 7230   2.807   3.768   0.684
 2406SOL    HW2 7231   2.855   3.694   0.822
 2407SOL     OW 7232   3.328   4.314   0.992
 2407SOL    HW1 7233   3.298   4.219   0.999
 2407SOL    HW2 7234   3.401   4.330   1.058
 2408SOL     OW 7235   3.719   4.557   0.377
 2408SOL    HW1 7236   3.761   4.493   0.441
 2408SOL    HW2 7237   3.681   4.506   0.299
 2409SOL     OW 7238   3.252   4.299   0.078
 2409SOL    HW1 7239   3.198   4.278   0.159
 2409SOL    HW2 7240   3.343   4.258   0.087
 2410SOL     OW 7241   2.389   3.980   0.328
 2410SOL    HW1 7242   2.416   3.921   0.253
 2410SOL    HW2 7243   2.389   4.075   0.297
 2411SOL     OW 7244   2.777   3.813   1.402
 2411SOL    HW1 7245   2.802   3.793   1.307
 2411SOL    HW2 7246   2.849   3.869   1.444
 2412SOL     OW 7247   2.272   4.537   1.251
 2412SOL    HW1 7248   2.358   4.549   1.301
 2412SOL    HW2 7249   2.230   4.450   1.278
 2413SOL     OW 7250   3.136   4.110   1.262
 2413SOL    HW1 7251   3.157   4.184   1.326
 2413SOL    HW2 7252   3.047   4.127   1.219
 2414SOL     OW 7253   2.428   4.261   0.865
 2414SOL    HW1 7254   2.440   4.327   0.791
 2414SOL    HW2 7255   2.474   4.295   0.948
 2415SOL     OW 7256   3.444   4.363   0.472
 2415SOL    HW1 7257   3.413   4.424   0.545
 2415SOL    HW2 7258   3.494   4.415   0.403
 2416SOL     OW 7259   2.264   4.475   1.598
 2416SOL    HW1 7260   2.332   4.530   1.551
 2416SOL    HW2 7261   2.304   4.387   1.625
 2417SOL     OW 7262   3.449   4.503   1.670
 2417SOL    HW1 7263   3.357   4.541   1.665
 2417SOL    HW2 7264   3.509   4.550   1.605
 2418SOL     OW 7265   2.875   3.829   1.770
 2418SOL    HW1 7266   2.881   3.914   1.718
 2418SOL    HW2 7267   2.907   3.753   1.713
 2419SOL     OW 7268   2.366   3.774   1.740
 2419SOL    HW1 7269   2.324   3.717   1.670
 2419SOL    HW2 7270   2.300   3.843   1.772
 2420SOL     OW 7271   2.435   4.594   1.029
 2420SOL    HW1 7272   2.479   4.683   1.020
 2420SOL    HW2 7273   2.372   4.594   1.106
 2421SOL     OW 7274   3.222   4.586   1.045
 2421SOL    HW1 7275   3.147   4.586   0.979
 2421SOL    HW2 7276   3.259   4.494   1.054
 2422SOL     OW 7277   3.071   4.249   0.275
 2422SOL    HW1 7278   3.084   4.165   0.329
 2422SOL    HW2 7279   3.042   4.323   0.335
 2423SOL     OW 7280   2.169   3.937   1.231
 2423SOL    HW1 7281   2.146   3.974   1.321
 2423SOL    HW2 7282   2.139   3.842   1.225
 2424SOL     OW 7283   2.594   4.358   1.064
 2424SOL    HW1 7284   2.653   4.332   0.988
 2424SOL    HW2 7285   2.566   4.454   1.053
 2425SOL     OW 7286   3.590   4.659   1.854
 2425SOL    HW1 7287   3.544   4.652   1.765
 2425SOL    HW2 7288   3.528   4.703   1.920
 2426SOL     OW 7289   2.169   3.787   0.618
 2426SOL    HW1 7290   2.158   3.881   0.651
 2426SOL    HW2 7291   2.164   3.724   0.695
 2427SOL     OW 7292   3.484   4.091   0.374
 2427SOL    HW1 7293   3.486   4.015   0.438
 2427SOL    HW2 7294   3.436   4.168   0.414
 2428SOL     OW 7295   2.885   4.490   0.966
 2428SOL    HW1 7296   2.900   4.511   1.062
 2428SOL    HW2 7297   2.855   4.395   0.957
 2429SOL     OW 7298   3.402   3.998   0.125
 2429SOL    HW1 7299   3.341   3.923   0.148
 2429SOL    HW2 7300   3.424   4.050   0.208
 2430SOL     OW 7301   3.165   4.562   0.042
 2430SOL    HW1 7302   3.199   4.469   0.057
 2430SOL    HW2 7303   3.183   4.589  -0.053
 2431SOL     OW 7304   2.181   4.534   0.949
 2431SOL    HW1 7305   2.274   4.570   0.954
 2431SOL    HW2 7306   2.175   4.449   1.001
 2432SOL     OW 7307   2.201   4.233   1.006
 2432SOL    HW1 7308   2.149   4.150   0.989
 2432SOL    HW2 7309   2.278   4.238   0.942
 2433SOL     OW 7310   3.000   4.104   1.678
 2433SOL    HW1 7311   2.955   4.167   1.742
 2433SOL    HW2 7312   3.093   4.135   1.661
 2434SOL     OW 7313   3.022   3.931   1.477
 2434SOL    HW1 7314   3.022   3.995   1.554
 2434SOL    HW2 7315   3.050   3.979   1.394
 2435SOL     OW 7316   2.864   4.520   1.238
 2435SOL    HW1 7317   2.905   4.488   1.324
 2435SOL    HW2 7318   2.768   4.493   1.235
 2436SOL     OW 7319   1.902   4.268   1.114
 2436SOL    HW1 7320   1.987   4.235   1.073
 2436SOL    HW2 7321   1.915   4.283   1.212
 2437SOL     OW 7322   2.051   4.244   1.722
 2437SOL    HW1 7323   2.110   4.204   1.652
 2437SOL    HW2 7324   1.993   4.315   1.681
 2438SOL     OW 7325   2.677   4.296   0.325
 2438SOL    HW1 7326   2.684   4.207   0.279
 2438SOL    HW2 7327   2.583   4.330   0.317
 2439SOL     OW 7328   3.519   4.328   1.206
 2439SOL    HW1 7329   3.481   4.259   1.268
 2439SOL    HW2 7330   3.601   4.292   1.162
 2440SOL     OW 7331   2.533   4.188   1.269
 2440SOL    HW1 7332   2.499   4.099   1.239
 2440SOL    HW2 7333   2.559   4.242   1.189
 2441SOL     OW 7334   2.335   4.224   0.191
 2441SOL    HW1 7335   2.396   4.304   0.195
 2441SOL    HW2 7336   2.240   4.255   0.198
 2442SOL     OW 7337   2.765   3.810   0.133
 2442SOL    HW1 7338   2.816   3.811   0.047
 2442SOL    HW2 7339   2.821   3.768   0.204
 2443SOL     OW 7340   3.588   3.859   0.523
 2443SOL    HW1 7341   3.661   3.842   0.456
 2443SOL    HW2 7342   3.557   3.772   0.561
 2444SOL     OW 7343   3.142   4.651   0.672
 2444SOL    HW1 7344   3.202   4.570   0.674
 2444SOL    HW2 7345   3.182   4.720   0.612
 2445SOL     OW 7346   3.703   3.899   0.963
 2445SOL    HW1 7347   3.742   3.814   0.927
 2445SOL    HW2 7348   3.605   3.901   0.944
 2446SOL     OW 7349   2.125   4.050   0.720
 2446SOL    HW1 7350   2.046   4.101   0.686
 2446SOL    HW2 7351   2.116   4.035   0.818
 2447SOL     OW 7352   2.876   3.960   0.971
 2447SOL    HW1 7353   2.868   3.924   0.878
 2447SOL    HW2 7354   2.874   3.884   1.036
 2448SOL     OW 7355   3.571   4.109   1.381
 2448SOL    HW1 7356   3.644   4.178   1.385
 2448SOL    HW2 7357   3.599   4.034   1.322
 2449SOL     OW 7358   1.967   4.737   1.726
 2449SOL    HW1 7359   1.890   4.704   1.780
 2449SOL    HW2 7360   2.052   4.707   1.768
 2450SOL     OW 7361   2.534   3.927   1.489
 2450SOL    HW1 7362   2.624   3.911   1.449
 2450SOL    HW2 7363   2.542   3.932   1.588
 2451SOL     OW 7364   3.302   4.580   1.398
 2451SOL    HW1 7365   3.245   4.632   1.335
 2451SOL    HW2 7366   3.398   4.592   1.374
 2452SOL     OW 7367   1.934   3.890   0.318
 2452SOL    HW1 7368   1.917   3.973   0.264
 2452SOL    HW2 7369   2.024   3.853   0.296
 2453SOL     OW 7370   2.475   4.566   1.431
 2453SOL    HW1 7371   2.531   4.647   1.414
 2453SOL    HW2 7372   2.534   4.486   1.434
 2454SOL     OW 7373   2.578   4.289   1.708
 2454SOL    HW1 7374   2.597   4.354   1.782
 2454SOL    HW2 7375   2.638   4.209   1.717
 2455SOL     OW 7376   3.536   4.607   1.254
 2455SOL    HW1 7377   3.509   4.518   1.217
 2455SOL    HW2 7378   3.537   4.675   1.181
 2456SOL     OW 7379   3.087   4.049   0.449
 2456SOL    HW1 7380   3.152   3.975   0.438
 2456SOL    HW2 7381   3.107   4.099   0.533
 2457SOL     OW 7382   2.456   4.469   0.652
 2457SOL    HW1 7383   2.506   4.554   0.633
 2457SOL    HW2 7384   2.368   4.471   0.604
 2458SOL     OW 7385   3.639   4.066   1.642
 2458SOL    HW1 7386   3.622   4.097   1.548
 2458SOL    HW2 7387   3.555   4.029   1.680
 2459SOL     OW 7388   3.592   4.658   1.517
 2459SOL    HW1 7389   3.630   4.749   1.532
 2459SOL    HW2 7390   3.584   4.641   1.418
 2460SOL     OW 7391   3.686   3.916   1.227
 2460SOL    HW1 7392   3.682   3.826   1.271
 2460SOL    HW2 7393   3.689   3.905   1.128
 2461SOL     OW 7394   2.290   4.148   0.520
 2461SOL    HW1 7395   2.320   4.076   0.458
 2461SOL    HW2 7396   2.251   4.108   0.603
 2462SOL     OW 7397   2.179   4.271   1.280
 2462SOL    HW1 7398   2.217   4.212   1.352
 2462SOL    HW2 7399   2.219   4.245   1.192
 2463SOL     OW 7400   3.286   3.938   1.112
 2463SOL    HW1 7401   3.338   3.873   1.167
 2463SOL    HW2 7402   3.237   4.001   1.173
 2464SOL     OW 7403   2.863   3.758   1.154
 2464SOL    HW1 7404   2.800   3.686   1.123
 2464SOL    HW2 7405   2.956   3.722   1.154
 2465SOL     OW 7406   3.214   3.776   0.168
 2465SOL    HW1 7407   3.249   3.735   0.084
 2465SOL    HW2 7408   3.124   3.738   0.188
 2466SOL     OW 7409   3.162   4.177   0.691
 2466SOL    HW1 7410   3.103   4.257   0.695
 2466SOL    HW2 7411   3.177   4.142   0.784
 2467SOL     OW 7412   3.455   3.945   0.882
 2467SOL    HW1 7413   3.371   3.944   0.936
 2467SOL    HW2 7414   3.457   4.028   0.826
 2468SOL     OW 7415   2.092   4.352   1.975
 2468SOL    HW1 7416   1.999   4.350   2.012
 2468SOL    HW2 7417   2.093   4.313   1.883
 2469SOL     OW 7418   2.087   3.999   2.858
 2469SOL    HW1 7419   2.122   3.982   2.950
 2469SOL    HW2 7420   1.999   3.954   2.846
 2470SOL     OW 7421   1.881   4.092   2.509
 2470SOL    HW1 7422   1.799   4.135   2.548
 2470SOL    HW2 7423   1.853   4.019   2.446
 2471SOL     OW 7424   2.997   4.427   2.579
 2471SOL    HW1 7425   3.054   4.505   2.554
 2471SOL    HW2 7426   2.937   4.453   2.655
 2472SOL     OW 7427   3.617   4.331   2.093
 2472SOL    HW1 7428   3.605   4.318   1.994
 2472SOL    HW2 7429   3.587   4.250   2.142
 2473SOL     OW 7430   2.712   4.522   3.685
 2473SOL    HW1 7431   2.708   4.598   3.750
 2473SOL    HW2 7432   2.734   4.558   3.594
 2474SOL     OW 7433   2.547   4.736   2.527
 2474SOL    HW1 7434   2.616   4.720   2.597
 2474SOL    HW2 7435   2.474   4.793   2.565
 2475SOL     OW 7436   2.300   4.116   3.361
 2475SOL    HW1 7437   2.382   4.060   3.370
 2475SOL    HW2 7438   2.219   4.058   3.365
 2476SOL     OW 7439   3.465   4.171   2.599
 2476SOL    HW1 7440   3.391   4.217   2.549
 2476SOL    HW2 7441   3.516   4.239   2.652
 2477SOL     OW 7442   3.456   3.838   3.342
 2477SOL    HW1 7443   3.438   3.905   3.270
 2477SOL    HW2 7444   3.453   3.884   3.431
 2478SOL     OW 7445   1.984   4.367   2.425
 2478SOL    HW1 7446   1.939   4.279   2.442
 2478SOL    HW2 7447   1.983   4.421   2.509
 2479SOL     OW 7448   1.975   4.461   3.459
 2479SOL    HW1 7449   2.063   4.448   3.504
 2479SOL    HW2 7450   1.962   4.558   3.437
 2480SOL     OW 7451   2.671   3.728   2.364
 2480SOL    HW1 7452   2.711   3.819   2.355
 2480SOL    HW2 7453   2.571   3.736   2.370
 2481SOL     OW 7454   2.179   3.975   3.663
 2481SOL    HW1 7455   2.250   4.046   3.669
 2481SOL    HW2 7456   2.091   4.014   3.691
 2482SOL     OW 7457   2.460   4.453   2.132
 2482SOL    HW1 7458   2.484   4.522   2.064
 2482SOL    HW2 7459   2.382   4.486   2.186
 2483SOL     OW 7460   3.143   4.069   2.806
 2483SOL    HW1 7461   3.057   4.019   2.793
 2483SOL    HW2 7462   3.205   4.015   2.862
 2484SOL     OW 7463   2.669   4.329   3.327
 2484SOL    HW1 7464   2.622   4.326   3.416
 2484SOL    HW2 7465   2.618   4.274   3.261
 2485SOL     OW 7466   3.256   4.193   3.536
 2485SOL    HW1 7467   3.236   4.236   3.624
 2485SOL    HW2 7468   3.334   4.131   3.545
 2486SOL     OW 7469   2.853   4.134   3.104
 2486SOL    HW1 7470   2.776   4.168   3.158
 2486SOL    HW2 7471   2.819   4.083   3.025
 2487SOL     OW 7472   2.903   4.425   2.291
 2487SOL    HW1 7473   2.929   4.421   2.387
 2487SOL    HW2 7474   2.818   4.374   2.277
 2488SOL     OW 7475   1.938   4.535   2.651
 2488SOL    HW1 7476   2.037   4.523   2.660
 2488SOL    HW2 7477   1.914   4.630   2.672
 2489SOL     OW 7478   2.727   4.072   2.057
 2489SOL    HW1 7479   2.786   4.135   2.008
 2489SOL    HW2 7480   2.746   3.978   2.028
 2490SOL     OW 7481   3.581   4.309   3.693
 2490SOL    HW1 7482   3.555   4.398   3.657
 2490SOL    HW2 7483   3.579   4.241   3.620
 2491SOL     OW 7484   2.412   3.920   2.747
 2491SOL    HW1 7485   2.407   3.915   2.847
 2491SOL    HW2 7486   2.414   4.016   2.718
 2492SOL     OW 7487   3.320   4.459   2.590
 2492SOL    HW1 7488   3.315   4.394   2.665
 2492SOL    HW2 7489   3.400   4.518   2.603
 2493SOL     OW 7490   2.064   4.009   3.360
 2493SOL    HW1 7491   1.984   4.069   3.347
 2493SOL    HW2 7492   2.054   3.960   3.446
 2494SOL     OW 7493   3.262   3.831   2.288
 2494SOL    HW1 7494   3.238   3.794   2.198
 2494SOL    HW2 7495   3.361   3.847   2.292
 2495SOL     OW 7496   2.244   4.424   2.342
 2495SOL    HW1 7497   2.289   4.334   2.339
 2495SOL    HW2 7498   2.150   4.413   2.375
 2496SOL     OW 7499   3.409   3.946   3.591
 2496SOL    HW1 7500   3.404   3.983   3.683
 2496SOL    HW2 7501   3.337   3.877   3.579
 2497SOL     OW 7502   2.476   3.846   1.979
 2497SOL    HW1 7503   2.574   3.824   1.986
 2497SOL    HW2 7504   2.445   3.829   1.886
 2498SOL     OW 7505   2.643   3.988   3.611
 2498SOL    HW1 7506   2.710   3.927   3.654
 2498SOL    HW2 7507   2.570   4.007   3.676
 2499SOL     OW 7508   3.213   4.314   3.295
 2499SOL    HW1 7509   3.241   4.271   3.380
 2499SOL    HW2 7510   3.238   4.410   3.296
 2500SOL     OW 7511   2.784   4.227   2.761
 2500SOL    HW1 7512   2.759   4.218   2.665
 2500SOL    HW2 7513   2.832   4.145   2.792
 2501SOL     OW 7514   2.401   3.788   2.374
 2501SOL    HW1 7515   2.320   3.789   2.432
 2501SOL    HW2 7516   2.404   3.871   2.319
 2502SOL     OW 7517   2.159   3.759   2.033
 2502SOL    HW1 7518   2.208   3.843   2.012
 2502SOL    HW2 7519   2.221   3.694   2.078
 2503SOL     OW 7520   2.797   3.960   2.342
 2503SOL    HW1 7521   2.749   4.001   2.264
 2503SOL    HW2 7522   2.896   3.958   2.323
 2504SOL     OW 7523   2.938   4.407   3.326
 2504SOL    HW1 7524   2.858   4.346   3.329
 2504SOL    HW2 7525   3.019   4.354   3.302
 2505SOL     OW 7526   2.894   4.273   1.878
 2505SOL    HW1 7527   2.853   4.355   1.839
 2505SOL    HW2 7528   2.958   4.299   1.951
 2506SOL     OW 7529   1.940   4.280   3.248
 2506SOL    HW1 7530   2.032   4.279   3.207
 2506SOL    HW2 7531   1.934   4.354   3.315
 2507SOL     OW 7532   2.423   3.946   3.009
 2507SOL    HW1 7533   2.461   3.862   3.046
 2507SOL    HW2 7534   2.335   3.965   3.053
 2508SOL     OW 7535   2.728   4.178   2.504
 2508SOL    HW1 7536   2.696   4.250   2.442
 2508SOL    HW2 7537   2.752   4.097   2.451
 2509SOL     OW 7538   2.879   3.763   2.615
 2509SOL    HW1 7539   2.807   3.768   2.546
 2509SOL    HW2 7540   2.855   3.694   2.684
 2510SOL     OW 7541   3.328   4.314   2.854
 2510SOL    HW1 7542   3.298   4.219   2.861
 2510SOL    HW2 7543   3.401   4.330   2.920
 2511SOL     OW 7544   3.719   4.557   2.239
 2511SOL    HW1 7545   3.761   4.493   2.303
 2511SOL    HW2 7546   3.681   4.506   2.161
 2512SOL     OW 7547   3.252   4.299   1.940
 2512SOL    HW1 7548   3.198   4.278   2.021
 2512SOL    HW2 7549   3.343   4.258   1.949
 2513SOL     OW 7550   2.389   3.980   2.190
 2513SOL    HW1 7551   2.416   3.921   2.115
 2513SOL    HW2 7552   2.389   4.075   2.159
 2514SOL     OW 7553   2.777   3.813   3.264
 2514SOL    HW1 7554   2.802   3.793   3.169
 2514SOL    HW2 7555   2.849   3.869   3.306
 2515SOL     OW 7556   2.272   4.537   3.113
 2515SOL    HW1 7557   2.358   4.549   3.163
 2515SOL    HW2 7558   2.230   4.450   3.140
 2516SOL     OW 7559   3.136   4.110   3.124
 2516SOL    HW1 7560   3.157   4.184   3.188
 2516SOL    HW2 7561   3.047   4.127   3.081
 2517SOL     OW 7562   2.428   4.261   2.727
 2517SOL    HW1 7563   2.440   4.327   2.653
 2517SOL    HW2 7564   2.474   4.295   2.810
 2518SOL     OW 7565   3.444   4.363   2.334
 2518SOL    HW1 7566   3.413   4.424   2.407
 2518SOL    HW2 7567   3.494   4.415   2.265
 2519SOL     OW 7568   2.264   4.475   3.460
 2519SOL    HW1 7569   2.332   4.530   3.413
 2519SOL    HW2 7570   2.304   4.387   3.487
 2520SOL     OW 7571   3.449   4.503   3.532
 2520SOL    HW1 7572   3.357   4.541   3.527
 2520SOL    HW2 7573   3.509   4.550   3.467
 2521SOL     OW 7574   2.875   3.829   3.632
 2521SOL    HW1 7575   2.881   3.914   3.580
 2521SOL    HW2 7576   2.907   3.753   3.575
 2522SOL     OW 7577   2.366   3.774   3.602
 2522SOL    HW1 7578   2.324   3.717   3.532
 2522SOL    HW2 7579   2.300   3.843   3.634
 2523SOL     OW 7580   2.435   4.594   2.891
 2523SOL    HW1 7581   2.479   4.683   2.882
 2523SOL    HW2 7582   2.372   4.594   2.968
 2524SOL     OW 7583   3.222   4.586   2.907
 2524SOL    HW1 7584   3.147   4.586   2.841
 2524SOL    HW2 7585   3.259   4.494   2.916
 2525SOL     OW 7586   3.071   4.249   2.137
 2525SOL    HW1 7587   3.084   4.165   2.191
 2525SOL    HW2 7588   3.042   4.323   2.197
 2526SOL     OW 7589   2.169   3.937   3.093
 2526SOL    HW1 7590   2.146   3.974   3.183
 2526SOL    HW2 7591   2.139   3.842   3.087
 2527SOL     OW 7592   2.594   4.358   2.926
 2527SOL    HW1 7593   2.653   4.332   2.850
 2527SOL    HW2 7594   2.566   4.454   2.915
 2528SOL     OW 7595   3.590   4.659   3.716
 2528SOL    HW1 7596   3.544   4.652   3.627
 2528SOL    HW2 7597   3.528   4.703   3.782
 2529SOL     OW 7598   2.169   3.787   2.480
 2529SOL    HW1 7599   2.158   3.881   2.513
 2529SOL    HW2 7600   2.164   3.724   2.557
 2530SOL     OW 7601   3.484   4.091   2.236
 2530SOL    HW1 7602   3.486   4.015   2.300
 2530SOL    HW2 7603   3.436   4.168   2.276
 2531SOL     OW 7604   2.885   4.490   2.828
 2531SOL    HW1 7605   2.900   4.511   2.924
 2531SOL    HW2 7606   2.855   4.395   2.819
 2532SOL     OW 7607   3.402   3.998   1.987
 2532SOL    HW1 7608   3.341   3.923   2.010
 2532SOL    HW2 7609   3.424   4.050   2.070
 2533SOL     OW 7610   3.165   4.562   1.904
 2533SOL    HW1 7611   3.199   4.469   1.919
 2533SOL    HW2 7612   3.183   4.589   1.809
 2534SOL     OW 7613   2.181   4.534   2.811
 2534SOL    HW1 7614   2.274   4.570   2.816
 2534SOL    HW2 7615   2.175   4.449   2.863
 2535SOL     OW 7616   2.201   4.233   2.868
 2535SOL    HW1 7617   2.149   4.150   2.851
 2535SOL    HW2 7618   2.278   4.238   2.804
 2536SOL     OW 7619   3.000   4.104   3.540
 2536SOL    HW1 7620   2.955   4.167   3.604
 2536SOL    HW2 7621   3.093   4.135   3.523
 2537SOL     OW 7622   3.022   3.931   3.339
 2537SOL    HW1 7623   3.022   3.995   3.416
 2537SOL    HW2 7624   3.050   3.979   3.256
 2538SOL     OW 7625   2.864   4.520   3.100
 2538SOL    HW1 7626   2.905   4.488   3.186
 2538SOL    HW2 7627   2.768   4.493   3.097
 2539SOL     OW 7628   1.902   4.268   2.976
 2539SOL    HW1 7629   1.987   4.235   2.935
 2539SOL    HW2 7630   1.915   4.283   3.074
 2540SOL     OW 7631   2.051   4.244   3.584
 2540SOL    HW1 7632   2.110   4.204   3.514
 2540SOL    HW2 7633   1.993   4.315   3.543
 2541SOL     OW 7634   2.677   4.296   2.187
 2541SOL    HW1 7635   2.684   4.207   2.141
 2541SOL    HW2 7636   2.583   4.330   2.179
 2542SOL     OW 7637   3.519   4.328   3.068
 2542SOL    HW1 7638   3.481   4.259   3.130
 2542SOL    HW2 7639   3.601   4.292   3.024
 2543SOL     OW 7640   2.533   4.188   3.131
 2543SOL    HW1 7641   2.499   4.099   3.101
 2543SOL    HW2 7642   2.559   4.242   3.051
 2544SOL     OW 7643   2.335   4.224   2.053
 2544SOL    HW1 7644   2.396   4.304   2.057
 2544SOL    HW2 7645   2.240   4.255   2.060
 2545SOL     OW 7646   3.588   3.859   2.385
 2545SOL    HW1 7647   3.661   3.842   2.318
 2545SOL    HW2 7648   3.557   3.772   2.423
 2546SOL     OW 7649   3.142   4.651   2.534
 2546SOL    HW1 7650   3.202   4.570   2.536
 2546SOL    HW2 7651   3.182   4.720   2.474
 2547SOL     OW 7652   3.703   3.899   2.825
 2547SOL    HW1 7653   3.742   3.814   2.789
 2547SOL    HW2 7654   3.605   3.901   2.806
 2548SOL     OW 7655   2.125   4.050   2.582
 2548SOL    HW1 7656   2.046   4.101   2.548
 2548SOL    HW2 7657   2.116   4.035   2.680
 2549SOL     OW 7658   2.778   4.634   2.153
 2549SOL    HW1 7659   2.841   4.672   2.085
 2549SOL    HW2 7660   2.818   4.551   2.192
 2550SOL     OW 7661   2.876   3.960   2.833
 2550SOL    HW1 7662   2.868   3.924   2.740
 2550SOL    HW2 7663   2.874   3.884   2.898
 2551SOL     OW 7664   3.571   4.109   3.243
 2551SOL    HW1 7665   3.644   4.178   3.247
 2551SOL    HW2 7666   3.599   4.034   3.184
 2552SOL     OW 7667   1.967   4.737   3.588
 2552SOL    HW1 7668   1.890   4.704   3.642
 2552SOL    HW2 7669   2.052   4.707   3.630
 2553SOL     OW 7670   2.534   3.927   3.351
 2553SOL    HW1 7671   2.624   3.911   3.311
 2553SOL    HW2 7672   2.542   3.932   3.450
 2554SOL     OW 7673   1.937   4.069   1.895
 2554SOL    HW1 7674   1.845   4.041   1.866
 2554SOL    HW2 7675   1.968   4.146   1.839
 2555SOL     OW 7676   3.302   4.580   3.260
 2555SOL    HW1 7677   3.245   4.632   3.197
 2555SOL    HW2 7678   3.398   4.592   3.236
 2556SOL     OW 7679   1.934   3.890   2.180
 2556SOL    HW1 7680   1.917   3.973   2.126
 2556SOL    HW2 7681   2.024   3.853   2.158
 2557SOL     OW 7682   2.475   4.566   3.293
 2557SOL    HW1 7683   2.531   4.647   3.276
 2557SOL    HW2 7684   2.534   4.486   3.296
 2558SOL     OW 7685   2.578   4.289   3.570
 2558SOL    HW1 7686   2.597   4.354   3.644
 2558SOL    HW2 7687   2.638   4.209   3.579
 2559SOL     OW 7688   3.536   4.607   3.116
 2559SOL    HW1 7689   3.509   4.518   3.079
 2559SOL    HW2 7690   3.537   4.675   3.043
 2560SOL     OW 7691   3.087   4.049   2.311
 2560SOL    HW1 7692   3.152   3.975   2.300
 2560SOL    HW2 7693   3.107   4.099   2.395
 2561SOL     OW 7694   2.456   4.469   2.514
 2561SOL    HW1 7695   2.506   4.554   2.495
 2561SOL    HW2 7696   2.368   4.471   2.466
 2562SOL     OW 7697   3.639   4.066   3.504
 2562SOL    HW1 7698   3.622   4.097   3.410
 2562SOL    HW2 7699   3.555   4.029   3.542
 2563SOL     OW 7700   3.592   4.658   3.379
 2563SOL    HW1 7701   3.630   4.749   3.394
 2563SOL    HW2 7702   3.584   4.641   3.280
 2564SOL     OW 7703   3.686   3.916   3.089
 2564SOL    HW1 7704   3.682   3.826   3.133
 2564SOL    HW2 7705   3.689   3.905   2.990
 2565SOL     OW 7706   2.290   4.148   2.382
 2565SOL    HW1 7707   2.320   4.076   2.320
 2565SOL    HW2 7708   2.251   4.108   2.465
 2566SOL     OW 7709   2.179   4.271   3.142
 2566SOL    HW1 7710   2.217   4.212   3.214
 2566SOL    HW2 7711   2.219   4.245   3.054
 2567SOL     OW 7712   3.286   3.938   2.974
 2567SOL    HW1 7713   3.338   3.873   3.029
 2567SOL    HW2 7714   3.237   4.001   3.035
 2568SOL     OW 7715   2.863   3.758   3.016
 2568SOL    HW1 7716   2.800   3.686   2.985
 2568SOL    HW2 7717   2.956   3.722   3.016
 2569SOL     OW 7718   3.214   3.776   2.030
 2569SOL    HW1 7719   3.249   3.735   1.946
 2569SOL    HW2 7720   3.124   3.738   2.050
 2570SOL     OW 7721   3.162   4.177   2.553
 2570SOL    HW1 7722   3.103   4.257   2.557
 2570SOL    HW2 7723   3.177   4.142   2.646
 2571SOL     OW 7724   3.455   3.945   2.744
 2571SOL    HW1 7725   3.371   3.944   2.798
 2571SOL    HW2 7726   3.457   4.028   2.688
 2572SOL     OW 7727   2.092   4.352   3.837
 2572SOL    HW1 7728   1.999   4.350   3.874
 2572SOL    HW2 7729   2.093   4.313   3.745
 2573SOL     OW 7730   2.087   3.999   4.720
 2573SOL    HW1 7731   2.122   3.982   4.812
 2573SOL    HW2 7732   1.999   3.954   4.708
 2574SOL     OW 7733   1.881   4.092   4.371
 2574SOL    HW1 7734   1.799   4.135   4.410
 2574SOL    HW2 7735   1.853   4.019   4.308
 2575SOL     OW 7736   2.997   4.427   4.441
 2575SOL    HW1 7737   3.054   4.505   4.416
 2575SOL    HW2 7738   2.937   4.453   4.517
 2576SOL     OW 7739   3.617   4.331   3.955
 2576SOL    HW1 7740   3.605   4.318   3.856
 2576SOL    HW2 7741   3.587   4.250   4.004
 2577SOL     OW 7742   2.547   4.736   4.389
 2577SOL    HW1 7743   2.616   4.720   4.459
 2577SOL    HW2 7744   2.474   4.793   4.427
 2578SOL     OW 7745   3.465   4.171   4.461
 2578SOL    HW1 7746   3.391   4.217   4.411
 2578SOL    HW2 7747   3.516   4.239   4.514
 2579SOL     OW 7748   1.984   4.367   4.287
 2579SOL    HW1 7749   1.939   4.279   4.304
 2579SOL    HW2 7750   1.983   4.421   4.371
 2580SOL     OW 7751   2.671   3.728   4.226
 2580SOL    HW1 7752   2.711   3.819   4.217
 2580SOL    HW2 7753   2.571   3.736   4.232
 2581SOL     OW 7754   2.460   4.453   3.994
 2581SOL    HW1 7755   2.484   4.522   3.926
 2581SOL    HW2 7756   2.382   4.486   4.048
 2582SOL     OW 7757   3.143   4.069   4.668
 2582SOL    HW1 7758   3.057   4.019   4.655
 2582SOL    HW2 7759   3.205   4.015   4.724
 2583SOL     OW 7760   2.903   4.425   4.153
 2583SOL    HW1 7761   2.929   4.421   4.249
 2583SOL    HW2 7762   2.818   4.374   4.139
 2584SOL     OW 7763   1.938   4.535   4.513
 2584SOL    HW1 7764   2.037   4.523   4.522
 2584SOL    HW2 7765   1.914   4.630   4.534
 2585SOL     OW 7766   2.727   4.072   3.919
 2585SOL    HW1 7767   2.786   4.135   3.870
 2585SOL    HW2 7768   2.746   3.978   3.890
 2586SOL     OW 7769   2.412   3.920   4.609
 2586SOL    HW1 7770   2.407   3.915   4.709
 2586SOL    HW2 7771   2.414   4.016   4.580
 2587SOL     OW 7772   3.320   4.459   4.452
 2587SOL    HW1 7773   3.315   4.394   4.527
 2587SOL    HW2 7774   3.400   4.518   4.465
 2588SOL     OW 7775   3.262   3.831   4.150
 2588SOL    HW1 7776   3.238   3.794   4.060
 2588SOL    HW2 7777   3.361   3.847   4.154
 2589SOL     OW 7778   2.244   4.424   4.204
 2589SOL    HW1 7779   2.289   4.334   4.201
 2589SOL    HW2 7780   2.150   4.413   4.237
 2590SOL     OW 7781   2.476   3.846   3.841
 2590SOL    HW1 7782   2.574   3.824   3.848
 2590SOL    HW2 7783   2.445   3.829   3.748
 2591SOL     OW 7784   2.401   3.788   4.236
 2591SOL    HW1 7785   2.320   3.789   4.294
 2591SOL    HW2 7786   2.404   3.871   4.181
 2592SOL     OW 7787   2.159   3.759   3.895
 2592SOL    HW1 7788   2.208   3.843   3.874
 2592SOL    HW2 7789   2.221   3.694   3.940
 2593SOL     OW 7790   2.797   3.960   4.204
 2593SOL    HW1 7791   2.749   4.001   4.126
 2593SOL    HW2 7792   2.896   3.958   4.185
 2594SOL     OW 7793   2.894   4.273   3.740
 2594SOL    HW1 7794   2.853   4.355   3.701
 2594SOL    HW2 7795   2.958   4.299   3.813
 2595SOL     OW 7796   2.728   4.178   4.366
 2595SOL    HW1 7797   2.696   4.250   4.304
 2595SOL    HW2 7798   2.752   4.097   4.313
 2596SOL     OW 7799   2.879   3.763   4.477
 2596SOL    HW1 7800   2.807   3.768   4.408
 2596SOL    HW2 7801   2.855   3.694   4.546
 2597SOL     OW 7802   3.719   4.557   4.101
 2597SOL    HW1 7803   3.761   4.493   4.165
 2597SOL    HW2 7804   3.681   4.506   4.023
 2598SOL     OW 7805   3.252   4.299   3.802
 2598SOL    HW1 7806   3.198   4.278   3.883
 2598SOL    HW2 7807   3.343   4.258   3.811
 2599SOL     OW 7808   2.389   3.980   4.052
 2599SOL    HW1 7809   2.416   3.921   3.977
 2599SOL    HW2 7810   2.389   4.075   4.021
 2600SOL     OW 7811   2.973   4.919   4.824
 2600SOL    HW1 7812   2.933   4.963   4.905
 2600SOL    HW2 7813   2.932   4.956   4.741
 2601SOL     OW 7814   2.428   4.261   4.589
 2601SOL    HW1 7815   2.440   4.327   4.515
 2601SOL    HW2 7816   2.474   4.295   4.672
 2602SOL     OW 7817   3.444   4.363   4.196
 2602SOL    HW1 7818   3.413   4.424   4.269
 2602SOL    HW2 7819   3.494   4.415   4.127
 2603SOL     OW 7820   3.071   4.249   3.999
 2603SOL    HW1 7821   3.084   4.165   4.053
 2603SOL    HW2 7822   3.042   4.323   4.059
 2604SOL     OW 7823   2.594   4.358   4.788
 2604SOL    HW1 7824   2.653   4.332   4.712
 2604SOL    HW2 7825   2.566   4.454   4.777
 2605SOL     OW 7826   2.169   3.787   4.342
 2605SOL    HW1 7827   2.158   3.881   4.375
 2605SOL    HW2 7828   2.164   3.724   4.419
 2606SOL     OW 7829   3.484   4.091   4.098
 2606SOL    HW1 7830   3.486   4.015   4.162
 2606SOL    HW2 7831   3.436   4.168   4.138
 2607SOL     OW 7832   3.402   3.998   3.849
 2607SOL    HW1 7833   3.341   3.923   3.872
 2607SOL    HW2 7834   3.424   4.050   3.932
 2608SOL     OW 7835   3.165   4.562   3.766
 2608SOL    HW1 7836   3.199   4.469   3.781
 2608SOL    HW2 7837   3.183   4.589   3.671
 2609SOL     OW 7838   2.677   4.296   4.049
 2609SOL    HW1 7839   2.684   4.207   4.003
 2609SOL    HW2 7840   2.583   4.330   4.041
 2610SOL     OW 7841   2.335   4.224   3.915
 2610SOL    HW1 7842   2.396   4.304   3.919
 2610SOL    HW2 7843   2.240   4.255   3.922
 2611SOL     OW 7844   3.588   3.859   4.247
 2611SOL    HW1 7845   3.661   3.842   4.180
 2611SOL    HW2 7846   3.557   3.772   4.285
 2612SOL     OW 7847   3.142   4.651   4.396
 2612SOL    HW1 7848   3.202   4.570   4.398
 2612SOL    HW2 7849   3.182   4.720   4.336
 2613SOL     OW 7850   3.703   3.899   4.687
 2613SOL    HW1 7851   3.742   3.814   4.651
 2613SOL    HW2 7852   3.605   3.901   4.668
 2614SOL     OW 7853   2.125   4.050   4.444
 2614SOL    HW1 7854   2.046   4.101   4.410
 2614SOL    HW2 7855   2.116   4.035   4.542
 2615SOL     OW 7856   2.778   4.634   4.015
 2615SOL    HW1 7857   2.841   4.672   3.947
 2615SOL    HW2 7858   2.818   4.551   4.054
 2616SOL     OW 7859   1.937   4.069   3.757
 2616SOL    HW1 7860   1.845   4.041   3.728
 2616SOL    HW2 7861   1.968   4.146   3.701
 2617SOL     OW 7862   1.934   3.890   4.042
 2617SOL    HW1 7863   1.917   3.973   3.988
 2617SOL    HW2 7864   2.024   3.853   4.020
 2618SOL     OW 7865   3.536   4.607   4.978
 2618SOL    HW1 7866   3.509   4.518   4.941
 2618SOL    HW2 7867   3.537   4.675   4.905
 2619SOL     OW 7868   3.087   4.049   4.173
 2619SOL    HW1 7869   3.152   3.975   4.162
 2619SOL    HW2 7870   3.107   4.099   4.257
 2620SOL     OW 7871   2.456   4.469   4.376
 2620SOL    HW1 7872   2.506   4.554   4.357
 2620SOL    HW2 7873   2.368   4.471   4.328
 2621SOL     OW 7874   2.290   4.148   4.244
 2621SOL    HW1 7875   2.320   4.076   4.182
 2621SOL    HW2 7876   2.251   4.108   4.327
 2622SOL     OW 7877   3.214   3.776   3.892
 2622SOL    HW1 7878   3.249   3.735   3.808
 2622SOL    HW2 7879   3.124   3.738   3.912
 2623SOL     OW 7880   3.162   4.177   4.415
 2623SOL    HW1 7881   3.103   4.257   4.419
 2623SOL    HW2 7882   3.177   4.142   4.508
 2624SOL     OW 7883   3.455   3.945   4.606
 2624SOL    HW1 7884   3.371   3.944   4.660
 2624SOL    HW2 7885   3.457   4.028   4.550
 2625SOL     OW 7886   3.954   0.628   0.113
 2625SOL    HW1 7887   3.861   0.626   0.150
 2625SOL    HW2 7888   3.955   0.589   0.021
 2626SOL     OW 7889   3.949   0.275   0.996
 2626SOL    HW1 7890   3.984   0.258   1.088
 2626SOL    HW2 7891   3.861   0.230   0.984
 2627SOL     OW 7892   3.743   0.368   0.647
 2627SOL    HW1 7893   3.661   0.411   0.686
 2627SOL    HW2 7894   3.715   0.295   0.584
 2628SOL     OW 7895   4.293   1.275   1.165
 2628SOL    HW1 7896   4.200   1.268   1.128
 2628SOL    HW2 7897   4.304   1.364   1.209
 2629SOL     OW 7898   4.492   1.144   1.023
 2629SOL    HW1 7899   4.414   1.161   1.083
 2629SOL    HW2 7900   4.526   1.231   0.987
 2630SOL     OW 7901   4.574   0.798   1.823
 2630SOL    HW1 7902   4.570   0.874   1.888
 2630SOL    HW2 7903   4.596   0.834   1.732
 2631SOL     OW 7904   4.409   1.012   0.665
 2631SOL    HW1 7905   4.478   0.996   0.735
 2631SOL    HW2 7906   4.336   1.069   0.703
 2632SOL     OW 7907   4.410   1.161   1.803
 2632SOL    HW1 7908   4.470   1.240   1.817
 2632SOL    HW2 7909   4.324   1.192   1.762
 2633SOL     OW 7910   4.059   1.435   1.061
 2633SOL    HW1 7911   3.981   1.404   1.008
 2633SOL    HW2 7912   4.117   1.493   1.004
 2634SOL     OW 7913   4.162   0.392   1.499
 2634SOL    HW1 7914   4.244   0.336   1.508
 2634SOL    HW2 7915   4.081   0.334   1.503
 2635SOL     OW 7916   3.955   1.713   0.483
 2635SOL    HW1 7917   3.989   1.790   0.537
 2635SOL    HW2 7918   3.999   1.713   0.393
 2636SOL     OW 7919   3.954   1.434   0.538
 2636SOL    HW1 7920   3.928   1.530   0.538
 2636SOL    HW2 7921   3.883   1.380   0.583
 2637SOL     OW 7922   3.964   1.091   0.886
 2637SOL    HW1 7923   3.978   1.007   0.938
 2637SOL    HW2 7924   3.909   1.155   0.941
 2638SOL     OW 7925   4.344   1.786   1.439
 2638SOL    HW1 7926   4.252   1.769   1.474
 2638SOL    HW2 7927   4.372   1.878   1.465
 2639SOL     OW 7928   4.330   0.964   0.123
 2639SOL    HW1 7929   4.337   1.048   0.069
 2639SOL    HW2 7930   4.376   0.977   0.211
 2640SOL     OW 7931   3.846   0.643   0.563
 2640SOL    HW1 7932   3.801   0.555   0.580
 2640SOL    HW2 7933   3.845   0.697   0.647
 2641SOL     OW 7934   3.751   1.596   0.117
 2641SOL    HW1 7935   3.732   1.500   0.138
 2641SOL    HW2 7936   3.718   1.654   0.192
 2642SOL     OW 7937   3.837   0.737   1.597
 2642SOL    HW1 7938   3.925   0.724   1.642
 2642SOL    HW2 7939   3.824   0.834   1.575
 2643SOL     OW 7940   4.337   1.365   0.726
 2643SOL    HW1 7941   4.288   1.278   0.735
 2643SOL    HW2 7942   4.314   1.408   0.639
 2644SOL     OW 7943   4.533   0.004   0.502
 2644SOL    HW1 7944   4.573   0.095   0.493
 2644SOL    HW2 7945   4.433   0.012   0.508
 2645SOL     OW 7946   3.921   0.976   1.264
 2645SOL    HW1 7947   4.010   0.931   1.250
 2645SOL    HW2 7948   3.848   0.911   1.245
 2646SOL     OW 7949   4.041   0.251   1.801
 2646SOL    HW1 7950   4.112   0.322   1.807
 2646SOL    HW2 7951   3.953   0.290   1.829
 2647SOL     OW 7952   4.322   0.729   0.270
 2647SOL    HW1 7953   4.346   0.798   0.202
 2647SOL    HW2 7954   4.244   0.762   0.324
 2648SOL     OW 7955   4.531   0.605   1.465
 2648SOL    HW1 7956   4.484   0.602   1.554
 2648SOL    HW2 7957   4.480   0.550   1.399
 2649SOL     OW 7958   3.800   0.811   0.789
 2649SOL    HW1 7959   3.899   0.799   0.798
 2649SOL    HW2 7960   3.776   0.906   0.810
 2650SOL     OW 7961   3.854   1.821   1.571
 2650SOL    HW1 7962   3.844   1.806   1.670
 2650SOL    HW2 7963   3.768   1.857   1.535
 2651SOL     OW 7964   4.589   0.348   0.195
 2651SOL    HW1 7965   4.648   0.411   0.146
 2651SOL    HW2 7966   4.608   0.254   0.166
 2652SOL     OW 7967   4.274   0.196   0.885
 2652SOL    HW1 7968   4.269   0.191   0.985
 2652SOL    HW2 7969   4.276   0.292   0.856
 2653SOL     OW 7970   4.732   1.456   0.477
 2653SOL    HW1 7971   4.686   1.528   0.425
 2653SOL    HW2 7972   4.728   1.476   0.575
 2654SOL     OW 7973   4.075   1.801   0.853
 2654SOL    HW1 7974   4.125   1.715   0.859
 2654SOL    HW2 7975   4.140   1.878   0.850
 2655SOL     OW 7976   4.045   0.943   0.242
 2655SOL    HW1 7977   4.127   0.982   0.200
 2655SOL    HW2 7978   4.018   0.861   0.193
 2656SOL     OW 7979   4.185   1.266   1.727
 2656SOL    HW1 7980   4.135   1.267   1.641
 2656SOL    HW2 7981   4.122   1.248   1.803
 2657SOL     OW 7982   4.835   1.776   0.237
 2657SOL    HW1 7983   4.775   1.714   0.287
 2657SOL    HW2 7984   4.866   1.732   0.152
 2658SOL     OW 7985   3.926   0.285   1.498
 2658SOL    HW1 7986   3.846   0.345   1.485
 2658SOL    HW2 7987   3.916   0.236   1.584
 2659SOL     OW 7988   4.188   1.743   0.323
 2659SOL    HW1 7989   4.221   1.782   0.409
 2659SOL    HW2 7990   4.264   1.736   0.258
 2660SOL     OW 7991   3.973   1.785   1.241
 2660SOL    HW1 7992   4.030   1.720   1.291
 2660SOL    HW2 7993   3.957   1.752   1.148
 2661SOL     OW 7994   4.106   0.700   0.480
 2661SOL    HW1 7995   4.151   0.610   0.477
 2661SOL    HW2 7996   4.012   0.689   0.513
 2662SOL     OW 7997   4.338   0.122   0.117
 2662SOL    HW1 7998   4.436   0.100   0.124
 2662SOL    HW2 7999   4.307   0.105   0.024
 2663SOL     OW 8000   4.505   0.264   1.749
 2663SOL    HW1 8001   4.572   0.203   1.792
 2663SOL    HW2 8002   4.432   0.283   1.814
 2664SOL     OW 8003   4.527   1.402   0.924
 2664SOL    HW1 8004   4.617   1.416   0.882
 2664SOL    HW2 8005   4.456   1.404   0.853
 2665SOL     OW 8006   4.646   0.503   0.899
 2665SOL    HW1 8007   4.621   0.494   0.803
 2665SOL    HW2 8008   4.694   0.421   0.930
 2666SOL     OW 8009   4.263   0.064   0.512
 2666SOL    HW1 8010   4.182   0.065   0.570
 2666SOL    HW2 8011   4.266   0.147   0.457
 2667SOL     OW 8012   4.021   0.035   0.171
 2667SOL    HW1 8013   4.070   0.119   0.150
 2667SOL    HW2 8014   4.083  -0.030   0.216
 2668SOL     OW 8015   4.183   1.152   0.741
 2668SOL    HW1 8016   4.112   1.125   0.806
 2668SOL    HW2 8017   4.157   1.124   0.648
 2669SOL     OW 8018   3.802   0.556   1.386
 2669SOL    HW1 8019   3.894   0.555   1.345
 2669SOL    HW2 8020   3.796   0.630   1.453
 2670SOL     OW 8021   4.285   0.222   1.147
 2670SOL    HW1 8022   4.323   0.138   1.184
 2670SOL    HW2 8023   4.197   0.241   1.191
 2671SOL     OW 8024   4.212   1.385   0.174
 2671SOL    HW1 8025   4.125   1.370   0.221
 2671SOL    HW2 8026   4.195   1.411   0.079
 2672SOL     OW 8027   4.251   0.256   0.328
 2672SOL    HW1 8028   4.278   0.197   0.253
 2672SOL    HW2 8029   4.251   0.351   0.297
 2673SOL     OW 8030   4.639   0.089   1.402
 2673SOL    HW1 8031   4.664   0.069   1.307
 2673SOL    HW2 8032   4.711   0.145   1.444
 2674SOL     OW 8033   4.429   1.050   0.368
 2674SOL    HW1 8034   4.415   1.057   0.467
 2674SOL    HW2 8035   4.513   0.999   0.350
 2675SOL     OW 8036   4.134   0.813   1.251
 2675SOL    HW1 8037   4.220   0.825   1.301
 2675SOL    HW2 8038   4.092   0.726   1.278
 2676SOL     OW 8039   3.788   1.564   1.331
 2676SOL    HW1 8040   3.742   1.646   1.297
 2676SOL    HW2 8041   3.886   1.583   1.340
 2677SOL     OW 8042   4.091   1.100   0.501
 2677SOL    HW1 8043   4.084   1.183   0.445
 2677SOL    HW2 8044   4.095   1.020   0.441
 2678SOL     OW 8045   4.290   0.537   0.865
 2678SOL    HW1 8046   4.302   0.603   0.791
 2678SOL    HW2 8047   4.336   0.571   0.948
 2679SOL     OW 8048   4.078   1.510   1.329
 2679SOL    HW1 8049   4.057   1.466   1.242
 2679SOL    HW2 8050   4.175   1.536   1.332
 2680SOL     OW 8051   4.126   0.751   1.598
 2680SOL    HW1 8052   4.194   0.806   1.551
 2680SOL    HW2 8053   4.166   0.663   1.625
 2681SOL     OW 8054   4.228   0.050   1.740
 2681SOL    HW1 8055   4.186  -0.007   1.670
 2681SOL    HW2 8056   4.162   0.119   1.772
 2682SOL     OW 8057   4.297   0.870   1.029
 2682SOL    HW1 8058   4.341   0.959   1.020
 2682SOL    HW2 8059   4.234   0.870   1.106
 2683SOL     OW 8060   4.031   0.213   1.231
 2683SOL    HW1 8061   4.008   0.250   1.321
 2683SOL    HW2 8062   4.001   0.118   1.225
 2684SOL     OW 8063   3.761   1.310   1.282
 2684SOL    HW1 8064   3.814   1.261   1.350
 2684SOL    HW2 8065   3.783   1.408   1.287
 2685SOL     OW 8066   4.456   0.634   1.064
 2685SOL    HW1 8067   4.515   0.608   0.988
 2685SOL    HW2 8068   4.428   0.730   1.053
 2686SOL     OW 8069   4.031   0.063   0.618
 2686SOL    HW1 8070   4.020   0.157   0.651
 2686SOL    HW2 8071   4.026   0.000   0.695
 2687SOL     OW 8072   4.747   0.766   0.966
 2687SOL    HW1 8073   4.762   0.787   1.062
 2687SOL    HW2 8074   4.717   0.671   0.957
 2688SOL     OW 8075   4.704   1.573   1.700
 2688SOL    HW1 8076   4.684   1.617   1.612
 2688SOL    HW2 8077   4.743   1.482   1.684
 2689SOL     OW 8078   4.074   0.898   1.804
 2689SOL    HW1 8079   4.150   0.942   1.852
 2689SOL    HW2 8080   4.109   0.851   1.722
 2690SOL     OW 8081   4.043   0.810   0.949
 2690SOL    HW1 8082   4.136   0.846   0.954
 2690SOL    HW2 8083   4.037   0.725   1.001
 2691SOL     OW 8084   4.063   0.509   1.006
 2691SOL    HW1 8085   4.011   0.426   0.989
 2691SOL    HW2 8086   4.140   0.514   0.942
 2692SOL     OW 8087   3.732   1.326   0.200
 2692SOL    HW1 8088   3.639   1.347   0.169
 2692SOL    HW2 8089   3.742   1.227   0.213
 2693SOL     OW 8090   3.812   1.801   0.927
 2693SOL    HW1 8091   3.770   1.715   0.900
 2693SOL    HW2 8092   3.906   1.804   0.893
 2694SOL     OW 8093   4.228   1.568   0.910
 2694SOL    HW1 8094   4.294   1.642   0.919
 2694SOL    HW2 8095   4.272   1.489   0.868
 2695SOL     OW 8096   3.764   0.544   1.114
 2695SOL    HW1 8097   3.849   0.511   1.073
 2695SOL    HW2 8098   3.777   0.559   1.212
 2696SOL     OW 8099   3.913   0.520   1.722
 2696SOL    HW1 8100   3.972   0.480   1.652
 2696SOL    HW2 8101   3.855   0.591   1.681
 2697SOL     OW 8102   4.539   0.572   0.325
 2697SOL    HW1 8103   4.546   0.483   0.279
 2697SOL    HW2 8104   4.445   0.606   0.317
 2698SOL     OW 8105   3.976   1.564   1.744
 2698SOL    HW1 8106   3.946   1.621   1.820
 2698SOL    HW2 8107   3.969   1.467   1.770
 2699SOL     OW 8108   4.395   0.464   1.269
 2699SOL    HW1 8109   4.361   0.375   1.239
 2699SOL    HW2 8110   4.421   0.518   1.189
 2700SOL     OW 8111   4.197   0.500   0.191
 2700SOL    HW1 8112   4.258   0.580   0.195
 2700SOL    HW2 8113   4.102   0.531   0.198
 2701SOL     OW 8114   3.883   1.137   1.466
 2701SOL    HW1 8115   3.905   1.076   1.542
 2701SOL    HW2 8116   3.893   1.088   1.380
 2702SOL     OW 8117   3.807   1.258   1.022
 2702SOL    HW1 8118   3.802   1.257   1.122
 2702SOL    HW2 8119   3.724   1.217   0.984
 2703SOL     OW 8120   4.412   1.662   1.716
 2703SOL    HW1 8121   4.356   1.743   1.725
 2703SOL    HW2 8122   4.464   1.666   1.630
 2704SOL     OW 8123   4.627   0.086   0.133
 2704SOL    HW1 8124   4.678   0.087   0.047
 2704SOL    HW2 8125   4.683   0.044   0.204
 2705SOL     OW 8126   3.854   1.794   1.851
 2705SOL    HW1 8127   3.813   1.720   1.904
 2705SOL    HW2 8128   3.918   1.845   1.909
 2706SOL     OW 8129   4.554   1.273   1.422
 2706SOL    HW1 8130   4.549   1.306   1.517
 2706SOL    HW2 8131   4.468   1.292   1.376
 2707SOL     OW 8132   4.396   1.616   0.154
 2707SOL    HW1 8133   4.405   1.626   0.055
 2707SOL    HW2 8134   4.356   1.527   0.175
 2708SOL     OW 8135   3.987   0.326   0.720
 2708SOL    HW1 8136   3.908   0.377   0.686
 2708SOL    HW2 8137   3.978   0.311   0.818
 2709SOL     OW 8138   4.918   1.612   0.031
 2709SOL    HW1 8139   4.924   1.519   0.068
 2709SOL    HW2 8140   4.859   1.612  -0.049
 2710SOL     OW 8141   4.546   1.002   1.372
 2710SOL    HW1 8142   4.586   1.001   1.280
 2710SOL    HW2 8143   4.556   1.094   1.412
 2711SOL     OW 8144   4.096   1.288   1.490
 2711SOL    HW1 8145   4.083   1.381   1.456
 2711SOL    HW2 8146   4.012   1.236   1.477
 2712SOL     OW 8147   4.314   1.487   0.491
 2712SOL    HW1 8148   4.356   1.429   0.421
 2712SOL    HW2 8149   4.270   1.566   0.447
 2713SOL     OW 8150   3.979   1.348   0.290
 2713SOL    HW1 8151   3.883   1.349   0.263
 2713SOL    HW2 8152   3.991   1.401   0.374
 2714SOL     OW 8153   3.829   1.013   1.726
 2714SOL    HW1 8154   3.752   0.980   1.780
 2714SOL    HW2 8155   3.914   0.983   1.768
 2715SOL     OW 8156   4.396   0.203   1.489
 2715SOL    HW1 8157   4.486   0.187   1.449
 2715SOL    HW2 8158   4.404   0.208   1.588
 2716SOL     OW 8159   4.337   0.842   1.431
 2716SOL    HW1 8160   4.393   0.923   1.414
 2716SOL    HW2 8161   4.396   0.762   1.434
 2717SOL     OW 8162   4.440   0.565   1.708
 2717SOL    HW1 8163   4.459   0.630   1.782
 2717SOL    HW2 8164   4.500   0.485   1.717
 2718SOL     OW 8165   4.114   1.741   1.560
 2718SOL    HW1 8166   4.023   1.782   1.558
 2718SOL    HW2 8167   4.107   1.647   1.592
 2719SOL     OW 8168   4.318   0.745   0.652
 2719SOL    HW1 8169   4.368   0.830   0.633
 2719SOL    HW2 8170   4.230   0.747   0.604
 2720SOL     OW 8171   4.385   1.790   0.953
 2720SOL    HW1 8172   4.339   1.878   0.940
 2720SOL    HW2 8173   4.484   1.802   0.946
 2721SOL     OW 8174   4.583   0.956   0.861
 2721SOL    HW1 8175   4.637   0.887   0.909
 2721SOL    HW2 8176   4.551   1.025   0.927
 2722SOL     OW 8177   3.945   1.314   1.844
 2722SOL    HW1 8178   3.880   1.241   1.823
 2722SOL    HW2 8179   3.949   1.328   1.942
 2723SOL     OW 8180   3.803   1.240   0.653
 2723SOL    HW1 8181   3.802   1.193   0.741
 2723SOL    HW2 8182   3.885   1.212   0.602
 2724SOL     OW 8183   4.396   1.391   1.624
 2724SOL    HW1 8184   4.318   1.341   1.662
 2724SOL    HW2 8185   4.393   1.486   1.655
 2725SOL     OW 8186   4.152   0.424   0.520
 2725SOL    HW1 8187   4.182   0.352   0.458
 2725SOL    HW2 8188   4.113   0.384   0.603
 2726SOL     OW 8189   4.041   0.547   1.280
 2726SOL    HW1 8190   4.079   0.488   1.352
 2726SOL    HW2 8191   4.081   0.521   1.192
 2727SOL     OW 8192   4.536   1.586   0.687
 2727SOL    HW1 8193   4.568   1.596   0.593
 2727SOL    HW2 8194   4.457   1.524   0.689
 2728SOL     OW 8195   4.725   0.034   1.154
 2728SOL    HW1 8196   4.662  -0.038   1.123
 2728SOL    HW2 8197   4.818  -0.002   1.154
 2729SOL     OW 8198   4.494   1.330   0.301
 2729SOL    HW1 8199   4.448   1.243   0.318
 2729SOL    HW2 8200   4.585   1.327   0.342
 2730SOL     OW 8201   4.342   1.567   1.284
 2730SOL    HW1 8202   4.337   1.649   1.341
 2730SOL    HW2 8203   4.431   1.564   1.239
 2731SOL     OW 8204   3.763   1.077   0.300
 2731SOL    HW1 8205   3.862   1.066   0.291
 2731SOL    HW2 8206   3.723   0.991   0.332
 2732SOL     OW 8207   4.599   1.646   0.337
 2732SOL    HW1 8208   4.522   1.611   0.283
 2732SOL    HW2 8209   4.567   1.717   0.399
 2733SOL     OW 8210   3.954   0.628   1.975
 2733SOL    HW1 8211   3.861   0.626   2.012
 2733SOL    HW2 8212   3.955   0.589   1.883
 2734SOL     OW 8213   3.949   0.275   2.858
 2734SOL    HW1 8214   3.984   0.258   2.950
 2734SOL    HW2 8215   3.861   0.230   2.846
 2735SOL     OW 8216   3.743   0.368   2.509
 2735SOL    HW1 8217   3.661   0.411   2.548
 2735SOL    HW2 8218   3.715   0.295   2.446
 2736SOL     OW 8219   4.293   1.275   3.027
 2736SOL    HW1 8220   4.200   1.268   2.990
 2736SOL    HW2 8221   4.304   1.364   3.071
 2737SOL     OW 8222   4.492   1.144   2.885
 2737SOL    HW1 8223   4.414   1.161   2.945
 2737SOL    HW2 8224   4.526   1.231   2.849
 2738SOL     OW 8225   4.574   0.798   3.685
 2738SOL    HW1 8226   4.570   0.874   3.750
 2738SOL    HW2 8227   4.596   0.834   3.594
 2739SOL     OW 8228   4.409   1.012   2.527
 2739SOL    HW1 8229   4.478   0.996   2.597
 2739SOL    HW2 8230   4.336   1.069   2.565
 2740SOL     OW 8231   4.410   1.161   3.665
 2740SOL    HW1 8232   4.470   1.240   3.679
 2740SOL    HW2 8233   4.324   1.192   3.624
 2741SOL     OW 8234   4.059   1.435   2.923
 2741SOL    HW1 8235   3.981   1.404   2.870
 2741SOL    HW2 8236   4.117   1.493   2.866
 2742SOL     OW 8237   4.162   0.392   3.361
 2742SOL    HW1 8238   4.244   0.336   3.370
 2742SOL    HW2 8239   4.081   0.334   3.365
 2743SOL     OW 8240   3.955   1.713   2.345
 2743SOL    HW1 8241   3.989   1.790   2.399
 2743SOL    HW2 8242   3.999   1.713   2.255
 2744SOL     OW 8243   3.954   1.434   2.400
 2744SOL    HW1 8244   3.928   1.530   2.400
 2744SOL    HW2 8245   3.883   1.380   2.445
 2745SOL     OW 8246   3.964   1.091   2.748
 2745SOL    HW1 8247   3.978   1.007   2.800
 2745SOL    HW2 8248   3.909   1.155   2.803
 2746SOL     OW 8249   4.344   1.786   3.301
 2746SOL    HW1 8250   4.252   1.769   3.336
 2746SOL    HW2 8251   4.372   1.878   3.327
 2747SOL     OW 8252   4.330   0.964   1.985
 2747SOL    HW1 8253   4.337   1.048   1.931
 2747SOL    HW2 8254   4.376   0.977   2.073
 2748SOL     OW 8255   3.846   0.643   2.425
 2748SOL    HW1 8256   3.801   0.555   2.442
 2748SOL    HW2 8257   3.845   0.697   2.509
 2749SOL     OW 8258   3.751   1.596   1.979
 2749SOL    HW1 8259   3.732   1.500   2.000
 2749SOL    HW2 8260   3.718   1.654   2.054
 2750SOL     OW 8261   3.837   0.737   3.459
 2750SOL    HW1 8262   3.925   0.724   3.504
 2750SOL    HW2 8263   3.824   0.834   3.437
 2751SOL     OW 8264   4.337   1.365   2.588
 2751SOL    HW1 8265   4.288   1.278   2.597
 2751SOL    HW2 8266   4.314   1.408   2.501
 2752SOL     OW 8267   4.533   0.004   2.364
 2752SOL    HW1 8268   4.573   0.095   2.355
 2752SOL    HW2 8269   4.433   0.012   2.370
 2753SOL     OW 8270   3.921   0.976   3.126
 2753SOL    HW1 8271   4.010   0.931   3.112
 2753SOL    HW2 8272   3.848   0.911   3.107
 2754SOL     OW 8273   4.041   0.251   3.663
 2754SOL    HW1 8274   4.112   0.322   3.669
 2754SOL    HW2 8275   3.953   0.290   3.691
 2755SOL     OW 8276   4.322   0.729   2.132
 2755SOL    HW1 8277   4.346   0.798   2.064
 2755SOL    HW2 8278   4.244   0.762   2.186
 2756SOL     OW 8279   4.531   0.605   3.327
 2756SOL    HW1 8280   4.484   0.602   3.416
 2756SOL    HW2 8281   4.480   0.550   3.261
 2757SOL     OW 8282   3.800   0.811   2.651
 2757SOL    HW1 8283   3.899   0.799   2.660
 2757SOL    HW2 8284   3.776   0.906   2.672
 2758SOL     OW 8285   3.854   1.821   3.433
 2758SOL    HW1 8286   3.844   1.806   3.532
 2758SOL    HW2 8287   3.768   1.857   3.397
 2759SOL     OW 8288   4.589   0.348   2.057
 2759SOL    HW1 8289   4.648   0.411   2.008
 2759SOL    HW2 8290   4.608   0.254   2.028
 2760SOL     OW 8291   4.274   0.196   2.747
 2760SOL    HW1 8292   4.269   0.191   2.847
 2760SOL    HW2 8293   4.276   0.292   2.718
 2761SOL     OW 8294   4.732   1.456   2.339
 2761SOL    HW1 8295   4.686   1.528   2.287
 2761SOL    HW2 8296   4.728   1.476   2.437
 2762SOL     OW 8297   4.075   1.801   2.715
 2762SOL    HW1 8298   4.125   1.715   2.721
 2762SOL    HW2 8299   4.140   1.878   2.712
 2763SOL     OW 8300   4.045   0.943   2.104
 2763SOL    HW1 8301   4.127   0.982   2.062
 2763SOL    HW2 8302   4.018   0.861   2.055
 2764SOL     OW 8303   4.185   1.266   3.589
 2764SOL    HW1 8304   4.135   1.267   3.503
 2764SOL    HW2 8305   4.122   1.248   3.665
 2765SOL     OW 8306   4.835   1.776   2.099
 2765SOL    HW1 8307   4.775   1.714   2.149
 2765SOL    HW2 8308   4.866   1.732   2.014
 2766SOL     OW 8309   3.926   0.285   3.360
 2766SOL    HW1 8310   3.846   0.345   3.347
 2766SOL    HW2 8311   3.916   0.236   3.446
 2767SOL     OW 8312   4.188   1.743   2.185
 2767SOL    HW1 8313   4.221   1.782   2.271
 2767SOL    HW2 8314   4.264   1.736   2.120
 2768SOL     OW 8315   3.973   1.785   3.103
 2768SOL    HW1 8316   4.030   1.720   3.153
 2768SOL    HW2 8317   3.957   1.752   3.010
 2769SOL     OW 8318   4.106   0.700   2.342
 2769SOL    HW1 8319   4.151   0.610   2.339
 2769SOL    HW2 8320   4.012   0.689   2.375
 2770SOL     OW 8321   4.338   0.122   1.979
 2770SOL    HW1 8322   4.436   0.100   1.986
 2770SOL    HW2 8323   4.307   0.105   1.886
 2771SOL     OW 8324   4.505   0.264   3.611
 2771SOL    HW1 8325   4.572   0.203   3.654
 2771SOL    HW2 8326   4.432   0.283   3.676
 2772SOL     OW 8327   4.527   1.402   2.786
 2772SOL    HW1 8328   4.617   1.416   2.744
 2772SOL    HW2 8329   4.456   1.404   2.715
 2773SOL     OW 8330   4.646   0.503   2.761
 2773SOL    HW1 8331   4.621   0.494   2.665
 2773SOL    HW2 8332   4.694   0.421   2.792
 2774SOL     OW 8333   4.263   0.064   2.374
 2774SOL    HW1 8334   4.182   0.065   2.432
 2774SOL    HW2 8335   4.266   0.147   2.319
 2775SOL     OW 8336   4.021   0.035   2.033
 2775SOL    HW1 8337   4.070   0.119   2.012
 2775SOL    HW2 8338   4.083  -0.030   2.078
 2776SOL     OW 8339   4.183   1.152   2.603
 2776SOL    HW1 8340   4.112   1.125   2.668
 2776SOL    HW2 8341   4.157   1.124   2.510
 2777SOL     OW 8342   3.802   0.556   3.248
 2777SOL    HW1 8343   3.894   0.555   3.207
 2777SOL    HW2 8344   3.796   0.630   3.315
 2778SOL     OW 8345   4.285   0.222   3.009
 2778SOL    HW1 8346   4.323   0.138   3.046
 2778SOL    HW2 8347   4.197   0.241   3.053
 2779SOL     OW 8348   4.212   1.385   2.036
 2779SOL    HW1 8349   4.125   1.370   2.083
 2779SOL    HW2 8350   4.195   1.411   1.941
 2780SOL     OW 8351   4.251   0.256   2.190
 2780SOL    HW1 8352   4.278   0.197   2.115
 2780SOL    HW2 8353   4.251   0.351   2.159
 2781SOL     OW 8354   4.639   0.089   3.264
 2781SOL    HW1 8355   4.664   0.069   3.169
 2781SOL    HW2 8356   4.711   0.145   3.306
 2782SOL     OW 8357   4.429   1.050   2.230
 2782SOL    HW1 8358   4.415   1.057   2.329
 2782SOL    HW2 8359   4.513   0.999   2.212
 2783SOL     OW 8360   4.134   0.813   3.113
 2783SOL    HW1 8361   4.220   0.825   3.163
 2783SOL    HW2 8362   4.092   0.726   3.140
 2784SOL     OW 8363   3.788   1.564   3.193
 2784SOL    HW1 8364   3.742   1.646   3.159
 2784SOL    HW2 8365   3.886   1.583   3.202
 2785SOL     OW 8366   4.091   1.100   2.363
 2785SOL    HW1 8367   4.084   1.183   2.307
 2785SOL    HW2 8368   4.095   1.020   2.303
 2786SOL     OW 8369   4.290   0.537   2.727
 2786SOL    HW1 8370   4.302   0.603   2.653
 2786SOL    HW2 8371   4.336   0.571   2.810
 2787SOL     OW 8372   4.078   1.510   3.191
 2787SOL    HW1 8373   4.057   1.466   3.104
 2787SOL    HW2 8374   4.175   1.536   3.194
 2788SOL     OW 8375   4.126   0.751   3.460
 2788SOL    HW1 8376   4.194   0.806   3.413
 2788SOL    HW2 8377   4.166   0.663   3.487
 2789SOL     OW 8378   4.228   0.050   3.602
 2789SOL    HW1 8379   4.186  -0.007   3.532
 2789SOL    HW2 8380   4.162   0.119   3.634
 2790SOL     OW 8381   4.297   0.870   2.891
 2790SOL    HW1 8382   4.341   0.959   2.882
 2790SOL    HW2 8383   4.234   0.870   2.968
 2791SOL     OW 8384   4.031   0.213   3.093
 2791SOL    HW1 8385   4.008   0.250   3.183
 2791SOL    HW2 8386   4.001   0.118   3.087
 2792SOL     OW 8387   3.761   1.310   3.144
 2792SOL    HW1 8388   3.814   1.261   3.212
 2792SOL    HW2 8389   3.783   1.408   3.149
 2793SOL     OW 8390   4.456   0.634   2.926
 2793SOL    HW1 8391   4.515   0.608   2.850
 2793SOL    HW2 8392   4.428   0.730   2.915
 2794SOL     OW 8393   4.031   0.063   2.480
 2794SOL    HW1 8394   4.020   0.157   2.513
 2794SOL    HW2 8395   4.026   0.000   2.557
 2795SOL     OW 8396   4.747   0.766   2.828
 2795SOL    HW1 8397   4.762   0.787   2.924
 2795SOL    HW2 8398   4.717   0.671   2.819
 2796SOL     OW 8399   4.704   1.573   3.562
 2796SOL    HW1 8400   4.684   1.617   3.474
 2796SOL    HW2 8401   4.743   1.482   3.546
 2797SOL     OW 8402   4.074   0.898   3.666
 2797SOL    HW1 8403   4.150   0.942   3.714
 2797SOL    HW2 8404   4.109   0.851   3.584
 2798SOL     OW 8405   4.043   0.810   2.811
 2798SOL    HW1 8406   4.136   0.846   2.816
 2798SOL    HW2 8407   4.037   0.725   2.863
 2799SOL     OW 8408   4.063   0.509   2.868
 2799SOL    HW1 8409   4.011   0.426   2.851
 2799SOL    HW2 8410   4.140   0.514   2.804
 2800SOL     OW 8411   3.732   1.326   2.062
 2800SOL    HW1 8412   3.639   1.347   2.031
 2800SOL    HW2 8413   3.742   1.227   2.075
 2801SOL     OW 8414   3.812   1.801   2.789
 2801SOL    HW1 8415   3.770   1.715   2.762
 2801SOL    HW2 8416   3.906   1.804   2.755
 2802SOL     OW 8417   4.228   1.568   2.772
 2802SOL    HW1 8418   4.294   1.642   2.781
 2802SOL    HW2 8419   4.272   1.489   2.730
 2803SOL     OW 8420   3.764   0.544   2.976
 2803SOL    HW1 8421   3.849   0.511   2.935
 2803SOL    HW2 8422   3.777   0.559   3.074
 2804SOL     OW 8423   3.913   0.520   3.584
 2804SOL    HW1 8424   3.972   0.480   3.514
 2804SOL    HW2 8425   3.855   0.591   3.543
 2805SOL     OW 8426   4.539   0.572   2.187
 2805SOL    HW1 8427   4.546   0.483   2.141
 2805SOL    HW2 8428   4.445   0.606   2.179
 2806SOL     OW 8429   3.976   1.564   3.606
 2806SOL    HW1 8430   3.946   1.621   3.682
 2806SOL    HW2 8431   3.969   1.467   3.632
 2807SOL     OW 8432   4.395   0.464   3.131
 2807SOL    HW1 8433   4.361   0.375   3.101
 2807SOL    HW2 8434   4.421   0.518   3.051
 2808SOL     OW 8435   4.197   0.500   2.053
 2808SOL    HW1 8436   4.258   0.580   2.057
 2808SOL    HW2 8437   4.102   0.531   2.060
 2809SOL     OW 8438   3.883   1.137   3.328
 2809SOL    HW1 8439   3.905   1.076   3.404
 2809SOL    HW2 8440   3.893   1.088   3.242
 2810SOL     OW 8441   3.807   1.258   2.884
 2810SOL    HW1 8442   3.802   1.257   2.984
 2810SOL    HW2 8443   3.724   1.217   2.846
 2811SOL     OW 8444   4.412   1.662   3.578
 2811SOL    HW1 8445   4.356   1.743   3.587
 2811SOL    HW2 8446   4.464   1.666   3.492
 2812SOL     OW 8447   4.627   0.086   1.995
 2812SOL    HW1 8448   4.678   0.087   1.909
 2812SOL    HW2 8449   4.683   0.044   2.066
 2813SOL     OW 8450   3.854   1.794   3.713
 2813SOL    HW1 8451   3.813   1.720   3.766
 2813SOL    HW2 8452   3.918   1.845   3.771
 2814SOL     OW 8453   4.554   1.273   3.284
 2814SOL    HW1 8454   4.549   1.306   3.379
 2814SOL    HW2 8455   4.468   1.292   3.238
 2815SOL     OW 8456   4.396   1.616   2.016
 2815SOL    HW1 8457   4.405   1.626   1.917
 2815SOL    HW2 8458   4.356   1.527   2.037
 2816SOL     OW 8459   3.987   0.326   2.582
 2816SOL    HW1 8460   3.908   0.377   2.548
 2816SOL    HW2 8461   3.978   0.311   2.680
 2817SOL     OW 8462   4.546   1.002   3.234
 2817SOL    HW1 8463   4.586   1.001   3.142
 2817SOL    HW2 8464   4.556   1.094   3.274
 2818SOL     OW 8465   4.096   1.288   3.352
 2818SOL    HW1 8466   4.083   1.381   3.318
 2818SOL    HW2 8467   4.012   1.236   3.339
 2819SOL     OW 8468   4.314   1.487   2.353
 2819SOL    HW1 8469   4.356   1.429   2.283
 2819SOL    HW2 8470   4.270   1.566   2.309
 2820SOL     OW 8471   3.979   1.348   2.152
 2820SOL    HW1 8472   3.883   1.349   2.125
 2820SOL    HW2 8473   3.991   1.401   2.236
 2821SOL     OW 8474   3.829   1.013   3.588
 2821SOL    HW1 8475   3.752   0.980   3.642
 2821SOL    HW2 8476   3.914   0.983   3.630
 2822SOL     OW 8477   4.396   0.203   3.351
 2822SOL    HW1 8478   4.486   0.187   3.311
 2822SOL    HW2 8479   4.404   0.208   3.450
 2823SOL     OW 8480   3.799   0.345   1.895
 2823SOL    HW1 8481   3.707   0.317   1.866
 2823SOL    HW2 8482   3.830   0.422   1.839
 2824SOL     OW 8483   3.796   0.166   2.180
 2824SOL    HW1 8484   3.779   0.249   2.126
 2824SOL    HW2 8485   3.886   0.129   2.158
 2825SOL     OW 8486   4.337   0.842   3.293
 2825SOL    HW1 8487   4.393   0.923   3.276
 2825SOL    HW2 8488   4.396   0.762   3.296
 2826SOL     OW 8489   4.440   0.565   3.570
 2826SOL    HW1 8490   4.459   0.630   3.644
 2826SOL    HW2 8491   4.500   0.485   3.579
 2827SOL     OW 8492   4.114   1.741   3.422
 2827SOL    HW1 8493   4.023   1.782   3.420
 2827SOL    HW2 8494   4.107   1.647   3.454
 2828SOL     OW 8495   4.318   0.745   2.514
 2828SOL    HW1 8496   4.368   0.830   2.495
 2828SOL    HW2 8497   4.230   0.747   2.466
 2829SOL     OW 8498   4.385   1.790   2.815
 2829SOL    HW1 8499   4.339   1.878   2.802
 2829SOL    HW2 8500   4.484   1.802   2.808
 2830SOL     OW 8501   4.583   0.956   2.723
 2830SOL    HW1 8502   4.637   0.887   2.771
 2830SOL    HW2 8503   4.551   1.025   2.789
 2831SOL     OW 8504   3.945   1.314   3.706
 2831SOL    HW1 8505   3.880   1.241   3.685
 2831SOL    HW2 8506   3.949   1.328   3.804
 2832SOL     OW 8507   3.803   1.240   2.515
 2832SOL    HW1 8508   3.802   1.193   2.603
 2832SOL    HW2 8509   3.885   1.212   2.464
 2833SOL     OW 8510   4.396   1.391   3.486
 2833SOL    HW1 8511   4.318   1.341   3.524
 2833SOL    HW2 8512   4.393   1.486   3.517
 2834SOL     OW 8513   4.152   0.424   2.382
 2834SOL    HW1 8514   4.182   0.352   2.320
 2834SOL    HW2 8515   4.113   0.384   2.465
 2835SOL     OW 8516   4.041   0.547   3.142
 2835SOL    HW1 8517   4.079   0.488   3.214
 2835SOL    HW2 8518   4.081   0.521   3.054
 2836SOL     OW 8519   4.536   1.586   2.549
 2836SOL    HW1 8520   4.568   1.596   2.455
 2836SOL    HW2 8521   4.457   1.524   2.551
 2837SOL     OW 8522   4.725   0.034   3.016
 2837SOL    HW1 8523   4.662  -0.038   2.985
 2837SOL    HW2 8524   4.818  -0.002   3.016
 2838SOL     OW 8525   4.494   1.330   2.163
 2838SOL    HW1 8526   4.448   1.243   2.180
 2838SOL    HW2 8527   4.585   1.327   2.204
 2839SOL     OW 8528   4.342   1.567   3.146
 2839SOL    HW1 8529   4.337   1.649   3.203
 2839SOL    HW2 8530   4.431   1.564   3.101
 2840SOL     OW 8531   3.763   1.077   2.162
 2840SOL    HW1 8532   3.862   1.066   2.153
 2840SOL    HW2 8533   3.723   0.991   2.194
 2841SOL     OW 8534   4.599   1.646   2.199
 2841SOL    HW1 8535   4.522   1.611   2.145
 2841SOL    HW2 8536   4.567   1.717   2.261
 2842SOL     OW 8537   3.954   0.628   3.837
 2842SOL    HW1 8538   3.861   0.626   3.874
 2842SOL    HW2 8539   3.955   0.589   3.745
 2843SOL     OW 8540   3.949   0.275   4.720
 2843SOL    HW1 8541   3.984   0.258   4.812
 2843SOL    HW2 8542   3.861   0.230   4.708
 2844SOL     OW 8543   3.743   0.368   4.371
 2844SOL    HW1 8544   3.661   0.411   4.410
 2844SOL    HW2 8545   3.715   0.295   4.308
 2845SOL     OW 8546   4.492   1.144   4.747
 2845SOL    HW1 8547   4.414   1.161   4.807
 2845SOL    HW2 8548   4.526   1.231   4.711
 2846SOL     OW 8549   4.409   1.012   4.389
 2846SOL    HW1 8550   4.478   0.996   4.459
 2846SOL    HW2 8551   4.336   1.069   4.427
 2847SOL     OW 8552   3.955   1.713   4.207
 2847SOL    HW1 8553   3.989   1.790   4.261
 2847SOL    HW2 8554   3.999   1.713   4.117
 2848SOL     OW 8555   3.954   1.434   4.262
 2848SOL    HW1 8556   3.928   1.530   4.262
 2848SOL    HW2 8557   3.883   1.380   4.307
 2849SOL     OW 8558   3.964   1.091   4.610
 2849SOL    HW1 8559   3.978   1.007   4.662
 2849SOL    HW2 8560   3.909   1.155   4.665
 2850SOL     OW 8561   4.330   0.964   3.847
 2850SOL    HW1 8562   4.337   1.048   3.793
 2850SOL    HW2 8563   4.376   0.977   3.935
 2851SOL     OW 8564   3.846   0.643   4.287
 2851SOL    HW1 8565   3.801   0.555   4.304
 2851SOL    HW2 8566   3.845   0.697   4.371
 2852SOL     OW 8567   3.751   1.596   3.841
 2852SOL    HW1 8568   3.732   1.500   3.862
 2852SOL    HW2 8569   3.718   1.654   3.916
 2853SOL     OW 8570   4.337   1.365   4.450
 2853SOL    HW1 8571   4.288   1.278   4.459
 2853SOL    HW2 8572   4.314   1.408   4.363
 2854SOL     OW 8573   4.533   0.004   4.226
 2854SOL    HW1 8574   4.573   0.095   4.217
 2854SOL    HW2 8575   4.433   0.012   4.232
 2855SOL     OW 8576   4.322   0.729   3.994
 2855SOL    HW1 8577   4.346   0.798   3.926
 2855SOL    HW2 8578   4.244   0.762   4.048
 2856SOL     OW 8579   3.800   0.811   4.513
 2856SOL    HW1 8580   3.899   0.799   4.522
 2856SOL    HW2 8581   3.776   0.906   4.534
 2857SOL     OW 8582   4.589   0.348   3.919
 2857SOL    HW1 8583   4.648   0.411   3.870
 2857SOL    HW2 8584   4.608   0.254   3.890
 2858SOL     OW 8585   4.732   1.456   4.201
 2858SOL    HW1 8586   4.686   1.528   4.149
 2858SOL    HW2 8587   4.728   1.476   4.299
 2859SOL     OW 8588   4.075   1.801   4.577
 2859SOL    HW1 8589   4.125   1.715   4.583
 2859SOL    HW2 8590   4.140   1.878   4.574
 2860SOL     OW 8591   4.045   0.943   3.966
 2860SOL    HW1 8592   4.127   0.982   3.924
 2860SOL    HW2 8593   4.018   0.861   3.917
 2861SOL     OW 8594   4.835   1.776   3.961
 2861SOL    HW1 8595   4.775   1.714   4.011
 2861SOL    HW2 8596   4.866   1.732   3.876
 2862SOL     OW 8597   4.188   1.743   4.047
 2862SOL    HW1 8598   4.221   1.782   4.133
 2862SOL    HW2 8599   4.264   1.736   3.982
 2863SOL     OW 8600   4.106   0.700   4.204
 2863SOL    HW1 8601   4.151   0.610   4.201
 2863SOL    HW2 8602   4.012   0.689   4.237
 2864SOL     OW 8603   4.338   0.122   3.841
 2864SOL    HW1 8604   4.436   0.100   3.848
 2864SOL    HW2 8605   4.307   0.105   3.748
 2865SOL     OW 8606   4.527   1.402   4.648
 2865SOL    HW1 8607   4.617   1.416   4.606
 2865SOL    HW2 8608   4.456   1.404   4.577
 2866SOL     OW 8609   4.263   0.064   4.236
 2866SOL    HW1 8610   4.182   0.065   4.294
 2866SOL    HW2 8611   4.266   0.147   4.181
 2867SOL     OW 8612   4.021   0.035   3.895
 2867SOL    HW1 8613   4.070   0.119   3.874
 2867SOL    HW2 8614   4.083  -0.030   3.940
 2868SOL     OW 8615   4.183   1.152   4.465
 2868SOL    HW1 8616   4.112   1.125   4.530
 2868SOL    HW2 8617   4.157   1.124   4.372
 2869SOL     OW 8618   4.212   1.385   3.898
 2869SOL    HW1 8619   4.125   1.370   3.945
 2869SOL    HW2 8620   4.195   1.411   3.803
 2870SOL     OW 8621   4.251   0.256   4.052
 2870SOL    HW1 8622   4.278   0.197   3.977
 2870SOL    HW2 8623   4.251   0.351   4.021
 2871SOL     OW 8624   4.429   1.050   4.092
 2871SOL    HW1 8625   4.415   1.057   4.191
 2871SOL    HW2 8626   4.513   0.999   4.074
 2872SOL     OW 8627   4.091   1.100   4.225
 2872SOL    HW1 8628   4.084   1.183   4.169
 2872SOL    HW2 8629   4.095   1.020   4.165
 2873SOL     OW 8630   4.290   0.537   4.589
 2873SOL    HW1 8631   4.302   0.603   4.515
 2873SOL    HW2 8632   4.336   0.571   4.672
 2874SOL     OW 8633   4.456   0.634   4.788
 2874SOL    HW1 8634   4.515   0.608   4.712
 2874SOL    HW2 8635   4.428   0.730   4.777
 2875SOL     OW 8636   4.031   0.063   4.342
 2875SOL    HW1 8637   4.020   0.157   4.375
 2875SOL    HW2 8638   4.026   0.000   4.419
 2876SOL     OW 8639   4.747   0.766   4.690
 2876SOL    HW1 8640   4.762   0.787   4.786
 2876SOL    HW2 8641   4.717   0.671   4.681
 2877SOL     OW 8642   3.732   1.326   3.924
 2877SOL    HW1 8643   3.639   1.347   3.893
 2877SOL    HW2 8644   3.742   1.227   3.937
 2878SOL     OW 8645   3.812   1.801   4.651
 2878SOL    HW1 8646   3.770   1.715   4.624
 2878SOL    HW2 8647   3.906   1.804   4.617
 2879SOL     OW 8648   4.228   1.568   4.634
 2879SOL    HW1 8649   4.294   1.642   4.643
 2879SOL    HW2 8650   4.272   1.489   4.592
 2880SOL     OW 8651   4.539   0.572   4.049
 2880SOL    HW1 8652   4.546   0.483   4.003
 2880SOL    HW2 8653   4.445   0.606   4.041
 2881SOL     OW 8654   4.197   0.500   3.915
 2881SOL    HW1 8655   4.258   0.580   3.919
 2881SOL    HW2 8656   4.102   0.531   3.922
 2882SOL     OW 8657   4.627   0.086   3.857
 2882SOL    HW1 8658   4.678   0.087   3.771
 2882SOL    HW2 8659   4.683   0.044   3.928
 2883SOL     OW 8660   4.396   1.616   3.878
 2883SOL    HW1 8661   4.405   1.626   3.779
 2883SOL    HW2 8662   4.356   1.527   3.899
 2884SOL     OW 8663   3.987   0.326   4.444
 2884SOL    HW1 8664   3.908   0.377   4.410
 2884SOL    HW2 8665   3.978   0.311   4.542
 2885SOL     OW 8666   4.314   1.487   4.215
 2885SOL    HW1 8667   4.356   1.429   4.145
 2885SOL    HW2 8668   4.270   1.566   4.171
 2886SOL     OW 8669   3.979   1.348   4.014
 2886SOL    HW1 8670   3.883   1.349   3.987
 2886SOL    HW2 8671   3.991   1.401   4.098
 2887SOL     OW 8672   3.799   0.345   3.757
 2887SOL    HW1 8673   3.707   0.317   3.728
 2887SOL    HW2 8674   3.830   0.422   3.701
 2888SOL     OW 8675   3.796   0.166   4.042
 2888SOL    HW1 8676   3.779   0.249   3.988
 2888SOL    HW2 8677   3.886   0.129   4.020
 2889SOL     OW 8678   4.318   0.745   4.376
 2889SOL    HW1 8679   4.368   0.830   4.357
 2889SOL    HW2 8680   4.230   0.747   4.328
 2890SOL     OW 8681   4.385   1.790   4.677
 2890SOL    HW1 8682   4.339   1.878   4.664
 2890SOL    HW2 8683   4.484   1.802   4.670
 2891SOL     OW 8684   4.583   0.956   4.585
 2891SOL    HW1 8685   4.637   0.887   4.633
 2891SOL    HW2 8686   4.551   1.025   4.651
 2892SOL     OW 8687   3.803   1.240   4.377
 2892SOL    HW1 8688   3.802   1.193   4.465
 2892SOL    HW2 8689   3.885   1.212   4.326
 2893SOL     OW 8690   4.152   0.424   4.244
 2893SOL    HW1 8691   4.182   0.352   4.182
 2893SOL    HW2 8692   4.113   0.384   4.327
 2894SOL     OW 8693   4.536   1.586   4.411
 2894SOL    HW1 8694   4.568   1.596   4.317
 2894SOL    HW2 8695   4.457   1.524   4.413
 2895SOL     OW 8696   4.494   1.330   4.025
 2895SOL    HW1 8697   4.448   1.243   4.042
 2895SOL    HW2 8698   4.585   1.327   4.066
 2896SOL     OW 8699   3.763   1.077   4.024
 2896SOL    HW1 8700   3.862   1.066   4.015
 2896SOL    HW2 8701   3.723   0.991   4.056
 2897SOL     OW 8702   4.599   1.646   4.061
 2897SOL    HW1 8703   4.522   1.611   4.007
 2897SOL    HW2 8704   4.567   1.717   4.123
 2898SOL     OW 8705   3.954   2.490   0.113
 2898SOL    HW1 8706   3.861   2.488   0.150
 2898SOL    HW2 8707   3.955   2.451   0.021
 2899SOL     OW 8708   3.949   2.137   0.996
 2899SOL    HW1 8709   3.984   2.120   1.088
 2899SOL    HW2 8710   3.861   2.092   0.984
 2900SOL     OW 8711   3.743   2.230   0.647
 2900SOL    HW1 8712   3.661   2.273   0.686
 2900SOL    HW2 8713   3.715   2.157   0.584
 2901SOL     OW 8714   4.293   3.137   1.165
 2901SOL    HW1 8715   4.200   3.130   1.128
 2901SOL    HW2 8716   4.304   3.226   1.209
 2902SOL     OW 8717   4.492   3.006   1.023
 2902SOL    HW1 8718   4.414   3.023   1.083
 2902SOL    HW2 8719   4.526   3.093   0.987
 2903SOL     OW 8720   4.574   2.660   1.823
 2903SOL    HW1 8721   4.570   2.736   1.888
 2903SOL    HW2 8722   4.596   2.696   1.732
 2904SOL     OW 8723   4.409   2.874   0.665
 2904SOL    HW1 8724   4.478   2.858   0.735
 2904SOL    HW2 8725   4.336   2.931   0.703
 2905SOL     OW 8726   4.410   3.023   1.803
 2905SOL    HW1 8727   4.470   3.102   1.817
 2905SOL    HW2 8728   4.324   3.054   1.762
 2906SOL     OW 8729   4.059   3.297   1.061
 2906SOL    HW1 8730   3.981   3.266   1.008
 2906SOL    HW2 8731   4.117   3.355   1.004
 2907SOL     OW 8732   4.162   2.254   1.499
 2907SOL    HW1 8733   4.244   2.198   1.508
 2907SOL    HW2 8734   4.081   2.196   1.503
 2908SOL     OW 8735   3.955   3.575   0.483
 2908SOL    HW1 8736   3.989   3.652   0.537
 2908SOL    HW2 8737   3.999   3.575   0.393
 2909SOL     OW 8738   3.954   3.296   0.538
 2909SOL    HW1 8739   3.928   3.392   0.538
 2909SOL    HW2 8740   3.883   3.242   0.583
 2910SOL     OW 8741   3.964   2.953   0.886
 2910SOL    HW1 8742   3.978   2.869   0.938
 2910SOL    HW2 8743   3.909   3.017   0.941
 2911SOL     OW 8744   4.344   3.648   1.439
 2911SOL    HW1 8745   4.252   3.631   1.474
 2911SOL    HW2 8746   4.372   3.740   1.465
 2912SOL     OW 8747   4.330   2.826   0.123
 2912SOL    HW1 8748   4.337   2.910   0.069
 2912SOL    HW2 8749   4.376   2.839   0.211
 2913SOL     OW 8750   3.846   2.505   0.563
 2913SOL    HW1 8751   3.801   2.417   0.580
 2913SOL    HW2 8752   3.845   2.559   0.647
 2914SOL     OW 8753   3.751   3.458   0.117
 2914SOL    HW1 8754   3.732   3.362   0.138
 2914SOL    HW2 8755   3.718   3.516   0.192
 2915SOL     OW 8756   3.837   2.599   1.597
 2915SOL    HW1 8757   3.925   2.586   1.642
 2915SOL    HW2 8758   3.824   2.696   1.575
 2916SOL     OW 8759   4.337   3.227   0.726
 2916SOL    HW1 8760   4.288   3.140   0.735
 2916SOL    HW2 8761   4.314   3.270   0.639
 2917SOL     OW 8762   4.533   1.866   0.502
 2917SOL    HW1 8763   4.573   1.957   0.493
 2917SOL    HW2 8764   4.433   1.874   0.508
 2918SOL     OW 8765   3.921   2.838   1.264
 2918SOL    HW1 8766   4.010   2.793   1.250
 2918SOL    HW2 8767   3.848   2.773   1.245
 2919SOL     OW 8768   4.041   2.113   1.801
 2919SOL    HW1 8769   4.112   2.184   1.807
 2919SOL    HW2 8770   3.953   2.152   1.829
 2920SOL     OW 8771   4.322   2.591   0.270
 2920SOL    HW1 8772   4.346   2.660   0.202
 2920SOL    HW2 8773   4.244   2.624   0.324
 2921SOL     OW 8774   4.531   2.467   1.465
 2921SOL    HW1 8775   4.484   2.464   1.554
 2921SOL    HW2 8776   4.480   2.412   1.399
 2922SOL     OW 8777   3.800   2.673   0.789
 2922SOL    HW1 8778   3.899   2.661   0.798
 2922SOL    HW2 8779   3.776   2.768   0.810
 2923SOL     OW 8780   3.854   3.683   1.571
 2923SOL    HW1 8781   3.844   3.668   1.670
 2923SOL    HW2 8782   3.768   3.719   1.535
 2924SOL     OW 8783   4.589   2.210   0.195
 2924SOL    HW1 8784   4.648   2.273   0.146
 2924SOL    HW2 8785   4.608   2.116   0.166
 2925SOL     OW 8786   4.274   2.058   0.885
 2925SOL    HW1 8787   4.269   2.053   0.985
 2925SOL    HW2 8788   4.276   2.154   0.856
 2926SOL     OW 8789   4.732   3.318   0.477
 2926SOL    HW1 8790   4.686   3.390   0.425
 2926SOL    HW2 8791   4.728   3.338   0.575
 2927SOL     OW 8792   4.075   3.663   0.853
 2927SOL    HW1 8793   4.125   3.577   0.859
 2927SOL    HW2 8794   4.140   3.740   0.850
 2928SOL     OW 8795   4.045   2.805   0.242
 2928SOL    HW1 8796   4.127   2.844   0.200
 2928SOL    HW2 8797   4.018   2.723   0.193
 2929SOL     OW 8798   4.185   3.128   1.727
 2929SOL    HW1 8799   4.135   3.129   1.641
 2929SOL    HW2 8800   4.122   3.110   1.803
 2930SOL     OW 8801   4.835   3.638   0.237
 2930SOL    HW1 8802   4.775   3.576   0.287
 2930SOL    HW2 8803   4.866   3.594   0.152
 2931SOL     OW 8804   3.926   2.147   1.498
 2931SOL    HW1 8805   3.846   2.207   1.485
 2931SOL    HW2 8806   3.916   2.098   1.584
 2932SOL     OW 8807   4.188   3.605   0.323
 2932SOL    HW1 8808   4.221   3.644   0.409
 2932SOL    HW2 8809   4.264   3.598   0.258
 2933SOL     OW 8810   3.973   3.647   1.241
 2933SOL    HW1 8811   4.030   3.582   1.291
 2933SOL    HW2 8812   3.957   3.614   1.148
 2934SOL     OW 8813   4.106   2.562   0.480
 2934SOL    HW1 8814   4.151   2.472   0.477
 2934SOL    HW2 8815   4.012   2.551   0.513
 2935SOL     OW 8816   4.505   2.126   1.749
 2935SOL    HW1 8817   4.572   2.065   1.792
 2935SOL    HW2 8818   4.432   2.145   1.814
 2936SOL     OW 8819   4.527   3.264   0.924
 2936SOL    HW1 8820   4.617   3.278   0.882
 2936SOL    HW2 8821   4.456   3.266   0.853
 2937SOL     OW 8822   4.646   2.365   0.899
 2937SOL    HW1 8823   4.621   2.356   0.803
 2937SOL    HW2 8824   4.694   2.283   0.930
 2938SOL     OW 8825   4.263   1.926   0.512
 2938SOL    HW1 8826   4.182   1.927   0.570
 2938SOL    HW2 8827   4.266   2.009   0.457
 2939SOL     OW 8828   4.021   1.897   0.171
 2939SOL    HW1 8829   4.070   1.981   0.150
 2939SOL    HW2 8830   4.083   1.832   0.216
 2940SOL     OW 8831   4.183   3.014   0.741
 2940SOL    HW1 8832   4.112   2.987   0.806
 2940SOL    HW2 8833   4.157   2.986   0.648
 2941SOL     OW 8834   3.802   2.418   1.386
 2941SOL    HW1 8835   3.894   2.417   1.345
 2941SOL    HW2 8836   3.796   2.492   1.453
 2942SOL     OW 8837   4.285   2.084   1.147
 2942SOL    HW1 8838   4.323   2.000   1.184
 2942SOL    HW2 8839   4.197   2.103   1.191
 2943SOL     OW 8840   4.212   3.247   0.174
 2943SOL    HW1 8841   4.125   3.232   0.221
 2943SOL    HW2 8842   4.195   3.273   0.079
 2944SOL     OW 8843   4.251   2.118   0.328
 2944SOL    HW1 8844   4.278   2.059   0.253
 2944SOL    HW2 8845   4.251   2.213   0.297
 2945SOL     OW 8846   4.639   1.951   1.402
 2945SOL    HW1 8847   4.664   1.931   1.307
 2945SOL    HW2 8848   4.711   2.007   1.444
 2946SOL     OW 8849   4.429   2.912   0.368
 2946SOL    HW1 8850   4.415   2.919   0.467
 2946SOL    HW2 8851   4.513   2.861   0.350
 2947SOL     OW 8852   4.134   2.675   1.251
 2947SOL    HW1 8853   4.220   2.687   1.301
 2947SOL    HW2 8854   4.092   2.588   1.278
 2948SOL     OW 8855   3.788   3.426   1.331
 2948SOL    HW1 8856   3.742   3.508   1.297
 2948SOL    HW2 8857   3.886   3.445   1.340
 2949SOL     OW 8858   4.091   2.962   0.501
 2949SOL    HW1 8859   4.084   3.045   0.445
 2949SOL    HW2 8860   4.095   2.882   0.441
 2950SOL     OW 8861   4.290   2.399   0.865
 2950SOL    HW1 8862   4.302   2.465   0.791
 2950SOL    HW2 8863   4.336   2.433   0.948
 2951SOL     OW 8864   4.078   3.372   1.329
 2951SOL    HW1 8865   4.057   3.328   1.242
 2951SOL    HW2 8866   4.175   3.398   1.332
 2952SOL     OW 8867   4.126   2.613   1.598
 2952SOL    HW1 8868   4.194   2.668   1.551
 2952SOL    HW2 8869   4.166   2.525   1.625
 2953SOL     OW 8870   4.228   1.912   1.740
 2953SOL    HW1 8871   4.186   1.855   1.670
 2953SOL    HW2 8872   4.162   1.981   1.772
 2954SOL     OW 8873   4.297   2.732   1.029
 2954SOL    HW1 8874   4.341   2.821   1.020
 2954SOL    HW2 8875   4.234   2.732   1.106
 2955SOL     OW 8876   4.031   2.075   1.231
 2955SOL    HW1 8877   4.008   2.112   1.321
 2955SOL    HW2 8878   4.001   1.980   1.225
 2956SOL     OW 8879   3.761   3.172   1.282
 2956SOL    HW1 8880   3.814   3.123   1.350
 2956SOL    HW2 8881   3.783   3.270   1.287
 2957SOL     OW 8882   4.456   2.496   1.064
 2957SOL    HW1 8883   4.515   2.470   0.988
 2957SOL    HW2 8884   4.428   2.592   1.053
 2958SOL     OW 8885   4.031   1.925   0.618
 2958SOL    HW1 8886   4.020   2.019   0.651
 2958SOL    HW2 8887   4.026   1.862   0.695
 2959SOL     OW 8888   4.747   2.628   0.966
 2959SOL    HW1 8889   4.762   2.649   1.062
 2959SOL    HW2 8890   4.717   2.533   0.957
 2960SOL     OW 8891   4.704   3.435   1.700
 2960SOL    HW1 8892   4.684   3.479   1.612
 2960SOL    HW2 8893   4.743   3.344   1.684
 2961SOL     OW 8894   4.074   2.760   1.804
 2961SOL    HW1 8895   4.150   2.804   1.852
 2961SOL    HW2 8896   4.109   2.713   1.722
 2962SOL     OW 8897   4.043   2.672   0.949
 2962SOL    HW1 8898   4.136   2.708   0.954
 2962SOL    HW2 8899   4.037   2.587   1.001
 2963SOL     OW 8900   4.063   2.371   1.006
 2963SOL    HW1 8901   4.011   2.288   0.989
 2963SOL    HW2 8902   4.140   2.376   0.942
 2964SOL     OW 8903   3.732   3.188   0.200
 2964SOL    HW1 8904   3.639   3.209   0.169
 2964SOL    HW2 8905   3.742   3.089   0.213
 2965SOL     OW 8906   3.812   3.663   0.927
 2965SOL    HW1 8907   3.770   3.577   0.900
 2965SOL    HW2 8908   3.906   3.666   0.893
 2966SOL     OW 8909   4.228   3.430   0.910
 2966SOL    HW1 8910   4.294   3.504   0.919
 2966SOL    HW2 8911   4.272   3.351   0.868
 2967SOL     OW 8912   3.764   2.406   1.114
 2967SOL    HW1 8913   3.849   2.373   1.073
 2967SOL    HW2 8914   3.777   2.421   1.212
 2968SOL     OW 8915   3.913   2.382   1.722
 2968SOL    HW1 8916   3.972   2.342   1.652
 2968SOL    HW2 8917   3.855   2.453   1.681
 2969SOL     OW 8918   4.539   2.434   0.325
 2969SOL    HW1 8919   4.546   2.345   0.279
 2969SOL    HW2 8920   4.445   2.468   0.317
 2970SOL     OW 8921   3.976   3.426   1.744
 2970SOL    HW1 8922   3.946   3.483   1.820
 2970SOL    HW2 8923   3.969   3.329   1.770
 2971SOL     OW 8924   4.395   2.326   1.269
 2971SOL    HW1 8925   4.361   2.237   1.239
 2971SOL    HW2 8926   4.421   2.380   1.189
 2972SOL     OW 8927   4.197   2.362   0.191
 2972SOL    HW1 8928   4.258   2.442   0.195
 2972SOL    HW2 8929   4.102   2.393   0.198
 2973SOL     OW 8930   3.883   2.999   1.466
 2973SOL    HW1 8931   3.905   2.938   1.542
 2973SOL    HW2 8932   3.893   2.950   1.380
 2974SOL     OW 8933   3.807   3.120   1.022
 2974SOL    HW1 8934   3.802   3.119   1.122
 2974SOL    HW2 8935   3.724   3.079   0.984
 2975SOL     OW 8936   4.412   3.524   1.716
 2975SOL    HW1 8937   4.356   3.605   1.725
 2975SOL    HW2 8938   4.464   3.528   1.630
 2976SOL     OW 8939   4.627   1.948   0.133
 2976SOL    HW1 8940   4.678   1.949   0.047
 2976SOL    HW2 8941   4.683   1.906   0.204
 2977SOL     OW 8942   3.854   3.656   1.851
 2977SOL    HW1 8943   3.813   3.582   1.904
 2977SOL    HW2 8944   3.918   3.707   1.909
 2978SOL     OW 8945   4.554   3.135   1.422
 2978SOL    HW1 8946   4.549   3.168   1.517
 2978SOL    HW2 8947   4.468   3.154   1.376
 2979SOL     OW 8948   4.396   3.478   0.154
 2979SOL    HW1 8949   4.405   3.488   0.055
 2979SOL    HW2 8950   4.356   3.389   0.175
 2980SOL     OW 8951   3.987   2.188   0.720
 2980SOL    HW1 8952   3.908   2.239   0.686
 2980SOL    HW2 8953   3.978   2.173   0.818
 2981SOL     OW 8954   4.918   3.474   0.031
 2981SOL    HW1 8955   4.924   3.381   0.068
 2981SOL    HW2 8956   4.859   3.474  -0.049
 2982SOL     OW 8957   4.546   2.864   1.372
 2982SOL    HW1 8958   4.586   2.863   1.280
 2982SOL    HW2 8959   4.556   2.956   1.412
 2983SOL     OW 8960   4.096   3.150   1.490
 2983SOL    HW1 8961   4.083   3.243   1.456
 2983SOL    HW2 8962   4.012   3.098   1.477
 2984SOL     OW 8963   4.314   3.349   0.491
 2984SOL    HW1 8964   4.356   3.291   0.421
 2984SOL    HW2 8965   4.270   3.428   0.447
 2985SOL     OW 8966   3.979   3.210   0.290
 2985SOL    HW1 8967   3.883   3.211   0.263
 2985SOL    HW2 8968   3.991   3.263   0.374
 2986SOL     OW 8969   3.829   2.875   1.726
 2986SOL    HW1 8970   3.752   2.842   1.780
 2986SOL    HW2 8971   3.914   2.845   1.768
 2987SOL     OW 8972   4.396   2.065   1.489
 2987SOL    HW1 8973   4.486   2.049   1.449
 2987SOL    HW2 8974   4.404   2.070   1.588
 2988SOL     OW 8975   3.796   2.028   0.318
 2988SOL    HW1 8976   3.779   2.111   0.264
 2988SOL    HW2 8977   3.886   1.991   0.296
 2989SOL     OW 8978   4.337   2.704   1.431
 2989SOL    HW1 8979   4.393   2.785   1.414
 2989SOL    HW2 8980   4.396   2.624   1.434
 2990SOL     OW 8981   4.440   2.427   1.708
 2990SOL    HW1 8982   4.459   2.492   1.782
 2990SOL    HW2 8983   4.500   2.347   1.717
 2991SOL     OW 8984   4.114   3.603   1.560
 2991SOL    HW1 8985   4.023   3.644   1.558
 2991SOL    HW2 8986   4.107   3.509   1.592
 2992SOL     OW 8987   4.318   2.607   0.652
 2992SOL    HW1 8988   4.368   2.692   0.633
 2992SOL    HW2 8989   4.230   2.609   0.604
 2993SOL     OW 8990   4.385   3.652   0.953
 2993SOL    HW1 8991   4.339   3.740   0.940
 2993SOL    HW2 8992   4.484   3.664   0.946
 2994SOL     OW 8993   4.583   2.818   0.861
 2994SOL    HW1 8994   4.637   2.749   0.909
 2994SOL    HW2 8995   4.551   2.887   0.927
 2995SOL     OW 8996   3.945   3.176   1.844
 2995SOL    HW1 8997   3.880   3.103   1.823
 2995SOL    HW2 8998   3.949   3.190   1.942
 2996SOL     OW 8999   3.803   3.102   0.653
 2996SOL    HW1 9000   3.802   3.055   0.741
 2996SOL    HW2 9001   3.885   3.074   0.602
 2997SOL     OW 9002   4.396   3.253   1.624
 2997SOL    HW1 9003   4.318   3.203   1.662
 2997SOL    HW2 9004   4.393   3.348   1.655
 2998SOL     OW 9005   4.152   2.286   0.520
 2998SOL    HW1 9006   4.182   2.214   0.458
 2998SOL    HW2 9007   4.113   2.246   0.603
 2999SOL     OW 9008   4.041   2.409   1.280
 2999SOL    HW1 9009   4.079   2.350   1.352
 2999SOL    HW2 9010   4.081   2.383   1.192
 3000SOL     OW 9011   4.536   3.448   0.687
 3000SOL    HW1 9012   4.568   3.458   0.593
 3000SOL    HW2 9013   4.457   3.386   0.689
 3001SOL     OW 9014   4.725   1.896   1.154
 3001SOL    HW1 9015   4.662   1.824   1.123
 3001SOL    HW2 9016   4.818   1.860   1.154
 3002SOL     OW 9017   4.494   3.192   0.301
 3002SOL    HW1 9018   4.448   3.105   0.318
 3002SOL    HW2 9019   4.585   3.189   0.342
 3003SOL     OW 9020   4.342   3.429   1.284
 3003SOL    HW1 9021   4.337   3.511   1.341
 3003SOL    HW2 9022   4.431   3.426   1.239
 3004SOL     OW 9023   3.763   2.939   0.300
 3004SOL    HW1 9024   3.862   2.928   0.291
 3004SOL    HW2 9025   3.723   2.853   0.332
 3005SOL     OW 9026   4.599   3.508   0.337
 3005SOL    HW1 9027   4.522   3.473   0.283
 3005SOL    HW2 9028   4.567   3.579   0.399
 3006SOL     OW 9029   3.954   2.490   1.975
 3006SOL    HW1 9030   3.861   2.488   2.012
 3006SOL    HW2 9031   3.955   2.451   1.883
 3007SOL     OW 9032   3.949   2.137   2.858
 3007SOL    HW1 9033   3.984   2.120   2.950
 3007SOL    HW2 9034   3.861   2.092   2.846
 3008SOL     OW 9035   3.743   2.230   2.509
 3008SOL    HW1 9036   3.661   2.273   2.548
 3008SOL    HW2 9037   3.715   2.157   2.446
 3009SOL     OW 9038   4.293   3.137   3.027
 3009SOL    HW1 9039   4.200   3.130   2.990
 3009SOL    HW2 9040   4.304   3.226   3.071
 3010SOL     OW 9041   4.492   3.006   2.885
 3010SOL    HW1 9042   4.414   3.023   2.945
 3010SOL    HW2 9043   4.526   3.093   2.849
 3011SOL     OW 9044   4.574   2.660   3.685
 3011SOL    HW1 9045   4.570   2.736   3.750
 3011SOL    HW2 9046   4.596   2.696   3.594
 3012SOL     OW 9047   4.409   2.874   2.527
 3012SOL    HW1 9048   4.478   2.858   2.597
 3012SOL    HW2 9049   4.336   2.931   2.565
 3013SOL     OW 9050   4.410   3.023   3.665
 3013SOL    HW1 9051   4.470   3.102   3.679
 3013SOL    HW2 9052   4.324   3.054   3.624
 3014SOL     OW 9053   4.059   3.297   2.923
 3014SOL    HW1 9054   3.981   3.266   2.870
 3014SOL    HW2 9055   4.117   3.355   2.866
 3015SOL     OW 9056   4.162   2.254   3.361
 3015SOL    HW1 9057   4.244   2.198   3.370
 3015SOL    HW2 9058   4.081   2.196   3.365
 3016SOL     OW 9059   3.955   3.575   2.345
 3016SOL    HW1 9060   3.989   3.652   2.399
 3016SOL    HW2 9061   3.999   3.575   2.255
 3017SOL     OW 9062   3.954   3.296   2.400
 3017SOL    HW1 9063   3.928   3.392   2.400
 3017SOL    HW2 9064   3.883   3.242   2.445
 3018SOL     OW 9065   3.964   2.953   2.748
 3018SOL    HW1 9066   3.978   2.869   2.800
 3018SOL    HW2 9067   3.909   3.017   2.803
 3019SOL     OW 9068   4.344   3.648   3.301
 3019SOL    HW1 9069   4.252   3.631   3.336
 3019SOL    HW2 9070   4.372   3.740   3.327
 3020SOL     OW 9071   4.330   2.826   1.985
 3020SOL    HW1 9072   4.337   2.910   1.931
 3020SOL    HW2 9073   4.376   2.839   2.073
 3021SOL     OW 9074   3.846   2.505   2.425
 3021SOL    HW1 9075   3.801   2.417   2.442
 3021SOL    HW2 9076   3.845   2.559   2.509
 3022SOL     OW 9077   3.751   3.458   1.979
 3022SOL    HW1 9078   3.732   3.362   2.000
 3022SOL    HW2 9079   3.718   3.516   2.054
 3023SOL     OW 9080   3.837   2.599   3.459
 3023SOL    HW1 9081   3.925   2.586   3.504
 3023SOL    HW2 9082   3.824   2.696   3.437
 3024SOL     OW 9083   4.337   3.227   2.588
 3024SOL    HW1 9084   4.288   3.140   2.597
 3024SOL    HW2 9085   4.314   3.270   2.501
 3025SOL     OW 9086   4.533   1.866   2.364
 3025SOL    HW1 9087   4.573   1.957   2.355
 3025SOL    HW2 9088   4.433   1.874   2.370
 3026SOL     OW 9089   3.921   2.838   3.126
 3026SOL    HW1 9090   4.010   2.793   3.112
 3026SOL    HW2 9091   3.848   2.773   3.107
 3027SOL     OW 9092   4.041   2.113   3.663
 3027SOL    HW1 9093   4.112   2.184   3.669
 3027SOL    HW2 9094   3.953   2.152   3.691
 3028SOL     OW 9095   4.322   2.591   2.132
 3028SOL    HW1 9096   4.346   2.660   2.064
 3028SOL    HW2 9097   4.244   2.624   2.186
 3029SOL     OW 9098   4.531   2.467   3.327
 3029SOL    HW1 9099   4.484   2.464   3.416
 3029SOL    HW2 9100   4.480   2.412   3.261
 3030SOL     OW 9101   3.800   2.673   2.651
 3030SOL    HW1 9102   3.899   2.661   2.660
 3030SOL    HW2 9103   3.776   2.768   2.672
 3031SOL     OW 9104   3.854   3.683   3.433
 3031SOL    HW1 9105   3.844   3.668   3.532
 3031SOL    HW2 9106   3.768   3.719   3.397
 3032SOL     OW 9107   4.589   2.210   2.057
 3032SOL    HW1 9108   4.648   2.273   2.008
 3032SOL    HW2 9109   4.608   2.116   2.028
 3033SOL     OW 9110   4.274   2.058   2.747
 3033SOL    HW1 9111   4.269   2.053   2.847
 3033SOL    HW2 9112   4.276   2.154   2.718
 3034SOL     OW 9113   4.732   3.318   2.339
 3034SOL    HW1 9114   4.686   3.390   2.287
 3034SOL    HW2 9115   4.728   3.338   2.437
 3035SOL     OW 9116   4.075   3.663   2.715
 3035SOL    HW1 9117   4.125   3.577   2.721
 3035SOL    HW2 9118   4.140   3.740   2.712
 3036SOL     OW 9119   4.045   2.805   2.104
 3036SOL    HW1 9120   4.127   2.844   2.062
 3036SOL    HW2 9121   4.018   2.723   2.055
 3037SOL     OW 9122   4.185   3.128   3.589
 3037SOL    HW1 9123   4.135   3.129   3.503
 3037SOL    HW2 9124   4.122   3.110   3.665
 3038SOL     OW 9125   4.835   3.638   2.099
 3038SOL    HW1 9126   4.775   3.576   2.149
 3038SOL    HW2 9127   4.866   3.594   2.014
 3039SOL     OW 9128   3.926   2.147   3.360
 3039SOL    HW1 9129   3.846   2.207   3.347
 3039SOL    HW2 9130   3.916   2.098   3.446
 3040SOL     OW 9131   4.188   3.605   2.185
 3040SOL    HW1 9132   4.221   3.644   2.271
 3040SOL    HW2 9133   4.264   3.598   2.120
 3041SOL     OW 9134   3.973   3.647   3.103
 3041SOL    HW1 9135   4.030   3.582   3.153
 3041SOL    HW2 9136   3.957   3.614   3.010
 3042SOL     OW 9137   4.106   2.562   2.342
 3042SOL    HW1 9138   4.151   2.472   2.339
 3042SOL    HW2 9139   4.012   2.551   2.375
 3043SOL     OW 9140   4.338   1.984   1.979
 3043SOL    HW1 9141   4.436   1.962   1.986
 3043SOL    HW2 9142   4.307   1.967   1.886
 3044SOL     OW 9143   4.505   2.126   3.611
 3044SOL    HW1 9144   4.572   2.065   3.654
 3044SOL    HW2 9145   4.432   2.145   3.676
 3045SOL     OW 9146   4.527   3.264   2.786
 3045SOL    HW1 9147   4.617   3.278   2.744
 3045SOL    HW2 9148   4.456   3.266   2.715
 3046SOL     OW 9149   4.646   2.365   2.761
 3046SOL    HW1 9150   4.621   2.356   2.665
 3046SOL    HW2 9151   4.694   2.283   2.792
 3047SOL     OW 9152   4.263   1.926   2.374
 3047SOL    HW1 9153   4.182   1.927   2.432
 3047SOL    HW2 9154   4.266   2.009   2.319
 3048SOL     OW 9155   4.021   1.897   2.033
 3048SOL    HW1 9156   4.070   1.981   2.012
 3048SOL    HW2 9157   4.083   1.832   2.078
 3049SOL     OW 9158   4.183   3.014   2.603
 3049SOL    HW1 9159   4.112   2.987   2.668
 3049SOL    HW2 9160   4.157   2.986   2.510
 3050SOL     OW 9161   3.802   2.418   3.248
 3050SOL    HW1 9162   3.894   2.417   3.207
 3050SOL    HW2 9163   3.796   2.492   3.315
 3051SOL     OW 9164   4.285   2.084   3.009
 3051SOL    HW1 9165   4.323   2.000   3.046
 3051SOL    HW2 9166   4.197   2.103   3.053
 3052SOL     OW 9167   4.212   3.247   2.036
 3052SOL    HW1 9168   4.125   3.232   2.083
 3052SOL    HW2 9169   4.195   3.273   1.941
 3053SOL     OW 9170   4.251   2.118   2.190
 3053SOL    HW1 9171   4.278   2.059   2.115
 3053SOL    HW2 9172   4.251   2.213   2.159
 3054SOL     OW 9173   4.639   1.951   3.264
 3054SOL    HW1 9174   4.664   1.931   3.169
 3054SOL    HW2 9175   4.711   2.007   3.306
 3055SOL     OW 9176   4.429   2.912   2.230
 3055SOL    HW1 9177   4.415   2.919   2.329
 3055SOL    HW2 9178   4.513   2.861   2.212
 3056SOL     OW 9179   4.134   2.675   3.113
 3056SOL    HW1 9180   4.220   2.687   3.163
 3056SOL    HW2 9181   4.092   2.588   3.140
 3057SOL     OW 9182   3.788   3.426   3.193
 3057SOL    HW1 9183   3.742   3.508   3.159
 3057SOL    HW2 9184   3.886   3.445   3.202
 3058SOL     OW 9185   4.091   2.962   2.363
 3058SOL    HW1 9186   4.084   3.045   2.307
 3058SOL    HW2 9187   4.095   2.882   2.303
 3059SOL     OW 9188   4.290   2.399   2.727
 3059SOL    HW1 9189   4.302   2.465   2.653
 3059SOL    HW2 9190   4.336   2.433   2.810
 3060SOL     OW 9191   4.078   3.372   3.191
 3060SOL    HW1 9192   4.057   3.328   3.104
 3060SOL    HW2 9193   4.175   3.398   3.194
 3061SOL     OW 9194   4.126   2.613   3.460
 3061SOL    HW1 9195   4.194   2.668   3.413
 3061SOL    HW2 9196   4.166   2.525   3.487
 3062SOL     OW 9197   4.228   1.912   3.602
 3062SOL    HW1 9198   4.186   1.855   3.532
 3062SOL    HW2 9199   4.162   1.981   3.634
 3063SOL     OW 9200   4.297   2.732   2.891
 3063SOL    HW1 9201   4.341   2.821   2.882
 3063SOL    HW2 9202   4.234   2.732   2.968
 3064SOL     OW 9203   4.031   2.075   3.093
 3064SOL    HW1 9204   4.008   2.112   3.183
 3064SOL    HW2 9205   4.001   1.980   3.087
 3065SOL     OW 9206   3.761   3.172   3.144
 3065SOL    HW1 9207   3.814   3.123   3.212
 3065SOL    HW2 9208   3.783   3.270   3.149
 3066SOL     OW 9209   4.456   2.496   2.926
 3066SOL    HW1 9210   4.515   2.470   2.850
 3066SOL    HW2 9211   4.428   2.592   2.915
 3067SOL     OW 9212   4.031   1.925   2.480
 3067SOL    HW1 9213   4.020   2.019   2.513
 3067SOL    HW2 9214   4.026   1.862   2.557
 3068SOL     OW 9215   4.747   2.628   2.828
 3068SOL    HW1 9216   4.762   2.649   2.924
 3068SOL    HW2 9217   4.717   2.533   2.819
 3069SOL     OW 9218   4.704   3.435   3.562
 3069SOL    HW1 9219   4.684   3.479   3.474
 3069SOL    HW2 9220   4.743   3.344   3.546
 3070SOL     OW 9221   4.074   2.760   3.666
 3070SOL    HW1 9222   4.150   2.804   3.714
 3070SOL    HW2 9223   4.109   2.713   3.584
 3071SOL     OW 9224   4.043   2.672   2.811
 3071SOL    HW1 9225   4.136   2.708   2.816
 3071SOL    HW2 9226   4.037   2.587   2.863
 3072SOL     OW 9227   4.063   2.371   2.868
 3072SOL    HW1 9228   4.011   2.288   2.851
 3072SOL    HW2 9229   4.140   2.376   2.804
 3073SOL     OW 9230   3.732   3.188   2.062
 3073SOL    HW1 9231   3.639   3.209   2.031
 3073SOL    HW2 9232   3.742   3.089   2.075
 3074SOL     OW 9233   3.812   3.663   2.789
 3074SOL    HW1 9234   3.770   3.577   2.762
 3074SOL    HW2 9235   3.906   3.666   2.755
 3075SOL     OW 9236   4.228   3.430   2.772
 3075SOL    HW1 9237   4.294   3.504   2.781
 3075SOL    HW2 9238   4.272   3.351   2.730
 3076SOL     OW 9239   3.764   2.406   2.976
 3076SOL    HW1 9240   3.849   2.373   2.935
 3076SOL    HW2 9241   3.777   2.421   3.074
 3077SOL     OW 9242   3.913   2.382   3.584
 3077SOL    HW1 9243   3.972   2.342   3.514
 3077SOL    HW2 9244   3.855   2.453   3.543
 3078SOL     OW 9245   4.539   2.434   2.187
 3078SOL    HW1 9246   4.546   2.345   2.141
 3078SOL    HW2 9247   4.445   2.468   2.179
 3079SOL     OW 9248   3.976   3.426   3.606
 3079SOL    HW1 9249   3.946   3.483   3.682
 3079SOL    HW2 9250   3.969   3.329   3.632
 3080SOL     OW 9251   4.395   2.326   3.131
 3080SOL    HW1 9252   4.361   2.237   3.101
 3080SOL    HW2 9253   4.421   2.380   3.051
 3081SOL     OW 9254   4.197   2.362   2.053
 3081SOL    HW1 9255   4.258   2.442   2.057
 3081SOL    HW2 9256   4.102   2.393   2.060
 3082SOL     OW 9257   3.883   2.999   3.328
 3082SOL    HW1 9258   3.905   2.938   3.404
 3082SOL    HW2 9259   3.893   2.950   3.242
 3083SOL     OW 9260   3.807   3.120   2.884
 3083SOL    HW1 9261   3.802   3.119   2.984
 3083SOL    HW2 9262   3.724   3.079   2.846
 3084SOL     OW 9263   4.412   3.524   3.578
 3084SOL    HW1 9264   4.356   3.605   3.587
 3084SOL    HW2 9265   4.464   3.528   3.492
 3085SOL     OW 9266   4.627   1.948   1.995
 3085SOL    HW1 9267   4.678   1.949   1.909
 3085SOL    HW2 9268   4.683   1.906   2.066
 3086SOL     OW 9269   3.854   3.656   3.713
 3086SOL    HW1 9270   3.813   3.582   3.766
 3086SOL    HW2 9271   3.918   3.707   3.771
 3087SOL     OW 9272   4.554   3.135   3.284
 3087SOL    HW1 9273   4.549   3.168   3.379
 3087SOL    HW2 9274   4.468   3.154   3.238
 3088SOL     OW 9275   4.396   3.478   2.016
 3088SOL    HW1 9276   4.405   3.488   1.917
 3088SOL    HW2 9277   4.356   3.389   2.037
 3089SOL     OW 9278   3.987   2.188   2.582
 3089SOL    HW1 9279   3.908   2.239   2.548
 3089SOL    HW2 9280   3.978   2.173   2.680
 3090SOL     OW 9281   4.546   2.864   3.234
 3090SOL    HW1 9282   4.586   2.863   3.142
 3090SOL    HW2 9283   4.556   2.956   3.274
 3091SOL     OW 9284   4.096   3.150   3.352
 3091SOL    HW1 9285   4.083   3.243   3.318
 3091SOL    HW2 9286   4.012   3.098   3.339
 3092SOL     OW 9287   4.314   3.349   2.353
 3092SOL    HW1 9288   4.356   3.291   2.283
 3092SOL    HW2 9289   4.270   3.428   2.309
 3093SOL     OW 9290   3.979   3.210   2.152
 3093SOL    HW1 9291   3.883   3.211   2.125
 3093SOL    HW2 9292   3.991   3.263   2.236
 3094SOL     OW 9293   3.829   2.875   3.588
 3094SOL    HW1 9294   3.752   2.842   3.642
 3094SOL    HW2 9295   3.914   2.845   3.630
 3095SOL     OW 9296   4.396   2.065   3.351
 3095SOL    HW1 9297   4.486   2.049   3.311
 3095SOL    HW2 9298   4.404   2.070   3.450
 3096SOL     OW 9299   3.799   2.207   1.895
 3096SOL    HW1 9300   3.707   2.179   1.866
 3096SOL    HW2 9301   3.830   2.284   1.839
 3097SOL     OW 9302   3.796   2.028   2.180
 3097SOL    HW1 9303   3.779   2.111   2.126
 3097SOL    HW2 9304   3.886   1.991   2.158
 3098SOL     OW 9305   4.337   2.704   3.293
 3098SOL    HW1 9306   4.393   2.785   3.276
 3098SOL    HW2 9307   4.396   2.624   3.296
 3099SOL     OW 9308   4.440   2.427   3.570
 3099SOL    HW1 9309   4.459   2.492   3.644
 3099SOL    HW2 9310   4.500   2.347   3.579
 3100SOL     OW 9311   4.114   3.603   3.422
 3100SOL    HW1 9312   4.023   3.644   3.420
 3100SOL    HW2 9313   4.107   3.509   3.454
 3101SOL     OW 9314   4.318   2.607   2.514
 3101SOL    HW1 9315   4.368   2.692   2.495
 3101SOL    HW2 9316   4.230   2.609   2.466
 3102SOL     OW 9317   4.385   3.652   2.815
 3102SOL    HW1 9318   4.339   3.740   2.802
 3102SOL    HW2 9319   4.484   3.664   2.808
 3103SOL     OW 9320   4.583   2.818   2.723
 3103SOL    HW1 9321   4.637   2.749   2.771
 3103SOL    HW2 9322   4.551   2.887   2.789
 3104SOL     OW 9323   3.945   3.176   3.706
 3104SOL    HW1 9324   3.880   3.103   3.685
 3104SOL    HW2 9325   3.949   3.190   3.804
 3105SOL     OW 9326   3.803   3.102   2.515
 3105SOL    HW1 9327   3.802   3.055   2.603
 3105SOL    HW2 9328   3.885   3.074   2.464
 3106SOL     OW 9329   4.396   3.253   3.486
 3106SOL    HW1 9330   4.318   3.203   3.524
 3106SOL    HW2 9331   4.393   3.348   3.517
 3107SOL     OW 9332   4.152   2.286   2.382
 3107SOL    HW1 9333   4.182   2.214   2.320
 3107SOL    HW2 9334   4.113   2.246   2.465
 3108SOL     OW 9335   4.041   2.409   3.142
 3108SOL    HW1 9336   4.079   2.350   3.214
 3108SOL    HW2 9337   4.081   2.383   3.054
 3109SOL     OW 9338   4.536   3.448   2.549
 3109SOL    HW1 9339   4.568   3.458   2.455
 3109SOL    HW2 9340   4.457   3.386   2.551
 3110SOL     OW 9341   4.725   1.896   3.016
 3110SOL    HW1 9342   4.662   1.824   2.985
 3110SOL    HW2 9343   4.818   1.860   3.016
 3111SOL     OW 9344   4.494   3.192   2.163
 3111SOL    HW1 9345   4.448   3.105   2.180
 3111SOL    HW2 9346   4.585   3.189   2.204
 3112SOL     OW 9347   4.342   3.429   3.146
 3112SOL    HW1 9348   4.337   3.511   3.203
 3112SOL    HW2 9349   4.431   3.426   3.101
 3113SOL     OW 9350   3.763   2.939   2.162
 3113SOL    HW1 9351   3.862   2.928   2.153
 3113SOL    HW2 9352   3.723   2.853   2.194
 3114SOL     OW 9353   4.599   3.508   2.199
 3114SOL    HW1 9354   4.522   3.473   2.145
 3114SOL    HW2 9355   4.567   3.579   2.261
 3115SOL     OW 9356   3.954   2.490   3.837
 3115SOL    HW1 9357   3.861   2.488   3.874
 3115SOL    HW2 9358   3.955   2.451   3.745
 3116SOL     OW 9359   3.949   2.137   4.720
 3116SOL    HW1 9360   3.984   2.120   4.812
 3116SOL    HW2 9361   3.861   2.092   4.708
 3117SOL     OW 9362   3.743   2.230   4.371
 3117SOL    HW1 9363   3.661   2.273   4.410
 3117SOL    HW2 9364   3.715   2.157   4.308
 3118SOL     OW 9365   4.492   3.006   4.747
 3118SOL    HW1 9366   4.414   3.023   4.807
 3118SOL    HW2 9367   4.526   3.093   4.711
 3119SOL     OW 9368   4.409   2.874   4.389
 3119SOL    HW1 9369   4.478   2.858   4.459
 3119SOL    HW2 9370   4.336   2.931   4.427
 3120SOL     OW 9371   3.955   3.575   4.207
 3120SOL    HW1 9372   3.989   3.652   4.261
 3120SOL    HW2 9373   3.999   3.575   4.117
 3121SOL     OW 9374   3.954   3.296   4.262
 3121SOL    HW1 9375   3.928   3.392   4.262
 3121SOL    HW2 9376   3.883   3.242   4.307
 3122SOL     OW 9377   3.964   2.953   4.610
 3122SOL    HW1 9378   3.978   2.869   4.662
 3122SOL    HW2 9379   3.909   3.017   4.665
 3123SOL     OW 9380   4.330   2.826   3.847
 3123SOL    HW1 9381   4.337   2.910   3.793
 3123SOL    HW2 9382   4.376   2.839   3.935
 3124SOL     OW 9383   3.846   2.505   4.287
 3124SOL    HW1 9384   3.801   2.417   4.304
 3124SOL    HW2 9385   3.845   2.559   4.371
 3125SOL     OW 9386   3.751   3.458   3.841
 3125SOL    HW1 9387   3.732   3.362   3.862
 3125SOL    HW2 9388   3.718   3.516   3.916
 3126SOL     OW 9389   4.337   3.227   4.450
 3126SOL    HW1 9390   4.288   3.140   4.459
 3126SOL    HW2 9391   4.314   3.270   4.363
 3127SOL     OW 9392   4.533   1.866   4.226
 3127SOL    HW1 9393   4.573   1.957   4.217
 3127SOL    HW2 9394   4.433   1.874   4.232
 3128SOL     OW 9395   4.322   2.591   3.994
 3128SOL    HW1 9396   4.346   2.660   3.926
 3128SOL    HW2 9397   4.244   2.624   4.048
 3129SOL     OW 9398   3.800   2.673   4.513
 3129SOL    HW1 9399   3.899   2.661   4.522
 3129SOL    HW2 9400   3.776   2.768   4.534
 3130SOL     OW 9401   4.589   2.210   3.919
 3130SOL    HW1 9402   4.648   2.273   3.870
 3130SOL    HW2 9403   4.608   2.116   3.890
 3131SOL     OW 9404   4.274   2.058   4.609
 3131SOL    HW1 9405   4.269   2.053   4.709
 3131SOL    HW2 9406   4.276   2.154   4.580
 3132SOL     OW 9407   4.732   3.318   4.201
 3132SOL    HW1 9408   4.686   3.390   4.149
 3132SOL    HW2 9409   4.728   3.338   4.299
 3133SOL     OW 9410   4.075   3.663   4.577
 3133SOL    HW1 9411   4.125   3.577   4.583
 3133SOL    HW2 9412   4.140   3.740   4.574
 3134SOL     OW 9413   4.045   2.805   3.966
 3134SOL    HW1 9414   4.127   2.844   3.924
 3134SOL    HW2 9415   4.018   2.723   3.917
 3135SOL     OW 9416   4.835   3.638   3.961
 3135SOL    HW1 9417   4.775   3.576   4.011
 3135SOL    HW2 9418   4.866   3.594   3.876
 3136SOL     OW 9419   4.188   3.605   4.047
 3136SOL    HW1 9420   4.221   3.644   4.133
 3136SOL    HW2 9421   4.264   3.598   3.982
 3137SOL     OW 9422   4.106   2.562   4.204
 3137SOL    HW1 9423   4.151   2.472   4.201
 3137SOL    HW2 9424   4.012   2.551   4.237
 3138SOL     OW 9425   4.338   1.984   3.841
 3138SOL    HW1 9426   4.436   1.962   3.848
 3138SOL    HW2 9427   4.307   1.967   3.748
 3139SOL     OW 9428   4.527   3.264   4.648
 3139SOL    HW1 9429   4.617   3.278   4.606
 3139SOL    HW2 9430   4.456   3.266   4.577
 3140SOL     OW 9431   4.263   1.926   4.236
 3140SOL    HW1 9432   4.182   1.927   4.294
 3140SOL    HW2 9433   4.266   2.009   4.181
 3141SOL     OW 9434   4.021   1.897   3.895
 3141SOL    HW1 9435   4.070   1.981   3.874
 3141SOL    HW2 9436   4.083   1.832   3.940
 3142SOL     OW 9437   4.183   3.014   4.465
 3142SOL    HW1 9438   4.112   2.987   4.530
 3142SOL    HW2 9439   4.157   2.986   4.372
 3143SOL     OW 9440   4.212   3.247   3.898
 3143SOL    HW1 9441   4.125   3.232   3.945
 3143SOL    HW2 9442   4.195   3.273   3.803
 3144SOL     OW 9443   4.251   2.118   4.052
 3144SOL    HW1 9444   4.278   2.059   3.977
 3144SOL    HW2 9445   4.251   2.213   4.021
 3145SOL     OW 9446   4.429   2.912   4.092
 3145SOL    HW1 9447   4.415   2.919   4.191
 3145SOL    HW2 9448   4.513   2.861   4.074
 3146SOL     OW 9449   4.091   2.962   4.225
 3146SOL    HW1 9450   4.084   3.045   4.169
 3146SOL    HW2 9451   4.095   2.882   4.165
 3147SOL     OW 9452   4.290   2.399   4.589
 3147SOL    HW1 9453   4.302   2.465   4.515
 3147SOL    HW2 9454   4.336   2.433   4.672
 3148SOL     OW 9455   4.456   2.496   4.788
 3148SOL    HW1 9456   4.515   2.470   4.712
 3148SOL    HW2 9457   4.428   2.592   4.777
 3149SOL     OW 9458   4.031   1.925   4.342
 3149SOL    HW1 9459   4.020   2.019   4.375
 3149SOL    HW2 9460   4.026   1.862   4.419
 3150SOL     OW 9461   4.747   2.628   4.690
 3150SOL    HW1 9462   4.762   2.649   4.786
 3150SOL    HW2 9463   4.717   2.533   4.681
 3151SOL     OW 9464   3.732   3.188   3.924
 3151SOL    HW1 9465   3.639   3.209   3.893
 3151SOL    HW2 9466   3.742   3.089   3.937
 3152SOL     OW 9467   3.812   3.663   4.651
 3152SOL    HW1 9468   3.770   3.577   4.624
 3152SOL    HW2 9469   3.906   3.666   4.617
 3153SOL     OW 9470   4.228   3.430   4.634
 3153SOL    HW1 9471   4.294   3.504   4.643
 3153SOL    HW2 9472   4.272   3.351   4.592
 3154SOL     OW 9473   4.539   2.434   4.049
 3154SOL    HW1 9474   4.546   2.345   4.003
 3154SOL    HW2 9475   4.445   2.468   4.041
 3155SOL     OW 9476   4.197   2.362   3.915
 3155SOL    HW1 9477   4.258   2.442   3.919
 3155SOL    HW2 9478   4.102   2.393   3.922
 3156SOL     OW 9479   4.627   1.948   3.857
 3156SOL    HW1 9480   4.678   1.949   3.771
 3156SOL    HW2 9481   4.683   1.906   3.928
 3157SOL     OW 9482   4.396   3.478   3.878
 3157SOL    HW1 9483   4.405   3.488   3.779
 3157SOL    HW2 9484   4.356   3.389   3.899
 3158SOL     OW 9485   3.987   2.188   4.444
 3158SOL    HW1 9486   3.908   2.239   4.410
 3158SOL    HW2 9487   3.978   2.173   4.542
 3159SOL     OW 9488   4.314   3.349   4.215
 3159SOL    HW1 9489   4.356   3.291   4.145
 3159SOL    HW2 9490   4.270   3.428   4.171
 3160SOL     OW 9491   3.979   3.210   4.014
 3160SOL    HW1 9492   3.883   3.211   3.987
 3160SOL    HW2 9493   3.991   3.263   4.098
 3161SOL     OW 9494   3.799   2.207   3.757
 3161SOL    HW1 9495   3.707   2.179   3.728
 3161SOL    HW2 9496   3.830   2.284   3.701
 3162SOL     OW 9497   3.796   2.028   4.042
 3162SOL    HW1 9498   3.779   2.111   3.988
 3162SOL    HW2 9499   3.886   1.991   4.020
 3163SOL     OW 9500   4.318   2.607   4.376
 3163SOL    HW1 9501   4.368   2.692   4.357
 3163SOL    HW2 9502   4.230   2.609   4.328
 3164SOL     OW 9503   4.385   3.652   4.677
 3164SOL    HW1 9504   4.339   3.740   4.664
 3164SOL    HW2 9505   4.484   3.664   4.670
 3165SOL     OW 9506   4.583   2.818   4.585
 3165SOL    HW1 9507   4.637   2.749   4.633
 3165SOL    HW2 9508   4.551   2.887   4.651
 3166SOL     OW 9509   3.803   3.102   4.377
 3166SOL    HW1 9510   3.802   3.055   4.465
 3166SOL    HW2 9511   3.885   3.074   4.326
 3167SOL     OW 9512   4.152   2.286   4.244
 3167SOL    HW1 9513   4.182   2.214   4.182
 3167SOL    HW2 9514   4.113   2.246   4.327
 3168SOL     OW 9515   4.536   3.448   4.411
 3168SOL    HW1 9516   4.568   3.458   4.317
 3168SOL    HW2 9517   4.457   3.386   4.413
 3169SOL     OW 9518   4.494   3.192   4.025
 3169SOL    HW1 9519   4.448   3.105   4.042
 3169SOL    HW2 9520   4.585   3.189   4.066
 3170SOL     OW 9521   3.763   2.939   4.024
 3170SOL    HW1 9522   3.862   2.928   4.015
 3170SOL    HW2 9523   3.723   2.853   4.056
 3171SOL     OW 9524   4.599   3.508   4.061
 3171SOL    HW1 9525   4.522   3.473   4.007
 3171SOL    HW2 9526   4.567   3.579   4.123
 3172SOL     OW 9527   3.954   4.352   0.113
 3172SOL    HW1 9528   3.861   4.350   0.150
 3172SOL    HW2 9529   3.955   4.313   0.021
 3173SOL     OW 9530   3.949   3.999   0.996
 3173SOL    HW1 9531   3.984   3.982   1.088
 3173SOL    HW2 9532   3.861   3.954   0.984
 3174SOL     OW 9533   3.743   4.092   0.647
 3174SOL    HW1 9534   3.661   4.135   0.686
 3174SOL    HW2 9535   3.715   4.019   0.584
 3175SOL     OW 9536   4.574   4.522   1.823
 3175SOL    HW1 9537   4.570   4.598   1.888
 3175SOL    HW2 9538   4.596   4.558   1.732
 3176SOL     OW 9539   4.409   4.736   0.665
 3176SOL    HW1 9540   4.478   4.720   0.735
 3176SOL    HW2 9541   4.336   4.793   0.703
 3177SOL     OW 9542   4.162   4.116   1.499
 3177SOL    HW1 9543   4.244   4.060   1.508
 3177SOL    HW2 9544   4.081   4.058   1.503
 3178SOL     OW 9545   3.846   4.367   0.563
 3178SOL    HW1 9546   3.801   4.279   0.580
 3178SOL    HW2 9547   3.845   4.421   0.647
 3179SOL     OW 9548   3.837   4.461   1.597
 3179SOL    HW1 9549   3.925   4.448   1.642
 3179SOL    HW2 9550   3.824   4.558   1.575
 3180SOL     OW 9551   4.533   3.728   0.502
 3180SOL    HW1 9552   4.573   3.819   0.493
 3180SOL    HW2 9553   4.433   3.736   0.508
 3181SOL     OW 9554   4.041   3.975   1.801
 3181SOL    HW1 9555   4.112   4.046   1.807
 3181SOL    HW2 9556   3.953   4.014   1.829
 3182SOL     OW 9557   4.322   4.453   0.270
 3182SOL    HW1 9558   4.346   4.522   0.202
 3182SOL    HW2 9559   4.244   4.486   0.324
 3183SOL     OW 9560   4.531   4.329   1.465
 3183SOL    HW1 9561   4.484   4.326   1.554
 3183SOL    HW2 9562   4.480   4.274   1.399
 3184SOL     OW 9563   3.800   4.535   0.789
 3184SOL    HW1 9564   3.899   4.523   0.798
 3184SOL    HW2 9565   3.776   4.630   0.810
 3185SOL     OW 9566   4.589   4.072   0.195
 3185SOL    HW1 9567   4.648   4.135   0.146
 3185SOL    HW2 9568   4.608   3.978   0.166
 3186SOL     OW 9569   4.274   3.920   0.885
 3186SOL    HW1 9570   4.269   3.915   0.985
 3186SOL    HW2 9571   4.276   4.016   0.856
 3187SOL     OW 9572   3.926   4.009   1.498
 3187SOL    HW1 9573   3.846   4.069   1.485
 3187SOL    HW2 9574   3.916   3.960   1.584
 3188SOL     OW 9575   4.106   4.424   0.480
 3188SOL    HW1 9576   4.151   4.334   0.477
 3188SOL    HW2 9577   4.012   4.413   0.513
 3189SOL     OW 9578   4.505   3.988   1.749
 3189SOL    HW1 9579   4.572   3.927   1.792
 3189SOL    HW2 9580   4.432   4.007   1.814
 3190SOL     OW 9581   4.646   4.227   0.899
 3190SOL    HW1 9582   4.621   4.218   0.803
 3190SOL    HW2 9583   4.694   4.145   0.930
 3191SOL     OW 9584   4.263   3.788   0.512
 3191SOL    HW1 9585   4.182   3.789   0.570
 3191SOL    HW2 9586   4.266   3.871   0.457
 3192SOL     OW 9587   4.021   3.759   0.171
 3192SOL    HW1 9588   4.070   3.843   0.150
 3192SOL    HW2 9589   4.083   3.694   0.216
 3193SOL     OW 9590   3.802   4.280   1.386
 3193SOL    HW1 9591   3.894   4.279   1.345
 3193SOL    HW2 9592   3.796   4.354   1.453
 3194SOL     OW 9593   4.285   3.946   1.147
 3194SOL    HW1 9594   4.323   3.862   1.184
 3194SOL    HW2 9595   4.197   3.965   1.191
 3195SOL     OW 9596   4.251   3.980   0.328
 3195SOL    HW1 9597   4.278   3.921   0.253
 3195SOL    HW2 9598   4.251   4.075   0.297
 3196SOL     OW 9599   4.639   3.813   1.402
 3196SOL    HW1 9600   4.664   3.793   1.307
 3196SOL    HW2 9601   4.711   3.869   1.444
 3197SOL     OW 9602   4.134   4.537   1.251
 3197SOL    HW1 9603   4.220   4.549   1.301
 3197SOL    HW2 9604   4.092   4.450   1.278
 3198SOL     OW 9605   4.290   4.261   0.865
 3198SOL    HW1 9606   4.302   4.327   0.791
 3198SOL    HW2 9607   4.336   4.295   0.948
 3199SOL     OW 9608   4.126   4.475   1.598
 3199SOL    HW1 9609   4.194   4.530   1.551
 3199SOL    HW2 9610   4.166   4.387   1.625
 3200SOL     OW 9611   4.228   3.774   1.740
 3200SOL    HW1 9612   4.186   3.717   1.670
 3200SOL    HW2 9613   4.162   3.843   1.772
 3201SOL     OW 9614   4.297   4.594   1.029
 3201SOL    HW1 9615   4.341   4.683   1.020
 3201SOL    HW2 9616   4.234   4.594   1.106
 3202SOL     OW 9617   4.031   3.937   1.231
 3202SOL    HW1 9618   4.008   3.974   1.321
 3202SOL    HW2 9619   4.001   3.842   1.225
 3203SOL     OW 9620   4.456   4.358   1.064
 3203SOL    HW1 9621   4.515   4.332   0.988
 3203SOL    HW2 9622   4.428   4.454   1.053
 3204SOL     OW 9623   4.031   3.787   0.618
 3204SOL    HW1 9624   4.020   3.881   0.651
 3204SOL    HW2 9625   4.026   3.724   0.695
 3205SOL     OW 9626   4.747   4.490   0.966
 3205SOL    HW1 9627   4.762   4.511   1.062
 3205SOL    HW2 9628   4.717   4.395   0.957
 3206SOL     OW 9629   4.043   4.534   0.949
 3206SOL    HW1 9630   4.136   4.570   0.954
 3206SOL    HW2 9631   4.037   4.449   1.001
 3207SOL     OW 9632   4.063   4.233   1.006
 3207SOL    HW1 9633   4.011   4.150   0.989
 3207SOL    HW2 9634   4.140   4.238   0.942
 3208SOL     OW 9635   4.726   4.520   1.238
 3208SOL    HW1 9636   4.767   4.488   1.324
 3208SOL    HW2 9637   4.630   4.493   1.235
 3209SOL     OW 9638   3.764   4.268   1.114
 3209SOL    HW1 9639   3.849   4.235   1.073
 3209SOL    HW2 9640   3.777   4.283   1.212
 3210SOL     OW 9641   3.913   4.244   1.722
 3210SOL    HW1 9642   3.972   4.204   1.652
 3210SOL    HW2 9643   3.855   4.315   1.681
 3211SOL     OW 9644   4.539   4.296   0.325
 3211SOL    HW1 9645   4.546   4.207   0.279
 3211SOL    HW2 9646   4.445   4.330   0.317
 3212SOL     OW 9647   4.395   4.188   1.269
 3212SOL    HW1 9648   4.361   4.099   1.239
 3212SOL    HW2 9649   4.421   4.242   1.189
 3213SOL     OW 9650   4.197   4.224   0.191
 3213SOL    HW1 9651   4.258   4.304   0.195
 3213SOL    HW2 9652   4.102   4.255   0.198
 3214SOL     OW 9653   4.627   3.810   0.133
 3214SOL    HW1 9654   4.678   3.811   0.047
 3214SOL    HW2 9655   4.683   3.768   0.204
 3215SOL     OW 9656   3.987   4.050   0.720
 3215SOL    HW1 9657   3.908   4.101   0.686
 3215SOL    HW2 9658   3.978   4.035   0.818
 3216SOL     OW 9659   4.763   4.822   0.696
 3216SOL    HW1 9660   4.693   4.775   0.750
 3216SOL    HW2 9661   4.822   4.754   0.653
 3217SOL     OW 9662   3.829   4.737   1.726
 3217SOL    HW1 9663   3.752   4.704   1.780
 3217SOL    HW2 9664   3.914   4.707   1.768
 3218SOL     OW 9665   4.396   3.927   1.489
 3218SOL    HW1 9666   4.486   3.911   1.449
 3218SOL    HW2 9667   4.404   3.932   1.588
 3219SOL     OW 9668   3.796   3.890   0.318
 3219SOL    HW1 9669   3.779   3.973   0.264
 3219SOL    HW2 9670   3.886   3.853   0.296
 3220SOL     OW 9671   4.337   4.566   1.431
 3220SOL    HW1 9672   4.393   4.647   1.414
 3220SOL    HW2 9673   4.396   4.486   1.434
 3221SOL     OW 9674   4.440   4.289   1.708
 3221SOL    HW1 9675   4.459   4.354   1.782
 3221SOL    HW2 9676   4.500   4.209   1.717
 3222SOL     OW 9677   4.318   4.469   0.652
 3222SOL    HW1 9678   4.368   4.554   0.633
 3222SOL    HW2 9679   4.230   4.471   0.604
 3223SOL     OW 9680   4.583   4.680   0.861
 3223SOL    HW1 9681   4.637   4.611   0.909
 3223SOL    HW2 9682   4.551   4.749   0.927
 3224SOL     OW 9683   4.152   4.148   0.520
 3224SOL    HW1 9684   4.182   4.076   0.458
 3224SOL    HW2 9685   4.113   4.108   0.603
 3225SOL     OW 9686   4.041   4.271   1.280
 3225SOL    HW1 9687   4.079   4.212   1.352
 3225SOL    HW2 9688   4.081   4.245   1.192
 3226SOL     OW 9689   4.725   3.758   1.154
 3226SOL    HW1 9690   4.662   3.686   1.123
 3226SOL    HW2 9691   4.818   3.722   1.154
 3227SOL     OW 9692   3.954   4.352   1.975
 3227SOL    HW1 9693   3.861   4.350   2.012
 3227SOL    HW2 9694   3.955   4.313   1.883
 3228SOL     OW 9695   3.949   3.999   2.858
 3228SOL    HW1 9696   3.984   3.982   2.950
 3228SOL    HW2 9697   3.861   3.954   2.846
 3229SOL     OW 9698   3.743   4.092   2.509
 3229SOL    HW1 9699   3.661   4.135   2.548
 3229SOL    HW2 9700   3.715   4.019   2.446
 3230SOL     OW 9701   4.574   4.522   3.685
 3230SOL    HW1 9702   4.570   4.598   3.750
 3230SOL    HW2 9703   4.596   4.558   3.594
 3231SOL     OW 9704   4.409   4.736   2.527
 3231SOL    HW1 9705   4.478   4.720   2.597
 3231SOL    HW2 9706   4.336   4.793   2.565
 3232SOL     OW 9707   4.162   4.116   3.361
 3232SOL    HW1 9708   4.244   4.060   3.370
 3232SOL    HW2 9709   4.081   4.058   3.365
 3233SOL     OW 9710   3.846   4.367   2.425
 3233SOL    HW1 9711   3.801   4.279   2.442
 3233SOL    HW2 9712   3.845   4.421   2.509
 3234SOL     OW 9713   3.837   4.461   3.459
 3234SOL    HW1 9714   3.925   4.448   3.504
 3234SOL    HW2 9715   3.824   4.558   3.437
 3235SOL     OW 9716   4.533   3.728   2.364
 3235SOL    HW1 9717   4.573   3.819   2.355
 3235SOL    HW2 9718   4.433   3.736   2.370
 3236SOL     OW 9719   4.041   3.975   3.663
 3236SOL    HW1 9720   4.112   4.046   3.669
 3236SOL    HW2 9721   3.953   4.014   3.691
 3237SOL     OW 9722   4.322   4.453   2.132
 3237SOL    HW1 9723   4.346   4.522   2.064
 3237SOL    HW2 9724   4.244   4.486   2.186
 3238SOL     OW 9725   4.531   4.329   3.327
 3238SOL    HW1 9726   4.484   4.326   3.416
 3238SOL    HW2 9727   4.480   4.274   3.261
 3239SOL     OW 9728   3.800   4.535   2.651
 3239SOL    HW1 9729   3.899   4.523   2.660
 3239SOL    HW2 9730   3.776   4.630   2.672
 3240SOL     OW 9731   4.589   4.072   2.057
 3240SOL    HW1 9732   4.648   4.135   2.008
 3240SOL    HW2 9733   4.608   3.978   2.028
 3241SOL     OW 9734   4.274   3.920   2.747
 3241SOL    HW1 9735   4.269   3.915   2.847
 3241SOL    HW2 9736   4.276   4.016   2.718
 3242SOL     OW 9737   3.926   4.009   3.360
 3242SOL    HW1 9738   3.846   4.069   3.347
 3242SOL    HW2 9739   3.916   3.960   3.446
 3243SOL     OW 9740   4.106   4.424   2.342
 3243SOL    HW1 9741   4.151   4.334   2.339
 3243SOL    HW2 9742   4.012   4.413   2.375
 3244SOL     OW 9743   4.338   3.846   1.979
 3244SOL    HW1 9744   4.436   3.824   1.986
 3244SOL    HW2 9745   4.307   3.829   1.886
 3245SOL     OW 9746   4.505   3.988   3.611
 3245SOL    HW1 9747   4.572   3.927   3.654
 3245SOL    HW2 9748   4.432   4.007   3.676
 3246SOL     OW 9749   4.646   4.227   2.761
 3246SOL    HW1 9750   4.621   4.218   2.665
 3246SOL    HW2 9751   4.694   4.145   2.792
 3247SOL     OW 9752   4.263   3.788   2.374
 3247SOL    HW1 9753   4.182   3.789   2.432
 3247SOL    HW2 9754   4.266   3.871   2.319
 3248SOL     OW 9755   4.021   3.759   2.033
 3248SOL    HW1 9756   4.070   3.843   2.012
 3248SOL    HW2 9757   4.083   3.694   2.078
 3249SOL     OW 9758   3.802   4.280   3.248
 3249SOL    HW1 9759   3.894   4.279   3.207
 3249SOL    HW2 9760   3.796   4.354   3.315
 3250SOL     OW 9761   4.285   3.946   3.009
 3250SOL    HW1 9762   4.323   3.862   3.046
 3250SOL    HW2 9763   4.197   3.965   3.053
 3251SOL     OW 9764   4.251   3.980   2.190
 3251SOL    HW1 9765   4.278   3.921   2.115
 3251SOL    HW2 9766   4.251   4.075   2.159
 3252SOL     OW 9767   4.639   3.813   3.264
 3252SOL    HW1 9768   4.664   3.793   3.169
 3252SOL    HW2 9769   4.711   3.869   3.306
 3253SOL     OW 9770   4.134   4.537   3.113
 3253SOL    HW1 9771   4.220   4.549   3.163
 3253SOL    HW2 9772   4.092   4.450   3.140
 3254SOL     OW 9773   4.290   4.261   2.727
 3254SOL    HW1 9774   4.302   4.327   2.653
 3254SOL    HW2 9775   4.336   4.295   2.810
 3255SOL     OW 9776   4.126   4.475   3.460
 3255SOL    HW1 9777   4.194   4.530   3.413
 3255SOL    HW2 9778   4.166   4.387   3.487
 3256SOL     OW 9779   4.228   3.774   3.602
 3256SOL    HW1 9780   4.186   3.717   3.532
 3256SOL    HW2 9781   4.162   3.843   3.634
 3257SOL     OW 9782   4.297   4.594   2.891
 3257SOL    HW1 9783   4.341   4.683   2.882
 3257SOL    HW2 9784   4.234   4.594   2.968
 3258SOL     OW 9785   4.031   3.937   3.093
 3258SOL    HW1 9786   4.008   3.974   3.183
 3258SOL    HW2 9787   4.001   3.842   3.087
 3259SOL     OW 9788   4.456   4.358   2.926
 3259SOL    HW1 9789   4.515   4.332   2.850
 3259SOL    HW2 9790   4.428   4.454   2.915
 3260SOL     OW 9791   4.031   3.787   2.480
 3260SOL    HW1 9792   4.020   3.881   2.513
 3260SOL    HW2 9793   4.026   3.724   2.557
 3261SOL     OW 9794   4.747   4.490   2.828
 3261SOL    HW1 9795   4.762   4.511   2.924
 3261SOL    HW2 9796   4.717   4.395   2.819
 3262SOL     OW 9797   4.043   4.534   2.811
 3262SOL    HW1 9798   4.136   4.570   2.816
 3262SOL    HW2 9799   4.037   4.449   2.863
 3263SOL     OW 9800   4.063   4.233   2.868
 3263SOL    HW1 9801   4.011   4.150   2.851
 3263SOL    HW2 9802   4.140   4.238   2.804
 3264SOL     OW 9803   4.726   4.520   3.100
 3264SOL    HW1 9804   4.767   4.488   3.186
 3264SOL    HW2 9805   4.630   4.493   3.097
 3265SOL     OW 9806   3.764   4.268   2.976
 3265SOL    HW1 9807   3.849   4.235   2.935
 3265SOL    HW2 9808   3.777   4.283   3.074
 3266SOL     OW 9809   3.913   4.244   3.584
 3266SOL    HW1 9810   3.972   4.204   3.514
 3266SOL    HW2 9811   3.855   4.315   3.543
 3267SOL     OW 9812   4.539   4.296   2.187
 3267SOL    HW1 9813   4.546   4.207   2.141
 3267SOL    HW2 9814   4.445   4.330   2.179
 3268SOL     OW 9815   4.395   4.188   3.131
 3268SOL    HW1 9816   4.361   4.099   3.101
 3268SOL    HW2 9817   4.421   4.242   3.051
 3269SOL     OW 9818   4.197   4.224   2.053
 3269SOL    HW1 9819   4.258   4.304   2.057
 3269SOL    HW2 9820   4.102   4.255   2.060
 3270SOL     OW 9821   4.627   3.810   1.995
 3270SOL    HW1 9822   4.678   3.811   1.909
 3270SOL    HW2 9823   4.683   3.768   2.066
 3271SOL     OW 9824   3.987   4.050   2.582
 3271SOL    HW1 9825   3.908   4.101   2.548
 3271SOL    HW2 9826   3.978   4.035   2.680
 3272SOL     OW 9827   4.763   4.822   2.558
 3272SOL    HW1 9828   4.693   4.775   2.612
 3272SOL    HW2 9829   4.822   4.754   2.515
 3273SOL     OW 9830   3.829   4.737   3.588
 3273SOL    HW1 9831   3.752   4.704   3.642
 3273SOL    HW2 9832   3.914   4.707   3.630
 3274SOL     OW 9833   4.396   3.927   3.351
 3274SOL    HW1 9834   4.486   3.911   3.311
 3274SOL    HW2 9835   4.404   3.932   3.450
 3275SOL     OW 9836   3.799   4.069   1.895
 3275SOL    HW1 9837   3.707   4.041   1.866
 3275SOL    HW2 9838   3.830   4.146   1.839
 3276SOL     OW 9839   3.796   3.890   2.180
 3276SOL    HW1 9840   3.779   3.973   2.126
 3276SOL    HW2 9841   3.886   3.853   2.158
 3277SOL     OW 9842   4.337   4.566   3.293
 3277SOL    HW1 9843   4.393   4.647   3.276
 3277SOL    HW2 9844   4.396   4.486   3.296
 3278SOL     OW 9845   4.440   4.289   3.570
 3278SOL    HW1 9846   4.459   4.354   3.644
 3278SOL    HW2 9847   4.500   4.209   3.579
 3279SOL     OW 9848   4.318   4.469   2.514
 3279SOL    HW1 9849   4.368   4.554   2.495
 3279SOL    HW2 9850   4.230   4.471   2.466
 3280SOL     OW 9851   4.583   4.680   2.723
 3280SOL    HW1 9852   4.637   4.611   2.771
 3280SOL    HW2 9853   4.551   4.749   2.789
 3281SOL     OW 9854   4.152   4.148   2.382
 3281SOL    HW1 9855   4.182   4.076   2.320
 3281SOL    HW2 9856   4.113   4.108   2.465
 3282SOL     OW 9857   4.041   4.271   3.142
 3282SOL    HW1 9858   4.079   4.212   3.214
 3282SOL    HW2 9859   4.081   4.245   3.054
 3283SOL     OW 9860   4.725   3.758   3.016
 3283SOL    HW1 9861   4.662   3.686   2.985
 3283SOL    HW2 9862   4.818   3.722   3.016
 3284SOL     OW 9863   3.954   4.352   3.837
 3284SOL    HW1 9864   3.861   4.350   3.874
 3284SOL    HW2 9865   3.955   4.313   3.745
 3285SOL     OW 9866   3.949   3.999   4.720
 3285SOL    HW1 9867   3.984   3.982   4.812
 3285SOL    HW2 9868   3.861   3.954   4.708
 3286SOL     OW 9869   3.743   4.092   4.371
 3286SOL    HW1 9870   3.661   4.135   4.410
 3286SOL    HW2 9871   3.715   4.019   4.308
 3287SOL     OW 9872   4.409   4.736   4.389
 3287SOL    HW1 9873   4.478   4.720   4.459
 3287SOL    HW2 9874   4.336   4.793   4.427
 3288SOL     OW 9875   3.846   4.367   4.287
 3288SOL    HW1 9876   3.801   4.279   4.304
 3288SOL    HW2 9877   3.845   4.421   4.371
 3289SOL     OW 9878   4.533   3.728   4.226
 3289SOL    HW1 9879   4.573   3.819   4.217
 3289SOL    HW2 9880   4.433   3.736   4.232
 3290SOL     OW 9881   4.322   4.453   3.994
 3290SOL    HW1 9882   4.346   4.522   3.926
 3290SOL    HW2 9883   4.244   4.486   4.048
 3291SOL     OW 9884   3.800   4.535   4.513
 3291SOL    HW1 9885   3.899   4.523   4.522
 3291SOL    HW2 9886   3.776   4.630   4.534
 3292SOL     OW 9887   4.589   4.072   3.919
 3292SOL    HW1 9888   4.648   4.135   3.870
 3292SOL    HW2 9889   4.608   3.978   3.890
 3293SOL     OW 9890   4.274   3.920   4.609
 3293SOL    HW1 9891   4.269   3.915   4.709
 3293SOL    HW2 9892   4.276   4.016   4.580
 3294SOL     OW 9893   4.106   4.424   4.204
 3294SOL    HW1 9894   4.151   4.334   4.201
 3294SOL    HW2 9895   4.012   4.413   4.237
 3295SOL     OW 9896   4.338   3.846   3.841
 3295SOL    HW1 9897   4.436   3.824   3.848
 3295SOL    HW2 9898   4.307   3.829   3.748
 3296SOL     OW 9899   4.263   3.788   4.236
 3296SOL    HW1 9900   4.182   3.789   4.294
 3296SOL    HW2 9901   4.266   3.871   4.181
 3297SOL     OW 9902   4.021   3.759   3.895
 3297SOL    HW1 9903   4.070   3.843   3.874
 3297SOL    HW2 9904   4.083   3.694   3.940
 3298SOL     OW 9905   4.251   3.980   4.052
 3298SOL    HW1 9906   4.278   3.921   3.977
 3298SOL    HW2 9907   4.251   4.075   4.021
 3299SOL     OW 9908   4.290   4.261   4.589
 3299SOL    HW1 9909   4.302   4.327   4.515
 3299SOL    HW2 9910   4.336   4.295   4.672
 3300SOL     OW 9911   4.456   4.358   4.788
 3300SOL    HW1 9912   4.515   4.332   4.712
 3300SOL    HW2 9913   4.428   4.454   4.777
 3301SOL     OW 9914   4.031   3.787   4.342
 3301SOL    HW1 9915   4.020   3.881   4.375
 3301SOL    HW2 9916   4.026   3.724   4.419
 3302SOL     OW 9917   4.747   4.490   4.690
 3302SOL    HW1 9918   4.762   4.511   4.786
 3302SOL    HW2 9919   4.717   4.395   4.681
 3303SOL     OW 9920   4.539   4.296   4.049
 3303SOL    HW1 9921   4.546   4.207   4.003
 3303SOL    HW2 9922   4.445   4.330   4.041
 3304SOL     OW 9923   4.197   4.224   3.915
 3304SOL    HW1 9924   4.258   4.304   3.919
 3304SOL    HW2 9925   4.102   4.255   3.922
 3305SOL     OW 9926   4.627   3.810   3.857
 3305SOL    HW1 9927   4.678   3.811   3.771
 3305SOL    HW2 9928   4.683   3.768   3.928
 3306SOL     OW 9929   3.987   4.050   4.444
 3306SOL    HW1 9930   3.908   4.101   4.410
 3306SOL    HW2 9931   3.978   4.035   4.542
 3307SOL     OW 9932   4.763   4.822   4.420
 3307SOL    HW1 9933   4.693   4.775   4.474
 3307SOL    HW2 9934   4.822   4.754   4.377
 3308SOL     OW 9935   3.799   4.069   3.757
 3308SOL    HW1 9936   3.707   4.041   3.728
 3308SOL    HW2 9937   3.830   4.146   3.701
 3309SOL     OW 9938   3.796   3.890   4.042
 3309SOL    HW1 9939   3.779   3.973   3.988
 3309SOL    HW2 9940   3.886   3.853   4.020
 3310SOL     OW 9941   4.318   4.469   4.376
 3310SOL    HW1 9942   4.368   4.554   4.357
 3310SOL    HW2 9943   4.230   4.471   4.328
 3311SOL     OW 9944   4.583   4.680   4.585
 3311SOL    HW1 9945   4.637   4.611   4.633
 3311SOL    HW2 9946   4.551   4.749   4.651
 3312SOL     OW 9947   4.152   4.148   4.244
 3312SOL    HW1 9948   4.182   4.076   4.182
 3312SOL    HW2 9949   4.113   4.108   4.327
   4.68124   4.68124   4.68124
