mobley_1881249_GMX.gro created by acpype (v: 2023.10.27) on Thu May 21 00:04:27 2026
   16
    1MOL     C1    1   2.269   2.419   2.439
    1MOL     C2    2   2.277   2.406   2.589
    1MOL     C3    3   2.431   2.246   2.131
    1MOL     C4    4   2.354   2.321   2.359
    1MOL     C5    5   2.343   2.343   2.208
    1MOL     O1    6   2.198   2.504   2.386
    1MOL     H1    7   2.380   2.423   2.622
    1MOL     H2    8   2.243   2.307   2.619
    1MOL     H3    9   2.212   2.481   2.635
    1MOL     H4   10   2.402   2.143   2.151
    1MOL     H5   11   2.536   2.258   2.159
    1MOL     H6   12   2.421   2.264   2.024
    1MOL     H7   13   2.321   2.220   2.384
    1MOL     H8   14   2.458   2.333   2.391
    1MOL     H9   15   2.239   2.331   2.176
    1MOL    H10   16   2.372   2.446   2.184
   4.68124   4.68124   4.68124
