mobley_2802855_GMX.gro created by acpype (v: 2023.10.27) on Wed May 20 23:59:02 2026
 14
    1  MOL   C1    1  -0.006   0.046   0.099
    1  MOL   C2    2   0.073  -0.035   0.200
    1  MOL   C3    3   0.067   0.027   0.340
    1  MOL   C4    4   0.142  -0.058   0.441
    1  MOL  BR1    5   0.137   0.028   0.615
    1  MOL   H1    6   0.034   0.148   0.091
    1  MOL   H2    7   0.000   0.000   0.000
    1  MOL   H3    8  -0.112   0.053   0.127
    1  MOL   H4    9   0.177  -0.043   0.167
    1  MOL   H5   10   0.033  -0.137   0.203
    1  MOL   H6   11   0.109   0.128   0.336
    1  MOL   H7   12  -0.038   0.037   0.370
    1  MOL   H8   13   0.248  -0.068   0.414
    1  MOL   H9   14   0.097  -0.157   0.453
    7.18600     6.09600    12.30800
