; mobley_2802855_GMX_OPLS.itp created by acpype (v: 2023.10.27) on Wed May 20 23:59:02 2026

; For OPLS atomtypes manual fine tuning
; AC_at:OPLS_at:OPLScode: Possible_Alternatives (see ffoplsaa.atp and ffoplsaanb.itp)
; c3:CT:opls_135: ['136', '137', '149', '157', '158', '206', '209', '210', '223B', '224B', '245', '246', '274', '283', '284', '285', '292', '292B', '293B', '296', '307', '308', '505']
; br:x:opls_x: []
; hc:HC:opls_140: []
; h1:HC:opls_140: []

[ moleculetype ]
;name            nrexcl
 mobley_2802855   3

[ atoms ]
;   nr  type  resi  res  atom  cgnr     charge      mass       ; qtot   bond_type
     1 opls_135     1   MOL    C1    1    -0.093100     12.01100 ; qtot -0.093  CT  
     2 opls_135     1   MOL    C2    2    -0.081400     12.01100 ; qtot -0.174  CT  
     3 opls_135     1   MOL    C3    3    -0.082400     12.01100 ; qtot -0.257  CT  
     4 opls_135     1   MOL    C4    4    -0.009000     12.01100 ; qtot -0.266  CT  
     5 opls_x     1   MOL   BR1    5    -0.177400      0.00000 ; qtot -0.443  x   
     6 opls_140     1   MOL    H1    6     0.035700      1.00800 ; qtot -0.408  HC  
     7 opls_140     1   MOL    H2    7     0.035700      1.00800 ; qtot -0.372  HC  
     8 opls_140     1   MOL    H3    8     0.035700      1.00800 ; qtot -0.336  HC  
     9 opls_140     1   MOL    H4    9     0.040700      1.00800 ; qtot -0.295  HC  
    10 opls_140     1   MOL    H5   10     0.040700      1.00800 ; qtot -0.255  HC  
    11 opls_140     1   MOL    H6   11     0.055700      1.00800 ; qtot -0.199  HC  
    12 opls_140     1   MOL    H7   12     0.055700      1.00800 ; qtot -0.143  HC  
    13 opls_140     1   MOL    H8   13     0.071700      1.00800 ; qtot -0.072  HC  
    14 opls_140     1   MOL    H9   14     0.071700      1.00800 ; qtot  0.000  HC  

[ bonds ]
;   ai     aj funct   r             k
     1      2   1 ;    1.5354e-01    1.9154e+05 ;     C1 - C2         CT - CT    
     1      6   1 ;    1.0962e-01    2.8891e+05 ;     C1 - H1         CT - HC    
     1      7   1 ;    1.0962e-01    2.8891e+05 ;     C1 - H2         CT - HC    
     1      8   1 ;    1.0962e-01    2.8891e+05 ;     C1 - H3         CT - HC    
     2      3   1 ;    1.5354e-01    1.9154e+05 ;     C2 - C3         CT - CT    
     2      9   1 ;    1.0962e-01    2.8891e+05 ;     C2 - H4         CT - HC    
     2     10   1 ;    1.0962e-01    2.8891e+05 ;     C2 - H5         CT - HC    
     3      4   1 ;    1.5354e-01    1.9154e+05 ;     C3 - C4         CT - CT    
     3     11   1 ;    1.0962e-01    2.8891e+05 ;     C3 - H6         CT - HC    
     3     12   1 ;    1.0962e-01    2.8891e+05 ;     C3 - H7         CT - HC    
     4      5   1 ;    1.9805e-01    1.0319e+05 ;     C4 - BR1        CT - x     
     4     13   1 ;    1.0969e-01    2.8804e+05 ;     C4 - H8         CT - HC    
     4     14   1 ;    1.0969e-01    2.8804e+05 ;     C4 - H9         CT - HC    

[ pairs ]
;   ai     aj    funct
     1      4      1 ;     C1 - C4    
     1     11      1 ;     C1 - H6    
     1     12      1 ;     C1 - H7    
     2      5      1 ;     C2 - BR1   
     2     13      1 ;     C2 - H8    
     2     14      1 ;     C2 - H9    
     4      9      1 ;     C4 - H4    
     4     10      1 ;     C4 - H5    
     5     11      1 ;    BR1 - H6    
     5     12      1 ;    BR1 - H7    
     6      3      1 ;     H1 - C3    
     6      9      1 ;     H1 - H4    
     6     10      1 ;     H1 - H5    
     7      3      1 ;     H2 - C3    
     7      9      1 ;     H2 - H4    
     7     10      1 ;     H2 - H5    
     8      3      1 ;     H3 - C3    
     8      9      1 ;     H3 - H4    
     8     10      1 ;     H3 - H5    
     9     11      1 ;     H4 - H6    
     9     12      1 ;     H4 - H7    
    10     11      1 ;     H5 - H6    
    10     12      1 ;     H5 - H7    
    11     13      1 ;     H6 - H8    
    11     14      1 ;     H6 - H9    
    12     13      1 ;     H7 - H8    
    12     14      1 ;     H7 - H9    

[ angles ]
;   ai     aj     ak    funct   theta         cth
     1      2      3      1 ;    1.1263e+02    5.0099e+02 ;     C1 - C2   - C3       CT -   CT - CT  
     1      2      9      1 ;    1.0968e+02    3.6208e+02 ;     C1 - C2   - H4       CT -   CT - HC  
     1      2     10      1 ;    1.0968e+02    3.6208e+02 ;     C1 - C2   - H5       CT -   CT - HC  
     2      1      6      1 ;    1.0968e+02    3.6208e+02 ;     C2 - C1   - H1       CT -   CT - HC  
     2      1      7      1 ;    1.0968e+02    3.6208e+02 ;     C2 - C1   - H2       CT -   CT - HC  
     2      1      8      1 ;    1.0968e+02    3.6208e+02 ;     C2 - C1   - H3       CT -   CT - HC  
     2      3      4      1 ;    1.1263e+02    5.0099e+02 ;     C2 - C3   - C4       CT -   CT - CT  
     2      3     11      1 ;    1.0968e+02    3.6208e+02 ;     C2 - C3   - H6       CT -   CT - HC  
     2      3     12      1 ;    1.0968e+02    3.6208e+02 ;     C2 - C3   - H7       CT -   CT - HC  
     3      2      9      1 ;    1.0968e+02    3.6208e+02 ;     C3 - C2   - H4       CT -   CT - HC  
     3      2     10      1 ;    1.0968e+02    3.6208e+02 ;     C3 - C2   - H5       CT -   CT - HC  
     3      4      5      1 ;    1.1047e+02    5.1020e+02 ;     C3 - C4   - BR1      CT -   CT - x   
     3      4     13      1 ;    1.0959e+02    3.6217e+02 ;     C3 - C4   - H8       CT -   CT - HC  
     3      4     14      1 ;    1.0959e+02    3.6217e+02 ;     C3 - C4   - H9       CT -   CT - HC  
     4      3     11      1 ;    1.0968e+02    3.6208e+02 ;     C4 - C3   - H6       CT -   CT - HC  
     4      3     12      1 ;    1.0968e+02    3.6208e+02 ;     C4 - C3   - H7       CT -   CT - HC  
     5      4     13      1 ;    1.0552e+02    3.3748e+02 ;    BR1 - C4   - H8        x -   CT - HC  
     5      4     14      1 ;    1.0552e+02    3.3748e+02 ;    BR1 - C4   - H9        x -   CT - HC  
     6      1      7      1 ;    1.0773e+02    2.9957e+02 ;     H1 - C1   - H2       HC -   CT - HC  
     6      1      8      1 ;    1.0773e+02    2.9957e+02 ;     H1 - C1   - H3       HC -   CT - HC  
     7      1      8      1 ;    1.0773e+02    2.9957e+02 ;     H2 - C1   - H3       HC -   CT - HC  
     9      2     10      1 ;    1.0773e+02    2.9957e+02 ;     H4 - C2   - H5       HC -   CT - HC  
    11      3     12      1 ;    1.0773e+02    2.9957e+02 ;     H6 - C3   - H7       HC -   CT - HC  
    13      4     14      1 ;    1.0855e+02    2.9824e+02 ;     H8 - C4   - H9       HC -   CT - HC  

[ dihedrals ] ; propers
; for gromacs 4.5 or higher, using funct 9
;    i      j      k      l   func   phase     kd      pn
     1      2      3      4      9 ;     0.00   2.17568   3 ;     C1-    C2-    C3-    C4
     1      2      3     11      9 ;     0.00   0.54392   3 ;     C1-    C2-    C3-    H6
     1      2      3     12      9 ;     0.00   0.54392   3 ;     C1-    C2-    C3-    H7
     2      3      4      5      9 ;     0.00   0.65084   3 ;     C2-    C3-    C4-   BR1
     2      3      4     13      9 ;     0.00   0.65084   3 ;     C2-    C3-    C4-    H8
     2      3      4     14      9 ;     0.00   0.65084   3 ;     C2-    C3-    C4-    H9
     4      3      2      9      9 ;     0.00   0.54392   3 ;     C4-    C3-    C2-    H4
     4      3      2     10      9 ;     0.00   0.54392   3 ;     C4-    C3-    C2-    H5
     5      4      3     11      9 ;     0.00   0.79496   3 ;    BR1-    C4-    C3-    H6
     5      4      3     12      9 ;     0.00   0.79496   3 ;    BR1-    C4-    C3-    H7
     6      1      2      3      9 ;     0.00   0.54392   3 ;     H1-    C1-    C2-    C3
     6      1      2      9      9 ;     0.00   0.50208   3 ;     H1-    C1-    C2-    H4
     6      1      2     10      9 ;     0.00   0.50208   3 ;     H1-    C1-    C2-    H5
     7      1      2      3      9 ;     0.00   0.54392   3 ;     H2-    C1-    C2-    C3
     7      1      2      9      9 ;     0.00   0.50208   3 ;     H2-    C1-    C2-    H4
     7      1      2     10      9 ;     0.00   0.50208   3 ;     H2-    C1-    C2-    H5
     8      1      2      3      9 ;     0.00   0.54392   3 ;     H3-    C1-    C2-    C3
     8      1      2      9      9 ;     0.00   0.50208   3 ;     H3-    C1-    C2-    H4
     8      1      2     10      9 ;     0.00   0.50208   3 ;     H3-    C1-    C2-    H5
     9      2      3     11      9 ;     0.00   0.50208   3 ;     H4-    C2-    C3-    H6
     9      2      3     12      9 ;     0.00   0.50208   3 ;     H4-    C2-    C3-    H7
    10      2      3     11      9 ;     0.00   0.50208   3 ;     H5-    C2-    C3-    H6
    10      2      3     12      9 ;     0.00   0.50208   3 ;     H5-    C2-    C3-    H7
    11      3      4     13      9 ;     0.00   0.65084   3 ;     H6-    C3-    C4-    H8
    11      3      4     14      9 ;     0.00   0.65084   3 ;     H6-    C3-    C4-    H9
    12      3      4     13      9 ;     0.00   0.65084   3 ;     H7-    C3-    C4-    H8
    12      3      4     14      9 ;     0.00   0.65084   3 ;     H7-    C3-    C4-    H9
