; mobley_2802855_GMX_OPLS.top created by acpype (v: 2023.10.27) on Wed May 20 23:59:02 2026

; Include forcefield parameters
#include "ffoplsaa.itp"

; Include mobley_2802855_GMX.itp topology
#include "mobley_2802855_GMX.itp"

; Ligand position restraints
#ifdef POSRES_LIG
#include "posre_mobley_2802855.itp"
#endif

[ system ]
 mobley_2802855

[ molecules ]
; Compound        nmols
 mobley_2802855   1     
