1_bromobutane
    14
  -0.0590000   0.4630000   0.9900000   0.7280000  -0.3540000   2.0020000
   0.6660000   0.2690000   3.3960000   1.4220000  -0.5780000   4.4050000
   1.3670000   0.2760000   6.1540000   0.3380000   1.4800000   0.9130000
   0.0000000   0.0000000   0.0000000  -1.1150000   0.5270000   1.2720000
   1.7710000  -0.4260000   1.6720000   0.3260000  -1.3740000   2.0310000
   1.0880000   1.2810000   3.3640000  -0.3820000   0.3740000   3.7040000
   2.4780000  -0.6840000   4.1430000   0.9740000  -1.5680000   4.5270000
