4_acetylpyridine
    16
   0.1830000  -0.3460000   1.0110000   1.5260000  -0.4070000   3.0050000
  -0.7040000  -1.2000000   1.6470000   0.5790000  -1.2580000   3.5520000
   1.3170000   0.0530000   1.7100000   2.2800000   0.9480000   1.0890000
   2.0550000   1.4540000  -0.3320000  -0.5340000  -1.6670000   2.9040000
   3.3050000   1.3220000   1.6930000  -0.0090000  -0.0060000  -0.0020000
   2.4010000  -0.1150000   3.5770000  -1.6030000  -1.5410000   1.1450000
   0.6960000  -1.6450000   4.5590000   1.1330000   2.0400000  -0.3730000
   2.0130000   0.6080000  -1.0240000   2.8820000   2.1010000  -0.6410000
