; mobley_6794076_GMX.itp created by acpype (v: 2023.10.27) on Wed May 20 23:44:13 2026

[ atomtypes ]
;name   bond_type     mass     charge   ptype   sigma         epsilon       Amb
 ca       ca          0.00000  0.00000   A     3.31521e-01   4.13379e-01 ; 1.86  0.0988
 c        c           0.00000  0.00000   A     3.31521e-01   4.13379e-01 ; 1.86  0.0988
 c3       c3          0.00000  0.00000   A     3.39771e-01   4.51035e-01 ; 1.91  0.1078
 nb       nb          0.00000  0.00000   A     3.38417e-01   3.93714e-01 ; 1.90  0.0941
 o        o           0.00000  0.00000   A     3.04812e-01   6.12119e-01 ; 1.71  0.1463
 ha       ha          0.00000  0.00000   A     2.62548e-01   6.73624e-02 ; 1.47  0.0161
 h4       h4          0.00000  0.00000   A     2.53639e-01   6.73624e-02 ; 1.42  0.0161
 hc       hc          0.00000  0.00000   A     2.60018e-01   8.70272e-02 ; 1.46  0.0208

[ moleculetype ]
;name            nrexcl
 mobley_6794076   3

[ atoms ]
;   nr  type  resi  res  atom  cgnr     charge      mass       ; qtot   bond_type
     1   ca     1   MOL    C1    1    -0.202300     12.01000 ; qtot -0.202
     2   ca     1   MOL    C2    2    -0.202300     12.01000 ; qtot -0.405
     3   ca     1   MOL    C3    3     0.382700     12.01000 ; qtot -0.022
     4   ca     1   MOL    C4    4     0.382700     12.01000 ; qtot 0.361
     5   ca     1   MOL    C5    5    -0.137600     12.01000 ; qtot 0.223
     6    c     1   MOL    C6    6     0.573700     12.01000 ; qtot 0.797
     7   c3     1   MOL    C7    7    -0.199100     12.01000 ; qtot 0.598
     8   nb     1   MOL    N1    8    -0.643999     14.01000 ; qtot -0.046
     9    o     1   MOL    O1    9    -0.523100     16.00000 ; qtot -0.569
    10   ha     1   MOL    H1   10     0.156500      1.00800 ; qtot -0.413
    11   ha     1   MOL    H2   11     0.156500      1.00800 ; qtot -0.256
    12   h4     1   MOL    H3   12     0.027600      1.00800 ; qtot -0.229
    13   h4     1   MOL    H4   13     0.027600      1.00800 ; qtot -0.201
    14   hc     1   MOL    H5   14     0.067033      1.00800 ; qtot -0.134
    15   hc     1   MOL    H6   15     0.067033      1.00800 ; qtot -0.067
    16   hc     1   MOL    H7   16     0.067033      1.00800 ; qtot -0.000

[ bonds ]
;   ai     aj funct   r             k
     1      3   1    1.3986e-01    2.9644e+05 ;     C1 - C3    
     1      5   1    1.3986e-01    2.9644e+05 ;     C1 - C5    
     1     10   1    1.0860e-01    3.0183e+05 ;     C1 - H1    
     2      4   1    1.3986e-01    2.9644e+05 ;     C2 - C4    
     2      5   1    1.3986e-01    2.9644e+05 ;     C2 - C5    
     2     11   1    1.0860e-01    3.0183e+05 ;     C2 - H2    
     3      8   1    1.3392e-01    3.2341e+05 ;     C3 - N1    
     3     12   1    1.0885e-01    2.9859e+05 ;     C3 - H3    
     4      8   1    1.3392e-01    3.2341e+05 ;     C4 - N1    
     4     13   1    1.0885e-01    2.9859e+05 ;     C4 - H4    
     5      6   1    1.4907e-01    2.1994e+05 ;     C5 - C6    
     6      7   1    1.5270e-01    1.9652e+05 ;     C6 - C7    
     6      9   1    1.2190e-01    4.9421e+05 ;     C6 - O1    
     7     14   1    1.0962e-01    2.8891e+05 ;     C7 - H5    
     7     15   1    1.0962e-01    2.8891e+05 ;     C7 - H6    
     7     16   1    1.0962e-01    2.8891e+05 ;     C7 - H7    

[ pairs ]
;   ai     aj    funct
     1      4      1 ;     C1 - C4    
     1      7      1 ;     C1 - C7    
     1      9      1 ;     C1 - O1    
     1     11      1 ;     C1 - H2    
     2      3      1 ;     C2 - C3    
     2      7      1 ;     C2 - C7    
     2      9      1 ;     C2 - O1    
     3      6      1 ;     C3 - C6    
     3     13      1 ;     C3 - H4    
     4      6      1 ;     C4 - C6    
     4     12      1 ;     C4 - H3    
     5      8      1 ;     C5 - N1    
     5     12      1 ;     C5 - H3    
     5     13      1 ;     C5 - H4    
     5     14      1 ;     C5 - H5    
     5     15      1 ;     C5 - H6    
     5     16      1 ;     C5 - H7    
     6     11      1 ;     C6 - H2    
     8     11      1 ;     N1 - H2    
     9     14      1 ;     O1 - H5    
     9     15      1 ;     O1 - H6    
     9     16      1 ;     O1 - H7    
    10      2      1 ;     H1 - C2    
    10      6      1 ;     H1 - C6    
    10      8      1 ;     H1 - N1    
    10     12      1 ;     H1 - H3    
    11     13      1 ;     H2 - H4    

[ angles ]
;   ai     aj     ak    funct   theta         cth
     1      3      8      1    1.2294e+02    5.7045e+02 ;     C1 - C3     - N1    
     1      3     12      1    1.2032e+02    3.7489e+02 ;     C1 - C3     - H3    
     1      5      2      1    1.2002e+02    5.3279e+02 ;     C1 - C5     - C2    
     1      5      6      1    1.2033e+02    5.1413e+02 ;     C1 - C5     - C6    
     2      4      8      1    1.2294e+02    5.7045e+02 ;     C2 - C4     - N1    
     2      4     13      1    1.2032e+02    3.7489e+02 ;     C2 - C4     - H4    
     2      5      6      1    1.2033e+02    5.1413e+02 ;     C2 - C5     - C6    
     3      1      5      1    1.2002e+02    5.3279e+02 ;     C3 - C1     - C5    
     3      1     10      1    1.1988e+02    3.7572e+02 ;     C3 - C1     - H1    
     3      8      4      1    1.1724e+02    6.9580e+02 ;     C3 - N1     - C4    
     4      2      5      1    1.2002e+02    5.3279e+02 ;     C4 - C2     - C5    
     4      2     11      1    1.1988e+02    3.7572e+02 ;     C4 - C2     - H2    
     5      1     10      1    1.1988e+02    3.7572e+02 ;     C5 - C1     - H1    
     5      2     11      1    1.1988e+02    3.7572e+02 ;     C5 - C2     - H2    
     5      6      7      1    1.1899e+02    4.9589e+02 ;     C5 - C6     - C7    
     5      6      9      1    1.2260e+02    6.5237e+02 ;     C5 - C6     - O1    
     6      7     14      1    1.0895e+02    3.6510e+02 ;     C6 - C7     - H5    
     6      7     15      1    1.0895e+02    3.6510e+02 ;     C6 - C7     - H6    
     6      7     16      1    1.0895e+02    3.6510e+02 ;     C6 - C7     - H7    
     7      6      9      1    1.2290e+02    6.3973e+02 ;     C7 - C6     - O1    
     8      3     12      1    1.1602e+02    4.1924e+02 ;     N1 - C3     - H3    
     8      4     13      1    1.1602e+02    4.1924e+02 ;     N1 - C4     - H4    
    14      7     15      1    1.0773e+02    2.9957e+02 ;     H5 - C7     - H6    
    14      7     16      1    1.0773e+02    2.9957e+02 ;     H5 - C7     - H7    
    15      7     16      1    1.0773e+02    2.9957e+02 ;     H6 - C7     - H7    

[ dihedrals ] ; propers
; for gromacs 4.5 or higher, using funct 9
;    i      j      k      l   func   phase     kd      pn
     1      3      8      4      9   180.00  20.08320   2 ;     C1-    C3-    N1-    C4
     1      5      2      4      9   180.00  15.16700   2 ;     C1-    C5-    C2-    C4
     1      5      2     11      9   180.00  15.16700   2 ;     C1-    C5-    C2-    H2
     1      5      6      7      9   180.00   4.40157   2 ;     C1-    C5-    C6-    C7
     1      5      6      9      9   180.00   2.42672   2 ;     C1-    C5-    C6-    O1
     2      4      8      3      9   180.00  20.08320   2 ;     C2-    C4-    N1-    C3
     2      5      6      7      9   180.00   4.40157   2 ;     C2-    C5-    C6-    C7
     2      5      6      9      9   180.00   2.42672   2 ;     C2-    C5-    C6-    O1
     3      1      5      2      9   180.00  15.16700   2 ;     C3-    C1-    C5-    C2
     3      1      5      6      9   180.00  15.16700   2 ;     C3-    C1-    C5-    C6
     3      8      4     13      9   180.00  20.08320   2 ;     C3-    N1-    C4-    H4
     4      2      5      6      9   180.00  15.16700   2 ;     C4-    C2-    C5-    C6
     4      8      3     12      9   180.00  20.08320   2 ;     C4-    N1-    C3-    H3
     5      1      3      8      9   180.00  15.16700   2 ;     C5-    C1-    C3-    N1
     5      1      3     12      9   180.00  15.16700   2 ;     C5-    C1-    C3-    H3
     5      2      4      8      9   180.00  15.16700   2 ;     C5-    C2-    C4-    N1
     5      2      4     13      9   180.00  15.16700   2 ;     C5-    C2-    C4-    H4
     5      6      7     14      9   180.00   0.00000   2 ;     C5-    C6-    C7-    H5
     5      6      7     15      9   180.00   0.00000   2 ;     C5-    C6-    C7-    H6
     5      6      7     16      9   180.00   0.00000   2 ;     C5-    C6-    C7-    H7
     6      5      2     11      9   180.00  15.16700   2 ;     C6-    C5-    C2-    H2
     8      4      2     11      9   180.00  15.16700   2 ;     N1-    C4-    C2-    H2
     9      6      7     14      9     0.00  16.86152   1 ;     O1-    C6-    C7-    H5
     9      6      7     14      9   180.00  15.31344   2 ;     O1-    C6-    C7-    H5
     9      6      7     15      9     0.00  16.86152   1 ;     O1-    C6-    C7-    H6
     9      6      7     15      9   180.00  15.31344   2 ;     O1-    C6-    C7-    H6
     9      6      7     16      9     0.00  16.86152   1 ;     O1-    C6-    C7-    H7
     9      6      7     16      9   180.00  15.31344   2 ;     O1-    C6-    C7-    H7
    10      1      3      8      9   180.00  15.16700   2 ;     H1-    C1-    C3-    N1
    10      1      3     12      9   180.00  15.16700   2 ;     H1-    C1-    C3-    H3
    10      1      5      2      9   180.00  15.16700   2 ;     H1-    C1-    C5-    C2
    10      1      5      6      9   180.00  15.16700   2 ;     H1-    C1-    C5-    C6
    11      2      4     13      9   180.00  15.16700   2 ;     H2-    C2-    C4-    H4

[ dihedrals ] ; impropers
; treated as propers in GROMACS to use correct AMBER analytical function
;    i      j      k      l   func   phase     kd      pn
     1     12      3      8      4   180.00   4.60240   2 ;     C1-    H3-    C3-    N1
     2     13      4      8      4   180.00   4.60240   2 ;     C2-    H4-    C4-    N1
     4      5      2     11      4   180.00   4.60240   2 ;     C4-    C5-    C2-    H2
     6      1      5      2      4   180.00   4.60240   2 ;     C6-    C1-    C5-    C2
     7      5      6      9      4   180.00  43.93200   2 ;     C7-    C5-    C6-    O1
    10      1      5      3      4   180.00   4.60240   2 ;     H1-    C1-    C5-    C3
