; mobley_6794076_GMX_OPLS.itp created by acpype (v: 2023.10.27) on Wed May 20 23:44:13 2026

; For OPLS atomtypes manual fine tuning
; AC_at:OPLS_at:OPLScode: Possible_Alternatives (see ffoplsaa.atp and ffoplsaanb.itp)
; ca:CA:opls_145: ['166', '501', '502']
; c:C:opls_235: ['271']
; c3:CT:opls_135: ['136', '137', '149', '157', '158', '206', '209', '210', '223B', '224B', '245', '246', '274', '283', '284', '285', '292', '292B', '293B', '296', '307', '308', '505']
; nb:x:opls_x: []
; o:O:opls_236: ['272']
; ha:HA:opls_146: []
; h4:HA:opls_146: []
; hc:HC:opls_140: []

[ moleculetype ]
;name            nrexcl
 mobley_6794076   3

[ atoms ]
;   nr  type  resi  res  atom  cgnr     charge      mass       ; qtot   bond_type
     1 opls_145     1   MOL    C1    1    -0.202300     12.01100 ; qtot -0.202  CA  
     2 opls_145     1   MOL    C2    2    -0.202300     12.01100 ; qtot -0.405  CA  
     3 opls_145     1   MOL    C3    3     0.382700     12.01100 ; qtot -0.022  CA  
     4 opls_145     1   MOL    C4    4     0.382700     12.01100 ; qtot  0.361  CA  
     5 opls_145     1   MOL    C5    5    -0.137600     12.01100 ; qtot  0.223  CA  
     6 opls_235     1   MOL    C6    6     0.573700     12.01100 ; qtot  0.797  C   
     7 opls_135     1   MOL    C7    7    -0.199100     12.01100 ; qtot  0.598  CT  
     8 opls_x     1   MOL    N1    8    -0.643999      0.00000 ; qtot -0.046  x   
     9 opls_236     1   MOL    O1    9    -0.523100     15.99940 ; qtot -0.569  O   
    10 opls_146     1   MOL    H1   10     0.156500      1.00800 ; qtot -0.413  HA  
    11 opls_146     1   MOL    H2   11     0.156500      1.00800 ; qtot -0.256  HA  
    12 opls_146     1   MOL    H3   12     0.027600      1.00800 ; qtot -0.229  HA  
    13 opls_146     1   MOL    H4   13     0.027600      1.00800 ; qtot -0.201  HA  
    14 opls_140     1   MOL    H5   14     0.067033      1.00800 ; qtot -0.134  HC  
    15 opls_140     1   MOL    H6   15     0.067033      1.00800 ; qtot -0.067  HC  
    16 opls_140     1   MOL    H7   16     0.067033      1.00800 ; qtot -0.000  HC  

[ bonds ]
;   ai     aj funct   r             k
     1      3   1 ;    1.3986e-01    2.9644e+05 ;     C1 - C3         CA - CA    
     1      5   1 ;    1.3986e-01    2.9644e+05 ;     C1 - C5         CA - CA    
     1     10   1 ;    1.0860e-01    3.0183e+05 ;     C1 - H1         CA - HA    
     2      4   1 ;    1.3986e-01    2.9644e+05 ;     C2 - C4         CA - CA    
     2      5   1 ;    1.3986e-01    2.9644e+05 ;     C2 - C5         CA - CA    
     2     11   1 ;    1.0860e-01    3.0183e+05 ;     C2 - H2         CA - HA    
     3      8   1 ;    1.3392e-01    3.2341e+05 ;     C3 - N1         CA - x     
     3     12   1 ;    1.0885e-01    2.9859e+05 ;     C3 - H3         CA - HA    
     4      8   1 ;    1.3392e-01    3.2341e+05 ;     C4 - N1         CA - x     
     4     13   1 ;    1.0885e-01    2.9859e+05 ;     C4 - H4         CA - HA    
     5      6   1 ;    1.4907e-01    2.1994e+05 ;     C5 - C6         CA - C     
     6      7   1 ;    1.5270e-01    1.9652e+05 ;     C6 - C7          C - CT    
     6      9   1 ;    1.2190e-01    4.9421e+05 ;     C6 - O1          C - O     
     7     14   1 ;    1.0962e-01    2.8891e+05 ;     C7 - H5         CT - HC    
     7     15   1 ;    1.0962e-01    2.8891e+05 ;     C7 - H6         CT - HC    
     7     16   1 ;    1.0962e-01    2.8891e+05 ;     C7 - H7         CT - HC    

[ pairs ]
;   ai     aj    funct
     1      4      1 ;     C1 - C4    
     1      7      1 ;     C1 - C7    
     1      9      1 ;     C1 - O1    
     1     11      1 ;     C1 - H2    
     2      3      1 ;     C2 - C3    
     2      7      1 ;     C2 - C7    
     2      9      1 ;     C2 - O1    
     3      6      1 ;     C3 - C6    
     3     13      1 ;     C3 - H4    
     4      6      1 ;     C4 - C6    
     4     12      1 ;     C4 - H3    
     5      8      1 ;     C5 - N1    
     5     12      1 ;     C5 - H3    
     5     13      1 ;     C5 - H4    
     5     14      1 ;     C5 - H5    
     5     15      1 ;     C5 - H6    
     5     16      1 ;     C5 - H7    
     6     11      1 ;     C6 - H2    
     8     11      1 ;     N1 - H2    
     9     14      1 ;     O1 - H5    
     9     15      1 ;     O1 - H6    
     9     16      1 ;     O1 - H7    
    10      2      1 ;     H1 - C2    
    10      6      1 ;     H1 - C6    
    10      8      1 ;     H1 - N1    
    10     12      1 ;     H1 - H3    
    11     13      1 ;     H2 - H4    

[ angles ]
;   ai     aj     ak    funct   theta         cth
     1      3      8      1 ;    1.2294e+02    5.7045e+02 ;     C1 - C3   - N1       CA -   CA - x   
     1      3     12      1 ;    1.2032e+02    3.7489e+02 ;     C1 - C3   - H3       CA -   CA - HA  
     1      5      2      1 ;    1.2002e+02    5.3279e+02 ;     C1 - C5   - C2       CA -   CA - CA  
     1      5      6      1 ;    1.2033e+02    5.1413e+02 ;     C1 - C5   - C6       CA -   CA - C   
     2      4      8      1 ;    1.2294e+02    5.7045e+02 ;     C2 - C4   - N1       CA -   CA - x   
     2      4     13      1 ;    1.2032e+02    3.7489e+02 ;     C2 - C4   - H4       CA -   CA - HA  
     2      5      6      1 ;    1.2033e+02    5.1413e+02 ;     C2 - C5   - C6       CA -   CA - C   
     3      1      5      1 ;    1.2002e+02    5.3279e+02 ;     C3 - C1   - C5       CA -   CA - CA  
     3      1     10      1 ;    1.1988e+02    3.7572e+02 ;     C3 - C1   - H1       CA -   CA - HA  
     3      8      4      1 ;    1.1724e+02    6.9580e+02 ;     C3 - N1   - C4       CA -    x - CA  
     4      2      5      1 ;    1.2002e+02    5.3279e+02 ;     C4 - C2   - C5       CA -   CA - CA  
     4      2     11      1 ;    1.1988e+02    3.7572e+02 ;     C4 - C2   - H2       CA -   CA - HA  
     5      1     10      1 ;    1.1988e+02    3.7572e+02 ;     C5 - C1   - H1       CA -   CA - HA  
     5      2     11      1 ;    1.1988e+02    3.7572e+02 ;     C5 - C2   - H2       CA -   CA - HA  
     5      6      7      1 ;    1.1899e+02    4.9589e+02 ;     C5 - C6   - C7       CA -    C - CT  
     5      6      9      1 ;    1.2260e+02    6.5237e+02 ;     C5 - C6   - O1       CA -    C - O   
     6      7     14      1 ;    1.0895e+02    3.6510e+02 ;     C6 - C7   - H5        C -   CT - HC  
     6      7     15      1 ;    1.0895e+02    3.6510e+02 ;     C6 - C7   - H6        C -   CT - HC  
     6      7     16      1 ;    1.0895e+02    3.6510e+02 ;     C6 - C7   - H7        C -   CT - HC  
     7      6      9      1 ;    1.2290e+02    6.3973e+02 ;     C7 - C6   - O1       CT -    C - O   
     8      3     12      1 ;    1.1602e+02    4.1924e+02 ;     N1 - C3   - H3        x -   CA - HA  
     8      4     13      1 ;    1.1602e+02    4.1924e+02 ;     N1 - C4   - H4        x -   CA - HA  
    14      7     15      1 ;    1.0773e+02    2.9957e+02 ;     H5 - C7   - H6       HC -   CT - HC  
    14      7     16      1 ;    1.0773e+02    2.9957e+02 ;     H5 - C7   - H7       HC -   CT - HC  
    15      7     16      1 ;    1.0773e+02    2.9957e+02 ;     H6 - C7   - H7       HC -   CT - HC  

[ dihedrals ] ; propers
; for gromacs 4.5 or higher, using funct 9
;    i      j      k      l   func   phase     kd      pn
     1      3      8      4      9 ;   180.00  20.08320   2 ;     C1-    C3-    N1-    C4
     1      5      2      4      9 ;   180.00  15.16700   2 ;     C1-    C5-    C2-    C4
     1      5      2     11      9 ;   180.00  15.16700   2 ;     C1-    C5-    C2-    H2
     1      5      6      7      9 ;   180.00   4.40157   2 ;     C1-    C5-    C6-    C7
     1      5      6      9      9 ;   180.00   2.42672   2 ;     C1-    C5-    C6-    O1
     2      4      8      3      9 ;   180.00  20.08320   2 ;     C2-    C4-    N1-    C3
     2      5      6      7      9 ;   180.00   4.40157   2 ;     C2-    C5-    C6-    C7
     2      5      6      9      9 ;   180.00   2.42672   2 ;     C2-    C5-    C6-    O1
     3      1      5      2      9 ;   180.00  15.16700   2 ;     C3-    C1-    C5-    C2
     3      1      5      6      9 ;   180.00  15.16700   2 ;     C3-    C1-    C5-    C6
     3      8      4     13      9 ;   180.00  20.08320   2 ;     C3-    N1-    C4-    H4
     4      2      5      6      9 ;   180.00  15.16700   2 ;     C4-    C2-    C5-    C6
     4      8      3     12      9 ;   180.00  20.08320   2 ;     C4-    N1-    C3-    H3
     5      1      3      8      9 ;   180.00  15.16700   2 ;     C5-    C1-    C3-    N1
     5      1      3     12      9 ;   180.00  15.16700   2 ;     C5-    C1-    C3-    H3
     5      2      4      8      9 ;   180.00  15.16700   2 ;     C5-    C2-    C4-    N1
     5      2      4     13      9 ;   180.00  15.16700   2 ;     C5-    C2-    C4-    H4
     5      6      7     14      9 ;   180.00   0.00000   2 ;     C5-    C6-    C7-    H5
     5      6      7     15      9 ;   180.00   0.00000   2 ;     C5-    C6-    C7-    H6
     5      6      7     16      9 ;   180.00   0.00000   2 ;     C5-    C6-    C7-    H7
     6      5      2     11      9 ;   180.00  15.16700   2 ;     C6-    C5-    C2-    H2
     8      4      2     11      9 ;   180.00  15.16700   2 ;     N1-    C4-    C2-    H2
     9      6      7     14      9 ;     0.00  16.86152   1 ;     O1-    C6-    C7-    H5
     9      6      7     14      9 ;   180.00  15.31344   2 ;     O1-    C6-    C7-    H5
     9      6      7     15      9 ;     0.00  16.86152   1 ;     O1-    C6-    C7-    H6
     9      6      7     15      9 ;   180.00  15.31344   2 ;     O1-    C6-    C7-    H6
     9      6      7     16      9 ;     0.00  16.86152   1 ;     O1-    C6-    C7-    H7
     9      6      7     16      9 ;   180.00  15.31344   2 ;     O1-    C6-    C7-    H7
    10      1      3      8      9 ;   180.00  15.16700   2 ;     H1-    C1-    C3-    N1
    10      1      3     12      9 ;   180.00  15.16700   2 ;     H1-    C1-    C3-    H3
    10      1      5      2      9 ;   180.00  15.16700   2 ;     H1-    C1-    C5-    C2
    10      1      5      6      9 ;   180.00  15.16700   2 ;     H1-    C1-    C5-    C6
    11      2      4     13      9 ;   180.00  15.16700   2 ;     H2-    C2-    C4-    H4

[ dihedrals ] ; impropers
; treated as propers in GROMACS to use correct AMBER analytical function
;    i      j      k      l   func   phase     kd      pn
     1     12      3      8      4 ;   180.00   4.60240   2 ;     C1-    H3-    C3-    N1
     2     13      4      8      4 ;   180.00   4.60240   2 ;     C2-    H4-    C4-    N1
     4      5      2     11      4 ;   180.00   4.60240   2 ;     C4-    C5-    C2-    H2
     6      1      5      2      4 ;   180.00   4.60240   2 ;     C6-    C1-    C5-    C2
     7      5      6      9      4 ;   180.00  43.93200   2 ;     C7-    C5-    C6-    O1
    10      1      5      3      4 ;   180.00   4.60240   2 ;     H1-    C1-    C5-    C3
