mobley_7893124_GMX.gro created by acpype (v: 2023.10.27) on Wed May 20 23:44:10 2026
   24
    1MOL     C1    1   2.357   2.130   2.580
    1MOL     C2    2   2.473   2.205   2.560
    1MOL     C3    3   2.243   2.156   2.504
    1MOL     C4    4   2.474   2.306   2.464
    1MOL     C5    5   2.244   2.257   2.408
    1MOL     C6    6   2.360   2.329   2.391
    1MOL     C7    7   2.470   2.410   2.180
    1MOL     C8    8   2.393   2.575   2.353
    1MOL     C9    9   2.228   2.457   2.210
    1MOL    C10   10   2.362   2.440   2.285
    1MOL     H1   11   2.356   2.051   2.655
    1MOL     H2   12   2.562   2.185   2.619
    1MOL     H3   13   2.153   2.097   2.520
    1MOL     H4   14   2.565   2.364   2.449
    1MOL     H5   15   2.155   2.276   2.350
    1MOL     H6   16   2.471   2.486   2.101
    1MOL     H7   17   2.571   2.407   2.223
    1MOL     H8   18   2.453   2.312   2.132
    1MOL     H9   19   2.492   2.576   2.399
    1MOL    H10   20   2.392   2.657   2.280
    1MOL    H11   21   2.320   2.599   2.430
    1MOL    H12   22   2.234   2.537   2.135
    1MOL    H13   23   2.201   2.365   2.156
    1MOL    H14   24   2.146   2.482   2.278
   4.72214   4.72214   4.72214
