%VERSION  VERSION_STAMP = V0001.000  DATE = 05/21/26  00:02:06                  
%FLAG TITLE                                                                     
%FORMAT(20a4)                                                                   
ZINC00901022                                                                    
%FLAG POINTERS                                                                  
%FORMAT(10I8)                                                                   
      16       6       8       8      15      10      25      13       0       0
      73       1       8      10      13       6       7       4       6       0
       0       0       0       0       0       0       0       0      16       0
       0
%FLAG ATOM_NAME                                                                 
%FORMAT(20a4)                                                                   
C1  C2  C3  C4  C5  C6  C7  O1  H1  H2  H3  H4  H5  H6  H7  H8  
%FLAG CHARGE                                                                    
%FORMAT(5E16.8)                                                                 
 -9.98582040E-01 -2.90281239E+00 -1.67645160E+00 -2.97023490E+00 -1.82223000E+00
 -2.82445650E+00  2.27960973E+00 -9.11297223E+00  7.65336600E+00  8.08468784E-01
  8.08468784E-01  8.08468784E-01  2.38712130E+00  2.42356590E+00  2.44178820E+00
  2.71512270E+00
%FLAG ATOMIC_NUMBER                                                             
%FORMAT(10I8)                                                                   
       6       6       6       6       6       6       6       8       1       1
       1       1       1       1       1       1
%FLAG MASS                                                                      
%FORMAT(5E16.8)                                                                 
  1.20100000E+01  1.20100000E+01  1.20100000E+01  1.20100000E+01  1.20100000E+01
  1.20100000E+01  1.20100000E+01  1.60000000E+01  1.00800000E+00  1.00800000E+00
  1.00800000E+00  1.00800000E+00  1.00800000E+00  1.00800000E+00  1.00800000E+00
  1.00800000E+00
%FLAG ATOM_TYPE_INDEX                                                           
%FORMAT(10I8)                                                                   
       1       2       2       2       2       2       2       3       4       5
       5       5       6       6       6       6
%FLAG NUMBER_EXCLUDED_ATOMS                                                     
%FORMAT(10I8)                                                                   
      10      13      11       7       7       6       8       2       1       2
       1       1       1       1       1       1
%FLAG NONBONDED_PARM_INDEX                                                      
%FORMAT(10I8)                                                                   
       1       2       4       7      11      16       2       3       5       8
      12      17       4       5       6       9      13      18       7       8
       9      10      14      19      11      12      13      14      15      20
      16      17      18      19      20      21
%FLAG RESIDUE_LABEL                                                             
%FORMAT(20a4)                                                                   
MOL 
%FLAG RESIDUE_POINTER                                                           
%FORMAT(10I8)                                                                   
       1
%FLAG BOND_FORCE_CONSTANT                                                       
%FORMAT(5E16.8)                                                                 
  2.43910000E+02  3.45250000E+02  3.54250000E+02  3.60690000E+02  3.48550000E+02
  5.35510000E+02
%FLAG BOND_EQUIL_VALUE                                                          
%FORMAT(5E16.8)                                                                 
  1.51470000E+00  1.09620000E+00  1.39860000E+00  1.08600000E+00  1.36440000E+00
  9.72500000E-01
%FLAG ANGLE_FORCE_CONSTANT                                                      
%FORMAT(5E16.8)                                                                 
  6.07400000E+01  4.36100000E+01  6.36700000E+01  4.49000000E+01  7.88600000E+01
  6.74100000E+01  3.58000000E+01
%FLAG ANGLE_EQUIL_VALUE                                                         
%FORMAT(5E16.8)                                                                 
  2.10888224E+00  1.93085858E+00  2.09474507E+00  2.09230160E+00  2.09265067E+00
  1.89507931E+00  1.88024401E+00
%FLAG DIHEDRAL_FORCE_CONSTANT                                                   
%FORMAT(5E16.8)                                                                 
  3.62500000E+00  8.55000000E-01  0.00000000E+00  1.10000000E+00
%FLAG DIHEDRAL_PERIODICITY                                                      
%FORMAT(5E16.8)                                                                 
  2.00000000E+00  2.00000000E+00  1.00000000E+00  2.00000000E+00
%FLAG DIHEDRAL_PHASE                                                            
%FORMAT(5E16.8)                                                                 
  3.14159400E+00  3.14159400E+00  0.00000000E+00  3.14159400E+00
%FLAG SCEE_SCALE_FACTOR                                                         
%FORMAT(5E16.8)                                                                 
  1.20000000E+00  1.20000000E+00  1.20000000E+00  0.00000000E+00
%FLAG SCNB_SCALE_FACTOR                                                         
%FORMAT(5E16.8)                                                                 
  2.00000000E+00  2.00000000E+00  2.00000000E+00  0.00000000E+00
%FLAG SOLTY                                                                     
%FORMAT(5E16.8)                                                                 
  0.00000000E+00  0.00000000E+00  0.00000000E+00  0.00000000E+00  0.00000000E+00
  0.00000000E+00
%FLAG LENNARD_JONES_ACOEF                                                       
%FORMAT(5E16.8)                                                                 
  1.02073671E+06  8.43969952E+05  6.96551276E+05  7.18991463E+05  5.92438683E+05
  5.03152404E+05  3.03553352E+02  2.25372434E+02  1.74176419E+02  1.10360882E-05
  1.00235148E+05  8.12662403E+04  6.80216136E+04  8.80612241E+00  7.94617769E+03
  9.27554496E+04  7.52549148E+04  6.30298721E+04  8.53132435E+00  7.41026906E+03
  6.90855956E+03
%FLAG LENNARD_JONES_BCOEF                                                       
%FORMAT(5E16.8)                                                                 
  6.63431737E+02  5.90251928E+02  5.24668528E+02  5.36620538E+02  4.76608379E+02
  4.32634597E+02  5.22789272E+00  4.40751799E+00  3.81654050E+00  4.55498033E-04
  1.37787728E+02  1.21392023E+02  1.09393126E+02  5.90150328E-01  2.57122925E+01
  1.24325688E+02  1.09570372E+02  9.87712192E+01  5.44840215E-01  2.32899892E+01
  2.10929191E+01
%FLAG BONDS_INC_HYDROGEN                                                        
%FORMAT(10I8)                                                                   
       0      27       2       0      30       2       0      33       2       6
      36       4       9      39       4      12      42       4      15      45
       4      21      24       6
%FLAG BONDS_WITHOUT_HYDROGEN                                                    
%FORMAT(10I8)                                                                   
       0       3       1       3       6       3       3      18       3       6
       9       3       9      12       3      12      15       3      15      18
       3      18      21       5
%FLAG ANGLES_INC_HYDROGEN                                                       
%FORMAT(10I8)                                                                   
       3       0      27       2       3       0      30       2       3       0
      33       2       3       6      36       4       6       9      39       4
       9       6      36       4       9      12      42       4      12       9
      39       4      12      15      45       4      15      12      42       4
      18      15      45       4      18      21      24       6      27       0
      30       7      27       0      33       7      30       0      33       7
%FLAG ANGLES_WITHOUT_HYDROGEN                                                   
%FORMAT(10I8)                                                                   
       0       3       6       1       0       3      18       1       3       6
       9       3       3      18      15       3       3      18      21       5
       6       3      18       3       6       9      12       3       9      12
      15       3      12      15      18       3      15      18      21       5
%FLAG DIHEDRALS_INC_HYDROGEN                                                    
%FORMAT(10I8)                                                                   
       0       3       6      36       1       3       6       9      39       1
       3      18      15      45       1       3      18      21      24       2
      27       0       3       6       3      30       0       3       6       3
      33       0       3       6       3       6       9      12      42       1
       9      12      15      45       1      12       9       6      36       1
      15      12       9      39       1      15      18      21      24       2
      27       0       3      18       3      30       0       3      18       3
      33       0       3      18       3      18       3       6      36       1
      18      15      12      42       1      21      18      15      45       1
      36       6       9      39       1      39       9      12      42       1
      42      12      15      45       1       3       9      -6     -36       4
       6      12      -9     -39       4       9      15     -12     -42       4
      12      18     -15     -45       4
%FLAG DIHEDRALS_WITHOUT_HYDROGEN                                                
%FORMAT(10I8)                                                                   
       0       3       6       9       1       0       3      18      15       1
       0       3      18      21       1       3       6       9      12       1
       3      18     -15      12       1       6       3      18      15       1
       6       3      18      21       1       6       9     -12      15       1
       9       6       3      18       1       9      12     -15      18       1
      12      15      18      21       1       0       3     -18      -6       4
       3      15     -18     -21       4
%FLAG EXCLUDED_ATOMS_LIST                                                       
%FORMAT(10I8)                                                                   
       2       3       4       6       7       8      10      11      12      13
       3       4       5       6       7       8       9      10      11      12
      13      14      16       4       5       6       7       8      10      11
      12      13      14      15       5       6       7      13      14      15
      16       6       7       8      13      14      15      16       7       8
       9      14      15      16       8       9      10      11      12      13
      15      16       9      16       0      11      12      12       0      14
      15      16       0
%FLAG HBOND_ACOEF                                                               
%FORMAT(5E16.8)                                                                 

%FLAG HBOND_BCOEF                                                               
%FORMAT(5E16.8)                                                                 

%FLAG HBCUT                                                                     
%FORMAT(5E16.8)                                                                 

%FLAG AMBER_ATOM_TYPE                                                           
%FORMAT(20a4)                                                                   
c3  ca  ca  ca  ca  ca  ca  oh  ho  hc  hc  hc  ha  ha  ha  ha  
%FLAG TREE_CHAIN_CLASSIFICATION                                                 
%FORMAT(20a4)                                                                   
BLA BLA BLA BLA BLA BLA BLA BLA BLA BLA BLA BLA BLA BLA BLA BLA 
%FLAG JOIN_ARRAY                                                                
%FORMAT(10I8)                                                                   
       0       0       0       0       0       0       0       0       0       0
       0       0       0       0       0       0
%FLAG IROTAT                                                                    
%FORMAT(10I8)                                                                   
       0       0       0       0       0       0       0       0       0       0
       0       0       0       0       0       0
%FLAG RADIUS_SET                                                                
%FORMAT(1a80)                                                                   
modified Bondi radii (mbondi)                                                   
%FLAG RADII                                                                     
%FORMAT(5E16.8)                                                                 
  1.70000000E+00  1.70000000E+00  1.70000000E+00  1.70000000E+00  1.70000000E+00
  1.70000000E+00  1.70000000E+00  1.50000000E+00  8.00000000E-01  1.30000000E+00
  1.30000000E+00  1.30000000E+00  1.30000000E+00  1.30000000E+00  1.30000000E+00
  1.30000000E+00
%FLAG SCREEN                                                                    
%FORMAT(5E16.8)                                                                 
  7.20000000E-01  7.20000000E-01  7.20000000E-01  7.20000000E-01  7.20000000E-01
  7.20000000E-01  7.20000000E-01  8.50000000E-01  8.50000000E-01  8.50000000E-01
  8.50000000E-01  8.50000000E-01  8.50000000E-01  8.50000000E-01  8.50000000E-01
  8.50000000E-01
%FLAG IPOL                                                                      
%FORMAT(1I8)                                                                    
       0
