; mobley_4035953_GMX_OPLS.itp created by acpype (v: 2023.10.27) on Thu May 21 00:02:05 2026

; For OPLS atomtypes manual fine tuning
; AC_at:OPLS_at:OPLScode: Possible_Alternatives (see ffoplsaa.atp and ffoplsaanb.itp)
; c3:CT:opls_135: ['136', '137', '149', '157', '158', '206', '209', '210', '223B', '224B', '245', '246', '274', '283', '284', '285', '292', '292B', '293B', '296', '307', '308', '505']
; ca:CA:opls_145: ['166', '501', '502']
; oh:OH:opls_154: ['167']
; ho:HO:opls_155: ['168']
; hc:HC:opls_140: []
; ha:HA:opls_146: []

[ moleculetype ]
;name            nrexcl
 mobley_4035953   3

[ atoms ]
;   nr  type  resi  res  atom  cgnr     charge      mass       ; qtot   bond_type
     1 opls_135     1   MOL    C1    1    -0.054800     12.01100 ; qtot -0.055  CT  
     2 opls_145     1   MOL    C2    2    -0.159300     12.01100 ; qtot -0.214  CA  
     3 opls_145     1   MOL    C3    3    -0.092000     12.01100 ; qtot -0.306  CA  
     4 opls_145     1   MOL    C4    4    -0.163000     12.01100 ; qtot -0.469  CA  
     5 opls_145     1   MOL    C5    5    -0.100000     12.01100 ; qtot -0.569  CA  
     6 opls_145     1   MOL    C6    6    -0.155000     12.01100 ; qtot -0.724  CA  
     7 opls_145     1   MOL    C7    7     0.125100     12.01100 ; qtot -0.599  CA  
     8 opls_154     1   MOL    O1    8    -0.501101     15.99940 ; qtot -1.100  OH  
     9 opls_155     1   MOL    H1    9     0.420000      1.00800 ; qtot -0.680  HO  
    10 opls_140     1   MOL    H2   10     0.044367      1.00800 ; qtot -0.636  HC  
    11 opls_140     1   MOL    H3   11     0.044367      1.00800 ; qtot -0.591  HC  
    12 opls_140     1   MOL    H4   12     0.044367      1.00800 ; qtot -0.547  HC  
    13 opls_146     1   MOL    H5   13     0.131000      1.00800 ; qtot -0.416  HA  
    14 opls_146     1   MOL    H6   14     0.133000      1.00800 ; qtot -0.283  HA  
    15 opls_146     1   MOL    H7   15     0.134000      1.00800 ; qtot -0.149  HA  
    16 opls_146     1   MOL    H8   16     0.149000      1.00800 ; qtot -0.000  HA  

[ bonds ]
;   ai     aj funct   r             k
     1      2   1 ;    1.5147e-01    2.0410e+05 ;     C1 - C2         CT - CA    
     1     10   1 ;    1.0962e-01    2.8891e+05 ;     C1 - H2         CT - HC    
     1     11   1 ;    1.0962e-01    2.8891e+05 ;     C1 - H3         CT - HC    
     1     12   1 ;    1.0962e-01    2.8891e+05 ;     C1 - H4         CT - HC    
     2      3   1 ;    1.3986e-01    2.9644e+05 ;     C2 - C3         CA - CA    
     2      7   1 ;    1.3986e-01    2.9644e+05 ;     C2 - C7         CA - CA    
     3      4   1 ;    1.3986e-01    2.9644e+05 ;     C3 - C4         CA - CA    
     3     13   1 ;    1.0860e-01    3.0183e+05 ;     C3 - H5         CA - HA    
     4      5   1 ;    1.3986e-01    2.9644e+05 ;     C4 - C5         CA - CA    
     4     14   1 ;    1.0860e-01    3.0183e+05 ;     C4 - H6         CA - HA    
     5      6   1 ;    1.3986e-01    2.9644e+05 ;     C5 - C6         CA - CA    
     5     15   1 ;    1.0860e-01    3.0183e+05 ;     C5 - H7         CA - HA    
     6      7   1 ;    1.3986e-01    2.9644e+05 ;     C6 - C7         CA - CA    
     6     16   1 ;    1.0860e-01    3.0183e+05 ;     C6 - H8         CA - HA    
     7      8   1 ;    1.3644e-01    2.9167e+05 ;     C7 - O1         CA - OH    
     8      9   1 ;    9.7250e-02    4.4811e+05 ;     O1 - H1         OH - HO    

[ pairs ]
;   ai     aj    funct
     1      4      1 ;     C1 - C4    
     1      6      1 ;     C1 - C6    
     1      8      1 ;     C1 - O1    
     1     13      1 ;     C1 - H5    
     2      5      1 ;     C2 - C5    
     2      9      1 ;     C2 - H1    
     2     14      1 ;     C2 - H6    
     2     16      1 ;     C2 - H8    
     3      6      1 ;     C3 - C6    
     3      8      1 ;     C3 - O1    
     3     15      1 ;     C3 - H7    
     4      7      1 ;     C4 - C7    
     4     16      1 ;     C4 - H8    
     5      8      1 ;     C5 - O1    
     5     13      1 ;     C5 - H5    
     6      9      1 ;     C6 - H1    
     6     14      1 ;     C6 - H6    
     7     13      1 ;     C7 - H5    
     7     15      1 ;     C7 - H7    
     8     16      1 ;     O1 - H8    
    10      3      1 ;     H2 - C3    
    10      7      1 ;     H2 - C7    
    11      3      1 ;     H3 - C3    
    11      7      1 ;     H3 - C7    
    12      3      1 ;     H4 - C3    
    12      7      1 ;     H4 - C7    
    13     14      1 ;     H5 - H6    
    14     15      1 ;     H6 - H7    
    15     16      1 ;     H7 - H8    

[ angles ]
;   ai     aj     ak    funct   theta         cth
     1      2      3      1 ;    1.2083e+02    5.0827e+02 ;     C1 - C2   - C3       CT -   CA - CA  
     1      2      7      1 ;    1.2083e+02    5.0827e+02 ;     C1 - C2   - C7       CT -   CA - CA  
     2      1     10      1 ;    1.1063e+02    3.6493e+02 ;     C2 - C1   - H2       CA -   CT - HC  
     2      1     11      1 ;    1.1063e+02    3.6493e+02 ;     C2 - C1   - H3       CA -   CT - HC  
     2      1     12      1 ;    1.1063e+02    3.6493e+02 ;     C2 - C1   - H4       CA -   CT - HC  
     2      3      4      1 ;    1.2002e+02    5.3279e+02 ;     C2 - C3   - C4       CA -   CA - CA  
     2      3     13      1 ;    1.1988e+02    3.7572e+02 ;     C2 - C3   - H5       CA -   CA - HA  
     2      7      6      1 ;    1.2002e+02    5.3279e+02 ;     C2 - C7   - C6       CA -   CA - CA  
     2      7      8      1 ;    1.1990e+02    6.5990e+02 ;     C2 - C7   - O1       CA -   CA - OH  
     3      2      7      1 ;    1.2002e+02    5.3279e+02 ;     C3 - C2   - C7       CA -   CA - CA  
     3      4      5      1 ;    1.2002e+02    5.3279e+02 ;     C3 - C4   - C5       CA -   CA - CA  
     3      4     14      1 ;    1.1988e+02    3.7572e+02 ;     C3 - C4   - H6       CA -   CA - HA  
     4      3     13      1 ;    1.1988e+02    3.7572e+02 ;     C4 - C3   - H5       CA -   CA - HA  
     4      5      6      1 ;    1.2002e+02    5.3279e+02 ;     C4 - C5   - C6       CA -   CA - CA  
     4      5     15      1 ;    1.1988e+02    3.7572e+02 ;     C4 - C5   - H7       CA -   CA - HA  
     5      4     14      1 ;    1.1988e+02    3.7572e+02 ;     C5 - C4   - H6       CA -   CA - HA  
     5      6      7      1 ;    1.2002e+02    5.3279e+02 ;     C5 - C6   - C7       CA -   CA - CA  
     5      6     16      1 ;    1.1988e+02    3.7572e+02 ;     C5 - C6   - H8       CA -   CA - HA  
     6      5     15      1 ;    1.1988e+02    3.7572e+02 ;     C6 - C5   - H7       CA -   CA - HA  
     6      7      8      1 ;    1.1990e+02    6.5990e+02 ;     C6 - C7   - O1       CA -   CA - OH  
     7      6     16      1 ;    1.1988e+02    3.7572e+02 ;     C7 - C6   - H8       CA -   CA - HA  
     7      8      9      1 ;    1.0858e+02    5.6409e+02 ;     C7 - O1   - H1       CA -   OH - HO  
    10      1     11      1 ;    1.0773e+02    2.9957e+02 ;     H2 - C1   - H3       HC -   CT - HC  
    10      1     12      1 ;    1.0773e+02    2.9957e+02 ;     H2 - C1   - H4       HC -   CT - HC  
    11      1     12      1 ;    1.0773e+02    2.9957e+02 ;     H3 - C1   - H4       HC -   CT - HC  

[ dihedrals ] ; propers
; for gromacs 4.5 or higher, using funct 9
;    i      j      k      l   func   phase     kd      pn
     1      2      3      4      9 ;   180.00  15.16700   2 ;     C1-    C2-    C3-    C4
     1      2      3     13      9 ;   180.00  15.16700   2 ;     C1-    C2-    C3-    H5
     1      2      7      6      9 ;   180.00  15.16700   2 ;     C1-    C2-    C7-    C6
     1      2      7      8      9 ;   180.00  15.16700   2 ;     C1-    C2-    C7-    O1
     2      3      4      5      9 ;   180.00  15.16700   2 ;     C2-    C3-    C4-    C5
     2      3      4     14      9 ;   180.00  15.16700   2 ;     C2-    C3-    C4-    H6
     2      7      6      5      9 ;   180.00  15.16700   2 ;     C2-    C7-    C6-    C5
     2      7      6     16      9 ;   180.00  15.16700   2 ;     C2-    C7-    C6-    H8
     2      7      8      9      9 ;   180.00   3.57732   2 ;     C2-    C7-    O1-    H1
     3      2      7      6      9 ;   180.00  15.16700   2 ;     C3-    C2-    C7-    C6
     3      2      7      8      9 ;   180.00  15.16700   2 ;     C3-    C2-    C7-    O1
     3      4      5      6      9 ;   180.00  15.16700   2 ;     C3-    C4-    C5-    C6
     3      4      5     15      9 ;   180.00  15.16700   2 ;     C3-    C4-    C5-    H7
     4      3      2      7      9 ;   180.00  15.16700   2 ;     C4-    C3-    C2-    C7
     4      5      6      7      9 ;   180.00  15.16700   2 ;     C4-    C5-    C6-    C7
     4      5      6     16      9 ;   180.00  15.16700   2 ;     C4-    C5-    C6-    H8
     5      4      3     13      9 ;   180.00  15.16700   2 ;     C5-    C4-    C3-    H5
     5      6      7      8      9 ;   180.00  15.16700   2 ;     C5-    C6-    C7-    O1
     6      5      4     14      9 ;   180.00  15.16700   2 ;     C6-    C5-    C4-    H6
     6      7      8      9      9 ;   180.00   3.57732   2 ;     C6-    C7-    O1-    H1
     7      2      3     13      9 ;   180.00  15.16700   2 ;     C7-    C2-    C3-    H5
     7      6      5     15      9 ;   180.00  15.16700   2 ;     C7-    C6-    C5-    H7
     8      7      6     16      9 ;   180.00  15.16700   2 ;     O1-    C7-    C6-    H8
    10      1      2      3      9 ;     0.00   0.00000   0 ;     H2-    C1-    C2-    C3
    10      1      2      7      9 ;     0.00   0.00000   0 ;     H2-    C1-    C2-    C7
    11      1      2      3      9 ;     0.00   0.00000   0 ;     H3-    C1-    C2-    C3
    11      1      2      7      9 ;     0.00   0.00000   0 ;     H3-    C1-    C2-    C7
    12      1      2      3      9 ;     0.00   0.00000   0 ;     H4-    C1-    C2-    C3
    12      1      2      7      9 ;     0.00   0.00000   0 ;     H4-    C1-    C2-    C7
    13      3      4     14      9 ;   180.00  15.16700   2 ;     H5-    C3-    C4-    H6
    14      4      5     15      9 ;   180.00  15.16700   2 ;     H6-    C4-    C5-    H7
    15      5      6     16      9 ;   180.00  15.16700   2 ;     H7-    C5-    C6-    H8

[ dihedrals ] ; impropers
; treated as propers in GROMACS to use correct AMBER analytical function
;    i      j      k      l   func   phase     kd      pn
     1      2      7      3      4 ;   180.00   4.60240   2 ;     C1-    C2-    C7-    C3
     2      4      3     13      4 ;   180.00   4.60240   2 ;     C2-    C4-    C3-    H5
     2      6      7      8      4 ;   180.00   4.60240   2 ;     C2-    C6-    C7-    O1
     3      5      4     14      4 ;   180.00   4.60240   2 ;     C3-    C5-    C4-    H6
     4      6      5     15      4 ;   180.00   4.60240   2 ;     C4-    C6-    C5-    H7
     5      7      6     16      4 ;   180.00   4.60240   2 ;     C5-    C7-    C6-    H8
