ZINC00901022
    16
   0.3700000   0.5440000  -2.7470000   0.0700000   1.0590000  -1.3700000
  -1.2330000   0.9550000  -0.8610000  -1.5420000   1.4250000   0.4170000
  -0.5520000   2.0060000   1.2060000   0.7470000   2.1180000   0.7170000
   1.0540000   1.6480000  -0.5620000   2.3520000   1.7940000  -0.9690000
   2.4550000   1.4370000  -1.8650000  -0.5210000   0.1210000  -3.2230000
   0.7300000   1.3570000  -3.3860000   1.1260000  -0.2460000  -2.7010000
  -2.0220000   0.5040000  -1.4590000  -2.5570000   1.3360000   0.7970000
  -0.7930000   2.3720000   2.2000000   1.5170000   2.5720000   1.3340000
