mobley_3083321_GMX.gro created by acpype (v: 2023.10.27) on Wed May 20 23:43:19 2026
   13
    1MOL     C1    1   2.111   2.169   2.336
    1MOL     C2    2   2.355   2.311   2.106
    1MOL     C3    3   2.310   2.294   2.336
    1MOL     O1    4   2.251   2.169   2.336
    1MOL     O2    5   2.291   2.364   2.218
    1MOL     H1    6   2.079   2.066   2.341
    1MOL     H2    7   2.072   2.222   2.423
    1MOL     H3    8   2.071   2.215   2.246
    1MOL     H4    9   2.335   2.378   2.023
    1MOL     H5   10   2.319   2.212   2.082
    1MOL     H6   11   2.463   2.306   2.122
    1MOL     H7   12   2.269   2.356   2.415
    1MOL     H8   13   2.416   2.277   2.354
   4.51381   4.51381   4.51381
