mobley_3083321_GMX.gro created by acpype (v: 2023.10.27) on Wed May 20 23:43:19 2026
 8971
    1MOL     C1    1   2.111   2.169   2.336
    1MOL     C2    2   2.355   2.311   2.106
    1MOL     C3    3   2.310   2.294   2.336
    1MOL     O1    4   2.251   2.169   2.336
    1MOL     O2    5   2.291   2.364   2.218
    1MOL     H1    6   2.079   2.066   2.341
    1MOL     H2    7   2.072   2.222   2.423
    1MOL     H3    8   2.071   2.215   2.246
    1MOL     H4    9   2.335   2.378   2.023
    1MOL     H5   10   2.319   2.212   2.082
    1MOL     H6   11   2.463   2.306   2.122
    1MOL     H7   12   2.269   2.356   2.415
    1MOL     H8   13   2.416   2.277   2.354
    2SOL     OW   14   0.230   0.628   0.113
    2SOL    HW1   15   0.137   0.626   0.150
    2SOL    HW2   16   0.231   0.589   0.021
    3SOL     OW   17   0.225   0.275   0.996
    3SOL    HW1   18   0.260   0.258   1.088
    3SOL    HW2   19   0.137   0.230   0.984
    4SOL     OW   20   0.019   0.368   0.647
    4SOL    HW1   21  -0.063   0.411   0.686
    4SOL    HW2   22  -0.009   0.295   0.584
    5SOL     OW   23   0.569   1.275   1.165
    5SOL    HW1   24   0.476   1.268   1.128
    5SOL    HW2   25   0.580   1.364   1.209
    6SOL     OW   26   1.555   1.511   0.703
    6SOL    HW1   27   1.498   1.495   0.784
    6SOL    HW2   28   1.496   1.521   0.623
    7SOL     OW   29   1.135   0.703   0.717
    7SOL    HW1   30   1.192   0.781   0.692
    7SOL    HW2   31   1.075   0.729   0.793
    8SOL     OW   32   1.755   0.607   0.231
    8SOL    HW1   33   1.743   0.594   0.132
    8SOL    HW2   34   1.725   0.526   0.280
    9SOL     OW   35   0.768   1.144   1.023
    9SOL    HW1   36   0.690   1.161   1.083
    9SOL    HW2   37   0.802   1.231   0.987
   10SOL     OW   38   0.850   0.798   1.823
   10SOL    HW1   39   0.846   0.874   1.888
   10SOL    HW2   40   0.872   0.834   1.732
   11SOL     OW   41   0.685   1.012   0.665
   11SOL    HW1   42   0.754   0.996   0.735
   11SOL    HW2   43   0.612   1.069   0.703
   12SOL     OW   44   0.686   1.161   1.803
   12SOL    HW1   45   0.746   1.240   1.817
   12SOL    HW2   46   0.600   1.192   1.762
   13SOL     OW   47   0.335   1.435   1.061
   13SOL    HW1   48   0.257   1.404   1.008
   13SOL    HW2   49   0.393   1.493   1.004
   14SOL     OW   50   1.460   1.505   1.339
   14SOL    HW1   51   1.484   1.599   1.365
   14SOL    HW2   52   1.444   1.451   1.421
   15SOL     OW   53   0.438   0.392   1.499
   15SOL    HW1   54   0.520   0.336   1.508
   15SOL    HW2   55   0.357   0.334   1.503
   16SOL     OW   56   1.603   0.447   0.737
   16SOL    HW1   57   1.529   0.493   0.687
   16SOL    HW2   58   1.654   0.515   0.790
   17SOL     OW   59   0.231   1.713   0.483
   17SOL    HW1   60   0.265   1.790   0.537
   17SOL    HW2   61   0.275   1.713   0.393
   18SOL     OW   62   1.127   1.341   1.690
   18SOL    HW1   63   1.174   1.341   1.778
   18SOL    HW2   64   1.079   1.254   1.679
   19SOL     OW   65   0.230   1.434   0.538
   19SOL    HW1   66   0.204   1.530   0.538
   19SOL    HW2   67   0.159   1.380   0.583
   20SOL     OW   68   0.240   1.091   0.886
   20SOL    HW1   69   0.254   1.007   0.938
   20SOL    HW2   70   0.185   1.155   0.941
   21SOL     OW   71   0.620   1.786   1.439
   21SOL    HW1   72   0.528   1.769   1.474
   21SOL    HW2   73   0.648   1.878   1.465
   22SOL     OW   74   0.606   0.964   0.123
   22SOL    HW1   75   0.613   1.048   0.069
   22SOL    HW2   76   0.652   0.977   0.211
   23SOL     OW   77   1.594   0.114   1.480
   23SOL    HW1   78   1.576   0.181   1.408
   23SOL    HW2   79   1.591   0.160   1.569
   24SOL     OW   80   0.122   0.643   0.563
   24SOL    HW1   81   0.077   0.555   0.580
   24SOL    HW2   82   0.121   0.697   0.647
   25SOL     OW   83   1.842   1.767   0.359
   25SOL    HW1   84   1.896   1.738   0.439
   25SOL    HW2   85   1.872   1.857   0.330
   26SOL     OW   86   0.027   1.596   0.117
   26SOL    HW1   87   0.008   1.500   0.138
   26SOL    HW2   88  -0.006   1.654   0.192
   27SOL     OW   89   1.689   0.922   0.612
   27SOL    HW1   90   1.784   0.893   0.620
   27SOL    HW2   91   1.681   0.987   0.537
   28SOL     OW   92   1.641   1.108   0.432
   28SOL    HW1   93   1.727   1.110   0.380
   28SOL    HW2   94   1.655   1.155   0.520
   29SOL     OW   95   0.113   0.737   1.597
   29SOL    HW1   96   0.201   0.724   1.642
   29SOL    HW2   97   0.100   0.834   1.575
   30SOL     OW   98   0.613   1.365   0.726
   30SOL    HW1   99   0.564   1.278   0.735
   30SOL    HW2  100   0.590   1.408   0.639
   31SOL     OW  101   1.293   1.228   1.423
   31SOL    HW1  102   1.330   1.155   1.365
   31SOL    HW2  103   1.345   1.233   1.508
   32SOL     OW  104   0.809   0.004   0.502
   32SOL    HW1  105   0.849   0.095   0.493
   32SOL    HW2  106   0.709   0.012   0.508
   33SOL     OW  107   0.197   0.976   1.264
   33SOL    HW1  108   0.286   0.931   1.250
   33SOL    HW2  109   0.124   0.911   1.245
   34SOL     OW  110   1.525   0.999   0.190
   34SOL    HW1  111   1.462   0.923   0.203
   34SOL    HW2  112   1.573   1.017   0.276
   35SOL     OW  113   1.187   1.792   1.616
   35SOL    HW1  114   1.211   1.852   1.540
   35SOL    HW2  115   1.194   1.697   1.586
   36SOL     OW  116   0.317   0.251   1.801
   36SOL    HW1  117   0.388   0.322   1.807
   36SOL    HW2  118   0.229   0.290   1.829
   37SOL     OW  119   1.466   1.417   0.953
   37SOL    HW1  120   1.407   1.423   1.033
   37SOL    HW2  121   1.451   1.329   0.907
   38SOL     OW  122   1.667   1.714   0.572
   38SOL    HW1  123   1.626   1.691   0.484
   38SOL    HW2  124   1.649   1.640   0.637
   39SOL     OW  125   0.598   0.729   0.270
   39SOL    HW1  126   0.622   0.798   0.202
   39SOL    HW2  127   0.520   0.762   0.324
   40SOL     OW  128   1.281   0.345   0.944
   40SOL    HW1  129   1.195   0.295   0.931
   40SOL    HW2  130   1.343   0.291   1.000
   41SOL     OW  131   1.576   1.662   0.307
   41SOL    HW1  132   1.665   1.708   0.310
   41SOL    HW2  133   1.555   1.638   0.212
   42SOL     OW  134   0.807   0.605   1.465
   42SOL    HW1  135   0.760   0.602   1.554
   42SOL    HW2  136   0.756   0.550   1.399
   43SOL     OW  137   1.394   0.469   1.674
   43SOL    HW1  138   1.374   0.512   1.762
   43SOL    HW2  139   1.472   0.407   1.683
   44SOL     OW  140   0.973   0.890   1.572
   44SOL    HW1  141   1.019   0.806   1.543
   44SOL    HW2  142   0.917   0.924   1.497
   45SOL     OW  143   0.991   0.410   1.242
   45SOL    HW1  144   0.914   0.444   1.296
   45SOL    HW2  145   0.957   0.359   1.163
   46SOL     OW  146   1.041   0.701   0.429
   46SOL    HW1  147   1.067   0.697   0.525
   46SOL    HW2  148   0.956   0.650   0.415
   47SOL     OW  149   0.076   0.811   0.789
   47SOL    HW1  150   0.175   0.799   0.798
   47SOL    HW2  151   0.052   0.906   0.810
   48SOL     OW  152   0.130   1.821   1.571
   48SOL    HW1  153   0.120   1.806   1.670
   48SOL    HW2  154   0.044   1.857   1.535
   49SOL     OW  155   0.865   0.348   0.195
   49SOL    HW1  156   0.924   0.411   0.146
   49SOL    HW2  157   0.884   0.254   0.166
   50SOL     OW  158   1.719   0.585   1.831
   50SOL    HW1  159   1.693   0.674   1.795
   50SOL    HW2  160   1.717   0.517   1.758
   51SOL     OW  161   1.362   1.144   0.545
   51SOL    HW1  162   1.445   1.115   0.497
   51SOL    HW2  163   1.313   1.211   0.489
   52SOL     OW  164   0.550   0.196   0.885
   52SOL    HW1  165   0.545   0.191   0.985
   52SOL    HW2  166   0.552   0.292   0.856
   53SOL     OW  167   1.008   1.456   0.477
   53SOL    HW1  168   0.962   1.528   0.425
   53SOL    HW2  169   1.004   1.476   0.575
   54SOL     OW  170   0.351   1.801   0.853
   54SOL    HW1  171   0.401   1.715   0.859
   54SOL    HW2  172   0.416   1.878   0.850
   55SOL     OW  173   1.795   1.066   0.873
   55SOL    HW1  174   1.733   1.051   0.797
   55SOL    HW2  175   1.743   1.077   0.958
   56SOL     OW  176   1.227   1.550   1.506
   56SOL    HW1  177   1.233   1.473   1.570
   56SOL    HW2  178   1.175   1.524   1.426
   57SOL     OW  179   0.321   0.943   0.242
   57SOL    HW1  180   0.403   0.982   0.200
   57SOL    HW2  181   0.294   0.861   0.193
   58SOL     OW  182   1.458   0.735   0.728
   58SOL    HW1  183   1.453   0.670   0.803
   58SOL    HW2  184   1.538   0.794   0.741
   59SOL     OW  185   0.461   1.266   1.727
   59SOL    HW1  186   0.411   1.267   1.641
   59SOL    HW2  187   0.398   1.248   1.803
   60SOL     OW  188   1.111   1.776   0.237
   60SOL    HW1  189   1.051   1.714   0.287
   60SOL    HW2  190   1.142   1.732   0.152
   61SOL     OW  191   0.202   0.285   1.498
   61SOL    HW1  192   0.122   0.345   1.485
   61SOL    HW2  193   0.192   0.236   1.584
   62SOL     OW  194   1.632   1.377   0.081
   62SOL    HW1  195   1.600   1.471   0.071
   62SOL    HW2  196   1.556   1.314   0.069
   63SOL     OW  197   0.464   1.743   0.323
   63SOL    HW1  198   0.497   1.782   0.409
   63SOL    HW2  199   0.540   1.736   0.258
   64SOL     OW  200   1.400   0.107   0.426
   64SOL    HW1  201   1.376   0.070   0.336
   64SOL    HW2  202   1.499   0.123   0.430
   65SOL     OW  203   0.249   1.785   1.241
   65SOL    HW1  204   0.306   1.720   1.291
   65SOL    HW2  205   0.233   1.752   1.148
   66SOL     OW  206   0.940   1.698   0.904
   66SOL    HW1  207   1.020   1.641   0.925
   66SOL    HW2  208   0.891   1.658   0.827
   67SOL     OW  209   0.382   0.700   0.480
   67SOL    HW1  210   0.427   0.610   0.477
   67SOL    HW2  211   0.288   0.689   0.513
   68SOL     OW  212   1.547   0.222   1.729
   68SOL    HW1  213   1.542   0.259   1.821
   68SOL    HW2  214   1.475   0.153   1.717
   69SOL     OW  215   0.614   0.122   0.117
   69SOL    HW1  216   0.712   0.100   0.124
   69SOL    HW2  217   0.583   0.105   0.024
   70SOL     OW  218   0.781   0.264   1.749
   70SOL    HW1  219   0.848   0.203   1.792
   70SOL    HW2  220   0.708   0.283   1.814
   71SOL     OW  221   0.888   1.514   1.195
   71SOL    HW1  222   0.865   1.489   1.101
   71SOL    HW2  223   0.949   1.445   1.234
   72SOL     OW  224   1.351   0.590   1.433
   72SOL    HW1  225   1.379   0.547   1.518
   72SOL    HW2  226   1.376   0.686   1.434
   73SOL     OW  227   0.803   1.402   0.924
   73SOL    HW1  228   0.893   1.416   0.882
   73SOL    HW2  229   0.732   1.404   0.853
   74SOL     OW  230   0.922   0.503   0.899
   74SOL    HW1  231   0.897   0.494   0.803
   74SOL    HW2  232   0.970   0.421   0.930
   75SOL     OW  233   0.539   0.064   0.512
   75SOL    HW1  234   0.458   0.065   0.570
   75SOL    HW2  235   0.542   0.147   0.457
   76SOL     OW  236   1.434   1.188   0.041
   76SOL    HW1  237   1.466   1.112   0.098
   76SOL    HW2  238   1.342   1.215   0.071
   77SOL     OW  239   0.297   0.035   0.171
   77SOL    HW1  240   0.346   0.119   0.150
   77SOL    HW2  241   0.359  -0.030   0.216
   78SOL     OW  242   0.935   0.236   0.480
   78SOL    HW1  243   0.887   0.277   0.402
   78SOL    HW2  244   1.034   0.234   0.461
   79SOL     OW  245   1.076   0.683   1.464
   79SOL    HW1  246   0.996   0.622   1.467
   79SOL    HW2  247   1.157   0.630   1.440
   80SOL     OW  248   1.227   1.570   0.793
   80SOL    HW1  249   1.248   1.644   0.728
   80SOL    HW2  250   1.295   1.570   0.866
   81SOL     OW  251   0.459   1.152   0.741
   81SOL    HW1  252   0.388   1.125   0.806
   81SOL    HW2  253   0.433   1.124   0.648
   82SOL     OW  254   1.271   1.797   0.591
   82SOL    HW1  255   1.315   1.861   0.527
   82SOL    HW2  256   1.221   1.849   0.661
   83SOL     OW  257   1.032   0.549   0.016
   83SOL    HW1  258   0.991   0.631  -0.023
   83SOL    HW2  259   1.096   0.575   0.089
   84SOL     OW  260   0.078   0.556   1.386
   84SOL    HW1  261   0.170   0.555   1.345
   84SOL    HW2  262   0.072   0.630   1.453
   85SOL     OW  263   0.561   0.222   1.147
   85SOL    HW1  264   0.599   0.138   1.184
   85SOL    HW2  265   0.473   0.241   1.191
   86SOL     OW  266   0.866   0.454   0.642
   86SOL    HW1  267   0.834   0.526   0.580
   86SOL    HW2  268   0.890   0.373   0.589
   87SOL     OW  269   1.017   0.039   0.753
   87SOL    HW1  270   0.945   0.044   0.684
   87SOL    HW2  271   0.993  -0.030   0.822
   88SOL     OW  272   1.429   1.173   0.867
   88SOL    HW1  273   1.374   1.089   0.860
   88SOL    HW2  274   1.455   1.202   0.775
   89SOL     OW  275   1.466   0.590   0.992
   89SOL    HW1  276   1.436   0.495   0.999
   89SOL    HW2  277   1.539   0.606   1.058
   90SOL     OW  278   1.857   0.833   0.377
   90SOL    HW1  279   1.899   0.769   0.441
   90SOL    HW2  280   1.819   0.782   0.299
   91SOL     OW  281   0.488   1.385   0.174
   91SOL    HW1  282   0.401   1.370   0.221
   91SOL    HW2  283   0.471   1.411   0.079
   92SOL     OW  284   1.664   1.280   0.657
   92SOL    HW1  285   1.763   1.288   0.671
   92SOL    HW2  286   1.619   1.364   0.688
   93SOL     OW  287   1.390   0.575   0.078
   93SOL    HW1  288   1.336   0.554   0.159
   93SOL    HW2  289   1.481   0.534   0.087
   94SOL     OW  290   0.527   0.256   0.328
   94SOL    HW1  291   0.554   0.197   0.253
   94SOL    HW2  292   0.527   0.351   0.297
   95SOL     OW  293   1.754   1.223   1.588
   95SOL    HW1  294   1.845   1.184   1.575
   95SOL    HW2  295   1.762   1.319   1.612
   96SOL     OW  296   1.064   1.347   1.340
   96SOL    HW1  297   0.984   1.324   1.395
   96SOL    HW2  298   1.147   1.321   1.389
   97SOL     OW  299   1.592   1.629   1.625
   97SOL    HW1  300   1.619   1.663   1.535
   97SOL    HW2  301   1.671   1.591   1.671
   98SOL     OW  302   1.111   1.195   1.100
   98SOL    HW1  303   1.071   1.239   1.181
   98SOL    HW2  304   1.070   1.232   1.017
   99SOL     OW  305   1.638   1.099   1.079
   99SOL    HW1  306   1.643   1.180   1.138
   99SOL    HW2  307   1.552   1.101   1.028
  100SOL     OW  308   0.915   0.089   1.402
  100SOL    HW1  309   0.940   0.069   1.307
  100SOL    HW2  310   0.987   0.145   1.444
  101SOL     OW  311   0.980   1.116   1.719
  101SOL    HW1  312   0.881   1.122   1.729
  101SOL    HW2  313   1.003   1.036   1.663
  102SOL     OW  314   0.705   1.050   0.368
  102SOL    HW1  315   0.691   1.057   0.467
  102SOL    HW2  316   0.789   0.999   0.350
  103SOL     OW  317   0.410   0.813   1.251
  103SOL    HW1  318   0.496   0.825   1.301
  103SOL    HW2  319   0.368   0.726   1.278
  104SOL     OW  320   1.274   0.386   1.262
  104SOL    HW1  321   1.295   0.460   1.326
  104SOL    HW2  322   1.185   0.403   1.219
  105SOL     OW  323   0.064   1.564   1.331
  105SOL    HW1  324   0.018   1.646   1.297
  105SOL    HW2  325   0.162   1.583   1.340
  106SOL     OW  326   0.367   1.100   0.501
  106SOL    HW1  327   0.360   1.183   0.445
  106SOL    HW2  328   0.371   1.020   0.441
  107SOL     OW  329   0.566   0.537   0.865
  107SOL    HW1  330   0.578   0.603   0.791
  107SOL    HW2  331   0.612   0.571   0.948
  108SOL     OW  332   1.252   1.348   0.388
  108SOL    HW1  333   1.302   1.425   0.428
  108SOL    HW2  334   1.157   1.350   0.420
  109SOL     OW  335   1.272   1.445   1.142
  109SOL    HW1  336   1.319   1.458   1.229
  109SOL    HW2  337   1.206   1.371   1.151
  110SOL     OW  338   1.582   0.639   0.472
  110SOL    HW1  339   1.551   0.700   0.545
  110SOL    HW2  340   1.632   0.691   0.403
  111SOL     OW  341   0.354   1.510   1.329
  111SOL    HW1  342   0.333   1.466   1.242
  111SOL    HW2  343   0.451   1.536   1.332
  112SOL     OW  344   0.402   0.751   1.598
  112SOL    HW1  345   0.470   0.806   1.551
  112SOL    HW2  346   0.442   0.663   1.625
  113SOL     OW  347   1.587   0.779   1.670
  113SOL    HW1  348   1.495   0.817   1.665
  113SOL    HW2  349   1.647   0.826   1.605
  114SOL     OW  350   1.013   0.105   1.770
  114SOL    HW1  351   1.019   0.190   1.718
  114SOL    HW2  352   1.045   0.029   1.713
  115SOL     OW  353   0.504   0.050   1.740
  115SOL    HW1  354   0.462  -0.007   1.670
  115SOL    HW2  355   0.438   0.119   1.772
  116SOL     OW  356   0.573   0.870   1.029
  116SOL    HW1  357   0.617   0.959   1.020
  116SOL    HW2  358   0.510   0.870   1.106
  117SOL     OW  359   1.360   0.862   1.045
  117SOL    HW1  360   1.285   0.862   0.979
  117SOL    HW2  361   1.397   0.770   1.054
  118SOL     OW  362   1.209   0.525   0.275
  118SOL    HW1  363   1.222   0.441   0.329
  118SOL    HW2  364   1.180   0.599   0.335
  119SOL     OW  365   0.307   0.213   1.231
  119SOL    HW1  366   0.284   0.250   1.321
  119SOL    HW2  367   0.277   0.118   1.225
  120SOL     OW  368   0.037   1.310   1.282
  120SOL    HW1  369   0.090   1.261   1.350
  120SOL    HW2  370   0.059   1.408   1.287
  121SOL     OW  371   0.732   0.634   1.064
  121SOL    HW1  372   0.791   0.608   0.988
  121SOL    HW2  373   0.704   0.730   1.053
  122SOL     OW  374   1.728   0.935   1.854
  122SOL    HW1  375   1.682   0.928   1.765
  122SOL    HW2  376   1.666   0.979   1.920
  123SOL     OW  377   0.307   0.063   0.618
  123SOL    HW1  378   0.296   0.157   0.651
  123SOL    HW2  379   0.302   0.000   0.695
  124SOL     OW  380   1.622   0.367   0.374
  124SOL    HW1  381   1.624   0.291   0.438
  124SOL    HW2  382   1.574   0.444   0.414
  125SOL     OW  383   1.023   0.766   0.966
  125SOL    HW1  384   1.038   0.787   1.062
  125SOL    HW2  385   0.993   0.671   0.957
  126SOL     OW  386   0.980   1.573   1.700
  126SOL    HW1  387   0.960   1.617   1.612
  126SOL    HW2  388   1.019   1.482   1.684
  127SOL     OW  389   1.859   1.518   1.605
  127SOL    HW1  390   1.873   1.545   1.510
  127SOL    HW2  391   1.942   1.540   1.658
  128SOL     OW  392   0.350   0.898   1.804
  128SOL    HW1  393   0.426   0.942   1.852
  128SOL    HW2  394   0.385   0.851   1.722
  129SOL     OW  395   1.540   0.274   0.125
  129SOL    HW1  396   1.479   0.199   0.148
  129SOL    HW2  397   1.562   0.326   0.208
  130SOL     OW  398   1.303   0.838   0.042
  130SOL    HW1  399   1.337   0.745   0.057
  130SOL    HW2  400   1.321   0.865  -0.053
  131SOL     OW  401   1.068   1.333   0.849
  131SOL    HW1  402   1.075   1.249   0.794
  131SOL    HW2  403   1.130   1.402   0.813
  132SOL     OW  404   0.319   0.810   0.949
  132SOL    HW1  405   0.412   0.846   0.954
  132SOL    HW2  406   0.313   0.725   1.001
  133SOL     OW  407   0.339   0.509   1.006
  133SOL    HW1  408   0.287   0.426   0.989
  133SOL    HW2  409   0.416   0.514   0.942
  134SOL     OW  410   1.138   0.380   1.678
  134SOL    HW1  411   1.093   0.443   1.742
  134SOL    HW2  412   1.231   0.411   1.661
  135SOL     OW  413   1.160   0.207   1.477
  135SOL    HW1  414   1.160   0.271   1.554
  135SOL    HW2  415   1.188   0.255   1.394
  136SOL     OW  416   0.008   1.326   0.200
  136SOL    HW1  417  -0.085   1.347   0.169
  136SOL    HW2  418   0.018   1.227   0.213
  137SOL     OW  419   0.088   1.801   0.927
  137SOL    HW1  420   0.046   1.715   0.900
  137SOL    HW2  421   0.182   1.804   0.893
  138SOL     OW  422   0.504   1.568   0.910
  138SOL    HW1  423   0.570   1.642   0.919
  138SOL    HW2  424   0.548   1.489   0.868
  139SOL     OW  425   1.002   0.796   1.238
  139SOL    HW1  426   1.043   0.764   1.324
  139SOL    HW2  427   0.906   0.769   1.235
  140SOL     OW  428   0.040   0.544   1.114
  140SOL    HW1  429   0.125   0.511   1.073
  140SOL    HW2  430   0.053   0.559   1.212
  141SOL     OW  431   0.189   0.520   1.722
  141SOL    HW1  432   0.248   0.480   1.652
  141SOL    HW2  433   0.131   0.591   1.681
  142SOL     OW  434   1.369   0.950   1.660
  142SOL    HW1  435   1.408   1.039   1.680
  142SOL    HW2  436   1.379   0.930   1.563
  143SOL     OW  437   0.815   0.572   0.325
  143SOL    HW1  438   0.822   0.483   0.279
  143SOL    HW2  439   0.721   0.606   0.317
  144SOL     OW  440   1.657   0.604   1.206
  144SOL    HW1  441   1.619   0.535   1.268
  144SOL    HW2  442   1.739   0.568   1.162
  145SOL     OW  443   0.252   1.564   1.744
  145SOL    HW1  444   0.222   1.621   1.820
  145SOL    HW2  445   0.245   1.467   1.770
  146SOL     OW  446   0.671   0.464   1.269
  146SOL    HW1  447   0.637   0.375   1.239
  146SOL    HW2  448   0.697   0.518   1.189
  147SOL     OW  449   0.930   1.678   1.465
  147SOL    HW1  450   0.906   1.660   1.370
  147SOL    HW2  451   0.960   1.772   1.475
  148SOL     OW  452   0.473   0.500   0.191
  148SOL    HW1  453   0.534   0.580   0.195
  148SOL    HW2  454   0.378   0.531   0.198
  149SOL     OW  455   0.159   1.137   1.466
  149SOL    HW1  456   0.181   1.076   1.542
  149SOL    HW2  457   0.169   1.088   1.380
  150SOL     OW  458   1.347   1.059   1.234
  150SOL    HW1  459   1.371   0.996   1.160
  150SOL    HW2  460   1.257   1.099   1.216
  151SOL     OW  461   1.302   0.855   0.309
  151SOL    HW1  462   1.216   0.824   0.351
  151SOL    HW2  463   1.298   0.841   0.210
  152SOL     OW  464   1.759   1.747   1.154
  152SOL    HW1  465   1.820   1.777   1.081
  152SOL    HW2  466   1.721   1.658   1.132
  153SOL     OW  467   1.252   1.731   1.128
  153SOL    HW1  468   1.336   1.736   1.074
  153SOL    HW2  469   1.229   1.635   1.146
  154SOL     OW  470   0.083   1.258   1.022
  154SOL    HW1  471   0.078   1.257   1.122
  154SOL    HW2  472   0.000   1.217   0.984
  155SOL     OW  473   0.688   1.662   1.716
  155SOL    HW1  474   0.632   1.743   1.725
  155SOL    HW2  475   0.740   1.666   1.630
  156SOL     OW  476   0.903   0.086   0.133
  156SOL    HW1  477   0.954   0.087   0.047
  156SOL    HW2  478   0.959   0.044   0.204
  157SOL     OW  479   1.726   0.135   0.523
  157SOL    HW1  480   1.799   0.118   0.456
  157SOL    HW2  481   1.695   0.048   0.561
  158SOL     OW  482   1.388   1.573   0.477
  158SOL    HW1  483   1.455   1.585   0.403
  158SOL    HW2  484   1.348   1.662   0.500
  159SOL     OW  485   0.130   1.794   1.851
  159SOL    HW1  486   0.089   1.720   1.904
  159SOL    HW2  487   0.194   1.845   1.909
  160SOL     OW  488   1.280   0.927   0.672
  160SOL    HW1  489   1.340   0.846   0.674
  160SOL    HW2  490   1.320   0.996   0.612
  161SOL     OW  491   0.830   1.273   1.422
  161SOL    HW1  492   0.825   1.306   1.517
  161SOL    HW2  493   0.744   1.292   1.376
  162SOL     OW  494   0.672   1.616   0.154
  162SOL    HW1  495   0.681   1.626   0.055
  162SOL    HW2  496   0.632   1.527   0.175
  163SOL     OW  497   1.650   1.720   1.394
  163SOL    HW1  498   1.703   1.730   1.310
  163SOL    HW2  499   1.623   1.810   1.428
  164SOL     OW  500   1.841   0.175   0.963
  164SOL    HW1  501   1.880   0.090   0.927
  164SOL    HW2  502   1.743   0.177   0.944
  165SOL     OW  503   0.263   0.326   0.720
  165SOL    HW1  504   0.184   0.377   0.686
  165SOL    HW2  505   0.254   0.311   0.818
  166SOL     OW  506   1.194   1.612   0.031
  166SOL    HW1  507   1.200   1.519   0.068
  166SOL    HW2  508   1.135   1.612  -0.049
  167SOL     OW  509   0.822   1.002   1.372
  167SOL    HW1  510   0.862   1.001   1.280
  167SOL    HW2  511   0.832   1.094   1.412
  168SOL     OW  512   0.916   0.910   0.291
  168SOL    HW1  513   0.979   0.948   0.223
  168SOL    HW2  514   0.956   0.827   0.330
  169SOL     OW  515   1.504   1.607   0.044
  169SOL    HW1  516   1.412   1.644   0.051
  169SOL    HW2  517   1.542   1.627  -0.046
  170SOL     OW  518   0.372   1.288   1.490
  170SOL    HW1  519   0.359   1.381   1.456
  170SOL    HW2  520   0.288   1.236   1.477
  171SOL     OW  521   1.614   1.292   1.289
  171SOL    HW1  522   1.674   1.295   1.369
  171SOL    HW2  523   1.539   1.356   1.302
  172SOL     OW  524   1.039   1.098   0.696
  172SOL    HW1  525   0.969   1.051   0.750
  172SOL    HW2  526   1.098   1.030   0.653
  173SOL     OW  527   1.014   0.236   0.971
  173SOL    HW1  528   1.006   0.200   0.878
  173SOL    HW2  529   1.012   0.160   1.036
  174SOL     OW  530   0.590   1.487   0.491
  174SOL    HW1  531   0.632   1.429   0.421
  174SOL    HW2  532   0.546   1.566   0.447
  175SOL     OW  533   1.709   0.385   1.381
  175SOL    HW1  534   1.782   0.454   1.385
  175SOL    HW2  535   1.737   0.310   1.322
  176SOL     OW  536   0.255   1.348   0.290
  176SOL    HW1  537   0.159   1.349   0.263
  176SOL    HW2  538   0.267   1.401   0.374
  177SOL     OW  539   0.105   1.013   1.726
  177SOL    HW1  540   0.028   0.980   1.780
  177SOL    HW2  541   0.190   0.983   1.768
  178SOL     OW  542   0.672   0.203   1.489
  178SOL    HW1  543   0.762   0.187   1.449
  178SOL    HW2  544   0.680   0.208   1.588
  179SOL     OW  545   0.075   0.345   0.033
  179SOL    HW1  546  -0.017   0.317   0.004
  179SOL    HW2  547   0.106   0.422  -0.023
  180SOL     OW  548   1.440   0.856   1.398
  180SOL    HW1  549   1.383   0.908   1.335
  180SOL    HW2  550   1.536   0.868   1.374
  181SOL     OW  551   0.072   0.166   0.318
  181SOL    HW1  552   0.055   0.249   0.264
  181SOL    HW2  553   0.162   0.129   0.296
  182SOL     OW  554   1.183   1.335   0.119
  182SOL    HW1  555   1.084   1.324   0.121
  182SOL    HW2  556   1.217   1.350   0.212
  183SOL     OW  557   0.613   0.842   1.431
  183SOL    HW1  558   0.669   0.923   1.414
  183SOL    HW2  559   0.672   0.762   1.434
  184SOL     OW  560   1.493   1.767   0.959
  184SOL    HW1  561   1.526   1.831   0.890
  184SOL    HW2  562   1.559   1.761   1.034
  185SOL     OW  563   0.716   0.565   1.708
  185SOL    HW1  564   0.735   0.630   1.782
  185SOL    HW2  565   0.776   0.485   1.717
  186SOL     OW  566   1.450   1.220   1.633
  186SOL    HW1  567   1.441   1.210   1.732
  186SOL    HW2  568   1.546   1.213   1.607
  187SOL     OW  569   0.390   1.741   1.560
  187SOL    HW1  570   0.299   1.782   1.558
  187SOL    HW2  571   0.383   1.647   1.592
  188SOL     OW  572   1.674   0.883   1.254
  188SOL    HW1  573   1.647   0.794   1.217
  188SOL    HW2  574   1.675   0.951   1.181
  189SOL     OW  575   1.225   0.325   0.449
  189SOL    HW1  576   1.290   0.251   0.438
  189SOL    HW2  577   1.245   0.375   0.533
  190SOL     OW  578   0.594   0.745   0.652
  190SOL    HW1  579   0.644   0.830   0.633
  190SOL    HW2  580   0.506   0.747   0.604
  191SOL     OW  581   1.777   0.342   1.642
  191SOL    HW1  582   1.760   0.373   1.548
  191SOL    HW2  583   1.693   0.305   1.680
  192SOL     OW  584   1.730   0.934   1.517
  192SOL    HW1  585   1.768   1.025   1.532
  192SOL    HW2  586   1.722   0.917   1.418
  193SOL     OW  587   0.859   1.374   0.016
  193SOL    HW1  588   0.813   1.389   0.104
  193SOL    HW2  589   0.903   1.459  -0.014
  194SOL     OW  590   0.661   1.790   0.953
  194SOL    HW1  591   0.615   1.878   0.940
  194SOL    HW2  592   0.760   1.802   0.946
  195SOL     OW  593   0.859   0.956   0.861
  195SOL    HW1  594   0.913   0.887   0.909
  195SOL    HW2  595   0.827   1.025   0.927
  196SOL     OW  596   1.083   0.984   0.087
  196SOL    HW1  597   1.060   1.037   0.005
  196SOL    HW2  598   1.164   0.928   0.068
  197SOL     OW  599   1.861   1.569   0.851
  197SOL    HW1  600   1.790   1.557   0.781
  197SOL    HW2  601   1.862   1.490   0.911
  198SOL     OW  602   0.221   1.314   1.844
  198SOL    HW1  603   0.156   1.241   1.823
  198SOL    HW2  604   0.225   1.328   1.942
  199SOL     OW  605   0.079   1.240   0.653
  199SOL    HW1  606   0.078   1.193   0.741
  199SOL    HW2  607   0.161   1.212   0.602
  200SOL     OW  608   0.672   1.391   1.624
  200SOL    HW1  609   0.594   1.341   1.662
  200SOL    HW2  610   0.669   1.486   1.655
  201SOL     OW  611   1.824   0.192   1.227
  201SOL    HW1  612   1.820   0.102   1.271
  201SOL    HW2  613   1.827   0.181   1.128
  202SOL     OW  614   0.428   0.424   0.520
  202SOL    HW1  615   0.458   0.352   0.458
  202SOL    HW2  616   0.389   0.384   0.603
  203SOL     OW  617   1.705   1.487   1.104
  203SOL    HW1  618   1.612   1.462   1.077
  203SOL    HW2  619   1.731   1.437   1.186
  204SOL     OW  620   0.317   0.547   1.280
  204SOL    HW1  621   0.355   0.488   1.352
  204SOL    HW2  622   0.357   0.521   1.192
  205SOL     OW  623   0.812   1.586   0.687
  205SOL    HW1  624   0.844   1.596   0.593
  205SOL    HW2  625   0.733   1.524   0.689
  206SOL     OW  626   1.424   0.214   1.112
  206SOL    HW1  627   1.476   0.149   1.167
  206SOL    HW2  628   1.375   0.277   1.173
  207SOL     OW  629   1.001   0.034   1.154
  207SOL    HW1  630   0.938  -0.038   1.123
  207SOL    HW2  631   1.094  -0.002   1.154
  208SOL     OW  632   0.770   1.330   0.301
  208SOL    HW1  633   0.724   1.243   0.318
  208SOL    HW2  634   0.861   1.327   0.342
  209SOL     OW  635   0.618   1.567   1.284
  209SOL    HW1  636   0.613   1.649   1.341
  209SOL    HW2  637   0.707   1.564   1.239
  210SOL     OW  638   1.352   0.052   0.168
  210SOL    HW1  639   1.387   0.011   0.084
  210SOL    HW2  640   1.262   0.014   0.188
  211SOL     OW  641   1.300   0.453   0.691
  211SOL    HW1  642   1.241   0.533   0.695
  211SOL    HW2  643   1.315   0.418   0.784
  212SOL     OW  644   1.593   0.221   0.882
  212SOL    HW1  645   1.509   0.220   0.936
  212SOL    HW2  646   1.595   0.304   0.826
  213SOL     OW  647   0.039   1.077   0.300
  213SOL    HW1  648   0.138   1.066   0.291
  213SOL    HW2  649  -0.001   0.991   0.332
  214SOL     OW  650   0.875   1.646   0.337
  214SOL    HW1  651   0.798   1.611   0.283
  214SOL    HW2  652   0.843   1.717   0.399
  215SOL     OW  653   0.230   0.628   1.975
  215SOL    HW1  654   0.137   0.626   2.012
  215SOL    HW2  655   0.231   0.589   1.883
  216SOL     OW  656   0.225   0.275   2.858
  216SOL    HW1  657   0.260   0.258   2.950
  216SOL    HW2  658   0.137   0.230   2.846
  217SOL     OW  659   0.019   0.368   2.509
  217SOL    HW1  660  -0.063   0.411   2.548
  217SOL    HW2  661  -0.009   0.295   2.446
  218SOL     OW  662   0.569   1.275   3.027
  218SOL    HW1  663   0.476   1.268   2.990
  218SOL    HW2  664   0.580   1.364   3.071
  219SOL     OW  665   1.555   1.511   2.565
  219SOL    HW1  666   1.498   1.495   2.646
  219SOL    HW2  667   1.496   1.521   2.485
  220SOL     OW  668   1.135   0.703   2.579
  220SOL    HW1  669   1.192   0.781   2.554
  220SOL    HW2  670   1.075   0.729   2.655
  221SOL     OW  671   1.755   0.607   2.093
  221SOL    HW1  672   1.743   0.594   1.994
  221SOL    HW2  673   1.725   0.526   2.142
  222SOL     OW  674   0.768   1.144   2.885
  222SOL    HW1  675   0.690   1.161   2.945
  222SOL    HW2  676   0.802   1.231   2.849
  223SOL     OW  677   0.850   0.798   3.685
  223SOL    HW1  678   0.846   0.874   3.750
  223SOL    HW2  679   0.872   0.834   3.594
  224SOL     OW  680   0.685   1.012   2.527
  224SOL    HW1  681   0.754   0.996   2.597
  224SOL    HW2  682   0.612   1.069   2.565
  225SOL     OW  683   0.686   1.161   3.665
  225SOL    HW1  684   0.746   1.240   3.679
  225SOL    HW2  685   0.600   1.192   3.624
  226SOL     OW  686   0.335   1.435   2.923
  226SOL    HW1  687   0.257   1.404   2.870
  226SOL    HW2  688   0.393   1.493   2.866
  227SOL     OW  689   1.460   1.505   3.201
  227SOL    HW1  690   1.484   1.599   3.227
  227SOL    HW2  691   1.444   1.451   3.283
  228SOL     OW  692   0.438   0.392   3.361
  228SOL    HW1  693   0.520   0.336   3.370
  228SOL    HW2  694   0.357   0.334   3.365
  229SOL     OW  695   1.603   0.447   2.599
  229SOL    HW1  696   1.529   0.493   2.549
  229SOL    HW2  697   1.654   0.515   2.652
  230SOL     OW  698   0.231   1.713   2.345
  230SOL    HW1  699   0.265   1.790   2.399
  230SOL    HW2  700   0.275   1.713   2.255
  231SOL     OW  701   1.127   1.341   3.552
  231SOL    HW1  702   1.174   1.341   3.640
  231SOL    HW2  703   1.079   1.254   3.541
  232SOL     OW  704   0.230   1.434   2.400
  232SOL    HW1  705   0.204   1.530   2.400
  232SOL    HW2  706   0.159   1.380   2.445
  233SOL     OW  707   0.240   1.091   2.748
  233SOL    HW1  708   0.254   1.007   2.800
  233SOL    HW2  709   0.185   1.155   2.803
  234SOL     OW  710   0.620   1.786   3.301
  234SOL    HW1  711   0.528   1.769   3.336
  234SOL    HW2  712   0.648   1.878   3.327
  235SOL     OW  713   0.606   0.964   1.985
  235SOL    HW1  714   0.613   1.048   1.931
  235SOL    HW2  715   0.652   0.977   2.073
  236SOL     OW  716   1.594   0.114   3.342
  236SOL    HW1  717   1.576   0.181   3.270
  236SOL    HW2  718   1.591   0.160   3.431
  237SOL     OW  719   0.122   0.643   2.425
  237SOL    HW1  720   0.077   0.555   2.442
  237SOL    HW2  721   0.121   0.697   2.509
  238SOL     OW  722   1.842   1.767   2.221
  238SOL    HW1  723   1.896   1.738   2.301
  238SOL    HW2  724   1.872   1.857   2.192
  239SOL     OW  725   0.027   1.596   1.979
  239SOL    HW1  726   0.008   1.500   2.000
  239SOL    HW2  727  -0.006   1.654   2.054
  240SOL     OW  728   1.689   0.922   2.474
  240SOL    HW1  729   1.784   0.893   2.482
  240SOL    HW2  730   1.681   0.987   2.399
  241SOL     OW  731   1.641   1.108   2.294
  241SOL    HW1  732   1.727   1.110   2.242
  241SOL    HW2  733   1.655   1.155   2.382
  242SOL     OW  734   0.113   0.737   3.459
  242SOL    HW1  735   0.201   0.724   3.504
  242SOL    HW2  736   0.100   0.834   3.437
  243SOL     OW  737   0.613   1.365   2.588
  243SOL    HW1  738   0.564   1.278   2.597
  243SOL    HW2  739   0.590   1.408   2.501
  244SOL     OW  740   1.293   1.228   3.285
  244SOL    HW1  741   1.330   1.155   3.227
  244SOL    HW2  742   1.345   1.233   3.370
  245SOL     OW  743   0.809   0.004   2.364
  245SOL    HW1  744   0.849   0.095   2.355
  245SOL    HW2  745   0.709   0.012   2.370
  246SOL     OW  746   0.197   0.976   3.126
  246SOL    HW1  747   0.286   0.931   3.112
  246SOL    HW2  748   0.124   0.911   3.107
  247SOL     OW  749   1.525   0.999   2.052
  247SOL    HW1  750   1.462   0.923   2.065
  247SOL    HW2  751   1.573   1.017   2.138
  248SOL     OW  752   1.187   1.792   3.478
  248SOL    HW1  753   1.211   1.852   3.402
  248SOL    HW2  754   1.194   1.697   3.448
  249SOL     OW  755   0.317   0.251   3.663
  249SOL    HW1  756   0.388   0.322   3.669
  249SOL    HW2  757   0.229   0.290   3.691
  250SOL     OW  758   1.466   1.417   2.815
  250SOL    HW1  759   1.407   1.423   2.895
  250SOL    HW2  760   1.451   1.329   2.769
  251SOL     OW  761   1.667   1.714   2.434
  251SOL    HW1  762   1.626   1.691   2.346
  251SOL    HW2  763   1.649   1.640   2.499
  252SOL     OW  764   0.598   0.729   2.132
  252SOL    HW1  765   0.622   0.798   2.064
  252SOL    HW2  766   0.520   0.762   2.186
  253SOL     OW  767   1.281   0.345   2.806
  253SOL    HW1  768   1.195   0.295   2.793
  253SOL    HW2  769   1.343   0.291   2.862
  254SOL     OW  770   1.576   1.662   2.169
  254SOL    HW1  771   1.665   1.708   2.172
  254SOL    HW2  772   1.555   1.638   2.074
  255SOL     OW  773   0.807   0.605   3.327
  255SOL    HW1  774   0.760   0.602   3.416
  255SOL    HW2  775   0.756   0.550   3.261
  256SOL     OW  776   1.394   0.469   3.536
  256SOL    HW1  777   1.374   0.512   3.624
  256SOL    HW2  778   1.472   0.407   3.545
  257SOL     OW  779   0.973   0.890   3.434
  257SOL    HW1  780   1.019   0.806   3.405
  257SOL    HW2  781   0.917   0.924   3.359
  258SOL     OW  782   0.991   0.410   3.104
  258SOL    HW1  783   0.914   0.444   3.158
  258SOL    HW2  784   0.957   0.359   3.025
  259SOL     OW  785   1.041   0.701   2.291
  259SOL    HW1  786   1.067   0.697   2.387
  259SOL    HW2  787   0.956   0.650   2.277
  260SOL     OW  788   0.076   0.811   2.651
  260SOL    HW1  789   0.175   0.799   2.660
  260SOL    HW2  790   0.052   0.906   2.672
  261SOL     OW  791   0.130   1.821   3.433
  261SOL    HW1  792   0.120   1.806   3.532
  261SOL    HW2  793   0.044   1.857   3.397
  262SOL     OW  794   0.865   0.348   2.057
  262SOL    HW1  795   0.924   0.411   2.008
  262SOL    HW2  796   0.884   0.254   2.028
  263SOL     OW  797   1.719   0.585   3.693
  263SOL    HW1  798   1.693   0.674   3.657
  263SOL    HW2  799   1.717   0.517   3.620
  264SOL     OW  800   1.362   1.144   2.407
  264SOL    HW1  801   1.445   1.115   2.359
  264SOL    HW2  802   1.313   1.211   2.351
  265SOL     OW  803   0.550   0.196   2.747
  265SOL    HW1  804   0.545   0.191   2.847
  265SOL    HW2  805   0.552   0.292   2.718
  266SOL     OW  806   1.008   1.456   2.339
  266SOL    HW1  807   0.962   1.528   2.287
  266SOL    HW2  808   1.004   1.476   2.437
  267SOL     OW  809   0.351   1.801   2.715
  267SOL    HW1  810   0.401   1.715   2.721
  267SOL    HW2  811   0.416   1.878   2.712
  268SOL     OW  812   1.795   1.066   2.735
  268SOL    HW1  813   1.733   1.051   2.659
  268SOL    HW2  814   1.743   1.077   2.820
  269SOL     OW  815   1.227   1.550   3.368
  269SOL    HW1  816   1.233   1.473   3.432
  269SOL    HW2  817   1.175   1.524   3.288
  270SOL     OW  818   0.321   0.943   2.104
  270SOL    HW1  819   0.403   0.982   2.062
  270SOL    HW2  820   0.294   0.861   2.055
  271SOL     OW  821   1.458   0.735   2.590
  271SOL    HW1  822   1.453   0.670   2.665
  271SOL    HW2  823   1.538   0.794   2.603
  272SOL     OW  824   0.461   1.266   3.589
  272SOL    HW1  825   0.411   1.267   3.503
  272SOL    HW2  826   0.398   1.248   3.665
  273SOL     OW  827   1.111   1.776   2.099
  273SOL    HW1  828   1.051   1.714   2.149
  273SOL    HW2  829   1.142   1.732   2.014
  274SOL     OW  830   0.202   0.285   3.360
  274SOL    HW1  831   0.122   0.345   3.347
  274SOL    HW2  832   0.192   0.236   3.446
  275SOL     OW  833   1.632   1.377   1.943
  275SOL    HW1  834   1.600   1.471   1.933
  275SOL    HW2  835   1.556   1.314   1.931
  276SOL     OW  836   0.464   1.743   2.185
  276SOL    HW1  837   0.497   1.782   2.271
  276SOL    HW2  838   0.540   1.736   2.120
  277SOL     OW  839   1.400   0.107   2.288
  277SOL    HW1  840   1.376   0.070   2.198
  277SOL    HW2  841   1.499   0.123   2.292
  278SOL     OW  842   0.249   1.785   3.103
  278SOL    HW1  843   0.306   1.720   3.153
  278SOL    HW2  844   0.233   1.752   3.010
  279SOL     OW  845   0.940   1.698   2.766
  279SOL    HW1  846   1.020   1.641   2.787
  279SOL    HW2  847   0.891   1.658   2.689
  280SOL     OW  848   0.382   0.700   2.342
  280SOL    HW1  849   0.427   0.610   2.339
  280SOL    HW2  850   0.288   0.689   2.375
  281SOL     OW  851   1.547   0.222   3.591
  281SOL    HW1  852   1.542   0.259   3.683
  281SOL    HW2  853   1.475   0.153   3.579
  282SOL     OW  854   0.614   0.122   1.979
  282SOL    HW1  855   0.712   0.100   1.986
  282SOL    HW2  856   0.583   0.105   1.886
  283SOL     OW  857   0.781   0.264   3.611
  283SOL    HW1  858   0.848   0.203   3.654
  283SOL    HW2  859   0.708   0.283   3.676
  284SOL     OW  860   0.888   1.514   3.057
  284SOL    HW1  861   0.865   1.489   2.963
  284SOL    HW2  862   0.949   1.445   3.096
  285SOL     OW  863   1.351   0.590   3.295
  285SOL    HW1  864   1.379   0.547   3.380
  285SOL    HW2  865   1.376   0.686   3.296
  286SOL     OW  866   0.803   1.402   2.786
  286SOL    HW1  867   0.893   1.416   2.744
  286SOL    HW2  868   0.732   1.404   2.715
  287SOL     OW  869   0.922   0.503   2.761
  287SOL    HW1  870   0.897   0.494   2.665
  287SOL    HW2  871   0.970   0.421   2.792
  288SOL     OW  872   0.539   0.064   2.374
  288SOL    HW1  873   0.458   0.065   2.432
  288SOL    HW2  874   0.542   0.147   2.319
  289SOL     OW  875   1.434   1.188   1.903
  289SOL    HW1  876   1.466   1.112   1.960
  289SOL    HW2  877   1.342   1.215   1.933
  290SOL     OW  878   0.297   0.035   2.033
  290SOL    HW1  879   0.346   0.119   2.012
  290SOL    HW2  880   0.359  -0.030   2.078
  291SOL     OW  881   0.935   0.236   2.342
  291SOL    HW1  882   0.887   0.277   2.264
  291SOL    HW2  883   1.034   0.234   2.323
  292SOL     OW  884   1.076   0.683   3.326
  292SOL    HW1  885   0.996   0.622   3.329
  292SOL    HW2  886   1.157   0.630   3.302
  293SOL     OW  887   1.227   1.570   2.655
  293SOL    HW1  888   1.248   1.644   2.590
  293SOL    HW2  889   1.295   1.570   2.728
  294SOL     OW  890   0.459   1.152   2.603
  294SOL    HW1  891   0.388   1.125   2.668
  294SOL    HW2  892   0.433   1.124   2.510
  295SOL     OW  893   1.271   1.797   2.453
  295SOL    HW1  894   1.315   1.861   2.389
  295SOL    HW2  895   1.221   1.849   2.523
  296SOL     OW  896   1.032   0.549   1.878
  296SOL    HW1  897   0.991   0.631   1.839
  296SOL    HW2  898   1.096   0.575   1.951
  297SOL     OW  899   0.078   0.556   3.248
  297SOL    HW1  900   0.170   0.555   3.207
  297SOL    HW2  901   0.072   0.630   3.315
  298SOL     OW  902   0.561   0.222   3.009
  298SOL    HW1  903   0.599   0.138   3.046
  298SOL    HW2  904   0.473   0.241   3.053
  299SOL     OW  905   0.866   0.454   2.504
  299SOL    HW1  906   0.834   0.526   2.442
  299SOL    HW2  907   0.890   0.373   2.451
  300SOL     OW  908   1.017   0.039   2.615
  300SOL    HW1  909   0.945   0.044   2.546
  300SOL    HW2  910   0.993  -0.030   2.684
  301SOL     OW  911   1.429   1.173   2.729
  301SOL    HW1  912   1.374   1.089   2.722
  301SOL    HW2  913   1.455   1.202   2.637
  302SOL     OW  914   1.466   0.590   2.854
  302SOL    HW1  915   1.436   0.495   2.861
  302SOL    HW2  916   1.539   0.606   2.920
  303SOL     OW  917   1.857   0.833   2.239
  303SOL    HW1  918   1.899   0.769   2.303
  303SOL    HW2  919   1.819   0.782   2.161
  304SOL     OW  920   0.488   1.385   2.036
  304SOL    HW1  921   0.401   1.370   2.083
  304SOL    HW2  922   0.471   1.411   1.941
  305SOL     OW  923   1.664   1.280   2.519
  305SOL    HW1  924   1.763   1.288   2.533
  305SOL    HW2  925   1.619   1.364   2.550
  306SOL     OW  926   1.390   0.575   1.940
  306SOL    HW1  927   1.336   0.554   2.021
  306SOL    HW2  928   1.481   0.534   1.949
  307SOL     OW  929   0.527   0.256   2.190
  307SOL    HW1  930   0.554   0.197   2.115
  307SOL    HW2  931   0.527   0.351   2.159
  308SOL     OW  932   1.754   1.223   3.450
  308SOL    HW1  933   1.845   1.184   3.437
  308SOL    HW2  934   1.762   1.319   3.474
  309SOL     OW  935   1.064   1.347   3.202
  309SOL    HW1  936   0.984   1.324   3.257
  309SOL    HW2  937   1.147   1.321   3.251
  310SOL     OW  938   1.592   1.629   3.487
  310SOL    HW1  939   1.619   1.663   3.397
  310SOL    HW2  940   1.671   1.591   3.533
  311SOL     OW  941   1.111   1.195   2.962
  311SOL    HW1  942   1.071   1.239   3.043
  311SOL    HW2  943   1.070   1.232   2.879
  312SOL     OW  944   1.638   1.099   2.941
  312SOL    HW1  945   1.643   1.180   3.000
  312SOL    HW2  946   1.552   1.101   2.890
  313SOL     OW  947   0.915   0.089   3.264
  313SOL    HW1  948   0.940   0.069   3.169
  313SOL    HW2  949   0.987   0.145   3.306
  314SOL     OW  950   0.980   1.116   3.581
  314SOL    HW1  951   0.881   1.122   3.591
  314SOL    HW2  952   1.003   1.036   3.525
  315SOL     OW  953   0.705   1.050   2.230
  315SOL    HW1  954   0.691   1.057   2.329
  315SOL    HW2  955   0.789   0.999   2.212
  316SOL     OW  956   0.410   0.813   3.113
  316SOL    HW1  957   0.496   0.825   3.163
  316SOL    HW2  958   0.368   0.726   3.140
  317SOL     OW  959   1.274   0.386   3.124
  317SOL    HW1  960   1.295   0.460   3.188
  317SOL    HW2  961   1.185   0.403   3.081
  318SOL     OW  962   0.064   1.564   3.193
  318SOL    HW1  963   0.018   1.646   3.159
  318SOL    HW2  964   0.162   1.583   3.202
  319SOL     OW  965   0.367   1.100   2.363
  319SOL    HW1  966   0.360   1.183   2.307
  319SOL    HW2  967   0.371   1.020   2.303
  320SOL     OW  968   0.566   0.537   2.727
  320SOL    HW1  969   0.578   0.603   2.653
  320SOL    HW2  970   0.612   0.571   2.810
  321SOL     OW  971   1.252   1.348   2.250
  321SOL    HW1  972   1.302   1.425   2.290
  321SOL    HW2  973   1.157   1.350   2.282
  322SOL     OW  974   1.272   1.445   3.004
  322SOL    HW1  975   1.319   1.458   3.091
  322SOL    HW2  976   1.206   1.371   3.013
  323SOL     OW  977   1.582   0.639   2.334
  323SOL    HW1  978   1.551   0.700   2.407
  323SOL    HW2  979   1.632   0.691   2.265
  324SOL     OW  980   0.354   1.510   3.191
  324SOL    HW1  981   0.333   1.466   3.104
  324SOL    HW2  982   0.451   1.536   3.194
  325SOL     OW  983   0.402   0.751   3.460
  325SOL    HW1  984   0.470   0.806   3.413
  325SOL    HW2  985   0.442   0.663   3.487
  326SOL     OW  986   1.587   0.779   3.532
  326SOL    HW1  987   1.495   0.817   3.527
  326SOL    HW2  988   1.647   0.826   3.467
  327SOL     OW  989   1.013   0.105   3.632
  327SOL    HW1  990   1.019   0.190   3.580
  327SOL    HW2  991   1.045   0.029   3.575
  328SOL     OW  992   0.504   0.050   3.602
  328SOL    HW1  993   0.462  -0.007   3.532
  328SOL    HW2  994   0.438   0.119   3.634
  329SOL     OW  995   0.573   0.870   2.891
  329SOL    HW1  996   0.617   0.959   2.882
  329SOL    HW2  997   0.510   0.870   2.968
  330SOL     OW  998   1.360   0.862   2.907
  330SOL    HW1  999   1.285   0.862   2.841
  330SOL    HW2 1000   1.397   0.770   2.916
  331SOL     OW 1001   1.209   0.525   2.137
  331SOL    HW1 1002   1.222   0.441   2.191
  331SOL    HW2 1003   1.180   0.599   2.197
  332SOL     OW 1004   0.307   0.213   3.093
  332SOL    HW1 1005   0.284   0.250   3.183
  332SOL    HW2 1006   0.277   0.118   3.087
  333SOL     OW 1007   0.037   1.310   3.144
  333SOL    HW1 1008   0.090   1.261   3.212
  333SOL    HW2 1009   0.059   1.408   3.149
  334SOL     OW 1010   0.732   0.634   2.926
  334SOL    HW1 1011   0.791   0.608   2.850
  334SOL    HW2 1012   0.704   0.730   2.915
  335SOL     OW 1013   1.728   0.935   3.716
  335SOL    HW1 1014   1.682   0.928   3.627
  335SOL    HW2 1015   1.666   0.979   3.782
  336SOL     OW 1016   0.307   0.063   2.480
  336SOL    HW1 1017   0.296   0.157   2.513
  336SOL    HW2 1018   0.302   0.000   2.557
  337SOL     OW 1019   1.622   0.367   2.236
  337SOL    HW1 1020   1.624   0.291   2.300
  337SOL    HW2 1021   1.574   0.444   2.276
  338SOL     OW 1022   1.023   0.766   2.828
  338SOL    HW1 1023   1.038   0.787   2.924
  338SOL    HW2 1024   0.993   0.671   2.819
  339SOL     OW 1025   0.980   1.573   3.562
  339SOL    HW1 1026   0.960   1.617   3.474
  339SOL    HW2 1027   1.019   1.482   3.546
  340SOL     OW 1028   1.859   1.518   3.467
  340SOL    HW1 1029   1.873   1.545   3.372
  340SOL    HW2 1030   1.942   1.540   3.520
  341SOL     OW 1031   0.350   0.898   3.666
  341SOL    HW1 1032   0.426   0.942   3.714
  341SOL    HW2 1033   0.385   0.851   3.584
  342SOL     OW 1034   1.540   0.274   1.987
  342SOL    HW1 1035   1.479   0.199   2.010
  342SOL    HW2 1036   1.562   0.326   2.070
  343SOL     OW 1037   1.303   0.838   1.904
  343SOL    HW1 1038   1.337   0.745   1.919
  343SOL    HW2 1039   1.321   0.865   1.809
  344SOL     OW 1040   1.068   1.333   2.711
  344SOL    HW1 1041   1.075   1.249   2.656
  344SOL    HW2 1042   1.130   1.402   2.675
  345SOL     OW 1043   0.319   0.810   2.811
  345SOL    HW1 1044   0.412   0.846   2.816
  345SOL    HW2 1045   0.313   0.725   2.863
  346SOL     OW 1046   0.339   0.509   2.868
  346SOL    HW1 1047   0.287   0.426   2.851
  346SOL    HW2 1048   0.416   0.514   2.804
  347SOL     OW 1049   1.138   0.380   3.540
  347SOL    HW1 1050   1.093   0.443   3.604
  347SOL    HW2 1051   1.231   0.411   3.523
  348SOL     OW 1052   1.160   0.207   3.339
  348SOL    HW1 1053   1.160   0.271   3.416
  348SOL    HW2 1054   1.188   0.255   3.256
  349SOL     OW 1055   0.008   1.326   2.062
  349SOL    HW1 1056  -0.085   1.347   2.031
  349SOL    HW2 1057   0.018   1.227   2.075
  350SOL     OW 1058   0.088   1.801   2.789
  350SOL    HW1 1059   0.046   1.715   2.762
  350SOL    HW2 1060   0.182   1.804   2.755
  351SOL     OW 1061   0.504   1.568   2.772
  351SOL    HW1 1062   0.570   1.642   2.781
  351SOL    HW2 1063   0.548   1.489   2.730
  352SOL     OW 1064   1.002   0.796   3.100
  352SOL    HW1 1065   1.043   0.764   3.186
  352SOL    HW2 1066   0.906   0.769   3.097
  353SOL     OW 1067   0.040   0.544   2.976
  353SOL    HW1 1068   0.125   0.511   2.935
  353SOL    HW2 1069   0.053   0.559   3.074
  354SOL     OW 1070   0.189   0.520   3.584
  354SOL    HW1 1071   0.248   0.480   3.514
  354SOL    HW2 1072   0.131   0.591   3.543
  355SOL     OW 1073   1.369   0.950   3.522
  355SOL    HW1 1074   1.408   1.039   3.542
  355SOL    HW2 1075   1.379   0.930   3.425
  356SOL     OW 1076   0.815   0.572   2.187
  356SOL    HW1 1077   0.822   0.483   2.141
  356SOL    HW2 1078   0.721   0.606   2.179
  357SOL     OW 1079   1.657   0.604   3.068
  357SOL    HW1 1080   1.619   0.535   3.130
  357SOL    HW2 1081   1.739   0.568   3.024
  358SOL     OW 1082   0.252   1.564   3.606
  358SOL    HW1 1083   0.222   1.621   3.682
  358SOL    HW2 1084   0.245   1.467   3.632
  359SOL     OW 1085   0.671   0.464   3.131
  359SOL    HW1 1086   0.637   0.375   3.101
  359SOL    HW2 1087   0.697   0.518   3.051
  360SOL     OW 1088   0.930   1.678   3.327
  360SOL    HW1 1089   0.906   1.660   3.232
  360SOL    HW2 1090   0.960   1.772   3.337
  361SOL     OW 1091   0.473   0.500   2.053
  361SOL    HW1 1092   0.534   0.580   2.057
  361SOL    HW2 1093   0.378   0.531   2.060
  362SOL     OW 1094   0.159   1.137   3.328
  362SOL    HW1 1095   0.181   1.076   3.404
  362SOL    HW2 1096   0.169   1.088   3.242
  363SOL     OW 1097   1.347   1.059   3.096
  363SOL    HW1 1098   1.371   0.996   3.022
  363SOL    HW2 1099   1.257   1.099   3.078
  364SOL     OW 1100   1.302   0.855   2.171
  364SOL    HW1 1101   1.216   0.824   2.213
  364SOL    HW2 1102   1.298   0.841   2.072
  365SOL     OW 1103   1.759   1.747   3.016
  365SOL    HW1 1104   1.820   1.777   2.943
  365SOL    HW2 1105   1.721   1.658   2.994
  366SOL     OW 1106   1.252   1.731   2.990
  366SOL    HW1 1107   1.336   1.736   2.936
  366SOL    HW2 1108   1.229   1.635   3.008
  367SOL     OW 1109   0.083   1.258   2.884
  367SOL    HW1 1110   0.078   1.257   2.984
  367SOL    HW2 1111   0.000   1.217   2.846
  368SOL     OW 1112   0.688   1.662   3.578
  368SOL    HW1 1113   0.632   1.743   3.587
  368SOL    HW2 1114   0.740   1.666   3.492
  369SOL     OW 1115   1.726   0.135   2.385
  369SOL    HW1 1116   1.799   0.118   2.318
  369SOL    HW2 1117   1.695   0.048   2.423
  370SOL     OW 1118   1.388   1.573   2.339
  370SOL    HW1 1119   1.455   1.585   2.265
  370SOL    HW2 1120   1.348   1.662   2.362
  371SOL     OW 1121   0.130   1.794   3.713
  371SOL    HW1 1122   0.089   1.720   3.766
  371SOL    HW2 1123   0.194   1.845   3.771
  372SOL     OW 1124   1.280   0.927   2.534
  372SOL    HW1 1125   1.340   0.846   2.536
  372SOL    HW2 1126   1.320   0.996   2.474
  373SOL     OW 1127   0.830   1.273   3.284
  373SOL    HW1 1128   0.825   1.306   3.379
  373SOL    HW2 1129   0.744   1.292   3.238
  374SOL     OW 1130   0.672   1.616   2.016
  374SOL    HW1 1131   0.681   1.626   1.917
  374SOL    HW2 1132   0.632   1.527   2.037
  375SOL     OW 1133   1.650   1.720   3.256
  375SOL    HW1 1134   1.703   1.730   3.172
  375SOL    HW2 1135   1.623   1.810   3.290
  376SOL     OW 1136   1.841   0.175   2.825
  376SOL    HW1 1137   1.880   0.090   2.789
  376SOL    HW2 1138   1.743   0.177   2.806
  377SOL     OW 1139   0.263   0.326   2.582
  377SOL    HW1 1140   0.184   0.377   2.548
  377SOL    HW2 1141   0.254   0.311   2.680
  378SOL     OW 1142   1.194   1.612   1.893
  378SOL    HW1 1143   1.200   1.519   1.930
  378SOL    HW2 1144   1.135   1.612   1.813
  379SOL     OW 1145   0.822   1.002   3.234
  379SOL    HW1 1146   0.862   1.001   3.142
  379SOL    HW2 1147   0.832   1.094   3.274
  380SOL     OW 1148   0.916   0.910   2.153
  380SOL    HW1 1149   0.979   0.948   2.085
  380SOL    HW2 1150   0.956   0.827   2.192
  381SOL     OW 1151   1.504   1.607   1.906
  381SOL    HW1 1152   1.412   1.644   1.913
  381SOL    HW2 1153   1.542   1.627   1.816
  382SOL     OW 1154   0.372   1.288   3.352
  382SOL    HW1 1155   0.359   1.381   3.318
  382SOL    HW2 1156   0.288   1.236   3.339
  383SOL     OW 1157   1.614   1.292   3.151
  383SOL    HW1 1158   1.674   1.295   3.231
  383SOL    HW2 1159   1.539   1.356   3.164
  384SOL     OW 1160   1.039   1.098   2.558
  384SOL    HW1 1161   0.969   1.051   2.612
  384SOL    HW2 1162   1.098   1.030   2.515
  385SOL     OW 1163   1.014   0.236   2.833
  385SOL    HW1 1164   1.006   0.200   2.740
  385SOL    HW2 1165   1.012   0.160   2.898
  386SOL     OW 1166   0.590   1.487   2.353
  386SOL    HW1 1167   0.632   1.429   2.283
  386SOL    HW2 1168   0.546   1.566   2.309
  387SOL     OW 1169   1.709   0.385   3.243
  387SOL    HW1 1170   1.782   0.454   3.247
  387SOL    HW2 1171   1.737   0.310   3.184
  388SOL     OW 1172   0.255   1.348   2.152
  388SOL    HW1 1173   0.159   1.349   2.125
  388SOL    HW2 1174   0.267   1.401   2.236
  389SOL     OW 1175   0.105   1.013   3.588
  389SOL    HW1 1176   0.028   0.980   3.642
  389SOL    HW2 1177   0.190   0.983   3.630
  390SOL     OW 1178   0.672   0.203   3.351
  390SOL    HW1 1179   0.762   0.187   3.311
  390SOL    HW2 1180   0.680   0.208   3.450
  391SOL     OW 1181   0.075   0.345   1.895
  391SOL    HW1 1182  -0.017   0.317   1.866
  391SOL    HW2 1183   0.106   0.422   1.839
  392SOL     OW 1184   1.440   0.856   3.260
  392SOL    HW1 1185   1.383   0.908   3.197
  392SOL    HW2 1186   1.536   0.868   3.236
  393SOL     OW 1187   0.072   0.166   2.180
  393SOL    HW1 1188   0.055   0.249   2.126
  393SOL    HW2 1189   0.162   0.129   2.158
  394SOL     OW 1190   1.183   1.335   1.981
  394SOL    HW1 1191   1.084   1.324   1.983
  394SOL    HW2 1192   1.217   1.350   2.074
  395SOL     OW 1193   0.613   0.842   3.293
  395SOL    HW1 1194   0.669   0.923   3.276
  395SOL    HW2 1195   0.672   0.762   3.296
  396SOL     OW 1196   1.493   1.767   2.821
  396SOL    HW1 1197   1.526   1.831   2.752
  396SOL    HW2 1198   1.559   1.761   2.896
  397SOL     OW 1199   0.716   0.565   3.570
  397SOL    HW1 1200   0.735   0.630   3.644
  397SOL    HW2 1201   0.776   0.485   3.579
  398SOL     OW 1202   1.450   1.220   3.495
  398SOL    HW1 1203   1.441   1.210   3.594
  398SOL    HW2 1204   1.546   1.213   3.469
  399SOL     OW 1205   0.390   1.741   3.422
  399SOL    HW1 1206   0.299   1.782   3.420
  399SOL    HW2 1207   0.383   1.647   3.454
  400SOL     OW 1208   1.674   0.883   3.116
  400SOL    HW1 1209   1.647   0.794   3.079
  400SOL    HW2 1210   1.675   0.951   3.043
  401SOL     OW 1211   1.225   0.325   2.311
  401SOL    HW1 1212   1.290   0.251   2.300
  401SOL    HW2 1213   1.245   0.375   2.395
  402SOL     OW 1214   0.594   0.745   2.514
  402SOL    HW1 1215   0.644   0.830   2.495
  402SOL    HW2 1216   0.506   0.747   2.466
  403SOL     OW 1217   1.777   0.342   3.504
  403SOL    HW1 1218   1.760   0.373   3.410
  403SOL    HW2 1219   1.693   0.305   3.542
  404SOL     OW 1220   1.730   0.934   3.379
  404SOL    HW1 1221   1.768   1.025   3.394
  404SOL    HW2 1222   1.722   0.917   3.280
  405SOL     OW 1223   0.859   1.374   1.878
  405SOL    HW1 1224   0.813   1.389   1.966
  405SOL    HW2 1225   0.903   1.459   1.848
  406SOL     OW 1226   0.661   1.790   2.815
  406SOL    HW1 1227   0.615   1.878   2.802
  406SOL    HW2 1228   0.760   1.802   2.808
  407SOL     OW 1229   0.859   0.956   2.723
  407SOL    HW1 1230   0.913   0.887   2.771
  407SOL    HW2 1231   0.827   1.025   2.789
  408SOL     OW 1232   1.083   0.984   1.949
  408SOL    HW1 1233   1.060   1.037   1.867
  408SOL    HW2 1234   1.164   0.928   1.930
  409SOL     OW 1235   1.861   1.569   2.713
  409SOL    HW1 1236   1.790   1.557   2.643
  409SOL    HW2 1237   1.862   1.490   2.773
  410SOL     OW 1238   0.221   1.314   3.706
  410SOL    HW1 1239   0.156   1.241   3.685
  410SOL    HW2 1240   0.225   1.328   3.804
  411SOL     OW 1241   0.079   1.240   2.515
  411SOL    HW1 1242   0.078   1.193   2.603
  411SOL    HW2 1243   0.161   1.212   2.464
  412SOL     OW 1244   0.672   1.391   3.486
  412SOL    HW1 1245   0.594   1.341   3.524
  412SOL    HW2 1246   0.669   1.486   3.517
  413SOL     OW 1247   1.824   0.192   3.089
  413SOL    HW1 1248   1.820   0.102   3.133
  413SOL    HW2 1249   1.827   0.181   2.990
  414SOL     OW 1250   0.428   0.424   2.382
  414SOL    HW1 1251   0.458   0.352   2.320
  414SOL    HW2 1252   0.389   0.384   2.465
  415SOL     OW 1253   1.705   1.487   2.966
  415SOL    HW1 1254   1.612   1.462   2.939
  415SOL    HW2 1255   1.731   1.437   3.048
  416SOL     OW 1256   0.317   0.547   3.142
  416SOL    HW1 1257   0.355   0.488   3.214
  416SOL    HW2 1258   0.357   0.521   3.054
  417SOL     OW 1259   0.812   1.586   2.549
  417SOL    HW1 1260   0.844   1.596   2.455
  417SOL    HW2 1261   0.733   1.524   2.551
  418SOL     OW 1262   1.424   0.214   2.974
  418SOL    HW1 1263   1.476   0.149   3.029
  418SOL    HW2 1264   1.375   0.277   3.035
  419SOL     OW 1265   1.001   0.034   3.016
  419SOL    HW1 1266   0.938  -0.038   2.985
  419SOL    HW2 1267   1.094  -0.002   3.016
  420SOL     OW 1268   0.770   1.330   2.163
  420SOL    HW1 1269   0.724   1.243   2.180
  420SOL    HW2 1270   0.861   1.327   2.204
  421SOL     OW 1271   0.618   1.567   3.146
  421SOL    HW1 1272   0.613   1.649   3.203
  421SOL    HW2 1273   0.707   1.564   3.101
  422SOL     OW 1274   1.352   0.052   2.030
  422SOL    HW1 1275   1.387   0.011   1.946
  422SOL    HW2 1276   1.262   0.014   2.050
  423SOL     OW 1277   1.300   0.453   2.553
  423SOL    HW1 1278   1.241   0.533   2.557
  423SOL    HW2 1279   1.315   0.418   2.646
  424SOL     OW 1280   1.593   0.221   2.744
  424SOL    HW1 1281   1.509   0.220   2.798
  424SOL    HW2 1282   1.595   0.304   2.688
  425SOL     OW 1283   0.039   1.077   2.162
  425SOL    HW1 1284   0.138   1.066   2.153
  425SOL    HW2 1285  -0.001   0.991   2.194
  426SOL     OW 1286   0.875   1.646   2.199
  426SOL    HW1 1287   0.798   1.611   2.145
  426SOL    HW2 1288   0.843   1.717   2.261
  427SOL     OW 1289   0.230   0.628   3.837
  427SOL    HW1 1290   0.137   0.626   3.874
  427SOL    HW2 1291   0.231   0.589   3.745
  428SOL     OW 1292   0.019   0.368   4.371
  428SOL    HW1 1293  -0.063   0.411   4.410
  428SOL    HW2 1294  -0.009   0.295   4.308
  429SOL     OW 1295   1.755   0.607   3.955
  429SOL    HW1 1296   1.743   0.594   3.856
  429SOL    HW2 1297   1.725   0.526   4.004
  430SOL     OW 1298   0.685   1.012   4.389
  430SOL    HW1 1299   0.754   0.996   4.459
  430SOL    HW2 1300   0.612   1.069   4.427
  431SOL     OW 1301   1.603   0.447   4.461
  431SOL    HW1 1302   1.529   0.493   4.411
  431SOL    HW2 1303   1.654   0.515   4.514
  432SOL     OW 1304   0.231   1.713   4.207
  432SOL    HW1 1305   0.265   1.790   4.261
  432SOL    HW2 1306   0.275   1.713   4.117
  433SOL     OW 1307   0.230   1.434   4.262
  433SOL    HW1 1308   0.204   1.530   4.262
  433SOL    HW2 1309   0.159   1.380   4.307
  434SOL     OW 1310   0.606   0.964   3.847
  434SOL    HW1 1311   0.613   1.048   3.793
  434SOL    HW2 1312   0.652   0.977   3.935
  435SOL     OW 1313   0.122   0.643   4.287
  435SOL    HW1 1314   0.077   0.555   4.304
  435SOL    HW2 1315   0.121   0.697   4.371
  436SOL     OW 1316   1.842   1.767   4.083
  436SOL    HW1 1317   1.896   1.738   4.163
  436SOL    HW2 1318   1.872   1.857   4.054
  437SOL     OW 1319   0.027   1.596   3.841
  437SOL    HW1 1320   0.008   1.500   3.862
  437SOL    HW2 1321  -0.006   1.654   3.916
  438SOL     OW 1322   1.689   0.922   4.336
  438SOL    HW1 1323   1.784   0.893   4.344
  438SOL    HW2 1324   1.681   0.987   4.261
  439SOL     OW 1325   1.641   1.108   4.156
  439SOL    HW1 1326   1.727   1.110   4.104
  439SOL    HW2 1327   1.655   1.155   4.244
  440SOL     OW 1328   0.613   1.365   4.450
  440SOL    HW1 1329   0.564   1.278   4.459
  440SOL    HW2 1330   0.590   1.408   4.363
  441SOL     OW 1331   0.809   0.004   4.226
  441SOL    HW1 1332   0.849   0.095   4.217
  441SOL    HW2 1333   0.709   0.012   4.232
  442SOL     OW 1334   1.525   0.999   3.914
  442SOL    HW1 1335   1.462   0.923   3.927
  442SOL    HW2 1336   1.573   1.017   4.000
  443SOL     OW 1337   1.667   1.714   4.296
  443SOL    HW1 1338   1.626   1.691   4.208
  443SOL    HW2 1339   1.649   1.640   4.361
  444SOL     OW 1340   0.598   0.729   3.994
  444SOL    HW1 1341   0.622   0.798   3.926
  444SOL    HW2 1342   0.520   0.762   4.048
  445SOL     OW 1343   1.281   0.345   4.668
  445SOL    HW1 1344   1.195   0.295   4.655
  445SOL    HW2 1345   1.343   0.291   4.724
  446SOL     OW 1346   1.576   1.662   4.031
  446SOL    HW1 1347   1.665   1.708   4.034
  446SOL    HW2 1348   1.555   1.638   3.936
  447SOL     OW 1349   1.041   0.701   4.153
  447SOL    HW1 1350   1.067   0.697   4.249
  447SOL    HW2 1351   0.956   0.650   4.139
  448SOL     OW 1352   0.076   0.811   4.513
  448SOL    HW1 1353   0.175   0.799   4.522
  448SOL    HW2 1354   0.052   0.906   4.534
  449SOL     OW 1355   0.865   0.348   3.919
  449SOL    HW1 1356   0.924   0.411   3.870
  449SOL    HW2 1357   0.884   0.254   3.890
  450SOL     OW 1358   1.362   1.144   4.269
  450SOL    HW1 1359   1.445   1.115   4.221
  450SOL    HW2 1360   1.313   1.211   4.213
  451SOL     OW 1361   1.008   1.456   4.201
  451SOL    HW1 1362   0.962   1.528   4.149
  451SOL    HW2 1363   1.004   1.476   4.299
  452SOL     OW 1364   0.351   1.801   4.577
  452SOL    HW1 1365   0.401   1.715   4.583
  452SOL    HW2 1366   0.416   1.878   4.574
  453SOL     OW 1367   1.795   1.066   4.597
  453SOL    HW1 1368   1.733   1.051   4.521
  453SOL    HW2 1369   1.743   1.077   4.682
  454SOL     OW 1370   0.321   0.943   3.966
  454SOL    HW1 1371   0.403   0.982   3.924
  454SOL    HW2 1372   0.294   0.861   3.917
  455SOL     OW 1373   1.111   1.776   3.961
  455SOL    HW1 1374   1.051   1.714   4.011
  455SOL    HW2 1375   1.142   1.732   3.876
  456SOL     OW 1376   1.632   1.377   3.805
  456SOL    HW1 1377   1.600   1.471   3.795
  456SOL    HW2 1378   1.556   1.314   3.793
  457SOL     OW 1379   0.464   1.743   4.047
  457SOL    HW1 1380   0.497   1.782   4.133
  457SOL    HW2 1381   0.540   1.736   3.982
  458SOL     OW 1382   1.400   0.107   4.150
  458SOL    HW1 1383   1.376   0.070   4.060
  458SOL    HW2 1384   1.499   0.123   4.154
  459SOL     OW 1385   0.940   1.698   4.628
  459SOL    HW1 1386   1.020   1.641   4.649
  459SOL    HW2 1387   0.891   1.658   4.551
  460SOL     OW 1388   0.382   0.700   4.204
  460SOL    HW1 1389   0.427   0.610   4.201
  460SOL    HW2 1390   0.288   0.689   4.237
  461SOL     OW 1391   0.614   0.122   3.841
  461SOL    HW1 1392   0.712   0.100   3.848
  461SOL    HW2 1393   0.583   0.105   3.748
  462SOL     OW 1394   0.539   0.064   4.236
  462SOL    HW1 1395   0.458   0.065   4.294
  462SOL    HW2 1396   0.542   0.147   4.181
  463SOL     OW 1397   1.434   1.188   3.765
  463SOL    HW1 1398   1.466   1.112   3.822
  463SOL    HW2 1399   1.342   1.215   3.795
  464SOL     OW 1400   0.297   0.035   3.895
  464SOL    HW1 1401   0.346   0.119   3.874
  464SOL    HW2 1402   0.359  -0.030   3.940
  465SOL     OW 1403   0.935   0.236   4.204
  465SOL    HW1 1404   0.887   0.277   4.126
  465SOL    HW2 1405   1.034   0.234   4.185
  466SOL     OW 1406   0.459   1.152   4.465
  466SOL    HW1 1407   0.388   1.125   4.530
  466SOL    HW2 1408   0.433   1.124   4.372
  467SOL     OW 1409   1.271   1.797   4.315
  467SOL    HW1 1410   1.315   1.861   4.251
  467SOL    HW2 1411   1.221   1.849   4.385
  468SOL     OW 1412   1.032   0.549   3.740
  468SOL    HW1 1413   0.991   0.631   3.701
  468SOL    HW2 1414   1.096   0.575   3.813
  469SOL     OW 1415   0.866   0.454   4.366
  469SOL    HW1 1416   0.834   0.526   4.304
  469SOL    HW2 1417   0.890   0.373   4.313
  470SOL     OW 1418   1.857   0.833   4.101
  470SOL    HW1 1419   1.899   0.769   4.165
  470SOL    HW2 1420   1.819   0.782   4.023
  471SOL     OW 1421   0.488   1.385   3.898
  471SOL    HW1 1422   0.401   1.370   3.945
  471SOL    HW2 1423   0.471   1.411   3.803
  472SOL     OW 1424   1.664   1.280   4.381
  472SOL    HW1 1425   1.763   1.288   4.395
  472SOL    HW2 1426   1.619   1.364   4.412
  473SOL     OW 1427   1.390   0.575   3.802
  473SOL    HW1 1428   1.336   0.554   3.883
  473SOL    HW2 1429   1.481   0.534   3.811
  474SOL     OW 1430   0.527   0.256   4.052
  474SOL    HW1 1431   0.554   0.197   3.977
  474SOL    HW2 1432   0.527   0.351   4.021
  475SOL     OW 1433   1.111   1.195   4.824
  475SOL    HW1 1434   1.071   1.239   4.905
  475SOL    HW2 1435   1.070   1.232   4.741
  476SOL     OW 1436   0.705   1.050   4.092
  476SOL    HW1 1437   0.691   1.057   4.191
  476SOL    HW2 1438   0.789   0.999   4.074
  477SOL     OW 1439   0.367   1.100   4.225
  477SOL    HW1 1440   0.360   1.183   4.169
  477SOL    HW2 1441   0.371   1.020   4.165
  478SOL     OW 1442   1.252   1.348   4.112
  478SOL    HW1 1443   1.302   1.425   4.152
  478SOL    HW2 1444   1.157   1.350   4.144
  479SOL     OW 1445   1.582   0.639   4.196
  479SOL    HW1 1446   1.551   0.700   4.269
  479SOL    HW2 1447   1.632   0.691   4.127
  480SOL     OW 1448   1.209   0.525   3.999
  480SOL    HW1 1449   1.222   0.441   4.053
  480SOL    HW2 1450   1.180   0.599   4.059
  481SOL     OW 1451   0.307   0.063   4.342
  481SOL    HW1 1452   0.296   0.157   4.375
  481SOL    HW2 1453   0.302   0.000   4.419
  482SOL     OW 1454   1.622   0.367   4.098
  482SOL    HW1 1455   1.624   0.291   4.162
  482SOL    HW2 1456   1.574   0.444   4.138
  483SOL     OW 1457   1.540   0.274   3.849
  483SOL    HW1 1458   1.479   0.199   3.872
  483SOL    HW2 1459   1.562   0.326   3.932
  484SOL     OW 1460   1.303   0.838   3.766
  484SOL    HW1 1461   1.337   0.745   3.781
  484SOL    HW2 1462   1.321   0.865   3.671
  485SOL     OW 1463   0.008   1.326   3.924
  485SOL    HW1 1464  -0.085   1.347   3.893
  485SOL    HW2 1465   0.018   1.227   3.937
  486SOL     OW 1466   0.815   0.572   4.049
  486SOL    HW1 1467   0.822   0.483   4.003
  486SOL    HW2 1468   0.721   0.606   4.041
  487SOL     OW 1469   0.473   0.500   3.915
  487SOL    HW1 1470   0.534   0.580   3.919
  487SOL    HW2 1471   0.378   0.531   3.922
  488SOL     OW 1472   1.302   0.855   4.033
  488SOL    HW1 1473   1.216   0.824   4.075
  488SOL    HW2 1474   1.298   0.841   3.934
  489SOL     OW 1475   1.726   0.135   4.247
  489SOL    HW1 1476   1.799   0.118   4.180
  489SOL    HW2 1477   1.695   0.048   4.285
  490SOL     OW 1478   1.388   1.573   4.201
  490SOL    HW1 1479   1.455   1.585   4.127
  490SOL    HW2 1480   1.348   1.662   4.224
  491SOL     OW 1481   0.672   1.616   3.878
  491SOL    HW1 1482   0.681   1.626   3.779
  491SOL    HW2 1483   0.632   1.527   3.899
  492SOL     OW 1484   1.841   0.175   4.687
  492SOL    HW1 1485   1.880   0.090   4.651
  492SOL    HW2 1486   1.743   0.177   4.668
  493SOL     OW 1487   1.194   1.612   3.755
  493SOL    HW1 1488   1.200   1.519   3.792
  493SOL    HW2 1489   1.135   1.612   3.675
  494SOL     OW 1490   0.916   0.910   4.015
  494SOL    HW1 1491   0.979   0.948   3.947
  494SOL    HW2 1492   0.956   0.827   4.054
  495SOL     OW 1493   1.504   1.607   3.768
  495SOL    HW1 1494   1.412   1.644   3.775
  495SOL    HW2 1495   1.542   1.627   3.678
  496SOL     OW 1496   0.590   1.487   4.215
  496SOL    HW1 1497   0.632   1.429   4.145
  496SOL    HW2 1498   0.546   1.566   4.171
  497SOL     OW 1499   0.255   1.348   4.014
  497SOL    HW1 1500   0.159   1.349   3.987
  497SOL    HW2 1501   0.267   1.401   4.098
  498SOL     OW 1502   0.075   0.345   3.757
  498SOL    HW1 1503  -0.017   0.317   3.728
  498SOL    HW2 1504   0.106   0.422   3.701
  499SOL     OW 1505   0.072   0.166   4.042
  499SOL    HW1 1506   0.055   0.249   3.988
  499SOL    HW2 1507   0.162   0.129   4.020
  500SOL     OW 1508   1.183   1.335   3.843
  500SOL    HW1 1509   1.084   1.324   3.845
  500SOL    HW2 1510   1.217   1.350   3.936
  501SOL     OW 1511   1.225   0.325   4.173
  501SOL    HW1 1512   1.290   0.251   4.162
  501SOL    HW2 1513   1.245   0.375   4.257
  502SOL     OW 1514   0.594   0.745   4.376
  502SOL    HW1 1515   0.644   0.830   4.357
  502SOL    HW2 1516   0.506   0.747   4.328
  503SOL     OW 1517   0.859   1.374   3.740
  503SOL    HW1 1518   0.813   1.389   3.828
  503SOL    HW2 1519   0.903   1.459   3.710
  504SOL     OW 1520   0.661   1.790   4.677
  504SOL    HW1 1521   0.615   1.878   4.664
  504SOL    HW2 1522   0.760   1.802   4.670
  505SOL     OW 1523   0.859   0.956   4.585
  505SOL    HW1 1524   0.913   0.887   4.633
  505SOL    HW2 1525   0.827   1.025   4.651
  506SOL     OW 1526   1.083   0.984   3.811
  506SOL    HW1 1527   1.060   1.037   3.729
  506SOL    HW2 1528   1.164   0.928   3.792
  507SOL     OW 1529   0.079   1.240   4.377
  507SOL    HW1 1530   0.078   1.193   4.465
  507SOL    HW2 1531   0.161   1.212   4.326
  508SOL     OW 1532   0.428   0.424   4.244
  508SOL    HW1 1533   0.458   0.352   4.182
  508SOL    HW2 1534   0.389   0.384   4.327
  509SOL     OW 1535   0.812   1.586   4.411
  509SOL    HW1 1536   0.844   1.596   4.317
  509SOL    HW2 1537   0.733   1.524   4.413
  510SOL     OW 1538   0.770   1.330   4.025
  510SOL    HW1 1539   0.724   1.243   4.042
  510SOL    HW2 1540   0.861   1.327   4.066
  511SOL     OW 1541   1.352   0.052   3.892
  511SOL    HW1 1542   1.387   0.011   3.808
  511SOL    HW2 1543   1.262   0.014   3.912
  512SOL     OW 1544   1.300   0.453   4.415
  512SOL    HW1 1545   1.241   0.533   4.419
  512SOL    HW2 1546   1.315   0.418   4.508
  513SOL     OW 1547   0.039   1.077   4.024
  513SOL    HW1 1548   0.138   1.066   4.015
  513SOL    HW2 1549  -0.001   0.991   4.056
  514SOL     OW 1550   0.875   1.646   4.061
  514SOL    HW1 1551   0.798   1.611   4.007
  514SOL    HW2 1552   0.843   1.717   4.123
  515SOL     OW 1553   0.230   2.490   0.113
  515SOL    HW1 1554   0.137   2.488   0.150
  515SOL    HW2 1555   0.231   2.451   0.021
  516SOL     OW 1556   0.225   2.137   0.996
  516SOL    HW1 1557   0.260   2.120   1.088
  516SOL    HW2 1558   0.137   2.092   0.984
  517SOL     OW 1559   0.019   2.230   0.647
  517SOL    HW1 1560  -0.063   2.273   0.686
  517SOL    HW2 1561  -0.009   2.157   0.584
  518SOL     OW 1562   0.569   3.137   1.165
  518SOL    HW1 1563   0.476   3.130   1.128
  518SOL    HW2 1564   0.580   3.226   1.209
  519SOL     OW 1565   1.555   3.373   0.703
  519SOL    HW1 1566   1.498   3.357   0.784
  519SOL    HW2 1567   1.496   3.383   0.623
  520SOL     OW 1568   1.135   2.565   0.717
  520SOL    HW1 1569   1.192   2.643   0.692
  520SOL    HW2 1570   1.075   2.591   0.793
  521SOL     OW 1571   1.755   2.469   0.231
  521SOL    HW1 1572   1.743   2.456   0.132
  521SOL    HW2 1573   1.725   2.388   0.280
  522SOL     OW 1574   0.768   3.006   1.023
  522SOL    HW1 1575   0.690   3.023   1.083
  522SOL    HW2 1576   0.802   3.093   0.987
  523SOL     OW 1577   0.850   2.660   1.823
  523SOL    HW1 1578   0.846   2.736   1.888
  523SOL    HW2 1579   0.872   2.696   1.732
  524SOL     OW 1580   0.685   2.874   0.665
  524SOL    HW1 1581   0.754   2.858   0.735
  524SOL    HW2 1582   0.612   2.931   0.703
  525SOL     OW 1583   0.686   3.023   1.803
  525SOL    HW1 1584   0.746   3.102   1.817
  525SOL    HW2 1585   0.600   3.054   1.762
  526SOL     OW 1586   0.335   3.297   1.061
  526SOL    HW1 1587   0.257   3.266   1.008
  526SOL    HW2 1588   0.393   3.355   1.004
  527SOL     OW 1589   1.460   3.367   1.339
  527SOL    HW1 1590   1.484   3.461   1.365
  527SOL    HW2 1591   1.444   3.313   1.421
  528SOL     OW 1592   0.438   2.254   1.499
  528SOL    HW1 1593   0.520   2.198   1.508
  528SOL    HW2 1594   0.357   2.196   1.503
  529SOL     OW 1595   1.603   2.309   0.737
  529SOL    HW1 1596   1.529   2.355   0.687
  529SOL    HW2 1597   1.654   2.377   0.790
  530SOL     OW 1598   0.231   3.575   0.483
  530SOL    HW1 1599   0.265   3.652   0.537
  530SOL    HW2 1600   0.275   3.575   0.393
  531SOL     OW 1601   1.127   3.203   1.690
  531SOL    HW1 1602   1.174   3.203   1.778
  531SOL    HW2 1603   1.079   3.116   1.679
  532SOL     OW 1604   0.230   3.296   0.538
  532SOL    HW1 1605   0.204   3.392   0.538
  532SOL    HW2 1606   0.159   3.242   0.583
  533SOL     OW 1607   0.240   2.953   0.886
  533SOL    HW1 1608   0.254   2.869   0.938
  533SOL    HW2 1609   0.185   3.017   0.941
  534SOL     OW 1610   0.620   3.648   1.439
  534SOL    HW1 1611   0.528   3.631   1.474
  534SOL    HW2 1612   0.648   3.740   1.465
  535SOL     OW 1613   0.606   2.826   0.123
  535SOL    HW1 1614   0.613   2.910   0.069
  535SOL    HW2 1615   0.652   2.839   0.211
  536SOL     OW 1616   1.594   1.976   1.480
  536SOL    HW1 1617   1.576   2.043   1.408
  536SOL    HW2 1618   1.591   2.022   1.569
  537SOL     OW 1619   0.122   2.505   0.563
  537SOL    HW1 1620   0.077   2.417   0.580
  537SOL    HW2 1621   0.121   2.559   0.647
  538SOL     OW 1622   1.842   3.629   0.359
  538SOL    HW1 1623   1.896   3.600   0.439
  538SOL    HW2 1624   1.872   3.719   0.330
  539SOL     OW 1625   0.027   3.458   0.117
  539SOL    HW1 1626   0.008   3.362   0.138
  539SOL    HW2 1627  -0.006   3.516   0.192
  540SOL     OW 1628   1.689   2.784   0.612
  540SOL    HW1 1629   1.784   2.755   0.620
  540SOL    HW2 1630   1.681   2.849   0.537
  541SOL     OW 1631   1.641   2.970   0.432
  541SOL    HW1 1632   1.727   2.972   0.380
  541SOL    HW2 1633   1.655   3.017   0.520
  542SOL     OW 1634   0.113   2.599   1.597
  542SOL    HW1 1635   0.201   2.586   1.642
  542SOL    HW2 1636   0.100   2.696   1.575
  543SOL     OW 1637   0.613   3.227   0.726
  543SOL    HW1 1638   0.564   3.140   0.735
  543SOL    HW2 1639   0.590   3.270   0.639
  544SOL     OW 1640   1.293   3.090   1.423
  544SOL    HW1 1641   1.330   3.017   1.365
  544SOL    HW2 1642   1.345   3.095   1.508
  545SOL     OW 1643   0.809   1.866   0.502
  545SOL    HW1 1644   0.849   1.957   0.493
  545SOL    HW2 1645   0.709   1.874   0.508
  546SOL     OW 1646   0.197   2.838   1.264
  546SOL    HW1 1647   0.286   2.793   1.250
  546SOL    HW2 1648   0.124   2.773   1.245
  547SOL     OW 1649   1.525   2.861   0.190
  547SOL    HW1 1650   1.462   2.785   0.203
  547SOL    HW2 1651   1.573   2.879   0.276
  548SOL     OW 1652   1.187   3.654   1.616
  548SOL    HW1 1653   1.211   3.714   1.540
  548SOL    HW2 1654   1.194   3.559   1.586
  549SOL     OW 1655   0.317   2.113   1.801
  549SOL    HW1 1656   0.388   2.184   1.807
  549SOL    HW2 1657   0.229   2.152   1.829
  550SOL     OW 1658   1.466   3.279   0.953
  550SOL    HW1 1659   1.407   3.285   1.033
  550SOL    HW2 1660   1.451   3.191   0.907
  551SOL     OW 1661   1.667   3.576   0.572
  551SOL    HW1 1662   1.626   3.553   0.484
  551SOL    HW2 1663   1.649   3.502   0.637
  552SOL     OW 1664   0.598   2.591   0.270
  552SOL    HW1 1665   0.622   2.660   0.202
  552SOL    HW2 1666   0.520   2.624   0.324
  553SOL     OW 1667   1.281   2.207   0.944
  553SOL    HW1 1668   1.195   2.157   0.931
  553SOL    HW2 1669   1.343   2.153   1.000
  554SOL     OW 1670   1.576   3.524   0.307
  554SOL    HW1 1671   1.665   3.570   0.310
  554SOL    HW2 1672   1.555   3.500   0.212
  555SOL     OW 1673   0.807   2.467   1.465
  555SOL    HW1 1674   0.760   2.464   1.554
  555SOL    HW2 1675   0.756   2.412   1.399
  556SOL     OW 1676   1.394   2.331   1.674
  556SOL    HW1 1677   1.374   2.374   1.762
  556SOL    HW2 1678   1.472   2.269   1.683
  557SOL     OW 1679   0.973   2.752   1.572
  557SOL    HW1 1680   1.019   2.668   1.543
  557SOL    HW2 1681   0.917   2.786   1.497
  558SOL     OW 1682   0.991   2.272   1.242
  558SOL    HW1 1683   0.914   2.306   1.296
  558SOL    HW2 1684   0.957   2.221   1.163
  559SOL     OW 1685   1.041   2.563   0.429
  559SOL    HW1 1686   1.067   2.559   0.525
  559SOL    HW2 1687   0.956   2.512   0.415
  560SOL     OW 1688   0.076   2.673   0.789
  560SOL    HW1 1689   0.175   2.661   0.798
  560SOL    HW2 1690   0.052   2.768   0.810
  561SOL     OW 1691   0.130   3.683   1.571
  561SOL    HW1 1692   0.120   3.668   1.670
  561SOL    HW2 1693   0.044   3.719   1.535
  562SOL     OW 1694   0.865   2.210   0.195
  562SOL    HW1 1695   0.924   2.273   0.146
  562SOL    HW2 1696   0.884   2.116   0.166
  563SOL     OW 1697   1.719   2.447   1.831
  563SOL    HW1 1698   1.693   2.536   1.795
  563SOL    HW2 1699   1.717   2.379   1.758
  564SOL     OW 1700   1.362   3.006   0.545
  564SOL    HW1 1701   1.445   2.977   0.497
  564SOL    HW2 1702   1.313   3.073   0.489
  565SOL     OW 1703   0.550   2.058   0.885
  565SOL    HW1 1704   0.545   2.053   0.985
  565SOL    HW2 1705   0.552   2.154   0.856
  566SOL     OW 1706   1.008   3.318   0.477
  566SOL    HW1 1707   0.962   3.390   0.425
  566SOL    HW2 1708   1.004   3.338   0.575
  567SOL     OW 1709   0.351   3.663   0.853
  567SOL    HW1 1710   0.401   3.577   0.859
  567SOL    HW2 1711   0.416   3.740   0.850
  568SOL     OW 1712   1.795   2.928   0.873
  568SOL    HW1 1713   1.733   2.913   0.797
  568SOL    HW2 1714   1.743   2.939   0.958
  569SOL     OW 1715   1.227   3.412   1.506
  569SOL    HW1 1716   1.233   3.335   1.570
  569SOL    HW2 1717   1.175   3.386   1.426
  570SOL     OW 1718   0.321   2.805   0.242
  570SOL    HW1 1719   0.403   2.844   0.200
  570SOL    HW2 1720   0.294   2.723   0.193
  571SOL     OW 1721   1.458   2.597   0.728
  571SOL    HW1 1722   1.453   2.532   0.803
  571SOL    HW2 1723   1.538   2.656   0.741
  572SOL     OW 1724   0.461   3.128   1.727
  572SOL    HW1 1725   0.411   3.129   1.641
  572SOL    HW2 1726   0.398   3.110   1.803
  573SOL     OW 1727   1.111   3.638   0.237
  573SOL    HW1 1728   1.051   3.576   0.287
  573SOL    HW2 1729   1.142   3.594   0.152
  574SOL     OW 1730   0.202   2.147   1.498
  574SOL    HW1 1731   0.122   2.207   1.485
  574SOL    HW2 1732   0.192   2.098   1.584
  575SOL     OW 1733   1.632   3.239   0.081
  575SOL    HW1 1734   1.600   3.333   0.071
  575SOL    HW2 1735   1.556   3.176   0.069
  576SOL     OW 1736   0.464   3.605   0.323
  576SOL    HW1 1737   0.497   3.644   0.409
  576SOL    HW2 1738   0.540   3.598   0.258
  577SOL     OW 1739   1.400   1.969   0.426
  577SOL    HW1 1740   1.376   1.932   0.336
  577SOL    HW2 1741   1.499   1.985   0.430
  578SOL     OW 1742   0.249   3.647   1.241
  578SOL    HW1 1743   0.306   3.582   1.291
  578SOL    HW2 1744   0.233   3.614   1.148
  579SOL     OW 1745   0.940   3.560   0.904
  579SOL    HW1 1746   1.020   3.503   0.925
  579SOL    HW2 1747   0.891   3.520   0.827
  580SOL     OW 1748   0.382   2.562   0.480
  580SOL    HW1 1749   0.427   2.472   0.477
  580SOL    HW2 1750   0.288   2.551   0.513
  581SOL     OW 1751   1.547   2.084   1.729
  581SOL    HW1 1752   1.542   2.121   1.821
  581SOL    HW2 1753   1.475   2.015   1.717
  582SOL     OW 1754   0.781   2.126   1.749
  582SOL    HW1 1755   0.848   2.065   1.792
  582SOL    HW2 1756   0.708   2.145   1.814
  583SOL     OW 1757   0.888   3.376   1.195
  583SOL    HW1 1758   0.865   3.351   1.101
  583SOL    HW2 1759   0.949   3.307   1.234
  584SOL     OW 1760   1.351   2.452   1.433
  584SOL    HW1 1761   1.379   2.409   1.518
  584SOL    HW2 1762   1.376   2.548   1.434
  585SOL     OW 1763   0.803   3.264   0.924
  585SOL    HW1 1764   0.893   3.278   0.882
  585SOL    HW2 1765   0.732   3.266   0.853
  586SOL     OW 1766   0.922   2.365   0.899
  586SOL    HW1 1767   0.897   2.356   0.803
  586SOL    HW2 1768   0.970   2.283   0.930
  587SOL     OW 1769   0.539   1.926   0.512
  587SOL    HW1 1770   0.458   1.927   0.570
  587SOL    HW2 1771   0.542   2.009   0.457
  588SOL     OW 1772   1.434   3.050   0.041
  588SOL    HW1 1773   1.466   2.974   0.098
  588SOL    HW2 1774   1.342   3.077   0.071
  589SOL     OW 1775   0.935   2.098   0.480
  589SOL    HW1 1776   0.887   2.139   0.402
  589SOL    HW2 1777   1.034   2.096   0.461
  590SOL     OW 1778   1.076   2.545   1.464
  590SOL    HW1 1779   0.996   2.484   1.467
  590SOL    HW2 1780   1.157   2.492   1.440
  591SOL     OW 1781   1.227   3.432   0.793
  591SOL    HW1 1782   1.248   3.506   0.728
  591SOL    HW2 1783   1.295   3.432   0.866
  592SOL     OW 1784   0.459   3.014   0.741
  592SOL    HW1 1785   0.388   2.987   0.806
  592SOL    HW2 1786   0.433   2.986   0.648
  593SOL     OW 1787   1.271   3.659   0.591
  593SOL    HW1 1788   1.315   3.723   0.527
  593SOL    HW2 1789   1.221   3.711   0.661
  594SOL     OW 1790   1.032   2.411   0.016
  594SOL    HW1 1791   0.991   2.493  -0.023
  594SOL    HW2 1792   1.096   2.437   0.089
  595SOL     OW 1793   0.078   2.418   1.386
  595SOL    HW1 1794   0.170   2.417   1.345
  595SOL    HW2 1795   0.072   2.492   1.453
  596SOL     OW 1796   0.561   2.084   1.147
  596SOL    HW1 1797   0.599   2.000   1.184
  596SOL    HW2 1798   0.473   2.103   1.191
  597SOL     OW 1799   0.866   2.316   0.642
  597SOL    HW1 1800   0.834   2.388   0.580
  597SOL    HW2 1801   0.890   2.235   0.589
  598SOL     OW 1802   1.017   1.901   0.753
  598SOL    HW1 1803   0.945   1.906   0.684
  598SOL    HW2 1804   0.993   1.832   0.822
  599SOL     OW 1805   1.429   3.035   0.867
  599SOL    HW1 1806   1.374   2.951   0.860
  599SOL    HW2 1807   1.455   3.064   0.775
  600SOL     OW 1808   1.466   2.452   0.992
  600SOL    HW1 1809   1.436   2.357   0.999
  600SOL    HW2 1810   1.539   2.468   1.058
  601SOL     OW 1811   1.857   2.695   0.377
  601SOL    HW1 1812   1.899   2.631   0.441
  601SOL    HW2 1813   1.819   2.644   0.299
  602SOL     OW 1814   0.488   3.247   0.174
  602SOL    HW1 1815   0.401   3.232   0.221
  602SOL    HW2 1816   0.471   3.273   0.079
  603SOL     OW 1817   1.664   3.142   0.657
  603SOL    HW1 1818   1.763   3.150   0.671
  603SOL    HW2 1819   1.619   3.226   0.688
  604SOL     OW 1820   1.390   2.437   0.078
  604SOL    HW1 1821   1.336   2.416   0.159
  604SOL    HW2 1822   1.481   2.396   0.087
  605SOL     OW 1823   0.527   2.118   0.328
  605SOL    HW1 1824   0.554   2.059   0.253
  605SOL    HW2 1825   0.527   2.213   0.297
  606SOL     OW 1826   1.754   3.085   1.588
  606SOL    HW1 1827   1.845   3.046   1.575
  606SOL    HW2 1828   1.762   3.181   1.612
  607SOL     OW 1829   1.064   3.209   1.340
  607SOL    HW1 1830   0.984   3.186   1.395
  607SOL    HW2 1831   1.147   3.183   1.389
  608SOL     OW 1832   1.592   3.491   1.625
  608SOL    HW1 1833   1.619   3.525   1.535
  608SOL    HW2 1834   1.671   3.453   1.671
  609SOL     OW 1835   1.111   3.057   1.100
  609SOL    HW1 1836   1.071   3.101   1.181
  609SOL    HW2 1837   1.070   3.094   1.017
  610SOL     OW 1838   1.638   2.961   1.079
  610SOL    HW1 1839   1.643   3.042   1.138
  610SOL    HW2 1840   1.552   2.963   1.028
  611SOL     OW 1841   0.915   1.951   1.402
  611SOL    HW1 1842   0.940   1.931   1.307
  611SOL    HW2 1843   0.987   2.007   1.444
  612SOL     OW 1844   0.980   2.978   1.719
  612SOL    HW1 1845   0.881   2.984   1.729
  612SOL    HW2 1846   1.003   2.898   1.663
  613SOL     OW 1847   0.705   2.912   0.368
  613SOL    HW1 1848   0.691   2.919   0.467
  613SOL    HW2 1849   0.789   2.861   0.350
  614SOL     OW 1850   0.410   2.675   1.251
  614SOL    HW1 1851   0.496   2.687   1.301
  614SOL    HW2 1852   0.368   2.588   1.278
  615SOL     OW 1853   1.274   2.248   1.262
  615SOL    HW1 1854   1.295   2.322   1.326
  615SOL    HW2 1855   1.185   2.265   1.219
  616SOL     OW 1856   0.064   3.426   1.331
  616SOL    HW1 1857   0.018   3.508   1.297
  616SOL    HW2 1858   0.162   3.445   1.340
  617SOL     OW 1859   0.367   2.962   0.501
  617SOL    HW1 1860   0.360   3.045   0.445
  617SOL    HW2 1861   0.371   2.882   0.441
  618SOL     OW 1862   0.566   2.399   0.865
  618SOL    HW1 1863   0.578   2.465   0.791
  618SOL    HW2 1864   0.612   2.433   0.948
  619SOL     OW 1865   1.252   3.210   0.388
  619SOL    HW1 1866   1.302   3.287   0.428
  619SOL    HW2 1867   1.157   3.212   0.420
  620SOL     OW 1868   1.272   3.307   1.142
  620SOL    HW1 1869   1.319   3.320   1.229
  620SOL    HW2 1870   1.206   3.233   1.151
  621SOL     OW 1871   1.582   2.501   0.472
  621SOL    HW1 1872   1.551   2.562   0.545
  621SOL    HW2 1873   1.632   2.553   0.403
  622SOL     OW 1874   0.354   3.372   1.329
  622SOL    HW1 1875   0.333   3.328   1.242
  622SOL    HW2 1876   0.451   3.398   1.332
  623SOL     OW 1877   0.402   2.613   1.598
  623SOL    HW1 1878   0.470   2.668   1.551
  623SOL    HW2 1879   0.442   2.525   1.625
  624SOL     OW 1880   1.587   2.641   1.670
  624SOL    HW1 1881   1.495   2.679   1.665
  624SOL    HW2 1882   1.647   2.688   1.605
  625SOL     OW 1883   1.013   1.967   1.770
  625SOL    HW1 1884   1.019   2.052   1.718
  625SOL    HW2 1885   1.045   1.891   1.713
  626SOL     OW 1886   0.504   1.912   1.740
  626SOL    HW1 1887   0.462   1.855   1.670
  626SOL    HW2 1888   0.438   1.981   1.772
  627SOL     OW 1889   0.573   2.732   1.029
  627SOL    HW1 1890   0.617   2.821   1.020
  627SOL    HW2 1891   0.510   2.732   1.106
  628SOL     OW 1892   1.360   2.724   1.045
  628SOL    HW1 1893   1.285   2.724   0.979
  628SOL    HW2 1894   1.397   2.632   1.054
  629SOL     OW 1895   1.209   2.387   0.275
  629SOL    HW1 1896   1.222   2.303   0.329
  629SOL    HW2 1897   1.180   2.461   0.335
  630SOL     OW 1898   0.307   2.075   1.231
  630SOL    HW1 1899   0.284   2.112   1.321
  630SOL    HW2 1900   0.277   1.980   1.225
  631SOL     OW 1901   0.037   3.172   1.282
  631SOL    HW1 1902   0.090   3.123   1.350
  631SOL    HW2 1903   0.059   3.270   1.287
  632SOL     OW 1904   0.732   2.496   1.064
  632SOL    HW1 1905   0.791   2.470   0.988
  632SOL    HW2 1906   0.704   2.592   1.053
  633SOL     OW 1907   1.728   2.797   1.854
  633SOL    HW1 1908   1.682   2.790   1.765
  633SOL    HW2 1909   1.666   2.841   1.920
  634SOL     OW 1910   0.307   1.925   0.618
  634SOL    HW1 1911   0.296   2.019   0.651
  634SOL    HW2 1912   0.302   1.862   0.695
  635SOL     OW 1913   1.622   2.229   0.374
  635SOL    HW1 1914   1.624   2.153   0.438
  635SOL    HW2 1915   1.574   2.306   0.414
  636SOL     OW 1916   1.023   2.628   0.966
  636SOL    HW1 1917   1.038   2.649   1.062
  636SOL    HW2 1918   0.993   2.533   0.957
  637SOL     OW 1919   0.980   3.435   1.700
  637SOL    HW1 1920   0.960   3.479   1.612
  637SOL    HW2 1921   1.019   3.344   1.684
  638SOL     OW 1922   1.859   3.380   1.605
  638SOL    HW1 1923   1.873   3.407   1.510
  638SOL    HW2 1924   1.942   3.402   1.658
  639SOL     OW 1925   0.350   2.760   1.804
  639SOL    HW1 1926   0.426   2.804   1.852
  639SOL    HW2 1927   0.385   2.713   1.722
  640SOL     OW 1928   1.540   2.136   0.125
  640SOL    HW1 1929   1.479   2.061   0.148
  640SOL    HW2 1930   1.562   2.188   0.208
  641SOL     OW 1931   1.303   2.700   0.042
  641SOL    HW1 1932   1.337   2.607   0.057
  641SOL    HW2 1933   1.321   2.727  -0.053
  642SOL     OW 1934   1.068   3.195   0.849
  642SOL    HW1 1935   1.075   3.111   0.794
  642SOL    HW2 1936   1.130   3.264   0.813
  643SOL     OW 1937   0.319   2.672   0.949
  643SOL    HW1 1938   0.412   2.708   0.954
  643SOL    HW2 1939   0.313   2.587   1.001
  644SOL     OW 1940   0.339   2.371   1.006
  644SOL    HW1 1941   0.287   2.288   0.989
  644SOL    HW2 1942   0.416   2.376   0.942
  645SOL     OW 1943   1.138   2.242   1.678
  645SOL    HW1 1944   1.093   2.305   1.742
  645SOL    HW2 1945   1.231   2.273   1.661
  646SOL     OW 1946   1.160   2.069   1.477
  646SOL    HW1 1947   1.160   2.133   1.554
  646SOL    HW2 1948   1.188   2.117   1.394
  647SOL     OW 1949   0.008   3.188   0.200
  647SOL    HW1 1950  -0.085   3.209   0.169
  647SOL    HW2 1951   0.018   3.089   0.213
  648SOL     OW 1952   0.088   3.663   0.927
  648SOL    HW1 1953   0.046   3.577   0.900
  648SOL    HW2 1954   0.182   3.666   0.893
  649SOL     OW 1955   0.504   3.430   0.910
  649SOL    HW1 1956   0.570   3.504   0.919
  649SOL    HW2 1957   0.548   3.351   0.868
  650SOL     OW 1958   1.002   2.658   1.238
  650SOL    HW1 1959   1.043   2.626   1.324
  650SOL    HW2 1960   0.906   2.631   1.235
  651SOL     OW 1961   0.040   2.406   1.114
  651SOL    HW1 1962   0.125   2.373   1.073
  651SOL    HW2 1963   0.053   2.421   1.212
  652SOL     OW 1964   0.189   2.382   1.722
  652SOL    HW1 1965   0.248   2.342   1.652
  652SOL    HW2 1966   0.131   2.453   1.681
  653SOL     OW 1967   1.369   2.812   1.660
  653SOL    HW1 1968   1.408   2.901   1.680
  653SOL    HW2 1969   1.379   2.792   1.563
  654SOL     OW 1970   0.815   2.434   0.325
  654SOL    HW1 1971   0.822   2.345   0.279
  654SOL    HW2 1972   0.721   2.468   0.317
  655SOL     OW 1973   1.657   2.466   1.206
  655SOL    HW1 1974   1.619   2.397   1.268
  655SOL    HW2 1975   1.739   2.430   1.162
  656SOL     OW 1976   0.252   3.426   1.744
  656SOL    HW1 1977   0.222   3.483   1.820
  656SOL    HW2 1978   0.245   3.329   1.770
  657SOL     OW 1979   0.671   2.326   1.269
  657SOL    HW1 1980   0.637   2.237   1.239
  657SOL    HW2 1981   0.697   2.380   1.189
  658SOL     OW 1982   0.930   3.540   1.465
  658SOL    HW1 1983   0.906   3.522   1.370
  658SOL    HW2 1984   0.960   3.634   1.475
  659SOL     OW 1985   0.473   2.362   0.191
  659SOL    HW1 1986   0.534   2.442   0.195
  659SOL    HW2 1987   0.378   2.393   0.198
  660SOL     OW 1988   0.159   2.999   1.466
  660SOL    HW1 1989   0.181   2.938   1.542
  660SOL    HW2 1990   0.169   2.950   1.380
  661SOL     OW 1991   1.347   2.921   1.234
  661SOL    HW1 1992   1.371   2.858   1.160
  661SOL    HW2 1993   1.257   2.961   1.216
  662SOL     OW 1994   1.302   2.717   0.309
  662SOL    HW1 1995   1.216   2.686   0.351
  662SOL    HW2 1996   1.298   2.703   0.210
  663SOL     OW 1997   1.759   3.609   1.154
  663SOL    HW1 1998   1.820   3.639   1.081
  663SOL    HW2 1999   1.721   3.520   1.132
  664SOL     OW 2000   1.252   3.593   1.128
  664SOL    HW1 2001   1.336   3.598   1.074
  664SOL    HW2 2002   1.229   3.497   1.146
  665SOL     OW 2003   0.083   3.120   1.022
  665SOL    HW1 2004   0.078   3.119   1.122
  665SOL    HW2 2005   0.000   3.079   0.984
  666SOL     OW 2006   0.688   3.524   1.716
  666SOL    HW1 2007   0.632   3.605   1.725
  666SOL    HW2 2008   0.740   3.528   1.630
  667SOL     OW 2009   0.903   1.948   0.133
  667SOL    HW1 2010   0.954   1.949   0.047
  667SOL    HW2 2011   0.959   1.906   0.204
  668SOL     OW 2012   1.726   1.997   0.523
  668SOL    HW1 2013   1.799   1.980   0.456
  668SOL    HW2 2014   1.695   1.910   0.561
  669SOL     OW 2015   1.388   3.435   0.477
  669SOL    HW1 2016   1.455   3.447   0.403
  669SOL    HW2 2017   1.348   3.524   0.500
  670SOL     OW 2018   0.130   3.656   1.851
  670SOL    HW1 2019   0.089   3.582   1.904
  670SOL    HW2 2020   0.194   3.707   1.909
  671SOL     OW 2021   1.280   2.789   0.672
  671SOL    HW1 2022   1.340   2.708   0.674
  671SOL    HW2 2023   1.320   2.858   0.612
  672SOL     OW 2024   0.830   3.135   1.422
  672SOL    HW1 2025   0.825   3.168   1.517
  672SOL    HW2 2026   0.744   3.154   1.376
  673SOL     OW 2027   0.672   3.478   0.154
  673SOL    HW1 2028   0.681   3.488   0.055
  673SOL    HW2 2029   0.632   3.389   0.175
  674SOL     OW 2030   1.650   3.582   1.394
  674SOL    HW1 2031   1.703   3.592   1.310
  674SOL    HW2 2032   1.623   3.672   1.428
  675SOL     OW 2033   1.841   2.037   0.963
  675SOL    HW1 2034   1.880   1.952   0.927
  675SOL    HW2 2035   1.743   2.039   0.944
  676SOL     OW 2036   0.263   2.188   0.720
  676SOL    HW1 2037   0.184   2.239   0.686
  676SOL    HW2 2038   0.254   2.173   0.818
  677SOL     OW 2039   1.194   3.474   0.031
  677SOL    HW1 2040   1.200   3.381   0.068
  677SOL    HW2 2041   1.135   3.474  -0.049
  678SOL     OW 2042   0.822   2.864   1.372
  678SOL    HW1 2043   0.862   2.863   1.280
  678SOL    HW2 2044   0.832   2.956   1.412
  679SOL     OW 2045   0.916   2.772   0.291
  679SOL    HW1 2046   0.979   2.810   0.223
  679SOL    HW2 2047   0.956   2.689   0.330
  680SOL     OW 2048   1.504   3.469   0.044
  680SOL    HW1 2049   1.412   3.506   0.051
  680SOL    HW2 2050   1.542   3.489  -0.046
  681SOL     OW 2051   0.372   3.150   1.490
  681SOL    HW1 2052   0.359   3.243   1.456
  681SOL    HW2 2053   0.288   3.098   1.477
  682SOL     OW 2054   1.614   3.154   1.289
  682SOL    HW1 2055   1.674   3.157   1.369
  682SOL    HW2 2056   1.539   3.218   1.302
  683SOL     OW 2057   1.039   2.960   0.696
  683SOL    HW1 2058   0.969   2.913   0.750
  683SOL    HW2 2059   1.098   2.892   0.653
  684SOL     OW 2060   1.014   2.098   0.971
  684SOL    HW1 2061   1.006   2.062   0.878
  684SOL    HW2 2062   1.012   2.022   1.036
  685SOL     OW 2063   0.590   3.349   0.491
  685SOL    HW1 2064   0.632   3.291   0.421
  685SOL    HW2 2065   0.546   3.428   0.447
  686SOL     OW 2066   1.709   2.247   1.381
  686SOL    HW1 2067   1.782   2.316   1.385
  686SOL    HW2 2068   1.737   2.172   1.322
  687SOL     OW 2069   0.255   3.210   0.290
  687SOL    HW1 2070   0.159   3.211   0.263
  687SOL    HW2 2071   0.267   3.263   0.374
  688SOL     OW 2072   0.105   2.875   1.726
  688SOL    HW1 2073   0.028   2.842   1.780
  688SOL    HW2 2074   0.190   2.845   1.768
  689SOL     OW 2075   0.672   2.065   1.489
  689SOL    HW1 2076   0.762   2.049   1.449
  689SOL    HW2 2077   0.680   2.070   1.588
  690SOL     OW 2078   0.075   2.207   0.033
  690SOL    HW1 2079  -0.017   2.179   0.004
  690SOL    HW2 2080   0.106   2.284  -0.023
  691SOL     OW 2081   1.440   2.718   1.398
  691SOL    HW1 2082   1.383   2.770   1.335
  691SOL    HW2 2083   1.536   2.730   1.374
  692SOL     OW 2084   0.072   2.028   0.318
  692SOL    HW1 2085   0.055   2.111   0.264
  692SOL    HW2 2086   0.162   1.991   0.296
  693SOL     OW 2087   1.183   3.197   0.119
  693SOL    HW1 2088   1.084   3.186   0.121
  693SOL    HW2 2089   1.217   3.212   0.212
  694SOL     OW 2090   0.613   2.704   1.431
  694SOL    HW1 2091   0.669   2.785   1.414
  694SOL    HW2 2092   0.672   2.624   1.434
  695SOL     OW 2093   1.493   3.629   0.959
  695SOL    HW1 2094   1.526   3.693   0.890
  695SOL    HW2 2095   1.559   3.623   1.034
  696SOL     OW 2096   0.716   2.427   1.708
  696SOL    HW1 2097   0.735   2.492   1.782
  696SOL    HW2 2098   0.776   2.347   1.717
  697SOL     OW 2099   1.450   3.082   1.633
  697SOL    HW1 2100   1.441   3.072   1.732
  697SOL    HW2 2101   1.546   3.075   1.607
  698SOL     OW 2102   0.390   3.603   1.560
  698SOL    HW1 2103   0.299   3.644   1.558
  698SOL    HW2 2104   0.383   3.509   1.592
  699SOL     OW 2105   1.674   2.745   1.254
  699SOL    HW1 2106   1.647   2.656   1.217
  699SOL    HW2 2107   1.675   2.813   1.181
  700SOL     OW 2108   1.225   2.187   0.449
  700SOL    HW1 2109   1.290   2.113   0.438
  700SOL    HW2 2110   1.245   2.237   0.533
  701SOL     OW 2111   0.594   2.607   0.652
  701SOL    HW1 2112   0.644   2.692   0.633
  701SOL    HW2 2113   0.506   2.609   0.604
  702SOL     OW 2114   1.777   2.204   1.642
  702SOL    HW1 2115   1.760   2.235   1.548
  702SOL    HW2 2116   1.693   2.167   1.680
  703SOL     OW 2117   1.730   2.796   1.517
  703SOL    HW1 2118   1.768   2.887   1.532
  703SOL    HW2 2119   1.722   2.779   1.418
  704SOL     OW 2120   0.859   3.236   0.016
  704SOL    HW1 2121   0.813   3.251   0.104
  704SOL    HW2 2122   0.903   3.321  -0.014
  705SOL     OW 2123   0.661   3.652   0.953
  705SOL    HW1 2124   0.615   3.740   0.940
  705SOL    HW2 2125   0.760   3.664   0.946
  706SOL     OW 2126   0.859   2.818   0.861
  706SOL    HW1 2127   0.913   2.749   0.909
  706SOL    HW2 2128   0.827   2.887   0.927
  707SOL     OW 2129   1.083   2.846   0.087
  707SOL    HW1 2130   1.060   2.899   0.005
  707SOL    HW2 2131   1.164   2.790   0.068
  708SOL     OW 2132   1.861   3.431   0.851
  708SOL    HW1 2133   1.790   3.419   0.781
  708SOL    HW2 2134   1.862   3.352   0.911
  709SOL     OW 2135   0.221   3.176   1.844
  709SOL    HW1 2136   0.156   3.103   1.823
  709SOL    HW2 2137   0.225   3.190   1.942
  710SOL     OW 2138   0.079   3.102   0.653
  710SOL    HW1 2139   0.078   3.055   0.741
  710SOL    HW2 2140   0.161   3.074   0.602
  711SOL     OW 2141   0.672   3.253   1.624
  711SOL    HW1 2142   0.594   3.203   1.662
  711SOL    HW2 2143   0.669   3.348   1.655
  712SOL     OW 2144   1.824   2.054   1.227
  712SOL    HW1 2145   1.820   1.964   1.271
  712SOL    HW2 2146   1.827   2.043   1.128
  713SOL     OW 2147   0.428   2.286   0.520
  713SOL    HW1 2148   0.458   2.214   0.458
  713SOL    HW2 2149   0.389   2.246   0.603
  714SOL     OW 2150   1.705   3.349   1.104
  714SOL    HW1 2151   1.612   3.324   1.077
  714SOL    HW2 2152   1.731   3.299   1.186
  715SOL     OW 2153   0.317   2.409   1.280
  715SOL    HW1 2154   0.355   2.350   1.352
  715SOL    HW2 2155   0.357   2.383   1.192
  716SOL     OW 2156   0.812   3.448   0.687
  716SOL    HW1 2157   0.844   3.458   0.593
  716SOL    HW2 2158   0.733   3.386   0.689
  717SOL     OW 2159   1.424   2.076   1.112
  717SOL    HW1 2160   1.476   2.011   1.167
  717SOL    HW2 2161   1.375   2.139   1.173
  718SOL     OW 2162   1.001   1.896   1.154
  718SOL    HW1 2163   0.938   1.824   1.123
  718SOL    HW2 2164   1.094   1.860   1.154
  719SOL     OW 2165   0.770   3.192   0.301
  719SOL    HW1 2166   0.724   3.105   0.318
  719SOL    HW2 2167   0.861   3.189   0.342
  720SOL     OW 2168   0.618   3.429   1.284
  720SOL    HW1 2169   0.613   3.511   1.341
  720SOL    HW2 2170   0.707   3.426   1.239
  721SOL     OW 2171   1.352   1.914   0.168
  721SOL    HW1 2172   1.387   1.873   0.084
  721SOL    HW2 2173   1.262   1.876   0.188
  722SOL     OW 2174   1.300   2.315   0.691
  722SOL    HW1 2175   1.241   2.395   0.695
  722SOL    HW2 2176   1.315   2.280   0.784
  723SOL     OW 2177   1.593   2.083   0.882
  723SOL    HW1 2178   1.509   2.082   0.936
  723SOL    HW2 2179   1.595   2.166   0.826
  724SOL     OW 2180   0.039   2.939   0.300
  724SOL    HW1 2181   0.138   2.928   0.291
  724SOL    HW2 2182  -0.001   2.853   0.332
  725SOL     OW 2183   0.875   3.508   0.337
  725SOL    HW1 2184   0.798   3.473   0.283
  725SOL    HW2 2185   0.843   3.579   0.399
  726SOL     OW 2186   0.230   2.490   1.975
  726SOL    HW1 2187   0.137   2.488   2.012
  726SOL    HW2 2188   0.231   2.451   1.883
  727SOL     OW 2189   0.225   2.137   2.858
  727SOL    HW1 2190   0.260   2.120   2.950
  727SOL    HW2 2191   0.137   2.092   2.846
  728SOL     OW 2192   0.019   2.230   2.509
  728SOL    HW1 2193  -0.063   2.273   2.548
  728SOL    HW2 2194  -0.009   2.157   2.446
  729SOL     OW 2195   0.569   3.137   3.027
  729SOL    HW1 2196   0.476   3.130   2.990
  729SOL    HW2 2197   0.580   3.226   3.071
  730SOL     OW 2198   1.555   3.373   2.565
  730SOL    HW1 2199   1.498   3.357   2.646
  730SOL    HW2 2200   1.496   3.383   2.485
  731SOL     OW 2201   1.135   2.565   2.579
  731SOL    HW1 2202   1.192   2.643   2.554
  731SOL    HW2 2203   1.075   2.591   2.655
  732SOL     OW 2204   1.755   2.469   2.093
  732SOL    HW1 2205   1.743   2.456   1.994
  732SOL    HW2 2206   1.725   2.388   2.142
  733SOL     OW 2207   0.768   3.006   2.885
  733SOL    HW1 2208   0.690   3.023   2.945
  733SOL    HW2 2209   0.802   3.093   2.849
  734SOL     OW 2210   0.850   2.660   3.685
  734SOL    HW1 2211   0.846   2.736   3.750
  734SOL    HW2 2212   0.872   2.696   3.594
  735SOL     OW 2213   0.685   2.874   2.527
  735SOL    HW1 2214   0.754   2.858   2.597
  735SOL    HW2 2215   0.612   2.931   2.565
  736SOL     OW 2216   0.686   3.023   3.665
  736SOL    HW1 2217   0.746   3.102   3.679
  736SOL    HW2 2218   0.600   3.054   3.624
  737SOL     OW 2219   0.335   3.297   2.923
  737SOL    HW1 2220   0.257   3.266   2.870
  737SOL    HW2 2221   0.393   3.355   2.866
  738SOL     OW 2222   1.460   3.367   3.201
  738SOL    HW1 2223   1.484   3.461   3.227
  738SOL    HW2 2224   1.444   3.313   3.283
  739SOL     OW 2225   0.438   2.254   3.361
  739SOL    HW1 2226   0.520   2.198   3.370
  739SOL    HW2 2227   0.357   2.196   3.365
  740SOL     OW 2228   1.603   2.309   2.599
  740SOL    HW1 2229   1.529   2.355   2.549
  740SOL    HW2 2230   1.654   2.377   2.652
  741SOL     OW 2231   0.231   3.575   2.345
  741SOL    HW1 2232   0.265   3.652   2.399
  741SOL    HW2 2233   0.275   3.575   2.255
  742SOL     OW 2234   1.127   3.203   3.552
  742SOL    HW1 2235   1.174   3.203   3.640
  742SOL    HW2 2236   1.079   3.116   3.541
  743SOL     OW 2237   0.230   3.296   2.400
  743SOL    HW1 2238   0.204   3.392   2.400
  743SOL    HW2 2239   0.159   3.242   2.445
  744SOL     OW 2240   0.240   2.953   2.748
  744SOL    HW1 2241   0.254   2.869   2.800
  744SOL    HW2 2242   0.185   3.017   2.803
  745SOL     OW 2243   0.620   3.648   3.301
  745SOL    HW1 2244   0.528   3.631   3.336
  745SOL    HW2 2245   0.648   3.740   3.327
  746SOL     OW 2246   0.606   2.826   1.985
  746SOL    HW1 2247   0.613   2.910   1.931
  746SOL    HW2 2248   0.652   2.839   2.073
  747SOL     OW 2249   1.594   1.976   3.342
  747SOL    HW1 2250   1.576   2.043   3.270
  747SOL    HW2 2251   1.591   2.022   3.431
  748SOL     OW 2252   0.122   2.505   2.425
  748SOL    HW1 2253   0.077   2.417   2.442
  748SOL    HW2 2254   0.121   2.559   2.509
  749SOL     OW 2255   1.842   3.629   2.221
  749SOL    HW1 2256   1.896   3.600   2.301
  749SOL    HW2 2257   1.872   3.719   2.192
  750SOL     OW 2258   0.027   3.458   1.979
  750SOL    HW1 2259   0.008   3.362   2.000
  750SOL    HW2 2260  -0.006   3.516   2.054
  751SOL     OW 2261   1.689   2.784   2.474
  751SOL    HW1 2262   1.784   2.755   2.482
  751SOL    HW2 2263   1.681   2.849   2.399
  752SOL     OW 2264   1.641   2.970   2.294
  752SOL    HW1 2265   1.727   2.972   2.242
  752SOL    HW2 2266   1.655   3.017   2.382
  753SOL     OW 2267   0.113   2.599   3.459
  753SOL    HW1 2268   0.201   2.586   3.504
  753SOL    HW2 2269   0.100   2.696   3.437
  754SOL     OW 2270   0.613   3.227   2.588
  754SOL    HW1 2271   0.564   3.140   2.597
  754SOL    HW2 2272   0.590   3.270   2.501
  755SOL     OW 2273   1.293   3.090   3.285
  755SOL    HW1 2274   1.330   3.017   3.227
  755SOL    HW2 2275   1.345   3.095   3.370
  756SOL     OW 2276   0.809   1.866   2.364
  756SOL    HW1 2277   0.849   1.957   2.355
  756SOL    HW2 2278   0.709   1.874   2.370
  757SOL     OW 2279   0.197   2.838   3.126
  757SOL    HW1 2280   0.286   2.793   3.112
  757SOL    HW2 2281   0.124   2.773   3.107
  758SOL     OW 2282   1.525   2.861   2.052
  758SOL    HW1 2283   1.462   2.785   2.065
  758SOL    HW2 2284   1.573   2.879   2.138
  759SOL     OW 2285   1.187   3.654   3.478
  759SOL    HW1 2286   1.211   3.714   3.402
  759SOL    HW2 2287   1.194   3.559   3.448
  760SOL     OW 2288   0.317   2.113   3.663
  760SOL    HW1 2289   0.388   2.184   3.669
  760SOL    HW2 2290   0.229   2.152   3.691
  761SOL     OW 2291   1.466   3.279   2.815
  761SOL    HW1 2292   1.407   3.285   2.895
  761SOL    HW2 2293   1.451   3.191   2.769
  762SOL     OW 2294   1.667   3.576   2.434
  762SOL    HW1 2295   1.626   3.553   2.346
  762SOL    HW2 2296   1.649   3.502   2.499
  763SOL     OW 2297   0.598   2.591   2.132
  763SOL    HW1 2298   0.622   2.660   2.064
  763SOL    HW2 2299   0.520   2.624   2.186
  764SOL     OW 2300   1.281   2.207   2.806
  764SOL    HW1 2301   1.195   2.157   2.793
  764SOL    HW2 2302   1.343   2.153   2.862
  765SOL     OW 2303   1.576   3.524   2.169
  765SOL    HW1 2304   1.665   3.570   2.172
  765SOL    HW2 2305   1.555   3.500   2.074
  766SOL     OW 2306   0.807   2.467   3.327
  766SOL    HW1 2307   0.760   2.464   3.416
  766SOL    HW2 2308   0.756   2.412   3.261
  767SOL     OW 2309   1.394   2.331   3.536
  767SOL    HW1 2310   1.374   2.374   3.624
  767SOL    HW2 2311   1.472   2.269   3.545
  768SOL     OW 2312   0.973   2.752   3.434
  768SOL    HW1 2313   1.019   2.668   3.405
  768SOL    HW2 2314   0.917   2.786   3.359
  769SOL     OW 2315   0.991   2.272   3.104
  769SOL    HW1 2316   0.914   2.306   3.158
  769SOL    HW2 2317   0.957   2.221   3.025
  770SOL     OW 2318   1.041   2.563   2.291
  770SOL    HW1 2319   1.067   2.559   2.387
  770SOL    HW2 2320   0.956   2.512   2.277
  771SOL     OW 2321   0.076   2.673   2.651
  771SOL    HW1 2322   0.175   2.661   2.660
  771SOL    HW2 2323   0.052   2.768   2.672
  772SOL     OW 2324   0.130   3.683   3.433
  772SOL    HW1 2325   0.120   3.668   3.532
  772SOL    HW2 2326   0.044   3.719   3.397
  773SOL     OW 2327   0.865   2.210   2.057
  773SOL    HW1 2328   0.924   2.273   2.008
  773SOL    HW2 2329   0.884   2.116   2.028
  774SOL     OW 2330   1.719   2.447   3.693
  774SOL    HW1 2331   1.693   2.536   3.657
  774SOL    HW2 2332   1.717   2.379   3.620
  775SOL     OW 2333   1.362   3.006   2.407
  775SOL    HW1 2334   1.445   2.977   2.359
  775SOL    HW2 2335   1.313   3.073   2.351
  776SOL     OW 2336   0.550   2.058   2.747
  776SOL    HW1 2337   0.545   2.053   2.847
  776SOL    HW2 2338   0.552   2.154   2.718
  777SOL     OW 2339   1.008   3.318   2.339
  777SOL    HW1 2340   0.962   3.390   2.287
  777SOL    HW2 2341   1.004   3.338   2.437
  778SOL     OW 2342   0.351   3.663   2.715
  778SOL    HW1 2343   0.401   3.577   2.721
  778SOL    HW2 2344   0.416   3.740   2.712
  779SOL     OW 2345   1.795   2.928   2.735
  779SOL    HW1 2346   1.733   2.913   2.659
  779SOL    HW2 2347   1.743   2.939   2.820
  780SOL     OW 2348   1.227   3.412   3.368
  780SOL    HW1 2349   1.233   3.335   3.432
  780SOL    HW2 2350   1.175   3.386   3.288
  781SOL     OW 2351   0.321   2.805   2.104
  781SOL    HW1 2352   0.403   2.844   2.062
  781SOL    HW2 2353   0.294   2.723   2.055
  782SOL     OW 2354   1.458   2.597   2.590
  782SOL    HW1 2355   1.453   2.532   2.665
  782SOL    HW2 2356   1.538   2.656   2.603
  783SOL     OW 2357   0.461   3.128   3.589
  783SOL    HW1 2358   0.411   3.129   3.503
  783SOL    HW2 2359   0.398   3.110   3.665
  784SOL     OW 2360   1.111   3.638   2.099
  784SOL    HW1 2361   1.051   3.576   2.149
  784SOL    HW2 2362   1.142   3.594   2.014
  785SOL     OW 2363   0.202   2.147   3.360
  785SOL    HW1 2364   0.122   2.207   3.347
  785SOL    HW2 2365   0.192   2.098   3.446
  786SOL     OW 2366   1.632   3.239   1.943
  786SOL    HW1 2367   1.600   3.333   1.933
  786SOL    HW2 2368   1.556   3.176   1.931
  787SOL     OW 2369   0.464   3.605   2.185
  787SOL    HW1 2370   0.497   3.644   2.271
  787SOL    HW2 2371   0.540   3.598   2.120
  788SOL     OW 2372   1.400   1.969   2.288
  788SOL    HW1 2373   1.376   1.932   2.198
  788SOL    HW2 2374   1.499   1.985   2.292
  789SOL     OW 2375   0.249   3.647   3.103
  789SOL    HW1 2376   0.306   3.582   3.153
  789SOL    HW2 2377   0.233   3.614   3.010
  790SOL     OW 2378   0.940   3.560   2.766
  790SOL    HW1 2379   1.020   3.503   2.787
  790SOL    HW2 2380   0.891   3.520   2.689
  791SOL     OW 2381   0.382   2.562   2.342
  791SOL    HW1 2382   0.427   2.472   2.339
  791SOL    HW2 2383   0.288   2.551   2.375
  792SOL     OW 2384   1.547   2.084   3.591
  792SOL    HW1 2385   1.542   2.121   3.683
  792SOL    HW2 2386   1.475   2.015   3.579
  793SOL     OW 2387   0.614   1.984   1.979
  793SOL    HW1 2388   0.712   1.962   1.986
  793SOL    HW2 2389   0.583   1.967   1.886
  794SOL     OW 2390   0.781   2.126   3.611
  794SOL    HW1 2391   0.848   2.065   3.654
  794SOL    HW2 2392   0.708   2.145   3.676
  795SOL     OW 2393   0.888   3.376   3.057
  795SOL    HW1 2394   0.865   3.351   2.963
  795SOL    HW2 2395   0.949   3.307   3.096
  796SOL     OW 2396   1.351   2.452   3.295
  796SOL    HW1 2397   1.379   2.409   3.380
  796SOL    HW2 2398   1.376   2.548   3.296
  797SOL     OW 2399   0.803   3.264   2.786
  797SOL    HW1 2400   0.893   3.278   2.744
  797SOL    HW2 2401   0.732   3.266   2.715
  798SOL     OW 2402   0.922   2.365   2.761
  798SOL    HW1 2403   0.897   2.356   2.665
  798SOL    HW2 2404   0.970   2.283   2.792
  799SOL     OW 2405   0.539   1.926   2.374
  799SOL    HW1 2406   0.458   1.927   2.432
  799SOL    HW2 2407   0.542   2.009   2.319
  800SOL     OW 2408   1.434   3.050   1.903
  800SOL    HW1 2409   1.466   2.974   1.960
  800SOL    HW2 2410   1.342   3.077   1.933
  801SOL     OW 2411   0.297   1.897   2.033
  801SOL    HW1 2412   0.346   1.981   2.012
  801SOL    HW2 2413   0.359   1.832   2.078
  802SOL     OW 2414   0.935   2.098   2.342
  802SOL    HW1 2415   0.887   2.139   2.264
  802SOL    HW2 2416   1.034   2.096   2.323
  803SOL     OW 2417   1.076   2.545   3.326
  803SOL    HW1 2418   0.996   2.484   3.329
  803SOL    HW2 2419   1.157   2.492   3.302
  804SOL     OW 2420   1.227   3.432   2.655
  804SOL    HW1 2421   1.248   3.506   2.590
  804SOL    HW2 2422   1.295   3.432   2.728
  805SOL     OW 2423   0.459   3.014   2.603
  805SOL    HW1 2424   0.388   2.987   2.668
  805SOL    HW2 2425   0.433   2.986   2.510
  806SOL     OW 2426   1.271   3.659   2.453
  806SOL    HW1 2427   1.315   3.723   2.389
  806SOL    HW2 2428   1.221   3.711   2.523
  807SOL     OW 2429   1.032   2.411   1.878
  807SOL    HW1 2430   0.991   2.493   1.839
  807SOL    HW2 2431   1.096   2.437   1.951
  808SOL     OW 2432   0.078   2.418   3.248
  808SOL    HW1 2433   0.170   2.417   3.207
  808SOL    HW2 2434   0.072   2.492   3.315
  809SOL     OW 2435   0.561   2.084   3.009
  809SOL    HW1 2436   0.599   2.000   3.046
  809SOL    HW2 2437   0.473   2.103   3.053
  810SOL     OW 2438   0.866   2.316   2.504
  810SOL    HW1 2439   0.834   2.388   2.442
  810SOL    HW2 2440   0.890   2.235   2.451
  811SOL     OW 2441   1.017   1.901   2.615
  811SOL    HW1 2442   0.945   1.906   2.546
  811SOL    HW2 2443   0.993   1.832   2.684
  812SOL     OW 2444   1.429   3.035   2.729
  812SOL    HW1 2445   1.374   2.951   2.722
  812SOL    HW2 2446   1.455   3.064   2.637
  813SOL     OW 2447   1.466   2.452   2.854
  813SOL    HW1 2448   1.436   2.357   2.861
  813SOL    HW2 2449   1.539   2.468   2.920
  814SOL     OW 2450   1.857   2.695   2.239
  814SOL    HW1 2451   1.899   2.631   2.303
  814SOL    HW2 2452   1.819   2.644   2.161
  815SOL     OW 2453   0.488   3.247   2.036
  815SOL    HW1 2454   0.401   3.232   2.083
  815SOL    HW2 2455   0.471   3.273   1.941
  816SOL     OW 2456   1.664   3.142   2.519
  816SOL    HW1 2457   1.763   3.150   2.533
  816SOL    HW2 2458   1.619   3.226   2.550
  817SOL     OW 2459   1.390   2.437   1.940
  817SOL    HW1 2460   1.336   2.416   2.021
  817SOL    HW2 2461   1.481   2.396   1.949
  818SOL     OW 2462   0.527   2.118   2.190
  818SOL    HW1 2463   0.554   2.059   2.115
  818SOL    HW2 2464   0.527   2.213   2.159
  819SOL     OW 2465   1.754   3.085   3.450
  819SOL    HW1 2466   1.845   3.046   3.437
  819SOL    HW2 2467   1.762   3.181   3.474
  820SOL     OW 2468   1.064   3.209   3.202
  820SOL    HW1 2469   0.984   3.186   3.257
  820SOL    HW2 2470   1.147   3.183   3.251
  821SOL     OW 2471   1.592   3.491   3.487
  821SOL    HW1 2472   1.619   3.525   3.397
  821SOL    HW2 2473   1.671   3.453   3.533
  822SOL     OW 2474   1.111   3.057   2.962
  822SOL    HW1 2475   1.071   3.101   3.043
  822SOL    HW2 2476   1.070   3.094   2.879
  823SOL     OW 2477   1.638   2.961   2.941
  823SOL    HW1 2478   1.643   3.042   3.000
  823SOL    HW2 2479   1.552   2.963   2.890
  824SOL     OW 2480   0.915   1.951   3.264
  824SOL    HW1 2481   0.940   1.931   3.169
  824SOL    HW2 2482   0.987   2.007   3.306
  825SOL     OW 2483   0.980   2.978   3.581
  825SOL    HW1 2484   0.881   2.984   3.591
  825SOL    HW2 2485   1.003   2.898   3.525
  826SOL     OW 2486   0.705   2.912   2.230
  826SOL    HW1 2487   0.691   2.919   2.329
  826SOL    HW2 2488   0.789   2.861   2.212
  827SOL     OW 2489   0.410   2.675   3.113
  827SOL    HW1 2490   0.496   2.687   3.163
  827SOL    HW2 2491   0.368   2.588   3.140
  828SOL     OW 2492   1.274   2.248   3.124
  828SOL    HW1 2493   1.295   2.322   3.188
  828SOL    HW2 2494   1.185   2.265   3.081
  829SOL     OW 2495   0.064   3.426   3.193
  829SOL    HW1 2496   0.018   3.508   3.159
  829SOL    HW2 2497   0.162   3.445   3.202
  830SOL     OW 2498   0.367   2.962   2.363
  830SOL    HW1 2499   0.360   3.045   2.307
  830SOL    HW2 2500   0.371   2.882   2.303
  831SOL     OW 2501   0.566   2.399   2.727
  831SOL    HW1 2502   0.578   2.465   2.653
  831SOL    HW2 2503   0.612   2.433   2.810
  832SOL     OW 2504   1.252   3.210   2.250
  832SOL    HW1 2505   1.302   3.287   2.290
  832SOL    HW2 2506   1.157   3.212   2.282
  833SOL     OW 2507   1.272   3.307   3.004
  833SOL    HW1 2508   1.319   3.320   3.091
  833SOL    HW2 2509   1.206   3.233   3.013
  834SOL     OW 2510   1.582   2.501   2.334
  834SOL    HW1 2511   1.551   2.562   2.407
  834SOL    HW2 2512   1.632   2.553   2.265
  835SOL     OW 2513   0.354   3.372   3.191
  835SOL    HW1 2514   0.333   3.328   3.104
  835SOL    HW2 2515   0.451   3.398   3.194
  836SOL     OW 2516   0.402   2.613   3.460
  836SOL    HW1 2517   0.470   2.668   3.413
  836SOL    HW2 2518   0.442   2.525   3.487
  837SOL     OW 2519   1.587   2.641   3.532
  837SOL    HW1 2520   1.495   2.679   3.527
  837SOL    HW2 2521   1.647   2.688   3.467
  838SOL     OW 2522   1.013   1.967   3.632
  838SOL    HW1 2523   1.019   2.052   3.580
  838SOL    HW2 2524   1.045   1.891   3.575
  839SOL     OW 2525   0.504   1.912   3.602
  839SOL    HW1 2526   0.462   1.855   3.532
  839SOL    HW2 2527   0.438   1.981   3.634
  840SOL     OW 2528   0.573   2.732   2.891
  840SOL    HW1 2529   0.617   2.821   2.882
  840SOL    HW2 2530   0.510   2.732   2.968
  841SOL     OW 2531   1.360   2.724   2.907
  841SOL    HW1 2532   1.285   2.724   2.841
  841SOL    HW2 2533   1.397   2.632   2.916
  842SOL     OW 2534   1.209   2.387   2.137
  842SOL    HW1 2535   1.222   2.303   2.191
  842SOL    HW2 2536   1.180   2.461   2.197
  843SOL     OW 2537   0.307   2.075   3.093
  843SOL    HW1 2538   0.284   2.112   3.183
  843SOL    HW2 2539   0.277   1.980   3.087
  844SOL     OW 2540   0.037   3.172   3.144
  844SOL    HW1 2541   0.090   3.123   3.212
  844SOL    HW2 2542   0.059   3.270   3.149
  845SOL     OW 2543   0.732   2.496   2.926
  845SOL    HW1 2544   0.791   2.470   2.850
  845SOL    HW2 2545   0.704   2.592   2.915
  846SOL     OW 2546   1.728   2.797   3.716
  846SOL    HW1 2547   1.682   2.790   3.627
  846SOL    HW2 2548   1.666   2.841   3.782
  847SOL     OW 2549   0.307   1.925   2.480
  847SOL    HW1 2550   0.296   2.019   2.513
  847SOL    HW2 2551   0.302   1.862   2.557
  848SOL     OW 2552   1.622   2.229   2.236
  848SOL    HW1 2553   1.624   2.153   2.300
  848SOL    HW2 2554   1.574   2.306   2.276
  849SOL     OW 2555   1.023   2.628   2.828
  849SOL    HW1 2556   1.038   2.649   2.924
  849SOL    HW2 2557   0.993   2.533   2.819
  850SOL     OW 2558   0.980   3.435   3.562
  850SOL    HW1 2559   0.960   3.479   3.474
  850SOL    HW2 2560   1.019   3.344   3.546
  851SOL     OW 2561   1.859   3.380   3.467
  851SOL    HW1 2562   1.873   3.407   3.372
  851SOL    HW2 2563   1.942   3.402   3.520
  852SOL     OW 2564   0.350   2.760   3.666
  852SOL    HW1 2565   0.426   2.804   3.714
  852SOL    HW2 2566   0.385   2.713   3.584
  853SOL     OW 2567   1.540   2.136   1.987
  853SOL    HW1 2568   1.479   2.061   2.010
  853SOL    HW2 2569   1.562   2.188   2.070
  854SOL     OW 2570   1.303   2.700   1.904
  854SOL    HW1 2571   1.337   2.607   1.919
  854SOL    HW2 2572   1.321   2.727   1.809
  855SOL     OW 2573   1.068   3.195   2.711
  855SOL    HW1 2574   1.075   3.111   2.656
  855SOL    HW2 2575   1.130   3.264   2.675
  856SOL     OW 2576   0.319   2.672   2.811
  856SOL    HW1 2577   0.412   2.708   2.816
  856SOL    HW2 2578   0.313   2.587   2.863
  857SOL     OW 2579   0.339   2.371   2.868
  857SOL    HW1 2580   0.287   2.288   2.851
  857SOL    HW2 2581   0.416   2.376   2.804
  858SOL     OW 2582   1.138   2.242   3.540
  858SOL    HW1 2583   1.093   2.305   3.604
  858SOL    HW2 2584   1.231   2.273   3.523
  859SOL     OW 2585   1.160   2.069   3.339
  859SOL    HW1 2586   1.160   2.133   3.416
  859SOL    HW2 2587   1.188   2.117   3.256
  860SOL     OW 2588   0.008   3.188   2.062
  860SOL    HW1 2589  -0.085   3.209   2.031
  860SOL    HW2 2590   0.018   3.089   2.075
  861SOL     OW 2591   0.088   3.663   2.789
  861SOL    HW1 2592   0.046   3.577   2.762
  861SOL    HW2 2593   0.182   3.666   2.755
  862SOL     OW 2594   0.504   3.430   2.772
  862SOL    HW1 2595   0.570   3.504   2.781
  862SOL    HW2 2596   0.548   3.351   2.730
  863SOL     OW 2597   1.002   2.658   3.100
  863SOL    HW1 2598   1.043   2.626   3.186
  863SOL    HW2 2599   0.906   2.631   3.097
  864SOL     OW 2600   0.040   2.406   2.976
  864SOL    HW1 2601   0.125   2.373   2.935
  864SOL    HW2 2602   0.053   2.421   3.074
  865SOL     OW 2603   0.189   2.382   3.584
  865SOL    HW1 2604   0.248   2.342   3.514
  865SOL    HW2 2605   0.131   2.453   3.543
  866SOL     OW 2606   1.369   2.812   3.522
  866SOL    HW1 2607   1.408   2.901   3.542
  866SOL    HW2 2608   1.379   2.792   3.425
  867SOL     OW 2609   0.815   2.434   2.187
  867SOL    HW1 2610   0.822   2.345   2.141
  867SOL    HW2 2611   0.721   2.468   2.179
  868SOL     OW 2612   1.657   2.466   3.068
  868SOL    HW1 2613   1.619   2.397   3.130
  868SOL    HW2 2614   1.739   2.430   3.024
  869SOL     OW 2615   0.252   3.426   3.606
  869SOL    HW1 2616   0.222   3.483   3.682
  869SOL    HW2 2617   0.245   3.329   3.632
  870SOL     OW 2618   0.671   2.326   3.131
  870SOL    HW1 2619   0.637   2.237   3.101
  870SOL    HW2 2620   0.697   2.380   3.051
  871SOL     OW 2621   0.930   3.540   3.327
  871SOL    HW1 2622   0.906   3.522   3.232
  871SOL    HW2 2623   0.960   3.634   3.337
  872SOL     OW 2624   0.473   2.362   2.053
  872SOL    HW1 2625   0.534   2.442   2.057
  872SOL    HW2 2626   0.378   2.393   2.060
  873SOL     OW 2627   0.159   2.999   3.328
  873SOL    HW1 2628   0.181   2.938   3.404
  873SOL    HW2 2629   0.169   2.950   3.242
  874SOL     OW 2630   1.347   2.921   3.096
  874SOL    HW1 2631   1.371   2.858   3.022
  874SOL    HW2 2632   1.257   2.961   3.078
  875SOL     OW 2633   1.302   2.717   2.171
  875SOL    HW1 2634   1.216   2.686   2.213
  875SOL    HW2 2635   1.298   2.703   2.072
  876SOL     OW 2636   1.759   3.609   3.016
  876SOL    HW1 2637   1.820   3.639   2.943
  876SOL    HW2 2638   1.721   3.520   2.994
  877SOL     OW 2639   1.252   3.593   2.990
  877SOL    HW1 2640   1.336   3.598   2.936
  877SOL    HW2 2641   1.229   3.497   3.008
  878SOL     OW 2642   0.083   3.120   2.884
  878SOL    HW1 2643   0.078   3.119   2.984
  878SOL    HW2 2644   0.000   3.079   2.846
  879SOL     OW 2645   0.688   3.524   3.578
  879SOL    HW1 2646   0.632   3.605   3.587
  879SOL    HW2 2647   0.740   3.528   3.492
  880SOL     OW 2648   1.726   1.997   2.385
  880SOL    HW1 2649   1.799   1.980   2.318
  880SOL    HW2 2650   1.695   1.910   2.423
  881SOL     OW 2651   1.388   3.435   2.339
  881SOL    HW1 2652   1.455   3.447   2.265
  881SOL    HW2 2653   1.348   3.524   2.362
  882SOL     OW 2654   0.130   3.656   3.713
  882SOL    HW1 2655   0.089   3.582   3.766
  882SOL    HW2 2656   0.194   3.707   3.771
  883SOL     OW 2657   1.280   2.789   2.534
  883SOL    HW1 2658   1.340   2.708   2.536
  883SOL    HW2 2659   1.320   2.858   2.474
  884SOL     OW 2660   0.830   3.135   3.284
  884SOL    HW1 2661   0.825   3.168   3.379
  884SOL    HW2 2662   0.744   3.154   3.238
  885SOL     OW 2663   0.672   3.478   2.016
  885SOL    HW1 2664   0.681   3.488   1.917
  885SOL    HW2 2665   0.632   3.389   2.037
  886SOL     OW 2666   1.650   3.582   3.256
  886SOL    HW1 2667   1.703   3.592   3.172
  886SOL    HW2 2668   1.623   3.672   3.290
  887SOL     OW 2669   1.841   2.037   2.825
  887SOL    HW1 2670   1.880   1.952   2.789
  887SOL    HW2 2671   1.743   2.039   2.806
  888SOL     OW 2672   0.263   2.188   2.582
  888SOL    HW1 2673   0.184   2.239   2.548
  888SOL    HW2 2674   0.254   2.173   2.680
  889SOL     OW 2675   1.194   3.474   1.893
  889SOL    HW1 2676   1.200   3.381   1.930
  889SOL    HW2 2677   1.135   3.474   1.813
  890SOL     OW 2678   0.822   2.864   3.234
  890SOL    HW1 2679   0.862   2.863   3.142
  890SOL    HW2 2680   0.832   2.956   3.274
  891SOL     OW 2681   0.916   2.772   2.153
  891SOL    HW1 2682   0.979   2.810   2.085
  891SOL    HW2 2683   0.956   2.689   2.192
  892SOL     OW 2684   1.504   3.469   1.906
  892SOL    HW1 2685   1.412   3.506   1.913
  892SOL    HW2 2686   1.542   3.489   1.816
  893SOL     OW 2687   0.372   3.150   3.352
  893SOL    HW1 2688   0.359   3.243   3.318
  893SOL    HW2 2689   0.288   3.098   3.339
  894SOL     OW 2690   1.614   3.154   3.151
  894SOL    HW1 2691   1.674   3.157   3.231
  894SOL    HW2 2692   1.539   3.218   3.164
  895SOL     OW 2693   1.039   2.960   2.558
  895SOL    HW1 2694   0.969   2.913   2.612
  895SOL    HW2 2695   1.098   2.892   2.515
  896SOL     OW 2696   1.014   2.098   2.833
  896SOL    HW1 2697   1.006   2.062   2.740
  896SOL    HW2 2698   1.012   2.022   2.898
  897SOL     OW 2699   0.590   3.349   2.353
  897SOL    HW1 2700   0.632   3.291   2.283
  897SOL    HW2 2701   0.546   3.428   2.309
  898SOL     OW 2702   1.709   2.247   3.243
  898SOL    HW1 2703   1.782   2.316   3.247
  898SOL    HW2 2704   1.737   2.172   3.184
  899SOL     OW 2705   0.255   3.210   2.152
  899SOL    HW1 2706   0.159   3.211   2.125
  899SOL    HW2 2707   0.267   3.263   2.236
  900SOL     OW 2708   0.105   2.875   3.588
  900SOL    HW1 2709   0.028   2.842   3.642
  900SOL    HW2 2710   0.190   2.845   3.630
  901SOL     OW 2711   0.672   2.065   3.351
  901SOL    HW1 2712   0.762   2.049   3.311
  901SOL    HW2 2713   0.680   2.070   3.450
  902SOL     OW 2714   0.075   2.207   1.895
  902SOL    HW1 2715  -0.017   2.179   1.866
  902SOL    HW2 2716   0.106   2.284   1.839
  903SOL     OW 2717   1.440   2.718   3.260
  903SOL    HW1 2718   1.383   2.770   3.197
  903SOL    HW2 2719   1.536   2.730   3.236
  904SOL     OW 2720   0.072   2.028   2.180
  904SOL    HW1 2721   0.055   2.111   2.126
  904SOL    HW2 2722   0.162   1.991   2.158
  905SOL     OW 2723   1.183   3.197   1.981
  905SOL    HW1 2724   1.084   3.186   1.983
  905SOL    HW2 2725   1.217   3.212   2.074
  906SOL     OW 2726   0.613   2.704   3.293
  906SOL    HW1 2727   0.669   2.785   3.276
  906SOL    HW2 2728   0.672   2.624   3.296
  907SOL     OW 2729   1.493   3.629   2.821
  907SOL    HW1 2730   1.526   3.693   2.752
  907SOL    HW2 2731   1.559   3.623   2.896
  908SOL     OW 2732   0.716   2.427   3.570
  908SOL    HW1 2733   0.735   2.492   3.644
  908SOL    HW2 2734   0.776   2.347   3.579
  909SOL     OW 2735   1.450   3.082   3.495
  909SOL    HW1 2736   1.441   3.072   3.594
  909SOL    HW2 2737   1.546   3.075   3.469
  910SOL     OW 2738   0.390   3.603   3.422
  910SOL    HW1 2739   0.299   3.644   3.420
  910SOL    HW2 2740   0.383   3.509   3.454
  911SOL     OW 2741   1.674   2.745   3.116
  911SOL    HW1 2742   1.647   2.656   3.079
  911SOL    HW2 2743   1.675   2.813   3.043
  912SOL     OW 2744   1.225   2.187   2.311
  912SOL    HW1 2745   1.290   2.113   2.300
  912SOL    HW2 2746   1.245   2.237   2.395
  913SOL     OW 2747   0.594   2.607   2.514
  913SOL    HW1 2748   0.644   2.692   2.495
  913SOL    HW2 2749   0.506   2.609   2.466
  914SOL     OW 2750   1.777   2.204   3.504
  914SOL    HW1 2751   1.760   2.235   3.410
  914SOL    HW2 2752   1.693   2.167   3.542
  915SOL     OW 2753   1.730   2.796   3.379
  915SOL    HW1 2754   1.768   2.887   3.394
  915SOL    HW2 2755   1.722   2.779   3.280
  916SOL     OW 2756   0.859   3.236   1.878
  916SOL    HW1 2757   0.813   3.251   1.966
  916SOL    HW2 2758   0.903   3.321   1.848
  917SOL     OW 2759   0.661   3.652   2.815
  917SOL    HW1 2760   0.615   3.740   2.802
  917SOL    HW2 2761   0.760   3.664   2.808
  918SOL     OW 2762   0.859   2.818   2.723
  918SOL    HW1 2763   0.913   2.749   2.771
  918SOL    HW2 2764   0.827   2.887   2.789
  919SOL     OW 2765   1.083   2.846   1.949
  919SOL    HW1 2766   1.060   2.899   1.867
  919SOL    HW2 2767   1.164   2.790   1.930
  920SOL     OW 2768   1.861   3.431   2.713
  920SOL    HW1 2769   1.790   3.419   2.643
  920SOL    HW2 2770   1.862   3.352   2.773
  921SOL     OW 2771   0.221   3.176   3.706
  921SOL    HW1 2772   0.156   3.103   3.685
  921SOL    HW2 2773   0.225   3.190   3.804
  922SOL     OW 2774   0.079   3.102   2.515
  922SOL    HW1 2775   0.078   3.055   2.603
  922SOL    HW2 2776   0.161   3.074   2.464
  923SOL     OW 2777   0.672   3.253   3.486
  923SOL    HW1 2778   0.594   3.203   3.524
  923SOL    HW2 2779   0.669   3.348   3.517
  924SOL     OW 2780   1.824   2.054   3.089
  924SOL    HW1 2781   1.820   1.964   3.133
  924SOL    HW2 2782   1.827   2.043   2.990
  925SOL     OW 2783   0.428   2.286   2.382
  925SOL    HW1 2784   0.458   2.214   2.320
  925SOL    HW2 2785   0.389   2.246   2.465
  926SOL     OW 2786   1.705   3.349   2.966
  926SOL    HW1 2787   1.612   3.324   2.939
  926SOL    HW2 2788   1.731   3.299   3.048
  927SOL     OW 2789   0.317   2.409   3.142
  927SOL    HW1 2790   0.355   2.350   3.214
  927SOL    HW2 2791   0.357   2.383   3.054
  928SOL     OW 2792   0.812   3.448   2.549
  928SOL    HW1 2793   0.844   3.458   2.455
  928SOL    HW2 2794   0.733   3.386   2.551
  929SOL     OW 2795   1.424   2.076   2.974
  929SOL    HW1 2796   1.476   2.011   3.029
  929SOL    HW2 2797   1.375   2.139   3.035
  930SOL     OW 2798   1.001   1.896   3.016
  930SOL    HW1 2799   0.938   1.824   2.985
  930SOL    HW2 2800   1.094   1.860   3.016
  931SOL     OW 2801   0.770   3.192   2.163
  931SOL    HW1 2802   0.724   3.105   2.180
  931SOL    HW2 2803   0.861   3.189   2.204
  932SOL     OW 2804   0.618   3.429   3.146
  932SOL    HW1 2805   0.613   3.511   3.203
  932SOL    HW2 2806   0.707   3.426   3.101
  933SOL     OW 2807   1.352   1.914   2.030
  933SOL    HW1 2808   1.387   1.873   1.946
  933SOL    HW2 2809   1.262   1.876   2.050
  934SOL     OW 2810   1.300   2.315   2.553
  934SOL    HW1 2811   1.241   2.395   2.557
  934SOL    HW2 2812   1.315   2.280   2.646
  935SOL     OW 2813   1.593   2.083   2.744
  935SOL    HW1 2814   1.509   2.082   2.798
  935SOL    HW2 2815   1.595   2.166   2.688
  936SOL     OW 2816   0.039   2.939   2.162
  936SOL    HW1 2817   0.138   2.928   2.153
  936SOL    HW2 2818  -0.001   2.853   2.194
  937SOL     OW 2819   0.875   3.508   2.199
  937SOL    HW1 2820   0.798   3.473   2.145
  937SOL    HW2 2821   0.843   3.579   2.261
  938SOL     OW 2822   0.230   2.490   3.837
  938SOL    HW1 2823   0.137   2.488   3.874
  938SOL    HW2 2824   0.231   2.451   3.745
  939SOL     OW 2825   0.019   2.230   4.371
  939SOL    HW1 2826  -0.063   2.273   4.410
  939SOL    HW2 2827  -0.009   2.157   4.308
  940SOL     OW 2828   1.755   2.469   3.955
  940SOL    HW1 2829   1.743   2.456   3.856
  940SOL    HW2 2830   1.725   2.388   4.004
  941SOL     OW 2831   0.685   2.874   4.389
  941SOL    HW1 2832   0.754   2.858   4.459
  941SOL    HW2 2833   0.612   2.931   4.427
  942SOL     OW 2834   1.603   2.309   4.461
  942SOL    HW1 2835   1.529   2.355   4.411
  942SOL    HW2 2836   1.654   2.377   4.514
  943SOL     OW 2837   0.231   3.575   4.207
  943SOL    HW1 2838   0.265   3.652   4.261
  943SOL    HW2 2839   0.275   3.575   4.117
  944SOL     OW 2840   0.230   3.296   4.262
  944SOL    HW1 2841   0.204   3.392   4.262
  944SOL    HW2 2842   0.159   3.242   4.307
  945SOL     OW 2843   0.606   2.826   3.847
  945SOL    HW1 2844   0.613   2.910   3.793
  945SOL    HW2 2845   0.652   2.839   3.935
  946SOL     OW 2846   0.122   2.505   4.287
  946SOL    HW1 2847   0.077   2.417   4.304
  946SOL    HW2 2848   0.121   2.559   4.371
  947SOL     OW 2849   1.842   3.629   4.083
  947SOL    HW1 2850   1.896   3.600   4.163
  947SOL    HW2 2851   1.872   3.719   4.054
  948SOL     OW 2852   0.027   3.458   3.841
  948SOL    HW1 2853   0.008   3.362   3.862
  948SOL    HW2 2854  -0.006   3.516   3.916
  949SOL     OW 2855   1.689   2.784   4.336
  949SOL    HW1 2856   1.784   2.755   4.344
  949SOL    HW2 2857   1.681   2.849   4.261
  950SOL     OW 2858   1.641   2.970   4.156
  950SOL    HW1 2859   1.727   2.972   4.104
  950SOL    HW2 2860   1.655   3.017   4.244
  951SOL     OW 2861   0.613   3.227   4.450
  951SOL    HW1 2862   0.564   3.140   4.459
  951SOL    HW2 2863   0.590   3.270   4.363
  952SOL     OW 2864   0.809   1.866   4.226
  952SOL    HW1 2865   0.849   1.957   4.217
  952SOL    HW2 2866   0.709   1.874   4.232
  953SOL     OW 2867   1.525   2.861   3.914
  953SOL    HW1 2868   1.462   2.785   3.927
  953SOL    HW2 2869   1.573   2.879   4.000
  954SOL     OW 2870   1.667   3.576   4.296
  954SOL    HW1 2871   1.626   3.553   4.208
  954SOL    HW2 2872   1.649   3.502   4.361
  955SOL     OW 2873   0.598   2.591   3.994
  955SOL    HW1 2874   0.622   2.660   3.926
  955SOL    HW2 2875   0.520   2.624   4.048
  956SOL     OW 2876   1.281   2.207   4.668
  956SOL    HW1 2877   1.195   2.157   4.655
  956SOL    HW2 2878   1.343   2.153   4.724
  957SOL     OW 2879   1.576   3.524   4.031
  957SOL    HW1 2880   1.665   3.570   4.034
  957SOL    HW2 2881   1.555   3.500   3.936
  958SOL     OW 2882   1.041   2.563   4.153
  958SOL    HW1 2883   1.067   2.559   4.249
  958SOL    HW2 2884   0.956   2.512   4.139
  959SOL     OW 2885   0.076   2.673   4.513
  959SOL    HW1 2886   0.175   2.661   4.522
  959SOL    HW2 2887   0.052   2.768   4.534
  960SOL     OW 2888   0.865   2.210   3.919
  960SOL    HW1 2889   0.924   2.273   3.870
  960SOL    HW2 2890   0.884   2.116   3.890
  961SOL     OW 2891   1.362   3.006   4.269
  961SOL    HW1 2892   1.445   2.977   4.221
  961SOL    HW2 2893   1.313   3.073   4.213
  962SOL     OW 2894   1.008   3.318   4.201
  962SOL    HW1 2895   0.962   3.390   4.149
  962SOL    HW2 2896   1.004   3.338   4.299
  963SOL     OW 2897   0.351   3.663   4.577
  963SOL    HW1 2898   0.401   3.577   4.583
  963SOL    HW2 2899   0.416   3.740   4.574
  964SOL     OW 2900   1.795   2.928   4.597
  964SOL    HW1 2901   1.733   2.913   4.521
  964SOL    HW2 2902   1.743   2.939   4.682
  965SOL     OW 2903   0.321   2.805   3.966
  965SOL    HW1 2904   0.403   2.844   3.924
  965SOL    HW2 2905   0.294   2.723   3.917
  966SOL     OW 2906   1.111   3.638   3.961
  966SOL    HW1 2907   1.051   3.576   4.011
  966SOL    HW2 2908   1.142   3.594   3.876
  967SOL     OW 2909   1.632   3.239   3.805
  967SOL    HW1 2910   1.600   3.333   3.795
  967SOL    HW2 2911   1.556   3.176   3.793
  968SOL     OW 2912   0.464   3.605   4.047
  968SOL    HW1 2913   0.497   3.644   4.133
  968SOL    HW2 2914   0.540   3.598   3.982
  969SOL     OW 2915   1.400   1.969   4.150
  969SOL    HW1 2916   1.376   1.932   4.060
  969SOL    HW2 2917   1.499   1.985   4.154
  970SOL     OW 2918   0.940   3.560   4.628
  970SOL    HW1 2919   1.020   3.503   4.649
  970SOL    HW2 2920   0.891   3.520   4.551
  971SOL     OW 2921   0.382   2.562   4.204
  971SOL    HW1 2922   0.427   2.472   4.201
  971SOL    HW2 2923   0.288   2.551   4.237
  972SOL     OW 2924   0.614   1.984   3.841
  972SOL    HW1 2925   0.712   1.962   3.848
  972SOL    HW2 2926   0.583   1.967   3.748
  973SOL     OW 2927   0.539   1.926   4.236
  973SOL    HW1 2928   0.458   1.927   4.294
  973SOL    HW2 2929   0.542   2.009   4.181
  974SOL     OW 2930   1.434   3.050   3.765
  974SOL    HW1 2931   1.466   2.974   3.822
  974SOL    HW2 2932   1.342   3.077   3.795
  975SOL     OW 2933   0.297   1.897   3.895
  975SOL    HW1 2934   0.346   1.981   3.874
  975SOL    HW2 2935   0.359   1.832   3.940
  976SOL     OW 2936   0.935   2.098   4.204
  976SOL    HW1 2937   0.887   2.139   4.126
  976SOL    HW2 2938   1.034   2.096   4.185
  977SOL     OW 2939   0.459   3.014   4.465
  977SOL    HW1 2940   0.388   2.987   4.530
  977SOL    HW2 2941   0.433   2.986   4.372
  978SOL     OW 2942   1.271   3.659   4.315
  978SOL    HW1 2943   1.315   3.723   4.251
  978SOL    HW2 2944   1.221   3.711   4.385
  979SOL     OW 2945   1.032   2.411   3.740
  979SOL    HW1 2946   0.991   2.493   3.701
  979SOL    HW2 2947   1.096   2.437   3.813
  980SOL     OW 2948   0.866   2.316   4.366
  980SOL    HW1 2949   0.834   2.388   4.304
  980SOL    HW2 2950   0.890   2.235   4.313
  981SOL     OW 2951   1.857   2.695   4.101
  981SOL    HW1 2952   1.899   2.631   4.165
  981SOL    HW2 2953   1.819   2.644   4.023
  982SOL     OW 2954   0.488   3.247   3.898
  982SOL    HW1 2955   0.401   3.232   3.945
  982SOL    HW2 2956   0.471   3.273   3.803
  983SOL     OW 2957   1.664   3.142   4.381
  983SOL    HW1 2958   1.763   3.150   4.395
  983SOL    HW2 2959   1.619   3.226   4.412
  984SOL     OW 2960   1.390   2.437   3.802
  984SOL    HW1 2961   1.336   2.416   3.883
  984SOL    HW2 2962   1.481   2.396   3.811
  985SOL     OW 2963   0.527   2.118   4.052
  985SOL    HW1 2964   0.554   2.059   3.977
  985SOL    HW2 2965   0.527   2.213   4.021
  986SOL     OW 2966   1.111   3.057   4.824
  986SOL    HW1 2967   1.071   3.101   4.905
  986SOL    HW2 2968   1.070   3.094   4.741
  987SOL     OW 2969   0.705   2.912   4.092
  987SOL    HW1 2970   0.691   2.919   4.191
  987SOL    HW2 2971   0.789   2.861   4.074
  988SOL     OW 2972   0.367   2.962   4.225
  988SOL    HW1 2973   0.360   3.045   4.169
  988SOL    HW2 2974   0.371   2.882   4.165
  989SOL     OW 2975   1.252   3.210   4.112
  989SOL    HW1 2976   1.302   3.287   4.152
  989SOL    HW2 2977   1.157   3.212   4.144
  990SOL     OW 2978   1.582   2.501   4.196
  990SOL    HW1 2979   1.551   2.562   4.269
  990SOL    HW2 2980   1.632   2.553   4.127
  991SOL     OW 2981   1.209   2.387   3.999
  991SOL    HW1 2982   1.222   2.303   4.053
  991SOL    HW2 2983   1.180   2.461   4.059
  992SOL     OW 2984   0.307   1.925   4.342
  992SOL    HW1 2985   0.296   2.019   4.375
  992SOL    HW2 2986   0.302   1.862   4.419
  993SOL     OW 2987   1.622   2.229   4.098
  993SOL    HW1 2988   1.624   2.153   4.162
  993SOL    HW2 2989   1.574   2.306   4.138
  994SOL     OW 2990   1.540   2.136   3.849
  994SOL    HW1 2991   1.479   2.061   3.872
  994SOL    HW2 2992   1.562   2.188   3.932
  995SOL     OW 2993   1.303   2.700   3.766
  995SOL    HW1 2994   1.337   2.607   3.781
  995SOL    HW2 2995   1.321   2.727   3.671
  996SOL     OW 2996   0.008   3.188   3.924
  996SOL    HW1 2997  -0.085   3.209   3.893
  996SOL    HW2 2998   0.018   3.089   3.937
  997SOL     OW 2999   0.815   2.434   4.049
  997SOL    HW1 3000   0.822   2.345   4.003
  997SOL    HW2 3001   0.721   2.468   4.041
  998SOL     OW 3002   0.473   2.362   3.915
  998SOL    HW1 3003   0.534   2.442   3.919
  998SOL    HW2 3004   0.378   2.393   3.922
  999SOL     OW 3005   1.302   2.717   4.033
  999SOL    HW1 3006   1.216   2.686   4.075
  999SOL    HW2 3007   1.298   2.703   3.934
 1000SOL     OW 3008   1.726   1.997   4.247
 1000SOL    HW1 3009   1.799   1.980   4.180
 1000SOL    HW2 3010   1.695   1.910   4.285
 1001SOL     OW 3011   1.388   3.435   4.201
 1001SOL    HW1 3012   1.455   3.447   4.127
 1001SOL    HW2 3013   1.348   3.524   4.224
 1002SOL     OW 3014   0.672   3.478   3.878
 1002SOL    HW1 3015   0.681   3.488   3.779
 1002SOL    HW2 3016   0.632   3.389   3.899
 1003SOL     OW 3017   1.841   2.037   4.687
 1003SOL    HW1 3018   1.880   1.952   4.651
 1003SOL    HW2 3019   1.743   2.039   4.668
 1004SOL     OW 3020   1.194   3.474   3.755
 1004SOL    HW1 3021   1.200   3.381   3.792
 1004SOL    HW2 3022   1.135   3.474   3.675
 1005SOL     OW 3023   0.916   2.772   4.015
 1005SOL    HW1 3024   0.979   2.810   3.947
 1005SOL    HW2 3025   0.956   2.689   4.054
 1006SOL     OW 3026   1.504   3.469   3.768
 1006SOL    HW1 3027   1.412   3.506   3.775
 1006SOL    HW2 3028   1.542   3.489   3.678
 1007SOL     OW 3029   0.590   3.349   4.215
 1007SOL    HW1 3030   0.632   3.291   4.145
 1007SOL    HW2 3031   0.546   3.428   4.171
 1008SOL     OW 3032   0.255   3.210   4.014
 1008SOL    HW1 3033   0.159   3.211   3.987
 1008SOL    HW2 3034   0.267   3.263   4.098
 1009SOL     OW 3035   0.075   2.207   3.757
 1009SOL    HW1 3036  -0.017   2.179   3.728
 1009SOL    HW2 3037   0.106   2.284   3.701
 1010SOL     OW 3038   0.072   2.028   4.042
 1010SOL    HW1 3039   0.055   2.111   3.988
 1010SOL    HW2 3040   0.162   1.991   4.020
 1011SOL     OW 3041   1.183   3.197   3.843
 1011SOL    HW1 3042   1.084   3.186   3.845
 1011SOL    HW2 3043   1.217   3.212   3.936
 1012SOL     OW 3044   1.225   2.187   4.173
 1012SOL    HW1 3045   1.290   2.113   4.162
 1012SOL    HW2 3046   1.245   2.237   4.257
 1013SOL     OW 3047   0.594   2.607   4.376
 1013SOL    HW1 3048   0.644   2.692   4.357
 1013SOL    HW2 3049   0.506   2.609   4.328
 1014SOL     OW 3050   0.859   3.236   3.740
 1014SOL    HW1 3051   0.813   3.251   3.828
 1014SOL    HW2 3052   0.903   3.321   3.710
 1015SOL     OW 3053   0.661   3.652   4.677
 1015SOL    HW1 3054   0.615   3.740   4.664
 1015SOL    HW2 3055   0.760   3.664   4.670
 1016SOL     OW 3056   0.859   2.818   4.585
 1016SOL    HW1 3057   0.913   2.749   4.633
 1016SOL    HW2 3058   0.827   2.887   4.651
 1017SOL     OW 3059   1.083   2.846   3.811
 1017SOL    HW1 3060   1.060   2.899   3.729
 1017SOL    HW2 3061   1.164   2.790   3.792
 1018SOL     OW 3062   0.079   3.102   4.377
 1018SOL    HW1 3063   0.078   3.055   4.465
 1018SOL    HW2 3064   0.161   3.074   4.326
 1019SOL     OW 3065   0.428   2.286   4.244
 1019SOL    HW1 3066   0.458   2.214   4.182
 1019SOL    HW2 3067   0.389   2.246   4.327
 1020SOL     OW 3068   0.812   3.448   4.411
 1020SOL    HW1 3069   0.844   3.458   4.317
 1020SOL    HW2 3070   0.733   3.386   4.413
 1021SOL     OW 3071   0.770   3.192   4.025
 1021SOL    HW1 3072   0.724   3.105   4.042
 1021SOL    HW2 3073   0.861   3.189   4.066
 1022SOL     OW 3074   1.352   1.914   3.892
 1022SOL    HW1 3075   1.387   1.873   3.808
 1022SOL    HW2 3076   1.262   1.876   3.912
 1023SOL     OW 3077   1.300   2.315   4.415
 1023SOL    HW1 3078   1.241   2.395   4.419
 1023SOL    HW2 3079   1.315   2.280   4.508
 1024SOL     OW 3080   0.039   2.939   4.024
 1024SOL    HW1 3081   0.138   2.928   4.015
 1024SOL    HW2 3082  -0.001   2.853   4.056
 1025SOL     OW 3083   0.875   3.508   4.061
 1025SOL    HW1 3084   0.798   3.473   4.007
 1025SOL    HW2 3085   0.843   3.579   4.123
 1026SOL     OW 3086   0.230   4.352   0.113
 1026SOL    HW1 3087   0.137   4.350   0.150
 1026SOL    HW2 3088   0.231   4.313   0.021
 1027SOL     OW 3089   0.225   3.999   0.996
 1027SOL    HW1 3090   0.260   3.982   1.088
 1027SOL    HW2 3091   0.137   3.954   0.984
 1028SOL     OW 3092   0.019   4.092   0.647
 1028SOL    HW1 3093  -0.063   4.135   0.686
 1028SOL    HW2 3094  -0.009   4.019   0.584
 1029SOL     OW 3095   1.755   4.331   0.231
 1029SOL    HW1 3096   1.743   4.318   0.132
 1029SOL    HW2 3097   1.725   4.250   0.280
 1030SOL     OW 3098   0.850   4.522   1.823
 1030SOL    HW1 3099   0.846   4.598   1.888
 1030SOL    HW2 3100   0.872   4.558   1.732
 1031SOL     OW 3101   0.685   4.736   0.665
 1031SOL    HW1 3102   0.754   4.720   0.735
 1031SOL    HW2 3103   0.612   4.793   0.703
 1032SOL     OW 3104   0.438   4.116   1.499
 1032SOL    HW1 3105   0.520   4.060   1.508
 1032SOL    HW2 3106   0.357   4.058   1.503
 1033SOL     OW 3107   1.603   4.171   0.737
 1033SOL    HW1 3108   1.529   4.217   0.687
 1033SOL    HW2 3109   1.654   4.239   0.790
 1034SOL     OW 3110   1.594   3.838   1.480
 1034SOL    HW1 3111   1.576   3.905   1.408
 1034SOL    HW2 3112   1.591   3.884   1.569
 1035SOL     OW 3113   0.122   4.367   0.563
 1035SOL    HW1 3114   0.077   4.279   0.580
 1035SOL    HW2 3115   0.121   4.421   0.647
 1036SOL     OW 3116   0.113   4.461   1.597
 1036SOL    HW1 3117   0.201   4.448   1.642
 1036SOL    HW2 3118   0.100   4.558   1.575
 1037SOL     OW 3119   0.809   3.728   0.502
 1037SOL    HW1 3120   0.849   3.819   0.493
 1037SOL    HW2 3121   0.709   3.736   0.508
 1038SOL     OW 3122   0.317   3.975   1.801
 1038SOL    HW1 3123   0.388   4.046   1.807
 1038SOL    HW2 3124   0.229   4.014   1.829
 1039SOL     OW 3125   1.281   4.069   0.944
 1039SOL    HW1 3126   1.195   4.019   0.931
 1039SOL    HW2 3127   1.343   4.015   1.000
 1040SOL     OW 3128   0.807   4.329   1.465
 1040SOL    HW1 3129   0.760   4.326   1.554
 1040SOL    HW2 3130   0.756   4.274   1.399
 1041SOL     OW 3131   1.394   4.193   1.674
 1041SOL    HW1 3132   1.374   4.236   1.762
 1041SOL    HW2 3133   1.472   4.131   1.683
 1042SOL     OW 3134   0.991   4.134   1.242
 1042SOL    HW1 3135   0.914   4.168   1.296
 1042SOL    HW2 3136   0.957   4.083   1.163
 1043SOL     OW 3137   1.041   4.425   0.429
 1043SOL    HW1 3138   1.067   4.421   0.525
 1043SOL    HW2 3139   0.956   4.374   0.415
 1044SOL     OW 3140   0.076   4.535   0.789
 1044SOL    HW1 3141   0.175   4.523   0.798
 1044SOL    HW2 3142   0.052   4.630   0.810
 1045SOL     OW 3143   0.865   4.072   0.195
 1045SOL    HW1 3144   0.924   4.135   0.146
 1045SOL    HW2 3145   0.884   3.978   0.166
 1046SOL     OW 3146   1.719   4.309   1.831
 1046SOL    HW1 3147   1.693   4.398   1.795
 1046SOL    HW2 3148   1.717   4.241   1.758
 1047SOL     OW 3149   0.550   3.920   0.885
 1047SOL    HW1 3150   0.545   3.915   0.985
 1047SOL    HW2 3151   0.552   4.016   0.856
 1048SOL     OW 3152   1.458   4.459   0.728
 1048SOL    HW1 3153   1.453   4.394   0.803
 1048SOL    HW2 3154   1.538   4.518   0.741
 1049SOL     OW 3155   0.202   4.009   1.498
 1049SOL    HW1 3156   0.122   4.069   1.485
 1049SOL    HW2 3157   0.192   3.960   1.584
 1050SOL     OW 3158   1.400   3.831   0.426
 1050SOL    HW1 3159   1.376   3.794   0.336
 1050SOL    HW2 3160   1.499   3.847   0.430
 1051SOL     OW 3161   0.382   4.424   0.480
 1051SOL    HW1 3162   0.427   4.334   0.477
 1051SOL    HW2 3163   0.288   4.413   0.513
 1052SOL     OW 3164   1.547   3.946   1.729
 1052SOL    HW1 3165   1.542   3.983   1.821
 1052SOL    HW2 3166   1.475   3.877   1.717
 1053SOL     OW 3167   0.781   3.988   1.749
 1053SOL    HW1 3168   0.848   3.927   1.792
 1053SOL    HW2 3169   0.708   4.007   1.814
 1054SOL     OW 3170   1.351   4.314   1.433
 1054SOL    HW1 3171   1.379   4.271   1.518
 1054SOL    HW2 3172   1.376   4.410   1.434
 1055SOL     OW 3173   0.922   4.227   0.899
 1055SOL    HW1 3174   0.897   4.218   0.803
 1055SOL    HW2 3175   0.970   4.145   0.930
 1056SOL     OW 3176   0.539   3.788   0.512
 1056SOL    HW1 3177   0.458   3.789   0.570
 1056SOL    HW2 3178   0.542   3.871   0.457
 1057SOL     OW 3179   0.935   3.960   0.480
 1057SOL    HW1 3180   0.887   4.001   0.402
 1057SOL    HW2 3181   1.034   3.958   0.461
 1058SOL     OW 3182   1.076   4.407   1.464
 1058SOL    HW1 3183   0.996   4.346   1.467
 1058SOL    HW2 3184   1.157   4.354   1.440
 1059SOL     OW 3185   1.032   4.273   0.016
 1059SOL    HW1 3186   0.991   4.355  -0.023
 1059SOL    HW2 3187   1.096   4.299   0.089
 1060SOL     OW 3188   0.078   4.280   1.386
 1060SOL    HW1 3189   0.170   4.279   1.345
 1060SOL    HW2 3190   0.072   4.354   1.453
 1061SOL     OW 3191   0.561   3.946   1.147
 1061SOL    HW1 3192   0.599   3.862   1.184
 1061SOL    HW2 3193   0.473   3.965   1.191
 1062SOL     OW 3194   0.866   4.178   0.642
 1062SOL    HW1 3195   0.834   4.250   0.580
 1062SOL    HW2 3196   0.890   4.097   0.589
 1063SOL     OW 3197   1.017   3.763   0.753
 1063SOL    HW1 3198   0.945   3.768   0.684
 1063SOL    HW2 3199   0.993   3.694   0.822
 1064SOL     OW 3200   1.466   4.314   0.992
 1064SOL    HW1 3201   1.436   4.219   0.999
 1064SOL    HW2 3202   1.539   4.330   1.058
 1065SOL     OW 3203   1.390   4.299   0.078
 1065SOL    HW1 3204   1.336   4.278   0.159
 1065SOL    HW2 3205   1.481   4.258   0.087
 1066SOL     OW 3206   0.527   3.980   0.328
 1066SOL    HW1 3207   0.554   3.921   0.253
 1066SOL    HW2 3208   0.527   4.075   0.297
 1067SOL     OW 3209   0.915   3.813   1.402
 1067SOL    HW1 3210   0.940   3.793   1.307
 1067SOL    HW2 3211   0.987   3.869   1.444
 1068SOL     OW 3212   0.410   4.537   1.251
 1068SOL    HW1 3213   0.496   4.549   1.301
 1068SOL    HW2 3214   0.368   4.450   1.278
 1069SOL     OW 3215   1.274   4.110   1.262
 1069SOL    HW1 3216   1.295   4.184   1.326
 1069SOL    HW2 3217   1.185   4.127   1.219
 1070SOL     OW 3218   0.566   4.261   0.865
 1070SOL    HW1 3219   0.578   4.327   0.791
 1070SOL    HW2 3220   0.612   4.295   0.948
 1071SOL     OW 3221   1.582   4.363   0.472
 1071SOL    HW1 3222   1.551   4.424   0.545
 1071SOL    HW2 3223   1.632   4.415   0.403
 1072SOL     OW 3224   1.587   4.503   1.670
 1072SOL    HW1 3225   1.495   4.541   1.665
 1072SOL    HW2 3226   1.647   4.550   1.605
 1073SOL     OW 3227   1.013   3.829   1.770
 1073SOL    HW1 3228   1.019   3.914   1.718
 1073SOL    HW2 3229   1.045   3.753   1.713
 1074SOL     OW 3230   0.504   3.774   1.740
 1074SOL    HW1 3231   0.462   3.717   1.670
 1074SOL    HW2 3232   0.438   3.843   1.772
 1075SOL     OW 3233   1.209   4.249   0.275
 1075SOL    HW1 3234   1.222   4.165   0.329
 1075SOL    HW2 3235   1.180   4.323   0.335
 1076SOL     OW 3236   0.307   3.937   1.231
 1076SOL    HW1 3237   0.284   3.974   1.321
 1076SOL    HW2 3238   0.277   3.842   1.225
 1077SOL     OW 3239   0.732   4.358   1.064
 1077SOL    HW1 3240   0.791   4.332   0.988
 1077SOL    HW2 3241   0.704   4.454   1.053
 1078SOL     OW 3242   1.728   4.659   1.854
 1078SOL    HW1 3243   1.682   4.652   1.765
 1078SOL    HW2 3244   1.666   4.703   1.920
 1079SOL     OW 3245   0.307   3.787   0.618
 1079SOL    HW1 3246   0.296   3.881   0.651
 1079SOL    HW2 3247   0.302   3.724   0.695
 1080SOL     OW 3248   1.622   4.091   0.374
 1080SOL    HW1 3249   1.624   4.015   0.438
 1080SOL    HW2 3250   1.574   4.168   0.414
 1081SOL     OW 3251   1.540   3.998   0.125
 1081SOL    HW1 3252   1.479   3.923   0.148
 1081SOL    HW2 3253   1.562   4.050   0.208
 1082SOL     OW 3254   0.319   4.534   0.949
 1082SOL    HW1 3255   0.412   4.570   0.954
 1082SOL    HW2 3256   0.313   4.449   1.001
 1083SOL     OW 3257   0.339   4.233   1.006
 1083SOL    HW1 3258   0.287   4.150   0.989
 1083SOL    HW2 3259   0.416   4.238   0.942
 1084SOL     OW 3260   1.138   4.104   1.678
 1084SOL    HW1 3261   1.093   4.167   1.742
 1084SOL    HW2 3262   1.231   4.135   1.661
 1085SOL     OW 3263   1.160   3.931   1.477
 1085SOL    HW1 3264   1.160   3.995   1.554
 1085SOL    HW2 3265   1.188   3.979   1.394
 1086SOL     OW 3266   0.040   4.268   1.114
 1086SOL    HW1 3267   0.125   4.235   1.073
 1086SOL    HW2 3268   0.053   4.283   1.212
 1087SOL     OW 3269   0.189   4.244   1.722
 1087SOL    HW1 3270   0.248   4.204   1.652
 1087SOL    HW2 3271   0.131   4.315   1.681
 1088SOL     OW 3272   0.815   4.296   0.325
 1088SOL    HW1 3273   0.822   4.207   0.279
 1088SOL    HW2 3274   0.721   4.330   0.317
 1089SOL     OW 3275   1.657   4.328   1.206
 1089SOL    HW1 3276   1.619   4.259   1.268
 1089SOL    HW2 3277   1.739   4.292   1.162
 1090SOL     OW 3278   0.671   4.188   1.269
 1090SOL    HW1 3279   0.637   4.099   1.239
 1090SOL    HW2 3280   0.697   4.242   1.189
 1091SOL     OW 3281   0.473   4.224   0.191
 1091SOL    HW1 3282   0.534   4.304   0.195
 1091SOL    HW2 3283   0.378   4.255   0.198
 1092SOL     OW 3284   0.903   3.810   0.133
 1092SOL    HW1 3285   0.954   3.811   0.047
 1092SOL    HW2 3286   0.959   3.768   0.204
 1093SOL     OW 3287   1.726   3.859   0.523
 1093SOL    HW1 3288   1.799   3.842   0.456
 1093SOL    HW2 3289   1.695   3.772   0.561
 1094SOL     OW 3290   1.280   4.651   0.672
 1094SOL    HW1 3291   1.340   4.570   0.674
 1094SOL    HW2 3292   1.320   4.720   0.612
 1095SOL     OW 3293   1.841   3.899   0.963
 1095SOL    HW1 3294   1.880   3.814   0.927
 1095SOL    HW2 3295   1.743   3.901   0.944
 1096SOL     OW 3296   0.263   4.050   0.720
 1096SOL    HW1 3297   0.184   4.101   0.686
 1096SOL    HW2 3298   0.254   4.035   0.818
 1097SOL     OW 3299   1.039   4.822   0.696
 1097SOL    HW1 3300   0.969   4.775   0.750
 1097SOL    HW2 3301   1.098   4.754   0.653
 1098SOL     OW 3302   1.014   3.960   0.971
 1098SOL    HW1 3303   1.006   3.924   0.878
 1098SOL    HW2 3304   1.012   3.884   1.036
 1099SOL     OW 3305   1.709   4.109   1.381
 1099SOL    HW1 3306   1.782   4.178   1.385
 1099SOL    HW2 3307   1.737   4.034   1.322
 1100SOL     OW 3308   0.672   3.927   1.489
 1100SOL    HW1 3309   0.762   3.911   1.449
 1100SOL    HW2 3310   0.680   3.932   1.588
 1101SOL     OW 3311   0.075   4.069   0.033
 1101SOL    HW1 3312  -0.017   4.041   0.004
 1101SOL    HW2 3313   0.106   4.146  -0.023
 1102SOL     OW 3314   0.072   3.890   0.318
 1102SOL    HW1 3315   0.055   3.973   0.264
 1102SOL    HW2 3316   0.162   3.853   0.296
 1103SOL     OW 3317   0.716   4.289   1.708
 1103SOL    HW1 3318   0.735   4.354   1.782
 1103SOL    HW2 3319   0.776   4.209   1.717
 1104SOL     OW 3320   1.225   4.049   0.449
 1104SOL    HW1 3321   1.290   3.975   0.438
 1104SOL    HW2 3322   1.245   4.099   0.533
 1105SOL     OW 3323   1.777   4.066   1.642
 1105SOL    HW1 3324   1.760   4.097   1.548
 1105SOL    HW2 3325   1.693   4.029   1.680
 1106SOL     OW 3326   1.083   4.708   0.087
 1106SOL    HW1 3327   1.060   4.761   0.005
 1106SOL    HW2 3328   1.164   4.652   0.068
 1107SOL     OW 3329   1.824   3.916   1.227
 1107SOL    HW1 3330   1.820   3.826   1.271
 1107SOL    HW2 3331   1.827   3.905   1.128
 1108SOL     OW 3332   0.428   4.148   0.520
 1108SOL    HW1 3333   0.458   4.076   0.458
 1108SOL    HW2 3334   0.389   4.108   0.603
 1109SOL     OW 3335   0.317   4.271   1.280
 1109SOL    HW1 3336   0.355   4.212   1.352
 1109SOL    HW2 3337   0.357   4.245   1.192
 1110SOL     OW 3338   1.424   3.938   1.112
 1110SOL    HW1 3339   1.476   3.873   1.167
 1110SOL    HW2 3340   1.375   4.001   1.173
 1111SOL     OW 3341   1.001   3.758   1.154
 1111SOL    HW1 3342   0.938   3.686   1.123
 1111SOL    HW2 3343   1.094   3.722   1.154
 1112SOL     OW 3344   1.352   3.776   0.168
 1112SOL    HW1 3345   1.387   3.735   0.084
 1112SOL    HW2 3346   1.262   3.738   0.188
 1113SOL     OW 3347   1.300   4.177   0.691
 1113SOL    HW1 3348   1.241   4.257   0.695
 1113SOL    HW2 3349   1.315   4.142   0.784
 1114SOL     OW 3350   1.593   3.945   0.882
 1114SOL    HW1 3351   1.509   3.944   0.936
 1114SOL    HW2 3352   1.595   4.028   0.826
 1115SOL     OW 3353   0.230   4.352   1.975
 1115SOL    HW1 3354   0.137   4.350   2.012
 1115SOL    HW2 3355   0.231   4.313   1.883
 1116SOL     OW 3356   0.225   3.999   2.858
 1116SOL    HW1 3357   0.260   3.982   2.950
 1116SOL    HW2 3358   0.137   3.954   2.846
 1117SOL     OW 3359   0.019   4.092   2.509
 1117SOL    HW1 3360  -0.063   4.135   2.548
 1117SOL    HW2 3361  -0.009   4.019   2.446
 1118SOL     OW 3362   1.755   4.331   2.093
 1118SOL    HW1 3363   1.743   4.318   1.994
 1118SOL    HW2 3364   1.725   4.250   2.142
 1119SOL     OW 3365   0.850   4.522   3.685
 1119SOL    HW1 3366   0.846   4.598   3.750
 1119SOL    HW2 3367   0.872   4.558   3.594
 1120SOL     OW 3368   0.685   4.736   2.527
 1120SOL    HW1 3369   0.754   4.720   2.597
 1120SOL    HW2 3370   0.612   4.793   2.565
 1121SOL     OW 3371   0.438   4.116   3.361
 1121SOL    HW1 3372   0.520   4.060   3.370
 1121SOL    HW2 3373   0.357   4.058   3.365
 1122SOL     OW 3374   1.603   4.171   2.599
 1122SOL    HW1 3375   1.529   4.217   2.549
 1122SOL    HW2 3376   1.654   4.239   2.652
 1123SOL     OW 3377   1.594   3.838   3.342
 1123SOL    HW1 3378   1.576   3.905   3.270
 1123SOL    HW2 3379   1.591   3.884   3.431
 1124SOL     OW 3380   0.122   4.367   2.425
 1124SOL    HW1 3381   0.077   4.279   2.442
 1124SOL    HW2 3382   0.121   4.421   2.509
 1125SOL     OW 3383   0.113   4.461   3.459
 1125SOL    HW1 3384   0.201   4.448   3.504
 1125SOL    HW2 3385   0.100   4.558   3.437
 1126SOL     OW 3386   0.809   3.728   2.364
 1126SOL    HW1 3387   0.849   3.819   2.355
 1126SOL    HW2 3388   0.709   3.736   2.370
 1127SOL     OW 3389   0.317   3.975   3.663
 1127SOL    HW1 3390   0.388   4.046   3.669
 1127SOL    HW2 3391   0.229   4.014   3.691
 1128SOL     OW 3392   1.281   4.069   2.806
 1128SOL    HW1 3393   1.195   4.019   2.793
 1128SOL    HW2 3394   1.343   4.015   2.862
 1129SOL     OW 3395   0.807   4.329   3.327
 1129SOL    HW1 3396   0.760   4.326   3.416
 1129SOL    HW2 3397   0.756   4.274   3.261
 1130SOL     OW 3398   1.394   4.193   3.536
 1130SOL    HW1 3399   1.374   4.236   3.624
 1130SOL    HW2 3400   1.472   4.131   3.545
 1131SOL     OW 3401   0.991   4.134   3.104
 1131SOL    HW1 3402   0.914   4.168   3.158
 1131SOL    HW2 3403   0.957   4.083   3.025
 1132SOL     OW 3404   1.041   4.425   2.291
 1132SOL    HW1 3405   1.067   4.421   2.387
 1132SOL    HW2 3406   0.956   4.374   2.277
 1133SOL     OW 3407   0.076   4.535   2.651
 1133SOL    HW1 3408   0.175   4.523   2.660
 1133SOL    HW2 3409   0.052   4.630   2.672
 1134SOL     OW 3410   0.865   4.072   2.057
 1134SOL    HW1 3411   0.924   4.135   2.008
 1134SOL    HW2 3412   0.884   3.978   2.028
 1135SOL     OW 3413   1.719   4.309   3.693
 1135SOL    HW1 3414   1.693   4.398   3.657
 1135SOL    HW2 3415   1.717   4.241   3.620
 1136SOL     OW 3416   0.550   3.920   2.747
 1136SOL    HW1 3417   0.545   3.915   2.847
 1136SOL    HW2 3418   0.552   4.016   2.718
 1137SOL     OW 3419   1.458   4.459   2.590
 1137SOL    HW1 3420   1.453   4.394   2.665
 1137SOL    HW2 3421   1.538   4.518   2.603
 1138SOL     OW 3422   0.202   4.009   3.360
 1138SOL    HW1 3423   0.122   4.069   3.347
 1138SOL    HW2 3424   0.192   3.960   3.446
 1139SOL     OW 3425   1.400   3.831   2.288
 1139SOL    HW1 3426   1.376   3.794   2.198
 1139SOL    HW2 3427   1.499   3.847   2.292
 1140SOL     OW 3428   0.382   4.424   2.342
 1140SOL    HW1 3429   0.427   4.334   2.339
 1140SOL    HW2 3430   0.288   4.413   2.375
 1141SOL     OW 3431   1.547   3.946   3.591
 1141SOL    HW1 3432   1.542   3.983   3.683
 1141SOL    HW2 3433   1.475   3.877   3.579
 1142SOL     OW 3434   0.614   3.846   1.979
 1142SOL    HW1 3435   0.712   3.824   1.986
 1142SOL    HW2 3436   0.583   3.829   1.886
 1143SOL     OW 3437   0.781   3.988   3.611
 1143SOL    HW1 3438   0.848   3.927   3.654
 1143SOL    HW2 3439   0.708   4.007   3.676
 1144SOL     OW 3440   1.351   4.314   3.295
 1144SOL    HW1 3441   1.379   4.271   3.380
 1144SOL    HW2 3442   1.376   4.410   3.296
 1145SOL     OW 3443   0.922   4.227   2.761
 1145SOL    HW1 3444   0.897   4.218   2.665
 1145SOL    HW2 3445   0.970   4.145   2.792
 1146SOL     OW 3446   0.539   3.788   2.374
 1146SOL    HW1 3447   0.458   3.789   2.432
 1146SOL    HW2 3448   0.542   3.871   2.319
 1147SOL     OW 3449   0.297   3.759   2.033
 1147SOL    HW1 3450   0.346   3.843   2.012
 1147SOL    HW2 3451   0.359   3.694   2.078
 1148SOL     OW 3452   0.935   3.960   2.342
 1148SOL    HW1 3453   0.887   4.001   2.264
 1148SOL    HW2 3454   1.034   3.958   2.323
 1149SOL     OW 3455   1.076   4.407   3.326
 1149SOL    HW1 3456   0.996   4.346   3.329
 1149SOL    HW2 3457   1.157   4.354   3.302
 1150SOL     OW 3458   1.032   4.273   1.878
 1150SOL    HW1 3459   0.991   4.355   1.839
 1150SOL    HW2 3460   1.096   4.299   1.951
 1151SOL     OW 3461   0.078   4.280   3.248
 1151SOL    HW1 3462   0.170   4.279   3.207
 1151SOL    HW2 3463   0.072   4.354   3.315
 1152SOL     OW 3464   0.561   3.946   3.009
 1152SOL    HW1 3465   0.599   3.862   3.046
 1152SOL    HW2 3466   0.473   3.965   3.053
 1153SOL     OW 3467   0.866   4.178   2.504
 1153SOL    HW1 3468   0.834   4.250   2.442
 1153SOL    HW2 3469   0.890   4.097   2.451
 1154SOL     OW 3470   1.017   3.763   2.615
 1154SOL    HW1 3471   0.945   3.768   2.546
 1154SOL    HW2 3472   0.993   3.694   2.684
 1155SOL     OW 3473   1.466   4.314   2.854
 1155SOL    HW1 3474   1.436   4.219   2.861
 1155SOL    HW2 3475   1.539   4.330   2.920
 1156SOL     OW 3476   1.390   4.299   1.940
 1156SOL    HW1 3477   1.336   4.278   2.021
 1156SOL    HW2 3478   1.481   4.258   1.949
 1157SOL     OW 3479   0.527   3.980   2.190
 1157SOL    HW1 3480   0.554   3.921   2.115
 1157SOL    HW2 3481   0.527   4.075   2.159
 1158SOL     OW 3482   0.915   3.813   3.264
 1158SOL    HW1 3483   0.940   3.793   3.169
 1158SOL    HW2 3484   0.987   3.869   3.306
 1159SOL     OW 3485   0.410   4.537   3.113
 1159SOL    HW1 3486   0.496   4.549   3.163
 1159SOL    HW2 3487   0.368   4.450   3.140
 1160SOL     OW 3488   1.274   4.110   3.124
 1160SOL    HW1 3489   1.295   4.184   3.188
 1160SOL    HW2 3490   1.185   4.127   3.081
 1161SOL     OW 3491   0.566   4.261   2.727
 1161SOL    HW1 3492   0.578   4.327   2.653
 1161SOL    HW2 3493   0.612   4.295   2.810
 1162SOL     OW 3494   1.582   4.363   2.334
 1162SOL    HW1 3495   1.551   4.424   2.407
 1162SOL    HW2 3496   1.632   4.415   2.265
 1163SOL     OW 3497   1.587   4.503   3.532
 1163SOL    HW1 3498   1.495   4.541   3.527
 1163SOL    HW2 3499   1.647   4.550   3.467
 1164SOL     OW 3500   1.013   3.829   3.632
 1164SOL    HW1 3501   1.019   3.914   3.580
 1164SOL    HW2 3502   1.045   3.753   3.575
 1165SOL     OW 3503   0.504   3.774   3.602
 1165SOL    HW1 3504   0.462   3.717   3.532
 1165SOL    HW2 3505   0.438   3.843   3.634
 1166SOL     OW 3506   1.209   4.249   2.137
 1166SOL    HW1 3507   1.222   4.165   2.191
 1166SOL    HW2 3508   1.180   4.323   2.197
 1167SOL     OW 3509   0.307   3.937   3.093
 1167SOL    HW1 3510   0.284   3.974   3.183
 1167SOL    HW2 3511   0.277   3.842   3.087
 1168SOL     OW 3512   0.732   4.358   2.926
 1168SOL    HW1 3513   0.791   4.332   2.850
 1168SOL    HW2 3514   0.704   4.454   2.915
 1169SOL     OW 3515   1.728   4.659   3.716
 1169SOL    HW1 3516   1.682   4.652   3.627
 1169SOL    HW2 3517   1.666   4.703   3.782
 1170SOL     OW 3518   0.307   3.787   2.480
 1170SOL    HW1 3519   0.296   3.881   2.513
 1170SOL    HW2 3520   0.302   3.724   2.557
 1171SOL     OW 3521   1.622   4.091   2.236
 1171SOL    HW1 3522   1.624   4.015   2.300
 1171SOL    HW2 3523   1.574   4.168   2.276
 1172SOL     OW 3524   1.540   3.998   1.987
 1172SOL    HW1 3525   1.479   3.923   2.010
 1172SOL    HW2 3526   1.562   4.050   2.070
 1173SOL     OW 3527   0.319   4.534   2.811
 1173SOL    HW1 3528   0.412   4.570   2.816
 1173SOL    HW2 3529   0.313   4.449   2.863
 1174SOL     OW 3530   0.339   4.233   2.868
 1174SOL    HW1 3531   0.287   4.150   2.851
 1174SOL    HW2 3532   0.416   4.238   2.804
 1175SOL     OW 3533   1.138   4.104   3.540
 1175SOL    HW1 3534   1.093   4.167   3.604
 1175SOL    HW2 3535   1.231   4.135   3.523
 1176SOL     OW 3536   1.160   3.931   3.339
 1176SOL    HW1 3537   1.160   3.995   3.416
 1176SOL    HW2 3538   1.188   3.979   3.256
 1177SOL     OW 3539   0.040   4.268   2.976
 1177SOL    HW1 3540   0.125   4.235   2.935
 1177SOL    HW2 3541   0.053   4.283   3.074
 1178SOL     OW 3542   0.189   4.244   3.584
 1178SOL    HW1 3543   0.248   4.204   3.514
 1178SOL    HW2 3544   0.131   4.315   3.543
 1179SOL     OW 3545   0.815   4.296   2.187
 1179SOL    HW1 3546   0.822   4.207   2.141
 1179SOL    HW2 3547   0.721   4.330   2.179
 1180SOL     OW 3548   1.657   4.328   3.068
 1180SOL    HW1 3549   1.619   4.259   3.130
 1180SOL    HW2 3550   1.739   4.292   3.024
 1181SOL     OW 3551   0.671   4.188   3.131
 1181SOL    HW1 3552   0.637   4.099   3.101
 1181SOL    HW2 3553   0.697   4.242   3.051
 1182SOL     OW 3554   0.473   4.224   2.053
 1182SOL    HW1 3555   0.534   4.304   2.057
 1182SOL    HW2 3556   0.378   4.255   2.060
 1183SOL     OW 3557   1.726   3.859   2.385
 1183SOL    HW1 3558   1.799   3.842   2.318
 1183SOL    HW2 3559   1.695   3.772   2.423
 1184SOL     OW 3560   1.280   4.651   2.534
 1184SOL    HW1 3561   1.340   4.570   2.536
 1184SOL    HW2 3562   1.320   4.720   2.474
 1185SOL     OW 3563   1.841   3.899   2.825
 1185SOL    HW1 3564   1.880   3.814   2.789
 1185SOL    HW2 3565   1.743   3.901   2.806
 1186SOL     OW 3566   0.263   4.050   2.582
 1186SOL    HW1 3567   0.184   4.101   2.548
 1186SOL    HW2 3568   0.254   4.035   2.680
 1187SOL     OW 3569   0.916   4.634   2.153
 1187SOL    HW1 3570   0.979   4.672   2.085
 1187SOL    HW2 3571   0.956   4.551   2.192
 1188SOL     OW 3572   1.039   4.822   2.558
 1188SOL    HW1 3573   0.969   4.775   2.612
 1188SOL    HW2 3574   1.098   4.754   2.515
 1189SOL     OW 3575   1.014   3.960   2.833
 1189SOL    HW1 3576   1.006   3.924   2.740
 1189SOL    HW2 3577   1.012   3.884   2.898
 1190SOL     OW 3578   1.709   4.109   3.243
 1190SOL    HW1 3579   1.782   4.178   3.247
 1190SOL    HW2 3580   1.737   4.034   3.184
 1191SOL     OW 3581   0.672   3.927   3.351
 1191SOL    HW1 3582   0.762   3.911   3.311
 1191SOL    HW2 3583   0.680   3.932   3.450
 1192SOL     OW 3584   0.075   4.069   1.895
 1192SOL    HW1 3585  -0.017   4.041   1.866
 1192SOL    HW2 3586   0.106   4.146   1.839
 1193SOL     OW 3587   0.072   3.890   2.180
 1193SOL    HW1 3588   0.055   3.973   2.126
 1193SOL    HW2 3589   0.162   3.853   2.158
 1194SOL     OW 3590   0.716   4.289   3.570
 1194SOL    HW1 3591   0.735   4.354   3.644
 1194SOL    HW2 3592   0.776   4.209   3.579
 1195SOL     OW 3593   1.225   4.049   2.311
 1195SOL    HW1 3594   1.290   3.975   2.300
 1195SOL    HW2 3595   1.245   4.099   2.395
 1196SOL     OW 3596   1.777   4.066   3.504
 1196SOL    HW1 3597   1.760   4.097   3.410
 1196SOL    HW2 3598   1.693   4.029   3.542
 1197SOL     OW 3599   1.083   4.708   1.949
 1197SOL    HW1 3600   1.060   4.761   1.867
 1197SOL    HW2 3601   1.164   4.652   1.930
 1198SOL     OW 3602   1.824   3.916   3.089
 1198SOL    HW1 3603   1.820   3.826   3.133
 1198SOL    HW2 3604   1.827   3.905   2.990
 1199SOL     OW 3605   0.428   4.148   2.382
 1199SOL    HW1 3606   0.458   4.076   2.320
 1199SOL    HW2 3607   0.389   4.108   2.465
 1200SOL     OW 3608   0.317   4.271   3.142
 1200SOL    HW1 3609   0.355   4.212   3.214
 1200SOL    HW2 3610   0.357   4.245   3.054
 1201SOL     OW 3611   1.424   3.938   2.974
 1201SOL    HW1 3612   1.476   3.873   3.029
 1201SOL    HW2 3613   1.375   4.001   3.035
 1202SOL     OW 3614   1.001   3.758   3.016
 1202SOL    HW1 3615   0.938   3.686   2.985
 1202SOL    HW2 3616   1.094   3.722   3.016
 1203SOL     OW 3617   1.352   3.776   2.030
 1203SOL    HW1 3618   1.387   3.735   1.946
 1203SOL    HW2 3619   1.262   3.738   2.050
 1204SOL     OW 3620   1.300   4.177   2.553
 1204SOL    HW1 3621   1.241   4.257   2.557
 1204SOL    HW2 3622   1.315   4.142   2.646
 1205SOL     OW 3623   1.593   3.945   2.744
 1205SOL    HW1 3624   1.509   3.944   2.798
 1205SOL    HW2 3625   1.595   4.028   2.688
 1206SOL     OW 3626   0.230   4.352   3.837
 1206SOL    HW1 3627   0.137   4.350   3.874
 1206SOL    HW2 3628   0.231   4.313   3.745
 1207SOL     OW 3629   0.019   4.092   4.371
 1207SOL    HW1 3630  -0.063   4.135   4.410
 1207SOL    HW2 3631  -0.009   4.019   4.308
 1208SOL     OW 3632   1.755   4.331   3.955
 1208SOL    HW1 3633   1.743   4.318   3.856
 1208SOL    HW2 3634   1.725   4.250   4.004
 1209SOL     OW 3635   0.685   4.736   4.389
 1209SOL    HW1 3636   0.754   4.720   4.459
 1209SOL    HW2 3637   0.612   4.793   4.427
 1210SOL     OW 3638   1.603   4.171   4.461
 1210SOL    HW1 3639   1.529   4.217   4.411
 1210SOL    HW2 3640   1.654   4.239   4.514
 1211SOL     OW 3641   0.122   4.367   4.287
 1211SOL    HW1 3642   0.077   4.279   4.304
 1211SOL    HW2 3643   0.121   4.421   4.371
 1212SOL     OW 3644   0.809   3.728   4.226
 1212SOL    HW1 3645   0.849   3.819   4.217
 1212SOL    HW2 3646   0.709   3.736   4.232
 1213SOL     OW 3647   1.281   4.069   4.668
 1213SOL    HW1 3648   1.195   4.019   4.655
 1213SOL    HW2 3649   1.343   4.015   4.724
 1214SOL     OW 3650   1.041   4.425   4.153
 1214SOL    HW1 3651   1.067   4.421   4.249
 1214SOL    HW2 3652   0.956   4.374   4.139
 1215SOL     OW 3653   0.076   4.535   4.513
 1215SOL    HW1 3654   0.175   4.523   4.522
 1215SOL    HW2 3655   0.052   4.630   4.534
 1216SOL     OW 3656   0.865   4.072   3.919
 1216SOL    HW1 3657   0.924   4.135   3.870
 1216SOL    HW2 3658   0.884   3.978   3.890
 1217SOL     OW 3659   1.400   3.831   4.150
 1217SOL    HW1 3660   1.376   3.794   4.060
 1217SOL    HW2 3661   1.499   3.847   4.154
 1218SOL     OW 3662   0.382   4.424   4.204
 1218SOL    HW1 3663   0.427   4.334   4.201
 1218SOL    HW2 3664   0.288   4.413   4.237
 1219SOL     OW 3665   0.614   3.846   3.841
 1219SOL    HW1 3666   0.712   3.824   3.848
 1219SOL    HW2 3667   0.583   3.829   3.748
 1220SOL     OW 3668   0.539   3.788   4.236
 1220SOL    HW1 3669   0.458   3.789   4.294
 1220SOL    HW2 3670   0.542   3.871   4.181
 1221SOL     OW 3671   0.297   3.759   3.895
 1221SOL    HW1 3672   0.346   3.843   3.874
 1221SOL    HW2 3673   0.359   3.694   3.940
 1222SOL     OW 3674   0.935   3.960   4.204
 1222SOL    HW1 3675   0.887   4.001   4.126
 1222SOL    HW2 3676   1.034   3.958   4.185
 1223SOL     OW 3677   1.032   4.273   3.740
 1223SOL    HW1 3678   0.991   4.355   3.701
 1223SOL    HW2 3679   1.096   4.299   3.813
 1224SOL     OW 3680   0.866   4.178   4.366
 1224SOL    HW1 3681   0.834   4.250   4.304
 1224SOL    HW2 3682   0.890   4.097   4.313
 1225SOL     OW 3683   1.390   4.299   3.802
 1225SOL    HW1 3684   1.336   4.278   3.883
 1225SOL    HW2 3685   1.481   4.258   3.811
 1226SOL     OW 3686   0.527   3.980   4.052
 1226SOL    HW1 3687   0.554   3.921   3.977
 1226SOL    HW2 3688   0.527   4.075   4.021
 1227SOL     OW 3689   1.582   4.363   4.196
 1227SOL    HW1 3690   1.551   4.424   4.269
 1227SOL    HW2 3691   1.632   4.415   4.127
 1228SOL     OW 3692   1.209   4.249   3.999
 1228SOL    HW1 3693   1.222   4.165   4.053
 1228SOL    HW2 3694   1.180   4.323   4.059
 1229SOL     OW 3695   0.307   3.787   4.342
 1229SOL    HW1 3696   0.296   3.881   4.375
 1229SOL    HW2 3697   0.302   3.724   4.419
 1230SOL     OW 3698   1.622   4.091   4.098
 1230SOL    HW1 3699   1.624   4.015   4.162
 1230SOL    HW2 3700   1.574   4.168   4.138
 1231SOL     OW 3701   1.540   3.998   3.849
 1231SOL    HW1 3702   1.479   3.923   3.872
 1231SOL    HW2 3703   1.562   4.050   3.932
 1232SOL     OW 3704   0.815   4.296   4.049
 1232SOL    HW1 3705   0.822   4.207   4.003
 1232SOL    HW2 3706   0.721   4.330   4.041
 1233SOL     OW 3707   0.473   4.224   3.915
 1233SOL    HW1 3708   0.534   4.304   3.919
 1233SOL    HW2 3709   0.378   4.255   3.922
 1234SOL     OW 3710   1.726   3.859   4.247
 1234SOL    HW1 3711   1.799   3.842   4.180
 1234SOL    HW2 3712   1.695   3.772   4.285
 1235SOL     OW 3713   1.280   4.651   4.396
 1235SOL    HW1 3714   1.340   4.570   4.398
 1235SOL    HW2 3715   1.320   4.720   4.336
 1236SOL     OW 3716   1.841   3.899   4.687
 1236SOL    HW1 3717   1.880   3.814   4.651
 1236SOL    HW2 3718   1.743   3.901   4.668
 1237SOL     OW 3719   0.916   4.634   4.015
 1237SOL    HW1 3720   0.979   4.672   3.947
 1237SOL    HW2 3721   0.956   4.551   4.054
 1238SOL     OW 3722   0.075   4.069   3.757
 1238SOL    HW1 3723  -0.017   4.041   3.728
 1238SOL    HW2 3724   0.106   4.146   3.701
 1239SOL     OW 3725   0.072   3.890   4.042
 1239SOL    HW1 3726   0.055   3.973   3.988
 1239SOL    HW2 3727   0.162   3.853   4.020
 1240SOL     OW 3728   1.225   4.049   4.173
 1240SOL    HW1 3729   1.290   3.975   4.162
 1240SOL    HW2 3730   1.245   4.099   4.257
 1241SOL     OW 3731   1.083   4.708   3.811
 1241SOL    HW1 3732   1.060   4.761   3.729
 1241SOL    HW2 3733   1.164   4.652   3.792
 1242SOL     OW 3734   0.428   4.148   4.244
 1242SOL    HW1 3735   0.458   4.076   4.182
 1242SOL    HW2 3736   0.389   4.108   4.327
 1243SOL     OW 3737   1.352   3.776   3.892
 1243SOL    HW1 3738   1.387   3.735   3.808
 1243SOL    HW2 3739   1.262   3.738   3.912
 1244SOL     OW 3740   1.300   4.177   4.415
 1244SOL    HW1 3741   1.241   4.257   4.419
 1244SOL    HW2 3742   1.315   4.142   4.508
 1245SOL     OW 3743   2.092   0.628   0.113
 1245SOL    HW1 3744   1.999   0.626   0.150
 1245SOL    HW2 3745   2.093   0.589   0.021
 1246SOL     OW 3746   2.087   0.275   0.996
 1246SOL    HW1 3747   2.122   0.258   1.088
 1246SOL    HW2 3748   1.999   0.230   0.984
 1247SOL     OW 3749   1.881   0.368   0.647
 1247SOL    HW1 3750   1.799   0.411   0.686
 1247SOL    HW2 3751   1.853   0.295   0.584
 1248SOL     OW 3752   2.431   1.275   1.165
 1248SOL    HW1 3753   2.338   1.268   1.128
 1248SOL    HW2 3754   2.442   1.364   1.209
 1249SOL     OW 3755   3.417   1.511   0.703
 1249SOL    HW1 3756   3.360   1.495   0.784
 1249SOL    HW2 3757   3.358   1.521   0.623
 1250SOL     OW 3758   2.997   0.703   0.717
 1250SOL    HW1 3759   3.054   0.781   0.692
 1250SOL    HW2 3760   2.937   0.729   0.793
 1251SOL     OW 3761   3.617   0.607   0.231
 1251SOL    HW1 3762   3.605   0.594   0.132
 1251SOL    HW2 3763   3.587   0.526   0.280
 1252SOL     OW 3764   2.630   1.144   1.023
 1252SOL    HW1 3765   2.552   1.161   1.083
 1252SOL    HW2 3766   2.664   1.231   0.987
 1253SOL     OW 3767   2.712   0.798   1.823
 1253SOL    HW1 3768   2.708   0.874   1.888
 1253SOL    HW2 3769   2.734   0.834   1.732
 1254SOL     OW 3770   2.547   1.012   0.665
 1254SOL    HW1 3771   2.616   0.996   0.735
 1254SOL    HW2 3772   2.474   1.069   0.703
 1255SOL     OW 3773   2.548   1.161   1.803
 1255SOL    HW1 3774   2.608   1.240   1.817
 1255SOL    HW2 3775   2.462   1.192   1.762
 1256SOL     OW 3776   2.197   1.435   1.061
 1256SOL    HW1 3777   2.119   1.404   1.008
 1256SOL    HW2 3778   2.255   1.493   1.004
 1257SOL     OW 3779   3.322   1.505   1.339
 1257SOL    HW1 3780   3.346   1.599   1.365
 1257SOL    HW2 3781   3.306   1.451   1.421
 1258SOL     OW 3782   2.300   0.392   1.499
 1258SOL    HW1 3783   2.382   0.336   1.508
 1258SOL    HW2 3784   2.219   0.334   1.503
 1259SOL     OW 3785   3.465   0.447   0.737
 1259SOL    HW1 3786   3.391   0.493   0.687
 1259SOL    HW2 3787   3.516   0.515   0.790
 1260SOL     OW 3788   2.093   1.713   0.483
 1260SOL    HW1 3789   2.127   1.790   0.537
 1260SOL    HW2 3790   2.137   1.713   0.393
 1261SOL     OW 3791   2.989   1.341   1.690
 1261SOL    HW1 3792   3.036   1.341   1.778
 1261SOL    HW2 3793   2.941   1.254   1.679
 1262SOL     OW 3794   2.092   1.434   0.538
 1262SOL    HW1 3795   2.066   1.530   0.538
 1262SOL    HW2 3796   2.021   1.380   0.583
 1263SOL     OW 3797   2.102   1.091   0.886
 1263SOL    HW1 3798   2.116   1.007   0.938
 1263SOL    HW2 3799   2.047   1.155   0.941
 1264SOL     OW 3800   2.482   1.786   1.439
 1264SOL    HW1 3801   2.390   1.769   1.474
 1264SOL    HW2 3802   2.510   1.878   1.465
 1265SOL     OW 3803   2.468   0.964   0.123
 1265SOL    HW1 3804   2.475   1.048   0.069
 1265SOL    HW2 3805   2.514   0.977   0.211
 1266SOL     OW 3806   3.456   0.114   1.480
 1266SOL    HW1 3807   3.438   0.181   1.408
 1266SOL    HW2 3808   3.453   0.160   1.569
 1267SOL     OW 3809   1.984   0.643   0.563
 1267SOL    HW1 3810   1.939   0.555   0.580
 1267SOL    HW2 3811   1.983   0.697   0.647
 1268SOL     OW 3812   3.704   1.767   0.359
 1268SOL    HW1 3813   3.758   1.738   0.439
 1268SOL    HW2 3814   3.734   1.857   0.330
 1269SOL     OW 3815   1.889   1.596   0.117
 1269SOL    HW1 3816   1.870   1.500   0.138
 1269SOL    HW2 3817   1.856   1.654   0.192
 1270SOL     OW 3818   3.551   0.922   0.612
 1270SOL    HW1 3819   3.646   0.893   0.620
 1270SOL    HW2 3820   3.543   0.987   0.537
 1271SOL     OW 3821   3.503   1.108   0.432
 1271SOL    HW1 3822   3.589   1.110   0.380
 1271SOL    HW2 3823   3.517   1.155   0.520
 1272SOL     OW 3824   1.975   0.737   1.597
 1272SOL    HW1 3825   2.063   0.724   1.642
 1272SOL    HW2 3826   1.962   0.834   1.575
 1273SOL     OW 3827   2.475   1.365   0.726
 1273SOL    HW1 3828   2.426   1.278   0.735
 1273SOL    HW2 3829   2.452   1.408   0.639
 1274SOL     OW 3830   3.155   1.228   1.423
 1274SOL    HW1 3831   3.192   1.155   1.365
 1274SOL    HW2 3832   3.207   1.233   1.508
 1275SOL     OW 3833   2.671   0.004   0.502
 1275SOL    HW1 3834   2.711   0.095   0.493
 1275SOL    HW2 3835   2.571   0.012   0.508
 1276SOL     OW 3836   2.059   0.976   1.264
 1276SOL    HW1 3837   2.148   0.931   1.250
 1276SOL    HW2 3838   1.986   0.911   1.245
 1277SOL     OW 3839   3.387   0.999   0.190
 1277SOL    HW1 3840   3.324   0.923   0.203
 1277SOL    HW2 3841   3.435   1.017   0.276
 1278SOL     OW 3842   3.049   1.792   1.616
 1278SOL    HW1 3843   3.073   1.852   1.540
 1278SOL    HW2 3844   3.056   1.697   1.586
 1279SOL     OW 3845   2.179   0.251   1.801
 1279SOL    HW1 3846   2.250   0.322   1.807
 1279SOL    HW2 3847   2.091   0.290   1.829
 1280SOL     OW 3848   3.328   1.417   0.953
 1280SOL    HW1 3849   3.269   1.423   1.033
 1280SOL    HW2 3850   3.313   1.329   0.907
 1281SOL     OW 3851   3.529   1.714   0.572
 1281SOL    HW1 3852   3.488   1.691   0.484
 1281SOL    HW2 3853   3.511   1.640   0.637
 1282SOL     OW 3854   2.460   0.729   0.270
 1282SOL    HW1 3855   2.484   0.798   0.202
 1282SOL    HW2 3856   2.382   0.762   0.324
 1283SOL     OW 3857   3.143   0.345   0.944
 1283SOL    HW1 3858   3.057   0.295   0.931
 1283SOL    HW2 3859   3.205   0.291   1.000
 1284SOL     OW 3860   3.438   1.662   0.307
 1284SOL    HW1 3861   3.527   1.708   0.310
 1284SOL    HW2 3862   3.417   1.638   0.212
 1285SOL     OW 3863   2.669   0.605   1.465
 1285SOL    HW1 3864   2.622   0.602   1.554
 1285SOL    HW2 3865   2.618   0.550   1.399
 1286SOL     OW 3866   3.256   0.469   1.674
 1286SOL    HW1 3867   3.236   0.512   1.762
 1286SOL    HW2 3868   3.334   0.407   1.683
 1287SOL     OW 3869   2.835   0.890   1.572
 1287SOL    HW1 3870   2.881   0.806   1.543
 1287SOL    HW2 3871   2.779   0.924   1.497
 1288SOL     OW 3872   2.853   0.410   1.242
 1288SOL    HW1 3873   2.776   0.444   1.296
 1288SOL    HW2 3874   2.819   0.359   1.163
 1289SOL     OW 3875   2.903   0.701   0.429
 1289SOL    HW1 3876   2.929   0.697   0.525
 1289SOL    HW2 3877   2.818   0.650   0.415
 1290SOL     OW 3878   1.938   0.811   0.789
 1290SOL    HW1 3879   2.037   0.799   0.798
 1290SOL    HW2 3880   1.914   0.906   0.810
 1291SOL     OW 3881   1.992   1.821   1.571
 1291SOL    HW1 3882   1.982   1.806   1.670
 1291SOL    HW2 3883   1.906   1.857   1.535
 1292SOL     OW 3884   2.727   0.348   0.195
 1292SOL    HW1 3885   2.786   0.411   0.146
 1292SOL    HW2 3886   2.746   0.254   0.166
 1293SOL     OW 3887   3.581   0.585   1.831
 1293SOL    HW1 3888   3.555   0.674   1.795
 1293SOL    HW2 3889   3.579   0.517   1.758
 1294SOL     OW 3890   3.224   1.144   0.545
 1294SOL    HW1 3891   3.307   1.115   0.497
 1294SOL    HW2 3892   3.175   1.211   0.489
 1295SOL     OW 3893   2.412   0.196   0.885
 1295SOL    HW1 3894   2.407   0.191   0.985
 1295SOL    HW2 3895   2.414   0.292   0.856
 1296SOL     OW 3896   2.870   1.456   0.477
 1296SOL    HW1 3897   2.824   1.528   0.425
 1296SOL    HW2 3898   2.866   1.476   0.575
 1297SOL     OW 3899   2.213   1.801   0.853
 1297SOL    HW1 3900   2.263   1.715   0.859
 1297SOL    HW2 3901   2.278   1.878   0.850
 1298SOL     OW 3902   3.657   1.066   0.873
 1298SOL    HW1 3903   3.595   1.051   0.797
 1298SOL    HW2 3904   3.605   1.077   0.958
 1299SOL     OW 3905   3.089   1.550   1.506
 1299SOL    HW1 3906   3.095   1.473   1.570
 1299SOL    HW2 3907   3.037   1.524   1.426
 1300SOL     OW 3908   2.183   0.943   0.242
 1300SOL    HW1 3909   2.265   0.982   0.200
 1300SOL    HW2 3910   2.156   0.861   0.193
 1301SOL     OW 3911   3.320   0.735   0.728
 1301SOL    HW1 3912   3.315   0.670   0.803
 1301SOL    HW2 3913   3.400   0.794   0.741
 1302SOL     OW 3914   2.323   1.266   1.727
 1302SOL    HW1 3915   2.273   1.267   1.641
 1302SOL    HW2 3916   2.260   1.248   1.803
 1303SOL     OW 3917   2.973   1.776   0.237
 1303SOL    HW1 3918   2.913   1.714   0.287
 1303SOL    HW2 3919   3.004   1.732   0.152
 1304SOL     OW 3920   2.064   0.285   1.498
 1304SOL    HW1 3921   1.984   0.345   1.485
 1304SOL    HW2 3922   2.054   0.236   1.584
 1305SOL     OW 3923   3.494   1.377   0.081
 1305SOL    HW1 3924   3.462   1.471   0.071
 1305SOL    HW2 3925   3.418   1.314   0.069
 1306SOL     OW 3926   2.326   1.743   0.323
 1306SOL    HW1 3927   2.359   1.782   0.409
 1306SOL    HW2 3928   2.402   1.736   0.258
 1307SOL     OW 3929   3.262   0.107   0.426
 1307SOL    HW1 3930   3.238   0.070   0.336
 1307SOL    HW2 3931   3.361   0.123   0.430
 1308SOL     OW 3932   2.111   1.785   1.241
 1308SOL    HW1 3933   2.168   1.720   1.291
 1308SOL    HW2 3934   2.095   1.752   1.148
 1309SOL     OW 3935   2.802   1.698   0.904
 1309SOL    HW1 3936   2.882   1.641   0.925
 1309SOL    HW2 3937   2.753   1.658   0.827
 1310SOL     OW 3938   2.244   0.700   0.480
 1310SOL    HW1 3939   2.289   0.610   0.477
 1310SOL    HW2 3940   2.150   0.689   0.513
 1311SOL     OW 3941   3.409   0.222   1.729
 1311SOL    HW1 3942   3.404   0.259   1.821
 1311SOL    HW2 3943   3.337   0.153   1.717
 1312SOL     OW 3944   2.476   0.122   0.117
 1312SOL    HW1 3945   2.574   0.100   0.124
 1312SOL    HW2 3946   2.445   0.105   0.024
 1313SOL     OW 3947   2.643   0.264   1.749
 1313SOL    HW1 3948   2.710   0.203   1.792
 1313SOL    HW2 3949   2.570   0.283   1.814
 1314SOL     OW 3950   2.750   1.514   1.195
 1314SOL    HW1 3951   2.727   1.489   1.101
 1314SOL    HW2 3952   2.811   1.445   1.234
 1315SOL     OW 3953   3.213   0.590   1.433
 1315SOL    HW1 3954   3.241   0.547   1.518
 1315SOL    HW2 3955   3.238   0.686   1.434
 1316SOL     OW 3956   2.665   1.402   0.924
 1316SOL    HW1 3957   2.755   1.416   0.882
 1316SOL    HW2 3958   2.594   1.404   0.853
 1317SOL     OW 3959   2.784   0.503   0.899
 1317SOL    HW1 3960   2.759   0.494   0.803
 1317SOL    HW2 3961   2.832   0.421   0.930
 1318SOL     OW 3962   2.401   0.064   0.512
 1318SOL    HW1 3963   2.320   0.065   0.570
 1318SOL    HW2 3964   2.404   0.147   0.457
 1319SOL     OW 3965   3.296   1.188   0.041
 1319SOL    HW1 3966   3.328   1.112   0.098
 1319SOL    HW2 3967   3.204   1.215   0.071
 1320SOL     OW 3968   2.159   0.035   0.171
 1320SOL    HW1 3969   2.208   0.119   0.150
 1320SOL    HW2 3970   2.221  -0.030   0.216
 1321SOL     OW 3971   2.797   0.236   0.480
 1321SOL    HW1 3972   2.749   0.277   0.402
 1321SOL    HW2 3973   2.896   0.234   0.461
 1322SOL     OW 3974   2.938   0.683   1.464
 1322SOL    HW1 3975   2.858   0.622   1.467
 1322SOL    HW2 3976   3.019   0.630   1.440
 1323SOL     OW 3977   3.089   1.570   0.793
 1323SOL    HW1 3978   3.110   1.644   0.728
 1323SOL    HW2 3979   3.157   1.570   0.866
 1324SOL     OW 3980   2.321   1.152   0.741
 1324SOL    HW1 3981   2.250   1.125   0.806
 1324SOL    HW2 3982   2.295   1.124   0.648
 1325SOL     OW 3983   3.133   1.797   0.591
 1325SOL    HW1 3984   3.177   1.861   0.527
 1325SOL    HW2 3985   3.083   1.849   0.661
 1326SOL     OW 3986   2.894   0.549   0.016
 1326SOL    HW1 3987   2.853   0.631  -0.023
 1326SOL    HW2 3988   2.958   0.575   0.089
 1327SOL     OW 3989   1.940   0.556   1.386
 1327SOL    HW1 3990   2.032   0.555   1.345
 1327SOL    HW2 3991   1.934   0.630   1.453
 1328SOL     OW 3992   2.423   0.222   1.147
 1328SOL    HW1 3993   2.461   0.138   1.184
 1328SOL    HW2 3994   2.335   0.241   1.191
 1329SOL     OW 3995   2.728   0.454   0.642
 1329SOL    HW1 3996   2.696   0.526   0.580
 1329SOL    HW2 3997   2.752   0.373   0.589
 1330SOL     OW 3998   2.879   0.039   0.753
 1330SOL    HW1 3999   2.807   0.044   0.684
 1330SOL    HW2 4000   2.855  -0.030   0.822
 1331SOL     OW 4001   3.291   1.173   0.867
 1331SOL    HW1 4002   3.236   1.089   0.860
 1331SOL    HW2 4003   3.317   1.202   0.775
 1332SOL     OW 4004   3.328   0.590   0.992
 1332SOL    HW1 4005   3.298   0.495   0.999
 1332SOL    HW2 4006   3.401   0.606   1.058
 1333SOL     OW 4007   3.719   0.833   0.377
 1333SOL    HW1 4008   3.761   0.769   0.441
 1333SOL    HW2 4009   3.681   0.782   0.299
 1334SOL     OW 4010   2.350   1.385   0.174
 1334SOL    HW1 4011   2.263   1.370   0.221
 1334SOL    HW2 4012   2.333   1.411   0.079
 1335SOL     OW 4013   3.526   1.280   0.657
 1335SOL    HW1 4014   3.625   1.288   0.671
 1335SOL    HW2 4015   3.481   1.364   0.688
 1336SOL     OW 4016   3.252   0.575   0.078
 1336SOL    HW1 4017   3.198   0.554   0.159
 1336SOL    HW2 4018   3.343   0.534   0.087
 1337SOL     OW 4019   2.389   0.256   0.328
 1337SOL    HW1 4020   2.416   0.197   0.253
 1337SOL    HW2 4021   2.389   0.351   0.297
 1338SOL     OW 4022   3.616   1.223   1.588
 1338SOL    HW1 4023   3.707   1.184   1.575
 1338SOL    HW2 4024   3.624   1.319   1.612
 1339SOL     OW 4025   2.926   1.347   1.340
 1339SOL    HW1 4026   2.846   1.324   1.395
 1339SOL    HW2 4027   3.009   1.321   1.389
 1340SOL     OW 4028   3.454   1.629   1.625
 1340SOL    HW1 4029   3.481   1.663   1.535
 1340SOL    HW2 4030   3.533   1.591   1.671
 1341SOL     OW 4031   2.973   1.195   1.100
 1341SOL    HW1 4032   2.933   1.239   1.181
 1341SOL    HW2 4033   2.932   1.232   1.017
 1342SOL     OW 4034   3.500   1.099   1.079
 1342SOL    HW1 4035   3.505   1.180   1.138
 1342SOL    HW2 4036   3.414   1.101   1.028
 1343SOL     OW 4037   2.777   0.089   1.402
 1343SOL    HW1 4038   2.802   0.069   1.307
 1343SOL    HW2 4039   2.849   0.145   1.444
 1344SOL     OW 4040   2.842   1.116   1.719
 1344SOL    HW1 4041   2.743   1.122   1.729
 1344SOL    HW2 4042   2.865   1.036   1.663
 1345SOL     OW 4043   2.567   1.050   0.368
 1345SOL    HW1 4044   2.553   1.057   0.467
 1345SOL    HW2 4045   2.651   0.999   0.350
 1346SOL     OW 4046   2.272   0.813   1.251
 1346SOL    HW1 4047   2.358   0.825   1.301
 1346SOL    HW2 4048   2.230   0.726   1.278
 1347SOL     OW 4049   3.136   0.386   1.262
 1347SOL    HW1 4050   3.157   0.460   1.326
 1347SOL    HW2 4051   3.047   0.403   1.219
 1348SOL     OW 4052   1.926   1.564   1.331
 1348SOL    HW1 4053   1.880   1.646   1.297
 1348SOL    HW2 4054   2.024   1.583   1.340
 1349SOL     OW 4055   2.229   1.100   0.501
 1349SOL    HW1 4056   2.222   1.183   0.445
 1349SOL    HW2 4057   2.233   1.020   0.441
 1350SOL     OW 4058   2.428   0.537   0.865
 1350SOL    HW1 4059   2.440   0.603   0.791
 1350SOL    HW2 4060   2.474   0.571   0.948
 1351SOL     OW 4061   3.114   1.348   0.388
 1351SOL    HW1 4062   3.164   1.425   0.428
 1351SOL    HW2 4063   3.019   1.350   0.420
 1352SOL     OW 4064   3.134   1.445   1.142
 1352SOL    HW1 4065   3.181   1.458   1.229
 1352SOL    HW2 4066   3.068   1.371   1.151
 1353SOL     OW 4067   3.444   0.639   0.472
 1353SOL    HW1 4068   3.413   0.700   0.545
 1353SOL    HW2 4069   3.494   0.691   0.403
 1354SOL     OW 4070   2.216   1.510   1.329
 1354SOL    HW1 4071   2.195   1.466   1.242
 1354SOL    HW2 4072   2.313   1.536   1.332
 1355SOL     OW 4073   2.264   0.751   1.598
 1355SOL    HW1 4074   2.332   0.806   1.551
 1355SOL    HW2 4075   2.304   0.663   1.625
 1356SOL     OW 4076   3.449   0.779   1.670
 1356SOL    HW1 4077   3.357   0.817   1.665
 1356SOL    HW2 4078   3.509   0.826   1.605
 1357SOL     OW 4079   2.875   0.105   1.770
 1357SOL    HW1 4080   2.881   0.190   1.718
 1357SOL    HW2 4081   2.907   0.029   1.713
 1358SOL     OW 4082   2.366   0.050   1.740
 1358SOL    HW1 4083   2.324  -0.007   1.670
 1358SOL    HW2 4084   2.300   0.119   1.772
 1359SOL     OW 4085   2.435   0.870   1.029
 1359SOL    HW1 4086   2.479   0.959   1.020
 1359SOL    HW2 4087   2.372   0.870   1.106
 1360SOL     OW 4088   3.222   0.862   1.045
 1360SOL    HW1 4089   3.147   0.862   0.979
 1360SOL    HW2 4090   3.259   0.770   1.054
 1361SOL     OW 4091   3.071   0.525   0.275
 1361SOL    HW1 4092   3.084   0.441   0.329
 1361SOL    HW2 4093   3.042   0.599   0.335
 1362SOL     OW 4094   2.169   0.213   1.231
 1362SOL    HW1 4095   2.146   0.250   1.321
 1362SOL    HW2 4096   2.139   0.118   1.225
 1363SOL     OW 4097   1.899   1.310   1.282
 1363SOL    HW1 4098   1.952   1.261   1.350
 1363SOL    HW2 4099   1.921   1.408   1.287
 1364SOL     OW 4100   2.594   0.634   1.064
 1364SOL    HW1 4101   2.653   0.608   0.988
 1364SOL    HW2 4102   2.566   0.730   1.053
 1365SOL     OW 4103   3.590   0.935   1.854
 1365SOL    HW1 4104   3.544   0.928   1.765
 1365SOL    HW2 4105   3.528   0.979   1.920
 1366SOL     OW 4106   2.169   0.063   0.618
 1366SOL    HW1 4107   2.158   0.157   0.651
 1366SOL    HW2 4108   2.164   0.000   0.695
 1367SOL     OW 4109   3.484   0.367   0.374
 1367SOL    HW1 4110   3.486   0.291   0.438
 1367SOL    HW2 4111   3.436   0.444   0.414
 1368SOL     OW 4112   2.885   0.766   0.966
 1368SOL    HW1 4113   2.900   0.787   1.062
 1368SOL    HW2 4114   2.855   0.671   0.957
 1369SOL     OW 4115   2.842   1.573   1.700
 1369SOL    HW1 4116   2.822   1.617   1.612
 1369SOL    HW2 4117   2.881   1.482   1.684
 1370SOL     OW 4118   3.721   1.518   1.605
 1370SOL    HW1 4119   3.735   1.545   1.510
 1370SOL    HW2 4120   3.804   1.540   1.658
 1371SOL     OW 4121   2.212   0.898   1.804
 1371SOL    HW1 4122   2.288   0.942   1.852
 1371SOL    HW2 4123   2.247   0.851   1.722
 1372SOL     OW 4124   3.402   0.274   0.125
 1372SOL    HW1 4125   3.341   0.199   0.148
 1372SOL    HW2 4126   3.424   0.326   0.208
 1373SOL     OW 4127   3.165   0.838   0.042
 1373SOL    HW1 4128   3.199   0.745   0.057
 1373SOL    HW2 4129   3.183   0.865  -0.053
 1374SOL     OW 4130   2.930   1.333   0.849
 1374SOL    HW1 4131   2.937   1.249   0.794
 1374SOL    HW2 4132   2.992   1.402   0.813
 1375SOL     OW 4133   2.181   0.810   0.949
 1375SOL    HW1 4134   2.274   0.846   0.954
 1375SOL    HW2 4135   2.175   0.725   1.001
 1376SOL     OW 4136   2.201   0.509   1.006
 1376SOL    HW1 4137   2.149   0.426   0.989
 1376SOL    HW2 4138   2.278   0.514   0.942
 1377SOL     OW 4139   3.000   0.380   1.678
 1377SOL    HW1 4140   2.955   0.443   1.742
 1377SOL    HW2 4141   3.093   0.411   1.661
 1378SOL     OW 4142   3.022   0.207   1.477
 1378SOL    HW1 4143   3.022   0.271   1.554
 1378SOL    HW2 4144   3.050   0.255   1.394
 1379SOL     OW 4145   1.870   1.326   0.200
 1379SOL    HW1 4146   1.777   1.347   0.169
 1379SOL    HW2 4147   1.880   1.227   0.213
 1380SOL     OW 4148   1.950   1.801   0.927
 1380SOL    HW1 4149   1.908   1.715   0.900
 1380SOL    HW2 4150   2.044   1.804   0.893
 1381SOL     OW 4151   2.366   1.568   0.910
 1381SOL    HW1 4152   2.432   1.642   0.919
 1381SOL    HW2 4153   2.410   1.489   0.868
 1382SOL     OW 4154   2.864   0.796   1.238
 1382SOL    HW1 4155   2.905   0.764   1.324
 1382SOL    HW2 4156   2.768   0.769   1.235
 1383SOL     OW 4157   1.902   0.544   1.114
 1383SOL    HW1 4158   1.987   0.511   1.073
 1383SOL    HW2 4159   1.915   0.559   1.212
 1384SOL     OW 4160   2.051   0.520   1.722
 1384SOL    HW1 4161   2.110   0.480   1.652
 1384SOL    HW2 4162   1.993   0.591   1.681
 1385SOL     OW 4163   3.231   0.950   1.660
 1385SOL    HW1 4164   3.270   1.039   1.680
 1385SOL    HW2 4165   3.241   0.930   1.563
 1386SOL     OW 4166   2.677   0.572   0.325
 1386SOL    HW1 4167   2.684   0.483   0.279
 1386SOL    HW2 4168   2.583   0.606   0.317
 1387SOL     OW 4169   3.519   0.604   1.206
 1387SOL    HW1 4170   3.481   0.535   1.268
 1387SOL    HW2 4171   3.601   0.568   1.162
 1388SOL     OW 4172   2.114   1.564   1.744
 1388SOL    HW1 4173   2.084   1.621   1.820
 1388SOL    HW2 4174   2.107   1.467   1.770
 1389SOL     OW 4175   2.533   0.464   1.269
 1389SOL    HW1 4176   2.499   0.375   1.239
 1389SOL    HW2 4177   2.559   0.518   1.189
 1390SOL     OW 4178   2.792   1.678   1.465
 1390SOL    HW1 4179   2.768   1.660   1.370
 1390SOL    HW2 4180   2.822   1.772   1.475
 1391SOL     OW 4181   2.335   0.500   0.191
 1391SOL    HW1 4182   2.396   0.580   0.195
 1391SOL    HW2 4183   2.240   0.531   0.198
 1392SOL     OW 4184   2.021   1.137   1.466
 1392SOL    HW1 4185   2.043   1.076   1.542
 1392SOL    HW2 4186   2.031   1.088   1.380
 1393SOL     OW 4187   3.209   1.059   1.234
 1393SOL    HW1 4188   3.233   0.996   1.160
 1393SOL    HW2 4189   3.119   1.099   1.216
 1394SOL     OW 4190   3.164   0.855   0.309
 1394SOL    HW1 4191   3.078   0.824   0.351
 1394SOL    HW2 4192   3.160   0.841   0.210
 1395SOL     OW 4193   3.621   1.747   1.154
 1395SOL    HW1 4194   3.682   1.777   1.081
 1395SOL    HW2 4195   3.583   1.658   1.132
 1396SOL     OW 4196   3.114   1.731   1.128
 1396SOL    HW1 4197   3.198   1.736   1.074
 1396SOL    HW2 4198   3.091   1.635   1.146
 1397SOL     OW 4199   1.945   1.258   1.022
 1397SOL    HW1 4200   1.940   1.257   1.122
 1397SOL    HW2 4201   1.862   1.217   0.984
 1398SOL     OW 4202   2.550   1.662   1.716
 1398SOL    HW1 4203   2.494   1.743   1.725
 1398SOL    HW2 4204   2.602   1.666   1.630
 1399SOL     OW 4205   2.765   0.086   0.133
 1399SOL    HW1 4206   2.816   0.087   0.047
 1399SOL    HW2 4207   2.821   0.044   0.204
 1400SOL     OW 4208   3.588   0.135   0.523
 1400SOL    HW1 4209   3.661   0.118   0.456
 1400SOL    HW2 4210   3.557   0.048   0.561
 1401SOL     OW 4211   3.250   1.573   0.477
 1401SOL    HW1 4212   3.317   1.585   0.403
 1401SOL    HW2 4213   3.210   1.662   0.500
 1402SOL     OW 4214   1.992   1.794   1.851
 1402SOL    HW1 4215   1.951   1.720   1.904
 1402SOL    HW2 4216   2.056   1.845   1.909
 1403SOL     OW 4217   3.142   0.927   0.672
 1403SOL    HW1 4218   3.202   0.846   0.674
 1403SOL    HW2 4219   3.182   0.996   0.612
 1404SOL     OW 4220   2.692   1.273   1.422
 1404SOL    HW1 4221   2.687   1.306   1.517
 1404SOL    HW2 4222   2.606   1.292   1.376
 1405SOL     OW 4223   2.534   1.616   0.154
 1405SOL    HW1 4224   2.543   1.626   0.055
 1405SOL    HW2 4225   2.494   1.527   0.175
 1406SOL     OW 4226   3.512   1.720   1.394
 1406SOL    HW1 4227   3.565   1.730   1.310
 1406SOL    HW2 4228   3.485   1.810   1.428
 1407SOL     OW 4229   3.703   0.175   0.963
 1407SOL    HW1 4230   3.742   0.090   0.927
 1407SOL    HW2 4231   3.605   0.177   0.944
 1408SOL     OW 4232   2.125   0.326   0.720
 1408SOL    HW1 4233   2.046   0.377   0.686
 1408SOL    HW2 4234   2.116   0.311   0.818
 1409SOL     OW 4235   3.056   1.612   0.031
 1409SOL    HW1 4236   3.062   1.519   0.068
 1409SOL    HW2 4237   2.997   1.612  -0.049
 1410SOL     OW 4238   2.684   1.002   1.372
 1410SOL    HW1 4239   2.724   1.001   1.280
 1410SOL    HW2 4240   2.694   1.094   1.412
 1411SOL     OW 4241   2.778   0.910   0.291
 1411SOL    HW1 4242   2.841   0.948   0.223
 1411SOL    HW2 4243   2.818   0.827   0.330
 1412SOL     OW 4244   3.366   1.607   0.044
 1412SOL    HW1 4245   3.274   1.644   0.051
 1412SOL    HW2 4246   3.404   1.627  -0.046
 1413SOL     OW 4247   2.234   1.288   1.490
 1413SOL    HW1 4248   2.221   1.381   1.456
 1413SOL    HW2 4249   2.150   1.236   1.477
 1414SOL     OW 4250   3.476   1.292   1.289
 1414SOL    HW1 4251   3.536   1.295   1.369
 1414SOL    HW2 4252   3.401   1.356   1.302
 1415SOL     OW 4253   2.901   1.098   0.696
 1415SOL    HW1 4254   2.831   1.051   0.750
 1415SOL    HW2 4255   2.960   1.030   0.653
 1416SOL     OW 4256   2.876   0.236   0.971
 1416SOL    HW1 4257   2.868   0.200   0.878
 1416SOL    HW2 4258   2.874   0.160   1.036
 1417SOL     OW 4259   2.452   1.487   0.491
 1417SOL    HW1 4260   2.494   1.429   0.421
 1417SOL    HW2 4261   2.408   1.566   0.447
 1418SOL     OW 4262   3.571   0.385   1.381
 1418SOL    HW1 4263   3.644   0.454   1.385
 1418SOL    HW2 4264   3.599   0.310   1.322
 1419SOL     OW 4265   2.117   1.348   0.290
 1419SOL    HW1 4266   2.021   1.349   0.263
 1419SOL    HW2 4267   2.129   1.401   0.374
 1420SOL     OW 4268   1.967   1.013   1.726
 1420SOL    HW1 4269   1.890   0.980   1.780
 1420SOL    HW2 4270   2.052   0.983   1.768
 1421SOL     OW 4271   2.534   0.203   1.489
 1421SOL    HW1 4272   2.624   0.187   1.449
 1421SOL    HW2 4273   2.542   0.208   1.588
 1422SOL     OW 4274   1.937   0.345   0.033
 1422SOL    HW1 4275   1.845   0.317   0.004
 1422SOL    HW2 4276   1.968   0.422  -0.023
 1423SOL     OW 4277   3.302   0.856   1.398
 1423SOL    HW1 4278   3.245   0.908   1.335
 1423SOL    HW2 4279   3.398   0.868   1.374
 1424SOL     OW 4280   3.045   1.335   0.119
 1424SOL    HW1 4281   2.946   1.324   0.121
 1424SOL    HW2 4282   3.079   1.350   0.212
 1425SOL     OW 4283   2.475   0.842   1.431
 1425SOL    HW1 4284   2.531   0.923   1.414
 1425SOL    HW2 4285   2.534   0.762   1.434
 1426SOL     OW 4286   3.355   1.767   0.959
 1426SOL    HW1 4287   3.388   1.831   0.890
 1426SOL    HW2 4288   3.421   1.761   1.034
 1427SOL     OW 4289   2.578   0.565   1.708
 1427SOL    HW1 4290   2.597   0.630   1.782
 1427SOL    HW2 4291   2.638   0.485   1.717
 1428SOL     OW 4292   3.312   1.220   1.633
 1428SOL    HW1 4293   3.303   1.210   1.732
 1428SOL    HW2 4294   3.408   1.213   1.607
 1429SOL     OW 4295   2.252   1.741   1.560
 1429SOL    HW1 4296   2.161   1.782   1.558
 1429SOL    HW2 4297   2.245   1.647   1.592
 1430SOL     OW 4298   3.536   0.883   1.254
 1430SOL    HW1 4299   3.509   0.794   1.217
 1430SOL    HW2 4300   3.537   0.951   1.181
 1431SOL     OW 4301   3.087   0.325   0.449
 1431SOL    HW1 4302   3.152   0.251   0.438
 1431SOL    HW2 4303   3.107   0.375   0.533
 1432SOL     OW 4304   2.456   0.745   0.652
 1432SOL    HW1 4305   2.506   0.830   0.633
 1432SOL    HW2 4306   2.368   0.747   0.604
 1433SOL     OW 4307   3.639   0.342   1.642
 1433SOL    HW1 4308   3.622   0.373   1.548
 1433SOL    HW2 4309   3.555   0.305   1.680
 1434SOL     OW 4310   3.592   0.934   1.517
 1434SOL    HW1 4311   3.630   1.025   1.532
 1434SOL    HW2 4312   3.584   0.917   1.418
 1435SOL     OW 4313   2.721   1.374   0.016
 1435SOL    HW1 4314   2.675   1.389   0.104
 1435SOL    HW2 4315   2.765   1.459  -0.014
 1436SOL     OW 4316   2.523   1.790   0.953
 1436SOL    HW1 4317   2.477   1.878   0.940
 1436SOL    HW2 4318   2.622   1.802   0.946
 1437SOL     OW 4319   2.721   0.956   0.861
 1437SOL    HW1 4320   2.775   0.887   0.909
 1437SOL    HW2 4321   2.689   1.025   0.927
 1438SOL     OW 4322   2.945   0.984   0.087
 1438SOL    HW1 4323   2.922   1.037   0.005
 1438SOL    HW2 4324   3.026   0.928   0.068
 1439SOL     OW 4325   3.723   1.569   0.851
 1439SOL    HW1 4326   3.652   1.557   0.781
 1439SOL    HW2 4327   3.724   1.490   0.911
 1440SOL     OW 4328   2.083   1.314   1.844
 1440SOL    HW1 4329   2.018   1.241   1.823
 1440SOL    HW2 4330   2.087   1.328   1.942
 1441SOL     OW 4331   1.941   1.240   0.653
 1441SOL    HW1 4332   1.940   1.193   0.741
 1441SOL    HW2 4333   2.023   1.212   0.602
 1442SOL     OW 4334   2.534   1.391   1.624
 1442SOL    HW1 4335   2.456   1.341   1.662
 1442SOL    HW2 4336   2.531   1.486   1.655
 1443SOL     OW 4337   3.686   0.192   1.227
 1443SOL    HW1 4338   3.682   0.102   1.271
 1443SOL    HW2 4339   3.689   0.181   1.128
 1444SOL     OW 4340   2.290   0.424   0.520
 1444SOL    HW1 4341   2.320   0.352   0.458
 1444SOL    HW2 4342   2.251   0.384   0.603
 1445SOL     OW 4343   3.567   1.487   1.104
 1445SOL    HW1 4344   3.474   1.462   1.077
 1445SOL    HW2 4345   3.593   1.437   1.186
 1446SOL     OW 4346   2.179   0.547   1.280
 1446SOL    HW1 4347   2.217   0.488   1.352
 1446SOL    HW2 4348   2.219   0.521   1.192
 1447SOL     OW 4349   2.674   1.586   0.687
 1447SOL    HW1 4350   2.706   1.596   0.593
 1447SOL    HW2 4351   2.595   1.524   0.689
 1448SOL     OW 4352   3.286   0.214   1.112
 1448SOL    HW1 4353   3.338   0.149   1.167
 1448SOL    HW2 4354   3.237   0.277   1.173
 1449SOL     OW 4355   2.863   0.034   1.154
 1449SOL    HW1 4356   2.800  -0.038   1.123
 1449SOL    HW2 4357   2.956  -0.002   1.154
 1450SOL     OW 4358   2.632   1.330   0.301
 1450SOL    HW1 4359   2.586   1.243   0.318
 1450SOL    HW2 4360   2.723   1.327   0.342
 1451SOL     OW 4361   2.480   1.567   1.284
 1451SOL    HW1 4362   2.475   1.649   1.341
 1451SOL    HW2 4363   2.569   1.564   1.239
 1452SOL     OW 4364   3.214   0.052   0.168
 1452SOL    HW1 4365   3.249   0.011   0.084
 1452SOL    HW2 4366   3.124   0.014   0.188
 1453SOL     OW 4367   3.162   0.453   0.691
 1453SOL    HW1 4368   3.103   0.533   0.695
 1453SOL    HW2 4369   3.177   0.418   0.784
 1454SOL     OW 4370   3.455   0.221   0.882
 1454SOL    HW1 4371   3.371   0.220   0.936
 1454SOL    HW2 4372   3.457   0.304   0.826
 1455SOL     OW 4373   1.901   1.077   0.300
 1455SOL    HW1 4374   2.000   1.066   0.291
 1455SOL    HW2 4375   1.861   0.991   0.332
 1456SOL     OW 4376   2.737   1.646   0.337
 1456SOL    HW1 4377   2.660   1.611   0.283
 1456SOL    HW2 4378   2.705   1.717   0.399
 1457SOL     OW 4379   2.092   0.628   1.975
 1457SOL    HW1 4380   1.999   0.626   2.012
 1457SOL    HW2 4381   2.093   0.589   1.883
 1458SOL     OW 4382   2.087   0.275   2.858
 1458SOL    HW1 4383   2.122   0.258   2.950
 1458SOL    HW2 4384   1.999   0.230   2.846
 1459SOL     OW 4385   1.881   0.368   2.509
 1459SOL    HW1 4386   1.799   0.411   2.548
 1459SOL    HW2 4387   1.853   0.295   2.446
 1460SOL     OW 4388   2.431   1.275   3.027
 1460SOL    HW1 4389   2.338   1.268   2.990
 1460SOL    HW2 4390   2.442   1.364   3.071
 1461SOL     OW 4391   3.417   1.511   2.565
 1461SOL    HW1 4392   3.360   1.495   2.646
 1461SOL    HW2 4393   3.358   1.521   2.485
 1462SOL     OW 4394   2.997   0.703   2.579
 1462SOL    HW1 4395   3.054   0.781   2.554
 1462SOL    HW2 4396   2.937   0.729   2.655
 1463SOL     OW 4397   3.617   0.607   2.093
 1463SOL    HW1 4398   3.605   0.594   1.994
 1463SOL    HW2 4399   3.587   0.526   2.142
 1464SOL     OW 4400   2.630   1.144   2.885
 1464SOL    HW1 4401   2.552   1.161   2.945
 1464SOL    HW2 4402   2.664   1.231   2.849
 1465SOL     OW 4403   2.712   0.798   3.685
 1465SOL    HW1 4404   2.708   0.874   3.750
 1465SOL    HW2 4405   2.734   0.834   3.594
 1466SOL     OW 4406   2.547   1.012   2.527
 1466SOL    HW1 4407   2.616   0.996   2.597
 1466SOL    HW2 4408   2.474   1.069   2.565
 1467SOL     OW 4409   2.548   1.161   3.665
 1467SOL    HW1 4410   2.608   1.240   3.679
 1467SOL    HW2 4411   2.462   1.192   3.624
 1468SOL     OW 4412   2.197   1.435   2.923
 1468SOL    HW1 4413   2.119   1.404   2.870
 1468SOL    HW2 4414   2.255   1.493   2.866
 1469SOL     OW 4415   3.322   1.505   3.201
 1469SOL    HW1 4416   3.346   1.599   3.227
 1469SOL    HW2 4417   3.306   1.451   3.283
 1470SOL     OW 4418   2.300   0.392   3.361
 1470SOL    HW1 4419   2.382   0.336   3.370
 1470SOL    HW2 4420   2.219   0.334   3.365
 1471SOL     OW 4421   3.465   0.447   2.599
 1471SOL    HW1 4422   3.391   0.493   2.549
 1471SOL    HW2 4423   3.516   0.515   2.652
 1472SOL     OW 4424   2.093   1.713   2.345
 1472SOL    HW1 4425   2.127   1.790   2.399
 1472SOL    HW2 4426   2.137   1.713   2.255
 1473SOL     OW 4427   2.989   1.341   3.552
 1473SOL    HW1 4428   3.036   1.341   3.640
 1473SOL    HW2 4429   2.941   1.254   3.541
 1474SOL     OW 4430   2.092   1.434   2.400
 1474SOL    HW1 4431   2.066   1.530   2.400
 1474SOL    HW2 4432   2.021   1.380   2.445
 1475SOL     OW 4433   2.102   1.091   2.748
 1475SOL    HW1 4434   2.116   1.007   2.800
 1475SOL    HW2 4435   2.047   1.155   2.803
 1476SOL     OW 4436   2.482   1.786   3.301
 1476SOL    HW1 4437   2.390   1.769   3.336
 1476SOL    HW2 4438   2.510   1.878   3.327
 1477SOL     OW 4439   2.468   0.964   1.985
 1477SOL    HW1 4440   2.475   1.048   1.931
 1477SOL    HW2 4441   2.514   0.977   2.073
 1478SOL     OW 4442   3.456   0.114   3.342
 1478SOL    HW1 4443   3.438   0.181   3.270
 1478SOL    HW2 4444   3.453   0.160   3.431
 1479SOL     OW 4445   1.984   0.643   2.425
 1479SOL    HW1 4446   1.939   0.555   2.442
 1479SOL    HW2 4447   1.983   0.697   2.509
 1480SOL     OW 4448   3.704   1.767   2.221
 1480SOL    HW1 4449   3.758   1.738   2.301
 1480SOL    HW2 4450   3.734   1.857   2.192
 1481SOL     OW 4451   1.889   1.596   1.979
 1481SOL    HW1 4452   1.870   1.500   2.000
 1481SOL    HW2 4453   1.856   1.654   2.054
 1482SOL     OW 4454   3.551   0.922   2.474
 1482SOL    HW1 4455   3.646   0.893   2.482
 1482SOL    HW2 4456   3.543   0.987   2.399
 1483SOL     OW 4457   3.503   1.108   2.294
 1483SOL    HW1 4458   3.589   1.110   2.242
 1483SOL    HW2 4459   3.517   1.155   2.382
 1484SOL     OW 4460   1.975   0.737   3.459
 1484SOL    HW1 4461   2.063   0.724   3.504
 1484SOL    HW2 4462   1.962   0.834   3.437
 1485SOL     OW 4463   2.475   1.365   2.588
 1485SOL    HW1 4464   2.426   1.278   2.597
 1485SOL    HW2 4465   2.452   1.408   2.501
 1486SOL     OW 4466   3.155   1.228   3.285
 1486SOL    HW1 4467   3.192   1.155   3.227
 1486SOL    HW2 4468   3.207   1.233   3.370
 1487SOL     OW 4469   2.671   0.004   2.364
 1487SOL    HW1 4470   2.711   0.095   2.355
 1487SOL    HW2 4471   2.571   0.012   2.370
 1488SOL     OW 4472   2.059   0.976   3.126
 1488SOL    HW1 4473   2.148   0.931   3.112
 1488SOL    HW2 4474   1.986   0.911   3.107
 1489SOL     OW 4475   3.387   0.999   2.052
 1489SOL    HW1 4476   3.324   0.923   2.065
 1489SOL    HW2 4477   3.435   1.017   2.138
 1490SOL     OW 4478   3.049   1.792   3.478
 1490SOL    HW1 4479   3.073   1.852   3.402
 1490SOL    HW2 4480   3.056   1.697   3.448
 1491SOL     OW 4481   2.179   0.251   3.663
 1491SOL    HW1 4482   2.250   0.322   3.669
 1491SOL    HW2 4483   2.091   0.290   3.691
 1492SOL     OW 4484   3.328   1.417   2.815
 1492SOL    HW1 4485   3.269   1.423   2.895
 1492SOL    HW2 4486   3.313   1.329   2.769
 1493SOL     OW 4487   3.529   1.714   2.434
 1493SOL    HW1 4488   3.488   1.691   2.346
 1493SOL    HW2 4489   3.511   1.640   2.499
 1494SOL     OW 4490   2.460   0.729   2.132
 1494SOL    HW1 4491   2.484   0.798   2.064
 1494SOL    HW2 4492   2.382   0.762   2.186
 1495SOL     OW 4493   3.143   0.345   2.806
 1495SOL    HW1 4494   3.057   0.295   2.793
 1495SOL    HW2 4495   3.205   0.291   2.862
 1496SOL     OW 4496   3.438   1.662   2.169
 1496SOL    HW1 4497   3.527   1.708   2.172
 1496SOL    HW2 4498   3.417   1.638   2.074
 1497SOL     OW 4499   2.669   0.605   3.327
 1497SOL    HW1 4500   2.622   0.602   3.416
 1497SOL    HW2 4501   2.618   0.550   3.261
 1498SOL     OW 4502   3.256   0.469   3.536
 1498SOL    HW1 4503   3.236   0.512   3.624
 1498SOL    HW2 4504   3.334   0.407   3.545
 1499SOL     OW 4505   2.835   0.890   3.434
 1499SOL    HW1 4506   2.881   0.806   3.405
 1499SOL    HW2 4507   2.779   0.924   3.359
 1500SOL     OW 4508   2.853   0.410   3.104
 1500SOL    HW1 4509   2.776   0.444   3.158
 1500SOL    HW2 4510   2.819   0.359   3.025
 1501SOL     OW 4511   2.903   0.701   2.291
 1501SOL    HW1 4512   2.929   0.697   2.387
 1501SOL    HW2 4513   2.818   0.650   2.277
 1502SOL     OW 4514   1.938   0.811   2.651
 1502SOL    HW1 4515   2.037   0.799   2.660
 1502SOL    HW2 4516   1.914   0.906   2.672
 1503SOL     OW 4517   1.992   1.821   3.433
 1503SOL    HW1 4518   1.982   1.806   3.532
 1503SOL    HW2 4519   1.906   1.857   3.397
 1504SOL     OW 4520   2.727   0.348   2.057
 1504SOL    HW1 4521   2.786   0.411   2.008
 1504SOL    HW2 4522   2.746   0.254   2.028
 1505SOL     OW 4523   3.581   0.585   3.693
 1505SOL    HW1 4524   3.555   0.674   3.657
 1505SOL    HW2 4525   3.579   0.517   3.620
 1506SOL     OW 4526   3.224   1.144   2.407
 1506SOL    HW1 4527   3.307   1.115   2.359
 1506SOL    HW2 4528   3.175   1.211   2.351
 1507SOL     OW 4529   2.412   0.196   2.747
 1507SOL    HW1 4530   2.407   0.191   2.847
 1507SOL    HW2 4531   2.414   0.292   2.718
 1508SOL     OW 4532   2.870   1.456   2.339
 1508SOL    HW1 4533   2.824   1.528   2.287
 1508SOL    HW2 4534   2.866   1.476   2.437
 1509SOL     OW 4535   2.213   1.801   2.715
 1509SOL    HW1 4536   2.263   1.715   2.721
 1509SOL    HW2 4537   2.278   1.878   2.712
 1510SOL     OW 4538   3.657   1.066   2.735
 1510SOL    HW1 4539   3.595   1.051   2.659
 1510SOL    HW2 4540   3.605   1.077   2.820
 1511SOL     OW 4541   3.089   1.550   3.368
 1511SOL    HW1 4542   3.095   1.473   3.432
 1511SOL    HW2 4543   3.037   1.524   3.288
 1512SOL     OW 4544   2.183   0.943   2.104
 1512SOL    HW1 4545   2.265   0.982   2.062
 1512SOL    HW2 4546   2.156   0.861   2.055
 1513SOL     OW 4547   3.320   0.735   2.590
 1513SOL    HW1 4548   3.315   0.670   2.665
 1513SOL    HW2 4549   3.400   0.794   2.603
 1514SOL     OW 4550   2.323   1.266   3.589
 1514SOL    HW1 4551   2.273   1.267   3.503
 1514SOL    HW2 4552   2.260   1.248   3.665
 1515SOL     OW 4553   2.973   1.776   2.099
 1515SOL    HW1 4554   2.913   1.714   2.149
 1515SOL    HW2 4555   3.004   1.732   2.014
 1516SOL     OW 4556   2.064   0.285   3.360
 1516SOL    HW1 4557   1.984   0.345   3.347
 1516SOL    HW2 4558   2.054   0.236   3.446
 1517SOL     OW 4559   3.494   1.377   1.943
 1517SOL    HW1 4560   3.462   1.471   1.933
 1517SOL    HW2 4561   3.418   1.314   1.931
 1518SOL     OW 4562   2.326   1.743   2.185
 1518SOL    HW1 4563   2.359   1.782   2.271
 1518SOL    HW2 4564   2.402   1.736   2.120
 1519SOL     OW 4565   3.262   0.107   2.288
 1519SOL    HW1 4566   3.238   0.070   2.198
 1519SOL    HW2 4567   3.361   0.123   2.292
 1520SOL     OW 4568   2.111   1.785   3.103
 1520SOL    HW1 4569   2.168   1.720   3.153
 1520SOL    HW2 4570   2.095   1.752   3.010
 1521SOL     OW 4571   2.802   1.698   2.766
 1521SOL    HW1 4572   2.882   1.641   2.787
 1521SOL    HW2 4573   2.753   1.658   2.689
 1522SOL     OW 4574   2.244   0.700   2.342
 1522SOL    HW1 4575   2.289   0.610   2.339
 1522SOL    HW2 4576   2.150   0.689   2.375
 1523SOL     OW 4577   3.409   0.222   3.591
 1523SOL    HW1 4578   3.404   0.259   3.683
 1523SOL    HW2 4579   3.337   0.153   3.579
 1524SOL     OW 4580   2.476   0.122   1.979
 1524SOL    HW1 4581   2.574   0.100   1.986
 1524SOL    HW2 4582   2.445   0.105   1.886
 1525SOL     OW 4583   2.643   0.264   3.611
 1525SOL    HW1 4584   2.710   0.203   3.654
 1525SOL    HW2 4585   2.570   0.283   3.676
 1526SOL     OW 4586   2.750   1.514   3.057
 1526SOL    HW1 4587   2.727   1.489   2.963
 1526SOL    HW2 4588   2.811   1.445   3.096
 1527SOL     OW 4589   3.213   0.590   3.295
 1527SOL    HW1 4590   3.241   0.547   3.380
 1527SOL    HW2 4591   3.238   0.686   3.296
 1528SOL     OW 4592   2.665   1.402   2.786
 1528SOL    HW1 4593   2.755   1.416   2.744
 1528SOL    HW2 4594   2.594   1.404   2.715
 1529SOL     OW 4595   2.784   0.503   2.761
 1529SOL    HW1 4596   2.759   0.494   2.665
 1529SOL    HW2 4597   2.832   0.421   2.792
 1530SOL     OW 4598   2.401   0.064   2.374
 1530SOL    HW1 4599   2.320   0.065   2.432
 1530SOL    HW2 4600   2.404   0.147   2.319
 1531SOL     OW 4601   3.296   1.188   1.903
 1531SOL    HW1 4602   3.328   1.112   1.960
 1531SOL    HW2 4603   3.204   1.215   1.933
 1532SOL     OW 4604   2.159   0.035   2.033
 1532SOL    HW1 4605   2.208   0.119   2.012
 1532SOL    HW2 4606   2.221  -0.030   2.078
 1533SOL     OW 4607   2.797   0.236   2.342
 1533SOL    HW1 4608   2.749   0.277   2.264
 1533SOL    HW2 4609   2.896   0.234   2.323
 1534SOL     OW 4610   2.938   0.683   3.326
 1534SOL    HW1 4611   2.858   0.622   3.329
 1534SOL    HW2 4612   3.019   0.630   3.302
 1535SOL     OW 4613   3.089   1.570   2.655
 1535SOL    HW1 4614   3.110   1.644   2.590
 1535SOL    HW2 4615   3.157   1.570   2.728
 1536SOL     OW 4616   2.321   1.152   2.603
 1536SOL    HW1 4617   2.250   1.125   2.668
 1536SOL    HW2 4618   2.295   1.124   2.510
 1537SOL     OW 4619   3.133   1.797   2.453
 1537SOL    HW1 4620   3.177   1.861   2.389
 1537SOL    HW2 4621   3.083   1.849   2.523
 1538SOL     OW 4622   2.894   0.549   1.878
 1538SOL    HW1 4623   2.853   0.631   1.839
 1538SOL    HW2 4624   2.958   0.575   1.951
 1539SOL     OW 4625   1.940   0.556   3.248
 1539SOL    HW1 4626   2.032   0.555   3.207
 1539SOL    HW2 4627   1.934   0.630   3.315
 1540SOL     OW 4628   2.423   0.222   3.009
 1540SOL    HW1 4629   2.461   0.138   3.046
 1540SOL    HW2 4630   2.335   0.241   3.053
 1541SOL     OW 4631   2.728   0.454   2.504
 1541SOL    HW1 4632   2.696   0.526   2.442
 1541SOL    HW2 4633   2.752   0.373   2.451
 1542SOL     OW 4634   2.879   0.039   2.615
 1542SOL    HW1 4635   2.807   0.044   2.546
 1542SOL    HW2 4636   2.855  -0.030   2.684
 1543SOL     OW 4637   3.291   1.173   2.729
 1543SOL    HW1 4638   3.236   1.089   2.722
 1543SOL    HW2 4639   3.317   1.202   2.637
 1544SOL     OW 4640   3.328   0.590   2.854
 1544SOL    HW1 4641   3.298   0.495   2.861
 1544SOL    HW2 4642   3.401   0.606   2.920
 1545SOL     OW 4643   3.719   0.833   2.239
 1545SOL    HW1 4644   3.761   0.769   2.303
 1545SOL    HW2 4645   3.681   0.782   2.161
 1546SOL     OW 4646   2.350   1.385   2.036
 1546SOL    HW1 4647   2.263   1.370   2.083
 1546SOL    HW2 4648   2.333   1.411   1.941
 1547SOL     OW 4649   3.526   1.280   2.519
 1547SOL    HW1 4650   3.625   1.288   2.533
 1547SOL    HW2 4651   3.481   1.364   2.550
 1548SOL     OW 4652   3.252   0.575   1.940
 1548SOL    HW1 4653   3.198   0.554   2.021
 1548SOL    HW2 4654   3.343   0.534   1.949
 1549SOL     OW 4655   2.389   0.256   2.190
 1549SOL    HW1 4656   2.416   0.197   2.115
 1549SOL    HW2 4657   2.389   0.351   2.159
 1550SOL     OW 4658   3.616   1.223   3.450
 1550SOL    HW1 4659   3.707   1.184   3.437
 1550SOL    HW2 4660   3.624   1.319   3.474
 1551SOL     OW 4661   2.926   1.347   3.202
 1551SOL    HW1 4662   2.846   1.324   3.257
 1551SOL    HW2 4663   3.009   1.321   3.251
 1552SOL     OW 4664   3.454   1.629   3.487
 1552SOL    HW1 4665   3.481   1.663   3.397
 1552SOL    HW2 4666   3.533   1.591   3.533
 1553SOL     OW 4667   2.973   1.195   2.962
 1553SOL    HW1 4668   2.933   1.239   3.043
 1553SOL    HW2 4669   2.932   1.232   2.879
 1554SOL     OW 4670   3.500   1.099   2.941
 1554SOL    HW1 4671   3.505   1.180   3.000
 1554SOL    HW2 4672   3.414   1.101   2.890
 1555SOL     OW 4673   2.777   0.089   3.264
 1555SOL    HW1 4674   2.802   0.069   3.169
 1555SOL    HW2 4675   2.849   0.145   3.306
 1556SOL     OW 4676   2.842   1.116   3.581
 1556SOL    HW1 4677   2.743   1.122   3.591
 1556SOL    HW2 4678   2.865   1.036   3.525
 1557SOL     OW 4679   2.567   1.050   2.230
 1557SOL    HW1 4680   2.553   1.057   2.329
 1557SOL    HW2 4681   2.651   0.999   2.212
 1558SOL     OW 4682   2.272   0.813   3.113
 1558SOL    HW1 4683   2.358   0.825   3.163
 1558SOL    HW2 4684   2.230   0.726   3.140
 1559SOL     OW 4685   3.136   0.386   3.124
 1559SOL    HW1 4686   3.157   0.460   3.188
 1559SOL    HW2 4687   3.047   0.403   3.081
 1560SOL     OW 4688   1.926   1.564   3.193
 1560SOL    HW1 4689   1.880   1.646   3.159
 1560SOL    HW2 4690   2.024   1.583   3.202
 1561SOL     OW 4691   2.229   1.100   2.363
 1561SOL    HW1 4692   2.222   1.183   2.307
 1561SOL    HW2 4693   2.233   1.020   2.303
 1562SOL     OW 4694   2.428   0.537   2.727
 1562SOL    HW1 4695   2.440   0.603   2.653
 1562SOL    HW2 4696   2.474   0.571   2.810
 1563SOL     OW 4697   3.114   1.348   2.250
 1563SOL    HW1 4698   3.164   1.425   2.290
 1563SOL    HW2 4699   3.019   1.350   2.282
 1564SOL     OW 4700   3.134   1.445   3.004
 1564SOL    HW1 4701   3.181   1.458   3.091
 1564SOL    HW2 4702   3.068   1.371   3.013
 1565SOL     OW 4703   3.444   0.639   2.334
 1565SOL    HW1 4704   3.413   0.700   2.407
 1565SOL    HW2 4705   3.494   0.691   2.265
 1566SOL     OW 4706   2.216   1.510   3.191
 1566SOL    HW1 4707   2.195   1.466   3.104
 1566SOL    HW2 4708   2.313   1.536   3.194
 1567SOL     OW 4709   2.264   0.751   3.460
 1567SOL    HW1 4710   2.332   0.806   3.413
 1567SOL    HW2 4711   2.304   0.663   3.487
 1568SOL     OW 4712   3.449   0.779   3.532
 1568SOL    HW1 4713   3.357   0.817   3.527
 1568SOL    HW2 4714   3.509   0.826   3.467
 1569SOL     OW 4715   2.875   0.105   3.632
 1569SOL    HW1 4716   2.881   0.190   3.580
 1569SOL    HW2 4717   2.907   0.029   3.575
 1570SOL     OW 4718   2.366   0.050   3.602
 1570SOL    HW1 4719   2.324  -0.007   3.532
 1570SOL    HW2 4720   2.300   0.119   3.634
 1571SOL     OW 4721   2.435   0.870   2.891
 1571SOL    HW1 4722   2.479   0.959   2.882
 1571SOL    HW2 4723   2.372   0.870   2.968
 1572SOL     OW 4724   3.222   0.862   2.907
 1572SOL    HW1 4725   3.147   0.862   2.841
 1572SOL    HW2 4726   3.259   0.770   2.916
 1573SOL     OW 4727   3.071   0.525   2.137
 1573SOL    HW1 4728   3.084   0.441   2.191
 1573SOL    HW2 4729   3.042   0.599   2.197
 1574SOL     OW 4730   2.169   0.213   3.093
 1574SOL    HW1 4731   2.146   0.250   3.183
 1574SOL    HW2 4732   2.139   0.118   3.087
 1575SOL     OW 4733   1.899   1.310   3.144
 1575SOL    HW1 4734   1.952   1.261   3.212
 1575SOL    HW2 4735   1.921   1.408   3.149
 1576SOL     OW 4736   2.594   0.634   2.926
 1576SOL    HW1 4737   2.653   0.608   2.850
 1576SOL    HW2 4738   2.566   0.730   2.915
 1577SOL     OW 4739   3.590   0.935   3.716
 1577SOL    HW1 4740   3.544   0.928   3.627
 1577SOL    HW2 4741   3.528   0.979   3.782
 1578SOL     OW 4742   2.169   0.063   2.480
 1578SOL    HW1 4743   2.158   0.157   2.513
 1578SOL    HW2 4744   2.164   0.000   2.557
 1579SOL     OW 4745   3.484   0.367   2.236
 1579SOL    HW1 4746   3.486   0.291   2.300
 1579SOL    HW2 4747   3.436   0.444   2.276
 1580SOL     OW 4748   2.885   0.766   2.828
 1580SOL    HW1 4749   2.900   0.787   2.924
 1580SOL    HW2 4750   2.855   0.671   2.819
 1581SOL     OW 4751   2.842   1.573   3.562
 1581SOL    HW1 4752   2.822   1.617   3.474
 1581SOL    HW2 4753   2.881   1.482   3.546
 1582SOL     OW 4754   3.721   1.518   3.467
 1582SOL    HW1 4755   3.735   1.545   3.372
 1582SOL    HW2 4756   3.804   1.540   3.520
 1583SOL     OW 4757   2.212   0.898   3.666
 1583SOL    HW1 4758   2.288   0.942   3.714
 1583SOL    HW2 4759   2.247   0.851   3.584
 1584SOL     OW 4760   3.402   0.274   1.987
 1584SOL    HW1 4761   3.341   0.199   2.010
 1584SOL    HW2 4762   3.424   0.326   2.070
 1585SOL     OW 4763   3.165   0.838   1.904
 1585SOL    HW1 4764   3.199   0.745   1.919
 1585SOL    HW2 4765   3.183   0.865   1.809
 1586SOL     OW 4766   2.930   1.333   2.711
 1586SOL    HW1 4767   2.937   1.249   2.656
 1586SOL    HW2 4768   2.992   1.402   2.675
 1587SOL     OW 4769   2.181   0.810   2.811
 1587SOL    HW1 4770   2.274   0.846   2.816
 1587SOL    HW2 4771   2.175   0.725   2.863
 1588SOL     OW 4772   2.201   0.509   2.868
 1588SOL    HW1 4773   2.149   0.426   2.851
 1588SOL    HW2 4774   2.278   0.514   2.804
 1589SOL     OW 4775   3.000   0.380   3.540
 1589SOL    HW1 4776   2.955   0.443   3.604
 1589SOL    HW2 4777   3.093   0.411   3.523
 1590SOL     OW 4778   3.022   0.207   3.339
 1590SOL    HW1 4779   3.022   0.271   3.416
 1590SOL    HW2 4780   3.050   0.255   3.256
 1591SOL     OW 4781   1.870   1.326   2.062
 1591SOL    HW1 4782   1.777   1.347   2.031
 1591SOL    HW2 4783   1.880   1.227   2.075
 1592SOL     OW 4784   1.950   1.801   2.789
 1592SOL    HW1 4785   1.908   1.715   2.762
 1592SOL    HW2 4786   2.044   1.804   2.755
 1593SOL     OW 4787   2.366   1.568   2.772
 1593SOL    HW1 4788   2.432   1.642   2.781
 1593SOL    HW2 4789   2.410   1.489   2.730
 1594SOL     OW 4790   2.864   0.796   3.100
 1594SOL    HW1 4791   2.905   0.764   3.186
 1594SOL    HW2 4792   2.768   0.769   3.097
 1595SOL     OW 4793   1.902   0.544   2.976
 1595SOL    HW1 4794   1.987   0.511   2.935
 1595SOL    HW2 4795   1.915   0.559   3.074
 1596SOL     OW 4796   2.051   0.520   3.584
 1596SOL    HW1 4797   2.110   0.480   3.514
 1596SOL    HW2 4798   1.993   0.591   3.543
 1597SOL     OW 4799   3.231   0.950   3.522
 1597SOL    HW1 4800   3.270   1.039   3.542
 1597SOL    HW2 4801   3.241   0.930   3.425
 1598SOL     OW 4802   2.677   0.572   2.187
 1598SOL    HW1 4803   2.684   0.483   2.141
 1598SOL    HW2 4804   2.583   0.606   2.179
 1599SOL     OW 4805   3.519   0.604   3.068
 1599SOL    HW1 4806   3.481   0.535   3.130
 1599SOL    HW2 4807   3.601   0.568   3.024
 1600SOL     OW 4808   2.114   1.564   3.606
 1600SOL    HW1 4809   2.084   1.621   3.682
 1600SOL    HW2 4810   2.107   1.467   3.632
 1601SOL     OW 4811   2.533   0.464   3.131
 1601SOL    HW1 4812   2.499   0.375   3.101
 1601SOL    HW2 4813   2.559   0.518   3.051
 1602SOL     OW 4814   2.792   1.678   3.327
 1602SOL    HW1 4815   2.768   1.660   3.232
 1602SOL    HW2 4816   2.822   1.772   3.337
 1603SOL     OW 4817   2.335   0.500   2.053
 1603SOL    HW1 4818   2.396   0.580   2.057
 1603SOL    HW2 4819   2.240   0.531   2.060
 1604SOL     OW 4820   2.021   1.137   3.328
 1604SOL    HW1 4821   2.043   1.076   3.404
 1604SOL    HW2 4822   2.031   1.088   3.242
 1605SOL     OW 4823   3.209   1.059   3.096
 1605SOL    HW1 4824   3.233   0.996   3.022
 1605SOL    HW2 4825   3.119   1.099   3.078
 1606SOL     OW 4826   3.164   0.855   2.171
 1606SOL    HW1 4827   3.078   0.824   2.213
 1606SOL    HW2 4828   3.160   0.841   2.072
 1607SOL     OW 4829   3.621   1.747   3.016
 1607SOL    HW1 4830   3.682   1.777   2.943
 1607SOL    HW2 4831   3.583   1.658   2.994
 1608SOL     OW 4832   3.114   1.731   2.990
 1608SOL    HW1 4833   3.198   1.736   2.936
 1608SOL    HW2 4834   3.091   1.635   3.008
 1609SOL     OW 4835   1.945   1.258   2.884
 1609SOL    HW1 4836   1.940   1.257   2.984
 1609SOL    HW2 4837   1.862   1.217   2.846
 1610SOL     OW 4838   2.550   1.662   3.578
 1610SOL    HW1 4839   2.494   1.743   3.587
 1610SOL    HW2 4840   2.602   1.666   3.492
 1611SOL     OW 4841   3.588   0.135   2.385
 1611SOL    HW1 4842   3.661   0.118   2.318
 1611SOL    HW2 4843   3.557   0.048   2.423
 1612SOL     OW 4844   3.250   1.573   2.339
 1612SOL    HW1 4845   3.317   1.585   2.265
 1612SOL    HW2 4846   3.210   1.662   2.362
 1613SOL     OW 4847   1.992   1.794   3.713
 1613SOL    HW1 4848   1.951   1.720   3.766
 1613SOL    HW2 4849   2.056   1.845   3.771
 1614SOL     OW 4850   3.142   0.927   2.534
 1614SOL    HW1 4851   3.202   0.846   2.536
 1614SOL    HW2 4852   3.182   0.996   2.474
 1615SOL     OW 4853   2.692   1.273   3.284
 1615SOL    HW1 4854   2.687   1.306   3.379
 1615SOL    HW2 4855   2.606   1.292   3.238
 1616SOL     OW 4856   2.534   1.616   2.016
 1616SOL    HW1 4857   2.543   1.626   1.917
 1616SOL    HW2 4858   2.494   1.527   2.037
 1617SOL     OW 4859   3.512   1.720   3.256
 1617SOL    HW1 4860   3.565   1.730   3.172
 1617SOL    HW2 4861   3.485   1.810   3.290
 1618SOL     OW 4862   3.703   0.175   2.825
 1618SOL    HW1 4863   3.742   0.090   2.789
 1618SOL    HW2 4864   3.605   0.177   2.806
 1619SOL     OW 4865   2.125   0.326   2.582
 1619SOL    HW1 4866   2.046   0.377   2.548
 1619SOL    HW2 4867   2.116   0.311   2.680
 1620SOL     OW 4868   3.056   1.612   1.893
 1620SOL    HW1 4869   3.062   1.519   1.930
 1620SOL    HW2 4870   2.997   1.612   1.813
 1621SOL     OW 4871   2.684   1.002   3.234
 1621SOL    HW1 4872   2.724   1.001   3.142
 1621SOL    HW2 4873   2.694   1.094   3.274
 1622SOL     OW 4874   2.778   0.910   2.153
 1622SOL    HW1 4875   2.841   0.948   2.085
 1622SOL    HW2 4876   2.818   0.827   2.192
 1623SOL     OW 4877   3.366   1.607   1.906
 1623SOL    HW1 4878   3.274   1.644   1.913
 1623SOL    HW2 4879   3.404   1.627   1.816
 1624SOL     OW 4880   2.234   1.288   3.352
 1624SOL    HW1 4881   2.221   1.381   3.318
 1624SOL    HW2 4882   2.150   1.236   3.339
 1625SOL     OW 4883   3.476   1.292   3.151
 1625SOL    HW1 4884   3.536   1.295   3.231
 1625SOL    HW2 4885   3.401   1.356   3.164
 1626SOL     OW 4886   2.901   1.098   2.558
 1626SOL    HW1 4887   2.831   1.051   2.612
 1626SOL    HW2 4888   2.960   1.030   2.515
 1627SOL     OW 4889   2.876   0.236   2.833
 1627SOL    HW1 4890   2.868   0.200   2.740
 1627SOL    HW2 4891   2.874   0.160   2.898
 1628SOL     OW 4892   2.452   1.487   2.353
 1628SOL    HW1 4893   2.494   1.429   2.283
 1628SOL    HW2 4894   2.408   1.566   2.309
 1629SOL     OW 4895   3.571   0.385   3.243
 1629SOL    HW1 4896   3.644   0.454   3.247
 1629SOL    HW2 4897   3.599   0.310   3.184
 1630SOL     OW 4898   2.117   1.348   2.152
 1630SOL    HW1 4899   2.021   1.349   2.125
 1630SOL    HW2 4900   2.129   1.401   2.236
 1631SOL     OW 4901   1.967   1.013   3.588
 1631SOL    HW1 4902   1.890   0.980   3.642
 1631SOL    HW2 4903   2.052   0.983   3.630
 1632SOL     OW 4904   2.534   0.203   3.351
 1632SOL    HW1 4905   2.624   0.187   3.311
 1632SOL    HW2 4906   2.542   0.208   3.450
 1633SOL     OW 4907   1.937   0.345   1.895
 1633SOL    HW1 4908   1.845   0.317   1.866
 1633SOL    HW2 4909   1.968   0.422   1.839
 1634SOL     OW 4910   3.302   0.856   3.260
 1634SOL    HW1 4911   3.245   0.908   3.197
 1634SOL    HW2 4912   3.398   0.868   3.236
 1635SOL     OW 4913   1.934   0.166   2.180
 1635SOL    HW1 4914   1.917   0.249   2.126
 1635SOL    HW2 4915   2.024   0.129   2.158
 1636SOL     OW 4916   3.045   1.335   1.981
 1636SOL    HW1 4917   2.946   1.324   1.983
 1636SOL    HW2 4918   3.079   1.350   2.074
 1637SOL     OW 4919   2.475   0.842   3.293
 1637SOL    HW1 4920   2.531   0.923   3.276
 1637SOL    HW2 4921   2.534   0.762   3.296
 1638SOL     OW 4922   3.355   1.767   2.821
 1638SOL    HW1 4923   3.388   1.831   2.752
 1638SOL    HW2 4924   3.421   1.761   2.896
 1639SOL     OW 4925   2.578   0.565   3.570
 1639SOL    HW1 4926   2.597   0.630   3.644
 1639SOL    HW2 4927   2.638   0.485   3.579
 1640SOL     OW 4928   3.312   1.220   3.495
 1640SOL    HW1 4929   3.303   1.210   3.594
 1640SOL    HW2 4930   3.408   1.213   3.469
 1641SOL     OW 4931   2.252   1.741   3.422
 1641SOL    HW1 4932   2.161   1.782   3.420
 1641SOL    HW2 4933   2.245   1.647   3.454
 1642SOL     OW 4934   3.536   0.883   3.116
 1642SOL    HW1 4935   3.509   0.794   3.079
 1642SOL    HW2 4936   3.537   0.951   3.043
 1643SOL     OW 4937   3.087   0.325   2.311
 1643SOL    HW1 4938   3.152   0.251   2.300
 1643SOL    HW2 4939   3.107   0.375   2.395
 1644SOL     OW 4940   2.456   0.745   2.514
 1644SOL    HW1 4941   2.506   0.830   2.495
 1644SOL    HW2 4942   2.368   0.747   2.466
 1645SOL     OW 4943   3.639   0.342   3.504
 1645SOL    HW1 4944   3.622   0.373   3.410
 1645SOL    HW2 4945   3.555   0.305   3.542
 1646SOL     OW 4946   3.592   0.934   3.379
 1646SOL    HW1 4947   3.630   1.025   3.394
 1646SOL    HW2 4948   3.584   0.917   3.280
 1647SOL     OW 4949   2.721   1.374   1.878
 1647SOL    HW1 4950   2.675   1.389   1.966
 1647SOL    HW2 4951   2.765   1.459   1.848
 1648SOL     OW 4952   2.523   1.790   2.815
 1648SOL    HW1 4953   2.477   1.878   2.802
 1648SOL    HW2 4954   2.622   1.802   2.808
 1649SOL     OW 4955   2.721   0.956   2.723
 1649SOL    HW1 4956   2.775   0.887   2.771
 1649SOL    HW2 4957   2.689   1.025   2.789
 1650SOL     OW 4958   2.945   0.984   1.949
 1650SOL    HW1 4959   2.922   1.037   1.867
 1650SOL    HW2 4960   3.026   0.928   1.930
 1651SOL     OW 4961   3.723   1.569   2.713
 1651SOL    HW1 4962   3.652   1.557   2.643
 1651SOL    HW2 4963   3.724   1.490   2.773
 1652SOL     OW 4964   2.083   1.314   3.706
 1652SOL    HW1 4965   2.018   1.241   3.685
 1652SOL    HW2 4966   2.087   1.328   3.804
 1653SOL     OW 4967   1.941   1.240   2.515
 1653SOL    HW1 4968   1.940   1.193   2.603
 1653SOL    HW2 4969   2.023   1.212   2.464
 1654SOL     OW 4970   2.534   1.391   3.486
 1654SOL    HW1 4971   2.456   1.341   3.524
 1654SOL    HW2 4972   2.531   1.486   3.517
 1655SOL     OW 4973   3.686   0.192   3.089
 1655SOL    HW1 4974   3.682   0.102   3.133
 1655SOL    HW2 4975   3.689   0.181   2.990
 1656SOL     OW 4976   2.290   0.424   2.382
 1656SOL    HW1 4977   2.320   0.352   2.320
 1656SOL    HW2 4978   2.251   0.384   2.465
 1657SOL     OW 4979   3.567   1.487   2.966
 1657SOL    HW1 4980   3.474   1.462   2.939
 1657SOL    HW2 4981   3.593   1.437   3.048
 1658SOL     OW 4982   2.179   0.547   3.142
 1658SOL    HW1 4983   2.217   0.488   3.214
 1658SOL    HW2 4984   2.219   0.521   3.054
 1659SOL     OW 4985   2.674   1.586   2.549
 1659SOL    HW1 4986   2.706   1.596   2.455
 1659SOL    HW2 4987   2.595   1.524   2.551
 1660SOL     OW 4988   3.286   0.214   2.974
 1660SOL    HW1 4989   3.338   0.149   3.029
 1660SOL    HW2 4990   3.237   0.277   3.035
 1661SOL     OW 4991   2.863   0.034   3.016
 1661SOL    HW1 4992   2.800  -0.038   2.985
 1661SOL    HW2 4993   2.956  -0.002   3.016
 1662SOL     OW 4994   2.632   1.330   2.163
 1662SOL    HW1 4995   2.586   1.243   2.180
 1662SOL    HW2 4996   2.723   1.327   2.204
 1663SOL     OW 4997   2.480   1.567   3.146
 1663SOL    HW1 4998   2.475   1.649   3.203
 1663SOL    HW2 4999   2.569   1.564   3.101
 1664SOL     OW 5000   3.214   0.052   2.030
 1664SOL    HW1 5001   3.249   0.011   1.946
 1664SOL    HW2 5002   3.124   0.014   2.050
 1665SOL     OW 5003   3.162   0.453   2.553
 1665SOL    HW1 5004   3.103   0.533   2.557
 1665SOL    HW2 5005   3.177   0.418   2.646
 1666SOL     OW 5006   3.455   0.221   2.744
 1666SOL    HW1 5007   3.371   0.220   2.798
 1666SOL    HW2 5008   3.457   0.304   2.688
 1667SOL     OW 5009   1.901   1.077   2.162
 1667SOL    HW1 5010   2.000   1.066   2.153
 1667SOL    HW2 5011   1.861   0.991   2.194
 1668SOL     OW 5012   2.737   1.646   2.199
 1668SOL    HW1 5013   2.660   1.611   2.145
 1668SOL    HW2 5014   2.705   1.717   2.261
 1669SOL     OW 5015   2.092   0.628   3.837
 1669SOL    HW1 5016   1.999   0.626   3.874
 1669SOL    HW2 5017   2.093   0.589   3.745
 1670SOL     OW 5018   2.087   0.275   4.720
 1670SOL    HW1 5019   2.122   0.258   4.812
 1670SOL    HW2 5020   1.999   0.230   4.708
 1671SOL     OW 5021   1.881   0.368   4.371
 1671SOL    HW1 5022   1.799   0.411   4.410
 1671SOL    HW2 5023   1.853   0.295   4.308
 1672SOL     OW 5024   3.617   0.607   3.955
 1672SOL    HW1 5025   3.605   0.594   3.856
 1672SOL    HW2 5026   3.587   0.526   4.004
 1673SOL     OW 5027   2.547   1.012   4.389
 1673SOL    HW1 5028   2.616   0.996   4.459
 1673SOL    HW2 5029   2.474   1.069   4.427
 1674SOL     OW 5030   3.465   0.447   4.461
 1674SOL    HW1 5031   3.391   0.493   4.411
 1674SOL    HW2 5032   3.516   0.515   4.514
 1675SOL     OW 5033   2.093   1.713   4.207
 1675SOL    HW1 5034   2.127   1.790   4.261
 1675SOL    HW2 5035   2.137   1.713   4.117
 1676SOL     OW 5036   2.092   1.434   4.262
 1676SOL    HW1 5037   2.066   1.530   4.262
 1676SOL    HW2 5038   2.021   1.380   4.307
 1677SOL     OW 5039   2.468   0.964   3.847
 1677SOL    HW1 5040   2.475   1.048   3.793
 1677SOL    HW2 5041   2.514   0.977   3.935
 1678SOL     OW 5042   1.984   0.643   4.287
 1678SOL    HW1 5043   1.939   0.555   4.304
 1678SOL    HW2 5044   1.983   0.697   4.371
 1679SOL     OW 5045   3.704   1.767   4.083
 1679SOL    HW1 5046   3.758   1.738   4.163
 1679SOL    HW2 5047   3.734   1.857   4.054
 1680SOL     OW 5048   1.889   1.596   3.841
 1680SOL    HW1 5049   1.870   1.500   3.862
 1680SOL    HW2 5050   1.856   1.654   3.916
 1681SOL     OW 5051   3.551   0.922   4.336
 1681SOL    HW1 5052   3.646   0.893   4.344
 1681SOL    HW2 5053   3.543   0.987   4.261
 1682SOL     OW 5054   3.503   1.108   4.156
 1682SOL    HW1 5055   3.589   1.110   4.104
 1682SOL    HW2 5056   3.517   1.155   4.244
 1683SOL     OW 5057   2.475   1.365   4.450
 1683SOL    HW1 5058   2.426   1.278   4.459
 1683SOL    HW2 5059   2.452   1.408   4.363
 1684SOL     OW 5060   2.671   0.004   4.226
 1684SOL    HW1 5061   2.711   0.095   4.217
 1684SOL    HW2 5062   2.571   0.012   4.232
 1685SOL     OW 5063   3.387   0.999   3.914
 1685SOL    HW1 5064   3.324   0.923   3.927
 1685SOL    HW2 5065   3.435   1.017   4.000
 1686SOL     OW 5066   3.529   1.714   4.296
 1686SOL    HW1 5067   3.488   1.691   4.208
 1686SOL    HW2 5068   3.511   1.640   4.361
 1687SOL     OW 5069   2.460   0.729   3.994
 1687SOL    HW1 5070   2.484   0.798   3.926
 1687SOL    HW2 5071   2.382   0.762   4.048
 1688SOL     OW 5072   3.143   0.345   4.668
 1688SOL    HW1 5073   3.057   0.295   4.655
 1688SOL    HW2 5074   3.205   0.291   4.724
 1689SOL     OW 5075   3.438   1.662   4.031
 1689SOL    HW1 5076   3.527   1.708   4.034
 1689SOL    HW2 5077   3.417   1.638   3.936
 1690SOL     OW 5078   2.903   0.701   4.153
 1690SOL    HW1 5079   2.929   0.697   4.249
 1690SOL    HW2 5080   2.818   0.650   4.139
 1691SOL     OW 5081   1.938   0.811   4.513
 1691SOL    HW1 5082   2.037   0.799   4.522
 1691SOL    HW2 5083   1.914   0.906   4.534
 1692SOL     OW 5084   2.727   0.348   3.919
 1692SOL    HW1 5085   2.786   0.411   3.870
 1692SOL    HW2 5086   2.746   0.254   3.890
 1693SOL     OW 5087   3.224   1.144   4.269
 1693SOL    HW1 5088   3.307   1.115   4.221
 1693SOL    HW2 5089   3.175   1.211   4.213
 1694SOL     OW 5090   2.870   1.456   4.201
 1694SOL    HW1 5091   2.824   1.528   4.149
 1694SOL    HW2 5092   2.866   1.476   4.299
 1695SOL     OW 5093   2.213   1.801   4.577
 1695SOL    HW1 5094   2.263   1.715   4.583
 1695SOL    HW2 5095   2.278   1.878   4.574
 1696SOL     OW 5096   3.657   1.066   4.597
 1696SOL    HW1 5097   3.595   1.051   4.521
 1696SOL    HW2 5098   3.605   1.077   4.682
 1697SOL     OW 5099   2.183   0.943   3.966
 1697SOL    HW1 5100   2.265   0.982   3.924
 1697SOL    HW2 5101   2.156   0.861   3.917
 1698SOL     OW 5102   2.973   1.776   3.961
 1698SOL    HW1 5103   2.913   1.714   4.011
 1698SOL    HW2 5104   3.004   1.732   3.876
 1699SOL     OW 5105   3.494   1.377   3.805
 1699SOL    HW1 5106   3.462   1.471   3.795
 1699SOL    HW2 5107   3.418   1.314   3.793
 1700SOL     OW 5108   2.326   1.743   4.047
 1700SOL    HW1 5109   2.359   1.782   4.133
 1700SOL    HW2 5110   2.402   1.736   3.982
 1701SOL     OW 5111   3.262   0.107   4.150
 1701SOL    HW1 5112   3.238   0.070   4.060
 1701SOL    HW2 5113   3.361   0.123   4.154
 1702SOL     OW 5114   2.802   1.698   4.628
 1702SOL    HW1 5115   2.882   1.641   4.649
 1702SOL    HW2 5116   2.753   1.658   4.551
 1703SOL     OW 5117   2.244   0.700   4.204
 1703SOL    HW1 5118   2.289   0.610   4.201
 1703SOL    HW2 5119   2.150   0.689   4.237
 1704SOL     OW 5120   2.476   0.122   3.841
 1704SOL    HW1 5121   2.574   0.100   3.848
 1704SOL    HW2 5122   2.445   0.105   3.748
 1705SOL     OW 5123   2.401   0.064   4.236
 1705SOL    HW1 5124   2.320   0.065   4.294
 1705SOL    HW2 5125   2.404   0.147   4.181
 1706SOL     OW 5126   3.296   1.188   3.765
 1706SOL    HW1 5127   3.328   1.112   3.822
 1706SOL    HW2 5128   3.204   1.215   3.795
 1707SOL     OW 5129   2.159   0.035   3.895
 1707SOL    HW1 5130   2.208   0.119   3.874
 1707SOL    HW2 5131   2.221  -0.030   3.940
 1708SOL     OW 5132   2.797   0.236   4.204
 1708SOL    HW1 5133   2.749   0.277   4.126
 1708SOL    HW2 5134   2.896   0.234   4.185
 1709SOL     OW 5135   2.321   1.152   4.465
 1709SOL    HW1 5136   2.250   1.125   4.530
 1709SOL    HW2 5137   2.295   1.124   4.372
 1710SOL     OW 5138   3.133   1.797   4.315
 1710SOL    HW1 5139   3.177   1.861   4.251
 1710SOL    HW2 5140   3.083   1.849   4.385
 1711SOL     OW 5141   2.894   0.549   3.740
 1711SOL    HW1 5142   2.853   0.631   3.701
 1711SOL    HW2 5143   2.958   0.575   3.813
 1712SOL     OW 5144   2.728   0.454   4.366
 1712SOL    HW1 5145   2.696   0.526   4.304
 1712SOL    HW2 5146   2.752   0.373   4.313
 1713SOL     OW 5147   3.719   0.833   4.101
 1713SOL    HW1 5148   3.761   0.769   4.165
 1713SOL    HW2 5149   3.681   0.782   4.023
 1714SOL     OW 5150   2.350   1.385   3.898
 1714SOL    HW1 5151   2.263   1.370   3.945
 1714SOL    HW2 5152   2.333   1.411   3.803
 1715SOL     OW 5153   3.526   1.280   4.381
 1715SOL    HW1 5154   3.625   1.288   4.395
 1715SOL    HW2 5155   3.481   1.364   4.412
 1716SOL     OW 5156   3.252   0.575   3.802
 1716SOL    HW1 5157   3.198   0.554   3.883
 1716SOL    HW2 5158   3.343   0.534   3.811
 1717SOL     OW 5159   2.389   0.256   4.052
 1717SOL    HW1 5160   2.416   0.197   3.977
 1717SOL    HW2 5161   2.389   0.351   4.021
 1718SOL     OW 5162   2.973   1.195   4.824
 1718SOL    HW1 5163   2.933   1.239   4.905
 1718SOL    HW2 5164   2.932   1.232   4.741
 1719SOL     OW 5165   2.567   1.050   4.092
 1719SOL    HW1 5166   2.553   1.057   4.191
 1719SOL    HW2 5167   2.651   0.999   4.074
 1720SOL     OW 5168   2.229   1.100   4.225
 1720SOL    HW1 5169   2.222   1.183   4.169
 1720SOL    HW2 5170   2.233   1.020   4.165
 1721SOL     OW 5171   3.114   1.348   4.112
 1721SOL    HW1 5172   3.164   1.425   4.152
 1721SOL    HW2 5173   3.019   1.350   4.144
 1722SOL     OW 5174   3.444   0.639   4.196
 1722SOL    HW1 5175   3.413   0.700   4.269
 1722SOL    HW2 5176   3.494   0.691   4.127
 1723SOL     OW 5177   3.071   0.525   3.999
 1723SOL    HW1 5178   3.084   0.441   4.053
 1723SOL    HW2 5179   3.042   0.599   4.059
 1724SOL     OW 5180   2.169   0.063   4.342
 1724SOL    HW1 5181   2.158   0.157   4.375
 1724SOL    HW2 5182   2.164   0.000   4.419
 1725SOL     OW 5183   3.484   0.367   4.098
 1725SOL    HW1 5184   3.486   0.291   4.162
 1725SOL    HW2 5185   3.436   0.444   4.138
 1726SOL     OW 5186   3.402   0.274   3.849
 1726SOL    HW1 5187   3.341   0.199   3.872
 1726SOL    HW2 5188   3.424   0.326   3.932
 1727SOL     OW 5189   3.165   0.838   3.766
 1727SOL    HW1 5190   3.199   0.745   3.781
 1727SOL    HW2 5191   3.183   0.865   3.671
 1728SOL     OW 5192   1.870   1.326   3.924
 1728SOL    HW1 5193   1.777   1.347   3.893
 1728SOL    HW2 5194   1.880   1.227   3.937
 1729SOL     OW 5195   2.677   0.572   4.049
 1729SOL    HW1 5196   2.684   0.483   4.003
 1729SOL    HW2 5197   2.583   0.606   4.041
 1730SOL     OW 5198   2.335   0.500   3.915
 1730SOL    HW1 5199   2.396   0.580   3.919
 1730SOL    HW2 5200   2.240   0.531   3.922
 1731SOL     OW 5201   3.164   0.855   4.033
 1731SOL    HW1 5202   3.078   0.824   4.075
 1731SOL    HW2 5203   3.160   0.841   3.934
 1732SOL     OW 5204   3.588   0.135   4.247
 1732SOL    HW1 5205   3.661   0.118   4.180
 1732SOL    HW2 5206   3.557   0.048   4.285
 1733SOL     OW 5207   3.250   1.573   4.201
 1733SOL    HW1 5208   3.317   1.585   4.127
 1733SOL    HW2 5209   3.210   1.662   4.224
 1734SOL     OW 5210   2.534   1.616   3.878
 1734SOL    HW1 5211   2.543   1.626   3.779
 1734SOL    HW2 5212   2.494   1.527   3.899
 1735SOL     OW 5213   3.703   0.175   4.687
 1735SOL    HW1 5214   3.742   0.090   4.651
 1735SOL    HW2 5215   3.605   0.177   4.668
 1736SOL     OW 5216   3.056   1.612   3.755
 1736SOL    HW1 5217   3.062   1.519   3.792
 1736SOL    HW2 5218   2.997   1.612   3.675
 1737SOL     OW 5219   2.778   0.910   4.015
 1737SOL    HW1 5220   2.841   0.948   3.947
 1737SOL    HW2 5221   2.818   0.827   4.054
 1738SOL     OW 5222   3.366   1.607   3.768
 1738SOL    HW1 5223   3.274   1.644   3.775
 1738SOL    HW2 5224   3.404   1.627   3.678
 1739SOL     OW 5225   2.452   1.487   4.215
 1739SOL    HW1 5226   2.494   1.429   4.145
 1739SOL    HW2 5227   2.408   1.566   4.171
 1740SOL     OW 5228   2.117   1.348   4.014
 1740SOL    HW1 5229   2.021   1.349   3.987
 1740SOL    HW2 5230   2.129   1.401   4.098
 1741SOL     OW 5231   1.937   0.345   3.757
 1741SOL    HW1 5232   1.845   0.317   3.728
 1741SOL    HW2 5233   1.968   0.422   3.701
 1742SOL     OW 5234   1.934   0.166   4.042
 1742SOL    HW1 5235   1.917   0.249   3.988
 1742SOL    HW2 5236   2.024   0.129   4.020
 1743SOL     OW 5237   3.045   1.335   3.843
 1743SOL    HW1 5238   2.946   1.324   3.845
 1743SOL    HW2 5239   3.079   1.350   3.936
 1744SOL     OW 5240   3.087   0.325   4.173
 1744SOL    HW1 5241   3.152   0.251   4.162
 1744SOL    HW2 5242   3.107   0.375   4.257
 1745SOL     OW 5243   2.456   0.745   4.376
 1745SOL    HW1 5244   2.506   0.830   4.357
 1745SOL    HW2 5245   2.368   0.747   4.328
 1746SOL     OW 5246   2.721   1.374   3.740
 1746SOL    HW1 5247   2.675   1.389   3.828
 1746SOL    HW2 5248   2.765   1.459   3.710
 1747SOL     OW 5249   2.523   1.790   4.677
 1747SOL    HW1 5250   2.477   1.878   4.664
 1747SOL    HW2 5251   2.622   1.802   4.670
 1748SOL     OW 5252   2.721   0.956   4.585
 1748SOL    HW1 5253   2.775   0.887   4.633
 1748SOL    HW2 5254   2.689   1.025   4.651
 1749SOL     OW 5255   2.945   0.984   3.811
 1749SOL    HW1 5256   2.922   1.037   3.729
 1749SOL    HW2 5257   3.026   0.928   3.792
 1750SOL     OW 5258   1.941   1.240   4.377
 1750SOL    HW1 5259   1.940   1.193   4.465
 1750SOL    HW2 5260   2.023   1.212   4.326
 1751SOL     OW 5261   2.290   0.424   4.244
 1751SOL    HW1 5262   2.320   0.352   4.182
 1751SOL    HW2 5263   2.251   0.384   4.327
 1752SOL     OW 5264   2.674   1.586   4.411
 1752SOL    HW1 5265   2.706   1.596   4.317
 1752SOL    HW2 5266   2.595   1.524   4.413
 1753SOL     OW 5267   2.632   1.330   4.025
 1753SOL    HW1 5268   2.586   1.243   4.042
 1753SOL    HW2 5269   2.723   1.327   4.066
 1754SOL     OW 5270   3.214   0.052   3.892
 1754SOL    HW1 5271   3.249   0.011   3.808
 1754SOL    HW2 5272   3.124   0.014   3.912
 1755SOL     OW 5273   3.162   0.453   4.415
 1755SOL    HW1 5274   3.103   0.533   4.419
 1755SOL    HW2 5275   3.177   0.418   4.508
 1756SOL     OW 5276   1.901   1.077   4.024
 1756SOL    HW1 5277   2.000   1.066   4.015
 1756SOL    HW2 5278   1.861   0.991   4.056
 1757SOL     OW 5279   2.737   1.646   4.061
 1757SOL    HW1 5280   2.660   1.611   4.007
 1757SOL    HW2 5281   2.705   1.717   4.123
 1758SOL     OW 5282   2.092   2.490   0.113
 1758SOL    HW1 5283   1.999   2.488   0.150
 1758SOL    HW2 5284   2.093   2.451   0.021
 1759SOL     OW 5285   2.087   2.137   0.996
 1759SOL    HW1 5286   2.122   2.120   1.088
 1759SOL    HW2 5287   1.999   2.092   0.984
 1760SOL     OW 5288   1.881   2.230   0.647
 1760SOL    HW1 5289   1.799   2.273   0.686
 1760SOL    HW2 5290   1.853   2.157   0.584
 1761SOL     OW 5291   2.431   3.137   1.165
 1761SOL    HW1 5292   2.338   3.130   1.128
 1761SOL    HW2 5293   2.442   3.226   1.209
 1762SOL     OW 5294   3.417   3.373   0.703
 1762SOL    HW1 5295   3.360   3.357   0.784
 1762SOL    HW2 5296   3.358   3.383   0.623
 1763SOL     OW 5297   2.997   2.565   0.717
 1763SOL    HW1 5298   3.054   2.643   0.692
 1763SOL    HW2 5299   2.937   2.591   0.793
 1764SOL     OW 5300   3.617   2.469   0.231
 1764SOL    HW1 5301   3.605   2.456   0.132
 1764SOL    HW2 5302   3.587   2.388   0.280
 1765SOL     OW 5303   2.630   3.006   1.023
 1765SOL    HW1 5304   2.552   3.023   1.083
 1765SOL    HW2 5305   2.664   3.093   0.987
 1766SOL     OW 5306   2.712   2.660   1.823
 1766SOL    HW1 5307   2.708   2.736   1.888
 1766SOL    HW2 5308   2.734   2.696   1.732
 1767SOL     OW 5309   2.547   2.874   0.665
 1767SOL    HW1 5310   2.616   2.858   0.735
 1767SOL    HW2 5311   2.474   2.931   0.703
 1768SOL     OW 5312   2.548   3.023   1.803
 1768SOL    HW1 5313   2.608   3.102   1.817
 1768SOL    HW2 5314   2.462   3.054   1.762
 1769SOL     OW 5315   2.197   3.297   1.061
 1769SOL    HW1 5316   2.119   3.266   1.008
 1769SOL    HW2 5317   2.255   3.355   1.004
 1770SOL     OW 5318   3.322   3.367   1.339
 1770SOL    HW1 5319   3.346   3.461   1.365
 1770SOL    HW2 5320   3.306   3.313   1.421
 1771SOL     OW 5321   2.300   2.254   1.499
 1771SOL    HW1 5322   2.382   2.198   1.508
 1771SOL    HW2 5323   2.219   2.196   1.503
 1772SOL     OW 5324   3.465   2.309   0.737
 1772SOL    HW1 5325   3.391   2.355   0.687
 1772SOL    HW2 5326   3.516   2.377   0.790
 1773SOL     OW 5327   2.093   3.575   0.483
 1773SOL    HW1 5328   2.127   3.652   0.537
 1773SOL    HW2 5329   2.137   3.575   0.393
 1774SOL     OW 5330   2.989   3.203   1.690
 1774SOL    HW1 5331   3.036   3.203   1.778
 1774SOL    HW2 5332   2.941   3.116   1.679
 1775SOL     OW 5333   2.092   3.296   0.538
 1775SOL    HW1 5334   2.066   3.392   0.538
 1775SOL    HW2 5335   2.021   3.242   0.583
 1776SOL     OW 5336   2.102   2.953   0.886
 1776SOL    HW1 5337   2.116   2.869   0.938
 1776SOL    HW2 5338   2.047   3.017   0.941
 1777SOL     OW 5339   2.482   3.648   1.439
 1777SOL    HW1 5340   2.390   3.631   1.474
 1777SOL    HW2 5341   2.510   3.740   1.465
 1778SOL     OW 5342   2.468   2.826   0.123
 1778SOL    HW1 5343   2.475   2.910   0.069
 1778SOL    HW2 5344   2.514   2.839   0.211
 1779SOL     OW 5345   3.456   1.976   1.480
 1779SOL    HW1 5346   3.438   2.043   1.408
 1779SOL    HW2 5347   3.453   2.022   1.569
 1780SOL     OW 5348   1.984   2.505   0.563
 1780SOL    HW1 5349   1.939   2.417   0.580
 1780SOL    HW2 5350   1.983   2.559   0.647
 1781SOL     OW 5351   3.704   3.629   0.359
 1781SOL    HW1 5352   3.758   3.600   0.439
 1781SOL    HW2 5353   3.734   3.719   0.330
 1782SOL     OW 5354   1.889   3.458   0.117
 1782SOL    HW1 5355   1.870   3.362   0.138
 1782SOL    HW2 5356   1.856   3.516   0.192
 1783SOL     OW 5357   3.551   2.784   0.612
 1783SOL    HW1 5358   3.646   2.755   0.620
 1783SOL    HW2 5359   3.543   2.849   0.537
 1784SOL     OW 5360   3.503   2.970   0.432
 1784SOL    HW1 5361   3.589   2.972   0.380
 1784SOL    HW2 5362   3.517   3.017   0.520
 1785SOL     OW 5363   1.975   2.599   1.597
 1785SOL    HW1 5364   2.063   2.586   1.642
 1785SOL    HW2 5365   1.962   2.696   1.575
 1786SOL     OW 5366   2.475   3.227   0.726
 1786SOL    HW1 5367   2.426   3.140   0.735
 1786SOL    HW2 5368   2.452   3.270   0.639
 1787SOL     OW 5369   3.155   3.090   1.423
 1787SOL    HW1 5370   3.192   3.017   1.365
 1787SOL    HW2 5371   3.207   3.095   1.508
 1788SOL     OW 5372   2.671   1.866   0.502
 1788SOL    HW1 5373   2.711   1.957   0.493
 1788SOL    HW2 5374   2.571   1.874   0.508
 1789SOL     OW 5375   2.059   2.838   1.264
 1789SOL    HW1 5376   2.148   2.793   1.250
 1789SOL    HW2 5377   1.986   2.773   1.245
 1790SOL     OW 5378   3.387   2.861   0.190
 1790SOL    HW1 5379   3.324   2.785   0.203
 1790SOL    HW2 5380   3.435   2.879   0.276
 1791SOL     OW 5381   3.049   3.654   1.616
 1791SOL    HW1 5382   3.073   3.714   1.540
 1791SOL    HW2 5383   3.056   3.559   1.586
 1792SOL     OW 5384   2.179   2.113   1.801
 1792SOL    HW1 5385   2.250   2.184   1.807
 1792SOL    HW2 5386   2.091   2.152   1.829
 1793SOL     OW 5387   3.328   3.279   0.953
 1793SOL    HW1 5388   3.269   3.285   1.033
 1793SOL    HW2 5389   3.313   3.191   0.907
 1794SOL     OW 5390   3.529   3.576   0.572
 1794SOL    HW1 5391   3.488   3.553   0.484
 1794SOL    HW2 5392   3.511   3.502   0.637
 1795SOL     OW 5393   2.460   2.591   0.270
 1795SOL    HW1 5394   2.484   2.660   0.202
 1795SOL    HW2 5395   2.382   2.624   0.324
 1796SOL     OW 5396   3.143   2.207   0.944
 1796SOL    HW1 5397   3.057   2.157   0.931
 1796SOL    HW2 5398   3.205   2.153   1.000
 1797SOL     OW 5399   3.438   3.524   0.307
 1797SOL    HW1 5400   3.527   3.570   0.310
 1797SOL    HW2 5401   3.417   3.500   0.212
 1798SOL     OW 5402   2.669   2.467   1.465
 1798SOL    HW1 5403   2.622   2.464   1.554
 1798SOL    HW2 5404   2.618   2.412   1.399
 1799SOL     OW 5405   3.256   2.331   1.674
 1799SOL    HW1 5406   3.236   2.374   1.762
 1799SOL    HW2 5407   3.334   2.269   1.683
 1800SOL     OW 5408   2.835   2.752   1.572
 1800SOL    HW1 5409   2.881   2.668   1.543
 1800SOL    HW2 5410   2.779   2.786   1.497
 1801SOL     OW 5411   2.853   2.272   1.242
 1801SOL    HW1 5412   2.776   2.306   1.296
 1801SOL    HW2 5413   2.819   2.221   1.163
 1802SOL     OW 5414   2.903   2.563   0.429
 1802SOL    HW1 5415   2.929   2.559   0.525
 1802SOL    HW2 5416   2.818   2.512   0.415
 1803SOL     OW 5417   1.938   2.673   0.789
 1803SOL    HW1 5418   2.037   2.661   0.798
 1803SOL    HW2 5419   1.914   2.768   0.810
 1804SOL     OW 5420   1.992   3.683   1.571
 1804SOL    HW1 5421   1.982   3.668   1.670
 1804SOL    HW2 5422   1.906   3.719   1.535
 1805SOL     OW 5423   2.727   2.210   0.195
 1805SOL    HW1 5424   2.786   2.273   0.146
 1805SOL    HW2 5425   2.746   2.116   0.166
 1806SOL     OW 5426   3.581   2.447   1.831
 1806SOL    HW1 5427   3.555   2.536   1.795
 1806SOL    HW2 5428   3.579   2.379   1.758
 1807SOL     OW 5429   3.224   3.006   0.545
 1807SOL    HW1 5430   3.307   2.977   0.497
 1807SOL    HW2 5431   3.175   3.073   0.489
 1808SOL     OW 5432   2.412   2.058   0.885
 1808SOL    HW1 5433   2.407   2.053   0.985
 1808SOL    HW2 5434   2.414   2.154   0.856
 1809SOL     OW 5435   2.870   3.318   0.477
 1809SOL    HW1 5436   2.824   3.390   0.425
 1809SOL    HW2 5437   2.866   3.338   0.575
 1810SOL     OW 5438   2.213   3.663   0.853
 1810SOL    HW1 5439   2.263   3.577   0.859
 1810SOL    HW2 5440   2.278   3.740   0.850
 1811SOL     OW 5441   3.657   2.928   0.873
 1811SOL    HW1 5442   3.595   2.913   0.797
 1811SOL    HW2 5443   3.605   2.939   0.958
 1812SOL     OW 5444   3.089   3.412   1.506
 1812SOL    HW1 5445   3.095   3.335   1.570
 1812SOL    HW2 5446   3.037   3.386   1.426
 1813SOL     OW 5447   2.183   2.805   0.242
 1813SOL    HW1 5448   2.265   2.844   0.200
 1813SOL    HW2 5449   2.156   2.723   0.193
 1814SOL     OW 5450   3.320   2.597   0.728
 1814SOL    HW1 5451   3.315   2.532   0.803
 1814SOL    HW2 5452   3.400   2.656   0.741
 1815SOL     OW 5453   2.323   3.128   1.727
 1815SOL    HW1 5454   2.273   3.129   1.641
 1815SOL    HW2 5455   2.260   3.110   1.803
 1816SOL     OW 5456   2.973   3.638   0.237
 1816SOL    HW1 5457   2.913   3.576   0.287
 1816SOL    HW2 5458   3.004   3.594   0.152
 1817SOL     OW 5459   2.064   2.147   1.498
 1817SOL    HW1 5460   1.984   2.207   1.485
 1817SOL    HW2 5461   2.054   2.098   1.584
 1818SOL     OW 5462   3.494   3.239   0.081
 1818SOL    HW1 5463   3.462   3.333   0.071
 1818SOL    HW2 5464   3.418   3.176   0.069
 1819SOL     OW 5465   2.326   3.605   0.323
 1819SOL    HW1 5466   2.359   3.644   0.409
 1819SOL    HW2 5467   2.402   3.598   0.258
 1820SOL     OW 5468   3.262   1.969   0.426
 1820SOL    HW1 5469   3.238   1.932   0.336
 1820SOL    HW2 5470   3.361   1.985   0.430
 1821SOL     OW 5471   2.111   3.647   1.241
 1821SOL    HW1 5472   2.168   3.582   1.291
 1821SOL    HW2 5473   2.095   3.614   1.148
 1822SOL     OW 5474   2.802   3.560   0.904
 1822SOL    HW1 5475   2.882   3.503   0.925
 1822SOL    HW2 5476   2.753   3.520   0.827
 1823SOL     OW 5477   2.244   2.562   0.480
 1823SOL    HW1 5478   2.289   2.472   0.477
 1823SOL    HW2 5479   2.150   2.551   0.513
 1824SOL     OW 5480   3.409   2.084   1.729
 1824SOL    HW1 5481   3.404   2.121   1.821
 1824SOL    HW2 5482   3.337   2.015   1.717
 1825SOL     OW 5483   2.643   2.126   1.749
 1825SOL    HW1 5484   2.710   2.065   1.792
 1825SOL    HW2 5485   2.570   2.145   1.814
 1826SOL     OW 5486   2.750   3.376   1.195
 1826SOL    HW1 5487   2.727   3.351   1.101
 1826SOL    HW2 5488   2.811   3.307   1.234
 1827SOL     OW 5489   3.213   2.452   1.433
 1827SOL    HW1 5490   3.241   2.409   1.518
 1827SOL    HW2 5491   3.238   2.548   1.434
 1828SOL     OW 5492   2.665   3.264   0.924
 1828SOL    HW1 5493   2.755   3.278   0.882
 1828SOL    HW2 5494   2.594   3.266   0.853
 1829SOL     OW 5495   2.784   2.365   0.899
 1829SOL    HW1 5496   2.759   2.356   0.803
 1829SOL    HW2 5497   2.832   2.283   0.930
 1830SOL     OW 5498   2.401   1.926   0.512
 1830SOL    HW1 5499   2.320   1.927   0.570
 1830SOL    HW2 5500   2.404   2.009   0.457
 1831SOL     OW 5501   3.296   3.050   0.041
 1831SOL    HW1 5502   3.328   2.974   0.098
 1831SOL    HW2 5503   3.204   3.077   0.071
 1832SOL     OW 5504   2.797   2.098   0.480
 1832SOL    HW1 5505   2.749   2.139   0.402
 1832SOL    HW2 5506   2.896   2.096   0.461
 1833SOL     OW 5507   2.938   2.545   1.464
 1833SOL    HW1 5508   2.858   2.484   1.467
 1833SOL    HW2 5509   3.019   2.492   1.440
 1834SOL     OW 5510   3.089   3.432   0.793
 1834SOL    HW1 5511   3.110   3.506   0.728
 1834SOL    HW2 5512   3.157   3.432   0.866
 1835SOL     OW 5513   2.321   3.014   0.741
 1835SOL    HW1 5514   2.250   2.987   0.806
 1835SOL    HW2 5515   2.295   2.986   0.648
 1836SOL     OW 5516   3.133   3.659   0.591
 1836SOL    HW1 5517   3.177   3.723   0.527
 1836SOL    HW2 5518   3.083   3.711   0.661
 1837SOL     OW 5519   2.894   2.411   0.016
 1837SOL    HW1 5520   2.853   2.493  -0.023
 1837SOL    HW2 5521   2.958   2.437   0.089
 1838SOL     OW 5522   1.940   2.418   1.386
 1838SOL    HW1 5523   2.032   2.417   1.345
 1838SOL    HW2 5524   1.934   2.492   1.453
 1839SOL     OW 5525   2.423   2.084   1.147
 1839SOL    HW1 5526   2.461   2.000   1.184
 1839SOL    HW2 5527   2.335   2.103   1.191
 1840SOL     OW 5528   2.728   2.316   0.642
 1840SOL    HW1 5529   2.696   2.388   0.580
 1840SOL    HW2 5530   2.752   2.235   0.589
 1841SOL     OW 5531   2.879   1.901   0.753
 1841SOL    HW1 5532   2.807   1.906   0.684
 1841SOL    HW2 5533   2.855   1.832   0.822
 1842SOL     OW 5534   3.291   3.035   0.867
 1842SOL    HW1 5535   3.236   2.951   0.860
 1842SOL    HW2 5536   3.317   3.064   0.775
 1843SOL     OW 5537   3.328   2.452   0.992
 1843SOL    HW1 5538   3.298   2.357   0.999
 1843SOL    HW2 5539   3.401   2.468   1.058
 1844SOL     OW 5540   3.719   2.695   0.377
 1844SOL    HW1 5541   3.761   2.631   0.441
 1844SOL    HW2 5542   3.681   2.644   0.299
 1845SOL     OW 5543   2.350   3.247   0.174
 1845SOL    HW1 5544   2.263   3.232   0.221
 1845SOL    HW2 5545   2.333   3.273   0.079
 1846SOL     OW 5546   3.526   3.142   0.657
 1846SOL    HW1 5547   3.625   3.150   0.671
 1846SOL    HW2 5548   3.481   3.226   0.688
 1847SOL     OW 5549   3.252   2.437   0.078
 1847SOL    HW1 5550   3.198   2.416   0.159
 1847SOL    HW2 5551   3.343   2.396   0.087
 1848SOL     OW 5552   2.389   2.118   0.328
 1848SOL    HW1 5553   2.416   2.059   0.253
 1848SOL    HW2 5554   2.389   2.213   0.297
 1849SOL     OW 5555   3.616   3.085   1.588
 1849SOL    HW1 5556   3.707   3.046   1.575
 1849SOL    HW2 5557   3.624   3.181   1.612
 1850SOL     OW 5558   2.926   3.209   1.340
 1850SOL    HW1 5559   2.846   3.186   1.395
 1850SOL    HW2 5560   3.009   3.183   1.389
 1851SOL     OW 5561   3.454   3.491   1.625
 1851SOL    HW1 5562   3.481   3.525   1.535
 1851SOL    HW2 5563   3.533   3.453   1.671
 1852SOL     OW 5564   2.973   3.057   1.100
 1852SOL    HW1 5565   2.933   3.101   1.181
 1852SOL    HW2 5566   2.932   3.094   1.017
 1853SOL     OW 5567   3.500   2.961   1.079
 1853SOL    HW1 5568   3.505   3.042   1.138
 1853SOL    HW2 5569   3.414   2.963   1.028
 1854SOL     OW 5570   2.777   1.951   1.402
 1854SOL    HW1 5571   2.802   1.931   1.307
 1854SOL    HW2 5572   2.849   2.007   1.444
 1855SOL     OW 5573   2.842   2.978   1.719
 1855SOL    HW1 5574   2.743   2.984   1.729
 1855SOL    HW2 5575   2.865   2.898   1.663
 1856SOL     OW 5576   2.567   2.912   0.368
 1856SOL    HW1 5577   2.553   2.919   0.467
 1856SOL    HW2 5578   2.651   2.861   0.350
 1857SOL     OW 5579   2.272   2.675   1.251
 1857SOL    HW1 5580   2.358   2.687   1.301
 1857SOL    HW2 5581   2.230   2.588   1.278
 1858SOL     OW 5582   3.136   2.248   1.262
 1858SOL    HW1 5583   3.157   2.322   1.326
 1858SOL    HW2 5584   3.047   2.265   1.219
 1859SOL     OW 5585   1.926   3.426   1.331
 1859SOL    HW1 5586   1.880   3.508   1.297
 1859SOL    HW2 5587   2.024   3.445   1.340
 1860SOL     OW 5588   2.229   2.962   0.501
 1860SOL    HW1 5589   2.222   3.045   0.445
 1860SOL    HW2 5590   2.233   2.882   0.441
 1861SOL     OW 5591   2.428   2.399   0.865
 1861SOL    HW1 5592   2.440   2.465   0.791
 1861SOL    HW2 5593   2.474   2.433   0.948
 1862SOL     OW 5594   3.114   3.210   0.388
 1862SOL    HW1 5595   3.164   3.287   0.428
 1862SOL    HW2 5596   3.019   3.212   0.420
 1863SOL     OW 5597   3.134   3.307   1.142
 1863SOL    HW1 5598   3.181   3.320   1.229
 1863SOL    HW2 5599   3.068   3.233   1.151
 1864SOL     OW 5600   3.444   2.501   0.472
 1864SOL    HW1 5601   3.413   2.562   0.545
 1864SOL    HW2 5602   3.494   2.553   0.403
 1865SOL     OW 5603   2.216   3.372   1.329
 1865SOL    HW1 5604   2.195   3.328   1.242
 1865SOL    HW2 5605   2.313   3.398   1.332
 1866SOL     OW 5606   2.264   2.613   1.598
 1866SOL    HW1 5607   2.332   2.668   1.551
 1866SOL    HW2 5608   2.304   2.525   1.625
 1867SOL     OW 5609   3.449   2.641   1.670
 1867SOL    HW1 5610   3.357   2.679   1.665
 1867SOL    HW2 5611   3.509   2.688   1.605
 1868SOL     OW 5612   2.875   1.967   1.770
 1868SOL    HW1 5613   2.881   2.052   1.718
 1868SOL    HW2 5614   2.907   1.891   1.713
 1869SOL     OW 5615   2.366   1.912   1.740
 1869SOL    HW1 5616   2.324   1.855   1.670
 1869SOL    HW2 5617   2.300   1.981   1.772
 1870SOL     OW 5618   2.435   2.732   1.029
 1870SOL    HW1 5619   2.479   2.821   1.020
 1870SOL    HW2 5620   2.372   2.732   1.106
 1871SOL     OW 5621   3.222   2.724   1.045
 1871SOL    HW1 5622   3.147   2.724   0.979
 1871SOL    HW2 5623   3.259   2.632   1.054
 1872SOL     OW 5624   3.071   2.387   0.275
 1872SOL    HW1 5625   3.084   2.303   0.329
 1872SOL    HW2 5626   3.042   2.461   0.335
 1873SOL     OW 5627   2.169   2.075   1.231
 1873SOL    HW1 5628   2.146   2.112   1.321
 1873SOL    HW2 5629   2.139   1.980   1.225
 1874SOL     OW 5630   1.899   3.172   1.282
 1874SOL    HW1 5631   1.952   3.123   1.350
 1874SOL    HW2 5632   1.921   3.270   1.287
 1875SOL     OW 5633   2.594   2.496   1.064
 1875SOL    HW1 5634   2.653   2.470   0.988
 1875SOL    HW2 5635   2.566   2.592   1.053
 1876SOL     OW 5636   3.590   2.797   1.854
 1876SOL    HW1 5637   3.544   2.790   1.765
 1876SOL    HW2 5638   3.528   2.841   1.920
 1877SOL     OW 5639   2.169   1.925   0.618
 1877SOL    HW1 5640   2.158   2.019   0.651
 1877SOL    HW2 5641   2.164   1.862   0.695
 1878SOL     OW 5642   3.484   2.229   0.374
 1878SOL    HW1 5643   3.486   2.153   0.438
 1878SOL    HW2 5644   3.436   2.306   0.414
 1879SOL     OW 5645   2.885   2.628   0.966
 1879SOL    HW1 5646   2.900   2.649   1.062
 1879SOL    HW2 5647   2.855   2.533   0.957
 1880SOL     OW 5648   2.842   3.435   1.700
 1880SOL    HW1 5649   2.822   3.479   1.612
 1880SOL    HW2 5650   2.881   3.344   1.684
 1881SOL     OW 5651   3.721   3.380   1.605
 1881SOL    HW1 5652   3.735   3.407   1.510
 1881SOL    HW2 5653   3.804   3.402   1.658
 1882SOL     OW 5654   2.212   2.760   1.804
 1882SOL    HW1 5655   2.288   2.804   1.852
 1882SOL    HW2 5656   2.247   2.713   1.722
 1883SOL     OW 5657   3.402   2.136   0.125
 1883SOL    HW1 5658   3.341   2.061   0.148
 1883SOL    HW2 5659   3.424   2.188   0.208
 1884SOL     OW 5660   3.165   2.700   0.042
 1884SOL    HW1 5661   3.199   2.607   0.057
 1884SOL    HW2 5662   3.183   2.727  -0.053
 1885SOL     OW 5663   2.930   3.195   0.849
 1885SOL    HW1 5664   2.937   3.111   0.794
 1885SOL    HW2 5665   2.992   3.264   0.813
 1886SOL     OW 5666   2.181   2.672   0.949
 1886SOL    HW1 5667   2.274   2.708   0.954
 1886SOL    HW2 5668   2.175   2.587   1.001
 1887SOL     OW 5669   2.201   2.371   1.006
 1887SOL    HW1 5670   2.149   2.288   0.989
 1887SOL    HW2 5671   2.278   2.376   0.942
 1888SOL     OW 5672   3.000   2.242   1.678
 1888SOL    HW1 5673   2.955   2.305   1.742
 1888SOL    HW2 5674   3.093   2.273   1.661
 1889SOL     OW 5675   3.022   2.069   1.477
 1889SOL    HW1 5676   3.022   2.133   1.554
 1889SOL    HW2 5677   3.050   2.117   1.394
 1890SOL     OW 5678   1.870   3.188   0.200
 1890SOL    HW1 5679   1.777   3.209   0.169
 1890SOL    HW2 5680   1.880   3.089   0.213
 1891SOL     OW 5681   1.950   3.663   0.927
 1891SOL    HW1 5682   1.908   3.577   0.900
 1891SOL    HW2 5683   2.044   3.666   0.893
 1892SOL     OW 5684   2.366   3.430   0.910
 1892SOL    HW1 5685   2.432   3.504   0.919
 1892SOL    HW2 5686   2.410   3.351   0.868
 1893SOL     OW 5687   2.864   2.658   1.238
 1893SOL    HW1 5688   2.905   2.626   1.324
 1893SOL    HW2 5689   2.768   2.631   1.235
 1894SOL     OW 5690   1.902   2.406   1.114
 1894SOL    HW1 5691   1.987   2.373   1.073
 1894SOL    HW2 5692   1.915   2.421   1.212
 1895SOL     OW 5693   2.051   2.382   1.722
 1895SOL    HW1 5694   2.110   2.342   1.652
 1895SOL    HW2 5695   1.993   2.453   1.681
 1896SOL     OW 5696   3.231   2.812   1.660
 1896SOL    HW1 5697   3.270   2.901   1.680
 1896SOL    HW2 5698   3.241   2.792   1.563
 1897SOL     OW 5699   2.677   2.434   0.325
 1897SOL    HW1 5700   2.684   2.345   0.279
 1897SOL    HW2 5701   2.583   2.468   0.317
 1898SOL     OW 5702   3.519   2.466   1.206
 1898SOL    HW1 5703   3.481   2.397   1.268
 1898SOL    HW2 5704   3.601   2.430   1.162
 1899SOL     OW 5705   2.114   3.426   1.744
 1899SOL    HW1 5706   2.084   3.483   1.820
 1899SOL    HW2 5707   2.107   3.329   1.770
 1900SOL     OW 5708   2.533   2.326   1.269
 1900SOL    HW1 5709   2.499   2.237   1.239
 1900SOL    HW2 5710   2.559   2.380   1.189
 1901SOL     OW 5711   2.792   3.540   1.465
 1901SOL    HW1 5712   2.768   3.522   1.370
 1901SOL    HW2 5713   2.822   3.634   1.475
 1902SOL     OW 5714   2.335   2.362   0.191
 1902SOL    HW1 5715   2.396   2.442   0.195
 1902SOL    HW2 5716   2.240   2.393   0.198
 1903SOL     OW 5717   2.021   2.999   1.466
 1903SOL    HW1 5718   2.043   2.938   1.542
 1903SOL    HW2 5719   2.031   2.950   1.380
 1904SOL     OW 5720   3.209   2.921   1.234
 1904SOL    HW1 5721   3.233   2.858   1.160
 1904SOL    HW2 5722   3.119   2.961   1.216
 1905SOL     OW 5723   3.164   2.717   0.309
 1905SOL    HW1 5724   3.078   2.686   0.351
 1905SOL    HW2 5725   3.160   2.703   0.210
 1906SOL     OW 5726   3.621   3.609   1.154
 1906SOL    HW1 5727   3.682   3.639   1.081
 1906SOL    HW2 5728   3.583   3.520   1.132
 1907SOL     OW 5729   3.114   3.593   1.128
 1907SOL    HW1 5730   3.198   3.598   1.074
 1907SOL    HW2 5731   3.091   3.497   1.146
 1908SOL     OW 5732   1.945   3.120   1.022
 1908SOL    HW1 5733   1.940   3.119   1.122
 1908SOL    HW2 5734   1.862   3.079   0.984
 1909SOL     OW 5735   2.550   3.524   1.716
 1909SOL    HW1 5736   2.494   3.605   1.725
 1909SOL    HW2 5737   2.602   3.528   1.630
 1910SOL     OW 5738   2.765   1.948   0.133
 1910SOL    HW1 5739   2.816   1.949   0.047
 1910SOL    HW2 5740   2.821   1.906   0.204
 1911SOL     OW 5741   3.588   1.997   0.523
 1911SOL    HW1 5742   3.661   1.980   0.456
 1911SOL    HW2 5743   3.557   1.910   0.561
 1912SOL     OW 5744   3.250   3.435   0.477
 1912SOL    HW1 5745   3.317   3.447   0.403
 1912SOL    HW2 5746   3.210   3.524   0.500
 1913SOL     OW 5747   1.992   3.656   1.851
 1913SOL    HW1 5748   1.951   3.582   1.904
 1913SOL    HW2 5749   2.056   3.707   1.909
 1914SOL     OW 5750   3.142   2.789   0.672
 1914SOL    HW1 5751   3.202   2.708   0.674
 1914SOL    HW2 5752   3.182   2.858   0.612
 1915SOL     OW 5753   2.692   3.135   1.422
 1915SOL    HW1 5754   2.687   3.168   1.517
 1915SOL    HW2 5755   2.606   3.154   1.376
 1916SOL     OW 5756   2.534   3.478   0.154
 1916SOL    HW1 5757   2.543   3.488   0.055
 1916SOL    HW2 5758   2.494   3.389   0.175
 1917SOL     OW 5759   3.512   3.582   1.394
 1917SOL    HW1 5760   3.565   3.592   1.310
 1917SOL    HW2 5761   3.485   3.672   1.428
 1918SOL     OW 5762   3.703   2.037   0.963
 1918SOL    HW1 5763   3.742   1.952   0.927
 1918SOL    HW2 5764   3.605   2.039   0.944
 1919SOL     OW 5765   2.125   2.188   0.720
 1919SOL    HW1 5766   2.046   2.239   0.686
 1919SOL    HW2 5767   2.116   2.173   0.818
 1920SOL     OW 5768   3.056   3.474   0.031
 1920SOL    HW1 5769   3.062   3.381   0.068
 1920SOL    HW2 5770   2.997   3.474  -0.049
 1921SOL     OW 5771   2.684   2.864   1.372
 1921SOL    HW1 5772   2.724   2.863   1.280
 1921SOL    HW2 5773   2.694   2.956   1.412
 1922SOL     OW 5774   2.778   2.772   0.291
 1922SOL    HW1 5775   2.841   2.810   0.223
 1922SOL    HW2 5776   2.818   2.689   0.330
 1923SOL     OW 5777   3.366   3.469   0.044
 1923SOL    HW1 5778   3.274   3.506   0.051
 1923SOL    HW2 5779   3.404   3.489  -0.046
 1924SOL     OW 5780   2.234   3.150   1.490
 1924SOL    HW1 5781   2.221   3.243   1.456
 1924SOL    HW2 5782   2.150   3.098   1.477
 1925SOL     OW 5783   3.476   3.154   1.289
 1925SOL    HW1 5784   3.536   3.157   1.369
 1925SOL    HW2 5785   3.401   3.218   1.302
 1926SOL     OW 5786   2.901   2.960   0.696
 1926SOL    HW1 5787   2.831   2.913   0.750
 1926SOL    HW2 5788   2.960   2.892   0.653
 1927SOL     OW 5789   2.876   2.098   0.971
 1927SOL    HW1 5790   2.868   2.062   0.878
 1927SOL    HW2 5791   2.874   2.022   1.036
 1928SOL     OW 5792   2.452   3.349   0.491
 1928SOL    HW1 5793   2.494   3.291   0.421
 1928SOL    HW2 5794   2.408   3.428   0.447
 1929SOL     OW 5795   3.571   2.247   1.381
 1929SOL    HW1 5796   3.644   2.316   1.385
 1929SOL    HW2 5797   3.599   2.172   1.322
 1930SOL     OW 5798   2.117   3.210   0.290
 1930SOL    HW1 5799   2.021   3.211   0.263
 1930SOL    HW2 5800   2.129   3.263   0.374
 1931SOL     OW 5801   1.967   2.875   1.726
 1931SOL    HW1 5802   1.890   2.842   1.780
 1931SOL    HW2 5803   2.052   2.845   1.768
 1932SOL     OW 5804   2.534   2.065   1.489
 1932SOL    HW1 5805   2.624   2.049   1.449
 1932SOL    HW2 5806   2.542   2.070   1.588
 1933SOL     OW 5807   1.937   2.207   0.033
 1933SOL    HW1 5808   1.845   2.179   0.004
 1933SOL    HW2 5809   1.968   2.284  -0.023
 1934SOL     OW 5810   3.302   2.718   1.398
 1934SOL    HW1 5811   3.245   2.770   1.335
 1934SOL    HW2 5812   3.398   2.730   1.374
 1935SOL     OW 5813   3.045   3.197   0.119
 1935SOL    HW1 5814   2.946   3.186   0.121
 1935SOL    HW2 5815   3.079   3.212   0.212
 1936SOL     OW 5816   2.475   2.704   1.431
 1936SOL    HW1 5817   2.531   2.785   1.414
 1936SOL    HW2 5818   2.534   2.624   1.434
 1937SOL     OW 5819   3.355   3.629   0.959
 1937SOL    HW1 5820   3.388   3.693   0.890
 1937SOL    HW2 5821   3.421   3.623   1.034
 1938SOL     OW 5822   2.578   2.427   1.708
 1938SOL    HW1 5823   2.597   2.492   1.782
 1938SOL    HW2 5824   2.638   2.347   1.717
 1939SOL     OW 5825   3.312   3.082   1.633
 1939SOL    HW1 5826   3.303   3.072   1.732
 1939SOL    HW2 5827   3.408   3.075   1.607
 1940SOL     OW 5828   2.252   3.603   1.560
 1940SOL    HW1 5829   2.161   3.644   1.558
 1940SOL    HW2 5830   2.245   3.509   1.592
 1941SOL     OW 5831   3.536   2.745   1.254
 1941SOL    HW1 5832   3.509   2.656   1.217
 1941SOL    HW2 5833   3.537   2.813   1.181
 1942SOL     OW 5834   3.087   2.187   0.449
 1942SOL    HW1 5835   3.152   2.113   0.438
 1942SOL    HW2 5836   3.107   2.237   0.533
 1943SOL     OW 5837   2.456   2.607   0.652
 1943SOL    HW1 5838   2.506   2.692   0.633
 1943SOL    HW2 5839   2.368   2.609   0.604
 1944SOL     OW 5840   3.639   2.204   1.642
 1944SOL    HW1 5841   3.622   2.235   1.548
 1944SOL    HW2 5842   3.555   2.167   1.680
 1945SOL     OW 5843   3.592   2.796   1.517
 1945SOL    HW1 5844   3.630   2.887   1.532
 1945SOL    HW2 5845   3.584   2.779   1.418
 1946SOL     OW 5846   2.721   3.236   0.016
 1946SOL    HW1 5847   2.675   3.251   0.104
 1946SOL    HW2 5848   2.765   3.321  -0.014
 1947SOL     OW 5849   2.523   3.652   0.953
 1947SOL    HW1 5850   2.477   3.740   0.940
 1947SOL    HW2 5851   2.622   3.664   0.946
 1948SOL     OW 5852   2.721   2.818   0.861
 1948SOL    HW1 5853   2.775   2.749   0.909
 1948SOL    HW2 5854   2.689   2.887   0.927
 1949SOL     OW 5855   2.945   2.846   0.087
 1949SOL    HW1 5856   2.922   2.899   0.005
 1949SOL    HW2 5857   3.026   2.790   0.068
 1950SOL     OW 5858   3.723   3.431   0.851
 1950SOL    HW1 5859   3.652   3.419   0.781
 1950SOL    HW2 5860   3.724   3.352   0.911
 1951SOL     OW 5861   2.083   3.176   1.844
 1951SOL    HW1 5862   2.018   3.103   1.823
 1951SOL    HW2 5863   2.087   3.190   1.942
 1952SOL     OW 5864   1.941   3.102   0.653
 1952SOL    HW1 5865   1.940   3.055   0.741
 1952SOL    HW2 5866   2.023   3.074   0.602
 1953SOL     OW 5867   2.534   3.253   1.624
 1953SOL    HW1 5868   2.456   3.203   1.662
 1953SOL    HW2 5869   2.531   3.348   1.655
 1954SOL     OW 5870   3.686   2.054   1.227
 1954SOL    HW1 5871   3.682   1.964   1.271
 1954SOL    HW2 5872   3.689   2.043   1.128
 1955SOL     OW 5873   2.290   2.286   0.520
 1955SOL    HW1 5874   2.320   2.214   0.458
 1955SOL    HW2 5875   2.251   2.246   0.603
 1956SOL     OW 5876   3.567   3.349   1.104
 1956SOL    HW1 5877   3.474   3.324   1.077
 1956SOL    HW2 5878   3.593   3.299   1.186
 1957SOL     OW 5879   2.179   2.409   1.280
 1957SOL    HW1 5880   2.217   2.350   1.352
 1957SOL    HW2 5881   2.219   2.383   1.192
 1958SOL     OW 5882   2.674   3.448   0.687
 1958SOL    HW1 5883   2.706   3.458   0.593
 1958SOL    HW2 5884   2.595   3.386   0.689
 1959SOL     OW 5885   3.286   2.076   1.112
 1959SOL    HW1 5886   3.338   2.011   1.167
 1959SOL    HW2 5887   3.237   2.139   1.173
 1960SOL     OW 5888   2.863   1.896   1.154
 1960SOL    HW1 5889   2.800   1.824   1.123
 1960SOL    HW2 5890   2.956   1.860   1.154
 1961SOL     OW 5891   2.632   3.192   0.301
 1961SOL    HW1 5892   2.586   3.105   0.318
 1961SOL    HW2 5893   2.723   3.189   0.342
 1962SOL     OW 5894   2.480   3.429   1.284
 1962SOL    HW1 5895   2.475   3.511   1.341
 1962SOL    HW2 5896   2.569   3.426   1.239
 1963SOL     OW 5897   3.214   1.914   0.168
 1963SOL    HW1 5898   3.249   1.873   0.084
 1963SOL    HW2 5899   3.124   1.876   0.188
 1964SOL     OW 5900   3.162   2.315   0.691
 1964SOL    HW1 5901   3.103   2.395   0.695
 1964SOL    HW2 5902   3.177   2.280   0.784
 1965SOL     OW 5903   3.455   2.083   0.882
 1965SOL    HW1 5904   3.371   2.082   0.936
 1965SOL    HW2 5905   3.457   2.166   0.826
 1966SOL     OW 5906   1.901   2.939   0.300
 1966SOL    HW1 5907   2.000   2.928   0.291
 1966SOL    HW2 5908   1.861   2.853   0.332
 1967SOL     OW 5909   2.737   3.508   0.337
 1967SOL    HW1 5910   2.660   3.473   0.283
 1967SOL    HW2 5911   2.705   3.579   0.399
 1968SOL     OW 5912   2.092   2.490   1.975
 1968SOL    HW1 5913   1.999   2.488   2.012
 1968SOL    HW2 5914   2.093   2.451   1.883
 1969SOL     OW 5915   2.087   2.137   2.858
 1969SOL    HW1 5916   2.122   2.120   2.950
 1969SOL    HW2 5917   1.999   2.092   2.846
 1970SOL     OW 5918   1.881   2.230   2.509
 1970SOL    HW1 5919   1.799   2.273   2.548
 1970SOL    HW2 5920   1.853   2.157   2.446
 1971SOL     OW 5921   2.431   3.137   3.027
 1971SOL    HW1 5922   2.338   3.130   2.990
 1971SOL    HW2 5923   2.442   3.226   3.071
 1972SOL     OW 5924   3.417   3.373   2.565
 1972SOL    HW1 5925   3.360   3.357   2.646
 1972SOL    HW2 5926   3.358   3.383   2.485
 1973SOL     OW 5927   2.997   2.565   2.579
 1973SOL    HW1 5928   3.054   2.643   2.554
 1973SOL    HW2 5929   2.937   2.591   2.655
 1974SOL     OW 5930   3.617   2.469   2.093
 1974SOL    HW1 5931   3.605   2.456   1.994
 1974SOL    HW2 5932   3.587   2.388   2.142
 1975SOL     OW 5933   2.630   3.006   2.885
 1975SOL    HW1 5934   2.552   3.023   2.945
 1975SOL    HW2 5935   2.664   3.093   2.849
 1976SOL     OW 5936   2.712   2.660   3.685
 1976SOL    HW1 5937   2.708   2.736   3.750
 1976SOL    HW2 5938   2.734   2.696   3.594
 1977SOL     OW 5939   2.547   2.874   2.527
 1977SOL    HW1 5940   2.616   2.858   2.597
 1977SOL    HW2 5941   2.474   2.931   2.565
 1978SOL     OW 5942   2.548   3.023   3.665
 1978SOL    HW1 5943   2.608   3.102   3.679
 1978SOL    HW2 5944   2.462   3.054   3.624
 1979SOL     OW 5945   2.197   3.297   2.923
 1979SOL    HW1 5946   2.119   3.266   2.870
 1979SOL    HW2 5947   2.255   3.355   2.866
 1980SOL     OW 5948   3.322   3.367   3.201
 1980SOL    HW1 5949   3.346   3.461   3.227
 1980SOL    HW2 5950   3.306   3.313   3.283
 1981SOL     OW 5951   2.300   2.254   3.361
 1981SOL    HW1 5952   2.382   2.198   3.370
 1981SOL    HW2 5953   2.219   2.196   3.365
 1982SOL     OW 5954   3.465   2.309   2.599
 1982SOL    HW1 5955   3.391   2.355   2.549
 1982SOL    HW2 5956   3.516   2.377   2.652
 1983SOL     OW 5957   2.093   3.575   2.345
 1983SOL    HW1 5958   2.127   3.652   2.399
 1983SOL    HW2 5959   2.137   3.575   2.255
 1984SOL     OW 5960   2.989   3.203   3.552
 1984SOL    HW1 5961   3.036   3.203   3.640
 1984SOL    HW2 5962   2.941   3.116   3.541
 1985SOL     OW 5963   2.092   3.296   2.400
 1985SOL    HW1 5964   2.066   3.392   2.400
 1985SOL    HW2 5965   2.021   3.242   2.445
 1986SOL     OW 5966   2.102   2.953   2.748
 1986SOL    HW1 5967   2.116   2.869   2.800
 1986SOL    HW2 5968   2.047   3.017   2.803
 1987SOL     OW 5969   2.482   3.648   3.301
 1987SOL    HW1 5970   2.390   3.631   3.336
 1987SOL    HW2 5971   2.510   3.740   3.327
 1988SOL     OW 5972   2.468   2.826   1.985
 1988SOL    HW1 5973   2.475   2.910   1.931
 1988SOL    HW2 5974   2.514   2.839   2.073
 1989SOL     OW 5975   3.456   1.976   3.342
 1989SOL    HW1 5976   3.438   2.043   3.270
 1989SOL    HW2 5977   3.453   2.022   3.431
 1990SOL     OW 5978   1.984   2.505   2.425
 1990SOL    HW1 5979   1.939   2.417   2.442
 1990SOL    HW2 5980   1.983   2.559   2.509
 1991SOL     OW 5981   3.704   3.629   2.221
 1991SOL    HW1 5982   3.758   3.600   2.301
 1991SOL    HW2 5983   3.734   3.719   2.192
 1992SOL     OW 5984   1.889   3.458   1.979
 1992SOL    HW1 5985   1.870   3.362   2.000
 1992SOL    HW2 5986   1.856   3.516   2.054
 1993SOL     OW 5987   3.551   2.784   2.474
 1993SOL    HW1 5988   3.646   2.755   2.482
 1993SOL    HW2 5989   3.543   2.849   2.399
 1994SOL     OW 5990   3.503   2.970   2.294
 1994SOL    HW1 5991   3.589   2.972   2.242
 1994SOL    HW2 5992   3.517   3.017   2.382
 1995SOL     OW 5993   1.975   2.599   3.459
 1995SOL    HW1 5994   2.063   2.586   3.504
 1995SOL    HW2 5995   1.962   2.696   3.437
 1996SOL     OW 5996   2.475   3.227   2.588
 1996SOL    HW1 5997   2.426   3.140   2.597
 1996SOL    HW2 5998   2.452   3.270   2.501
 1997SOL     OW 5999   3.155   3.090   3.285
 1997SOL    HW1 6000   3.192   3.017   3.227
 1997SOL    HW2 6001   3.207   3.095   3.370
 1998SOL     OW 6002   2.671   1.866   2.364
 1998SOL    HW1 6003   2.711   1.957   2.355
 1998SOL    HW2 6004   2.571   1.874   2.370
 1999SOL     OW 6005   2.059   2.838   3.126
 1999SOL    HW1 6006   2.148   2.793   3.112
 1999SOL    HW2 6007   1.986   2.773   3.107
 2000SOL     OW 6008   3.387   2.861   2.052
 2000SOL    HW1 6009   3.324   2.785   2.065
 2000SOL    HW2 6010   3.435   2.879   2.138
 2001SOL     OW 6011   3.049   3.654   3.478
 2001SOL    HW1 6012   3.073   3.714   3.402
 2001SOL    HW2 6013   3.056   3.559   3.448
 2002SOL     OW 6014   2.179   2.113   3.663
 2002SOL    HW1 6015   2.250   2.184   3.669
 2002SOL    HW2 6016   2.091   2.152   3.691
 2003SOL     OW 6017   3.328   3.279   2.815
 2003SOL    HW1 6018   3.269   3.285   2.895
 2003SOL    HW2 6019   3.313   3.191   2.769
 2004SOL     OW 6020   3.529   3.576   2.434
 2004SOL    HW1 6021   3.488   3.553   2.346
 2004SOL    HW2 6022   3.511   3.502   2.499
 2005SOL     OW 6023   2.460   2.591   2.132
 2005SOL    HW1 6024   2.484   2.660   2.064
 2005SOL    HW2 6025   2.382   2.624   2.186
 2006SOL     OW 6026   3.143   2.207   2.806
 2006SOL    HW1 6027   3.057   2.157   2.793
 2006SOL    HW2 6028   3.205   2.153   2.862
 2007SOL     OW 6029   3.438   3.524   2.169
 2007SOL    HW1 6030   3.527   3.570   2.172
 2007SOL    HW2 6031   3.417   3.500   2.074
 2008SOL     OW 6032   2.669   2.467   3.327
 2008SOL    HW1 6033   2.622   2.464   3.416
 2008SOL    HW2 6034   2.618   2.412   3.261
 2009SOL     OW 6035   3.256   2.331   3.536
 2009SOL    HW1 6036   3.236   2.374   3.624
 2009SOL    HW2 6037   3.334   2.269   3.545
 2010SOL     OW 6038   2.835   2.752   3.434
 2010SOL    HW1 6039   2.881   2.668   3.405
 2010SOL    HW2 6040   2.779   2.786   3.359
 2011SOL     OW 6041   2.853   2.272   3.104
 2011SOL    HW1 6042   2.776   2.306   3.158
 2011SOL    HW2 6043   2.819   2.221   3.025
 2012SOL     OW 6044   2.903   2.563   2.291
 2012SOL    HW1 6045   2.929   2.559   2.387
 2012SOL    HW2 6046   2.818   2.512   2.277
 2013SOL     OW 6047   1.938   2.673   2.651
 2013SOL    HW1 6048   2.037   2.661   2.660
 2013SOL    HW2 6049   1.914   2.768   2.672
 2014SOL     OW 6050   1.992   3.683   3.433
 2014SOL    HW1 6051   1.982   3.668   3.532
 2014SOL    HW2 6052   1.906   3.719   3.397
 2015SOL     OW 6053   2.727   2.210   2.057
 2015SOL    HW1 6054   2.786   2.273   2.008
 2015SOL    HW2 6055   2.746   2.116   2.028
 2016SOL     OW 6056   3.581   2.447   3.693
 2016SOL    HW1 6057   3.555   2.536   3.657
 2016SOL    HW2 6058   3.579   2.379   3.620
 2017SOL     OW 6059   3.224   3.006   2.407
 2017SOL    HW1 6060   3.307   2.977   2.359
 2017SOL    HW2 6061   3.175   3.073   2.351
 2018SOL     OW 6062   2.412   2.058   2.747
 2018SOL    HW1 6063   2.407   2.053   2.847
 2018SOL    HW2 6064   2.414   2.154   2.718
 2019SOL     OW 6065   2.870   3.318   2.339
 2019SOL    HW1 6066   2.824   3.390   2.287
 2019SOL    HW2 6067   2.866   3.338   2.437
 2020SOL     OW 6068   2.213   3.663   2.715
 2020SOL    HW1 6069   2.263   3.577   2.721
 2020SOL    HW2 6070   2.278   3.740   2.712
 2021SOL     OW 6071   3.657   2.928   2.735
 2021SOL    HW1 6072   3.595   2.913   2.659
 2021SOL    HW2 6073   3.605   2.939   2.820
 2022SOL     OW 6074   3.089   3.412   3.368
 2022SOL    HW1 6075   3.095   3.335   3.432
 2022SOL    HW2 6076   3.037   3.386   3.288
 2023SOL     OW 6077   2.183   2.805   2.104
 2023SOL    HW1 6078   2.265   2.844   2.062
 2023SOL    HW2 6079   2.156   2.723   2.055
 2024SOL     OW 6080   3.320   2.597   2.590
 2024SOL    HW1 6081   3.315   2.532   2.665
 2024SOL    HW2 6082   3.400   2.656   2.603
 2025SOL     OW 6083   2.323   3.128   3.589
 2025SOL    HW1 6084   2.273   3.129   3.503
 2025SOL    HW2 6085   2.260   3.110   3.665
 2026SOL     OW 6086   2.973   3.638   2.099
 2026SOL    HW1 6087   2.913   3.576   2.149
 2026SOL    HW2 6088   3.004   3.594   2.014
 2027SOL     OW 6089   2.064   2.147   3.360
 2027SOL    HW1 6090   1.984   2.207   3.347
 2027SOL    HW2 6091   2.054   2.098   3.446
 2028SOL     OW 6092   3.494   3.239   1.943
 2028SOL    HW1 6093   3.462   3.333   1.933
 2028SOL    HW2 6094   3.418   3.176   1.931
 2029SOL     OW 6095   2.326   3.605   2.185
 2029SOL    HW1 6096   2.359   3.644   2.271
 2029SOL    HW2 6097   2.402   3.598   2.120
 2030SOL     OW 6098   3.262   1.969   2.288
 2030SOL    HW1 6099   3.238   1.932   2.198
 2030SOL    HW2 6100   3.361   1.985   2.292
 2031SOL     OW 6101   2.111   3.647   3.103
 2031SOL    HW1 6102   2.168   3.582   3.153
 2031SOL    HW2 6103   2.095   3.614   3.010
 2032SOL     OW 6104   2.802   3.560   2.766
 2032SOL    HW1 6105   2.882   3.503   2.787
 2032SOL    HW2 6106   2.753   3.520   2.689
 2033SOL     OW 6107   2.244   2.562   2.342
 2033SOL    HW1 6108   2.289   2.472   2.339
 2033SOL    HW2 6109   2.150   2.551   2.375
 2034SOL     OW 6110   3.409   2.084   3.591
 2034SOL    HW1 6111   3.404   2.121   3.683
 2034SOL    HW2 6112   3.337   2.015   3.579
 2035SOL     OW 6113   2.476   1.984   1.979
 2035SOL    HW1 6114   2.574   1.962   1.986
 2035SOL    HW2 6115   2.445   1.967   1.886
 2036SOL     OW 6116   2.643   2.126   3.611
 2036SOL    HW1 6117   2.710   2.065   3.654
 2036SOL    HW2 6118   2.570   2.145   3.676
 2037SOL     OW 6119   2.750   3.376   3.057
 2037SOL    HW1 6120   2.727   3.351   2.963
 2037SOL    HW2 6121   2.811   3.307   3.096
 2038SOL     OW 6122   3.213   2.452   3.295
 2038SOL    HW1 6123   3.241   2.409   3.380
 2038SOL    HW2 6124   3.238   2.548   3.296
 2039SOL     OW 6125   2.665   3.264   2.786
 2039SOL    HW1 6126   2.755   3.278   2.744
 2039SOL    HW2 6127   2.594   3.266   2.715
 2040SOL     OW 6128   2.784   2.365   2.761
 2040SOL    HW1 6129   2.759   2.356   2.665
 2040SOL    HW2 6130   2.832   2.283   2.792
 2041SOL     OW 6131   2.401   1.926   2.374
 2041SOL    HW1 6132   2.320   1.927   2.432
 2041SOL    HW2 6133   2.404   2.009   2.319
 2042SOL     OW 6134   3.296   3.050   1.903
 2042SOL    HW1 6135   3.328   2.974   1.960
 2042SOL    HW2 6136   3.204   3.077   1.933
 2043SOL     OW 6137   2.159   1.897   2.033
 2043SOL    HW1 6138   2.208   1.981   2.012
 2043SOL    HW2 6139   2.221   1.832   2.078
 2044SOL     OW 6140   2.797   2.098   2.342
 2044SOL    HW1 6141   2.749   2.139   2.264
 2044SOL    HW2 6142   2.896   2.096   2.323
 2045SOL     OW 6143   2.938   2.545   3.326
 2045SOL    HW1 6144   2.858   2.484   3.329
 2045SOL    HW2 6145   3.019   2.492   3.302
 2046SOL     OW 6146   3.089   3.432   2.655
 2046SOL    HW1 6147   3.110   3.506   2.590
 2046SOL    HW2 6148   3.157   3.432   2.728
 2047SOL     OW 6149   2.321   3.014   2.603
 2047SOL    HW1 6150   2.250   2.987   2.668
 2047SOL    HW2 6151   2.295   2.986   2.510
 2048SOL     OW 6152   3.133   3.659   2.453
 2048SOL    HW1 6153   3.177   3.723   2.389
 2048SOL    HW2 6154   3.083   3.711   2.523
 2049SOL     OW 6155   2.894   2.411   1.878
 2049SOL    HW1 6156   2.853   2.493   1.839
 2049SOL    HW2 6157   2.958   2.437   1.951
 2050SOL     OW 6158   1.940   2.418   3.248
 2050SOL    HW1 6159   2.032   2.417   3.207
 2050SOL    HW2 6160   1.934   2.492   3.315
 2051SOL     OW 6161   2.423   2.084   3.009
 2051SOL    HW1 6162   2.461   2.000   3.046
 2051SOL    HW2 6163   2.335   2.103   3.053
 2052SOL     OW 6164   2.728   2.316   2.504
 2052SOL    HW1 6165   2.696   2.388   2.442
 2052SOL    HW2 6166   2.752   2.235   2.451
 2053SOL     OW 6167   2.879   1.901   2.615
 2053SOL    HW1 6168   2.807   1.906   2.546
 2053SOL    HW2 6169   2.855   1.832   2.684
 2054SOL     OW 6170   3.291   3.035   2.729
 2054SOL    HW1 6171   3.236   2.951   2.722
 2054SOL    HW2 6172   3.317   3.064   2.637
 2055SOL     OW 6173   3.328   2.452   2.854
 2055SOL    HW1 6174   3.298   2.357   2.861
 2055SOL    HW2 6175   3.401   2.468   2.920
 2056SOL     OW 6176   3.719   2.695   2.239
 2056SOL    HW1 6177   3.761   2.631   2.303
 2056SOL    HW2 6178   3.681   2.644   2.161
 2057SOL     OW 6179   2.350   3.247   2.036
 2057SOL    HW1 6180   2.263   3.232   2.083
 2057SOL    HW2 6181   2.333   3.273   1.941
 2058SOL     OW 6182   3.526   3.142   2.519
 2058SOL    HW1 6183   3.625   3.150   2.533
 2058SOL    HW2 6184   3.481   3.226   2.550
 2059SOL     OW 6185   3.252   2.437   1.940
 2059SOL    HW1 6186   3.198   2.416   2.021
 2059SOL    HW2 6187   3.343   2.396   1.949
 2060SOL     OW 6188   3.616   3.085   3.450
 2060SOL    HW1 6189   3.707   3.046   3.437
 2060SOL    HW2 6190   3.624   3.181   3.474
 2061SOL     OW 6191   2.926   3.209   3.202
 2061SOL    HW1 6192   2.846   3.186   3.257
 2061SOL    HW2 6193   3.009   3.183   3.251
 2062SOL     OW 6194   3.454   3.491   3.487
 2062SOL    HW1 6195   3.481   3.525   3.397
 2062SOL    HW2 6196   3.533   3.453   3.533
 2063SOL     OW 6197   2.973   3.057   2.962
 2063SOL    HW1 6198   2.933   3.101   3.043
 2063SOL    HW2 6199   2.932   3.094   2.879
 2064SOL     OW 6200   3.500   2.961   2.941
 2064SOL    HW1 6201   3.505   3.042   3.000
 2064SOL    HW2 6202   3.414   2.963   2.890
 2065SOL     OW 6203   2.777   1.951   3.264
 2065SOL    HW1 6204   2.802   1.931   3.169
 2065SOL    HW2 6205   2.849   2.007   3.306
 2066SOL     OW 6206   2.842   2.978   3.581
 2066SOL    HW1 6207   2.743   2.984   3.591
 2066SOL    HW2 6208   2.865   2.898   3.525
 2067SOL     OW 6209   2.567   2.912   2.230
 2067SOL    HW1 6210   2.553   2.919   2.329
 2067SOL    HW2 6211   2.651   2.861   2.212
 2068SOL     OW 6212   2.272   2.675   3.113
 2068SOL    HW1 6213   2.358   2.687   3.163
 2068SOL    HW2 6214   2.230   2.588   3.140
 2069SOL     OW 6215   3.136   2.248   3.124
 2069SOL    HW1 6216   3.157   2.322   3.188
 2069SOL    HW2 6217   3.047   2.265   3.081
 2070SOL     OW 6218   1.926   3.426   3.193
 2070SOL    HW1 6219   1.880   3.508   3.159
 2070SOL    HW2 6220   2.024   3.445   3.202
 2071SOL     OW 6221   2.229   2.962   2.363
 2071SOL    HW1 6222   2.222   3.045   2.307
 2071SOL    HW2 6223   2.233   2.882   2.303
 2072SOL     OW 6224   2.428   2.399   2.727
 2072SOL    HW1 6225   2.440   2.465   2.653
 2072SOL    HW2 6226   2.474   2.433   2.810
 2073SOL     OW 6227   3.114   3.210   2.250
 2073SOL    HW1 6228   3.164   3.287   2.290
 2073SOL    HW2 6229   3.019   3.212   2.282
 2074SOL     OW 6230   3.134   3.307   3.004
 2074SOL    HW1 6231   3.181   3.320   3.091
 2074SOL    HW2 6232   3.068   3.233   3.013
 2075SOL     OW 6233   3.444   2.501   2.334
 2075SOL    HW1 6234   3.413   2.562   2.407
 2075SOL    HW2 6235   3.494   2.553   2.265
 2076SOL     OW 6236   2.216   3.372   3.191
 2076SOL    HW1 6237   2.195   3.328   3.104
 2076SOL    HW2 6238   2.313   3.398   3.194
 2077SOL     OW 6239   2.264   2.613   3.460
 2077SOL    HW1 6240   2.332   2.668   3.413
 2077SOL    HW2 6241   2.304   2.525   3.487
 2078SOL     OW 6242   3.449   2.641   3.532
 2078SOL    HW1 6243   3.357   2.679   3.527
 2078SOL    HW2 6244   3.509   2.688   3.467
 2079SOL     OW 6245   2.875   1.967   3.632
 2079SOL    HW1 6246   2.881   2.052   3.580
 2079SOL    HW2 6247   2.907   1.891   3.575
 2080SOL     OW 6248   2.366   1.912   3.602
 2080SOL    HW1 6249   2.324   1.855   3.532
 2080SOL    HW2 6250   2.300   1.981   3.634
 2081SOL     OW 6251   2.435   2.732   2.891
 2081SOL    HW1 6252   2.479   2.821   2.882
 2081SOL    HW2 6253   2.372   2.732   2.968
 2082SOL     OW 6254   3.222   2.724   2.907
 2082SOL    HW1 6255   3.147   2.724   2.841
 2082SOL    HW2 6256   3.259   2.632   2.916
 2083SOL     OW 6257   3.071   2.387   2.137
 2083SOL    HW1 6258   3.084   2.303   2.191
 2083SOL    HW2 6259   3.042   2.461   2.197
 2084SOL     OW 6260   2.169   2.075   3.093
 2084SOL    HW1 6261   2.146   2.112   3.183
 2084SOL    HW2 6262   2.139   1.980   3.087
 2085SOL     OW 6263   1.899   3.172   3.144
 2085SOL    HW1 6264   1.952   3.123   3.212
 2085SOL    HW2 6265   1.921   3.270   3.149
 2086SOL     OW 6266   2.594   2.496   2.926
 2086SOL    HW1 6267   2.653   2.470   2.850
 2086SOL    HW2 6268   2.566   2.592   2.915
 2087SOL     OW 6269   3.590   2.797   3.716
 2087SOL    HW1 6270   3.544   2.790   3.627
 2087SOL    HW2 6271   3.528   2.841   3.782
 2088SOL     OW 6272   2.169   1.925   2.480
 2088SOL    HW1 6273   2.158   2.019   2.513
 2088SOL    HW2 6274   2.164   1.862   2.557
 2089SOL     OW 6275   3.484   2.229   2.236
 2089SOL    HW1 6276   3.486   2.153   2.300
 2089SOL    HW2 6277   3.436   2.306   2.276
 2090SOL     OW 6278   2.885   2.628   2.828
 2090SOL    HW1 6279   2.900   2.649   2.924
 2090SOL    HW2 6280   2.855   2.533   2.819
 2091SOL     OW 6281   2.842   3.435   3.562
 2091SOL    HW1 6282   2.822   3.479   3.474
 2091SOL    HW2 6283   2.881   3.344   3.546
 2092SOL     OW 6284   3.721   3.380   3.467
 2092SOL    HW1 6285   3.735   3.407   3.372
 2092SOL    HW2 6286   3.804   3.402   3.520
 2093SOL     OW 6287   2.212   2.760   3.666
 2093SOL    HW1 6288   2.288   2.804   3.714
 2093SOL    HW2 6289   2.247   2.713   3.584
 2094SOL     OW 6290   3.402   2.136   1.987
 2094SOL    HW1 6291   3.341   2.061   2.010
 2094SOL    HW2 6292   3.424   2.188   2.070
 2095SOL     OW 6293   3.165   2.700   1.904
 2095SOL    HW1 6294   3.199   2.607   1.919
 2095SOL    HW2 6295   3.183   2.727   1.809
 2096SOL     OW 6296   2.930   3.195   2.711
 2096SOL    HW1 6297   2.937   3.111   2.656
 2096SOL    HW2 6298   2.992   3.264   2.675
 2097SOL     OW 6299   2.181   2.672   2.811
 2097SOL    HW1 6300   2.274   2.708   2.816
 2097SOL    HW2 6301   2.175   2.587   2.863
 2098SOL     OW 6302   2.201   2.371   2.868
 2098SOL    HW1 6303   2.149   2.288   2.851
 2098SOL    HW2 6304   2.278   2.376   2.804
 2099SOL     OW 6305   3.000   2.242   3.540
 2099SOL    HW1 6306   2.955   2.305   3.604
 2099SOL    HW2 6307   3.093   2.273   3.523
 2100SOL     OW 6308   3.022   2.069   3.339
 2100SOL    HW1 6309   3.022   2.133   3.416
 2100SOL    HW2 6310   3.050   2.117   3.256
 2101SOL     OW 6311   1.870   3.188   2.062
 2101SOL    HW1 6312   1.777   3.209   2.031
 2101SOL    HW2 6313   1.880   3.089   2.075
 2102SOL     OW 6314   1.950   3.663   2.789
 2102SOL    HW1 6315   1.908   3.577   2.762
 2102SOL    HW2 6316   2.044   3.666   2.755
 2103SOL     OW 6317   2.366   3.430   2.772
 2103SOL    HW1 6318   2.432   3.504   2.781
 2103SOL    HW2 6319   2.410   3.351   2.730
 2104SOL     OW 6320   2.864   2.658   3.100
 2104SOL    HW1 6321   2.905   2.626   3.186
 2104SOL    HW2 6322   2.768   2.631   3.097
 2105SOL     OW 6323   1.902   2.406   2.976
 2105SOL    HW1 6324   1.987   2.373   2.935
 2105SOL    HW2 6325   1.915   2.421   3.074
 2106SOL     OW 6326   2.051   2.382   3.584
 2106SOL    HW1 6327   2.110   2.342   3.514
 2106SOL    HW2 6328   1.993   2.453   3.543
 2107SOL     OW 6329   3.231   2.812   3.522
 2107SOL    HW1 6330   3.270   2.901   3.542
 2107SOL    HW2 6331   3.241   2.792   3.425
 2108SOL     OW 6332   2.677   2.434   2.187
 2108SOL    HW1 6333   2.684   2.345   2.141
 2108SOL    HW2 6334   2.583   2.468   2.179
 2109SOL     OW 6335   3.519   2.466   3.068
 2109SOL    HW1 6336   3.481   2.397   3.130
 2109SOL    HW2 6337   3.601   2.430   3.024
 2110SOL     OW 6338   2.114   3.426   3.606
 2110SOL    HW1 6339   2.084   3.483   3.682
 2110SOL    HW2 6340   2.107   3.329   3.632
 2111SOL     OW 6341   2.533   2.326   3.131
 2111SOL    HW1 6342   2.499   2.237   3.101
 2111SOL    HW2 6343   2.559   2.380   3.051
 2112SOL     OW 6344   2.792   3.540   3.327
 2112SOL    HW1 6345   2.768   3.522   3.232
 2112SOL    HW2 6346   2.822   3.634   3.337
 2113SOL     OW 6347   2.021   2.999   3.328
 2113SOL    HW1 6348   2.043   2.938   3.404
 2113SOL    HW2 6349   2.031   2.950   3.242
 2114SOL     OW 6350   3.209   2.921   3.096
 2114SOL    HW1 6351   3.233   2.858   3.022
 2114SOL    HW2 6352   3.119   2.961   3.078
 2115SOL     OW 6353   3.164   2.717   2.171
 2115SOL    HW1 6354   3.078   2.686   2.213
 2115SOL    HW2 6355   3.160   2.703   2.072
 2116SOL     OW 6356   3.621   3.609   3.016
 2116SOL    HW1 6357   3.682   3.639   2.943
 2116SOL    HW2 6358   3.583   3.520   2.994
 2117SOL     OW 6359   3.114   3.593   2.990
 2117SOL    HW1 6360   3.198   3.598   2.936
 2117SOL    HW2 6361   3.091   3.497   3.008
 2118SOL     OW 6362   1.945   3.120   2.884
 2118SOL    HW1 6363   1.940   3.119   2.984
 2118SOL    HW2 6364   1.862   3.079   2.846
 2119SOL     OW 6365   2.550   3.524   3.578
 2119SOL    HW1 6366   2.494   3.605   3.587
 2119SOL    HW2 6367   2.602   3.528   3.492
 2120SOL     OW 6368   3.588   1.997   2.385
 2120SOL    HW1 6369   3.661   1.980   2.318
 2120SOL    HW2 6370   3.557   1.910   2.423
 2121SOL     OW 6371   3.250   3.435   2.339
 2121SOL    HW1 6372   3.317   3.447   2.265
 2121SOL    HW2 6373   3.210   3.524   2.362
 2122SOL     OW 6374   1.992   3.656   3.713
 2122SOL    HW1 6375   1.951   3.582   3.766
 2122SOL    HW2 6376   2.056   3.707   3.771
 2123SOL     OW 6377   3.142   2.789   2.534
 2123SOL    HW1 6378   3.202   2.708   2.536
 2123SOL    HW2 6379   3.182   2.858   2.474
 2124SOL     OW 6380   2.692   3.135   3.284
 2124SOL    HW1 6381   2.687   3.168   3.379
 2124SOL    HW2 6382   2.606   3.154   3.238
 2125SOL     OW 6383   2.534   3.478   2.016
 2125SOL    HW1 6384   2.543   3.488   1.917
 2125SOL    HW2 6385   2.494   3.389   2.037
 2126SOL     OW 6386   3.512   3.582   3.256
 2126SOL    HW1 6387   3.565   3.592   3.172
 2126SOL    HW2 6388   3.485   3.672   3.290
 2127SOL     OW 6389   3.703   2.037   2.825
 2127SOL    HW1 6390   3.742   1.952   2.789
 2127SOL    HW2 6391   3.605   2.039   2.806
 2128SOL     OW 6392   3.056   3.474   1.893
 2128SOL    HW1 6393   3.062   3.381   1.930
 2128SOL    HW2 6394   2.997   3.474   1.813
 2129SOL     OW 6395   2.684   2.864   3.234
 2129SOL    HW1 6396   2.724   2.863   3.142
 2129SOL    HW2 6397   2.694   2.956   3.274
 2130SOL     OW 6398   2.778   2.772   2.153
 2130SOL    HW1 6399   2.841   2.810   2.085
 2130SOL    HW2 6400   2.818   2.689   2.192
 2131SOL     OW 6401   3.366   3.469   1.906
 2131SOL    HW1 6402   3.274   3.506   1.913
 2131SOL    HW2 6403   3.404   3.489   1.816
 2132SOL     OW 6404   2.234   3.150   3.352
 2132SOL    HW1 6405   2.221   3.243   3.318
 2132SOL    HW2 6406   2.150   3.098   3.339
 2133SOL     OW 6407   3.476   3.154   3.151
 2133SOL    HW1 6408   3.536   3.157   3.231
 2133SOL    HW2 6409   3.401   3.218   3.164
 2134SOL     OW 6410   2.901   2.960   2.558
 2134SOL    HW1 6411   2.831   2.913   2.612
 2134SOL    HW2 6412   2.960   2.892   2.515
 2135SOL     OW 6413   2.876   2.098   2.833
 2135SOL    HW1 6414   2.868   2.062   2.740
 2135SOL    HW2 6415   2.874   2.022   2.898
 2136SOL     OW 6416   2.452   3.349   2.353
 2136SOL    HW1 6417   2.494   3.291   2.283
 2136SOL    HW2 6418   2.408   3.428   2.309
 2137SOL     OW 6419   3.571   2.247   3.243
 2137SOL    HW1 6420   3.644   2.316   3.247
 2137SOL    HW2 6421   3.599   2.172   3.184
 2138SOL     OW 6422   2.117   3.210   2.152
 2138SOL    HW1 6423   2.021   3.211   2.125
 2138SOL    HW2 6424   2.129   3.263   2.236
 2139SOL     OW 6425   1.967   2.875   3.588
 2139SOL    HW1 6426   1.890   2.842   3.642
 2139SOL    HW2 6427   2.052   2.845   3.630
 2140SOL     OW 6428   2.534   2.065   3.351
 2140SOL    HW1 6429   2.624   2.049   3.311
 2140SOL    HW2 6430   2.542   2.070   3.450
 2141SOL     OW 6431   1.937   2.207   1.895
 2141SOL    HW1 6432   1.845   2.179   1.866
 2141SOL    HW2 6433   1.968   2.284   1.839
 2142SOL     OW 6434   3.302   2.718   3.260
 2142SOL    HW1 6435   3.245   2.770   3.197
 2142SOL    HW2 6436   3.398   2.730   3.236
 2143SOL     OW 6437   1.934   2.028   2.180
 2143SOL    HW1 6438   1.917   2.111   2.126
 2143SOL    HW2 6439   2.024   1.991   2.158
 2144SOL     OW 6440   3.045   3.197   1.981
 2144SOL    HW1 6441   2.946   3.186   1.983
 2144SOL    HW2 6442   3.079   3.212   2.074
 2145SOL     OW 6443   2.475   2.704   3.293
 2145SOL    HW1 6444   2.531   2.785   3.276
 2145SOL    HW2 6445   2.534   2.624   3.296
 2146SOL     OW 6446   3.355   3.629   2.821
 2146SOL    HW1 6447   3.388   3.693   2.752
 2146SOL    HW2 6448   3.421   3.623   2.896
 2147SOL     OW 6449   2.578   2.427   3.570
 2147SOL    HW1 6450   2.597   2.492   3.644
 2147SOL    HW2 6451   2.638   2.347   3.579
 2148SOL     OW 6452   3.312   3.082   3.495
 2148SOL    HW1 6453   3.303   3.072   3.594
 2148SOL    HW2 6454   3.408   3.075   3.469
 2149SOL     OW 6455   2.252   3.603   3.422
 2149SOL    HW1 6456   2.161   3.644   3.420
 2149SOL    HW2 6457   2.245   3.509   3.454
 2150SOL     OW 6458   3.536   2.745   3.116
 2150SOL    HW1 6459   3.509   2.656   3.079
 2150SOL    HW2 6460   3.537   2.813   3.043
 2151SOL     OW 6461   3.087   2.187   2.311
 2151SOL    HW1 6462   3.152   2.113   2.300
 2151SOL    HW2 6463   3.107   2.237   2.395
 2152SOL     OW 6464   2.456   2.607   2.514
 2152SOL    HW1 6465   2.506   2.692   2.495
 2152SOL    HW2 6466   2.368   2.609   2.466
 2153SOL     OW 6467   3.639   2.204   3.504
 2153SOL    HW1 6468   3.622   2.235   3.410
 2153SOL    HW2 6469   3.555   2.167   3.542
 2154SOL     OW 6470   3.592   2.796   3.379
 2154SOL    HW1 6471   3.630   2.887   3.394
 2154SOL    HW2 6472   3.584   2.779   3.280
 2155SOL     OW 6473   2.721   3.236   1.878
 2155SOL    HW1 6474   2.675   3.251   1.966
 2155SOL    HW2 6475   2.765   3.321   1.848
 2156SOL     OW 6476   2.523   3.652   2.815
 2156SOL    HW1 6477   2.477   3.740   2.802
 2156SOL    HW2 6478   2.622   3.664   2.808
 2157SOL     OW 6479   2.721   2.818   2.723
 2157SOL    HW1 6480   2.775   2.749   2.771
 2157SOL    HW2 6481   2.689   2.887   2.789
 2158SOL     OW 6482   2.945   2.846   1.949
 2158SOL    HW1 6483   2.922   2.899   1.867
 2158SOL    HW2 6484   3.026   2.790   1.930
 2159SOL     OW 6485   3.723   3.431   2.713
 2159SOL    HW1 6486   3.652   3.419   2.643
 2159SOL    HW2 6487   3.724   3.352   2.773
 2160SOL     OW 6488   2.083   3.176   3.706
 2160SOL    HW1 6489   2.018   3.103   3.685
 2160SOL    HW2 6490   2.087   3.190   3.804
 2161SOL     OW 6491   1.941   3.102   2.515
 2161SOL    HW1 6492   1.940   3.055   2.603
 2161SOL    HW2 6493   2.023   3.074   2.464
 2162SOL     OW 6494   2.534   3.253   3.486
 2162SOL    HW1 6495   2.456   3.203   3.524
 2162SOL    HW2 6496   2.531   3.348   3.517
 2163SOL     OW 6497   3.686   2.054   3.089
 2163SOL    HW1 6498   3.682   1.964   3.133
 2163SOL    HW2 6499   3.689   2.043   2.990
 2164SOL     OW 6500   3.567   3.349   2.966
 2164SOL    HW1 6501   3.474   3.324   2.939
 2164SOL    HW2 6502   3.593   3.299   3.048
 2165SOL     OW 6503   2.179   2.409   3.142
 2165SOL    HW1 6504   2.217   2.350   3.214
 2165SOL    HW2 6505   2.219   2.383   3.054
 2166SOL     OW 6506   2.674   3.448   2.549
 2166SOL    HW1 6507   2.706   3.458   2.455
 2166SOL    HW2 6508   2.595   3.386   2.551
 2167SOL     OW 6509   3.286   2.076   2.974
 2167SOL    HW1 6510   3.338   2.011   3.029
 2167SOL    HW2 6511   3.237   2.139   3.035
 2168SOL     OW 6512   2.863   1.896   3.016
 2168SOL    HW1 6513   2.800   1.824   2.985
 2168SOL    HW2 6514   2.956   1.860   3.016
 2169SOL     OW 6515   2.632   3.192   2.163
 2169SOL    HW1 6516   2.586   3.105   2.180
 2169SOL    HW2 6517   2.723   3.189   2.204
 2170SOL     OW 6518   2.480   3.429   3.146
 2170SOL    HW1 6519   2.475   3.511   3.203
 2170SOL    HW2 6520   2.569   3.426   3.101
 2171SOL     OW 6521   3.214   1.914   2.030
 2171SOL    HW1 6522   3.249   1.873   1.946
 2171SOL    HW2 6523   3.124   1.876   2.050
 2172SOL     OW 6524   3.162   2.315   2.553
 2172SOL    HW1 6525   3.103   2.395   2.557
 2172SOL    HW2 6526   3.177   2.280   2.646
 2173SOL     OW 6527   3.455   2.083   2.744
 2173SOL    HW1 6528   3.371   2.082   2.798
 2173SOL    HW2 6529   3.457   2.166   2.688
 2174SOL     OW 6530   1.901   2.939   2.162
 2174SOL    HW1 6531   2.000   2.928   2.153
 2174SOL    HW2 6532   1.861   2.853   2.194
 2175SOL     OW 6533   2.737   3.508   2.199
 2175SOL    HW1 6534   2.660   3.473   2.145
 2175SOL    HW2 6535   2.705   3.579   2.261
 2176SOL     OW 6536   2.092   2.490   3.837
 2176SOL    HW1 6537   1.999   2.488   3.874
 2176SOL    HW2 6538   2.093   2.451   3.745
 2177SOL     OW 6539   2.087   2.137   4.720
 2177SOL    HW1 6540   2.122   2.120   4.812
 2177SOL    HW2 6541   1.999   2.092   4.708
 2178SOL     OW 6542   1.881   2.230   4.371
 2178SOL    HW1 6543   1.799   2.273   4.410
 2178SOL    HW2 6544   1.853   2.157   4.308
 2179SOL     OW 6545   3.617   2.469   3.955
 2179SOL    HW1 6546   3.605   2.456   3.856
 2179SOL    HW2 6547   3.587   2.388   4.004
 2180SOL     OW 6548   2.547   2.874   4.389
 2180SOL    HW1 6549   2.616   2.858   4.459
 2180SOL    HW2 6550   2.474   2.931   4.427
 2181SOL     OW 6551   3.465   2.309   4.461
 2181SOL    HW1 6552   3.391   2.355   4.411
 2181SOL    HW2 6553   3.516   2.377   4.514
 2182SOL     OW 6554   2.093   3.575   4.207
 2182SOL    HW1 6555   2.127   3.652   4.261
 2182SOL    HW2 6556   2.137   3.575   4.117
 2183SOL     OW 6557   2.092   3.296   4.262
 2183SOL    HW1 6558   2.066   3.392   4.262
 2183SOL    HW2 6559   2.021   3.242   4.307
 2184SOL     OW 6560   2.468   2.826   3.847
 2184SOL    HW1 6561   2.475   2.910   3.793
 2184SOL    HW2 6562   2.514   2.839   3.935
 2185SOL     OW 6563   1.984   2.505   4.287
 2185SOL    HW1 6564   1.939   2.417   4.304
 2185SOL    HW2 6565   1.983   2.559   4.371
 2186SOL     OW 6566   3.704   3.629   4.083
 2186SOL    HW1 6567   3.758   3.600   4.163
 2186SOL    HW2 6568   3.734   3.719   4.054
 2187SOL     OW 6569   1.889   3.458   3.841
 2187SOL    HW1 6570   1.870   3.362   3.862
 2187SOL    HW2 6571   1.856   3.516   3.916
 2188SOL     OW 6572   3.551   2.784   4.336
 2188SOL    HW1 6573   3.646   2.755   4.344
 2188SOL    HW2 6574   3.543   2.849   4.261
 2189SOL     OW 6575   3.503   2.970   4.156
 2189SOL    HW1 6576   3.589   2.972   4.104
 2189SOL    HW2 6577   3.517   3.017   4.244
 2190SOL     OW 6578   2.475   3.227   4.450
 2190SOL    HW1 6579   2.426   3.140   4.459
 2190SOL    HW2 6580   2.452   3.270   4.363
 2191SOL     OW 6581   2.671   1.866   4.226
 2191SOL    HW1 6582   2.711   1.957   4.217
 2191SOL    HW2 6583   2.571   1.874   4.232
 2192SOL     OW 6584   3.387   2.861   3.914
 2192SOL    HW1 6585   3.324   2.785   3.927
 2192SOL    HW2 6586   3.435   2.879   4.000
 2193SOL     OW 6587   3.529   3.576   4.296
 2193SOL    HW1 6588   3.488   3.553   4.208
 2193SOL    HW2 6589   3.511   3.502   4.361
 2194SOL     OW 6590   2.460   2.591   3.994
 2194SOL    HW1 6591   2.484   2.660   3.926
 2194SOL    HW2 6592   2.382   2.624   4.048
 2195SOL     OW 6593   3.143   2.207   4.668
 2195SOL    HW1 6594   3.057   2.157   4.655
 2195SOL    HW2 6595   3.205   2.153   4.724
 2196SOL     OW 6596   3.438   3.524   4.031
 2196SOL    HW1 6597   3.527   3.570   4.034
 2196SOL    HW2 6598   3.417   3.500   3.936
 2197SOL     OW 6599   2.903   2.563   4.153
 2197SOL    HW1 6600   2.929   2.559   4.249
 2197SOL    HW2 6601   2.818   2.512   4.139
 2198SOL     OW 6602   1.938   2.673   4.513
 2198SOL    HW1 6603   2.037   2.661   4.522
 2198SOL    HW2 6604   1.914   2.768   4.534
 2199SOL     OW 6605   2.727   2.210   3.919
 2199SOL    HW1 6606   2.786   2.273   3.870
 2199SOL    HW2 6607   2.746   2.116   3.890
 2200SOL     OW 6608   3.224   3.006   4.269
 2200SOL    HW1 6609   3.307   2.977   4.221
 2200SOL    HW2 6610   3.175   3.073   4.213
 2201SOL     OW 6611   2.870   3.318   4.201
 2201SOL    HW1 6612   2.824   3.390   4.149
 2201SOL    HW2 6613   2.866   3.338   4.299
 2202SOL     OW 6614   2.213   3.663   4.577
 2202SOL    HW1 6615   2.263   3.577   4.583
 2202SOL    HW2 6616   2.278   3.740   4.574
 2203SOL     OW 6617   3.657   2.928   4.597
 2203SOL    HW1 6618   3.595   2.913   4.521
 2203SOL    HW2 6619   3.605   2.939   4.682
 2204SOL     OW 6620   2.183   2.805   3.966
 2204SOL    HW1 6621   2.265   2.844   3.924
 2204SOL    HW2 6622   2.156   2.723   3.917
 2205SOL     OW 6623   2.973   3.638   3.961
 2205SOL    HW1 6624   2.913   3.576   4.011
 2205SOL    HW2 6625   3.004   3.594   3.876
 2206SOL     OW 6626   3.494   3.239   3.805
 2206SOL    HW1 6627   3.462   3.333   3.795
 2206SOL    HW2 6628   3.418   3.176   3.793
 2207SOL     OW 6629   2.326   3.605   4.047
 2207SOL    HW1 6630   2.359   3.644   4.133
 2207SOL    HW2 6631   2.402   3.598   3.982
 2208SOL     OW 6632   3.262   1.969   4.150
 2208SOL    HW1 6633   3.238   1.932   4.060
 2208SOL    HW2 6634   3.361   1.985   4.154
 2209SOL     OW 6635   2.802   3.560   4.628
 2209SOL    HW1 6636   2.882   3.503   4.649
 2209SOL    HW2 6637   2.753   3.520   4.551
 2210SOL     OW 6638   2.244   2.562   4.204
 2210SOL    HW1 6639   2.289   2.472   4.201
 2210SOL    HW2 6640   2.150   2.551   4.237
 2211SOL     OW 6641   2.476   1.984   3.841
 2211SOL    HW1 6642   2.574   1.962   3.848
 2211SOL    HW2 6643   2.445   1.967   3.748
 2212SOL     OW 6644   2.401   1.926   4.236
 2212SOL    HW1 6645   2.320   1.927   4.294
 2212SOL    HW2 6646   2.404   2.009   4.181
 2213SOL     OW 6647   3.296   3.050   3.765
 2213SOL    HW1 6648   3.328   2.974   3.822
 2213SOL    HW2 6649   3.204   3.077   3.795
 2214SOL     OW 6650   2.159   1.897   3.895
 2214SOL    HW1 6651   2.208   1.981   3.874
 2214SOL    HW2 6652   2.221   1.832   3.940
 2215SOL     OW 6653   2.797   2.098   4.204
 2215SOL    HW1 6654   2.749   2.139   4.126
 2215SOL    HW2 6655   2.896   2.096   4.185
 2216SOL     OW 6656   2.321   3.014   4.465
 2216SOL    HW1 6657   2.250   2.987   4.530
 2216SOL    HW2 6658   2.295   2.986   4.372
 2217SOL     OW 6659   3.133   3.659   4.315
 2217SOL    HW1 6660   3.177   3.723   4.251
 2217SOL    HW2 6661   3.083   3.711   4.385
 2218SOL     OW 6662   2.894   2.411   3.740
 2218SOL    HW1 6663   2.853   2.493   3.701
 2218SOL    HW2 6664   2.958   2.437   3.813
 2219SOL     OW 6665   2.728   2.316   4.366
 2219SOL    HW1 6666   2.696   2.388   4.304
 2219SOL    HW2 6667   2.752   2.235   4.313
 2220SOL     OW 6668   3.719   2.695   4.101
 2220SOL    HW1 6669   3.761   2.631   4.165
 2220SOL    HW2 6670   3.681   2.644   4.023
 2221SOL     OW 6671   2.350   3.247   3.898
 2221SOL    HW1 6672   2.263   3.232   3.945
 2221SOL    HW2 6673   2.333   3.273   3.803
 2222SOL     OW 6674   3.526   3.142   4.381
 2222SOL    HW1 6675   3.625   3.150   4.395
 2222SOL    HW2 6676   3.481   3.226   4.412
 2223SOL     OW 6677   3.252   2.437   3.802
 2223SOL    HW1 6678   3.198   2.416   3.883
 2223SOL    HW2 6679   3.343   2.396   3.811
 2224SOL     OW 6680   2.389   2.118   4.052
 2224SOL    HW1 6681   2.416   2.059   3.977
 2224SOL    HW2 6682   2.389   2.213   4.021
 2225SOL     OW 6683   2.973   3.057   4.824
 2225SOL    HW1 6684   2.933   3.101   4.905
 2225SOL    HW2 6685   2.932   3.094   4.741
 2226SOL     OW 6686   2.567   2.912   4.092
 2226SOL    HW1 6687   2.553   2.919   4.191
 2226SOL    HW2 6688   2.651   2.861   4.074
 2227SOL     OW 6689   2.229   2.962   4.225
 2227SOL    HW1 6690   2.222   3.045   4.169
 2227SOL    HW2 6691   2.233   2.882   4.165
 2228SOL     OW 6692   3.114   3.210   4.112
 2228SOL    HW1 6693   3.164   3.287   4.152
 2228SOL    HW2 6694   3.019   3.212   4.144
 2229SOL     OW 6695   3.444   2.501   4.196
 2229SOL    HW1 6696   3.413   2.562   4.269
 2229SOL    HW2 6697   3.494   2.553   4.127
 2230SOL     OW 6698   3.071   2.387   3.999
 2230SOL    HW1 6699   3.084   2.303   4.053
 2230SOL    HW2 6700   3.042   2.461   4.059
 2231SOL     OW 6701   2.169   1.925   4.342
 2231SOL    HW1 6702   2.158   2.019   4.375
 2231SOL    HW2 6703   2.164   1.862   4.419
 2232SOL     OW 6704   3.484   2.229   4.098
 2232SOL    HW1 6705   3.486   2.153   4.162
 2232SOL    HW2 6706   3.436   2.306   4.138
 2233SOL     OW 6707   3.402   2.136   3.849
 2233SOL    HW1 6708   3.341   2.061   3.872
 2233SOL    HW2 6709   3.424   2.188   3.932
 2234SOL     OW 6710   3.165   2.700   3.766
 2234SOL    HW1 6711   3.199   2.607   3.781
 2234SOL    HW2 6712   3.183   2.727   3.671
 2235SOL     OW 6713   1.870   3.188   3.924
 2235SOL    HW1 6714   1.777   3.209   3.893
 2235SOL    HW2 6715   1.880   3.089   3.937
 2236SOL     OW 6716   2.677   2.434   4.049
 2236SOL    HW1 6717   2.684   2.345   4.003
 2236SOL    HW2 6718   2.583   2.468   4.041
 2237SOL     OW 6719   2.335   2.362   3.915
 2237SOL    HW1 6720   2.396   2.442   3.919
 2237SOL    HW2 6721   2.240   2.393   3.922
 2238SOL     OW 6722   3.164   2.717   4.033
 2238SOL    HW1 6723   3.078   2.686   4.075
 2238SOL    HW2 6724   3.160   2.703   3.934
 2239SOL     OW 6725   3.588   1.997   4.247
 2239SOL    HW1 6726   3.661   1.980   4.180
 2239SOL    HW2 6727   3.557   1.910   4.285
 2240SOL     OW 6728   3.250   3.435   4.201
 2240SOL    HW1 6729   3.317   3.447   4.127
 2240SOL    HW2 6730   3.210   3.524   4.224
 2241SOL     OW 6731   2.534   3.478   3.878
 2241SOL    HW1 6732   2.543   3.488   3.779
 2241SOL    HW2 6733   2.494   3.389   3.899
 2242SOL     OW 6734   3.703   2.037   4.687
 2242SOL    HW1 6735   3.742   1.952   4.651
 2242SOL    HW2 6736   3.605   2.039   4.668
 2243SOL     OW 6737   3.056   3.474   3.755
 2243SOL    HW1 6738   3.062   3.381   3.792
 2243SOL    HW2 6739   2.997   3.474   3.675
 2244SOL     OW 6740   2.778   2.772   4.015
 2244SOL    HW1 6741   2.841   2.810   3.947
 2244SOL    HW2 6742   2.818   2.689   4.054
 2245SOL     OW 6743   3.366   3.469   3.768
 2245SOL    HW1 6744   3.274   3.506   3.775
 2245SOL    HW2 6745   3.404   3.489   3.678
 2246SOL     OW 6746   2.452   3.349   4.215
 2246SOL    HW1 6747   2.494   3.291   4.145
 2246SOL    HW2 6748   2.408   3.428   4.171
 2247SOL     OW 6749   2.117   3.210   4.014
 2247SOL    HW1 6750   2.021   3.211   3.987
 2247SOL    HW2 6751   2.129   3.263   4.098
 2248SOL     OW 6752   1.937   2.207   3.757
 2248SOL    HW1 6753   1.845   2.179   3.728
 2248SOL    HW2 6754   1.968   2.284   3.701
 2249SOL     OW 6755   1.934   2.028   4.042
 2249SOL    HW1 6756   1.917   2.111   3.988
 2249SOL    HW2 6757   2.024   1.991   4.020
 2250SOL     OW 6758   3.045   3.197   3.843
 2250SOL    HW1 6759   2.946   3.186   3.845
 2250SOL    HW2 6760   3.079   3.212   3.936
 2251SOL     OW 6761   3.087   2.187   4.173
 2251SOL    HW1 6762   3.152   2.113   4.162
 2251SOL    HW2 6763   3.107   2.237   4.257
 2252SOL     OW 6764   2.456   2.607   4.376
 2252SOL    HW1 6765   2.506   2.692   4.357
 2252SOL    HW2 6766   2.368   2.609   4.328
 2253SOL     OW 6767   2.721   3.236   3.740
 2253SOL    HW1 6768   2.675   3.251   3.828
 2253SOL    HW2 6769   2.765   3.321   3.710
 2254SOL     OW 6770   2.523   3.652   4.677
 2254SOL    HW1 6771   2.477   3.740   4.664
 2254SOL    HW2 6772   2.622   3.664   4.670
 2255SOL     OW 6773   2.721   2.818   4.585
 2255SOL    HW1 6774   2.775   2.749   4.633
 2255SOL    HW2 6775   2.689   2.887   4.651
 2256SOL     OW 6776   2.945   2.846   3.811
 2256SOL    HW1 6777   2.922   2.899   3.729
 2256SOL    HW2 6778   3.026   2.790   3.792
 2257SOL     OW 6779   1.941   3.102   4.377
 2257SOL    HW1 6780   1.940   3.055   4.465
 2257SOL    HW2 6781   2.023   3.074   4.326
 2258SOL     OW 6782   2.290   2.286   4.244
 2258SOL    HW1 6783   2.320   2.214   4.182
 2258SOL    HW2 6784   2.251   2.246   4.327
 2259SOL     OW 6785   2.674   3.448   4.411
 2259SOL    HW1 6786   2.706   3.458   4.317
 2259SOL    HW2 6787   2.595   3.386   4.413
 2260SOL     OW 6788   2.632   3.192   4.025
 2260SOL    HW1 6789   2.586   3.105   4.042
 2260SOL    HW2 6790   2.723   3.189   4.066
 2261SOL     OW 6791   3.214   1.914   3.892
 2261SOL    HW1 6792   3.249   1.873   3.808
 2261SOL    HW2 6793   3.124   1.876   3.912
 2262SOL     OW 6794   3.162   2.315   4.415
 2262SOL    HW1 6795   3.103   2.395   4.419
 2262SOL    HW2 6796   3.177   2.280   4.508
 2263SOL     OW 6797   1.901   2.939   4.024
 2263SOL    HW1 6798   2.000   2.928   4.015
 2263SOL    HW2 6799   1.861   2.853   4.056
 2264SOL     OW 6800   2.737   3.508   4.061
 2264SOL    HW1 6801   2.660   3.473   4.007
 2264SOL    HW2 6802   2.705   3.579   4.123
 2265SOL     OW 6803   2.092   4.352   0.113
 2265SOL    HW1 6804   1.999   4.350   0.150
 2265SOL    HW2 6805   2.093   4.313   0.021
 2266SOL     OW 6806   2.087   3.999   0.996
 2266SOL    HW1 6807   2.122   3.982   1.088
 2266SOL    HW2 6808   1.999   3.954   0.984
 2267SOL     OW 6809   1.881   4.092   0.647
 2267SOL    HW1 6810   1.799   4.135   0.686
 2267SOL    HW2 6811   1.853   4.019   0.584
 2268SOL     OW 6812   3.617   4.331   0.231
 2268SOL    HW1 6813   3.605   4.318   0.132
 2268SOL    HW2 6814   3.587   4.250   0.280
 2269SOL     OW 6815   2.712   4.522   1.823
 2269SOL    HW1 6816   2.708   4.598   1.888
 2269SOL    HW2 6817   2.734   4.558   1.732
 2270SOL     OW 6818   2.547   4.736   0.665
 2270SOL    HW1 6819   2.616   4.720   0.735
 2270SOL    HW2 6820   2.474   4.793   0.703
 2271SOL     OW 6821   2.300   4.116   1.499
 2271SOL    HW1 6822   2.382   4.060   1.508
 2271SOL    HW2 6823   2.219   4.058   1.503
 2272SOL     OW 6824   3.465   4.171   0.737
 2272SOL    HW1 6825   3.391   4.217   0.687
 2272SOL    HW2 6826   3.516   4.239   0.790
 2273SOL     OW 6827   3.456   3.838   1.480
 2273SOL    HW1 6828   3.438   3.905   1.408
 2273SOL    HW2 6829   3.453   3.884   1.569
 2274SOL     OW 6830   1.984   4.367   0.563
 2274SOL    HW1 6831   1.939   4.279   0.580
 2274SOL    HW2 6832   1.983   4.421   0.647
 2275SOL     OW 6833   1.975   4.461   1.597
 2275SOL    HW1 6834   2.063   4.448   1.642
 2275SOL    HW2 6835   1.962   4.558   1.575
 2276SOL     OW 6836   2.671   3.728   0.502
 2276SOL    HW1 6837   2.711   3.819   0.493
 2276SOL    HW2 6838   2.571   3.736   0.508
 2277SOL     OW 6839   2.179   3.975   1.801
 2277SOL    HW1 6840   2.250   4.046   1.807
 2277SOL    HW2 6841   2.091   4.014   1.829
 2278SOL     OW 6842   3.143   4.069   0.944
 2278SOL    HW1 6843   3.057   4.019   0.931
 2278SOL    HW2 6844   3.205   4.015   1.000
 2279SOL     OW 6845   2.669   4.329   1.465
 2279SOL    HW1 6846   2.622   4.326   1.554
 2279SOL    HW2 6847   2.618   4.274   1.399
 2280SOL     OW 6848   3.256   4.193   1.674
 2280SOL    HW1 6849   3.236   4.236   1.762
 2280SOL    HW2 6850   3.334   4.131   1.683
 2281SOL     OW 6851   2.853   4.134   1.242
 2281SOL    HW1 6852   2.776   4.168   1.296
 2281SOL    HW2 6853   2.819   4.083   1.163
 2282SOL     OW 6854   2.903   4.425   0.429
 2282SOL    HW1 6855   2.929   4.421   0.525
 2282SOL    HW2 6856   2.818   4.374   0.415
 2283SOL     OW 6857   2.727   4.072   0.195
 2283SOL    HW1 6858   2.786   4.135   0.146
 2283SOL    HW2 6859   2.746   3.978   0.166
 2284SOL     OW 6860   3.581   4.309   1.831
 2284SOL    HW1 6861   3.555   4.398   1.795
 2284SOL    HW2 6862   3.579   4.241   1.758
 2285SOL     OW 6863   2.412   3.920   0.885
 2285SOL    HW1 6864   2.407   3.915   0.985
 2285SOL    HW2 6865   2.414   4.016   0.856
 2286SOL     OW 6866   3.320   4.459   0.728
 2286SOL    HW1 6867   3.315   4.394   0.803
 2286SOL    HW2 6868   3.400   4.518   0.741
 2287SOL     OW 6869   2.064   4.009   1.498
 2287SOL    HW1 6870   1.984   4.069   1.485
 2287SOL    HW2 6871   2.054   3.960   1.584
 2288SOL     OW 6872   3.262   3.831   0.426
 2288SOL    HW1 6873   3.238   3.794   0.336
 2288SOL    HW2 6874   3.361   3.847   0.430
 2289SOL     OW 6875   2.244   4.424   0.480
 2289SOL    HW1 6876   2.289   4.334   0.477
 2289SOL    HW2 6877   2.150   4.413   0.513
 2290SOL     OW 6878   3.409   3.946   1.729
 2290SOL    HW1 6879   3.404   3.983   1.821
 2290SOL    HW2 6880   3.337   3.877   1.717
 2291SOL     OW 6881   2.643   3.988   1.749
 2291SOL    HW1 6882   2.710   3.927   1.792
 2291SOL    HW2 6883   2.570   4.007   1.814
 2292SOL     OW 6884   3.213   4.314   1.433
 2292SOL    HW1 6885   3.241   4.271   1.518
 2292SOL    HW2 6886   3.238   4.410   1.434
 2293SOL     OW 6887   2.784   4.227   0.899
 2293SOL    HW1 6888   2.759   4.218   0.803
 2293SOL    HW2 6889   2.832   4.145   0.930
 2294SOL     OW 6890   2.401   3.788   0.512
 2294SOL    HW1 6891   2.320   3.789   0.570
 2294SOL    HW2 6892   2.404   3.871   0.457
 2295SOL     OW 6893   2.797   3.960   0.480
 2295SOL    HW1 6894   2.749   4.001   0.402
 2295SOL    HW2 6895   2.896   3.958   0.461
 2296SOL     OW 6896   2.938   4.407   1.464
 2296SOL    HW1 6897   2.858   4.346   1.467
 2296SOL    HW2 6898   3.019   4.354   1.440
 2297SOL     OW 6899   2.894   4.273   0.016
 2297SOL    HW1 6900   2.853   4.355  -0.023
 2297SOL    HW2 6901   2.958   4.299   0.089
 2298SOL     OW 6902   1.940   4.280   1.386
 2298SOL    HW1 6903   2.032   4.279   1.345
 2298SOL    HW2 6904   1.934   4.354   1.453
 2299SOL     OW 6905   2.423   3.946   1.147
 2299SOL    HW1 6906   2.461   3.862   1.184
 2299SOL    HW2 6907   2.335   3.965   1.191
 2300SOL     OW 6908   2.728   4.178   0.642
 2300SOL    HW1 6909   2.696   4.250   0.580
 2300SOL    HW2 6910   2.752   4.097   0.589
 2301SOL     OW 6911   2.879   3.763   0.753
 2301SOL    HW1 6912   2.807   3.768   0.684
 2301SOL    HW2 6913   2.855   3.694   0.822
 2302SOL     OW 6914   3.328   4.314   0.992
 2302SOL    HW1 6915   3.298   4.219   0.999
 2302SOL    HW2 6916   3.401   4.330   1.058
 2303SOL     OW 6917   3.252   4.299   0.078
 2303SOL    HW1 6918   3.198   4.278   0.159
 2303SOL    HW2 6919   3.343   4.258   0.087
 2304SOL     OW 6920   2.389   3.980   0.328
 2304SOL    HW1 6921   2.416   3.921   0.253
 2304SOL    HW2 6922   2.389   4.075   0.297
 2305SOL     OW 6923   2.777   3.813   1.402
 2305SOL    HW1 6924   2.802   3.793   1.307
 2305SOL    HW2 6925   2.849   3.869   1.444
 2306SOL     OW 6926   2.272   4.537   1.251
 2306SOL    HW1 6927   2.358   4.549   1.301
 2306SOL    HW2 6928   2.230   4.450   1.278
 2307SOL     OW 6929   3.136   4.110   1.262
 2307SOL    HW1 6930   3.157   4.184   1.326
 2307SOL    HW2 6931   3.047   4.127   1.219
 2308SOL     OW 6932   2.428   4.261   0.865
 2308SOL    HW1 6933   2.440   4.327   0.791
 2308SOL    HW2 6934   2.474   4.295   0.948
 2309SOL     OW 6935   3.444   4.363   0.472
 2309SOL    HW1 6936   3.413   4.424   0.545
 2309SOL    HW2 6937   3.494   4.415   0.403
 2310SOL     OW 6938   3.449   4.503   1.670
 2310SOL    HW1 6939   3.357   4.541   1.665
 2310SOL    HW2 6940   3.509   4.550   1.605
 2311SOL     OW 6941   2.875   3.829   1.770
 2311SOL    HW1 6942   2.881   3.914   1.718
 2311SOL    HW2 6943   2.907   3.753   1.713
 2312SOL     OW 6944   2.366   3.774   1.740
 2312SOL    HW1 6945   2.324   3.717   1.670
 2312SOL    HW2 6946   2.300   3.843   1.772
 2313SOL     OW 6947   3.071   4.249   0.275
 2313SOL    HW1 6948   3.084   4.165   0.329
 2313SOL    HW2 6949   3.042   4.323   0.335
 2314SOL     OW 6950   2.169   3.937   1.231
 2314SOL    HW1 6951   2.146   3.974   1.321
 2314SOL    HW2 6952   2.139   3.842   1.225
 2315SOL     OW 6953   2.594   4.358   1.064
 2315SOL    HW1 6954   2.653   4.332   0.988
 2315SOL    HW2 6955   2.566   4.454   1.053
 2316SOL     OW 6956   3.590   4.659   1.854
 2316SOL    HW1 6957   3.544   4.652   1.765
 2316SOL    HW2 6958   3.528   4.703   1.920
 2317SOL     OW 6959   2.169   3.787   0.618
 2317SOL    HW1 6960   2.158   3.881   0.651
 2317SOL    HW2 6961   2.164   3.724   0.695
 2318SOL     OW 6962   3.484   4.091   0.374
 2318SOL    HW1 6963   3.486   4.015   0.438
 2318SOL    HW2 6964   3.436   4.168   0.414
 2319SOL     OW 6965   3.402   3.998   0.125
 2319SOL    HW1 6966   3.341   3.923   0.148
 2319SOL    HW2 6967   3.424   4.050   0.208
 2320SOL     OW 6968   2.181   4.534   0.949
 2320SOL    HW1 6969   2.274   4.570   0.954
 2320SOL    HW2 6970   2.175   4.449   1.001
 2321SOL     OW 6971   2.201   4.233   1.006
 2321SOL    HW1 6972   2.149   4.150   0.989
 2321SOL    HW2 6973   2.278   4.238   0.942
 2322SOL     OW 6974   3.000   4.104   1.678
 2322SOL    HW1 6975   2.955   4.167   1.742
 2322SOL    HW2 6976   3.093   4.135   1.661
 2323SOL     OW 6977   3.022   3.931   1.477
 2323SOL    HW1 6978   3.022   3.995   1.554
 2323SOL    HW2 6979   3.050   3.979   1.394
 2324SOL     OW 6980   1.902   4.268   1.114
 2324SOL    HW1 6981   1.987   4.235   1.073
 2324SOL    HW2 6982   1.915   4.283   1.212
 2325SOL     OW 6983   2.051   4.244   1.722
 2325SOL    HW1 6984   2.110   4.204   1.652
 2325SOL    HW2 6985   1.993   4.315   1.681
 2326SOL     OW 6986   2.677   4.296   0.325
 2326SOL    HW1 6987   2.684   4.207   0.279
 2326SOL    HW2 6988   2.583   4.330   0.317
 2327SOL     OW 6989   3.519   4.328   1.206
 2327SOL    HW1 6990   3.481   4.259   1.268
 2327SOL    HW2 6991   3.601   4.292   1.162
 2328SOL     OW 6992   2.533   4.188   1.269
 2328SOL    HW1 6993   2.499   4.099   1.239
 2328SOL    HW2 6994   2.559   4.242   1.189
 2329SOL     OW 6995   2.335   4.224   0.191
 2329SOL    HW1 6996   2.396   4.304   0.195
 2329SOL    HW2 6997   2.240   4.255   0.198
 2330SOL     OW 6998   2.765   3.810   0.133
 2330SOL    HW1 6999   2.816   3.811   0.047
 2330SOL    HW2 7000   2.821   3.768   0.204
 2331SOL     OW 7001   3.588   3.859   0.523
 2331SOL    HW1 7002   3.661   3.842   0.456
 2331SOL    HW2 7003   3.557   3.772   0.561
 2332SOL     OW 7004   3.142   4.651   0.672
 2332SOL    HW1 7005   3.202   4.570   0.674
 2332SOL    HW2 7006   3.182   4.720   0.612
 2333SOL     OW 7007   3.703   3.899   0.963
 2333SOL    HW1 7008   3.742   3.814   0.927
 2333SOL    HW2 7009   3.605   3.901   0.944
 2334SOL     OW 7010   2.125   4.050   0.720
 2334SOL    HW1 7011   2.046   4.101   0.686
 2334SOL    HW2 7012   2.116   4.035   0.818
 2335SOL     OW 7013   2.901   4.822   0.696
 2335SOL    HW1 7014   2.831   4.775   0.750
 2335SOL    HW2 7015   2.960   4.754   0.653
 2336SOL     OW 7016   2.876   3.960   0.971
 2336SOL    HW1 7017   2.868   3.924   0.878
 2336SOL    HW2 7018   2.874   3.884   1.036
 2337SOL     OW 7019   3.571   4.109   1.381
 2337SOL    HW1 7020   3.644   4.178   1.385
 2337SOL    HW2 7021   3.599   4.034   1.322
 2338SOL     OW 7022   2.534   3.927   1.489
 2338SOL    HW1 7023   2.624   3.911   1.449
 2338SOL    HW2 7024   2.542   3.932   1.588
 2339SOL     OW 7025   1.937   4.069   0.033
 2339SOL    HW1 7026   1.845   4.041   0.004
 2339SOL    HW2 7027   1.968   4.146  -0.023
 2340SOL     OW 7028   2.578   4.289   1.708
 2340SOL    HW1 7029   2.597   4.354   1.782
 2340SOL    HW2 7030   2.638   4.209   1.717
 2341SOL     OW 7031   3.087   4.049   0.449
 2341SOL    HW1 7032   3.152   3.975   0.438
 2341SOL    HW2 7033   3.107   4.099   0.533
 2342SOL     OW 7034   3.639   4.066   1.642
 2342SOL    HW1 7035   3.622   4.097   1.548
 2342SOL    HW2 7036   3.555   4.029   1.680
 2343SOL     OW 7037   2.945   4.708   0.087
 2343SOL    HW1 7038   2.922   4.761   0.005
 2343SOL    HW2 7039   3.026   4.652   0.068
 2344SOL     OW 7040   3.686   3.916   1.227
 2344SOL    HW1 7041   3.682   3.826   1.271
 2344SOL    HW2 7042   3.689   3.905   1.128
 2345SOL     OW 7043   2.290   4.148   0.520
 2345SOL    HW1 7044   2.320   4.076   0.458
 2345SOL    HW2 7045   2.251   4.108   0.603
 2346SOL     OW 7046   2.179   4.271   1.280
 2346SOL    HW1 7047   2.217   4.212   1.352
 2346SOL    HW2 7048   2.219   4.245   1.192
 2347SOL     OW 7049   3.286   3.938   1.112
 2347SOL    HW1 7050   3.338   3.873   1.167
 2347SOL    HW2 7051   3.237   4.001   1.173
 2348SOL     OW 7052   2.863   3.758   1.154
 2348SOL    HW1 7053   2.800   3.686   1.123
 2348SOL    HW2 7054   2.956   3.722   1.154
 2349SOL     OW 7055   3.214   3.776   0.168
 2349SOL    HW1 7056   3.249   3.735   0.084
 2349SOL    HW2 7057   3.124   3.738   0.188
 2350SOL     OW 7058   3.162   4.177   0.691
 2350SOL    HW1 7059   3.103   4.257   0.695
 2350SOL    HW2 7060   3.177   4.142   0.784
 2351SOL     OW 7061   3.455   3.945   0.882
 2351SOL    HW1 7062   3.371   3.944   0.936
 2351SOL    HW2 7063   3.457   4.028   0.826
 2352SOL     OW 7064   2.092   4.352   1.975
 2352SOL    HW1 7065   1.999   4.350   2.012
 2352SOL    HW2 7066   2.093   4.313   1.883
 2353SOL     OW 7067   2.087   3.999   2.858
 2353SOL    HW1 7068   2.122   3.982   2.950
 2353SOL    HW2 7069   1.999   3.954   2.846
 2354SOL     OW 7070   1.881   4.092   2.509
 2354SOL    HW1 7071   1.799   4.135   2.548
 2354SOL    HW2 7072   1.853   4.019   2.446
 2355SOL     OW 7073   3.617   4.331   2.093
 2355SOL    HW1 7074   3.605   4.318   1.994
 2355SOL    HW2 7075   3.587   4.250   2.142
 2356SOL     OW 7076   2.712   4.522   3.685
 2356SOL    HW1 7077   2.708   4.598   3.750
 2356SOL    HW2 7078   2.734   4.558   3.594
 2357SOL     OW 7079   2.547   4.736   2.527
 2357SOL    HW1 7080   2.616   4.720   2.597
 2357SOL    HW2 7081   2.474   4.793   2.565
 2358SOL     OW 7082   2.300   4.116   3.361
 2358SOL    HW1 7083   2.382   4.060   3.370
 2358SOL    HW2 7084   2.219   4.058   3.365
 2359SOL     OW 7085   3.465   4.171   2.599
 2359SOL    HW1 7086   3.391   4.217   2.549
 2359SOL    HW2 7087   3.516   4.239   2.652
 2360SOL     OW 7088   3.456   3.838   3.342
 2360SOL    HW1 7089   3.438   3.905   3.270
 2360SOL    HW2 7090   3.453   3.884   3.431
 2361SOL     OW 7091   1.984   4.367   2.425
 2361SOL    HW1 7092   1.939   4.279   2.442
 2361SOL    HW2 7093   1.983   4.421   2.509
 2362SOL     OW 7094   1.975   4.461   3.459
 2362SOL    HW1 7095   2.063   4.448   3.504
 2362SOL    HW2 7096   1.962   4.558   3.437
 2363SOL     OW 7097   2.671   3.728   2.364
 2363SOL    HW1 7098   2.711   3.819   2.355
 2363SOL    HW2 7099   2.571   3.736   2.370
 2364SOL     OW 7100   2.179   3.975   3.663
 2364SOL    HW1 7101   2.250   4.046   3.669
 2364SOL    HW2 7102   2.091   4.014   3.691
 2365SOL     OW 7103   3.143   4.069   2.806
 2365SOL    HW1 7104   3.057   4.019   2.793
 2365SOL    HW2 7105   3.205   4.015   2.862
 2366SOL     OW 7106   2.669   4.329   3.327
 2366SOL    HW1 7107   2.622   4.326   3.416
 2366SOL    HW2 7108   2.618   4.274   3.261
 2367SOL     OW 7109   3.256   4.193   3.536
 2367SOL    HW1 7110   3.236   4.236   3.624
 2367SOL    HW2 7111   3.334   4.131   3.545
 2368SOL     OW 7112   2.853   4.134   3.104
 2368SOL    HW1 7113   2.776   4.168   3.158
 2368SOL    HW2 7114   2.819   4.083   3.025
 2369SOL     OW 7115   2.903   4.425   2.291
 2369SOL    HW1 7116   2.929   4.421   2.387
 2369SOL    HW2 7117   2.818   4.374   2.277
 2370SOL     OW 7118   2.727   4.072   2.057
 2370SOL    HW1 7119   2.786   4.135   2.008
 2370SOL    HW2 7120   2.746   3.978   2.028
 2371SOL     OW 7121   3.581   4.309   3.693
 2371SOL    HW1 7122   3.555   4.398   3.657
 2371SOL    HW2 7123   3.579   4.241   3.620
 2372SOL     OW 7124   2.412   3.920   2.747
 2372SOL    HW1 7125   2.407   3.915   2.847
 2372SOL    HW2 7126   2.414   4.016   2.718
 2373SOL     OW 7127   3.320   4.459   2.590
 2373SOL    HW1 7128   3.315   4.394   2.665
 2373SOL    HW2 7129   3.400   4.518   2.603
 2374SOL     OW 7130   2.064   4.009   3.360
 2374SOL    HW1 7131   1.984   4.069   3.347
 2374SOL    HW2 7132   2.054   3.960   3.446
 2375SOL     OW 7133   3.262   3.831   2.288
 2375SOL    HW1 7134   3.238   3.794   2.198
 2375SOL    HW2 7135   3.361   3.847   2.292
 2376SOL     OW 7136   2.244   4.424   2.342
 2376SOL    HW1 7137   2.289   4.334   2.339
 2376SOL    HW2 7138   2.150   4.413   2.375
 2377SOL     OW 7139   3.409   3.946   3.591
 2377SOL    HW1 7140   3.404   3.983   3.683
 2377SOL    HW2 7141   3.337   3.877   3.579
 2378SOL     OW 7142   2.476   3.846   1.979
 2378SOL    HW1 7143   2.574   3.824   1.986
 2378SOL    HW2 7144   2.445   3.829   1.886
 2379SOL     OW 7145   2.643   3.988   3.611
 2379SOL    HW1 7146   2.710   3.927   3.654
 2379SOL    HW2 7147   2.570   4.007   3.676
 2380SOL     OW 7148   3.213   4.314   3.295
 2380SOL    HW1 7149   3.241   4.271   3.380
 2380SOL    HW2 7150   3.238   4.410   3.296
 2381SOL     OW 7151   2.784   4.227   2.761
 2381SOL    HW1 7152   2.759   4.218   2.665
 2381SOL    HW2 7153   2.832   4.145   2.792
 2382SOL     OW 7154   2.401   3.788   2.374
 2382SOL    HW1 7155   2.320   3.789   2.432
 2382SOL    HW2 7156   2.404   3.871   2.319
 2383SOL     OW 7157   2.159   3.759   2.033
 2383SOL    HW1 7158   2.208   3.843   2.012
 2383SOL    HW2 7159   2.221   3.694   2.078
 2384SOL     OW 7160   2.797   3.960   2.342
 2384SOL    HW1 7161   2.749   4.001   2.264
 2384SOL    HW2 7162   2.896   3.958   2.323
 2385SOL     OW 7163   2.938   4.407   3.326
 2385SOL    HW1 7164   2.858   4.346   3.329
 2385SOL    HW2 7165   3.019   4.354   3.302
 2386SOL     OW 7166   2.894   4.273   1.878
 2386SOL    HW1 7167   2.853   4.355   1.839
 2386SOL    HW2 7168   2.958   4.299   1.951
 2387SOL     OW 7169   1.940   4.280   3.248
 2387SOL    HW1 7170   2.032   4.279   3.207
 2387SOL    HW2 7171   1.934   4.354   3.315
 2388SOL     OW 7172   2.423   3.946   3.009
 2388SOL    HW1 7173   2.461   3.862   3.046
 2388SOL    HW2 7174   2.335   3.965   3.053
 2389SOL     OW 7175   2.728   4.178   2.504
 2389SOL    HW1 7176   2.696   4.250   2.442
 2389SOL    HW2 7177   2.752   4.097   2.451
 2390SOL     OW 7178   2.879   3.763   2.615
 2390SOL    HW1 7179   2.807   3.768   2.546
 2390SOL    HW2 7180   2.855   3.694   2.684
 2391SOL     OW 7181   3.328   4.314   2.854
 2391SOL    HW1 7182   3.298   4.219   2.861
 2391SOL    HW2 7183   3.401   4.330   2.920
 2392SOL     OW 7184   3.252   4.299   1.940
 2392SOL    HW1 7185   3.198   4.278   2.021
 2392SOL    HW2 7186   3.343   4.258   1.949
 2393SOL     OW 7187   2.389   3.980   2.190
 2393SOL    HW1 7188   2.416   3.921   2.115
 2393SOL    HW2 7189   2.389   4.075   2.159
 2394SOL     OW 7190   2.777   3.813   3.264
 2394SOL    HW1 7191   2.802   3.793   3.169
 2394SOL    HW2 7192   2.849   3.869   3.306
 2395SOL     OW 7193   2.272   4.537   3.113
 2395SOL    HW1 7194   2.358   4.549   3.163
 2395SOL    HW2 7195   2.230   4.450   3.140
 2396SOL     OW 7196   3.136   4.110   3.124
 2396SOL    HW1 7197   3.157   4.184   3.188
 2396SOL    HW2 7198   3.047   4.127   3.081
 2397SOL     OW 7199   2.428   4.261   2.727
 2397SOL    HW1 7200   2.440   4.327   2.653
 2397SOL    HW2 7201   2.474   4.295   2.810
 2398SOL     OW 7202   3.444   4.363   2.334
 2398SOL    HW1 7203   3.413   4.424   2.407
 2398SOL    HW2 7204   3.494   4.415   2.265
 2399SOL     OW 7205   3.449   4.503   3.532
 2399SOL    HW1 7206   3.357   4.541   3.527
 2399SOL    HW2 7207   3.509   4.550   3.467
 2400SOL     OW 7208   2.875   3.829   3.632
 2400SOL    HW1 7209   2.881   3.914   3.580
 2400SOL    HW2 7210   2.907   3.753   3.575
 2401SOL     OW 7211   2.366   3.774   3.602
 2401SOL    HW1 7212   2.324   3.717   3.532
 2401SOL    HW2 7213   2.300   3.843   3.634
 2402SOL     OW 7214   3.071   4.249   2.137
 2402SOL    HW1 7215   3.084   4.165   2.191
 2402SOL    HW2 7216   3.042   4.323   2.197
 2403SOL     OW 7217   2.169   3.937   3.093
 2403SOL    HW1 7218   2.146   3.974   3.183
 2403SOL    HW2 7219   2.139   3.842   3.087
 2404SOL     OW 7220   2.594   4.358   2.926
 2404SOL    HW1 7221   2.653   4.332   2.850
 2404SOL    HW2 7222   2.566   4.454   2.915
 2405SOL     OW 7223   3.590   4.659   3.716
 2405SOL    HW1 7224   3.544   4.652   3.627
 2405SOL    HW2 7225   3.528   4.703   3.782
 2406SOL     OW 7226   2.169   3.787   2.480
 2406SOL    HW1 7227   2.158   3.881   2.513
 2406SOL    HW2 7228   2.164   3.724   2.557
 2407SOL     OW 7229   3.484   4.091   2.236
 2407SOL    HW1 7230   3.486   4.015   2.300
 2407SOL    HW2 7231   3.436   4.168   2.276
 2408SOL     OW 7232   3.402   3.998   1.987
 2408SOL    HW1 7233   3.341   3.923   2.010
 2408SOL    HW2 7234   3.424   4.050   2.070
 2409SOL     OW 7235   2.181   4.534   2.811
 2409SOL    HW1 7236   2.274   4.570   2.816
 2409SOL    HW2 7237   2.175   4.449   2.863
 2410SOL     OW 7238   2.201   4.233   2.868
 2410SOL    HW1 7239   2.149   4.150   2.851
 2410SOL    HW2 7240   2.278   4.238   2.804
 2411SOL     OW 7241   3.000   4.104   3.540
 2411SOL    HW1 7242   2.955   4.167   3.604
 2411SOL    HW2 7243   3.093   4.135   3.523
 2412SOL     OW 7244   3.022   3.931   3.339
 2412SOL    HW1 7245   3.022   3.995   3.416
 2412SOL    HW2 7246   3.050   3.979   3.256
 2413SOL     OW 7247   1.902   4.268   2.976
 2413SOL    HW1 7248   1.987   4.235   2.935
 2413SOL    HW2 7249   1.915   4.283   3.074
 2414SOL     OW 7250   2.051   4.244   3.584
 2414SOL    HW1 7251   2.110   4.204   3.514
 2414SOL    HW2 7252   1.993   4.315   3.543
 2415SOL     OW 7253   2.677   4.296   2.187
 2415SOL    HW1 7254   2.684   4.207   2.141
 2415SOL    HW2 7255   2.583   4.330   2.179
 2416SOL     OW 7256   3.519   4.328   3.068
 2416SOL    HW1 7257   3.481   4.259   3.130
 2416SOL    HW2 7258   3.601   4.292   3.024
 2417SOL     OW 7259   2.533   4.188   3.131
 2417SOL    HW1 7260   2.499   4.099   3.101
 2417SOL    HW2 7261   2.559   4.242   3.051
 2418SOL     OW 7262   2.335   4.224   2.053
 2418SOL    HW1 7263   2.396   4.304   2.057
 2418SOL    HW2 7264   2.240   4.255   2.060
 2419SOL     OW 7265   3.588   3.859   2.385
 2419SOL    HW1 7266   3.661   3.842   2.318
 2419SOL    HW2 7267   3.557   3.772   2.423
 2420SOL     OW 7268   3.142   4.651   2.534
 2420SOL    HW1 7269   3.202   4.570   2.536
 2420SOL    HW2 7270   3.182   4.720   2.474
 2421SOL     OW 7271   3.703   3.899   2.825
 2421SOL    HW1 7272   3.742   3.814   2.789
 2421SOL    HW2 7273   3.605   3.901   2.806
 2422SOL     OW 7274   2.125   4.050   2.582
 2422SOL    HW1 7275   2.046   4.101   2.548
 2422SOL    HW2 7276   2.116   4.035   2.680
 2423SOL     OW 7277   2.778   4.634   2.153
 2423SOL    HW1 7278   2.841   4.672   2.085
 2423SOL    HW2 7279   2.818   4.551   2.192
 2424SOL     OW 7280   2.901   4.822   2.558
 2424SOL    HW1 7281   2.831   4.775   2.612
 2424SOL    HW2 7282   2.960   4.754   2.515
 2425SOL     OW 7283   2.876   3.960   2.833
 2425SOL    HW1 7284   2.868   3.924   2.740
 2425SOL    HW2 7285   2.874   3.884   2.898
 2426SOL     OW 7286   3.571   4.109   3.243
 2426SOL    HW1 7287   3.644   4.178   3.247
 2426SOL    HW2 7288   3.599   4.034   3.184
 2427SOL     OW 7289   2.534   3.927   3.351
 2427SOL    HW1 7290   2.624   3.911   3.311
 2427SOL    HW2 7291   2.542   3.932   3.450
 2428SOL     OW 7292   1.937   4.069   1.895
 2428SOL    HW1 7293   1.845   4.041   1.866
 2428SOL    HW2 7294   1.968   4.146   1.839
 2429SOL     OW 7295   1.934   3.890   2.180
 2429SOL    HW1 7296   1.917   3.973   2.126
 2429SOL    HW2 7297   2.024   3.853   2.158
 2430SOL     OW 7298   2.578   4.289   3.570
 2430SOL    HW1 7299   2.597   4.354   3.644
 2430SOL    HW2 7300   2.638   4.209   3.579
 2431SOL     OW 7301   3.087   4.049   2.311
 2431SOL    HW1 7302   3.152   3.975   2.300
 2431SOL    HW2 7303   3.107   4.099   2.395
 2432SOL     OW 7304   3.639   4.066   3.504
 2432SOL    HW1 7305   3.622   4.097   3.410
 2432SOL    HW2 7306   3.555   4.029   3.542
 2433SOL     OW 7307   2.945   4.708   1.949
 2433SOL    HW1 7308   2.922   4.761   1.867
 2433SOL    HW2 7309   3.026   4.652   1.930
 2434SOL     OW 7310   3.686   3.916   3.089
 2434SOL    HW1 7311   3.682   3.826   3.133
 2434SOL    HW2 7312   3.689   3.905   2.990
 2435SOL     OW 7313   2.290   4.148   2.382
 2435SOL    HW1 7314   2.320   4.076   2.320
 2435SOL    HW2 7315   2.251   4.108   2.465
 2436SOL     OW 7316   2.179   4.271   3.142
 2436SOL    HW1 7317   2.217   4.212   3.214
 2436SOL    HW2 7318   2.219   4.245   3.054
 2437SOL     OW 7319   3.286   3.938   2.974
 2437SOL    HW1 7320   3.338   3.873   3.029
 2437SOL    HW2 7321   3.237   4.001   3.035
 2438SOL     OW 7322   2.863   3.758   3.016
 2438SOL    HW1 7323   2.800   3.686   2.985
 2438SOL    HW2 7324   2.956   3.722   3.016
 2439SOL     OW 7325   3.214   3.776   2.030
 2439SOL    HW1 7326   3.249   3.735   1.946
 2439SOL    HW2 7327   3.124   3.738   2.050
 2440SOL     OW 7328   3.162   4.177   2.553
 2440SOL    HW1 7329   3.103   4.257   2.557
 2440SOL    HW2 7330   3.177   4.142   2.646
 2441SOL     OW 7331   3.455   3.945   2.744
 2441SOL    HW1 7332   3.371   3.944   2.798
 2441SOL    HW2 7333   3.457   4.028   2.688
 2442SOL     OW 7334   2.092   4.352   3.837
 2442SOL    HW1 7335   1.999   4.350   3.874
 2442SOL    HW2 7336   2.093   4.313   3.745
 2443SOL     OW 7337   2.087   3.999   4.720
 2443SOL    HW1 7338   2.122   3.982   4.812
 2443SOL    HW2 7339   1.999   3.954   4.708
 2444SOL     OW 7340   1.881   4.092   4.371
 2444SOL    HW1 7341   1.799   4.135   4.410
 2444SOL    HW2 7342   1.853   4.019   4.308
 2445SOL     OW 7343   3.617   4.331   3.955
 2445SOL    HW1 7344   3.605   4.318   3.856
 2445SOL    HW2 7345   3.587   4.250   4.004
 2446SOL     OW 7346   2.547   4.736   4.389
 2446SOL    HW1 7347   2.616   4.720   4.459
 2446SOL    HW2 7348   2.474   4.793   4.427
 2447SOL     OW 7349   3.465   4.171   4.461
 2447SOL    HW1 7350   3.391   4.217   4.411
 2447SOL    HW2 7351   3.516   4.239   4.514
 2448SOL     OW 7352   1.984   4.367   4.287
 2448SOL    HW1 7353   1.939   4.279   4.304
 2448SOL    HW2 7354   1.983   4.421   4.371
 2449SOL     OW 7355   2.671   3.728   4.226
 2449SOL    HW1 7356   2.711   3.819   4.217
 2449SOL    HW2 7357   2.571   3.736   4.232
 2450SOL     OW 7358   3.143   4.069   4.668
 2450SOL    HW1 7359   3.057   4.019   4.655
 2450SOL    HW2 7360   3.205   4.015   4.724
 2451SOL     OW 7361   2.903   4.425   4.153
 2451SOL    HW1 7362   2.929   4.421   4.249
 2451SOL    HW2 7363   2.818   4.374   4.139
 2452SOL     OW 7364   2.727   4.072   3.919
 2452SOL    HW1 7365   2.786   4.135   3.870
 2452SOL    HW2 7366   2.746   3.978   3.890
 2453SOL     OW 7367   3.262   3.831   4.150
 2453SOL    HW1 7368   3.238   3.794   4.060
 2453SOL    HW2 7369   3.361   3.847   4.154
 2454SOL     OW 7370   2.244   4.424   4.204
 2454SOL    HW1 7371   2.289   4.334   4.201
 2454SOL    HW2 7372   2.150   4.413   4.237
 2455SOL     OW 7373   2.476   3.846   3.841
 2455SOL    HW1 7374   2.574   3.824   3.848
 2455SOL    HW2 7375   2.445   3.829   3.748
 2456SOL     OW 7376   2.401   3.788   4.236
 2456SOL    HW1 7377   2.320   3.789   4.294
 2456SOL    HW2 7378   2.404   3.871   4.181
 2457SOL     OW 7379   2.159   3.759   3.895
 2457SOL    HW1 7380   2.208   3.843   3.874
 2457SOL    HW2 7381   2.221   3.694   3.940
 2458SOL     OW 7382   2.797   3.960   4.204
 2458SOL    HW1 7383   2.749   4.001   4.126
 2458SOL    HW2 7384   2.896   3.958   4.185
 2459SOL     OW 7385   2.894   4.273   3.740
 2459SOL    HW1 7386   2.853   4.355   3.701
 2459SOL    HW2 7387   2.958   4.299   3.813
 2460SOL     OW 7388   2.728   4.178   4.366
 2460SOL    HW1 7389   2.696   4.250   4.304
 2460SOL    HW2 7390   2.752   4.097   4.313
 2461SOL     OW 7391   3.252   4.299   3.802
 2461SOL    HW1 7392   3.198   4.278   3.883
 2461SOL    HW2 7393   3.343   4.258   3.811
 2462SOL     OW 7394   2.389   3.980   4.052
 2462SOL    HW1 7395   2.416   3.921   3.977
 2462SOL    HW2 7396   2.389   4.075   4.021
 2463SOL     OW 7397   3.444   4.363   4.196
 2463SOL    HW1 7398   3.413   4.424   4.269
 2463SOL    HW2 7399   3.494   4.415   4.127
 2464SOL     OW 7400   3.071   4.249   3.999
 2464SOL    HW1 7401   3.084   4.165   4.053
 2464SOL    HW2 7402   3.042   4.323   4.059
 2465SOL     OW 7403   2.169   3.787   4.342
 2465SOL    HW1 7404   2.158   3.881   4.375
 2465SOL    HW2 7405   2.164   3.724   4.419
 2466SOL     OW 7406   3.484   4.091   4.098
 2466SOL    HW1 7407   3.486   4.015   4.162
 2466SOL    HW2 7408   3.436   4.168   4.138
 2467SOL     OW 7409   3.402   3.998   3.849
 2467SOL    HW1 7410   3.341   3.923   3.872
 2467SOL    HW2 7411   3.424   4.050   3.932
 2468SOL     OW 7412   2.677   4.296   4.049
 2468SOL    HW1 7413   2.684   4.207   4.003
 2468SOL    HW2 7414   2.583   4.330   4.041
 2469SOL     OW 7415   2.335   4.224   3.915
 2469SOL    HW1 7416   2.396   4.304   3.919
 2469SOL    HW2 7417   2.240   4.255   3.922
 2470SOL     OW 7418   3.588   3.859   4.247
 2470SOL    HW1 7419   3.661   3.842   4.180
 2470SOL    HW2 7420   3.557   3.772   4.285
 2471SOL     OW 7421   3.142   4.651   4.396
 2471SOL    HW1 7422   3.202   4.570   4.398
 2471SOL    HW2 7423   3.182   4.720   4.336
 2472SOL     OW 7424   3.703   3.899   4.687
 2472SOL    HW1 7425   3.742   3.814   4.651
 2472SOL    HW2 7426   3.605   3.901   4.668
 2473SOL     OW 7427   2.778   4.634   4.015
 2473SOL    HW1 7428   2.841   4.672   3.947
 2473SOL    HW2 7429   2.818   4.551   4.054
 2474SOL     OW 7430   1.937   4.069   3.757
 2474SOL    HW1 7431   1.845   4.041   3.728
 2474SOL    HW2 7432   1.968   4.146   3.701
 2475SOL     OW 7433   1.934   3.890   4.042
 2475SOL    HW1 7434   1.917   3.973   3.988
 2475SOL    HW2 7435   2.024   3.853   4.020
 2476SOL     OW 7436   3.087   4.049   4.173
 2476SOL    HW1 7437   3.152   3.975   4.162
 2476SOL    HW2 7438   3.107   4.099   4.257
 2477SOL     OW 7439   2.945   4.708   3.811
 2477SOL    HW1 7440   2.922   4.761   3.729
 2477SOL    HW2 7441   3.026   4.652   3.792
 2478SOL     OW 7442   2.290   4.148   4.244
 2478SOL    HW1 7443   2.320   4.076   4.182
 2478SOL    HW2 7444   2.251   4.108   4.327
 2479SOL     OW 7445   3.214   3.776   3.892
 2479SOL    HW1 7446   3.249   3.735   3.808
 2479SOL    HW2 7447   3.124   3.738   3.912
 2480SOL     OW 7448   3.162   4.177   4.415
 2480SOL    HW1 7449   3.103   4.257   4.419
 2480SOL    HW2 7450   3.177   4.142   4.508
 2481SOL     OW 7451   3.954   0.628   0.113
 2481SOL    HW1 7452   3.861   0.626   0.150
 2481SOL    HW2 7453   3.955   0.589   0.021
 2482SOL     OW 7454   3.949   0.275   0.996
 2482SOL    HW1 7455   3.984   0.258   1.088
 2482SOL    HW2 7456   3.861   0.230   0.984
 2483SOL     OW 7457   3.743   0.368   0.647
 2483SOL    HW1 7458   3.661   0.411   0.686
 2483SOL    HW2 7459   3.715   0.295   0.584
 2484SOL     OW 7460   4.293   1.275   1.165
 2484SOL    HW1 7461   4.200   1.268   1.128
 2484SOL    HW2 7462   4.304   1.364   1.209
 2485SOL     OW 7463   4.574   0.798   1.823
 2485SOL    HW1 7464   4.570   0.874   1.888
 2485SOL    HW2 7465   4.596   0.834   1.732
 2486SOL     OW 7466   4.409   1.012   0.665
 2486SOL    HW1 7467   4.478   0.996   0.735
 2486SOL    HW2 7468   4.336   1.069   0.703
 2487SOL     OW 7469   4.410   1.161   1.803
 2487SOL    HW1 7470   4.470   1.240   1.817
 2487SOL    HW2 7471   4.324   1.192   1.762
 2488SOL     OW 7472   4.059   1.435   1.061
 2488SOL    HW1 7473   3.981   1.404   1.008
 2488SOL    HW2 7474   4.117   1.493   1.004
 2489SOL     OW 7475   4.162   0.392   1.499
 2489SOL    HW1 7476   4.244   0.336   1.508
 2489SOL    HW2 7477   4.081   0.334   1.503
 2490SOL     OW 7478   3.955   1.713   0.483
 2490SOL    HW1 7479   3.989   1.790   0.537
 2490SOL    HW2 7480   3.999   1.713   0.393
 2491SOL     OW 7481   3.954   1.434   0.538
 2491SOL    HW1 7482   3.928   1.530   0.538
 2491SOL    HW2 7483   3.883   1.380   0.583
 2492SOL     OW 7484   3.964   1.091   0.886
 2492SOL    HW1 7485   3.978   1.007   0.938
 2492SOL    HW2 7486   3.909   1.155   0.941
 2493SOL     OW 7487   4.344   1.786   1.439
 2493SOL    HW1 7488   4.252   1.769   1.474
 2493SOL    HW2 7489   4.372   1.878   1.465
 2494SOL     OW 7490   4.330   0.964   0.123
 2494SOL    HW1 7491   4.337   1.048   0.069
 2494SOL    HW2 7492   4.376   0.977   0.211
 2495SOL     OW 7493   3.846   0.643   0.563
 2495SOL    HW1 7494   3.801   0.555   0.580
 2495SOL    HW2 7495   3.845   0.697   0.647
 2496SOL     OW 7496   3.751   1.596   0.117
 2496SOL    HW1 7497   3.732   1.500   0.138
 2496SOL    HW2 7498   3.718   1.654   0.192
 2497SOL     OW 7499   3.837   0.737   1.597
 2497SOL    HW1 7500   3.925   0.724   1.642
 2497SOL    HW2 7501   3.824   0.834   1.575
 2498SOL     OW 7502   4.337   1.365   0.726
 2498SOL    HW1 7503   4.288   1.278   0.735
 2498SOL    HW2 7504   4.314   1.408   0.639
 2499SOL     OW 7505   4.533   0.004   0.502
 2499SOL    HW1 7506   4.573   0.095   0.493
 2499SOL    HW2 7507   4.433   0.012   0.508
 2500SOL     OW 7508   3.921   0.976   1.264
 2500SOL    HW1 7509   4.010   0.931   1.250
 2500SOL    HW2 7510   3.848   0.911   1.245
 2501SOL     OW 7511   4.041   0.251   1.801
 2501SOL    HW1 7512   4.112   0.322   1.807
 2501SOL    HW2 7513   3.953   0.290   1.829
 2502SOL     OW 7514   4.322   0.729   0.270
 2502SOL    HW1 7515   4.346   0.798   0.202
 2502SOL    HW2 7516   4.244   0.762   0.324
 2503SOL     OW 7517   3.800   0.811   0.789
 2503SOL    HW1 7518   3.899   0.799   0.798
 2503SOL    HW2 7519   3.776   0.906   0.810
 2504SOL     OW 7520   3.854   1.821   1.571
 2504SOL    HW1 7521   3.844   1.806   1.670
 2504SOL    HW2 7522   3.768   1.857   1.535
 2505SOL     OW 7523   4.274   0.196   0.885
 2505SOL    HW1 7524   4.269   0.191   0.985
 2505SOL    HW2 7525   4.276   0.292   0.856
 2506SOL     OW 7526   4.075   1.801   0.853
 2506SOL    HW1 7527   4.125   1.715   0.859
 2506SOL    HW2 7528   4.140   1.878   0.850
 2507SOL     OW 7529   4.045   0.943   0.242
 2507SOL    HW1 7530   4.127   0.982   0.200
 2507SOL    HW2 7531   4.018   0.861   0.193
 2508SOL     OW 7532   4.185   1.266   1.727
 2508SOL    HW1 7533   4.135   1.267   1.641
 2508SOL    HW2 7534   4.122   1.248   1.803
 2509SOL     OW 7535   3.926   0.285   1.498
 2509SOL    HW1 7536   3.846   0.345   1.485
 2509SOL    HW2 7537   3.916   0.236   1.584
 2510SOL     OW 7538   4.188   1.743   0.323
 2510SOL    HW1 7539   4.221   1.782   0.409
 2510SOL    HW2 7540   4.264   1.736   0.258
 2511SOL     OW 7541   3.973   1.785   1.241
 2511SOL    HW1 7542   4.030   1.720   1.291
 2511SOL    HW2 7543   3.957   1.752   1.148
 2512SOL     OW 7544   4.106   0.700   0.480
 2512SOL    HW1 7545   4.151   0.610   0.477
 2512SOL    HW2 7546   4.012   0.689   0.513
 2513SOL     OW 7547   4.338   0.122   0.117
 2513SOL    HW1 7548   4.436   0.100   0.124
 2513SOL    HW2 7549   4.307   0.105   0.024
 2514SOL     OW 7550   4.527   1.402   0.924
 2514SOL    HW1 7551   4.617   1.416   0.882
 2514SOL    HW2 7552   4.456   1.404   0.853
 2515SOL     OW 7553   4.263   0.064   0.512
 2515SOL    HW1 7554   4.182   0.065   0.570
 2515SOL    HW2 7555   4.266   0.147   0.457
 2516SOL     OW 7556   4.021   0.035   0.171
 2516SOL    HW1 7557   4.070   0.119   0.150
 2516SOL    HW2 7558   4.083  -0.030   0.216
 2517SOL     OW 7559   4.183   1.152   0.741
 2517SOL    HW1 7560   4.112   1.125   0.806
 2517SOL    HW2 7561   4.157   1.124   0.648
 2518SOL     OW 7562   3.802   0.556   1.386
 2518SOL    HW1 7563   3.894   0.555   1.345
 2518SOL    HW2 7564   3.796   0.630   1.453
 2519SOL     OW 7565   4.285   0.222   1.147
 2519SOL    HW1 7566   4.323   0.138   1.184
 2519SOL    HW2 7567   4.197   0.241   1.191
 2520SOL     OW 7568   4.212   1.385   0.174
 2520SOL    HW1 7569   4.125   1.370   0.221
 2520SOL    HW2 7570   4.195   1.411   0.079
 2521SOL     OW 7571   4.251   0.256   0.328
 2521SOL    HW1 7572   4.278   0.197   0.253
 2521SOL    HW2 7573   4.251   0.351   0.297
 2522SOL     OW 7574   4.134   0.813   1.251
 2522SOL    HW1 7575   4.220   0.825   1.301
 2522SOL    HW2 7576   4.092   0.726   1.278
 2523SOL     OW 7577   3.788   1.564   1.331
 2523SOL    HW1 7578   3.742   1.646   1.297
 2523SOL    HW2 7579   3.886   1.583   1.340
 2524SOL     OW 7580   4.091   1.100   0.501
 2524SOL    HW1 7581   4.084   1.183   0.445
 2524SOL    HW2 7582   4.095   1.020   0.441
 2525SOL     OW 7583   4.290   0.537   0.865
 2525SOL    HW1 7584   4.302   0.603   0.791
 2525SOL    HW2 7585   4.336   0.571   0.948
 2526SOL     OW 7586   4.078   1.510   1.329
 2526SOL    HW1 7587   4.057   1.466   1.242
 2526SOL    HW2 7588   4.175   1.536   1.332
 2527SOL     OW 7589   4.126   0.751   1.598
 2527SOL    HW1 7590   4.194   0.806   1.551
 2527SOL    HW2 7591   4.166   0.663   1.625
 2528SOL     OW 7592   4.228   0.050   1.740
 2528SOL    HW1 7593   4.186  -0.007   1.670
 2528SOL    HW2 7594   4.162   0.119   1.772
 2529SOL     OW 7595   4.297   0.870   1.029
 2529SOL    HW1 7596   4.341   0.959   1.020
 2529SOL    HW2 7597   4.234   0.870   1.106
 2530SOL     OW 7598   4.031   0.213   1.231
 2530SOL    HW1 7599   4.008   0.250   1.321
 2530SOL    HW2 7600   4.001   0.118   1.225
 2531SOL     OW 7601   3.761   1.310   1.282
 2531SOL    HW1 7602   3.814   1.261   1.350
 2531SOL    HW2 7603   3.783   1.408   1.287
 2532SOL     OW 7604   4.031   0.063   0.618
 2532SOL    HW1 7605   4.020   0.157   0.651
 2532SOL    HW2 7606   4.026   0.000   0.695
 2533SOL     OW 7607   4.074   0.898   1.804
 2533SOL    HW1 7608   4.150   0.942   1.852
 2533SOL    HW2 7609   4.109   0.851   1.722
 2534SOL     OW 7610   4.043   0.810   0.949
 2534SOL    HW1 7611   4.136   0.846   0.954
 2534SOL    HW2 7612   4.037   0.725   1.001
 2535SOL     OW 7613   4.063   0.509   1.006
 2535SOL    HW1 7614   4.011   0.426   0.989
 2535SOL    HW2 7615   4.140   0.514   0.942
 2536SOL     OW 7616   3.732   1.326   0.200
 2536SOL    HW1 7617   3.639   1.347   0.169
 2536SOL    HW2 7618   3.742   1.227   0.213
 2537SOL     OW 7619   3.812   1.801   0.927
 2537SOL    HW1 7620   3.770   1.715   0.900
 2537SOL    HW2 7621   3.906   1.804   0.893
 2538SOL     OW 7622   4.228   1.568   0.910
 2538SOL    HW1 7623   4.294   1.642   0.919
 2538SOL    HW2 7624   4.272   1.489   0.868
 2539SOL     OW 7625   3.764   0.544   1.114
 2539SOL    HW1 7626   3.849   0.511   1.073
 2539SOL    HW2 7627   3.777   0.559   1.212
 2540SOL     OW 7628   3.913   0.520   1.722
 2540SOL    HW1 7629   3.972   0.480   1.652
 2540SOL    HW2 7630   3.855   0.591   1.681
 2541SOL     OW 7631   4.539   0.572   0.325
 2541SOL    HW1 7632   4.546   0.483   0.279
 2541SOL    HW2 7633   4.445   0.606   0.317
 2542SOL     OW 7634   3.976   1.564   1.744
 2542SOL    HW1 7635   3.946   1.621   1.820
 2542SOL    HW2 7636   3.969   1.467   1.770
 2543SOL     OW 7637   4.197   0.500   0.191
 2543SOL    HW1 7638   4.258   0.580   0.195
 2543SOL    HW2 7639   4.102   0.531   0.198
 2544SOL     OW 7640   3.883   1.137   1.466
 2544SOL    HW1 7641   3.905   1.076   1.542
 2544SOL    HW2 7642   3.893   1.088   1.380
 2545SOL     OW 7643   3.807   1.258   1.022
 2545SOL    HW1 7644   3.802   1.257   1.122
 2545SOL    HW2 7645   3.724   1.217   0.984
 2546SOL     OW 7646   4.412   1.662   1.716
 2546SOL    HW1 7647   4.356   1.743   1.725
 2546SOL    HW2 7648   4.464   1.666   1.630
 2547SOL     OW 7649   3.854   1.794   1.851
 2547SOL    HW1 7650   3.813   1.720   1.904
 2547SOL    HW2 7651   3.918   1.845   1.909
 2548SOL     OW 7652   3.987   0.326   0.720
 2548SOL    HW1 7653   3.908   0.377   0.686
 2548SOL    HW2 7654   3.978   0.311   0.818
 2549SOL     OW 7655   4.096   1.288   1.490
 2549SOL    HW1 7656   4.083   1.381   1.456
 2549SOL    HW2 7657   4.012   1.236   1.477
 2550SOL     OW 7658   4.314   1.487   0.491
 2550SOL    HW1 7659   4.356   1.429   0.421
 2550SOL    HW2 7660   4.270   1.566   0.447
 2551SOL     OW 7661   3.979   1.348   0.290
 2551SOL    HW1 7662   3.883   1.349   0.263
 2551SOL    HW2 7663   3.991   1.401   0.374
 2552SOL     OW 7664   3.829   1.013   1.726
 2552SOL    HW1 7665   3.752   0.980   1.780
 2552SOL    HW2 7666   3.914   0.983   1.768
 2553SOL     OW 7667   4.396   0.203   1.489
 2553SOL    HW1 7668   4.486   0.187   1.449
 2553SOL    HW2 7669   4.404   0.208   1.588
 2554SOL     OW 7670   3.799   0.345   0.033
 2554SOL    HW1 7671   3.707   0.317   0.004
 2554SOL    HW2 7672   3.830   0.422  -0.023
 2555SOL     OW 7673   4.337   0.842   1.431
 2555SOL    HW1 7674   4.393   0.923   1.414
 2555SOL    HW2 7675   4.396   0.762   1.434
 2556SOL     OW 7676   4.440   0.565   1.708
 2556SOL    HW1 7677   4.459   0.630   1.782
 2556SOL    HW2 7678   4.500   0.485   1.717
 2557SOL     OW 7679   4.114   1.741   1.560
 2557SOL    HW1 7680   4.023   1.782   1.558
 2557SOL    HW2 7681   4.107   1.647   1.592
 2558SOL     OW 7682   4.318   0.745   0.652
 2558SOL    HW1 7683   4.368   0.830   0.633
 2558SOL    HW2 7684   4.230   0.747   0.604
 2559SOL     OW 7685   3.945   1.314   1.844
 2559SOL    HW1 7686   3.880   1.241   1.823
 2559SOL    HW2 7687   3.949   1.328   1.942
 2560SOL     OW 7688   3.803   1.240   0.653
 2560SOL    HW1 7689   3.802   1.193   0.741
 2560SOL    HW2 7690   3.885   1.212   0.602
 2561SOL     OW 7691   4.396   1.391   1.624
 2561SOL    HW1 7692   4.318   1.341   1.662
 2561SOL    HW2 7693   4.393   1.486   1.655
 2562SOL     OW 7694   4.152   0.424   0.520
 2562SOL    HW1 7695   4.182   0.352   0.458
 2562SOL    HW2 7696   4.113   0.384   0.603
 2563SOL     OW 7697   4.041   0.547   1.280
 2563SOL    HW1 7698   4.079   0.488   1.352
 2563SOL    HW2 7699   4.081   0.521   1.192
 2564SOL     OW 7700   4.536   1.586   0.687
 2564SOL    HW1 7701   4.568   1.596   0.593
 2564SOL    HW2 7702   4.457   1.524   0.689
 2565SOL     OW 7703   4.342   1.567   1.284
 2565SOL    HW1 7704   4.337   1.649   1.341
 2565SOL    HW2 7705   4.431   1.564   1.239
 2566SOL     OW 7706   3.763   1.077   0.300
 2566SOL    HW1 7707   3.862   1.066   0.291
 2566SOL    HW2 7708   3.723   0.991   0.332
 2567SOL     OW 7709   3.954   0.628   1.975
 2567SOL    HW1 7710   3.861   0.626   2.012
 2567SOL    HW2 7711   3.955   0.589   1.883
 2568SOL     OW 7712   3.949   0.275   2.858
 2568SOL    HW1 7713   3.984   0.258   2.950
 2568SOL    HW2 7714   3.861   0.230   2.846
 2569SOL     OW 7715   3.743   0.368   2.509
 2569SOL    HW1 7716   3.661   0.411   2.548
 2569SOL    HW2 7717   3.715   0.295   2.446
 2570SOL     OW 7718   4.293   1.275   3.027
 2570SOL    HW1 7719   4.200   1.268   2.990
 2570SOL    HW2 7720   4.304   1.364   3.071
 2571SOL     OW 7721   4.574   0.798   3.685
 2571SOL    HW1 7722   4.570   0.874   3.750
 2571SOL    HW2 7723   4.596   0.834   3.594
 2572SOL     OW 7724   4.409   1.012   2.527
 2572SOL    HW1 7725   4.478   0.996   2.597
 2572SOL    HW2 7726   4.336   1.069   2.565
 2573SOL     OW 7727   4.410   1.161   3.665
 2573SOL    HW1 7728   4.470   1.240   3.679
 2573SOL    HW2 7729   4.324   1.192   3.624
 2574SOL     OW 7730   4.059   1.435   2.923
 2574SOL    HW1 7731   3.981   1.404   2.870
 2574SOL    HW2 7732   4.117   1.493   2.866
 2575SOL     OW 7733   4.162   0.392   3.361
 2575SOL    HW1 7734   4.244   0.336   3.370
 2575SOL    HW2 7735   4.081   0.334   3.365
 2576SOL     OW 7736   3.955   1.713   2.345
 2576SOL    HW1 7737   3.989   1.790   2.399
 2576SOL    HW2 7738   3.999   1.713   2.255
 2577SOL     OW 7739   3.954   1.434   2.400
 2577SOL    HW1 7740   3.928   1.530   2.400
 2577SOL    HW2 7741   3.883   1.380   2.445
 2578SOL     OW 7742   3.964   1.091   2.748
 2578SOL    HW1 7743   3.978   1.007   2.800
 2578SOL    HW2 7744   3.909   1.155   2.803
 2579SOL     OW 7745   4.344   1.786   3.301
 2579SOL    HW1 7746   4.252   1.769   3.336
 2579SOL    HW2 7747   4.372   1.878   3.327
 2580SOL     OW 7748   4.330   0.964   1.985
 2580SOL    HW1 7749   4.337   1.048   1.931
 2580SOL    HW2 7750   4.376   0.977   2.073
 2581SOL     OW 7751   3.846   0.643   2.425
 2581SOL    HW1 7752   3.801   0.555   2.442
 2581SOL    HW2 7753   3.845   0.697   2.509
 2582SOL     OW 7754   3.751   1.596   1.979
 2582SOL    HW1 7755   3.732   1.500   2.000
 2582SOL    HW2 7756   3.718   1.654   2.054
 2583SOL     OW 7757   3.837   0.737   3.459
 2583SOL    HW1 7758   3.925   0.724   3.504
 2583SOL    HW2 7759   3.824   0.834   3.437
 2584SOL     OW 7760   4.337   1.365   2.588
 2584SOL    HW1 7761   4.288   1.278   2.597
 2584SOL    HW2 7762   4.314   1.408   2.501
 2585SOL     OW 7763   4.533   0.004   2.364
 2585SOL    HW1 7764   4.573   0.095   2.355
 2585SOL    HW2 7765   4.433   0.012   2.370
 2586SOL     OW 7766   3.921   0.976   3.126
 2586SOL    HW1 7767   4.010   0.931   3.112
 2586SOL    HW2 7768   3.848   0.911   3.107
 2587SOL     OW 7769   4.041   0.251   3.663
 2587SOL    HW1 7770   4.112   0.322   3.669
 2587SOL    HW2 7771   3.953   0.290   3.691
 2588SOL     OW 7772   4.322   0.729   2.132
 2588SOL    HW1 7773   4.346   0.798   2.064
 2588SOL    HW2 7774   4.244   0.762   2.186
 2589SOL     OW 7775   3.800   0.811   2.651
 2589SOL    HW1 7776   3.899   0.799   2.660
 2589SOL    HW2 7777   3.776   0.906   2.672
 2590SOL     OW 7778   3.854   1.821   3.433
 2590SOL    HW1 7779   3.844   1.806   3.532
 2590SOL    HW2 7780   3.768   1.857   3.397
 2591SOL     OW 7781   4.274   0.196   2.747
 2591SOL    HW1 7782   4.269   0.191   2.847
 2591SOL    HW2 7783   4.276   0.292   2.718
 2592SOL     OW 7784   4.075   1.801   2.715
 2592SOL    HW1 7785   4.125   1.715   2.721
 2592SOL    HW2 7786   4.140   1.878   2.712
 2593SOL     OW 7787   4.045   0.943   2.104
 2593SOL    HW1 7788   4.127   0.982   2.062
 2593SOL    HW2 7789   4.018   0.861   2.055
 2594SOL     OW 7790   4.185   1.266   3.589
 2594SOL    HW1 7791   4.135   1.267   3.503
 2594SOL    HW2 7792   4.122   1.248   3.665
 2595SOL     OW 7793   3.926   0.285   3.360
 2595SOL    HW1 7794   3.846   0.345   3.347
 2595SOL    HW2 7795   3.916   0.236   3.446
 2596SOL     OW 7796   4.188   1.743   2.185
 2596SOL    HW1 7797   4.221   1.782   2.271
 2596SOL    HW2 7798   4.264   1.736   2.120
 2597SOL     OW 7799   3.973   1.785   3.103
 2597SOL    HW1 7800   4.030   1.720   3.153
 2597SOL    HW2 7801   3.957   1.752   3.010
 2598SOL     OW 7802   4.106   0.700   2.342
 2598SOL    HW1 7803   4.151   0.610   2.339
 2598SOL    HW2 7804   4.012   0.689   2.375
 2599SOL     OW 7805   4.338   0.122   1.979
 2599SOL    HW1 7806   4.436   0.100   1.986
 2599SOL    HW2 7807   4.307   0.105   1.886
 2600SOL     OW 7808   4.527   1.402   2.786
 2600SOL    HW1 7809   4.617   1.416   2.744
 2600SOL    HW2 7810   4.456   1.404   2.715
 2601SOL     OW 7811   4.263   0.064   2.374
 2601SOL    HW1 7812   4.182   0.065   2.432
 2601SOL    HW2 7813   4.266   0.147   2.319
 2602SOL     OW 7814   4.021   0.035   2.033
 2602SOL    HW1 7815   4.070   0.119   2.012
 2602SOL    HW2 7816   4.083  -0.030   2.078
 2603SOL     OW 7817   4.183   1.152   2.603
 2603SOL    HW1 7818   4.112   1.125   2.668
 2603SOL    HW2 7819   4.157   1.124   2.510
 2604SOL     OW 7820   3.802   0.556   3.248
 2604SOL    HW1 7821   3.894   0.555   3.207
 2604SOL    HW2 7822   3.796   0.630   3.315
 2605SOL     OW 7823   4.285   0.222   3.009
 2605SOL    HW1 7824   4.323   0.138   3.046
 2605SOL    HW2 7825   4.197   0.241   3.053
 2606SOL     OW 7826   4.212   1.385   2.036
 2606SOL    HW1 7827   4.125   1.370   2.083
 2606SOL    HW2 7828   4.195   1.411   1.941
 2607SOL     OW 7829   4.251   0.256   2.190
 2607SOL    HW1 7830   4.278   0.197   2.115
 2607SOL    HW2 7831   4.251   0.351   2.159
 2608SOL     OW 7832   4.134   0.813   3.113
 2608SOL    HW1 7833   4.220   0.825   3.163
 2608SOL    HW2 7834   4.092   0.726   3.140
 2609SOL     OW 7835   3.788   1.564   3.193
 2609SOL    HW1 7836   3.742   1.646   3.159
 2609SOL    HW2 7837   3.886   1.583   3.202
 2610SOL     OW 7838   4.091   1.100   2.363
 2610SOL    HW1 7839   4.084   1.183   2.307
 2610SOL    HW2 7840   4.095   1.020   2.303
 2611SOL     OW 7841   4.290   0.537   2.727
 2611SOL    HW1 7842   4.302   0.603   2.653
 2611SOL    HW2 7843   4.336   0.571   2.810
 2612SOL     OW 7844   4.078   1.510   3.191
 2612SOL    HW1 7845   4.057   1.466   3.104
 2612SOL    HW2 7846   4.175   1.536   3.194
 2613SOL     OW 7847   4.126   0.751   3.460
 2613SOL    HW1 7848   4.194   0.806   3.413
 2613SOL    HW2 7849   4.166   0.663   3.487
 2614SOL     OW 7850   4.228   0.050   3.602
 2614SOL    HW1 7851   4.186  -0.007   3.532
 2614SOL    HW2 7852   4.162   0.119   3.634
 2615SOL     OW 7853   4.297   0.870   2.891
 2615SOL    HW1 7854   4.341   0.959   2.882
 2615SOL    HW2 7855   4.234   0.870   2.968
 2616SOL     OW 7856   4.031   0.213   3.093
 2616SOL    HW1 7857   4.008   0.250   3.183
 2616SOL    HW2 7858   4.001   0.118   3.087
 2617SOL     OW 7859   3.761   1.310   3.144
 2617SOL    HW1 7860   3.814   1.261   3.212
 2617SOL    HW2 7861   3.783   1.408   3.149
 2618SOL     OW 7862   4.031   0.063   2.480
 2618SOL    HW1 7863   4.020   0.157   2.513
 2618SOL    HW2 7864   4.026   0.000   2.557
 2619SOL     OW 7865   4.074   0.898   3.666
 2619SOL    HW1 7866   4.150   0.942   3.714
 2619SOL    HW2 7867   4.109   0.851   3.584
 2620SOL     OW 7868   4.043   0.810   2.811
 2620SOL    HW1 7869   4.136   0.846   2.816
 2620SOL    HW2 7870   4.037   0.725   2.863
 2621SOL     OW 7871   4.063   0.509   2.868
 2621SOL    HW1 7872   4.011   0.426   2.851
 2621SOL    HW2 7873   4.140   0.514   2.804
 2622SOL     OW 7874   3.732   1.326   2.062
 2622SOL    HW1 7875   3.639   1.347   2.031
 2622SOL    HW2 7876   3.742   1.227   2.075
 2623SOL     OW 7877   3.812   1.801   2.789
 2623SOL    HW1 7878   3.770   1.715   2.762
 2623SOL    HW2 7879   3.906   1.804   2.755
 2624SOL     OW 7880   4.228   1.568   2.772
 2624SOL    HW1 7881   4.294   1.642   2.781
 2624SOL    HW2 7882   4.272   1.489   2.730
 2625SOL     OW 7883   3.764   0.544   2.976
 2625SOL    HW1 7884   3.849   0.511   2.935
 2625SOL    HW2 7885   3.777   0.559   3.074
 2626SOL     OW 7886   3.913   0.520   3.584
 2626SOL    HW1 7887   3.972   0.480   3.514
 2626SOL    HW2 7888   3.855   0.591   3.543
 2627SOL     OW 7889   4.539   0.572   2.187
 2627SOL    HW1 7890   4.546   0.483   2.141
 2627SOL    HW2 7891   4.445   0.606   2.179
 2628SOL     OW 7892   3.976   1.564   3.606
 2628SOL    HW1 7893   3.946   1.621   3.682
 2628SOL    HW2 7894   3.969   1.467   3.632
 2629SOL     OW 7895   4.197   0.500   2.053
 2629SOL    HW1 7896   4.258   0.580   2.057
 2629SOL    HW2 7897   4.102   0.531   2.060
 2630SOL     OW 7898   3.883   1.137   3.328
 2630SOL    HW1 7899   3.905   1.076   3.404
 2630SOL    HW2 7900   3.893   1.088   3.242
 2631SOL     OW 7901   3.807   1.258   2.884
 2631SOL    HW1 7902   3.802   1.257   2.984
 2631SOL    HW2 7903   3.724   1.217   2.846
 2632SOL     OW 7904   4.412   1.662   3.578
 2632SOL    HW1 7905   4.356   1.743   3.587
 2632SOL    HW2 7906   4.464   1.666   3.492
 2633SOL     OW 7907   3.854   1.794   3.713
 2633SOL    HW1 7908   3.813   1.720   3.766
 2633SOL    HW2 7909   3.918   1.845   3.771
 2634SOL     OW 7910   3.987   0.326   2.582
 2634SOL    HW1 7911   3.908   0.377   2.548
 2634SOL    HW2 7912   3.978   0.311   2.680
 2635SOL     OW 7913   4.096   1.288   3.352
 2635SOL    HW1 7914   4.083   1.381   3.318
 2635SOL    HW2 7915   4.012   1.236   3.339
 2636SOL     OW 7916   4.314   1.487   2.353
 2636SOL    HW1 7917   4.356   1.429   2.283
 2636SOL    HW2 7918   4.270   1.566   2.309
 2637SOL     OW 7919   3.979   1.348   2.152
 2637SOL    HW1 7920   3.883   1.349   2.125
 2637SOL    HW2 7921   3.991   1.401   2.236
 2638SOL     OW 7922   3.829   1.013   3.588
 2638SOL    HW1 7923   3.752   0.980   3.642
 2638SOL    HW2 7924   3.914   0.983   3.630
 2639SOL     OW 7925   4.396   0.203   3.351
 2639SOL    HW1 7926   4.486   0.187   3.311
 2639SOL    HW2 7927   4.404   0.208   3.450
 2640SOL     OW 7928   3.799   0.345   1.895
 2640SOL    HW1 7929   3.707   0.317   1.866
 2640SOL    HW2 7930   3.830   0.422   1.839
 2641SOL     OW 7931   3.796   0.166   2.180
 2641SOL    HW1 7932   3.779   0.249   2.126
 2641SOL    HW2 7933   3.886   0.129   2.158
 2642SOL     OW 7934   4.337   0.842   3.293
 2642SOL    HW1 7935   4.393   0.923   3.276
 2642SOL    HW2 7936   4.396   0.762   3.296
 2643SOL     OW 7937   4.440   0.565   3.570
 2643SOL    HW1 7938   4.459   0.630   3.644
 2643SOL    HW2 7939   4.500   0.485   3.579
 2644SOL     OW 7940   4.114   1.741   3.422
 2644SOL    HW1 7941   4.023   1.782   3.420
 2644SOL    HW2 7942   4.107   1.647   3.454
 2645SOL     OW 7943   4.318   0.745   2.514
 2645SOL    HW1 7944   4.368   0.830   2.495
 2645SOL    HW2 7945   4.230   0.747   2.466
 2646SOL     OW 7946   3.945   1.314   3.706
 2646SOL    HW1 7947   3.880   1.241   3.685
 2646SOL    HW2 7948   3.949   1.328   3.804
 2647SOL     OW 7949   3.803   1.240   2.515
 2647SOL    HW1 7950   3.802   1.193   2.603
 2647SOL    HW2 7951   3.885   1.212   2.464
 2648SOL     OW 7952   4.396   1.391   3.486
 2648SOL    HW1 7953   4.318   1.341   3.524
 2648SOL    HW2 7954   4.393   1.486   3.517
 2649SOL     OW 7955   4.152   0.424   2.382
 2649SOL    HW1 7956   4.182   0.352   2.320
 2649SOL    HW2 7957   4.113   0.384   2.465
 2650SOL     OW 7958   4.041   0.547   3.142
 2650SOL    HW1 7959   4.079   0.488   3.214
 2650SOL    HW2 7960   4.081   0.521   3.054
 2651SOL     OW 7961   4.536   1.586   2.549
 2651SOL    HW1 7962   4.568   1.596   2.455
 2651SOL    HW2 7963   4.457   1.524   2.551
 2652SOL     OW 7964   4.342   1.567   3.146
 2652SOL    HW1 7965   4.337   1.649   3.203
 2652SOL    HW2 7966   4.431   1.564   3.101
 2653SOL     OW 7967   3.763   1.077   2.162
 2653SOL    HW1 7968   3.862   1.066   2.153
 2653SOL    HW2 7969   3.723   0.991   2.194
 2654SOL     OW 7970   3.954   0.628   3.837
 2654SOL    HW1 7971   3.861   0.626   3.874
 2654SOL    HW2 7972   3.955   0.589   3.745
 2655SOL     OW 7973   3.949   0.275   4.720
 2655SOL    HW1 7974   3.984   0.258   4.812
 2655SOL    HW2 7975   3.861   0.230   4.708
 2656SOL     OW 7976   3.743   0.368   4.371
 2656SOL    HW1 7977   3.661   0.411   4.410
 2656SOL    HW2 7978   3.715   0.295   4.308
 2657SOL     OW 7979   4.409   1.012   4.389
 2657SOL    HW1 7980   4.478   0.996   4.459
 2657SOL    HW2 7981   4.336   1.069   4.427
 2658SOL     OW 7982   3.955   1.713   4.207
 2658SOL    HW1 7983   3.989   1.790   4.261
 2658SOL    HW2 7984   3.999   1.713   4.117
 2659SOL     OW 7985   3.954   1.434   4.262
 2659SOL    HW1 7986   3.928   1.530   4.262
 2659SOL    HW2 7987   3.883   1.380   4.307
 2660SOL     OW 7988   4.330   0.964   3.847
 2660SOL    HW1 7989   4.337   1.048   3.793
 2660SOL    HW2 7990   4.376   0.977   3.935
 2661SOL     OW 7991   3.846   0.643   4.287
 2661SOL    HW1 7992   3.801   0.555   4.304
 2661SOL    HW2 7993   3.845   0.697   4.371
 2662SOL     OW 7994   3.751   1.596   3.841
 2662SOL    HW1 7995   3.732   1.500   3.862
 2662SOL    HW2 7996   3.718   1.654   3.916
 2663SOL     OW 7997   4.337   1.365   4.450
 2663SOL    HW1 7998   4.288   1.278   4.459
 2663SOL    HW2 7999   4.314   1.408   4.363
 2664SOL     OW 8000   4.533   0.004   4.226
 2664SOL    HW1 8001   4.573   0.095   4.217
 2664SOL    HW2 8002   4.433   0.012   4.232
 2665SOL     OW 8003   4.322   0.729   3.994
 2665SOL    HW1 8004   4.346   0.798   3.926
 2665SOL    HW2 8005   4.244   0.762   4.048
 2666SOL     OW 8006   3.800   0.811   4.513
 2666SOL    HW1 8007   3.899   0.799   4.522
 2666SOL    HW2 8008   3.776   0.906   4.534
 2667SOL     OW 8009   4.075   1.801   4.577
 2667SOL    HW1 8010   4.125   1.715   4.583
 2667SOL    HW2 8011   4.140   1.878   4.574
 2668SOL     OW 8012   4.045   0.943   3.966
 2668SOL    HW1 8013   4.127   0.982   3.924
 2668SOL    HW2 8014   4.018   0.861   3.917
 2669SOL     OW 8015   4.188   1.743   4.047
 2669SOL    HW1 8016   4.221   1.782   4.133
 2669SOL    HW2 8017   4.264   1.736   3.982
 2670SOL     OW 8018   4.106   0.700   4.204
 2670SOL    HW1 8019   4.151   0.610   4.201
 2670SOL    HW2 8020   4.012   0.689   4.237
 2671SOL     OW 8021   4.338   0.122   3.841
 2671SOL    HW1 8022   4.436   0.100   3.848
 2671SOL    HW2 8023   4.307   0.105   3.748
 2672SOL     OW 8024   4.263   0.064   4.236
 2672SOL    HW1 8025   4.182   0.065   4.294
 2672SOL    HW2 8026   4.266   0.147   4.181
 2673SOL     OW 8027   4.021   0.035   3.895
 2673SOL    HW1 8028   4.070   0.119   3.874
 2673SOL    HW2 8029   4.083  -0.030   3.940
 2674SOL     OW 8030   4.183   1.152   4.465
 2674SOL    HW1 8031   4.112   1.125   4.530
 2674SOL    HW2 8032   4.157   1.124   4.372
 2675SOL     OW 8033   4.212   1.385   3.898
 2675SOL    HW1 8034   4.125   1.370   3.945
 2675SOL    HW2 8035   4.195   1.411   3.803
 2676SOL     OW 8036   4.251   0.256   4.052
 2676SOL    HW1 8037   4.278   0.197   3.977
 2676SOL    HW2 8038   4.251   0.351   4.021
 2677SOL     OW 8039   4.091   1.100   4.225
 2677SOL    HW1 8040   4.084   1.183   4.169
 2677SOL    HW2 8041   4.095   1.020   4.165
 2678SOL     OW 8042   4.031   0.063   4.342
 2678SOL    HW1 8043   4.020   0.157   4.375
 2678SOL    HW2 8044   4.026   0.000   4.419
 2679SOL     OW 8045   3.732   1.326   3.924
 2679SOL    HW1 8046   3.639   1.347   3.893
 2679SOL    HW2 8047   3.742   1.227   3.937
 2680SOL     OW 8048   4.539   0.572   4.049
 2680SOL    HW1 8049   4.546   0.483   4.003
 2680SOL    HW2 8050   4.445   0.606   4.041
 2681SOL     OW 8051   4.197   0.500   3.915
 2681SOL    HW1 8052   4.258   0.580   3.919
 2681SOL    HW2 8053   4.102   0.531   3.922
 2682SOL     OW 8054   4.763   1.098   4.420
 2682SOL    HW1 8055   4.693   1.051   4.474
 2682SOL    HW2 8056   4.822   1.030   4.377
 2683SOL     OW 8057   4.314   1.487   4.215
 2683SOL    HW1 8058   4.356   1.429   4.145
 2683SOL    HW2 8059   4.270   1.566   4.171
 2684SOL     OW 8060   3.979   1.348   4.014
 2684SOL    HW1 8061   3.883   1.349   3.987
 2684SOL    HW2 8062   3.991   1.401   4.098
 2685SOL     OW 8063   3.799   0.345   3.757
 2685SOL    HW1 8064   3.707   0.317   3.728
 2685SOL    HW2 8065   3.830   0.422   3.701
 2686SOL     OW 8066   3.796   0.166   4.042
 2686SOL    HW1 8067   3.779   0.249   3.988
 2686SOL    HW2 8068   3.886   0.129   4.020
 2687SOL     OW 8069   4.318   0.745   4.376
 2687SOL    HW1 8070   4.368   0.830   4.357
 2687SOL    HW2 8071   4.230   0.747   4.328
 2688SOL     OW 8072   4.385   1.790   4.677
 2688SOL    HW1 8073   4.339   1.878   4.664
 2688SOL    HW2 8074   4.484   1.802   4.670
 2689SOL     OW 8075   3.803   1.240   4.377
 2689SOL    HW1 8076   3.802   1.193   4.465
 2689SOL    HW2 8077   3.885   1.212   4.326
 2690SOL     OW 8078   4.152   0.424   4.244
 2690SOL    HW1 8079   4.182   0.352   4.182
 2690SOL    HW2 8080   4.113   0.384   4.327
 2691SOL     OW 8081   4.536   1.586   4.411
 2691SOL    HW1 8082   4.568   1.596   4.317
 2691SOL    HW2 8083   4.457   1.524   4.413
 2692SOL     OW 8084   3.763   1.077   4.024
 2692SOL    HW1 8085   3.862   1.066   4.015
 2692SOL    HW2 8086   3.723   0.991   4.056
 2693SOL     OW 8087   3.954   2.490   0.113
 2693SOL    HW1 8088   3.861   2.488   0.150
 2693SOL    HW2 8089   3.955   2.451   0.021
 2694SOL     OW 8090   3.949   2.137   0.996
 2694SOL    HW1 8091   3.984   2.120   1.088
 2694SOL    HW2 8092   3.861   2.092   0.984
 2695SOL     OW 8093   3.743   2.230   0.647
 2695SOL    HW1 8094   3.661   2.273   0.686
 2695SOL    HW2 8095   3.715   2.157   0.584
 2696SOL     OW 8096   4.293   3.137   1.165
 2696SOL    HW1 8097   4.200   3.130   1.128
 2696SOL    HW2 8098   4.304   3.226   1.209
 2697SOL     OW 8099   4.574   2.660   1.823
 2697SOL    HW1 8100   4.570   2.736   1.888
 2697SOL    HW2 8101   4.596   2.696   1.732
 2698SOL     OW 8102   4.409   2.874   0.665
 2698SOL    HW1 8103   4.478   2.858   0.735
 2698SOL    HW2 8104   4.336   2.931   0.703
 2699SOL     OW 8105   4.410   3.023   1.803
 2699SOL    HW1 8106   4.470   3.102   1.817
 2699SOL    HW2 8107   4.324   3.054   1.762
 2700SOL     OW 8108   4.059   3.297   1.061
 2700SOL    HW1 8109   3.981   3.266   1.008
 2700SOL    HW2 8110   4.117   3.355   1.004
 2701SOL     OW 8111   4.162   2.254   1.499
 2701SOL    HW1 8112   4.244   2.198   1.508
 2701SOL    HW2 8113   4.081   2.196   1.503
 2702SOL     OW 8114   3.955   3.575   0.483
 2702SOL    HW1 8115   3.989   3.652   0.537
 2702SOL    HW2 8116   3.999   3.575   0.393
 2703SOL     OW 8117   3.954   3.296   0.538
 2703SOL    HW1 8118   3.928   3.392   0.538
 2703SOL    HW2 8119   3.883   3.242   0.583
 2704SOL     OW 8120   3.964   2.953   0.886
 2704SOL    HW1 8121   3.978   2.869   0.938
 2704SOL    HW2 8122   3.909   3.017   0.941
 2705SOL     OW 8123   4.344   3.648   1.439
 2705SOL    HW1 8124   4.252   3.631   1.474
 2705SOL    HW2 8125   4.372   3.740   1.465
 2706SOL     OW 8126   4.330   2.826   0.123
 2706SOL    HW1 8127   4.337   2.910   0.069
 2706SOL    HW2 8128   4.376   2.839   0.211
 2707SOL     OW 8129   3.846   2.505   0.563
 2707SOL    HW1 8130   3.801   2.417   0.580
 2707SOL    HW2 8131   3.845   2.559   0.647
 2708SOL     OW 8132   3.751   3.458   0.117
 2708SOL    HW1 8133   3.732   3.362   0.138
 2708SOL    HW2 8134   3.718   3.516   0.192
 2709SOL     OW 8135   3.837   2.599   1.597
 2709SOL    HW1 8136   3.925   2.586   1.642
 2709SOL    HW2 8137   3.824   2.696   1.575
 2710SOL     OW 8138   4.337   3.227   0.726
 2710SOL    HW1 8139   4.288   3.140   0.735
 2710SOL    HW2 8140   4.314   3.270   0.639
 2711SOL     OW 8141   4.533   1.866   0.502
 2711SOL    HW1 8142   4.573   1.957   0.493
 2711SOL    HW2 8143   4.433   1.874   0.508
 2712SOL     OW 8144   3.921   2.838   1.264
 2712SOL    HW1 8145   4.010   2.793   1.250
 2712SOL    HW2 8146   3.848   2.773   1.245
 2713SOL     OW 8147   4.041   2.113   1.801
 2713SOL    HW1 8148   4.112   2.184   1.807
 2713SOL    HW2 8149   3.953   2.152   1.829
 2714SOL     OW 8150   4.322   2.591   0.270
 2714SOL    HW1 8151   4.346   2.660   0.202
 2714SOL    HW2 8152   4.244   2.624   0.324
 2715SOL     OW 8153   3.800   2.673   0.789
 2715SOL    HW1 8154   3.899   2.661   0.798
 2715SOL    HW2 8155   3.776   2.768   0.810
 2716SOL     OW 8156   3.854   3.683   1.571
 2716SOL    HW1 8157   3.844   3.668   1.670
 2716SOL    HW2 8158   3.768   3.719   1.535
 2717SOL     OW 8159   4.274   2.058   0.885
 2717SOL    HW1 8160   4.269   2.053   0.985
 2717SOL    HW2 8161   4.276   2.154   0.856
 2718SOL     OW 8162   4.075   3.663   0.853
 2718SOL    HW1 8163   4.125   3.577   0.859
 2718SOL    HW2 8164   4.140   3.740   0.850
 2719SOL     OW 8165   4.045   2.805   0.242
 2719SOL    HW1 8166   4.127   2.844   0.200
 2719SOL    HW2 8167   4.018   2.723   0.193
 2720SOL     OW 8168   4.185   3.128   1.727
 2720SOL    HW1 8169   4.135   3.129   1.641
 2720SOL    HW2 8170   4.122   3.110   1.803
 2721SOL     OW 8171   3.926   2.147   1.498
 2721SOL    HW1 8172   3.846   2.207   1.485
 2721SOL    HW2 8173   3.916   2.098   1.584
 2722SOL     OW 8174   4.188   3.605   0.323
 2722SOL    HW1 8175   4.221   3.644   0.409
 2722SOL    HW2 8176   4.264   3.598   0.258
 2723SOL     OW 8177   3.973   3.647   1.241
 2723SOL    HW1 8178   4.030   3.582   1.291
 2723SOL    HW2 8179   3.957   3.614   1.148
 2724SOL     OW 8180   4.106   2.562   0.480
 2724SOL    HW1 8181   4.151   2.472   0.477
 2724SOL    HW2 8182   4.012   2.551   0.513
 2725SOL     OW 8183   4.527   3.264   0.924
 2725SOL    HW1 8184   4.617   3.278   0.882
 2725SOL    HW2 8185   4.456   3.266   0.853
 2726SOL     OW 8186   4.263   1.926   0.512
 2726SOL    HW1 8187   4.182   1.927   0.570
 2726SOL    HW2 8188   4.266   2.009   0.457
 2727SOL     OW 8189   4.183   3.014   0.741
 2727SOL    HW1 8190   4.112   2.987   0.806
 2727SOL    HW2 8191   4.157   2.986   0.648
 2728SOL     OW 8192   3.802   2.418   1.386
 2728SOL    HW1 8193   3.894   2.417   1.345
 2728SOL    HW2 8194   3.796   2.492   1.453
 2729SOL     OW 8195   4.285   2.084   1.147
 2729SOL    HW1 8196   4.323   2.000   1.184
 2729SOL    HW2 8197   4.197   2.103   1.191
 2730SOL     OW 8198   4.212   3.247   0.174
 2730SOL    HW1 8199   4.125   3.232   0.221
 2730SOL    HW2 8200   4.195   3.273   0.079
 2731SOL     OW 8201   4.251   2.118   0.328
 2731SOL    HW1 8202   4.278   2.059   0.253
 2731SOL    HW2 8203   4.251   2.213   0.297
 2732SOL     OW 8204   4.134   2.675   1.251
 2732SOL    HW1 8205   4.220   2.687   1.301
 2732SOL    HW2 8206   4.092   2.588   1.278
 2733SOL     OW 8207   3.788   3.426   1.331
 2733SOL    HW1 8208   3.742   3.508   1.297
 2733SOL    HW2 8209   3.886   3.445   1.340
 2734SOL     OW 8210   4.091   2.962   0.501
 2734SOL    HW1 8211   4.084   3.045   0.445
 2734SOL    HW2 8212   4.095   2.882   0.441
 2735SOL     OW 8213   4.290   2.399   0.865
 2735SOL    HW1 8214   4.302   2.465   0.791
 2735SOL    HW2 8215   4.336   2.433   0.948
 2736SOL     OW 8216   4.078   3.372   1.329
 2736SOL    HW1 8217   4.057   3.328   1.242
 2736SOL    HW2 8218   4.175   3.398   1.332
 2737SOL     OW 8219   4.126   2.613   1.598
 2737SOL    HW1 8220   4.194   2.668   1.551
 2737SOL    HW2 8221   4.166   2.525   1.625
 2738SOL     OW 8222   4.228   1.912   1.740
 2738SOL    HW1 8223   4.186   1.855   1.670
 2738SOL    HW2 8224   4.162   1.981   1.772
 2739SOL     OW 8225   4.297   2.732   1.029
 2739SOL    HW1 8226   4.341   2.821   1.020
 2739SOL    HW2 8227   4.234   2.732   1.106
 2740SOL     OW 8228   4.031   2.075   1.231
 2740SOL    HW1 8229   4.008   2.112   1.321
 2740SOL    HW2 8230   4.001   1.980   1.225
 2741SOL     OW 8231   3.761   3.172   1.282
 2741SOL    HW1 8232   3.814   3.123   1.350
 2741SOL    HW2 8233   3.783   3.270   1.287
 2742SOL     OW 8234   4.031   1.925   0.618
 2742SOL    HW1 8235   4.020   2.019   0.651
 2742SOL    HW2 8236   4.026   1.862   0.695
 2743SOL     OW 8237   4.074   2.760   1.804
 2743SOL    HW1 8238   4.150   2.804   1.852
 2743SOL    HW2 8239   4.109   2.713   1.722
 2744SOL     OW 8240   4.043   2.672   0.949
 2744SOL    HW1 8241   4.136   2.708   0.954
 2744SOL    HW2 8242   4.037   2.587   1.001
 2745SOL     OW 8243   4.063   2.371   1.006
 2745SOL    HW1 8244   4.011   2.288   0.989
 2745SOL    HW2 8245   4.140   2.376   0.942
 2746SOL     OW 8246   3.732   3.188   0.200
 2746SOL    HW1 8247   3.639   3.209   0.169
 2746SOL    HW2 8248   3.742   3.089   0.213
 2747SOL     OW 8249   3.812   3.663   0.927
 2747SOL    HW1 8250   3.770   3.577   0.900
 2747SOL    HW2 8251   3.906   3.666   0.893
 2748SOL     OW 8252   4.228   3.430   0.910
 2748SOL    HW1 8253   4.294   3.504   0.919
 2748SOL    HW2 8254   4.272   3.351   0.868
 2749SOL     OW 8255   3.764   2.406   1.114
 2749SOL    HW1 8256   3.849   2.373   1.073
 2749SOL    HW2 8257   3.777   2.421   1.212
 2750SOL     OW 8258   3.913   2.382   1.722
 2750SOL    HW1 8259   3.972   2.342   1.652
 2750SOL    HW2 8260   3.855   2.453   1.681
 2751SOL     OW 8261   4.539   2.434   0.325
 2751SOL    HW1 8262   4.546   2.345   0.279
 2751SOL    HW2 8263   4.445   2.468   0.317
 2752SOL     OW 8264   3.976   3.426   1.744
 2752SOL    HW1 8265   3.946   3.483   1.820
 2752SOL    HW2 8266   3.969   3.329   1.770
 2753SOL     OW 8267   4.197   2.362   0.191
 2753SOL    HW1 8268   4.258   2.442   0.195
 2753SOL    HW2 8269   4.102   2.393   0.198
 2754SOL     OW 8270   3.883   2.999   1.466
 2754SOL    HW1 8271   3.905   2.938   1.542
 2754SOL    HW2 8272   3.893   2.950   1.380
 2755SOL     OW 8273   3.807   3.120   1.022
 2755SOL    HW1 8274   3.802   3.119   1.122
 2755SOL    HW2 8275   3.724   3.079   0.984
 2756SOL     OW 8276   4.412   3.524   1.716
 2756SOL    HW1 8277   4.356   3.605   1.725
 2756SOL    HW2 8278   4.464   3.528   1.630
 2757SOL     OW 8279   3.854   3.656   1.851
 2757SOL    HW1 8280   3.813   3.582   1.904
 2757SOL    HW2 8281   3.918   3.707   1.909
 2758SOL     OW 8282   3.987   2.188   0.720
 2758SOL    HW1 8283   3.908   2.239   0.686
 2758SOL    HW2 8284   3.978   2.173   0.818
 2759SOL     OW 8285   4.096   3.150   1.490
 2759SOL    HW1 8286   4.083   3.243   1.456
 2759SOL    HW2 8287   4.012   3.098   1.477
 2760SOL     OW 8288   4.314   3.349   0.491
 2760SOL    HW1 8289   4.356   3.291   0.421
 2760SOL    HW2 8290   4.270   3.428   0.447
 2761SOL     OW 8291   3.979   3.210   0.290
 2761SOL    HW1 8292   3.883   3.211   0.263
 2761SOL    HW2 8293   3.991   3.263   0.374
 2762SOL     OW 8294   3.829   2.875   1.726
 2762SOL    HW1 8295   3.752   2.842   1.780
 2762SOL    HW2 8296   3.914   2.845   1.768
 2763SOL     OW 8297   4.396   2.065   1.489
 2763SOL    HW1 8298   4.486   2.049   1.449
 2763SOL    HW2 8299   4.404   2.070   1.588
 2764SOL     OW 8300   3.799   2.207   0.033
 2764SOL    HW1 8301   3.707   2.179   0.004
 2764SOL    HW2 8302   3.830   2.284  -0.023
 2765SOL     OW 8303   4.337   2.704   1.431
 2765SOL    HW1 8304   4.393   2.785   1.414
 2765SOL    HW2 8305   4.396   2.624   1.434
 2766SOL     OW 8306   4.440   2.427   1.708
 2766SOL    HW1 8307   4.459   2.492   1.782
 2766SOL    HW2 8308   4.500   2.347   1.717
 2767SOL     OW 8309   4.114   3.603   1.560
 2767SOL    HW1 8310   4.023   3.644   1.558
 2767SOL    HW2 8311   4.107   3.509   1.592
 2768SOL     OW 8312   4.318   2.607   0.652
 2768SOL    HW1 8313   4.368   2.692   0.633
 2768SOL    HW2 8314   4.230   2.609   0.604
 2769SOL     OW 8315   3.945   3.176   1.844
 2769SOL    HW1 8316   3.880   3.103   1.823
 2769SOL    HW2 8317   3.949   3.190   1.942
 2770SOL     OW 8318   3.803   3.102   0.653
 2770SOL    HW1 8319   3.802   3.055   0.741
 2770SOL    HW2 8320   3.885   3.074   0.602
 2771SOL     OW 8321   4.396   3.253   1.624
 2771SOL    HW1 8322   4.318   3.203   1.662
 2771SOL    HW2 8323   4.393   3.348   1.655
 2772SOL     OW 8324   4.152   2.286   0.520
 2772SOL    HW1 8325   4.182   2.214   0.458
 2772SOL    HW2 8326   4.113   2.246   0.603
 2773SOL     OW 8327   4.041   2.409   1.280
 2773SOL    HW1 8328   4.079   2.350   1.352
 2773SOL    HW2 8329   4.081   2.383   1.192
 2774SOL     OW 8330   4.536   3.448   0.687
 2774SOL    HW1 8331   4.568   3.458   0.593
 2774SOL    HW2 8332   4.457   3.386   0.689
 2775SOL     OW 8333   4.342   3.429   1.284
 2775SOL    HW1 8334   4.337   3.511   1.341
 2775SOL    HW2 8335   4.431   3.426   1.239
 2776SOL     OW 8336   3.763   2.939   0.300
 2776SOL    HW1 8337   3.862   2.928   0.291
 2776SOL    HW2 8338   3.723   2.853   0.332
 2777SOL     OW 8339   3.954   2.490   1.975
 2777SOL    HW1 8340   3.861   2.488   2.012
 2777SOL    HW2 8341   3.955   2.451   1.883
 2778SOL     OW 8342   3.949   2.137   2.858
 2778SOL    HW1 8343   3.984   2.120   2.950
 2778SOL    HW2 8344   3.861   2.092   2.846
 2779SOL     OW 8345   3.743   2.230   2.509
 2779SOL    HW1 8346   3.661   2.273   2.548
 2779SOL    HW2 8347   3.715   2.157   2.446
 2780SOL     OW 8348   4.293   3.137   3.027
 2780SOL    HW1 8349   4.200   3.130   2.990
 2780SOL    HW2 8350   4.304   3.226   3.071
 2781SOL     OW 8351   4.574   2.660   3.685
 2781SOL    HW1 8352   4.570   2.736   3.750
 2781SOL    HW2 8353   4.596   2.696   3.594
 2782SOL     OW 8354   4.409   2.874   2.527
 2782SOL    HW1 8355   4.478   2.858   2.597
 2782SOL    HW2 8356   4.336   2.931   2.565
 2783SOL     OW 8357   4.410   3.023   3.665
 2783SOL    HW1 8358   4.470   3.102   3.679
 2783SOL    HW2 8359   4.324   3.054   3.624
 2784SOL     OW 8360   4.059   3.297   2.923
 2784SOL    HW1 8361   3.981   3.266   2.870
 2784SOL    HW2 8362   4.117   3.355   2.866
 2785SOL     OW 8363   4.162   2.254   3.361
 2785SOL    HW1 8364   4.244   2.198   3.370
 2785SOL    HW2 8365   4.081   2.196   3.365
 2786SOL     OW 8366   3.955   3.575   2.345
 2786SOL    HW1 8367   3.989   3.652   2.399
 2786SOL    HW2 8368   3.999   3.575   2.255
 2787SOL     OW 8369   3.954   3.296   2.400
 2787SOL    HW1 8370   3.928   3.392   2.400
 2787SOL    HW2 8371   3.883   3.242   2.445
 2788SOL     OW 8372   3.964   2.953   2.748
 2788SOL    HW1 8373   3.978   2.869   2.800
 2788SOL    HW2 8374   3.909   3.017   2.803
 2789SOL     OW 8375   4.344   3.648   3.301
 2789SOL    HW1 8376   4.252   3.631   3.336
 2789SOL    HW2 8377   4.372   3.740   3.327
 2790SOL     OW 8378   4.330   2.826   1.985
 2790SOL    HW1 8379   4.337   2.910   1.931
 2790SOL    HW2 8380   4.376   2.839   2.073
 2791SOL     OW 8381   3.846   2.505   2.425
 2791SOL    HW1 8382   3.801   2.417   2.442
 2791SOL    HW2 8383   3.845   2.559   2.509
 2792SOL     OW 8384   3.751   3.458   1.979
 2792SOL    HW1 8385   3.732   3.362   2.000
 2792SOL    HW2 8386   3.718   3.516   2.054
 2793SOL     OW 8387   3.837   2.599   3.459
 2793SOL    HW1 8388   3.925   2.586   3.504
 2793SOL    HW2 8389   3.824   2.696   3.437
 2794SOL     OW 8390   4.337   3.227   2.588
 2794SOL    HW1 8391   4.288   3.140   2.597
 2794SOL    HW2 8392   4.314   3.270   2.501
 2795SOL     OW 8393   4.533   1.866   2.364
 2795SOL    HW1 8394   4.573   1.957   2.355
 2795SOL    HW2 8395   4.433   1.874   2.370
 2796SOL     OW 8396   3.921   2.838   3.126
 2796SOL    HW1 8397   4.010   2.793   3.112
 2796SOL    HW2 8398   3.848   2.773   3.107
 2797SOL     OW 8399   4.041   2.113   3.663
 2797SOL    HW1 8400   4.112   2.184   3.669
 2797SOL    HW2 8401   3.953   2.152   3.691
 2798SOL     OW 8402   4.322   2.591   2.132
 2798SOL    HW1 8403   4.346   2.660   2.064
 2798SOL    HW2 8404   4.244   2.624   2.186
 2799SOL     OW 8405   3.800   2.673   2.651
 2799SOL    HW1 8406   3.899   2.661   2.660
 2799SOL    HW2 8407   3.776   2.768   2.672
 2800SOL     OW 8408   3.854   3.683   3.433
 2800SOL    HW1 8409   3.844   3.668   3.532
 2800SOL    HW2 8410   3.768   3.719   3.397
 2801SOL     OW 8411   4.274   2.058   2.747
 2801SOL    HW1 8412   4.269   2.053   2.847
 2801SOL    HW2 8413   4.276   2.154   2.718
 2802SOL     OW 8414   4.075   3.663   2.715
 2802SOL    HW1 8415   4.125   3.577   2.721
 2802SOL    HW2 8416   4.140   3.740   2.712
 2803SOL     OW 8417   4.045   2.805   2.104
 2803SOL    HW1 8418   4.127   2.844   2.062
 2803SOL    HW2 8419   4.018   2.723   2.055
 2804SOL     OW 8420   4.185   3.128   3.589
 2804SOL    HW1 8421   4.135   3.129   3.503
 2804SOL    HW2 8422   4.122   3.110   3.665
 2805SOL     OW 8423   3.926   2.147   3.360
 2805SOL    HW1 8424   3.846   2.207   3.347
 2805SOL    HW2 8425   3.916   2.098   3.446
 2806SOL     OW 8426   4.188   3.605   2.185
 2806SOL    HW1 8427   4.221   3.644   2.271
 2806SOL    HW2 8428   4.264   3.598   2.120
 2807SOL     OW 8429   3.973   3.647   3.103
 2807SOL    HW1 8430   4.030   3.582   3.153
 2807SOL    HW2 8431   3.957   3.614   3.010
 2808SOL     OW 8432   4.106   2.562   2.342
 2808SOL    HW1 8433   4.151   2.472   2.339
 2808SOL    HW2 8434   4.012   2.551   2.375
 2809SOL     OW 8435   4.338   1.984   1.979
 2809SOL    HW1 8436   4.436   1.962   1.986
 2809SOL    HW2 8437   4.307   1.967   1.886
 2810SOL     OW 8438   4.527   3.264   2.786
 2810SOL    HW1 8439   4.617   3.278   2.744
 2810SOL    HW2 8440   4.456   3.266   2.715
 2811SOL     OW 8441   4.263   1.926   2.374
 2811SOL    HW1 8442   4.182   1.927   2.432
 2811SOL    HW2 8443   4.266   2.009   2.319
 2812SOL     OW 8444   4.021   1.897   2.033
 2812SOL    HW1 8445   4.070   1.981   2.012
 2812SOL    HW2 8446   4.083   1.832   2.078
 2813SOL     OW 8447   4.183   3.014   2.603
 2813SOL    HW1 8448   4.112   2.987   2.668
 2813SOL    HW2 8449   4.157   2.986   2.510
 2814SOL     OW 8450   3.802   2.418   3.248
 2814SOL    HW1 8451   3.894   2.417   3.207
 2814SOL    HW2 8452   3.796   2.492   3.315
 2815SOL     OW 8453   4.285   2.084   3.009
 2815SOL    HW1 8454   4.323   2.000   3.046
 2815SOL    HW2 8455   4.197   2.103   3.053
 2816SOL     OW 8456   4.212   3.247   2.036
 2816SOL    HW1 8457   4.125   3.232   2.083
 2816SOL    HW2 8458   4.195   3.273   1.941
 2817SOL     OW 8459   4.251   2.118   2.190
 2817SOL    HW1 8460   4.278   2.059   2.115
 2817SOL    HW2 8461   4.251   2.213   2.159
 2818SOL     OW 8462   4.134   2.675   3.113
 2818SOL    HW1 8463   4.220   2.687   3.163
 2818SOL    HW2 8464   4.092   2.588   3.140
 2819SOL     OW 8465   3.788   3.426   3.193
 2819SOL    HW1 8466   3.742   3.508   3.159
 2819SOL    HW2 8467   3.886   3.445   3.202
 2820SOL     OW 8468   4.091   2.962   2.363
 2820SOL    HW1 8469   4.084   3.045   2.307
 2820SOL    HW2 8470   4.095   2.882   2.303
 2821SOL     OW 8471   4.290   2.399   2.727
 2821SOL    HW1 8472   4.302   2.465   2.653
 2821SOL    HW2 8473   4.336   2.433   2.810
 2822SOL     OW 8474   4.078   3.372   3.191
 2822SOL    HW1 8475   4.057   3.328   3.104
 2822SOL    HW2 8476   4.175   3.398   3.194
 2823SOL     OW 8477   4.126   2.613   3.460
 2823SOL    HW1 8478   4.194   2.668   3.413
 2823SOL    HW2 8479   4.166   2.525   3.487
 2824SOL     OW 8480   4.228   1.912   3.602
 2824SOL    HW1 8481   4.186   1.855   3.532
 2824SOL    HW2 8482   4.162   1.981   3.634
 2825SOL     OW 8483   4.297   2.732   2.891
 2825SOL    HW1 8484   4.341   2.821   2.882
 2825SOL    HW2 8485   4.234   2.732   2.968
 2826SOL     OW 8486   4.031   2.075   3.093
 2826SOL    HW1 8487   4.008   2.112   3.183
 2826SOL    HW2 8488   4.001   1.980   3.087
 2827SOL     OW 8489   3.761   3.172   3.144
 2827SOL    HW1 8490   3.814   3.123   3.212
 2827SOL    HW2 8491   3.783   3.270   3.149
 2828SOL     OW 8492   4.031   1.925   2.480
 2828SOL    HW1 8493   4.020   2.019   2.513
 2828SOL    HW2 8494   4.026   1.862   2.557
 2829SOL     OW 8495   4.074   2.760   3.666
 2829SOL    HW1 8496   4.150   2.804   3.714
 2829SOL    HW2 8497   4.109   2.713   3.584
 2830SOL     OW 8498   4.043   2.672   2.811
 2830SOL    HW1 8499   4.136   2.708   2.816
 2830SOL    HW2 8500   4.037   2.587   2.863
 2831SOL     OW 8501   4.063   2.371   2.868
 2831SOL    HW1 8502   4.011   2.288   2.851
 2831SOL    HW2 8503   4.140   2.376   2.804
 2832SOL     OW 8504   3.732   3.188   2.062
 2832SOL    HW1 8505   3.639   3.209   2.031
 2832SOL    HW2 8506   3.742   3.089   2.075
 2833SOL     OW 8507   3.812   3.663   2.789
 2833SOL    HW1 8508   3.770   3.577   2.762
 2833SOL    HW2 8509   3.906   3.666   2.755
 2834SOL     OW 8510   4.228   3.430   2.772
 2834SOL    HW1 8511   4.294   3.504   2.781
 2834SOL    HW2 8512   4.272   3.351   2.730
 2835SOL     OW 8513   3.764   2.406   2.976
 2835SOL    HW1 8514   3.849   2.373   2.935
 2835SOL    HW2 8515   3.777   2.421   3.074
 2836SOL     OW 8516   3.913   2.382   3.584
 2836SOL    HW1 8517   3.972   2.342   3.514
 2836SOL    HW2 8518   3.855   2.453   3.543
 2837SOL     OW 8519   4.539   2.434   2.187
 2837SOL    HW1 8520   4.546   2.345   2.141
 2837SOL    HW2 8521   4.445   2.468   2.179
 2838SOL     OW 8522   3.976   3.426   3.606
 2838SOL    HW1 8523   3.946   3.483   3.682
 2838SOL    HW2 8524   3.969   3.329   3.632
 2839SOL     OW 8525   4.197   2.362   2.053
 2839SOL    HW1 8526   4.258   2.442   2.057
 2839SOL    HW2 8527   4.102   2.393   2.060
 2840SOL     OW 8528   3.883   2.999   3.328
 2840SOL    HW1 8529   3.905   2.938   3.404
 2840SOL    HW2 8530   3.893   2.950   3.242
 2841SOL     OW 8531   3.807   3.120   2.884
 2841SOL    HW1 8532   3.802   3.119   2.984
 2841SOL    HW2 8533   3.724   3.079   2.846
 2842SOL     OW 8534   4.412   3.524   3.578
 2842SOL    HW1 8535   4.356   3.605   3.587
 2842SOL    HW2 8536   4.464   3.528   3.492
 2843SOL     OW 8537   3.854   3.656   3.713
 2843SOL    HW1 8538   3.813   3.582   3.766
 2843SOL    HW2 8539   3.918   3.707   3.771
 2844SOL     OW 8540   3.987   2.188   2.582
 2844SOL    HW1 8541   3.908   2.239   2.548
 2844SOL    HW2 8542   3.978   2.173   2.680
 2845SOL     OW 8543   4.096   3.150   3.352
 2845SOL    HW1 8544   4.083   3.243   3.318
 2845SOL    HW2 8545   4.012   3.098   3.339
 2846SOL     OW 8546   4.314   3.349   2.353
 2846SOL    HW1 8547   4.356   3.291   2.283
 2846SOL    HW2 8548   4.270   3.428   2.309
 2847SOL     OW 8549   3.979   3.210   2.152
 2847SOL    HW1 8550   3.883   3.211   2.125
 2847SOL    HW2 8551   3.991   3.263   2.236
 2848SOL     OW 8552   3.829   2.875   3.588
 2848SOL    HW1 8553   3.752   2.842   3.642
 2848SOL    HW2 8554   3.914   2.845   3.630
 2849SOL     OW 8555   4.396   2.065   3.351
 2849SOL    HW1 8556   4.486   2.049   3.311
 2849SOL    HW2 8557   4.404   2.070   3.450
 2850SOL     OW 8558   3.799   2.207   1.895
 2850SOL    HW1 8559   3.707   2.179   1.866
 2850SOL    HW2 8560   3.830   2.284   1.839
 2851SOL     OW 8561   3.796   2.028   2.180
 2851SOL    HW1 8562   3.779   2.111   2.126
 2851SOL    HW2 8563   3.886   1.991   2.158
 2852SOL     OW 8564   4.337   2.704   3.293
 2852SOL    HW1 8565   4.393   2.785   3.276
 2852SOL    HW2 8566   4.396   2.624   3.296
 2853SOL     OW 8567   4.440   2.427   3.570
 2853SOL    HW1 8568   4.459   2.492   3.644
 2853SOL    HW2 8569   4.500   2.347   3.579
 2854SOL     OW 8570   4.114   3.603   3.422
 2854SOL    HW1 8571   4.023   3.644   3.420
 2854SOL    HW2 8572   4.107   3.509   3.454
 2855SOL     OW 8573   4.318   2.607   2.514
 2855SOL    HW1 8574   4.368   2.692   2.495
 2855SOL    HW2 8575   4.230   2.609   2.466
 2856SOL     OW 8576   3.945   3.176   3.706
 2856SOL    HW1 8577   3.880   3.103   3.685
 2856SOL    HW2 8578   3.949   3.190   3.804
 2857SOL     OW 8579   3.803   3.102   2.515
 2857SOL    HW1 8580   3.802   3.055   2.603
 2857SOL    HW2 8581   3.885   3.074   2.464
 2858SOL     OW 8582   4.396   3.253   3.486
 2858SOL    HW1 8583   4.318   3.203   3.524
 2858SOL    HW2 8584   4.393   3.348   3.517
 2859SOL     OW 8585   4.152   2.286   2.382
 2859SOL    HW1 8586   4.182   2.214   2.320
 2859SOL    HW2 8587   4.113   2.246   2.465
 2860SOL     OW 8588   4.041   2.409   3.142
 2860SOL    HW1 8589   4.079   2.350   3.214
 2860SOL    HW2 8590   4.081   2.383   3.054
 2861SOL     OW 8591   4.536   3.448   2.549
 2861SOL    HW1 8592   4.568   3.458   2.455
 2861SOL    HW2 8593   4.457   3.386   2.551
 2862SOL     OW 8594   4.342   3.429   3.146
 2862SOL    HW1 8595   4.337   3.511   3.203
 2862SOL    HW2 8596   4.431   3.426   3.101
 2863SOL     OW 8597   3.763   2.939   2.162
 2863SOL    HW1 8598   3.862   2.928   2.153
 2863SOL    HW2 8599   3.723   2.853   2.194
 2864SOL     OW 8600   3.954   2.490   3.837
 2864SOL    HW1 8601   3.861   2.488   3.874
 2864SOL    HW2 8602   3.955   2.451   3.745
 2865SOL     OW 8603   3.949   2.137   4.720
 2865SOL    HW1 8604   3.984   2.120   4.812
 2865SOL    HW2 8605   3.861   2.092   4.708
 2866SOL     OW 8606   3.743   2.230   4.371
 2866SOL    HW1 8607   3.661   2.273   4.410
 2866SOL    HW2 8608   3.715   2.157   4.308
 2867SOL     OW 8609   4.409   2.874   4.389
 2867SOL    HW1 8610   4.478   2.858   4.459
 2867SOL    HW2 8611   4.336   2.931   4.427
 2868SOL     OW 8612   3.955   3.575   4.207
 2868SOL    HW1 8613   3.989   3.652   4.261
 2868SOL    HW2 8614   3.999   3.575   4.117
 2869SOL     OW 8615   3.954   3.296   4.262
 2869SOL    HW1 8616   3.928   3.392   4.262
 2869SOL    HW2 8617   3.883   3.242   4.307
 2870SOL     OW 8618   4.330   2.826   3.847
 2870SOL    HW1 8619   4.337   2.910   3.793
 2870SOL    HW2 8620   4.376   2.839   3.935
 2871SOL     OW 8621   3.846   2.505   4.287
 2871SOL    HW1 8622   3.801   2.417   4.304
 2871SOL    HW2 8623   3.845   2.559   4.371
 2872SOL     OW 8624   3.751   3.458   3.841
 2872SOL    HW1 8625   3.732   3.362   3.862
 2872SOL    HW2 8626   3.718   3.516   3.916
 2873SOL     OW 8627   4.337   3.227   4.450
 2873SOL    HW1 8628   4.288   3.140   4.459
 2873SOL    HW2 8629   4.314   3.270   4.363
 2874SOL     OW 8630   4.533   1.866   4.226
 2874SOL    HW1 8631   4.573   1.957   4.217
 2874SOL    HW2 8632   4.433   1.874   4.232
 2875SOL     OW 8633   4.322   2.591   3.994
 2875SOL    HW1 8634   4.346   2.660   3.926
 2875SOL    HW2 8635   4.244   2.624   4.048
 2876SOL     OW 8636   3.800   2.673   4.513
 2876SOL    HW1 8637   3.899   2.661   4.522
 2876SOL    HW2 8638   3.776   2.768   4.534
 2877SOL     OW 8639   4.075   3.663   4.577
 2877SOL    HW1 8640   4.125   3.577   4.583
 2877SOL    HW2 8641   4.140   3.740   4.574
 2878SOL     OW 8642   4.045   2.805   3.966
 2878SOL    HW1 8643   4.127   2.844   3.924
 2878SOL    HW2 8644   4.018   2.723   3.917
 2879SOL     OW 8645   4.188   3.605   4.047
 2879SOL    HW1 8646   4.221   3.644   4.133
 2879SOL    HW2 8647   4.264   3.598   3.982
 2880SOL     OW 8648   4.106   2.562   4.204
 2880SOL    HW1 8649   4.151   2.472   4.201
 2880SOL    HW2 8650   4.012   2.551   4.237
 2881SOL     OW 8651   4.338   1.984   3.841
 2881SOL    HW1 8652   4.436   1.962   3.848
 2881SOL    HW2 8653   4.307   1.967   3.748
 2882SOL     OW 8654   4.263   1.926   4.236
 2882SOL    HW1 8655   4.182   1.927   4.294
 2882SOL    HW2 8656   4.266   2.009   4.181
 2883SOL     OW 8657   4.021   1.897   3.895
 2883SOL    HW1 8658   4.070   1.981   3.874
 2883SOL    HW2 8659   4.083   1.832   3.940
 2884SOL     OW 8660   4.183   3.014   4.465
 2884SOL    HW1 8661   4.112   2.987   4.530
 2884SOL    HW2 8662   4.157   2.986   4.372
 2885SOL     OW 8663   4.212   3.247   3.898
 2885SOL    HW1 8664   4.125   3.232   3.945
 2885SOL    HW2 8665   4.195   3.273   3.803
 2886SOL     OW 8666   4.251   2.118   4.052
 2886SOL    HW1 8667   4.278   2.059   3.977
 2886SOL    HW2 8668   4.251   2.213   4.021
 2887SOL     OW 8669   4.091   2.962   4.225
 2887SOL    HW1 8670   4.084   3.045   4.169
 2887SOL    HW2 8671   4.095   2.882   4.165
 2888SOL     OW 8672   4.031   1.925   4.342
 2888SOL    HW1 8673   4.020   2.019   4.375
 2888SOL    HW2 8674   4.026   1.862   4.419
 2889SOL     OW 8675   3.732   3.188   3.924
 2889SOL    HW1 8676   3.639   3.209   3.893
 2889SOL    HW2 8677   3.742   3.089   3.937
 2890SOL     OW 8678   4.539   2.434   4.049
 2890SOL    HW1 8679   4.546   2.345   4.003
 2890SOL    HW2 8680   4.445   2.468   4.041
 2891SOL     OW 8681   4.197   2.362   3.915
 2891SOL    HW1 8682   4.258   2.442   3.919
 2891SOL    HW2 8683   4.102   2.393   3.922
 2892SOL     OW 8684   4.763   2.960   4.420
 2892SOL    HW1 8685   4.693   2.913   4.474
 2892SOL    HW2 8686   4.822   2.892   4.377
 2893SOL     OW 8687   4.314   3.349   4.215
 2893SOL    HW1 8688   4.356   3.291   4.145
 2893SOL    HW2 8689   4.270   3.428   4.171
 2894SOL     OW 8690   3.979   3.210   4.014
 2894SOL    HW1 8691   3.883   3.211   3.987
 2894SOL    HW2 8692   3.991   3.263   4.098
 2895SOL     OW 8693   3.799   2.207   3.757
 2895SOL    HW1 8694   3.707   2.179   3.728
 2895SOL    HW2 8695   3.830   2.284   3.701
 2896SOL     OW 8696   3.796   2.028   4.042
 2896SOL    HW1 8697   3.779   2.111   3.988
 2896SOL    HW2 8698   3.886   1.991   4.020
 2897SOL     OW 8699   4.318   2.607   4.376
 2897SOL    HW1 8700   4.368   2.692   4.357
 2897SOL    HW2 8701   4.230   2.609   4.328
 2898SOL     OW 8702   4.385   3.652   4.677
 2898SOL    HW1 8703   4.339   3.740   4.664
 2898SOL    HW2 8704   4.484   3.664   4.670
 2899SOL     OW 8705   3.803   3.102   4.377
 2899SOL    HW1 8706   3.802   3.055   4.465
 2899SOL    HW2 8707   3.885   3.074   4.326
 2900SOL     OW 8708   4.152   2.286   4.244
 2900SOL    HW1 8709   4.182   2.214   4.182
 2900SOL    HW2 8710   4.113   2.246   4.327
 2901SOL     OW 8711   4.536   3.448   4.411
 2901SOL    HW1 8712   4.568   3.458   4.317
 2901SOL    HW2 8713   4.457   3.386   4.413
 2902SOL     OW 8714   3.763   2.939   4.024
 2902SOL    HW1 8715   3.862   2.928   4.015
 2902SOL    HW2 8716   3.723   2.853   4.056
 2903SOL     OW 8717   3.954   4.352   0.113
 2903SOL    HW1 8718   3.861   4.350   0.150
 2903SOL    HW2 8719   3.955   4.313   0.021
 2904SOL     OW 8720   3.949   3.999   0.996
 2904SOL    HW1 8721   3.984   3.982   1.088
 2904SOL    HW2 8722   3.861   3.954   0.984
 2905SOL     OW 8723   3.743   4.092   0.647
 2905SOL    HW1 8724   3.661   4.135   0.686
 2905SOL    HW2 8725   3.715   4.019   0.584
 2906SOL     OW 8726   4.574   4.522   1.823
 2906SOL    HW1 8727   4.570   4.598   1.888
 2906SOL    HW2 8728   4.596   4.558   1.732
 2907SOL     OW 8729   4.162   4.116   1.499
 2907SOL    HW1 8730   4.244   4.060   1.508
 2907SOL    HW2 8731   4.081   4.058   1.503
 2908SOL     OW 8732   3.846   4.367   0.563
 2908SOL    HW1 8733   3.801   4.279   0.580
 2908SOL    HW2 8734   3.845   4.421   0.647
 2909SOL     OW 8735   3.837   4.461   1.597
 2909SOL    HW1 8736   3.925   4.448   1.642
 2909SOL    HW2 8737   3.824   4.558   1.575
 2910SOL     OW 8738   4.533   3.728   0.502
 2910SOL    HW1 8739   4.573   3.819   0.493
 2910SOL    HW2 8740   4.433   3.736   0.508
 2911SOL     OW 8741   4.041   3.975   1.801
 2911SOL    HW1 8742   4.112   4.046   1.807
 2911SOL    HW2 8743   3.953   4.014   1.829
 2912SOL     OW 8744   4.274   3.920   0.885
 2912SOL    HW1 8745   4.269   3.915   0.985
 2912SOL    HW2 8746   4.276   4.016   0.856
 2913SOL     OW 8747   3.926   4.009   1.498
 2913SOL    HW1 8748   3.846   4.069   1.485
 2913SOL    HW2 8749   3.916   3.960   1.584
 2914SOL     OW 8750   4.106   4.424   0.480
 2914SOL    HW1 8751   4.151   4.334   0.477
 2914SOL    HW2 8752   4.012   4.413   0.513
 2915SOL     OW 8753   4.263   3.788   0.512
 2915SOL    HW1 8754   4.182   3.789   0.570
 2915SOL    HW2 8755   4.266   3.871   0.457
 2916SOL     OW 8756   3.802   4.280   1.386
 2916SOL    HW1 8757   3.894   4.279   1.345
 2916SOL    HW2 8758   3.796   4.354   1.453
 2917SOL     OW 8759   4.285   3.946   1.147
 2917SOL    HW1 8760   4.323   3.862   1.184
 2917SOL    HW2 8761   4.197   3.965   1.191
 2918SOL     OW 8762   4.251   3.980   0.328
 2918SOL    HW1 8763   4.278   3.921   0.253
 2918SOL    HW2 8764   4.251   4.075   0.297
 2919SOL     OW 8765   4.134   4.537   1.251
 2919SOL    HW1 8766   4.220   4.549   1.301
 2919SOL    HW2 8767   4.092   4.450   1.278
 2920SOL     OW 8768   4.290   4.261   0.865
 2920SOL    HW1 8769   4.302   4.327   0.791
 2920SOL    HW2 8770   4.336   4.295   0.948
 2921SOL     OW 8771   4.228   3.774   1.740
 2921SOL    HW1 8772   4.186   3.717   1.670
 2921SOL    HW2 8773   4.162   3.843   1.772
 2922SOL     OW 8774   4.031   3.937   1.231
 2922SOL    HW1 8775   4.008   3.974   1.321
 2922SOL    HW2 8776   4.001   3.842   1.225
 2923SOL     OW 8777   4.031   3.787   0.618
 2923SOL    HW1 8778   4.020   3.881   0.651
 2923SOL    HW2 8779   4.026   3.724   0.695
 2924SOL     OW 8780   4.043   4.534   0.949
 2924SOL    HW1 8781   4.136   4.570   0.954
 2924SOL    HW2 8782   4.037   4.449   1.001
 2925SOL     OW 8783   4.063   4.233   1.006
 2925SOL    HW1 8784   4.011   4.150   0.989
 2925SOL    HW2 8785   4.140   4.238   0.942
 2926SOL     OW 8786   3.764   4.268   1.114
 2926SOL    HW1 8787   3.849   4.235   1.073
 2926SOL    HW2 8788   3.777   4.283   1.212
 2927SOL     OW 8789   3.913   4.244   1.722
 2927SOL    HW1 8790   3.972   4.204   1.652
 2927SOL    HW2 8791   3.855   4.315   1.681
 2928SOL     OW 8792   4.539   4.296   0.325
 2928SOL    HW1 8793   4.546   4.207   0.279
 2928SOL    HW2 8794   4.445   4.330   0.317
 2929SOL     OW 8795   4.197   4.224   0.191
 2929SOL    HW1 8796   4.258   4.304   0.195
 2929SOL    HW2 8797   4.102   4.255   0.198
 2930SOL     OW 8798   3.987   4.050   0.720
 2930SOL    HW1 8799   3.908   4.101   0.686
 2930SOL    HW2 8800   3.978   4.035   0.818
 2931SOL     OW 8801   4.396   3.927   1.489
 2931SOL    HW1 8802   4.486   3.911   1.449
 2931SOL    HW2 8803   4.404   3.932   1.588
 2932SOL     OW 8804   3.799   4.069   0.033
 2932SOL    HW1 8805   3.707   4.041   0.004
 2932SOL    HW2 8806   3.830   4.146  -0.023
 2933SOL     OW 8807   4.440   4.289   1.708
 2933SOL    HW1 8808   4.459   4.354   1.782
 2933SOL    HW2 8809   4.500   4.209   1.717
 2934SOL     OW 8810   4.152   4.148   0.520
 2934SOL    HW1 8811   4.182   4.076   0.458
 2934SOL    HW2 8812   4.113   4.108   0.603
 2935SOL     OW 8813   4.041   4.271   1.280
 2935SOL    HW1 8814   4.079   4.212   1.352
 2935SOL    HW2 8815   4.081   4.245   1.192
 2936SOL     OW 8816   3.954   4.352   1.975
 2936SOL    HW1 8817   3.861   4.350   2.012
 2936SOL    HW2 8818   3.955   4.313   1.883
 2937SOL     OW 8819   3.949   3.999   2.858
 2937SOL    HW1 8820   3.984   3.982   2.950
 2937SOL    HW2 8821   3.861   3.954   2.846
 2938SOL     OW 8822   3.743   4.092   2.509
 2938SOL    HW1 8823   3.661   4.135   2.548
 2938SOL    HW2 8824   3.715   4.019   2.446
 2939SOL     OW 8825   4.574   4.522   3.685
 2939SOL    HW1 8826   4.570   4.598   3.750
 2939SOL    HW2 8827   4.596   4.558   3.594
 2940SOL     OW 8828   4.162   4.116   3.361
 2940SOL    HW1 8829   4.244   4.060   3.370
 2940SOL    HW2 8830   4.081   4.058   3.365
 2941SOL     OW 8831   3.846   4.367   2.425
 2941SOL    HW1 8832   3.801   4.279   2.442
 2941SOL    HW2 8833   3.845   4.421   2.509
 2942SOL     OW 8834   3.837   4.461   3.459
 2942SOL    HW1 8835   3.925   4.448   3.504
 2942SOL    HW2 8836   3.824   4.558   3.437
 2943SOL     OW 8837   4.533   3.728   2.364
 2943SOL    HW1 8838   4.573   3.819   2.355
 2943SOL    HW2 8839   4.433   3.736   2.370
 2944SOL     OW 8840   4.041   3.975   3.663
 2944SOL    HW1 8841   4.112   4.046   3.669
 2944SOL    HW2 8842   3.953   4.014   3.691
 2945SOL     OW 8843   4.274   3.920   2.747
 2945SOL    HW1 8844   4.269   3.915   2.847
 2945SOL    HW2 8845   4.276   4.016   2.718
 2946SOL     OW 8846   3.926   4.009   3.360
 2946SOL    HW1 8847   3.846   4.069   3.347
 2946SOL    HW2 8848   3.916   3.960   3.446
 2947SOL     OW 8849   4.106   4.424   2.342
 2947SOL    HW1 8850   4.151   4.334   2.339
 2947SOL    HW2 8851   4.012   4.413   2.375
 2948SOL     OW 8852   4.338   3.846   1.979
 2948SOL    HW1 8853   4.436   3.824   1.986
 2948SOL    HW2 8854   4.307   3.829   1.886
 2949SOL     OW 8855   4.263   3.788   2.374
 2949SOL    HW1 8856   4.182   3.789   2.432
 2949SOL    HW2 8857   4.266   3.871   2.319
 2950SOL     OW 8858   4.021   3.759   2.033
 2950SOL    HW1 8859   4.070   3.843   2.012
 2950SOL    HW2 8860   4.083   3.694   2.078
 2951SOL     OW 8861   3.802   4.280   3.248
 2951SOL    HW1 8862   3.894   4.279   3.207
 2951SOL    HW2 8863   3.796   4.354   3.315
 2952SOL     OW 8864   4.285   3.946   3.009
 2952SOL    HW1 8865   4.323   3.862   3.046
 2952SOL    HW2 8866   4.197   3.965   3.053
 2953SOL     OW 8867   4.251   3.980   2.190
 2953SOL    HW1 8868   4.278   3.921   2.115
 2953SOL    HW2 8869   4.251   4.075   2.159
 2954SOL     OW 8870   4.134   4.537   3.113
 2954SOL    HW1 8871   4.220   4.549   3.163
 2954SOL    HW2 8872   4.092   4.450   3.140
 2955SOL     OW 8873   4.290   4.261   2.727
 2955SOL    HW1 8874   4.302   4.327   2.653
 2955SOL    HW2 8875   4.336   4.295   2.810
 2956SOL     OW 8876   4.228   3.774   3.602
 2956SOL    HW1 8877   4.186   3.717   3.532
 2956SOL    HW2 8878   4.162   3.843   3.634
 2957SOL     OW 8879   4.031   3.937   3.093
 2957SOL    HW1 8880   4.008   3.974   3.183
 2957SOL    HW2 8881   4.001   3.842   3.087
 2958SOL     OW 8882   4.031   3.787   2.480
 2958SOL    HW1 8883   4.020   3.881   2.513
 2958SOL    HW2 8884   4.026   3.724   2.557
 2959SOL     OW 8885   4.043   4.534   2.811
 2959SOL    HW1 8886   4.136   4.570   2.816
 2959SOL    HW2 8887   4.037   4.449   2.863
 2960SOL     OW 8888   4.063   4.233   2.868
 2960SOL    HW1 8889   4.011   4.150   2.851
 2960SOL    HW2 8890   4.140   4.238   2.804
 2961SOL     OW 8891   3.764   4.268   2.976
 2961SOL    HW1 8892   3.849   4.235   2.935
 2961SOL    HW2 8893   3.777   4.283   3.074
 2962SOL     OW 8894   3.913   4.244   3.584
 2962SOL    HW1 8895   3.972   4.204   3.514
 2962SOL    HW2 8896   3.855   4.315   3.543
 2963SOL     OW 8897   4.539   4.296   2.187
 2963SOL    HW1 8898   4.546   4.207   2.141
 2963SOL    HW2 8899   4.445   4.330   2.179
 2964SOL     OW 8900   4.197   4.224   2.053
 2964SOL    HW1 8901   4.258   4.304   2.057
 2964SOL    HW2 8902   4.102   4.255   2.060
 2965SOL     OW 8903   3.987   4.050   2.582
 2965SOL    HW1 8904   3.908   4.101   2.548
 2965SOL    HW2 8905   3.978   4.035   2.680
 2966SOL     OW 8906   4.396   3.927   3.351
 2966SOL    HW1 8907   4.486   3.911   3.311
 2966SOL    HW2 8908   4.404   3.932   3.450
 2967SOL     OW 8909   3.799   4.069   1.895
 2967SOL    HW1 8910   3.707   4.041   1.866
 2967SOL    HW2 8911   3.830   4.146   1.839
 2968SOL     OW 8912   3.796   3.890   2.180
 2968SOL    HW1 8913   3.779   3.973   2.126
 2968SOL    HW2 8914   3.886   3.853   2.158
 2969SOL     OW 8915   4.440   4.289   3.570
 2969SOL    HW1 8916   4.459   4.354   3.644
 2969SOL    HW2 8917   4.500   4.209   3.579
 2970SOL     OW 8918   4.152   4.148   2.382
 2970SOL    HW1 8919   4.182   4.076   2.320
 2970SOL    HW2 8920   4.113   4.108   2.465
 2971SOL     OW 8921   4.041   4.271   3.142
 2971SOL    HW1 8922   4.079   4.212   3.214
 2971SOL    HW2 8923   4.081   4.245   3.054
 2972SOL     OW 8924   3.954   4.352   3.837
 2972SOL    HW1 8925   3.861   4.350   3.874
 2972SOL    HW2 8926   3.955   4.313   3.745
 2973SOL     OW 8927   3.949   3.999   4.720
 2973SOL    HW1 8928   3.984   3.982   4.812
 2973SOL    HW2 8929   3.861   3.954   4.708
 2974SOL     OW 8930   3.743   4.092   4.371
 2974SOL    HW1 8931   3.661   4.135   4.410
 2974SOL    HW2 8932   3.715   4.019   4.308
 2975SOL     OW 8933   3.846   4.367   4.287
 2975SOL    HW1 8934   3.801   4.279   4.304
 2975SOL    HW2 8935   3.845   4.421   4.371
 2976SOL     OW 8936   4.533   3.728   4.226
 2976SOL    HW1 8937   4.573   3.819   4.217
 2976SOL    HW2 8938   4.433   3.736   4.232
 2977SOL     OW 8939   4.106   4.424   4.204
 2977SOL    HW1 8940   4.151   4.334   4.201
 2977SOL    HW2 8941   4.012   4.413   4.237
 2978SOL     OW 8942   4.338   3.846   3.841
 2978SOL    HW1 8943   4.436   3.824   3.848
 2978SOL    HW2 8944   4.307   3.829   3.748
 2979SOL     OW 8945   4.263   3.788   4.236
 2979SOL    HW1 8946   4.182   3.789   4.294
 2979SOL    HW2 8947   4.266   3.871   4.181
 2980SOL     OW 8948   4.021   3.759   3.895
 2980SOL    HW1 8949   4.070   3.843   3.874
 2980SOL    HW2 8950   4.083   3.694   3.940
 2981SOL     OW 8951   4.251   3.980   4.052
 2981SOL    HW1 8952   4.278   3.921   3.977
 2981SOL    HW2 8953   4.251   4.075   4.021
 2982SOL     OW 8954   4.031   3.787   4.342
 2982SOL    HW1 8955   4.020   3.881   4.375
 2982SOL    HW2 8956   4.026   3.724   4.419
 2983SOL     OW 8957   4.539   4.296   4.049
 2983SOL    HW1 8958   4.546   4.207   4.003
 2983SOL    HW2 8959   4.445   4.330   4.041
 2984SOL     OW 8960   4.197   4.224   3.915
 2984SOL    HW1 8961   4.258   4.304   3.919
 2984SOL    HW2 8962   4.102   4.255   3.922
 2985SOL     OW 8963   3.799   4.069   3.757
 2985SOL    HW1 8964   3.707   4.041   3.728
 2985SOL    HW2 8965   3.830   4.146   3.701
 2986SOL     OW 8966   3.796   3.890   4.042
 2986SOL    HW1 8967   3.779   3.973   3.988
 2986SOL    HW2 8968   3.886   3.853   4.020
 2987SOL     OW 8969   4.152   4.148   4.244
 2987SOL    HW1 8970   4.182   4.076   4.182
 2987SOL    HW2 8971   4.113   4.108   4.327
   4.51381   4.51381   4.51381
