mobley_2481002_GMX.gro created by acpype (v: 2023.10.27) on Wed May 20 23:46:02 2026
    7
    1MOL     C1    1   2.251   2.190   2.214
    1MOL     N1    2   2.106   2.204   2.164
    1MOL     O1    3   2.060   2.114   2.092
    1MOL     O2    4   2.040   2.304   2.198
    1MOL    CL1    5   2.256   2.041   2.310
    1MOL    CL2    6   2.353   2.181   2.069
    1MOL    CL3    7   2.296   2.330   2.313
   4.38884   4.38884   4.38884
