mobley_6522117_GMX.gro created by acpype (v: 2023.10.27) on Wed May 20 23:58:04 2026
13513
    1MOL     C1    1   2.435   2.755   2.867
    1MOL     C2    2   2.318   2.754   2.943
    1MOL     C3    3   2.191   2.686   2.749
    1MOL     C4    4   2.432   2.721   2.730
    1MOL     C5    5   2.197   2.720   2.884
    1MOL     C6    6   2.308   2.686   2.672
    1MOL     C7    7   2.618   2.834   2.612
    1MOL     C8    8   2.557   2.722   2.654
    1MOL     C9    9   2.755   2.173   2.611
    1MOL    C10   10   2.695   2.614   2.147
    1MOL    C11   11   2.792   2.319   2.623
    1MOL    C12   12   2.766   2.582   2.277
    1MOL     O1   13   2.859   2.610   2.568
    1MOL     O2   14   2.604   2.594   2.628
    1MOL     O3   15   2.720   2.392   2.526
    1MOL     O4   16   2.674   2.598   2.384
    1MOL     P1   17   2.726   2.553   2.530
    1MOL    CL1   18   2.053   2.720   2.978
    1MOL    CL2   19   2.295   2.642   2.505
    1MOL    CL3   20   2.560   2.994   2.640
    1MOL     H1   21   2.530   2.781   2.914
    1MOL     H2   22   2.323   2.781   3.048
    1MOL     H3   23   2.096   2.659   2.703
    1MOL     H4   24   2.710   2.836   2.556
    1MOL     H5   25   2.647   2.159   2.626
    1MOL     H6   26   2.778   2.135   2.511
    1MOL     H7   27   2.809   2.113   2.685
    1MOL     H8   28   2.609   2.547   2.133
    1MOL     H9   29   2.657   2.716   2.149
    1MOL    H10   30   2.763   2.602   2.062
    1MOL    H11   31   2.899   2.332   2.606
    1MOL    H12   32   2.767   2.356   2.724
    1MOL    H13   33   2.851   2.650   2.292
    1MOL    H14   34   2.803   2.479   2.275
    2SOL     OW   35   0.230   0.628   0.113
    2SOL    HW1   36   0.137   0.626   0.150
    2SOL    HW2   37   0.231   0.589   0.021
    3SOL     OW   38   0.225   0.275   0.996
    3SOL    HW1   39   0.260   0.258   1.088
    3SOL    HW2   40   0.137   0.230   0.984
    4SOL     OW   41   0.019   0.368   0.647
    4SOL    HW1   42  -0.063   0.411   0.686
    4SOL    HW2   43  -0.009   0.295   0.584
    5SOL     OW   44   0.569   1.275   1.165
    5SOL    HW1   45   0.476   1.268   1.128
    5SOL    HW2   46   0.580   1.364   1.209
    6SOL     OW   47   1.555   1.511   0.703
    6SOL    HW1   48   1.498   1.495   0.784
    6SOL    HW2   49   1.496   1.521   0.623
    7SOL     OW   50   1.135   0.703   0.717
    7SOL    HW1   51   1.192   0.781   0.692
    7SOL    HW2   52   1.075   0.729   0.793
    8SOL     OW   53   1.755   0.607   0.231
    8SOL    HW1   54   1.743   0.594   0.132
    8SOL    HW2   55   1.725   0.526   0.280
    9SOL     OW   56   0.768   1.144   1.023
    9SOL    HW1   57   0.690   1.161   1.083
    9SOL    HW2   58   0.802   1.231   0.987
   10SOL     OW   59   0.850   0.798   1.823
   10SOL    HW1   60   0.846   0.874   1.888
   10SOL    HW2   61   0.872   0.834   1.732
   11SOL     OW   62   0.685   1.012   0.665
   11SOL    HW1   63   0.754   0.996   0.735
   11SOL    HW2   64   0.612   1.069   0.703
   12SOL     OW   65   0.686   1.161   1.803
   12SOL    HW1   66   0.746   1.240   1.817
   12SOL    HW2   67   0.600   1.192   1.762
   13SOL     OW   68   0.335   1.435   1.061
   13SOL    HW1   69   0.257   1.404   1.008
   13SOL    HW2   70   0.393   1.493   1.004
   14SOL     OW   71   1.460   1.505   1.339
   14SOL    HW1   72   1.484   1.599   1.365
   14SOL    HW2   73   1.444   1.451   1.421
   15SOL     OW   74   0.438   0.392   1.499
   15SOL    HW1   75   0.520   0.336   1.508
   15SOL    HW2   76   0.357   0.334   1.503
   16SOL     OW   77   1.603   0.447   0.737
   16SOL    HW1   78   1.529   0.493   0.687
   16SOL    HW2   79   1.654   0.515   0.790
   17SOL     OW   80   0.231   1.713   0.483
   17SOL    HW1   81   0.265   1.790   0.537
   17SOL    HW2   82   0.275   1.713   0.393
   18SOL     OW   83   1.127   1.341   1.690
   18SOL    HW1   84   1.174   1.341   1.778
   18SOL    HW2   85   1.079   1.254   1.679
   19SOL     OW   86   0.230   1.434   0.538
   19SOL    HW1   87   0.204   1.530   0.538
   19SOL    HW2   88   0.159   1.380   0.583
   20SOL     OW   89   0.240   1.091   0.886
   20SOL    HW1   90   0.254   1.007   0.938
   20SOL    HW2   91   0.185   1.155   0.941
   21SOL     OW   92   0.620   1.786   1.439
   21SOL    HW1   93   0.528   1.769   1.474
   21SOL    HW2   94   0.648   1.878   1.465
   22SOL     OW   95   0.606   0.964   0.123
   22SOL    HW1   96   0.613   1.048   0.069
   22SOL    HW2   97   0.652   0.977   0.211
   23SOL     OW   98   1.594   0.114   1.480
   23SOL    HW1   99   1.576   0.181   1.408
   23SOL    HW2  100   1.591   0.160   1.569
   24SOL     OW  101   0.122   0.643   0.563
   24SOL    HW1  102   0.077   0.555   0.580
   24SOL    HW2  103   0.121   0.697   0.647
   25SOL     OW  104   1.842   1.767   0.359
   25SOL    HW1  105   1.896   1.738   0.439
   25SOL    HW2  106   1.872   1.857   0.330
   26SOL     OW  107   0.027   1.596   0.117
   26SOL    HW1  108   0.008   1.500   0.138
   26SOL    HW2  109  -0.006   1.654   0.192
   27SOL     OW  110   1.689   0.922   0.612
   27SOL    HW1  111   1.784   0.893   0.620
   27SOL    HW2  112   1.681   0.987   0.537
   28SOL     OW  113   1.641   1.108   0.432
   28SOL    HW1  114   1.727   1.110   0.380
   28SOL    HW2  115   1.655   1.155   0.520
   29SOL     OW  116   0.113   0.737   1.597
   29SOL    HW1  117   0.201   0.724   1.642
   29SOL    HW2  118   0.100   0.834   1.575
   30SOL     OW  119   0.613   1.365   0.726
   30SOL    HW1  120   0.564   1.278   0.735
   30SOL    HW2  121   0.590   1.408   0.639
   31SOL     OW  122   1.293   1.228   1.423
   31SOL    HW1  123   1.330   1.155   1.365
   31SOL    HW2  124   1.345   1.233   1.508
   32SOL     OW  125   0.809   0.004   0.502
   32SOL    HW1  126   0.849   0.095   0.493
   32SOL    HW2  127   0.709   0.012   0.508
   33SOL     OW  128   0.197   0.976   1.264
   33SOL    HW1  129   0.286   0.931   1.250
   33SOL    HW2  130   0.124   0.911   1.245
   34SOL     OW  131   1.525   0.999   0.190
   34SOL    HW1  132   1.462   0.923   0.203
   34SOL    HW2  133   1.573   1.017   0.276
   35SOL     OW  134   1.187   1.792   1.616
   35SOL    HW1  135   1.211   1.852   1.540
   35SOL    HW2  136   1.194   1.697   1.586
   36SOL     OW  137   0.317   0.251   1.801
   36SOL    HW1  138   0.388   0.322   1.807
   36SOL    HW2  139   0.229   0.290   1.829
   37SOL     OW  140   1.466   1.417   0.953
   37SOL    HW1  141   1.407   1.423   1.033
   37SOL    HW2  142   1.451   1.329   0.907
   38SOL     OW  143   1.667   1.714   0.572
   38SOL    HW1  144   1.626   1.691   0.484
   38SOL    HW2  145   1.649   1.640   0.637
   39SOL     OW  146   0.598   0.729   0.270
   39SOL    HW1  147   0.622   0.798   0.202
   39SOL    HW2  148   0.520   0.762   0.324
   40SOL     OW  149   1.281   0.345   0.944
   40SOL    HW1  150   1.195   0.295   0.931
   40SOL    HW2  151   1.343   0.291   1.000
   41SOL     OW  152   1.576   1.662   0.307
   41SOL    HW1  153   1.665   1.708   0.310
   41SOL    HW2  154   1.555   1.638   0.212
   42SOL     OW  155   0.807   0.605   1.465
   42SOL    HW1  156   0.760   0.602   1.554
   42SOL    HW2  157   0.756   0.550   1.399
   43SOL     OW  158   1.394   0.469   1.674
   43SOL    HW1  159   1.374   0.512   1.762
   43SOL    HW2  160   1.472   0.407   1.683
   44SOL     OW  161   0.973   0.890   1.572
   44SOL    HW1  162   1.019   0.806   1.543
   44SOL    HW2  163   0.917   0.924   1.497
   45SOL     OW  164   0.991   0.410   1.242
   45SOL    HW1  165   0.914   0.444   1.296
   45SOL    HW2  166   0.957   0.359   1.163
   46SOL     OW  167   1.041   0.701   0.429
   46SOL    HW1  168   1.067   0.697   0.525
   46SOL    HW2  169   0.956   0.650   0.415
   47SOL     OW  170   0.076   0.811   0.789
   47SOL    HW1  171   0.175   0.799   0.798
   47SOL    HW2  172   0.052   0.906   0.810
   48SOL     OW  173   0.130   1.821   1.571
   48SOL    HW1  174   0.120   1.806   1.670
   48SOL    HW2  175   0.044   1.857   1.535
   49SOL     OW  176   0.865   0.348   0.195
   49SOL    HW1  177   0.924   0.411   0.146
   49SOL    HW2  178   0.884   0.254   0.166
   50SOL     OW  179   1.719   0.585   1.831
   50SOL    HW1  180   1.693   0.674   1.795
   50SOL    HW2  181   1.717   0.517   1.758
   51SOL     OW  182   1.362   1.144   0.545
   51SOL    HW1  183   1.445   1.115   0.497
   51SOL    HW2  184   1.313   1.211   0.489
   52SOL     OW  185   0.550   0.196   0.885
   52SOL    HW1  186   0.545   0.191   0.985
   52SOL    HW2  187   0.552   0.292   0.856
   53SOL     OW  188   1.008   1.456   0.477
   53SOL    HW1  189   0.962   1.528   0.425
   53SOL    HW2  190   1.004   1.476   0.575
   54SOL     OW  191   0.351   1.801   0.853
   54SOL    HW1  192   0.401   1.715   0.859
   54SOL    HW2  193   0.416   1.878   0.850
   55SOL     OW  194   1.795   1.066   0.873
   55SOL    HW1  195   1.733   1.051   0.797
   55SOL    HW2  196   1.743   1.077   0.958
   56SOL     OW  197   1.227   1.550   1.506
   56SOL    HW1  198   1.233   1.473   1.570
   56SOL    HW2  199   1.175   1.524   1.426
   57SOL     OW  200   0.321   0.943   0.242
   57SOL    HW1  201   0.403   0.982   0.200
   57SOL    HW2  202   0.294   0.861   0.193
   58SOL     OW  203   1.458   0.735   0.728
   58SOL    HW1  204   1.453   0.670   0.803
   58SOL    HW2  205   1.538   0.794   0.741
   59SOL     OW  206   0.461   1.266   1.727
   59SOL    HW1  207   0.411   1.267   1.641
   59SOL    HW2  208   0.398   1.248   1.803
   60SOL     OW  209   1.111   1.776   0.237
   60SOL    HW1  210   1.051   1.714   0.287
   60SOL    HW2  211   1.142   1.732   0.152
   61SOL     OW  212   0.202   0.285   1.498
   61SOL    HW1  213   0.122   0.345   1.485
   61SOL    HW2  214   0.192   0.236   1.584
   62SOL     OW  215   1.632   1.377   0.081
   62SOL    HW1  216   1.600   1.471   0.071
   62SOL    HW2  217   1.556   1.314   0.069
   63SOL     OW  218   0.464   1.743   0.323
   63SOL    HW1  219   0.497   1.782   0.409
   63SOL    HW2  220   0.540   1.736   0.258
   64SOL     OW  221   1.400   0.107   0.426
   64SOL    HW1  222   1.376   0.070   0.336
   64SOL    HW2  223   1.499   0.123   0.430
   65SOL     OW  224   0.249   1.785   1.241
   65SOL    HW1  225   0.306   1.720   1.291
   65SOL    HW2  226   0.233   1.752   1.148
   66SOL     OW  227   0.940   1.698   0.904
   66SOL    HW1  228   1.020   1.641   0.925
   66SOL    HW2  229   0.891   1.658   0.827
   67SOL     OW  230   0.382   0.700   0.480
   67SOL    HW1  231   0.427   0.610   0.477
   67SOL    HW2  232   0.288   0.689   0.513
   68SOL     OW  233   1.547   0.222   1.729
   68SOL    HW1  234   1.542   0.259   1.821
   68SOL    HW2  235   1.475   0.153   1.717
   69SOL     OW  236   0.614   0.122   0.117
   69SOL    HW1  237   0.712   0.100   0.124
   69SOL    HW2  238   0.583   0.105   0.024
   70SOL     OW  239   0.781   0.264   1.749
   70SOL    HW1  240   0.848   0.203   1.792
   70SOL    HW2  241   0.708   0.283   1.814
   71SOL     OW  242   0.888   1.514   1.195
   71SOL    HW1  243   0.865   1.489   1.101
   71SOL    HW2  244   0.949   1.445   1.234
   72SOL     OW  245   1.351   0.590   1.433
   72SOL    HW1  246   1.379   0.547   1.518
   72SOL    HW2  247   1.376   0.686   1.434
   73SOL     OW  248   0.803   1.402   0.924
   73SOL    HW1  249   0.893   1.416   0.882
   73SOL    HW2  250   0.732   1.404   0.853
   74SOL     OW  251   0.922   0.503   0.899
   74SOL    HW1  252   0.897   0.494   0.803
   74SOL    HW2  253   0.970   0.421   0.930
   75SOL     OW  254   0.539   0.064   0.512
   75SOL    HW1  255   0.458   0.065   0.570
   75SOL    HW2  256   0.542   0.147   0.457
   76SOL     OW  257   1.434   1.188   0.041
   76SOL    HW1  258   1.466   1.112   0.098
   76SOL    HW2  259   1.342   1.215   0.071
   77SOL     OW  260   0.297   0.035   0.171
   77SOL    HW1  261   0.346   0.119   0.150
   77SOL    HW2  262   0.359  -0.030   0.216
   78SOL     OW  263   0.935   0.236   0.480
   78SOL    HW1  264   0.887   0.277   0.402
   78SOL    HW2  265   1.034   0.234   0.461
   79SOL     OW  266   1.076   0.683   1.464
   79SOL    HW1  267   0.996   0.622   1.467
   79SOL    HW2  268   1.157   0.630   1.440
   80SOL     OW  269   1.227   1.570   0.793
   80SOL    HW1  270   1.248   1.644   0.728
   80SOL    HW2  271   1.295   1.570   0.866
   81SOL     OW  272   0.459   1.152   0.741
   81SOL    HW1  273   0.388   1.125   0.806
   81SOL    HW2  274   0.433   1.124   0.648
   82SOL     OW  275   1.271   1.797   0.591
   82SOL    HW1  276   1.315   1.861   0.527
   82SOL    HW2  277   1.221   1.849   0.661
   83SOL     OW  278   1.032   0.549   0.016
   83SOL    HW1  279   0.991   0.631  -0.023
   83SOL    HW2  280   1.096   0.575   0.089
   84SOL     OW  281   0.078   0.556   1.386
   84SOL    HW1  282   0.170   0.555   1.345
   84SOL    HW2  283   0.072   0.630   1.453
   85SOL     OW  284   0.561   0.222   1.147
   85SOL    HW1  285   0.599   0.138   1.184
   85SOL    HW2  286   0.473   0.241   1.191
   86SOL     OW  287   0.866   0.454   0.642
   86SOL    HW1  288   0.834   0.526   0.580
   86SOL    HW2  289   0.890   0.373   0.589
   87SOL     OW  290   1.017   0.039   0.753
   87SOL    HW1  291   0.945   0.044   0.684
   87SOL    HW2  292   0.993  -0.030   0.822
   88SOL     OW  293   1.429   1.173   0.867
   88SOL    HW1  294   1.374   1.089   0.860
   88SOL    HW2  295   1.455   1.202   0.775
   89SOL     OW  296   1.466   0.590   0.992
   89SOL    HW1  297   1.436   0.495   0.999
   89SOL    HW2  298   1.539   0.606   1.058
   90SOL     OW  299   1.857   0.833   0.377
   90SOL    HW1  300   1.899   0.769   0.441
   90SOL    HW2  301   1.819   0.782   0.299
   91SOL     OW  302   0.488   1.385   0.174
   91SOL    HW1  303   0.401   1.370   0.221
   91SOL    HW2  304   0.471   1.411   0.079
   92SOL     OW  305   1.664   1.280   0.657
   92SOL    HW1  306   1.763   1.288   0.671
   92SOL    HW2  307   1.619   1.364   0.688
   93SOL     OW  308   1.390   0.575   0.078
   93SOL    HW1  309   1.336   0.554   0.159
   93SOL    HW2  310   1.481   0.534   0.087
   94SOL     OW  311   0.527   0.256   0.328
   94SOL    HW1  312   0.554   0.197   0.253
   94SOL    HW2  313   0.527   0.351   0.297
   95SOL     OW  314   1.754   1.223   1.588
   95SOL    HW1  315   1.845   1.184   1.575
   95SOL    HW2  316   1.762   1.319   1.612
   96SOL     OW  317   1.064   1.347   1.340
   96SOL    HW1  318   0.984   1.324   1.395
   96SOL    HW2  319   1.147   1.321   1.389
   97SOL     OW  320   1.592   1.629   1.625
   97SOL    HW1  321   1.619   1.663   1.535
   97SOL    HW2  322   1.671   1.591   1.671
   98SOL     OW  323   1.111   1.195   1.100
   98SOL    HW1  324   1.071   1.239   1.181
   98SOL    HW2  325   1.070   1.232   1.017
   99SOL     OW  326   1.638   1.099   1.079
   99SOL    HW1  327   1.643   1.180   1.138
   99SOL    HW2  328   1.552   1.101   1.028
  100SOL     OW  329   0.915   0.089   1.402
  100SOL    HW1  330   0.940   0.069   1.307
  100SOL    HW2  331   0.987   0.145   1.444
  101SOL     OW  332   0.980   1.116   1.719
  101SOL    HW1  333   0.881   1.122   1.729
  101SOL    HW2  334   1.003   1.036   1.663
  102SOL     OW  335   0.705   1.050   0.368
  102SOL    HW1  336   0.691   1.057   0.467
  102SOL    HW2  337   0.789   0.999   0.350
  103SOL     OW  338   0.410   0.813   1.251
  103SOL    HW1  339   0.496   0.825   1.301
  103SOL    HW2  340   0.368   0.726   1.278
  104SOL     OW  341   1.274   0.386   1.262
  104SOL    HW1  342   1.295   0.460   1.326
  104SOL    HW2  343   1.185   0.403   1.219
  105SOL     OW  344   0.064   1.564   1.331
  105SOL    HW1  345   0.018   1.646   1.297
  105SOL    HW2  346   0.162   1.583   1.340
  106SOL     OW  347   0.367   1.100   0.501
  106SOL    HW1  348   0.360   1.183   0.445
  106SOL    HW2  349   0.371   1.020   0.441
  107SOL     OW  350   0.566   0.537   0.865
  107SOL    HW1  351   0.578   0.603   0.791
  107SOL    HW2  352   0.612   0.571   0.948
  108SOL     OW  353   1.252   1.348   0.388
  108SOL    HW1  354   1.302   1.425   0.428
  108SOL    HW2  355   1.157   1.350   0.420
  109SOL     OW  356   1.272   1.445   1.142
  109SOL    HW1  357   1.319   1.458   1.229
  109SOL    HW2  358   1.206   1.371   1.151
  110SOL     OW  359   1.582   0.639   0.472
  110SOL    HW1  360   1.551   0.700   0.545
  110SOL    HW2  361   1.632   0.691   0.403
  111SOL     OW  362   0.354   1.510   1.329
  111SOL    HW1  363   0.333   1.466   1.242
  111SOL    HW2  364   0.451   1.536   1.332
  112SOL     OW  365   0.402   0.751   1.598
  112SOL    HW1  366   0.470   0.806   1.551
  112SOL    HW2  367   0.442   0.663   1.625
  113SOL     OW  368   1.587   0.779   1.670
  113SOL    HW1  369   1.495   0.817   1.665
  113SOL    HW2  370   1.647   0.826   1.605
  114SOL     OW  371   1.013   0.105   1.770
  114SOL    HW1  372   1.019   0.190   1.718
  114SOL    HW2  373   1.045   0.029   1.713
  115SOL     OW  374   0.504   0.050   1.740
  115SOL    HW1  375   0.462  -0.007   1.670
  115SOL    HW2  376   0.438   0.119   1.772
  116SOL     OW  377   0.573   0.870   1.029
  116SOL    HW1  378   0.617   0.959   1.020
  116SOL    HW2  379   0.510   0.870   1.106
  117SOL     OW  380   1.360   0.862   1.045
  117SOL    HW1  381   1.285   0.862   0.979
  117SOL    HW2  382   1.397   0.770   1.054
  118SOL     OW  383   1.209   0.525   0.275
  118SOL    HW1  384   1.222   0.441   0.329
  118SOL    HW2  385   1.180   0.599   0.335
  119SOL     OW  386   0.307   0.213   1.231
  119SOL    HW1  387   0.284   0.250   1.321
  119SOL    HW2  388   0.277   0.118   1.225
  120SOL     OW  389   0.037   1.310   1.282
  120SOL    HW1  390   0.090   1.261   1.350
  120SOL    HW2  391   0.059   1.408   1.287
  121SOL     OW  392   0.732   0.634   1.064
  121SOL    HW1  393   0.791   0.608   0.988
  121SOL    HW2  394   0.704   0.730   1.053
  122SOL     OW  395   1.728   0.935   1.854
  122SOL    HW1  396   1.682   0.928   1.765
  122SOL    HW2  397   1.666   0.979   1.920
  123SOL     OW  398   0.307   0.063   0.618
  123SOL    HW1  399   0.296   0.157   0.651
  123SOL    HW2  400   0.302   0.000   0.695
  124SOL     OW  401   1.622   0.367   0.374
  124SOL    HW1  402   1.624   0.291   0.438
  124SOL    HW2  403   1.574   0.444   0.414
  125SOL     OW  404   1.023   0.766   0.966
  125SOL    HW1  405   1.038   0.787   1.062
  125SOL    HW2  406   0.993   0.671   0.957
  126SOL     OW  407   0.980   1.573   1.700
  126SOL    HW1  408   0.960   1.617   1.612
  126SOL    HW2  409   1.019   1.482   1.684
  127SOL     OW  410   1.859   1.518   1.605
  127SOL    HW1  411   1.873   1.545   1.510
  127SOL    HW2  412   1.942   1.540   1.658
  128SOL     OW  413   0.350   0.898   1.804
  128SOL    HW1  414   0.426   0.942   1.852
  128SOL    HW2  415   0.385   0.851   1.722
  129SOL     OW  416   1.540   0.274   0.125
  129SOL    HW1  417   1.479   0.199   0.148
  129SOL    HW2  418   1.562   0.326   0.208
  130SOL     OW  419   1.303   0.838   0.042
  130SOL    HW1  420   1.337   0.745   0.057
  130SOL    HW2  421   1.321   0.865  -0.053
  131SOL     OW  422   1.068   1.333   0.849
  131SOL    HW1  423   1.075   1.249   0.794
  131SOL    HW2  424   1.130   1.402   0.813
  132SOL     OW  425   0.319   0.810   0.949
  132SOL    HW1  426   0.412   0.846   0.954
  132SOL    HW2  427   0.313   0.725   1.001
  133SOL     OW  428   0.339   0.509   1.006
  133SOL    HW1  429   0.287   0.426   0.989
  133SOL    HW2  430   0.416   0.514   0.942
  134SOL     OW  431   1.138   0.380   1.678
  134SOL    HW1  432   1.093   0.443   1.742
  134SOL    HW2  433   1.231   0.411   1.661
  135SOL     OW  434   1.160   0.207   1.477
  135SOL    HW1  435   1.160   0.271   1.554
  135SOL    HW2  436   1.188   0.255   1.394
  136SOL     OW  437   0.008   1.326   0.200
  136SOL    HW1  438  -0.085   1.347   0.169
  136SOL    HW2  439   0.018   1.227   0.213
  137SOL     OW  440   0.088   1.801   0.927
  137SOL    HW1  441   0.046   1.715   0.900
  137SOL    HW2  442   0.182   1.804   0.893
  138SOL     OW  443   0.504   1.568   0.910
  138SOL    HW1  444   0.570   1.642   0.919
  138SOL    HW2  445   0.548   1.489   0.868
  139SOL     OW  446   1.002   0.796   1.238
  139SOL    HW1  447   1.043   0.764   1.324
  139SOL    HW2  448   0.906   0.769   1.235
  140SOL     OW  449   0.040   0.544   1.114
  140SOL    HW1  450   0.125   0.511   1.073
  140SOL    HW2  451   0.053   0.559   1.212
  141SOL     OW  452   0.189   0.520   1.722
  141SOL    HW1  453   0.248   0.480   1.652
  141SOL    HW2  454   0.131   0.591   1.681
  142SOL     OW  455   1.369   0.950   1.660
  142SOL    HW1  456   1.408   1.039   1.680
  142SOL    HW2  457   1.379   0.930   1.563
  143SOL     OW  458   0.815   0.572   0.325
  143SOL    HW1  459   0.822   0.483   0.279
  143SOL    HW2  460   0.721   0.606   0.317
  144SOL     OW  461   1.657   0.604   1.206
  144SOL    HW1  462   1.619   0.535   1.268
  144SOL    HW2  463   1.739   0.568   1.162
  145SOL     OW  464   0.252   1.564   1.744
  145SOL    HW1  465   0.222   1.621   1.820
  145SOL    HW2  466   0.245   1.467   1.770
  146SOL     OW  467   0.671   0.464   1.269
  146SOL    HW1  468   0.637   0.375   1.239
  146SOL    HW2  469   0.697   0.518   1.189
  147SOL     OW  470   0.930   1.678   1.465
  147SOL    HW1  471   0.906   1.660   1.370
  147SOL    HW2  472   0.960   1.772   1.475
  148SOL     OW  473   0.473   0.500   0.191
  148SOL    HW1  474   0.534   0.580   0.195
  148SOL    HW2  475   0.378   0.531   0.198
  149SOL     OW  476   0.159   1.137   1.466
  149SOL    HW1  477   0.181   1.076   1.542
  149SOL    HW2  478   0.169   1.088   1.380
  150SOL     OW  479   1.347   1.059   1.234
  150SOL    HW1  480   1.371   0.996   1.160
  150SOL    HW2  481   1.257   1.099   1.216
  151SOL     OW  482   1.302   0.855   0.309
  151SOL    HW1  483   1.216   0.824   0.351
  151SOL    HW2  484   1.298   0.841   0.210
  152SOL     OW  485   1.759   1.747   1.154
  152SOL    HW1  486   1.820   1.777   1.081
  152SOL    HW2  487   1.721   1.658   1.132
  153SOL     OW  488   1.252   1.731   1.128
  153SOL    HW1  489   1.336   1.736   1.074
  153SOL    HW2  490   1.229   1.635   1.146
  154SOL     OW  491   0.083   1.258   1.022
  154SOL    HW1  492   0.078   1.257   1.122
  154SOL    HW2  493   0.000   1.217   0.984
  155SOL     OW  494   0.688   1.662   1.716
  155SOL    HW1  495   0.632   1.743   1.725
  155SOL    HW2  496   0.740   1.666   1.630
  156SOL     OW  497   0.903   0.086   0.133
  156SOL    HW1  498   0.954   0.087   0.047
  156SOL    HW2  499   0.959   0.044   0.204
  157SOL     OW  500   1.726   0.135   0.523
  157SOL    HW1  501   1.799   0.118   0.456
  157SOL    HW2  502   1.695   0.048   0.561
  158SOL     OW  503   1.388   1.573   0.477
  158SOL    HW1  504   1.455   1.585   0.403
  158SOL    HW2  505   1.348   1.662   0.500
  159SOL     OW  506   0.130   1.794   1.851
  159SOL    HW1  507   0.089   1.720   1.904
  159SOL    HW2  508   0.194   1.845   1.909
  160SOL     OW  509   1.280   0.927   0.672
  160SOL    HW1  510   1.340   0.846   0.674
  160SOL    HW2  511   1.320   0.996   0.612
  161SOL     OW  512   0.830   1.273   1.422
  161SOL    HW1  513   0.825   1.306   1.517
  161SOL    HW2  514   0.744   1.292   1.376
  162SOL     OW  515   0.672   1.616   0.154
  162SOL    HW1  516   0.681   1.626   0.055
  162SOL    HW2  517   0.632   1.527   0.175
  163SOL     OW  518   1.650   1.720   1.394
  163SOL    HW1  519   1.703   1.730   1.310
  163SOL    HW2  520   1.623   1.810   1.428
  164SOL     OW  521   1.841   0.175   0.963
  164SOL    HW1  522   1.880   0.090   0.927
  164SOL    HW2  523   1.743   0.177   0.944
  165SOL     OW  524   0.263   0.326   0.720
  165SOL    HW1  525   0.184   0.377   0.686
  165SOL    HW2  526   0.254   0.311   0.818
  166SOL     OW  527   1.194   1.612   0.031
  166SOL    HW1  528   1.200   1.519   0.068
  166SOL    HW2  529   1.135   1.612  -0.049
  167SOL     OW  530   0.822   1.002   1.372
  167SOL    HW1  531   0.862   1.001   1.280
  167SOL    HW2  532   0.832   1.094   1.412
  168SOL     OW  533   0.916   0.910   0.291
  168SOL    HW1  534   0.979   0.948   0.223
  168SOL    HW2  535   0.956   0.827   0.330
  169SOL     OW  536   1.504   1.607   0.044
  169SOL    HW1  537   1.412   1.644   0.051
  169SOL    HW2  538   1.542   1.627  -0.046
  170SOL     OW  539   0.372   1.288   1.490
  170SOL    HW1  540   0.359   1.381   1.456
  170SOL    HW2  541   0.288   1.236   1.477
  171SOL     OW  542   1.614   1.292   1.289
  171SOL    HW1  543   1.674   1.295   1.369
  171SOL    HW2  544   1.539   1.356   1.302
  172SOL     OW  545   1.039   1.098   0.696
  172SOL    HW1  546   0.969   1.051   0.750
  172SOL    HW2  547   1.098   1.030   0.653
  173SOL     OW  548   1.014   0.236   0.971
  173SOL    HW1  549   1.006   0.200   0.878
  173SOL    HW2  550   1.012   0.160   1.036
  174SOL     OW  551   0.590   1.487   0.491
  174SOL    HW1  552   0.632   1.429   0.421
  174SOL    HW2  553   0.546   1.566   0.447
  175SOL     OW  554   1.709   0.385   1.381
  175SOL    HW1  555   1.782   0.454   1.385
  175SOL    HW2  556   1.737   0.310   1.322
  176SOL     OW  557   0.255   1.348   0.290
  176SOL    HW1  558   0.159   1.349   0.263
  176SOL    HW2  559   0.267   1.401   0.374
  177SOL     OW  560   0.105   1.013   1.726
  177SOL    HW1  561   0.028   0.980   1.780
  177SOL    HW2  562   0.190   0.983   1.768
  178SOL     OW  563   0.672   0.203   1.489
  178SOL    HW1  564   0.762   0.187   1.449
  178SOL    HW2  565   0.680   0.208   1.588
  179SOL     OW  566   0.075   0.345   0.033
  179SOL    HW1  567  -0.017   0.317   0.004
  179SOL    HW2  568   0.106   0.422  -0.023
  180SOL     OW  569   1.440   0.856   1.398
  180SOL    HW1  570   1.383   0.908   1.335
  180SOL    HW2  571   1.536   0.868   1.374
  181SOL     OW  572   0.072   0.166   0.318
  181SOL    HW1  573   0.055   0.249   0.264
  181SOL    HW2  574   0.162   0.129   0.296
  182SOL     OW  575   1.183   1.335   0.119
  182SOL    HW1  576   1.084   1.324   0.121
  182SOL    HW2  577   1.217   1.350   0.212
  183SOL     OW  578   0.613   0.842   1.431
  183SOL    HW1  579   0.669   0.923   1.414
  183SOL    HW2  580   0.672   0.762   1.434
  184SOL     OW  581   1.493   1.767   0.959
  184SOL    HW1  582   1.526   1.831   0.890
  184SOL    HW2  583   1.559   1.761   1.034
  185SOL     OW  584   0.716   0.565   1.708
  185SOL    HW1  585   0.735   0.630   1.782
  185SOL    HW2  586   0.776   0.485   1.717
  186SOL     OW  587   1.450   1.220   1.633
  186SOL    HW1  588   1.441   1.210   1.732
  186SOL    HW2  589   1.546   1.213   1.607
  187SOL     OW  590   0.390   1.741   1.560
  187SOL    HW1  591   0.299   1.782   1.558
  187SOL    HW2  592   0.383   1.647   1.592
  188SOL     OW  593   1.674   0.883   1.254
  188SOL    HW1  594   1.647   0.794   1.217
  188SOL    HW2  595   1.675   0.951   1.181
  189SOL     OW  596   1.225   0.325   0.449
  189SOL    HW1  597   1.290   0.251   0.438
  189SOL    HW2  598   1.245   0.375   0.533
  190SOL     OW  599   0.594   0.745   0.652
  190SOL    HW1  600   0.644   0.830   0.633
  190SOL    HW2  601   0.506   0.747   0.604
  191SOL     OW  602   1.777   0.342   1.642
  191SOL    HW1  603   1.760   0.373   1.548
  191SOL    HW2  604   1.693   0.305   1.680
  192SOL     OW  605   1.730   0.934   1.517
  192SOL    HW1  606   1.768   1.025   1.532
  192SOL    HW2  607   1.722   0.917   1.418
  193SOL     OW  608   0.859   1.374   0.016
  193SOL    HW1  609   0.813   1.389   0.104
  193SOL    HW2  610   0.903   1.459  -0.014
  194SOL     OW  611   0.661   1.790   0.953
  194SOL    HW1  612   0.615   1.878   0.940
  194SOL    HW2  613   0.760   1.802   0.946
  195SOL     OW  614   0.859   0.956   0.861
  195SOL    HW1  615   0.913   0.887   0.909
  195SOL    HW2  616   0.827   1.025   0.927
  196SOL     OW  617   1.083   0.984   0.087
  196SOL    HW1  618   1.060   1.037   0.005
  196SOL    HW2  619   1.164   0.928   0.068
  197SOL     OW  620   1.861   1.569   0.851
  197SOL    HW1  621   1.790   1.557   0.781
  197SOL    HW2  622   1.862   1.490   0.911
  198SOL     OW  623   0.221   1.314   1.844
  198SOL    HW1  624   0.156   1.241   1.823
  198SOL    HW2  625   0.225   1.328   1.942
  199SOL     OW  626   0.079   1.240   0.653
  199SOL    HW1  627   0.078   1.193   0.741
  199SOL    HW2  628   0.161   1.212   0.602
  200SOL     OW  629   0.672   1.391   1.624
  200SOL    HW1  630   0.594   1.341   1.662
  200SOL    HW2  631   0.669   1.486   1.655
  201SOL     OW  632   1.824   0.192   1.227
  201SOL    HW1  633   1.820   0.102   1.271
  201SOL    HW2  634   1.827   0.181   1.128
  202SOL     OW  635   0.428   0.424   0.520
  202SOL    HW1  636   0.458   0.352   0.458
  202SOL    HW2  637   0.389   0.384   0.603
  203SOL     OW  638   1.705   1.487   1.104
  203SOL    HW1  639   1.612   1.462   1.077
  203SOL    HW2  640   1.731   1.437   1.186
  204SOL     OW  641   0.317   0.547   1.280
  204SOL    HW1  642   0.355   0.488   1.352
  204SOL    HW2  643   0.357   0.521   1.192
  205SOL     OW  644   0.812   1.586   0.687
  205SOL    HW1  645   0.844   1.596   0.593
  205SOL    HW2  646   0.733   1.524   0.689
  206SOL     OW  647   1.424   0.214   1.112
  206SOL    HW1  648   1.476   0.149   1.167
  206SOL    HW2  649   1.375   0.277   1.173
  207SOL     OW  650   1.001   0.034   1.154
  207SOL    HW1  651   0.938  -0.038   1.123
  207SOL    HW2  652   1.094  -0.002   1.154
  208SOL     OW  653   0.770   1.330   0.301
  208SOL    HW1  654   0.724   1.243   0.318
  208SOL    HW2  655   0.861   1.327   0.342
  209SOL     OW  656   0.618   1.567   1.284
  209SOL    HW1  657   0.613   1.649   1.341
  209SOL    HW2  658   0.707   1.564   1.239
  210SOL     OW  659   1.352   0.052   0.168
  210SOL    HW1  660   1.387   0.011   0.084
  210SOL    HW2  661   1.262   0.014   0.188
  211SOL     OW  662   1.300   0.453   0.691
  211SOL    HW1  663   1.241   0.533   0.695
  211SOL    HW2  664   1.315   0.418   0.784
  212SOL     OW  665   1.593   0.221   0.882
  212SOL    HW1  666   1.509   0.220   0.936
  212SOL    HW2  667   1.595   0.304   0.826
  213SOL     OW  668   0.039   1.077   0.300
  213SOL    HW1  669   0.138   1.066   0.291
  213SOL    HW2  670  -0.001   0.991   0.332
  214SOL     OW  671   0.875   1.646   0.337
  214SOL    HW1  672   0.798   1.611   0.283
  214SOL    HW2  673   0.843   1.717   0.399
  215SOL     OW  674   0.230   0.628   1.975
  215SOL    HW1  675   0.137   0.626   2.012
  215SOL    HW2  676   0.231   0.589   1.883
  216SOL     OW  677   0.225   0.275   2.858
  216SOL    HW1  678   0.260   0.258   2.950
  216SOL    HW2  679   0.137   0.230   2.846
  217SOL     OW  680   0.019   0.368   2.509
  217SOL    HW1  681  -0.063   0.411   2.548
  217SOL    HW2  682  -0.009   0.295   2.446
  218SOL     OW  683   0.569   1.275   3.027
  218SOL    HW1  684   0.476   1.268   2.990
  218SOL    HW2  685   0.580   1.364   3.071
  219SOL     OW  686   1.555   1.511   2.565
  219SOL    HW1  687   1.498   1.495   2.646
  219SOL    HW2  688   1.496   1.521   2.485
  220SOL     OW  689   1.135   0.703   2.579
  220SOL    HW1  690   1.192   0.781   2.554
  220SOL    HW2  691   1.075   0.729   2.655
  221SOL     OW  692   1.755   0.607   2.093
  221SOL    HW1  693   1.743   0.594   1.994
  221SOL    HW2  694   1.725   0.526   2.142
  222SOL     OW  695   0.768   1.144   2.885
  222SOL    HW1  696   0.690   1.161   2.945
  222SOL    HW2  697   0.802   1.231   2.849
  223SOL     OW  698   0.850   0.798   3.685
  223SOL    HW1  699   0.846   0.874   3.750
  223SOL    HW2  700   0.872   0.834   3.594
  224SOL     OW  701   0.685   1.012   2.527
  224SOL    HW1  702   0.754   0.996   2.597
  224SOL    HW2  703   0.612   1.069   2.565
  225SOL     OW  704   0.686   1.161   3.665
  225SOL    HW1  705   0.746   1.240   3.679
  225SOL    HW2  706   0.600   1.192   3.624
  226SOL     OW  707   0.335   1.435   2.923
  226SOL    HW1  708   0.257   1.404   2.870
  226SOL    HW2  709   0.393   1.493   2.866
  227SOL     OW  710   1.460   1.505   3.201
  227SOL    HW1  711   1.484   1.599   3.227
  227SOL    HW2  712   1.444   1.451   3.283
  228SOL     OW  713   0.438   0.392   3.361
  228SOL    HW1  714   0.520   0.336   3.370
  228SOL    HW2  715   0.357   0.334   3.365
  229SOL     OW  716   1.603   0.447   2.599
  229SOL    HW1  717   1.529   0.493   2.549
  229SOL    HW2  718   1.654   0.515   2.652
  230SOL     OW  719   0.231   1.713   2.345
  230SOL    HW1  720   0.265   1.790   2.399
  230SOL    HW2  721   0.275   1.713   2.255
  231SOL     OW  722   1.127   1.341   3.552
  231SOL    HW1  723   1.174   1.341   3.640
  231SOL    HW2  724   1.079   1.254   3.541
  232SOL     OW  725   0.230   1.434   2.400
  232SOL    HW1  726   0.204   1.530   2.400
  232SOL    HW2  727   0.159   1.380   2.445
  233SOL     OW  728   0.240   1.091   2.748
  233SOL    HW1  729   0.254   1.007   2.800
  233SOL    HW2  730   0.185   1.155   2.803
  234SOL     OW  731   0.620   1.786   3.301
  234SOL    HW1  732   0.528   1.769   3.336
  234SOL    HW2  733   0.648   1.878   3.327
  235SOL     OW  734   0.606   0.964   1.985
  235SOL    HW1  735   0.613   1.048   1.931
  235SOL    HW2  736   0.652   0.977   2.073
  236SOL     OW  737   1.594   0.114   3.342
  236SOL    HW1  738   1.576   0.181   3.270
  236SOL    HW2  739   1.591   0.160   3.431
  237SOL     OW  740   0.122   0.643   2.425
  237SOL    HW1  741   0.077   0.555   2.442
  237SOL    HW2  742   0.121   0.697   2.509
  238SOL     OW  743   1.842   1.767   2.221
  238SOL    HW1  744   1.896   1.738   2.301
  238SOL    HW2  745   1.872   1.857   2.192
  239SOL     OW  746   0.027   1.596   1.979
  239SOL    HW1  747   0.008   1.500   2.000
  239SOL    HW2  748  -0.006   1.654   2.054
  240SOL     OW  749   1.689   0.922   2.474
  240SOL    HW1  750   1.784   0.893   2.482
  240SOL    HW2  751   1.681   0.987   2.399
  241SOL     OW  752   1.641   1.108   2.294
  241SOL    HW1  753   1.727   1.110   2.242
  241SOL    HW2  754   1.655   1.155   2.382
  242SOL     OW  755   0.113   0.737   3.459
  242SOL    HW1  756   0.201   0.724   3.504
  242SOL    HW2  757   0.100   0.834   3.437
  243SOL     OW  758   0.613   1.365   2.588
  243SOL    HW1  759   0.564   1.278   2.597
  243SOL    HW2  760   0.590   1.408   2.501
  244SOL     OW  761   1.293   1.228   3.285
  244SOL    HW1  762   1.330   1.155   3.227
  244SOL    HW2  763   1.345   1.233   3.370
  245SOL     OW  764   0.809   0.004   2.364
  245SOL    HW1  765   0.849   0.095   2.355
  245SOL    HW2  766   0.709   0.012   2.370
  246SOL     OW  767   0.197   0.976   3.126
  246SOL    HW1  768   0.286   0.931   3.112
  246SOL    HW2  769   0.124   0.911   3.107
  247SOL     OW  770   1.525   0.999   2.052
  247SOL    HW1  771   1.462   0.923   2.065
  247SOL    HW2  772   1.573   1.017   2.138
  248SOL     OW  773   1.187   1.792   3.478
  248SOL    HW1  774   1.211   1.852   3.402
  248SOL    HW2  775   1.194   1.697   3.448
  249SOL     OW  776   0.317   0.251   3.663
  249SOL    HW1  777   0.388   0.322   3.669
  249SOL    HW2  778   0.229   0.290   3.691
  250SOL     OW  779   1.466   1.417   2.815
  250SOL    HW1  780   1.407   1.423   2.895
  250SOL    HW2  781   1.451   1.329   2.769
  251SOL     OW  782   1.667   1.714   2.434
  251SOL    HW1  783   1.626   1.691   2.346
  251SOL    HW2  784   1.649   1.640   2.499
  252SOL     OW  785   0.598   0.729   2.132
  252SOL    HW1  786   0.622   0.798   2.064
  252SOL    HW2  787   0.520   0.762   2.186
  253SOL     OW  788   1.281   0.345   2.806
  253SOL    HW1  789   1.195   0.295   2.793
  253SOL    HW2  790   1.343   0.291   2.862
  254SOL     OW  791   1.576   1.662   2.169
  254SOL    HW1  792   1.665   1.708   2.172
  254SOL    HW2  793   1.555   1.638   2.074
  255SOL     OW  794   0.807   0.605   3.327
  255SOL    HW1  795   0.760   0.602   3.416
  255SOL    HW2  796   0.756   0.550   3.261
  256SOL     OW  797   1.394   0.469   3.536
  256SOL    HW1  798   1.374   0.512   3.624
  256SOL    HW2  799   1.472   0.407   3.545
  257SOL     OW  800   0.973   0.890   3.434
  257SOL    HW1  801   1.019   0.806   3.405
  257SOL    HW2  802   0.917   0.924   3.359
  258SOL     OW  803   0.991   0.410   3.104
  258SOL    HW1  804   0.914   0.444   3.158
  258SOL    HW2  805   0.957   0.359   3.025
  259SOL     OW  806   1.041   0.701   2.291
  259SOL    HW1  807   1.067   0.697   2.387
  259SOL    HW2  808   0.956   0.650   2.277
  260SOL     OW  809   0.076   0.811   2.651
  260SOL    HW1  810   0.175   0.799   2.660
  260SOL    HW2  811   0.052   0.906   2.672
  261SOL     OW  812   0.130   1.821   3.433
  261SOL    HW1  813   0.120   1.806   3.532
  261SOL    HW2  814   0.044   1.857   3.397
  262SOL     OW  815   0.865   0.348   2.057
  262SOL    HW1  816   0.924   0.411   2.008
  262SOL    HW2  817   0.884   0.254   2.028
  263SOL     OW  818   1.719   0.585   3.693
  263SOL    HW1  819   1.693   0.674   3.657
  263SOL    HW2  820   1.717   0.517   3.620
  264SOL     OW  821   1.362   1.144   2.407
  264SOL    HW1  822   1.445   1.115   2.359
  264SOL    HW2  823   1.313   1.211   2.351
  265SOL     OW  824   0.550   0.196   2.747
  265SOL    HW1  825   0.545   0.191   2.847
  265SOL    HW2  826   0.552   0.292   2.718
  266SOL     OW  827   1.008   1.456   2.339
  266SOL    HW1  828   0.962   1.528   2.287
  266SOL    HW2  829   1.004   1.476   2.437
  267SOL     OW  830   0.351   1.801   2.715
  267SOL    HW1  831   0.401   1.715   2.721
  267SOL    HW2  832   0.416   1.878   2.712
  268SOL     OW  833   1.795   1.066   2.735
  268SOL    HW1  834   1.733   1.051   2.659
  268SOL    HW2  835   1.743   1.077   2.820
  269SOL     OW  836   1.227   1.550   3.368
  269SOL    HW1  837   1.233   1.473   3.432
  269SOL    HW2  838   1.175   1.524   3.288
  270SOL     OW  839   0.321   0.943   2.104
  270SOL    HW1  840   0.403   0.982   2.062
  270SOL    HW2  841   0.294   0.861   2.055
  271SOL     OW  842   1.458   0.735   2.590
  271SOL    HW1  843   1.453   0.670   2.665
  271SOL    HW2  844   1.538   0.794   2.603
  272SOL     OW  845   0.461   1.266   3.589
  272SOL    HW1  846   0.411   1.267   3.503
  272SOL    HW2  847   0.398   1.248   3.665
  273SOL     OW  848   1.111   1.776   2.099
  273SOL    HW1  849   1.051   1.714   2.149
  273SOL    HW2  850   1.142   1.732   2.014
  274SOL     OW  851   0.202   0.285   3.360
  274SOL    HW1  852   0.122   0.345   3.347
  274SOL    HW2  853   0.192   0.236   3.446
  275SOL     OW  854   1.632   1.377   1.943
  275SOL    HW1  855   1.600   1.471   1.933
  275SOL    HW2  856   1.556   1.314   1.931
  276SOL     OW  857   0.464   1.743   2.185
  276SOL    HW1  858   0.497   1.782   2.271
  276SOL    HW2  859   0.540   1.736   2.120
  277SOL     OW  860   1.400   0.107   2.288
  277SOL    HW1  861   1.376   0.070   2.198
  277SOL    HW2  862   1.499   0.123   2.292
  278SOL     OW  863   0.249   1.785   3.103
  278SOL    HW1  864   0.306   1.720   3.153
  278SOL    HW2  865   0.233   1.752   3.010
  279SOL     OW  866   0.940   1.698   2.766
  279SOL    HW1  867   1.020   1.641   2.787
  279SOL    HW2  868   0.891   1.658   2.689
  280SOL     OW  869   0.382   0.700   2.342
  280SOL    HW1  870   0.427   0.610   2.339
  280SOL    HW2  871   0.288   0.689   2.375
  281SOL     OW  872   1.547   0.222   3.591
  281SOL    HW1  873   1.542   0.259   3.683
  281SOL    HW2  874   1.475   0.153   3.579
  282SOL     OW  875   0.614   0.122   1.979
  282SOL    HW1  876   0.712   0.100   1.986
  282SOL    HW2  877   0.583   0.105   1.886
  283SOL     OW  878   0.781   0.264   3.611
  283SOL    HW1  879   0.848   0.203   3.654
  283SOL    HW2  880   0.708   0.283   3.676
  284SOL     OW  881   0.888   1.514   3.057
  284SOL    HW1  882   0.865   1.489   2.963
  284SOL    HW2  883   0.949   1.445   3.096
  285SOL     OW  884   1.351   0.590   3.295
  285SOL    HW1  885   1.379   0.547   3.380
  285SOL    HW2  886   1.376   0.686   3.296
  286SOL     OW  887   0.803   1.402   2.786
  286SOL    HW1  888   0.893   1.416   2.744
  286SOL    HW2  889   0.732   1.404   2.715
  287SOL     OW  890   0.922   0.503   2.761
  287SOL    HW1  891   0.897   0.494   2.665
  287SOL    HW2  892   0.970   0.421   2.792
  288SOL     OW  893   0.539   0.064   2.374
  288SOL    HW1  894   0.458   0.065   2.432
  288SOL    HW2  895   0.542   0.147   2.319
  289SOL     OW  896   1.434   1.188   1.903
  289SOL    HW1  897   1.466   1.112   1.960
  289SOL    HW2  898   1.342   1.215   1.933
  290SOL     OW  899   0.297   0.035   2.033
  290SOL    HW1  900   0.346   0.119   2.012
  290SOL    HW2  901   0.359  -0.030   2.078
  291SOL     OW  902   0.935   0.236   2.342
  291SOL    HW1  903   0.887   0.277   2.264
  291SOL    HW2  904   1.034   0.234   2.323
  292SOL     OW  905   1.076   0.683   3.326
  292SOL    HW1  906   0.996   0.622   3.329
  292SOL    HW2  907   1.157   0.630   3.302
  293SOL     OW  908   1.227   1.570   2.655
  293SOL    HW1  909   1.248   1.644   2.590
  293SOL    HW2  910   1.295   1.570   2.728
  294SOL     OW  911   0.459   1.152   2.603
  294SOL    HW1  912   0.388   1.125   2.668
  294SOL    HW2  913   0.433   1.124   2.510
  295SOL     OW  914   1.271   1.797   2.453
  295SOL    HW1  915   1.315   1.861   2.389
  295SOL    HW2  916   1.221   1.849   2.523
  296SOL     OW  917   1.032   0.549   1.878
  296SOL    HW1  918   0.991   0.631   1.839
  296SOL    HW2  919   1.096   0.575   1.951
  297SOL     OW  920   0.078   0.556   3.248
  297SOL    HW1  921   0.170   0.555   3.207
  297SOL    HW2  922   0.072   0.630   3.315
  298SOL     OW  923   0.561   0.222   3.009
  298SOL    HW1  924   0.599   0.138   3.046
  298SOL    HW2  925   0.473   0.241   3.053
  299SOL     OW  926   0.866   0.454   2.504
  299SOL    HW1  927   0.834   0.526   2.442
  299SOL    HW2  928   0.890   0.373   2.451
  300SOL     OW  929   1.017   0.039   2.615
  300SOL    HW1  930   0.945   0.044   2.546
  300SOL    HW2  931   0.993  -0.030   2.684
  301SOL     OW  932   1.429   1.173   2.729
  301SOL    HW1  933   1.374   1.089   2.722
  301SOL    HW2  934   1.455   1.202   2.637
  302SOL     OW  935   1.466   0.590   2.854
  302SOL    HW1  936   1.436   0.495   2.861
  302SOL    HW2  937   1.539   0.606   2.920
  303SOL     OW  938   1.857   0.833   2.239
  303SOL    HW1  939   1.899   0.769   2.303
  303SOL    HW2  940   1.819   0.782   2.161
  304SOL     OW  941   0.488   1.385   2.036
  304SOL    HW1  942   0.401   1.370   2.083
  304SOL    HW2  943   0.471   1.411   1.941
  305SOL     OW  944   1.664   1.280   2.519
  305SOL    HW1  945   1.763   1.288   2.533
  305SOL    HW2  946   1.619   1.364   2.550
  306SOL     OW  947   1.390   0.575   1.940
  306SOL    HW1  948   1.336   0.554   2.021
  306SOL    HW2  949   1.481   0.534   1.949
  307SOL     OW  950   0.527   0.256   2.190
  307SOL    HW1  951   0.554   0.197   2.115
  307SOL    HW2  952   0.527   0.351   2.159
  308SOL     OW  953   1.754   1.223   3.450
  308SOL    HW1  954   1.845   1.184   3.437
  308SOL    HW2  955   1.762   1.319   3.474
  309SOL     OW  956   1.064   1.347   3.202
  309SOL    HW1  957   0.984   1.324   3.257
  309SOL    HW2  958   1.147   1.321   3.251
  310SOL     OW  959   1.592   1.629   3.487
  310SOL    HW1  960   1.619   1.663   3.397
  310SOL    HW2  961   1.671   1.591   3.533
  311SOL     OW  962   1.111   1.195   2.962
  311SOL    HW1  963   1.071   1.239   3.043
  311SOL    HW2  964   1.070   1.232   2.879
  312SOL     OW  965   1.638   1.099   2.941
  312SOL    HW1  966   1.643   1.180   3.000
  312SOL    HW2  967   1.552   1.101   2.890
  313SOL     OW  968   0.915   0.089   3.264
  313SOL    HW1  969   0.940   0.069   3.169
  313SOL    HW2  970   0.987   0.145   3.306
  314SOL     OW  971   0.980   1.116   3.581
  314SOL    HW1  972   0.881   1.122   3.591
  314SOL    HW2  973   1.003   1.036   3.525
  315SOL     OW  974   0.705   1.050   2.230
  315SOL    HW1  975   0.691   1.057   2.329
  315SOL    HW2  976   0.789   0.999   2.212
  316SOL     OW  977   0.410   0.813   3.113
  316SOL    HW1  978   0.496   0.825   3.163
  316SOL    HW2  979   0.368   0.726   3.140
  317SOL     OW  980   1.274   0.386   3.124
  317SOL    HW1  981   1.295   0.460   3.188
  317SOL    HW2  982   1.185   0.403   3.081
  318SOL     OW  983   0.064   1.564   3.193
  318SOL    HW1  984   0.018   1.646   3.159
  318SOL    HW2  985   0.162   1.583   3.202
  319SOL     OW  986   0.367   1.100   2.363
  319SOL    HW1  987   0.360   1.183   2.307
  319SOL    HW2  988   0.371   1.020   2.303
  320SOL     OW  989   0.566   0.537   2.727
  320SOL    HW1  990   0.578   0.603   2.653
  320SOL    HW2  991   0.612   0.571   2.810
  321SOL     OW  992   1.252   1.348   2.250
  321SOL    HW1  993   1.302   1.425   2.290
  321SOL    HW2  994   1.157   1.350   2.282
  322SOL     OW  995   1.272   1.445   3.004
  322SOL    HW1  996   1.319   1.458   3.091
  322SOL    HW2  997   1.206   1.371   3.013
  323SOL     OW  998   1.582   0.639   2.334
  323SOL    HW1  999   1.551   0.700   2.407
  323SOL    HW2 1000   1.632   0.691   2.265
  324SOL     OW 1001   0.354   1.510   3.191
  324SOL    HW1 1002   0.333   1.466   3.104
  324SOL    HW2 1003   0.451   1.536   3.194
  325SOL     OW 1004   0.402   0.751   3.460
  325SOL    HW1 1005   0.470   0.806   3.413
  325SOL    HW2 1006   0.442   0.663   3.487
  326SOL     OW 1007   1.587   0.779   3.532
  326SOL    HW1 1008   1.495   0.817   3.527
  326SOL    HW2 1009   1.647   0.826   3.467
  327SOL     OW 1010   1.013   0.105   3.632
  327SOL    HW1 1011   1.019   0.190   3.580
  327SOL    HW2 1012   1.045   0.029   3.575
  328SOL     OW 1013   0.504   0.050   3.602
  328SOL    HW1 1014   0.462  -0.007   3.532
  328SOL    HW2 1015   0.438   0.119   3.634
  329SOL     OW 1016   0.573   0.870   2.891
  329SOL    HW1 1017   0.617   0.959   2.882
  329SOL    HW2 1018   0.510   0.870   2.968
  330SOL     OW 1019   1.360   0.862   2.907
  330SOL    HW1 1020   1.285   0.862   2.841
  330SOL    HW2 1021   1.397   0.770   2.916
  331SOL     OW 1022   1.209   0.525   2.137
  331SOL    HW1 1023   1.222   0.441   2.191
  331SOL    HW2 1024   1.180   0.599   2.197
  332SOL     OW 1025   0.307   0.213   3.093
  332SOL    HW1 1026   0.284   0.250   3.183
  332SOL    HW2 1027   0.277   0.118   3.087
  333SOL     OW 1028   0.037   1.310   3.144
  333SOL    HW1 1029   0.090   1.261   3.212
  333SOL    HW2 1030   0.059   1.408   3.149
  334SOL     OW 1031   0.732   0.634   2.926
  334SOL    HW1 1032   0.791   0.608   2.850
  334SOL    HW2 1033   0.704   0.730   2.915
  335SOL     OW 1034   1.728   0.935   3.716
  335SOL    HW1 1035   1.682   0.928   3.627
  335SOL    HW2 1036   1.666   0.979   3.782
  336SOL     OW 1037   0.307   0.063   2.480
  336SOL    HW1 1038   0.296   0.157   2.513
  336SOL    HW2 1039   0.302   0.000   2.557
  337SOL     OW 1040   1.622   0.367   2.236
  337SOL    HW1 1041   1.624   0.291   2.300
  337SOL    HW2 1042   1.574   0.444   2.276
  338SOL     OW 1043   1.023   0.766   2.828
  338SOL    HW1 1044   1.038   0.787   2.924
  338SOL    HW2 1045   0.993   0.671   2.819
  339SOL     OW 1046   0.980   1.573   3.562
  339SOL    HW1 1047   0.960   1.617   3.474
  339SOL    HW2 1048   1.019   1.482   3.546
  340SOL     OW 1049   1.859   1.518   3.467
  340SOL    HW1 1050   1.873   1.545   3.372
  340SOL    HW2 1051   1.942   1.540   3.520
  341SOL     OW 1052   0.350   0.898   3.666
  341SOL    HW1 1053   0.426   0.942   3.714
  341SOL    HW2 1054   0.385   0.851   3.584
  342SOL     OW 1055   1.540   0.274   1.987
  342SOL    HW1 1056   1.479   0.199   2.010
  342SOL    HW2 1057   1.562   0.326   2.070
  343SOL     OW 1058   1.303   0.838   1.904
  343SOL    HW1 1059   1.337   0.745   1.919
  343SOL    HW2 1060   1.321   0.865   1.809
  344SOL     OW 1061   1.068   1.333   2.711
  344SOL    HW1 1062   1.075   1.249   2.656
  344SOL    HW2 1063   1.130   1.402   2.675
  345SOL     OW 1064   0.319   0.810   2.811
  345SOL    HW1 1065   0.412   0.846   2.816
  345SOL    HW2 1066   0.313   0.725   2.863
  346SOL     OW 1067   0.339   0.509   2.868
  346SOL    HW1 1068   0.287   0.426   2.851
  346SOL    HW2 1069   0.416   0.514   2.804
  347SOL     OW 1070   1.138   0.380   3.540
  347SOL    HW1 1071   1.093   0.443   3.604
  347SOL    HW2 1072   1.231   0.411   3.523
  348SOL     OW 1073   1.160   0.207   3.339
  348SOL    HW1 1074   1.160   0.271   3.416
  348SOL    HW2 1075   1.188   0.255   3.256
  349SOL     OW 1076   0.008   1.326   2.062
  349SOL    HW1 1077  -0.085   1.347   2.031
  349SOL    HW2 1078   0.018   1.227   2.075
  350SOL     OW 1079   0.088   1.801   2.789
  350SOL    HW1 1080   0.046   1.715   2.762
  350SOL    HW2 1081   0.182   1.804   2.755
  351SOL     OW 1082   0.504   1.568   2.772
  351SOL    HW1 1083   0.570   1.642   2.781
  351SOL    HW2 1084   0.548   1.489   2.730
  352SOL     OW 1085   1.002   0.796   3.100
  352SOL    HW1 1086   1.043   0.764   3.186
  352SOL    HW2 1087   0.906   0.769   3.097
  353SOL     OW 1088   0.040   0.544   2.976
  353SOL    HW1 1089   0.125   0.511   2.935
  353SOL    HW2 1090   0.053   0.559   3.074
  354SOL     OW 1091   0.189   0.520   3.584
  354SOL    HW1 1092   0.248   0.480   3.514
  354SOL    HW2 1093   0.131   0.591   3.543
  355SOL     OW 1094   1.369   0.950   3.522
  355SOL    HW1 1095   1.408   1.039   3.542
  355SOL    HW2 1096   1.379   0.930   3.425
  356SOL     OW 1097   0.815   0.572   2.187
  356SOL    HW1 1098   0.822   0.483   2.141
  356SOL    HW2 1099   0.721   0.606   2.179
  357SOL     OW 1100   1.657   0.604   3.068
  357SOL    HW1 1101   1.619   0.535   3.130
  357SOL    HW2 1102   1.739   0.568   3.024
  358SOL     OW 1103   0.252   1.564   3.606
  358SOL    HW1 1104   0.222   1.621   3.682
  358SOL    HW2 1105   0.245   1.467   3.632
  359SOL     OW 1106   0.671   0.464   3.131
  359SOL    HW1 1107   0.637   0.375   3.101
  359SOL    HW2 1108   0.697   0.518   3.051
  360SOL     OW 1109   0.930   1.678   3.327
  360SOL    HW1 1110   0.906   1.660   3.232
  360SOL    HW2 1111   0.960   1.772   3.337
  361SOL     OW 1112   0.473   0.500   2.053
  361SOL    HW1 1113   0.534   0.580   2.057
  361SOL    HW2 1114   0.378   0.531   2.060
  362SOL     OW 1115   0.159   1.137   3.328
  362SOL    HW1 1116   0.181   1.076   3.404
  362SOL    HW2 1117   0.169   1.088   3.242
  363SOL     OW 1118   1.347   1.059   3.096
  363SOL    HW1 1119   1.371   0.996   3.022
  363SOL    HW2 1120   1.257   1.099   3.078
  364SOL     OW 1121   1.302   0.855   2.171
  364SOL    HW1 1122   1.216   0.824   2.213
  364SOL    HW2 1123   1.298   0.841   2.072
  365SOL     OW 1124   1.759   1.747   3.016
  365SOL    HW1 1125   1.820   1.777   2.943
  365SOL    HW2 1126   1.721   1.658   2.994
  366SOL     OW 1127   1.252   1.731   2.990
  366SOL    HW1 1128   1.336   1.736   2.936
  366SOL    HW2 1129   1.229   1.635   3.008
  367SOL     OW 1130   0.083   1.258   2.884
  367SOL    HW1 1131   0.078   1.257   2.984
  367SOL    HW2 1132   0.000   1.217   2.846
  368SOL     OW 1133   0.688   1.662   3.578
  368SOL    HW1 1134   0.632   1.743   3.587
  368SOL    HW2 1135   0.740   1.666   3.492
  369SOL     OW 1136   1.726   0.135   2.385
  369SOL    HW1 1137   1.799   0.118   2.318
  369SOL    HW2 1138   1.695   0.048   2.423
  370SOL     OW 1139   1.388   1.573   2.339
  370SOL    HW1 1140   1.455   1.585   2.265
  370SOL    HW2 1141   1.348   1.662   2.362
  371SOL     OW 1142   0.130   1.794   3.713
  371SOL    HW1 1143   0.089   1.720   3.766
  371SOL    HW2 1144   0.194   1.845   3.771
  372SOL     OW 1145   1.280   0.927   2.534
  372SOL    HW1 1146   1.340   0.846   2.536
  372SOL    HW2 1147   1.320   0.996   2.474
  373SOL     OW 1148   0.830   1.273   3.284
  373SOL    HW1 1149   0.825   1.306   3.379
  373SOL    HW2 1150   0.744   1.292   3.238
  374SOL     OW 1151   0.672   1.616   2.016
  374SOL    HW1 1152   0.681   1.626   1.917
  374SOL    HW2 1153   0.632   1.527   2.037
  375SOL     OW 1154   1.650   1.720   3.256
  375SOL    HW1 1155   1.703   1.730   3.172
  375SOL    HW2 1156   1.623   1.810   3.290
  376SOL     OW 1157   1.841   0.175   2.825
  376SOL    HW1 1158   1.880   0.090   2.789
  376SOL    HW2 1159   1.743   0.177   2.806
  377SOL     OW 1160   0.263   0.326   2.582
  377SOL    HW1 1161   0.184   0.377   2.548
  377SOL    HW2 1162   0.254   0.311   2.680
  378SOL     OW 1163   1.194   1.612   1.893
  378SOL    HW1 1164   1.200   1.519   1.930
  378SOL    HW2 1165   1.135   1.612   1.813
  379SOL     OW 1166   0.822   1.002   3.234
  379SOL    HW1 1167   0.862   1.001   3.142
  379SOL    HW2 1168   0.832   1.094   3.274
  380SOL     OW 1169   0.916   0.910   2.153
  380SOL    HW1 1170   0.979   0.948   2.085
  380SOL    HW2 1171   0.956   0.827   2.192
  381SOL     OW 1172   1.504   1.607   1.906
  381SOL    HW1 1173   1.412   1.644   1.913
  381SOL    HW2 1174   1.542   1.627   1.816
  382SOL     OW 1175   0.372   1.288   3.352
  382SOL    HW1 1176   0.359   1.381   3.318
  382SOL    HW2 1177   0.288   1.236   3.339
  383SOL     OW 1178   1.614   1.292   3.151
  383SOL    HW1 1179   1.674   1.295   3.231
  383SOL    HW2 1180   1.539   1.356   3.164
  384SOL     OW 1181   1.039   1.098   2.558
  384SOL    HW1 1182   0.969   1.051   2.612
  384SOL    HW2 1183   1.098   1.030   2.515
  385SOL     OW 1184   1.014   0.236   2.833
  385SOL    HW1 1185   1.006   0.200   2.740
  385SOL    HW2 1186   1.012   0.160   2.898
  386SOL     OW 1187   0.590   1.487   2.353
  386SOL    HW1 1188   0.632   1.429   2.283
  386SOL    HW2 1189   0.546   1.566   2.309
  387SOL     OW 1190   1.709   0.385   3.243
  387SOL    HW1 1191   1.782   0.454   3.247
  387SOL    HW2 1192   1.737   0.310   3.184
  388SOL     OW 1193   0.255   1.348   2.152
  388SOL    HW1 1194   0.159   1.349   2.125
  388SOL    HW2 1195   0.267   1.401   2.236
  389SOL     OW 1196   0.105   1.013   3.588
  389SOL    HW1 1197   0.028   0.980   3.642
  389SOL    HW2 1198   0.190   0.983   3.630
  390SOL     OW 1199   0.672   0.203   3.351
  390SOL    HW1 1200   0.762   0.187   3.311
  390SOL    HW2 1201   0.680   0.208   3.450
  391SOL     OW 1202   0.075   0.345   1.895
  391SOL    HW1 1203  -0.017   0.317   1.866
  391SOL    HW2 1204   0.106   0.422   1.839
  392SOL     OW 1205   1.440   0.856   3.260
  392SOL    HW1 1206   1.383   0.908   3.197
  392SOL    HW2 1207   1.536   0.868   3.236
  393SOL     OW 1208   0.072   0.166   2.180
  393SOL    HW1 1209   0.055   0.249   2.126
  393SOL    HW2 1210   0.162   0.129   2.158
  394SOL     OW 1211   1.183   1.335   1.981
  394SOL    HW1 1212   1.084   1.324   1.983
  394SOL    HW2 1213   1.217   1.350   2.074
  395SOL     OW 1214   0.613   0.842   3.293
  395SOL    HW1 1215   0.669   0.923   3.276
  395SOL    HW2 1216   0.672   0.762   3.296
  396SOL     OW 1217   1.493   1.767   2.821
  396SOL    HW1 1218   1.526   1.831   2.752
  396SOL    HW2 1219   1.559   1.761   2.896
  397SOL     OW 1220   0.716   0.565   3.570
  397SOL    HW1 1221   0.735   0.630   3.644
  397SOL    HW2 1222   0.776   0.485   3.579
  398SOL     OW 1223   1.450   1.220   3.495
  398SOL    HW1 1224   1.441   1.210   3.594
  398SOL    HW2 1225   1.546   1.213   3.469
  399SOL     OW 1226   0.390   1.741   3.422
  399SOL    HW1 1227   0.299   1.782   3.420
  399SOL    HW2 1228   0.383   1.647   3.454
  400SOL     OW 1229   1.674   0.883   3.116
  400SOL    HW1 1230   1.647   0.794   3.079
  400SOL    HW2 1231   1.675   0.951   3.043
  401SOL     OW 1232   1.225   0.325   2.311
  401SOL    HW1 1233   1.290   0.251   2.300
  401SOL    HW2 1234   1.245   0.375   2.395
  402SOL     OW 1235   0.594   0.745   2.514
  402SOL    HW1 1236   0.644   0.830   2.495
  402SOL    HW2 1237   0.506   0.747   2.466
  403SOL     OW 1238   1.777   0.342   3.504
  403SOL    HW1 1239   1.760   0.373   3.410
  403SOL    HW2 1240   1.693   0.305   3.542
  404SOL     OW 1241   1.730   0.934   3.379
  404SOL    HW1 1242   1.768   1.025   3.394
  404SOL    HW2 1243   1.722   0.917   3.280
  405SOL     OW 1244   0.859   1.374   1.878
  405SOL    HW1 1245   0.813   1.389   1.966
  405SOL    HW2 1246   0.903   1.459   1.848
  406SOL     OW 1247   0.661   1.790   2.815
  406SOL    HW1 1248   0.615   1.878   2.802
  406SOL    HW2 1249   0.760   1.802   2.808
  407SOL     OW 1250   0.859   0.956   2.723
  407SOL    HW1 1251   0.913   0.887   2.771
  407SOL    HW2 1252   0.827   1.025   2.789
  408SOL     OW 1253   1.083   0.984   1.949
  408SOL    HW1 1254   1.060   1.037   1.867
  408SOL    HW2 1255   1.164   0.928   1.930
  409SOL     OW 1256   1.861   1.569   2.713
  409SOL    HW1 1257   1.790   1.557   2.643
  409SOL    HW2 1258   1.862   1.490   2.773
  410SOL     OW 1259   0.221   1.314   3.706
  410SOL    HW1 1260   0.156   1.241   3.685
  410SOL    HW2 1261   0.225   1.328   3.804
  411SOL     OW 1262   0.079   1.240   2.515
  411SOL    HW1 1263   0.078   1.193   2.603
  411SOL    HW2 1264   0.161   1.212   2.464
  412SOL     OW 1265   0.672   1.391   3.486
  412SOL    HW1 1266   0.594   1.341   3.524
  412SOL    HW2 1267   0.669   1.486   3.517
  413SOL     OW 1268   1.824   0.192   3.089
  413SOL    HW1 1269   1.820   0.102   3.133
  413SOL    HW2 1270   1.827   0.181   2.990
  414SOL     OW 1271   0.428   0.424   2.382
  414SOL    HW1 1272   0.458   0.352   2.320
  414SOL    HW2 1273   0.389   0.384   2.465
  415SOL     OW 1274   1.705   1.487   2.966
  415SOL    HW1 1275   1.612   1.462   2.939
  415SOL    HW2 1276   1.731   1.437   3.048
  416SOL     OW 1277   0.317   0.547   3.142
  416SOL    HW1 1278   0.355   0.488   3.214
  416SOL    HW2 1279   0.357   0.521   3.054
  417SOL     OW 1280   0.812   1.586   2.549
  417SOL    HW1 1281   0.844   1.596   2.455
  417SOL    HW2 1282   0.733   1.524   2.551
  418SOL     OW 1283   1.424   0.214   2.974
  418SOL    HW1 1284   1.476   0.149   3.029
  418SOL    HW2 1285   1.375   0.277   3.035
  419SOL     OW 1286   1.001   0.034   3.016
  419SOL    HW1 1287   0.938  -0.038   2.985
  419SOL    HW2 1288   1.094  -0.002   3.016
  420SOL     OW 1289   0.770   1.330   2.163
  420SOL    HW1 1290   0.724   1.243   2.180
  420SOL    HW2 1291   0.861   1.327   2.204
  421SOL     OW 1292   0.618   1.567   3.146
  421SOL    HW1 1293   0.613   1.649   3.203
  421SOL    HW2 1294   0.707   1.564   3.101
  422SOL     OW 1295   1.352   0.052   2.030
  422SOL    HW1 1296   1.387   0.011   1.946
  422SOL    HW2 1297   1.262   0.014   2.050
  423SOL     OW 1298   1.300   0.453   2.553
  423SOL    HW1 1299   1.241   0.533   2.557
  423SOL    HW2 1300   1.315   0.418   2.646
  424SOL     OW 1301   1.593   0.221   2.744
  424SOL    HW1 1302   1.509   0.220   2.798
  424SOL    HW2 1303   1.595   0.304   2.688
  425SOL     OW 1304   0.039   1.077   2.162
  425SOL    HW1 1305   0.138   1.066   2.153
  425SOL    HW2 1306  -0.001   0.991   2.194
  426SOL     OW 1307   0.875   1.646   2.199
  426SOL    HW1 1308   0.798   1.611   2.145
  426SOL    HW2 1309   0.843   1.717   2.261
  427SOL     OW 1310   0.230   0.628   3.837
  427SOL    HW1 1311   0.137   0.626   3.874
  427SOL    HW2 1312   0.231   0.589   3.745
  428SOL     OW 1313   0.225   0.275   4.720
  428SOL    HW1 1314   0.260   0.258   4.812
  428SOL    HW2 1315   0.137   0.230   4.708
  429SOL     OW 1316   0.019   0.368   4.371
  429SOL    HW1 1317  -0.063   0.411   4.410
  429SOL    HW2 1318  -0.009   0.295   4.308
  430SOL     OW 1319   0.569   1.275   4.889
  430SOL    HW1 1320   0.476   1.268   4.852
  430SOL    HW2 1321   0.580   1.364   4.933
  431SOL     OW 1322   1.555   1.511   4.427
  431SOL    HW1 1323   1.498   1.495   4.508
  431SOL    HW2 1324   1.496   1.521   4.347
  432SOL     OW 1325   1.135   0.703   4.441
  432SOL    HW1 1326   1.192   0.781   4.416
  432SOL    HW2 1327   1.075   0.729   4.517
  433SOL     OW 1328   1.755   0.607   3.955
  433SOL    HW1 1329   1.743   0.594   3.856
  433SOL    HW2 1330   1.725   0.526   4.004
  434SOL     OW 1331   0.768   1.144   4.747
  434SOL    HW1 1332   0.690   1.161   4.807
  434SOL    HW2 1333   0.802   1.231   4.711
  435SOL     OW 1334   0.685   1.012   4.389
  435SOL    HW1 1335   0.754   0.996   4.459
  435SOL    HW2 1336   0.612   1.069   4.427
  436SOL     OW 1337   0.335   1.435   4.785
  436SOL    HW1 1338   0.257   1.404   4.732
  436SOL    HW2 1339   0.393   1.493   4.728
  437SOL     OW 1340   0.438   0.392   5.223
  437SOL    HW1 1341   0.520   0.336   5.232
  437SOL    HW2 1342   0.357   0.334   5.227
  438SOL     OW 1343   1.603   0.447   4.461
  438SOL    HW1 1344   1.529   0.493   4.411
  438SOL    HW2 1345   1.654   0.515   4.514
  439SOL     OW 1346   0.231   1.713   4.207
  439SOL    HW1 1347   0.265   1.790   4.261
  439SOL    HW2 1348   0.275   1.713   4.117
  440SOL     OW 1349   0.230   1.434   4.262
  440SOL    HW1 1350   0.204   1.530   4.262
  440SOL    HW2 1351   0.159   1.380   4.307
  441SOL     OW 1352   0.240   1.091   4.610
  441SOL    HW1 1353   0.254   1.007   4.662
  441SOL    HW2 1354   0.185   1.155   4.665
  442SOL     OW 1355   0.620   1.786   5.163
  442SOL    HW1 1356   0.528   1.769   5.198
  442SOL    HW2 1357   0.648   1.878   5.189
  443SOL     OW 1358   0.606   0.964   3.847
  443SOL    HW1 1359   0.613   1.048   3.793
  443SOL    HW2 1360   0.652   0.977   3.935
  444SOL     OW 1361   0.122   0.643   4.287
  444SOL    HW1 1362   0.077   0.555   4.304
  444SOL    HW2 1363   0.121   0.697   4.371
  445SOL     OW 1364   1.842   1.767   4.083
  445SOL    HW1 1365   1.896   1.738   4.163
  445SOL    HW2 1366   1.872   1.857   4.054
  446SOL     OW 1367   0.027   1.596   3.841
  446SOL    HW1 1368   0.008   1.500   3.862
  446SOL    HW2 1369  -0.006   1.654   3.916
  447SOL     OW 1370   1.689   0.922   4.336
  447SOL    HW1 1371   1.784   0.893   4.344
  447SOL    HW2 1372   1.681   0.987   4.261
  448SOL     OW 1373   1.641   1.108   4.156
  448SOL    HW1 1374   1.727   1.110   4.104
  448SOL    HW2 1375   1.655   1.155   4.244
  449SOL     OW 1376   0.613   1.365   4.450
  449SOL    HW1 1377   0.564   1.278   4.459
  449SOL    HW2 1378   0.590   1.408   4.363
  450SOL     OW 1379   0.809   0.004   4.226
  450SOL    HW1 1380   0.849   0.095   4.217
  450SOL    HW2 1381   0.709   0.012   4.232
  451SOL     OW 1382   0.197   0.976   4.988
  451SOL    HW1 1383   0.286   0.931   4.974
  451SOL    HW2 1384   0.124   0.911   4.969
  452SOL     OW 1385   1.525   0.999   3.914
  452SOL    HW1 1386   1.462   0.923   3.927
  452SOL    HW2 1387   1.573   1.017   4.000
  453SOL     OW 1388   1.466   1.417   4.677
  453SOL    HW1 1389   1.407   1.423   4.757
  453SOL    HW2 1390   1.451   1.329   4.631
  454SOL     OW 1391   1.667   1.714   4.296
  454SOL    HW1 1392   1.626   1.691   4.208
  454SOL    HW2 1393   1.649   1.640   4.361
  455SOL     OW 1394   0.598   0.729   3.994
  455SOL    HW1 1395   0.622   0.798   3.926
  455SOL    HW2 1396   0.520   0.762   4.048
  456SOL     OW 1397   1.281   0.345   4.668
  456SOL    HW1 1398   1.195   0.295   4.655
  456SOL    HW2 1399   1.343   0.291   4.724
  457SOL     OW 1400   1.576   1.662   4.031
  457SOL    HW1 1401   1.665   1.708   4.034
  457SOL    HW2 1402   1.555   1.638   3.936
  458SOL     OW 1403   0.807   0.605   5.189
  458SOL    HW1 1404   0.760   0.602   5.278
  458SOL    HW2 1405   0.756   0.550   5.123
  459SOL     OW 1406   0.991   0.410   4.966
  459SOL    HW1 1407   0.914   0.444   5.020
  459SOL    HW2 1408   0.957   0.359   4.887
  460SOL     OW 1409   1.041   0.701   4.153
  460SOL    HW1 1410   1.067   0.697   4.249
  460SOL    HW2 1411   0.956   0.650   4.139
  461SOL     OW 1412   0.076   0.811   4.513
  461SOL    HW1 1413   0.175   0.799   4.522
  461SOL    HW2 1414   0.052   0.906   4.534
  462SOL     OW 1415   0.130   1.821   5.295
  462SOL    HW1 1416   0.120   1.806   5.394
  462SOL    HW2 1417   0.044   1.857   5.259
  463SOL     OW 1418   0.865   0.348   3.919
  463SOL    HW1 1419   0.924   0.411   3.870
  463SOL    HW2 1420   0.884   0.254   3.890
  464SOL     OW 1421   1.362   1.144   4.269
  464SOL    HW1 1422   1.445   1.115   4.221
  464SOL    HW2 1423   1.313   1.211   4.213
  465SOL     OW 1424   0.550   0.196   4.609
  465SOL    HW1 1425   0.545   0.191   4.709
  465SOL    HW2 1426   0.552   0.292   4.580
  466SOL     OW 1427   1.008   1.456   4.201
  466SOL    HW1 1428   0.962   1.528   4.149
  466SOL    HW2 1429   1.004   1.476   4.299
  467SOL     OW 1430   0.351   1.801   4.577
  467SOL    HW1 1431   0.401   1.715   4.583
  467SOL    HW2 1432   0.416   1.878   4.574
  468SOL     OW 1433   1.795   1.066   4.597
  468SOL    HW1 1434   1.733   1.051   4.521
  468SOL    HW2 1435   1.743   1.077   4.682
  469SOL     OW 1436   0.321   0.943   3.966
  469SOL    HW1 1437   0.403   0.982   3.924
  469SOL    HW2 1438   0.294   0.861   3.917
  470SOL     OW 1439   1.458   0.735   4.452
  470SOL    HW1 1440   1.453   0.670   4.527
  470SOL    HW2 1441   1.538   0.794   4.465
  471SOL     OW 1442   1.111   1.776   3.961
  471SOL    HW1 1443   1.051   1.714   4.011
  471SOL    HW2 1444   1.142   1.732   3.876
  472SOL     OW 1445   1.632   1.377   3.805
  472SOL    HW1 1446   1.600   1.471   3.795
  472SOL    HW2 1447   1.556   1.314   3.793
  473SOL     OW 1448   0.464   1.743   4.047
  473SOL    HW1 1449   0.497   1.782   4.133
  473SOL    HW2 1450   0.540   1.736   3.982
  474SOL     OW 1451   1.400   0.107   4.150
  474SOL    HW1 1452   1.376   0.070   4.060
  474SOL    HW2 1453   1.499   0.123   4.154
  475SOL     OW 1454   0.249   1.785   4.965
  475SOL    HW1 1455   0.306   1.720   5.015
  475SOL    HW2 1456   0.233   1.752   4.872
  476SOL     OW 1457   0.940   1.698   4.628
  476SOL    HW1 1458   1.020   1.641   4.649
  476SOL    HW2 1459   0.891   1.658   4.551
  477SOL     OW 1460   0.382   0.700   4.204
  477SOL    HW1 1461   0.427   0.610   4.201
  477SOL    HW2 1462   0.288   0.689   4.237
  478SOL     OW 1463   0.614   0.122   3.841
  478SOL    HW1 1464   0.712   0.100   3.848
  478SOL    HW2 1465   0.583   0.105   3.748
  479SOL     OW 1466   0.888   1.514   4.919
  479SOL    HW1 1467   0.865   1.489   4.825
  479SOL    HW2 1468   0.949   1.445   4.958
  480SOL     OW 1469   0.803   1.402   4.648
  480SOL    HW1 1470   0.893   1.416   4.606
  480SOL    HW2 1471   0.732   1.404   4.577
  481SOL     OW 1472   0.922   0.503   4.623
  481SOL    HW1 1473   0.897   0.494   4.527
  481SOL    HW2 1474   0.970   0.421   4.654
  482SOL     OW 1475   0.539   0.064   4.236
  482SOL    HW1 1476   0.458   0.065   4.294
  482SOL    HW2 1477   0.542   0.147   4.181
  483SOL     OW 1478   1.434   1.188   3.765
  483SOL    HW1 1479   1.466   1.112   3.822
  483SOL    HW2 1480   1.342   1.215   3.795
  484SOL     OW 1481   0.297   0.035   3.895
  484SOL    HW1 1482   0.346   0.119   3.874
  484SOL    HW2 1483   0.359  -0.030   3.940
  485SOL     OW 1484   0.935   0.236   4.204
  485SOL    HW1 1485   0.887   0.277   4.126
  485SOL    HW2 1486   1.034   0.234   4.185
  486SOL     OW 1487   1.227   1.570   4.517
  486SOL    HW1 1488   1.248   1.644   4.452
  486SOL    HW2 1489   1.295   1.570   4.590
  487SOL     OW 1490   0.459   1.152   4.465
  487SOL    HW1 1491   0.388   1.125   4.530
  487SOL    HW2 1492   0.433   1.124   4.372
  488SOL     OW 1493   1.271   1.797   4.315
  488SOL    HW1 1494   1.315   1.861   4.251
  488SOL    HW2 1495   1.221   1.849   4.385
  489SOL     OW 1496   1.032   0.549   3.740
  489SOL    HW1 1497   0.991   0.631   3.701
  489SOL    HW2 1498   1.096   0.575   3.813
  490SOL     OW 1499   0.561   0.222   4.871
  490SOL    HW1 1500   0.599   0.138   4.908
  490SOL    HW2 1501   0.473   0.241   4.915
  491SOL     OW 1502   0.866   0.454   4.366
  491SOL    HW1 1503   0.834   0.526   4.304
  491SOL    HW2 1504   0.890   0.373   4.313
  492SOL     OW 1505   1.017   0.039   4.477
  492SOL    HW1 1506   0.945   0.044   4.408
  492SOL    HW2 1507   0.993  -0.030   4.546
  493SOL     OW 1508   1.429   1.173   4.591
  493SOL    HW1 1509   1.374   1.089   4.584
  493SOL    HW2 1510   1.455   1.202   4.499
  494SOL     OW 1511   1.466   0.590   4.716
  494SOL    HW1 1512   1.436   0.495   4.723
  494SOL    HW2 1513   1.539   0.606   4.782
  495SOL     OW 1514   1.857   0.833   4.101
  495SOL    HW1 1515   1.899   0.769   4.165
  495SOL    HW2 1516   1.819   0.782   4.023
  496SOL     OW 1517   0.488   1.385   3.898
  496SOL    HW1 1518   0.401   1.370   3.945
  496SOL    HW2 1519   0.471   1.411   3.803
  497SOL     OW 1520   1.664   1.280   4.381
  497SOL    HW1 1521   1.763   1.288   4.395
  497SOL    HW2 1522   1.619   1.364   4.412
  498SOL     OW 1523   1.390   0.575   3.802
  498SOL    HW1 1524   1.336   0.554   3.883
  498SOL    HW2 1525   1.481   0.534   3.811
  499SOL     OW 1526   0.527   0.256   4.052
  499SOL    HW1 1527   0.554   0.197   3.977
  499SOL    HW2 1528   0.527   0.351   4.021
  500SOL     OW 1529   1.754   1.223   5.312
  500SOL    HW1 1530   1.845   1.184   5.299
  500SOL    HW2 1531   1.762   1.319   5.336
  501SOL     OW 1532   1.111   1.195   4.824
  501SOL    HW1 1533   1.071   1.239   4.905
  501SOL    HW2 1534   1.070   1.232   4.741
  502SOL     OW 1535   1.638   1.099   4.803
  502SOL    HW1 1536   1.643   1.180   4.862
  502SOL    HW2 1537   1.552   1.101   4.752
  503SOL     OW 1538   0.705   1.050   4.092
  503SOL    HW1 1539   0.691   1.057   4.191
  503SOL    HW2 1540   0.789   0.999   4.074
  504SOL     OW 1541   0.410   0.813   4.975
  504SOL    HW1 1542   0.496   0.825   5.025
  504SOL    HW2 1543   0.368   0.726   5.002
  505SOL     OW 1544   1.274   0.386   4.986
  505SOL    HW1 1545   1.295   0.460   5.050
  505SOL    HW2 1546   1.185   0.403   4.943
  506SOL     OW 1547   0.064   1.564   5.055
  506SOL    HW1 1548   0.018   1.646   5.021
  506SOL    HW2 1549   0.162   1.583   5.064
  507SOL     OW 1550   0.367   1.100   4.225
  507SOL    HW1 1551   0.360   1.183   4.169
  507SOL    HW2 1552   0.371   1.020   4.165
  508SOL     OW 1553   0.566   0.537   4.589
  508SOL    HW1 1554   0.578   0.603   4.515
  508SOL    HW2 1555   0.612   0.571   4.672
  509SOL     OW 1556   1.252   1.348   4.112
  509SOL    HW1 1557   1.302   1.425   4.152
  509SOL    HW2 1558   1.157   1.350   4.144
  510SOL     OW 1559   1.272   1.445   4.866
  510SOL    HW1 1560   1.319   1.458   4.953
  510SOL    HW2 1561   1.206   1.371   4.875
  511SOL     OW 1562   1.582   0.639   4.196
  511SOL    HW1 1563   1.551   0.700   4.269
  511SOL    HW2 1564   1.632   0.691   4.127
  512SOL     OW 1565   0.354   1.510   5.053
  512SOL    HW1 1566   0.333   1.466   4.966
  512SOL    HW2 1567   0.451   1.536   5.056
  513SOL     OW 1568   0.573   0.870   4.753
  513SOL    HW1 1569   0.617   0.959   4.744
  513SOL    HW2 1570   0.510   0.870   4.830
  514SOL     OW 1571   1.360   0.862   4.769
  514SOL    HW1 1572   1.285   0.862   4.703
  514SOL    HW2 1573   1.397   0.770   4.778
  515SOL     OW 1574   1.209   0.525   3.999
  515SOL    HW1 1575   1.222   0.441   4.053
  515SOL    HW2 1576   1.180   0.599   4.059
  516SOL     OW 1577   0.307   0.213   4.955
  516SOL    HW1 1578   0.284   0.250   5.045
  516SOL    HW2 1579   0.277   0.118   4.949
  517SOL     OW 1580   0.037   1.310   5.006
  517SOL    HW1 1581   0.090   1.261   5.074
  517SOL    HW2 1582   0.059   1.408   5.011
  518SOL     OW 1583   0.732   0.634   4.788
  518SOL    HW1 1584   0.791   0.608   4.712
  518SOL    HW2 1585   0.704   0.730   4.777
  519SOL     OW 1586   0.307   0.063   4.342
  519SOL    HW1 1587   0.296   0.157   4.375
  519SOL    HW2 1588   0.302   0.000   4.419
  520SOL     OW 1589   1.622   0.367   4.098
  520SOL    HW1 1590   1.624   0.291   4.162
  520SOL    HW2 1591   1.574   0.444   4.138
  521SOL     OW 1592   1.023   0.766   4.690
  521SOL    HW1 1593   1.038   0.787   4.786
  521SOL    HW2 1594   0.993   0.671   4.681
  522SOL     OW 1595   1.540   0.274   3.849
  522SOL    HW1 1596   1.479   0.199   3.872
  522SOL    HW2 1597   1.562   0.326   3.932
  523SOL     OW 1598   1.303   0.838   3.766
  523SOL    HW1 1599   1.337   0.745   3.781
  523SOL    HW2 1600   1.321   0.865   3.671
  524SOL     OW 1601   1.068   1.333   4.573
  524SOL    HW1 1602   1.075   1.249   4.518
  524SOL    HW2 1603   1.130   1.402   4.537
  525SOL     OW 1604   0.319   0.810   4.673
  525SOL    HW1 1605   0.412   0.846   4.678
  525SOL    HW2 1606   0.313   0.725   4.725
  526SOL     OW 1607   0.339   0.509   4.730
  526SOL    HW1 1608   0.287   0.426   4.713
  526SOL    HW2 1609   0.416   0.514   4.666
  527SOL     OW 1610   1.160   0.207   5.201
  527SOL    HW1 1611   1.160   0.271   5.278
  527SOL    HW2 1612   1.188   0.255   5.118
  528SOL     OW 1613   0.008   1.326   3.924
  528SOL    HW1 1614  -0.085   1.347   3.893
  528SOL    HW2 1615   0.018   1.227   3.937
  529SOL     OW 1616   0.088   1.801   4.651
  529SOL    HW1 1617   0.046   1.715   4.624
  529SOL    HW2 1618   0.182   1.804   4.617
  530SOL     OW 1619   0.504   1.568   4.634
  530SOL    HW1 1620   0.570   1.642   4.643
  530SOL    HW2 1621   0.548   1.489   4.592
  531SOL     OW 1622   1.002   0.796   4.962
  531SOL    HW1 1623   1.043   0.764   5.048
  531SOL    HW2 1624   0.906   0.769   4.959
  532SOL     OW 1625   0.040   0.544   4.838
  532SOL    HW1 1626   0.125   0.511   4.797
  532SOL    HW2 1627   0.053   0.559   4.936
  533SOL     OW 1628   0.815   0.572   4.049
  533SOL    HW1 1629   0.822   0.483   4.003
  533SOL    HW2 1630   0.721   0.606   4.041
  534SOL     OW 1631   1.657   0.604   4.930
  534SOL    HW1 1632   1.619   0.535   4.992
  534SOL    HW2 1633   1.739   0.568   4.886
  535SOL     OW 1634   0.671   0.464   4.993
  535SOL    HW1 1635   0.637   0.375   4.963
  535SOL    HW2 1636   0.697   0.518   4.913
  536SOL     OW 1637   0.930   1.678   5.189
  536SOL    HW1 1638   0.906   1.660   5.094
  536SOL    HW2 1639   0.960   1.772   5.199
  537SOL     OW 1640   0.473   0.500   3.915
  537SOL    HW1 1641   0.534   0.580   3.919
  537SOL    HW2 1642   0.378   0.531   3.922
  538SOL     OW 1643   0.159   1.137   5.190
  538SOL    HW1 1644   0.181   1.076   5.266
  538SOL    HW2 1645   0.169   1.088   5.104
  539SOL     OW 1646   1.347   1.059   4.958
  539SOL    HW1 1647   1.371   0.996   4.884
  539SOL    HW2 1648   1.257   1.099   4.940
  540SOL     OW 1649   1.302   0.855   4.033
  540SOL    HW1 1650   1.216   0.824   4.075
  540SOL    HW2 1651   1.298   0.841   3.934
  541SOL     OW 1652   1.759   1.747   4.878
  541SOL    HW1 1653   1.820   1.777   4.805
  541SOL    HW2 1654   1.721   1.658   4.856
  542SOL     OW 1655   1.252   1.731   4.852
  542SOL    HW1 1656   1.336   1.736   4.798
  542SOL    HW2 1657   1.229   1.635   4.870
  543SOL     OW 1658   0.083   1.258   4.746
  543SOL    HW1 1659   0.078   1.257   4.846
  543SOL    HW2 1660   0.000   1.217   4.708
  544SOL     OW 1661   1.726   0.135   4.247
  544SOL    HW1 1662   1.799   0.118   4.180
  544SOL    HW2 1663   1.695   0.048   4.285
  545SOL     OW 1664   1.388   1.573   4.201
  545SOL    HW1 1665   1.455   1.585   4.127
  545SOL    HW2 1666   1.348   1.662   4.224
  546SOL     OW 1667   1.280   0.927   4.396
  546SOL    HW1 1668   1.340   0.846   4.398
  546SOL    HW2 1669   1.320   0.996   4.336
  547SOL     OW 1670   0.672   1.616   3.878
  547SOL    HW1 1671   0.681   1.626   3.779
  547SOL    HW2 1672   0.632   1.527   3.899
  548SOL     OW 1673   1.841   0.175   4.687
  548SOL    HW1 1674   1.880   0.090   4.651
  548SOL    HW2 1675   1.743   0.177   4.668
  549SOL     OW 1676   0.263   0.326   4.444
  549SOL    HW1 1677   0.184   0.377   4.410
  549SOL    HW2 1678   0.254   0.311   4.542
  550SOL     OW 1679   1.194   1.612   3.755
  550SOL    HW1 1680   1.200   1.519   3.792
  550SOL    HW2 1681   1.135   1.612   3.675
  551SOL     OW 1682   0.822   1.002   5.096
  551SOL    HW1 1683   0.862   1.001   5.004
  551SOL    HW2 1684   0.832   1.094   5.136
  552SOL     OW 1685   0.916   0.910   4.015
  552SOL    HW1 1686   0.979   0.948   3.947
  552SOL    HW2 1687   0.956   0.827   4.054
  553SOL     OW 1688   1.504   1.607   3.768
  553SOL    HW1 1689   1.412   1.644   3.775
  553SOL    HW2 1690   1.542   1.627   3.678
  554SOL     OW 1691   1.614   1.292   5.013
  554SOL    HW1 1692   1.674   1.295   5.093
  554SOL    HW2 1693   1.539   1.356   5.026
  555SOL     OW 1694   1.039   1.098   4.420
  555SOL    HW1 1695   0.969   1.051   4.474
  555SOL    HW2 1696   1.098   1.030   4.377
  556SOL     OW 1697   1.014   0.236   4.695
  556SOL    HW1 1698   1.006   0.200   4.602
  556SOL    HW2 1699   1.012   0.160   4.760
  557SOL     OW 1700   0.590   1.487   4.215
  557SOL    HW1 1701   0.632   1.429   4.145
  557SOL    HW2 1702   0.546   1.566   4.171
  558SOL     OW 1703   1.709   0.385   5.105
  558SOL    HW1 1704   1.782   0.454   5.109
  558SOL    HW2 1705   1.737   0.310   5.046
  559SOL     OW 1706   0.255   1.348   4.014
  559SOL    HW1 1707   0.159   1.349   3.987
  559SOL    HW2 1708   0.267   1.401   4.098
  560SOL     OW 1709   0.075   0.345   3.757
  560SOL    HW1 1710  -0.017   0.317   3.728
  560SOL    HW2 1711   0.106   0.422   3.701
  561SOL     OW 1712   0.072   0.166   4.042
  561SOL    HW1 1713   0.055   0.249   3.988
  561SOL    HW2 1714   0.162   0.129   4.020
  562SOL     OW 1715   1.183   1.335   3.843
  562SOL    HW1 1716   1.084   1.324   3.845
  562SOL    HW2 1717   1.217   1.350   3.936
  563SOL     OW 1718   0.613   0.842   5.155
  563SOL    HW1 1719   0.669   0.923   5.138
  563SOL    HW2 1720   0.672   0.762   5.158
  564SOL     OW 1721   1.493   1.767   4.683
  564SOL    HW1 1722   1.526   1.831   4.614
  564SOL    HW2 1723   1.559   1.761   4.758
  565SOL     OW 1724   0.390   1.741   5.284
  565SOL    HW1 1725   0.299   1.782   5.282
  565SOL    HW2 1726   0.383   1.647   5.316
  566SOL     OW 1727   1.674   0.883   4.978
  566SOL    HW1 1728   1.647   0.794   4.941
  566SOL    HW2 1729   1.675   0.951   4.905
  567SOL     OW 1730   1.225   0.325   4.173
  567SOL    HW1 1731   1.290   0.251   4.162
  567SOL    HW2 1732   1.245   0.375   4.257
  568SOL     OW 1733   0.594   0.745   4.376
  568SOL    HW1 1734   0.644   0.830   4.357
  568SOL    HW2 1735   0.506   0.747   4.328
  569SOL     OW 1736   1.730   0.934   5.241
  569SOL    HW1 1737   1.768   1.025   5.256
  569SOL    HW2 1738   1.722   0.917   5.142
  570SOL     OW 1739   0.859   1.374   3.740
  570SOL    HW1 1740   0.813   1.389   3.828
  570SOL    HW2 1741   0.903   1.459   3.710
  571SOL     OW 1742   0.661   1.790   4.677
  571SOL    HW1 1743   0.615   1.878   4.664
  571SOL    HW2 1744   0.760   1.802   4.670
  572SOL     OW 1745   0.859   0.956   4.585
  572SOL    HW1 1746   0.913   0.887   4.633
  572SOL    HW2 1747   0.827   1.025   4.651
  573SOL     OW 1748   1.083   0.984   3.811
  573SOL    HW1 1749   1.060   1.037   3.729
  573SOL    HW2 1750   1.164   0.928   3.792
  574SOL     OW 1751   1.861   1.569   4.575
  574SOL    HW1 1752   1.790   1.557   4.505
  574SOL    HW2 1753   1.862   1.490   4.635
  575SOL     OW 1754   0.079   1.240   4.377
  575SOL    HW1 1755   0.078   1.193   4.465
  575SOL    HW2 1756   0.161   1.212   4.326
  576SOL     OW 1757   1.824   0.192   4.951
  576SOL    HW1 1758   1.820   0.102   4.995
  576SOL    HW2 1759   1.827   0.181   4.852
  577SOL     OW 1760   0.428   0.424   4.244
  577SOL    HW1 1761   0.458   0.352   4.182
  577SOL    HW2 1762   0.389   0.384   4.327
  578SOL     OW 1763   1.705   1.487   4.828
  578SOL    HW1 1764   1.612   1.462   4.801
  578SOL    HW2 1765   1.731   1.437   4.910
  579SOL     OW 1766   0.317   0.547   5.004
  579SOL    HW1 1767   0.355   0.488   5.076
  579SOL    HW2 1768   0.357   0.521   4.916
  580SOL     OW 1769   0.812   1.586   4.411
  580SOL    HW1 1770   0.844   1.596   4.317
  580SOL    HW2 1771   0.733   1.524   4.413
  581SOL     OW 1772   1.424   0.214   4.836
  581SOL    HW1 1773   1.476   0.149   4.891
  581SOL    HW2 1774   1.375   0.277   4.897
  582SOL     OW 1775   1.001   0.034   4.878
  582SOL    HW1 1776   0.938  -0.038   4.847
  582SOL    HW2 1777   1.094  -0.002   4.878
  583SOL     OW 1778   0.770   1.330   4.025
  583SOL    HW1 1779   0.724   1.243   4.042
  583SOL    HW2 1780   0.861   1.327   4.066
  584SOL     OW 1781   0.618   1.567   5.008
  584SOL    HW1 1782   0.613   1.649   5.065
  584SOL    HW2 1783   0.707   1.564   4.963
  585SOL     OW 1784   1.352   0.052   3.892
  585SOL    HW1 1785   1.387   0.011   3.808
  585SOL    HW2 1786   1.262   0.014   3.912
  586SOL     OW 1787   1.300   0.453   4.415
  586SOL    HW1 1788   1.241   0.533   4.419
  586SOL    HW2 1789   1.315   0.418   4.508
  587SOL     OW 1790   1.593   0.221   4.606
  587SOL    HW1 1791   1.509   0.220   4.660
  587SOL    HW2 1792   1.595   0.304   4.550
  588SOL     OW 1793   0.039   1.077   4.024
  588SOL    HW1 1794   0.138   1.066   4.015
  588SOL    HW2 1795  -0.001   0.991   4.056
  589SOL     OW 1796   0.875   1.646   4.061
  589SOL    HW1 1797   0.798   1.611   4.007
  589SOL    HW2 1798   0.843   1.717   4.123
  590SOL     OW 1799   0.230   2.490   0.113
  590SOL    HW1 1800   0.137   2.488   0.150
  590SOL    HW2 1801   0.231   2.451   0.021
  591SOL     OW 1802   0.225   2.137   0.996
  591SOL    HW1 1803   0.260   2.120   1.088
  591SOL    HW2 1804   0.137   2.092   0.984
  592SOL     OW 1805   0.019   2.230   0.647
  592SOL    HW1 1806  -0.063   2.273   0.686
  592SOL    HW2 1807  -0.009   2.157   0.584
  593SOL     OW 1808   0.569   3.137   1.165
  593SOL    HW1 1809   0.476   3.130   1.128
  593SOL    HW2 1810   0.580   3.226   1.209
  594SOL     OW 1811   1.555   3.373   0.703
  594SOL    HW1 1812   1.498   3.357   0.784
  594SOL    HW2 1813   1.496   3.383   0.623
  595SOL     OW 1814   1.135   2.565   0.717
  595SOL    HW1 1815   1.192   2.643   0.692
  595SOL    HW2 1816   1.075   2.591   0.793
  596SOL     OW 1817   1.755   2.469   0.231
  596SOL    HW1 1818   1.743   2.456   0.132
  596SOL    HW2 1819   1.725   2.388   0.280
  597SOL     OW 1820   0.768   3.006   1.023
  597SOL    HW1 1821   0.690   3.023   1.083
  597SOL    HW2 1822   0.802   3.093   0.987
  598SOL     OW 1823   0.850   2.660   1.823
  598SOL    HW1 1824   0.846   2.736   1.888
  598SOL    HW2 1825   0.872   2.696   1.732
  599SOL     OW 1826   0.685   2.874   0.665
  599SOL    HW1 1827   0.754   2.858   0.735
  599SOL    HW2 1828   0.612   2.931   0.703
  600SOL     OW 1829   0.686   3.023   1.803
  600SOL    HW1 1830   0.746   3.102   1.817
  600SOL    HW2 1831   0.600   3.054   1.762
  601SOL     OW 1832   0.335   3.297   1.061
  601SOL    HW1 1833   0.257   3.266   1.008
  601SOL    HW2 1834   0.393   3.355   1.004
  602SOL     OW 1835   1.460   3.367   1.339
  602SOL    HW1 1836   1.484   3.461   1.365
  602SOL    HW2 1837   1.444   3.313   1.421
  603SOL     OW 1838   0.438   2.254   1.499
  603SOL    HW1 1839   0.520   2.198   1.508
  603SOL    HW2 1840   0.357   2.196   1.503
  604SOL     OW 1841   1.603   2.309   0.737
  604SOL    HW1 1842   1.529   2.355   0.687
  604SOL    HW2 1843   1.654   2.377   0.790
  605SOL     OW 1844   0.231   3.575   0.483
  605SOL    HW1 1845   0.265   3.652   0.537
  605SOL    HW2 1846   0.275   3.575   0.393
  606SOL     OW 1847   1.127   3.203   1.690
  606SOL    HW1 1848   1.174   3.203   1.778
  606SOL    HW2 1849   1.079   3.116   1.679
  607SOL     OW 1850   0.230   3.296   0.538
  607SOL    HW1 1851   0.204   3.392   0.538
  607SOL    HW2 1852   0.159   3.242   0.583
  608SOL     OW 1853   0.240   2.953   0.886
  608SOL    HW1 1854   0.254   2.869   0.938
  608SOL    HW2 1855   0.185   3.017   0.941
  609SOL     OW 1856   0.620   3.648   1.439
  609SOL    HW1 1857   0.528   3.631   1.474
  609SOL    HW2 1858   0.648   3.740   1.465
  610SOL     OW 1859   0.606   2.826   0.123
  610SOL    HW1 1860   0.613   2.910   0.069
  610SOL    HW2 1861   0.652   2.839   0.211
  611SOL     OW 1862   1.594   1.976   1.480
  611SOL    HW1 1863   1.576   2.043   1.408
  611SOL    HW2 1864   1.591   2.022   1.569
  612SOL     OW 1865   0.122   2.505   0.563
  612SOL    HW1 1866   0.077   2.417   0.580
  612SOL    HW2 1867   0.121   2.559   0.647
  613SOL     OW 1868   1.842   3.629   0.359
  613SOL    HW1 1869   1.896   3.600   0.439
  613SOL    HW2 1870   1.872   3.719   0.330
  614SOL     OW 1871   0.027   3.458   0.117
  614SOL    HW1 1872   0.008   3.362   0.138
  614SOL    HW2 1873  -0.006   3.516   0.192
  615SOL     OW 1874   1.689   2.784   0.612
  615SOL    HW1 1875   1.784   2.755   0.620
  615SOL    HW2 1876   1.681   2.849   0.537
  616SOL     OW 1877   1.641   2.970   0.432
  616SOL    HW1 1878   1.727   2.972   0.380
  616SOL    HW2 1879   1.655   3.017   0.520
  617SOL     OW 1880   0.113   2.599   1.597
  617SOL    HW1 1881   0.201   2.586   1.642
  617SOL    HW2 1882   0.100   2.696   1.575
  618SOL     OW 1883   0.613   3.227   0.726
  618SOL    HW1 1884   0.564   3.140   0.735
  618SOL    HW2 1885   0.590   3.270   0.639
  619SOL     OW 1886   1.293   3.090   1.423
  619SOL    HW1 1887   1.330   3.017   1.365
  619SOL    HW2 1888   1.345   3.095   1.508
  620SOL     OW 1889   0.809   1.866   0.502
  620SOL    HW1 1890   0.849   1.957   0.493
  620SOL    HW2 1891   0.709   1.874   0.508
  621SOL     OW 1892   0.197   2.838   1.264
  621SOL    HW1 1893   0.286   2.793   1.250
  621SOL    HW2 1894   0.124   2.773   1.245
  622SOL     OW 1895   1.525   2.861   0.190
  622SOL    HW1 1896   1.462   2.785   0.203
  622SOL    HW2 1897   1.573   2.879   0.276
  623SOL     OW 1898   1.187   3.654   1.616
  623SOL    HW1 1899   1.211   3.714   1.540
  623SOL    HW2 1900   1.194   3.559   1.586
  624SOL     OW 1901   0.317   2.113   1.801
  624SOL    HW1 1902   0.388   2.184   1.807
  624SOL    HW2 1903   0.229   2.152   1.829
  625SOL     OW 1904   1.466   3.279   0.953
  625SOL    HW1 1905   1.407   3.285   1.033
  625SOL    HW2 1906   1.451   3.191   0.907
  626SOL     OW 1907   1.667   3.576   0.572
  626SOL    HW1 1908   1.626   3.553   0.484
  626SOL    HW2 1909   1.649   3.502   0.637
  627SOL     OW 1910   0.598   2.591   0.270
  627SOL    HW1 1911   0.622   2.660   0.202
  627SOL    HW2 1912   0.520   2.624   0.324
  628SOL     OW 1913   1.281   2.207   0.944
  628SOL    HW1 1914   1.195   2.157   0.931
  628SOL    HW2 1915   1.343   2.153   1.000
  629SOL     OW 1916   1.576   3.524   0.307
  629SOL    HW1 1917   1.665   3.570   0.310
  629SOL    HW2 1918   1.555   3.500   0.212
  630SOL     OW 1919   0.807   2.467   1.465
  630SOL    HW1 1920   0.760   2.464   1.554
  630SOL    HW2 1921   0.756   2.412   1.399
  631SOL     OW 1922   1.394   2.331   1.674
  631SOL    HW1 1923   1.374   2.374   1.762
  631SOL    HW2 1924   1.472   2.269   1.683
  632SOL     OW 1925   0.973   2.752   1.572
  632SOL    HW1 1926   1.019   2.668   1.543
  632SOL    HW2 1927   0.917   2.786   1.497
  633SOL     OW 1928   0.991   2.272   1.242
  633SOL    HW1 1929   0.914   2.306   1.296
  633SOL    HW2 1930   0.957   2.221   1.163
  634SOL     OW 1931   1.041   2.563   0.429
  634SOL    HW1 1932   1.067   2.559   0.525
  634SOL    HW2 1933   0.956   2.512   0.415
  635SOL     OW 1934   0.076   2.673   0.789
  635SOL    HW1 1935   0.175   2.661   0.798
  635SOL    HW2 1936   0.052   2.768   0.810
  636SOL     OW 1937   0.130   3.683   1.571
  636SOL    HW1 1938   0.120   3.668   1.670
  636SOL    HW2 1939   0.044   3.719   1.535
  637SOL     OW 1940   0.865   2.210   0.195
  637SOL    HW1 1941   0.924   2.273   0.146
  637SOL    HW2 1942   0.884   2.116   0.166
  638SOL     OW 1943   1.719   2.447   1.831
  638SOL    HW1 1944   1.693   2.536   1.795
  638SOL    HW2 1945   1.717   2.379   1.758
  639SOL     OW 1946   1.362   3.006   0.545
  639SOL    HW1 1947   1.445   2.977   0.497
  639SOL    HW2 1948   1.313   3.073   0.489
  640SOL     OW 1949   0.550   2.058   0.885
  640SOL    HW1 1950   0.545   2.053   0.985
  640SOL    HW2 1951   0.552   2.154   0.856
  641SOL     OW 1952   1.008   3.318   0.477
  641SOL    HW1 1953   0.962   3.390   0.425
  641SOL    HW2 1954   1.004   3.338   0.575
  642SOL     OW 1955   0.351   3.663   0.853
  642SOL    HW1 1956   0.401   3.577   0.859
  642SOL    HW2 1957   0.416   3.740   0.850
  643SOL     OW 1958   1.795   2.928   0.873
  643SOL    HW1 1959   1.733   2.913   0.797
  643SOL    HW2 1960   1.743   2.939   0.958
  644SOL     OW 1961   1.227   3.412   1.506
  644SOL    HW1 1962   1.233   3.335   1.570
  644SOL    HW2 1963   1.175   3.386   1.426
  645SOL     OW 1964   0.321   2.805   0.242
  645SOL    HW1 1965   0.403   2.844   0.200
  645SOL    HW2 1966   0.294   2.723   0.193
  646SOL     OW 1967   1.458   2.597   0.728
  646SOL    HW1 1968   1.453   2.532   0.803
  646SOL    HW2 1969   1.538   2.656   0.741
  647SOL     OW 1970   0.461   3.128   1.727
  647SOL    HW1 1971   0.411   3.129   1.641
  647SOL    HW2 1972   0.398   3.110   1.803
  648SOL     OW 1973   1.111   3.638   0.237
  648SOL    HW1 1974   1.051   3.576   0.287
  648SOL    HW2 1975   1.142   3.594   0.152
  649SOL     OW 1976   0.202   2.147   1.498
  649SOL    HW1 1977   0.122   2.207   1.485
  649SOL    HW2 1978   0.192   2.098   1.584
  650SOL     OW 1979   1.632   3.239   0.081
  650SOL    HW1 1980   1.600   3.333   0.071
  650SOL    HW2 1981   1.556   3.176   0.069
  651SOL     OW 1982   0.464   3.605   0.323
  651SOL    HW1 1983   0.497   3.644   0.409
  651SOL    HW2 1984   0.540   3.598   0.258
  652SOL     OW 1985   1.400   1.969   0.426
  652SOL    HW1 1986   1.376   1.932   0.336
  652SOL    HW2 1987   1.499   1.985   0.430
  653SOL     OW 1988   0.249   3.647   1.241
  653SOL    HW1 1989   0.306   3.582   1.291
  653SOL    HW2 1990   0.233   3.614   1.148
  654SOL     OW 1991   0.940   3.560   0.904
  654SOL    HW1 1992   1.020   3.503   0.925
  654SOL    HW2 1993   0.891   3.520   0.827
  655SOL     OW 1994   0.382   2.562   0.480
  655SOL    HW1 1995   0.427   2.472   0.477
  655SOL    HW2 1996   0.288   2.551   0.513
  656SOL     OW 1997   1.547   2.084   1.729
  656SOL    HW1 1998   1.542   2.121   1.821
  656SOL    HW2 1999   1.475   2.015   1.717
  657SOL     OW 2000   0.781   2.126   1.749
  657SOL    HW1 2001   0.848   2.065   1.792
  657SOL    HW2 2002   0.708   2.145   1.814
  658SOL     OW 2003   0.888   3.376   1.195
  658SOL    HW1 2004   0.865   3.351   1.101
  658SOL    HW2 2005   0.949   3.307   1.234
  659SOL     OW 2006   1.351   2.452   1.433
  659SOL    HW1 2007   1.379   2.409   1.518
  659SOL    HW2 2008   1.376   2.548   1.434
  660SOL     OW 2009   0.803   3.264   0.924
  660SOL    HW1 2010   0.893   3.278   0.882
  660SOL    HW2 2011   0.732   3.266   0.853
  661SOL     OW 2012   0.922   2.365   0.899
  661SOL    HW1 2013   0.897   2.356   0.803
  661SOL    HW2 2014   0.970   2.283   0.930
  662SOL     OW 2015   0.539   1.926   0.512
  662SOL    HW1 2016   0.458   1.927   0.570
  662SOL    HW2 2017   0.542   2.009   0.457
  663SOL     OW 2018   1.434   3.050   0.041
  663SOL    HW1 2019   1.466   2.974   0.098
  663SOL    HW2 2020   1.342   3.077   0.071
  664SOL     OW 2021   0.935   2.098   0.480
  664SOL    HW1 2022   0.887   2.139   0.402
  664SOL    HW2 2023   1.034   2.096   0.461
  665SOL     OW 2024   1.076   2.545   1.464
  665SOL    HW1 2025   0.996   2.484   1.467
  665SOL    HW2 2026   1.157   2.492   1.440
  666SOL     OW 2027   1.227   3.432   0.793
  666SOL    HW1 2028   1.248   3.506   0.728
  666SOL    HW2 2029   1.295   3.432   0.866
  667SOL     OW 2030   0.459   3.014   0.741
  667SOL    HW1 2031   0.388   2.987   0.806
  667SOL    HW2 2032   0.433   2.986   0.648
  668SOL     OW 2033   1.271   3.659   0.591
  668SOL    HW1 2034   1.315   3.723   0.527
  668SOL    HW2 2035   1.221   3.711   0.661
  669SOL     OW 2036   1.032   2.411   0.016
  669SOL    HW1 2037   0.991   2.493  -0.023
  669SOL    HW2 2038   1.096   2.437   0.089
  670SOL     OW 2039   0.078   2.418   1.386
  670SOL    HW1 2040   0.170   2.417   1.345
  670SOL    HW2 2041   0.072   2.492   1.453
  671SOL     OW 2042   0.561   2.084   1.147
  671SOL    HW1 2043   0.599   2.000   1.184
  671SOL    HW2 2044   0.473   2.103   1.191
  672SOL     OW 2045   0.866   2.316   0.642
  672SOL    HW1 2046   0.834   2.388   0.580
  672SOL    HW2 2047   0.890   2.235   0.589
  673SOL     OW 2048   1.017   1.901   0.753
  673SOL    HW1 2049   0.945   1.906   0.684
  673SOL    HW2 2050   0.993   1.832   0.822
  674SOL     OW 2051   1.429   3.035   0.867
  674SOL    HW1 2052   1.374   2.951   0.860
  674SOL    HW2 2053   1.455   3.064   0.775
  675SOL     OW 2054   1.466   2.452   0.992
  675SOL    HW1 2055   1.436   2.357   0.999
  675SOL    HW2 2056   1.539   2.468   1.058
  676SOL     OW 2057   1.857   2.695   0.377
  676SOL    HW1 2058   1.899   2.631   0.441
  676SOL    HW2 2059   1.819   2.644   0.299
  677SOL     OW 2060   0.488   3.247   0.174
  677SOL    HW1 2061   0.401   3.232   0.221
  677SOL    HW2 2062   0.471   3.273   0.079
  678SOL     OW 2063   1.664   3.142   0.657
  678SOL    HW1 2064   1.763   3.150   0.671
  678SOL    HW2 2065   1.619   3.226   0.688
  679SOL     OW 2066   1.390   2.437   0.078
  679SOL    HW1 2067   1.336   2.416   0.159
  679SOL    HW2 2068   1.481   2.396   0.087
  680SOL     OW 2069   0.527   2.118   0.328
  680SOL    HW1 2070   0.554   2.059   0.253
  680SOL    HW2 2071   0.527   2.213   0.297
  681SOL     OW 2072   1.754   3.085   1.588
  681SOL    HW1 2073   1.845   3.046   1.575
  681SOL    HW2 2074   1.762   3.181   1.612
  682SOL     OW 2075   1.064   3.209   1.340
  682SOL    HW1 2076   0.984   3.186   1.395
  682SOL    HW2 2077   1.147   3.183   1.389
  683SOL     OW 2078   1.592   3.491   1.625
  683SOL    HW1 2079   1.619   3.525   1.535
  683SOL    HW2 2080   1.671   3.453   1.671
  684SOL     OW 2081   1.111   3.057   1.100
  684SOL    HW1 2082   1.071   3.101   1.181
  684SOL    HW2 2083   1.070   3.094   1.017
  685SOL     OW 2084   1.638   2.961   1.079
  685SOL    HW1 2085   1.643   3.042   1.138
  685SOL    HW2 2086   1.552   2.963   1.028
  686SOL     OW 2087   0.915   1.951   1.402
  686SOL    HW1 2088   0.940   1.931   1.307
  686SOL    HW2 2089   0.987   2.007   1.444
  687SOL     OW 2090   0.980   2.978   1.719
  687SOL    HW1 2091   0.881   2.984   1.729
  687SOL    HW2 2092   1.003   2.898   1.663
  688SOL     OW 2093   0.705   2.912   0.368
  688SOL    HW1 2094   0.691   2.919   0.467
  688SOL    HW2 2095   0.789   2.861   0.350
  689SOL     OW 2096   0.410   2.675   1.251
  689SOL    HW1 2097   0.496   2.687   1.301
  689SOL    HW2 2098   0.368   2.588   1.278
  690SOL     OW 2099   1.274   2.248   1.262
  690SOL    HW1 2100   1.295   2.322   1.326
  690SOL    HW2 2101   1.185   2.265   1.219
  691SOL     OW 2102   0.064   3.426   1.331
  691SOL    HW1 2103   0.018   3.508   1.297
  691SOL    HW2 2104   0.162   3.445   1.340
  692SOL     OW 2105   0.367   2.962   0.501
  692SOL    HW1 2106   0.360   3.045   0.445
  692SOL    HW2 2107   0.371   2.882   0.441
  693SOL     OW 2108   0.566   2.399   0.865
  693SOL    HW1 2109   0.578   2.465   0.791
  693SOL    HW2 2110   0.612   2.433   0.948
  694SOL     OW 2111   1.252   3.210   0.388
  694SOL    HW1 2112   1.302   3.287   0.428
  694SOL    HW2 2113   1.157   3.212   0.420
  695SOL     OW 2114   1.272   3.307   1.142
  695SOL    HW1 2115   1.319   3.320   1.229
  695SOL    HW2 2116   1.206   3.233   1.151
  696SOL     OW 2117   1.582   2.501   0.472
  696SOL    HW1 2118   1.551   2.562   0.545
  696SOL    HW2 2119   1.632   2.553   0.403
  697SOL     OW 2120   0.354   3.372   1.329
  697SOL    HW1 2121   0.333   3.328   1.242
  697SOL    HW2 2122   0.451   3.398   1.332
  698SOL     OW 2123   0.402   2.613   1.598
  698SOL    HW1 2124   0.470   2.668   1.551
  698SOL    HW2 2125   0.442   2.525   1.625
  699SOL     OW 2126   1.587   2.641   1.670
  699SOL    HW1 2127   1.495   2.679   1.665
  699SOL    HW2 2128   1.647   2.688   1.605
  700SOL     OW 2129   1.013   1.967   1.770
  700SOL    HW1 2130   1.019   2.052   1.718
  700SOL    HW2 2131   1.045   1.891   1.713
  701SOL     OW 2132   0.504   1.912   1.740
  701SOL    HW1 2133   0.462   1.855   1.670
  701SOL    HW2 2134   0.438   1.981   1.772
  702SOL     OW 2135   0.573   2.732   1.029
  702SOL    HW1 2136   0.617   2.821   1.020
  702SOL    HW2 2137   0.510   2.732   1.106
  703SOL     OW 2138   1.360   2.724   1.045
  703SOL    HW1 2139   1.285   2.724   0.979
  703SOL    HW2 2140   1.397   2.632   1.054
  704SOL     OW 2141   1.209   2.387   0.275
  704SOL    HW1 2142   1.222   2.303   0.329
  704SOL    HW2 2143   1.180   2.461   0.335
  705SOL     OW 2144   0.307   2.075   1.231
  705SOL    HW1 2145   0.284   2.112   1.321
  705SOL    HW2 2146   0.277   1.980   1.225
  706SOL     OW 2147   0.037   3.172   1.282
  706SOL    HW1 2148   0.090   3.123   1.350
  706SOL    HW2 2149   0.059   3.270   1.287
  707SOL     OW 2150   0.732   2.496   1.064
  707SOL    HW1 2151   0.791   2.470   0.988
  707SOL    HW2 2152   0.704   2.592   1.053
  708SOL     OW 2153   1.728   2.797   1.854
  708SOL    HW1 2154   1.682   2.790   1.765
  708SOL    HW2 2155   1.666   2.841   1.920
  709SOL     OW 2156   0.307   1.925   0.618
  709SOL    HW1 2157   0.296   2.019   0.651
  709SOL    HW2 2158   0.302   1.862   0.695
  710SOL     OW 2159   1.622   2.229   0.374
  710SOL    HW1 2160   1.624   2.153   0.438
  710SOL    HW2 2161   1.574   2.306   0.414
  711SOL     OW 2162   1.023   2.628   0.966
  711SOL    HW1 2163   1.038   2.649   1.062
  711SOL    HW2 2164   0.993   2.533   0.957
  712SOL     OW 2165   0.980   3.435   1.700
  712SOL    HW1 2166   0.960   3.479   1.612
  712SOL    HW2 2167   1.019   3.344   1.684
  713SOL     OW 2168   1.859   3.380   1.605
  713SOL    HW1 2169   1.873   3.407   1.510
  713SOL    HW2 2170   1.942   3.402   1.658
  714SOL     OW 2171   0.350   2.760   1.804
  714SOL    HW1 2172   0.426   2.804   1.852
  714SOL    HW2 2173   0.385   2.713   1.722
  715SOL     OW 2174   1.540   2.136   0.125
  715SOL    HW1 2175   1.479   2.061   0.148
  715SOL    HW2 2176   1.562   2.188   0.208
  716SOL     OW 2177   1.303   2.700   0.042
  716SOL    HW1 2178   1.337   2.607   0.057
  716SOL    HW2 2179   1.321   2.727  -0.053
  717SOL     OW 2180   1.068   3.195   0.849
  717SOL    HW1 2181   1.075   3.111   0.794
  717SOL    HW2 2182   1.130   3.264   0.813
  718SOL     OW 2183   0.319   2.672   0.949
  718SOL    HW1 2184   0.412   2.708   0.954
  718SOL    HW2 2185   0.313   2.587   1.001
  719SOL     OW 2186   0.339   2.371   1.006
  719SOL    HW1 2187   0.287   2.288   0.989
  719SOL    HW2 2188   0.416   2.376   0.942
  720SOL     OW 2189   1.138   2.242   1.678
  720SOL    HW1 2190   1.093   2.305   1.742
  720SOL    HW2 2191   1.231   2.273   1.661
  721SOL     OW 2192   1.160   2.069   1.477
  721SOL    HW1 2193   1.160   2.133   1.554
  721SOL    HW2 2194   1.188   2.117   1.394
  722SOL     OW 2195   0.008   3.188   0.200
  722SOL    HW1 2196  -0.085   3.209   0.169
  722SOL    HW2 2197   0.018   3.089   0.213
  723SOL     OW 2198   0.088   3.663   0.927
  723SOL    HW1 2199   0.046   3.577   0.900
  723SOL    HW2 2200   0.182   3.666   0.893
  724SOL     OW 2201   0.504   3.430   0.910
  724SOL    HW1 2202   0.570   3.504   0.919
  724SOL    HW2 2203   0.548   3.351   0.868
  725SOL     OW 2204   1.002   2.658   1.238
  725SOL    HW1 2205   1.043   2.626   1.324
  725SOL    HW2 2206   0.906   2.631   1.235
  726SOL     OW 2207   0.040   2.406   1.114
  726SOL    HW1 2208   0.125   2.373   1.073
  726SOL    HW2 2209   0.053   2.421   1.212
  727SOL     OW 2210   0.189   2.382   1.722
  727SOL    HW1 2211   0.248   2.342   1.652
  727SOL    HW2 2212   0.131   2.453   1.681
  728SOL     OW 2213   1.369   2.812   1.660
  728SOL    HW1 2214   1.408   2.901   1.680
  728SOL    HW2 2215   1.379   2.792   1.563
  729SOL     OW 2216   0.815   2.434   0.325
  729SOL    HW1 2217   0.822   2.345   0.279
  729SOL    HW2 2218   0.721   2.468   0.317
  730SOL     OW 2219   1.657   2.466   1.206
  730SOL    HW1 2220   1.619   2.397   1.268
  730SOL    HW2 2221   1.739   2.430   1.162
  731SOL     OW 2222   0.252   3.426   1.744
  731SOL    HW1 2223   0.222   3.483   1.820
  731SOL    HW2 2224   0.245   3.329   1.770
  732SOL     OW 2225   0.671   2.326   1.269
  732SOL    HW1 2226   0.637   2.237   1.239
  732SOL    HW2 2227   0.697   2.380   1.189
  733SOL     OW 2228   0.930   3.540   1.465
  733SOL    HW1 2229   0.906   3.522   1.370
  733SOL    HW2 2230   0.960   3.634   1.475
  734SOL     OW 2231   0.473   2.362   0.191
  734SOL    HW1 2232   0.534   2.442   0.195
  734SOL    HW2 2233   0.378   2.393   0.198
  735SOL     OW 2234   0.159   2.999   1.466
  735SOL    HW1 2235   0.181   2.938   1.542
  735SOL    HW2 2236   0.169   2.950   1.380
  736SOL     OW 2237   1.347   2.921   1.234
  736SOL    HW1 2238   1.371   2.858   1.160
  736SOL    HW2 2239   1.257   2.961   1.216
  737SOL     OW 2240   1.302   2.717   0.309
  737SOL    HW1 2241   1.216   2.686   0.351
  737SOL    HW2 2242   1.298   2.703   0.210
  738SOL     OW 2243   1.759   3.609   1.154
  738SOL    HW1 2244   1.820   3.639   1.081
  738SOL    HW2 2245   1.721   3.520   1.132
  739SOL     OW 2246   1.252   3.593   1.128
  739SOL    HW1 2247   1.336   3.598   1.074
  739SOL    HW2 2248   1.229   3.497   1.146
  740SOL     OW 2249   0.083   3.120   1.022
  740SOL    HW1 2250   0.078   3.119   1.122
  740SOL    HW2 2251   0.000   3.079   0.984
  741SOL     OW 2252   0.688   3.524   1.716
  741SOL    HW1 2253   0.632   3.605   1.725
  741SOL    HW2 2254   0.740   3.528   1.630
  742SOL     OW 2255   0.903   1.948   0.133
  742SOL    HW1 2256   0.954   1.949   0.047
  742SOL    HW2 2257   0.959   1.906   0.204
  743SOL     OW 2258   1.726   1.997   0.523
  743SOL    HW1 2259   1.799   1.980   0.456
  743SOL    HW2 2260   1.695   1.910   0.561
  744SOL     OW 2261   1.388   3.435   0.477
  744SOL    HW1 2262   1.455   3.447   0.403
  744SOL    HW2 2263   1.348   3.524   0.500
  745SOL     OW 2264   0.130   3.656   1.851
  745SOL    HW1 2265   0.089   3.582   1.904
  745SOL    HW2 2266   0.194   3.707   1.909
  746SOL     OW 2267   1.280   2.789   0.672
  746SOL    HW1 2268   1.340   2.708   0.674
  746SOL    HW2 2269   1.320   2.858   0.612
  747SOL     OW 2270   0.830   3.135   1.422
  747SOL    HW1 2271   0.825   3.168   1.517
  747SOL    HW2 2272   0.744   3.154   1.376
  748SOL     OW 2273   0.672   3.478   0.154
  748SOL    HW1 2274   0.681   3.488   0.055
  748SOL    HW2 2275   0.632   3.389   0.175
  749SOL     OW 2276   1.650   3.582   1.394
  749SOL    HW1 2277   1.703   3.592   1.310
  749SOL    HW2 2278   1.623   3.672   1.428
  750SOL     OW 2279   1.841   2.037   0.963
  750SOL    HW1 2280   1.880   1.952   0.927
  750SOL    HW2 2281   1.743   2.039   0.944
  751SOL     OW 2282   0.263   2.188   0.720
  751SOL    HW1 2283   0.184   2.239   0.686
  751SOL    HW2 2284   0.254   2.173   0.818
  752SOL     OW 2285   1.194   3.474   0.031
  752SOL    HW1 2286   1.200   3.381   0.068
  752SOL    HW2 2287   1.135   3.474  -0.049
  753SOL     OW 2288   0.822   2.864   1.372
  753SOL    HW1 2289   0.862   2.863   1.280
  753SOL    HW2 2290   0.832   2.956   1.412
  754SOL     OW 2291   0.916   2.772   0.291
  754SOL    HW1 2292   0.979   2.810   0.223
  754SOL    HW2 2293   0.956   2.689   0.330
  755SOL     OW 2294   1.504   3.469   0.044
  755SOL    HW1 2295   1.412   3.506   0.051
  755SOL    HW2 2296   1.542   3.489  -0.046
  756SOL     OW 2297   0.372   3.150   1.490
  756SOL    HW1 2298   0.359   3.243   1.456
  756SOL    HW2 2299   0.288   3.098   1.477
  757SOL     OW 2300   1.614   3.154   1.289
  757SOL    HW1 2301   1.674   3.157   1.369
  757SOL    HW2 2302   1.539   3.218   1.302
  758SOL     OW 2303   1.039   2.960   0.696
  758SOL    HW1 2304   0.969   2.913   0.750
  758SOL    HW2 2305   1.098   2.892   0.653
  759SOL     OW 2306   1.014   2.098   0.971
  759SOL    HW1 2307   1.006   2.062   0.878
  759SOL    HW2 2308   1.012   2.022   1.036
  760SOL     OW 2309   0.590   3.349   0.491
  760SOL    HW1 2310   0.632   3.291   0.421
  760SOL    HW2 2311   0.546   3.428   0.447
  761SOL     OW 2312   1.709   2.247   1.381
  761SOL    HW1 2313   1.782   2.316   1.385
  761SOL    HW2 2314   1.737   2.172   1.322
  762SOL     OW 2315   0.255   3.210   0.290
  762SOL    HW1 2316   0.159   3.211   0.263
  762SOL    HW2 2317   0.267   3.263   0.374
  763SOL     OW 2318   0.105   2.875   1.726
  763SOL    HW1 2319   0.028   2.842   1.780
  763SOL    HW2 2320   0.190   2.845   1.768
  764SOL     OW 2321   0.672   2.065   1.489
  764SOL    HW1 2322   0.762   2.049   1.449
  764SOL    HW2 2323   0.680   2.070   1.588
  765SOL     OW 2324   0.075   2.207   0.033
  765SOL    HW1 2325  -0.017   2.179   0.004
  765SOL    HW2 2326   0.106   2.284  -0.023
  766SOL     OW 2327   1.440   2.718   1.398
  766SOL    HW1 2328   1.383   2.770   1.335
  766SOL    HW2 2329   1.536   2.730   1.374
  767SOL     OW 2330   0.072   2.028   0.318
  767SOL    HW1 2331   0.055   2.111   0.264
  767SOL    HW2 2332   0.162   1.991   0.296
  768SOL     OW 2333   1.183   3.197   0.119
  768SOL    HW1 2334   1.084   3.186   0.121
  768SOL    HW2 2335   1.217   3.212   0.212
  769SOL     OW 2336   0.613   2.704   1.431
  769SOL    HW1 2337   0.669   2.785   1.414
  769SOL    HW2 2338   0.672   2.624   1.434
  770SOL     OW 2339   1.493   3.629   0.959
  770SOL    HW1 2340   1.526   3.693   0.890
  770SOL    HW2 2341   1.559   3.623   1.034
  771SOL     OW 2342   0.716   2.427   1.708
  771SOL    HW1 2343   0.735   2.492   1.782
  771SOL    HW2 2344   0.776   2.347   1.717
  772SOL     OW 2345   1.450   3.082   1.633
  772SOL    HW1 2346   1.441   3.072   1.732
  772SOL    HW2 2347   1.546   3.075   1.607
  773SOL     OW 2348   0.390   3.603   1.560
  773SOL    HW1 2349   0.299   3.644   1.558
  773SOL    HW2 2350   0.383   3.509   1.592
  774SOL     OW 2351   1.674   2.745   1.254
  774SOL    HW1 2352   1.647   2.656   1.217
  774SOL    HW2 2353   1.675   2.813   1.181
  775SOL     OW 2354   1.225   2.187   0.449
  775SOL    HW1 2355   1.290   2.113   0.438
  775SOL    HW2 2356   1.245   2.237   0.533
  776SOL     OW 2357   0.594   2.607   0.652
  776SOL    HW1 2358   0.644   2.692   0.633
  776SOL    HW2 2359   0.506   2.609   0.604
  777SOL     OW 2360   1.777   2.204   1.642
  777SOL    HW1 2361   1.760   2.235   1.548
  777SOL    HW2 2362   1.693   2.167   1.680
  778SOL     OW 2363   1.730   2.796   1.517
  778SOL    HW1 2364   1.768   2.887   1.532
  778SOL    HW2 2365   1.722   2.779   1.418
  779SOL     OW 2366   0.859   3.236   0.016
  779SOL    HW1 2367   0.813   3.251   0.104
  779SOL    HW2 2368   0.903   3.321  -0.014
  780SOL     OW 2369   0.661   3.652   0.953
  780SOL    HW1 2370   0.615   3.740   0.940
  780SOL    HW2 2371   0.760   3.664   0.946
  781SOL     OW 2372   0.859   2.818   0.861
  781SOL    HW1 2373   0.913   2.749   0.909
  781SOL    HW2 2374   0.827   2.887   0.927
  782SOL     OW 2375   1.083   2.846   0.087
  782SOL    HW1 2376   1.060   2.899   0.005
  782SOL    HW2 2377   1.164   2.790   0.068
  783SOL     OW 2378   1.861   3.431   0.851
  783SOL    HW1 2379   1.790   3.419   0.781
  783SOL    HW2 2380   1.862   3.352   0.911
  784SOL     OW 2381   0.221   3.176   1.844
  784SOL    HW1 2382   0.156   3.103   1.823
  784SOL    HW2 2383   0.225   3.190   1.942
  785SOL     OW 2384   0.079   3.102   0.653
  785SOL    HW1 2385   0.078   3.055   0.741
  785SOL    HW2 2386   0.161   3.074   0.602
  786SOL     OW 2387   0.672   3.253   1.624
  786SOL    HW1 2388   0.594   3.203   1.662
  786SOL    HW2 2389   0.669   3.348   1.655
  787SOL     OW 2390   1.824   2.054   1.227
  787SOL    HW1 2391   1.820   1.964   1.271
  787SOL    HW2 2392   1.827   2.043   1.128
  788SOL     OW 2393   0.428   2.286   0.520
  788SOL    HW1 2394   0.458   2.214   0.458
  788SOL    HW2 2395   0.389   2.246   0.603
  789SOL     OW 2396   1.705   3.349   1.104
  789SOL    HW1 2397   1.612   3.324   1.077
  789SOL    HW2 2398   1.731   3.299   1.186
  790SOL     OW 2399   0.317   2.409   1.280
  790SOL    HW1 2400   0.355   2.350   1.352
  790SOL    HW2 2401   0.357   2.383   1.192
  791SOL     OW 2402   0.812   3.448   0.687
  791SOL    HW1 2403   0.844   3.458   0.593
  791SOL    HW2 2404   0.733   3.386   0.689
  792SOL     OW 2405   1.424   2.076   1.112
  792SOL    HW1 2406   1.476   2.011   1.167
  792SOL    HW2 2407   1.375   2.139   1.173
  793SOL     OW 2408   1.001   1.896   1.154
  793SOL    HW1 2409   0.938   1.824   1.123
  793SOL    HW2 2410   1.094   1.860   1.154
  794SOL     OW 2411   0.770   3.192   0.301
  794SOL    HW1 2412   0.724   3.105   0.318
  794SOL    HW2 2413   0.861   3.189   0.342
  795SOL     OW 2414   0.618   3.429   1.284
  795SOL    HW1 2415   0.613   3.511   1.341
  795SOL    HW2 2416   0.707   3.426   1.239
  796SOL     OW 2417   1.352   1.914   0.168
  796SOL    HW1 2418   1.387   1.873   0.084
  796SOL    HW2 2419   1.262   1.876   0.188
  797SOL     OW 2420   1.300   2.315   0.691
  797SOL    HW1 2421   1.241   2.395   0.695
  797SOL    HW2 2422   1.315   2.280   0.784
  798SOL     OW 2423   1.593   2.083   0.882
  798SOL    HW1 2424   1.509   2.082   0.936
  798SOL    HW2 2425   1.595   2.166   0.826
  799SOL     OW 2426   0.039   2.939   0.300
  799SOL    HW1 2427   0.138   2.928   0.291
  799SOL    HW2 2428  -0.001   2.853   0.332
  800SOL     OW 2429   0.875   3.508   0.337
  800SOL    HW1 2430   0.798   3.473   0.283
  800SOL    HW2 2431   0.843   3.579   0.399
  801SOL     OW 2432   0.230   2.490   1.975
  801SOL    HW1 2433   0.137   2.488   2.012
  801SOL    HW2 2434   0.231   2.451   1.883
  802SOL     OW 2435   0.225   2.137   2.858
  802SOL    HW1 2436   0.260   2.120   2.950
  802SOL    HW2 2437   0.137   2.092   2.846
  803SOL     OW 2438   0.019   2.230   2.509
  803SOL    HW1 2439  -0.063   2.273   2.548
  803SOL    HW2 2440  -0.009   2.157   2.446
  804SOL     OW 2441   0.569   3.137   3.027
  804SOL    HW1 2442   0.476   3.130   2.990
  804SOL    HW2 2443   0.580   3.226   3.071
  805SOL     OW 2444   1.555   3.373   2.565
  805SOL    HW1 2445   1.498   3.357   2.646
  805SOL    HW2 2446   1.496   3.383   2.485
  806SOL     OW 2447   1.135   2.565   2.579
  806SOL    HW1 2448   1.192   2.643   2.554
  806SOL    HW2 2449   1.075   2.591   2.655
  807SOL     OW 2450   1.755   2.469   2.093
  807SOL    HW1 2451   1.743   2.456   1.994
  807SOL    HW2 2452   1.725   2.388   2.142
  808SOL     OW 2453   0.768   3.006   2.885
  808SOL    HW1 2454   0.690   3.023   2.945
  808SOL    HW2 2455   0.802   3.093   2.849
  809SOL     OW 2456   0.850   2.660   3.685
  809SOL    HW1 2457   0.846   2.736   3.750
  809SOL    HW2 2458   0.872   2.696   3.594
  810SOL     OW 2459   0.685   2.874   2.527
  810SOL    HW1 2460   0.754   2.858   2.597
  810SOL    HW2 2461   0.612   2.931   2.565
  811SOL     OW 2462   0.686   3.023   3.665
  811SOL    HW1 2463   0.746   3.102   3.679
  811SOL    HW2 2464   0.600   3.054   3.624
  812SOL     OW 2465   0.335   3.297   2.923
  812SOL    HW1 2466   0.257   3.266   2.870
  812SOL    HW2 2467   0.393   3.355   2.866
  813SOL     OW 2468   1.460   3.367   3.201
  813SOL    HW1 2469   1.484   3.461   3.227
  813SOL    HW2 2470   1.444   3.313   3.283
  814SOL     OW 2471   0.438   2.254   3.361
  814SOL    HW1 2472   0.520   2.198   3.370
  814SOL    HW2 2473   0.357   2.196   3.365
  815SOL     OW 2474   1.603   2.309   2.599
  815SOL    HW1 2475   1.529   2.355   2.549
  815SOL    HW2 2476   1.654   2.377   2.652
  816SOL     OW 2477   0.231   3.575   2.345
  816SOL    HW1 2478   0.265   3.652   2.399
  816SOL    HW2 2479   0.275   3.575   2.255
  817SOL     OW 2480   1.127   3.203   3.552
  817SOL    HW1 2481   1.174   3.203   3.640
  817SOL    HW2 2482   1.079   3.116   3.541
  818SOL     OW 2483   0.230   3.296   2.400
  818SOL    HW1 2484   0.204   3.392   2.400
  818SOL    HW2 2485   0.159   3.242   2.445
  819SOL     OW 2486   0.240   2.953   2.748
  819SOL    HW1 2487   0.254   2.869   2.800
  819SOL    HW2 2488   0.185   3.017   2.803
  820SOL     OW 2489   0.620   3.648   3.301
  820SOL    HW1 2490   0.528   3.631   3.336
  820SOL    HW2 2491   0.648   3.740   3.327
  821SOL     OW 2492   0.606   2.826   1.985
  821SOL    HW1 2493   0.613   2.910   1.931
  821SOL    HW2 2494   0.652   2.839   2.073
  822SOL     OW 2495   1.594   1.976   3.342
  822SOL    HW1 2496   1.576   2.043   3.270
  822SOL    HW2 2497   1.591   2.022   3.431
  823SOL     OW 2498   0.122   2.505   2.425
  823SOL    HW1 2499   0.077   2.417   2.442
  823SOL    HW2 2500   0.121   2.559   2.509
  824SOL     OW 2501   1.842   3.629   2.221
  824SOL    HW1 2502   1.896   3.600   2.301
  824SOL    HW2 2503   1.872   3.719   2.192
  825SOL     OW 2504   0.027   3.458   1.979
  825SOL    HW1 2505   0.008   3.362   2.000
  825SOL    HW2 2506  -0.006   3.516   2.054
  826SOL     OW 2507   1.689   2.784   2.474
  826SOL    HW1 2508   1.784   2.755   2.482
  826SOL    HW2 2509   1.681   2.849   2.399
  827SOL     OW 2510   1.641   2.970   2.294
  827SOL    HW1 2511   1.727   2.972   2.242
  827SOL    HW2 2512   1.655   3.017   2.382
  828SOL     OW 2513   0.113   2.599   3.459
  828SOL    HW1 2514   0.201   2.586   3.504
  828SOL    HW2 2515   0.100   2.696   3.437
  829SOL     OW 2516   0.613   3.227   2.588
  829SOL    HW1 2517   0.564   3.140   2.597
  829SOL    HW2 2518   0.590   3.270   2.501
  830SOL     OW 2519   1.293   3.090   3.285
  830SOL    HW1 2520   1.330   3.017   3.227
  830SOL    HW2 2521   1.345   3.095   3.370
  831SOL     OW 2522   0.809   1.866   2.364
  831SOL    HW1 2523   0.849   1.957   2.355
  831SOL    HW2 2524   0.709   1.874   2.370
  832SOL     OW 2525   0.197   2.838   3.126
  832SOL    HW1 2526   0.286   2.793   3.112
  832SOL    HW2 2527   0.124   2.773   3.107
  833SOL     OW 2528   1.525   2.861   2.052
  833SOL    HW1 2529   1.462   2.785   2.065
  833SOL    HW2 2530   1.573   2.879   2.138
  834SOL     OW 2531   1.187   3.654   3.478
  834SOL    HW1 2532   1.211   3.714   3.402
  834SOL    HW2 2533   1.194   3.559   3.448
  835SOL     OW 2534   0.317   2.113   3.663
  835SOL    HW1 2535   0.388   2.184   3.669
  835SOL    HW2 2536   0.229   2.152   3.691
  836SOL     OW 2537   1.466   3.279   2.815
  836SOL    HW1 2538   1.407   3.285   2.895
  836SOL    HW2 2539   1.451   3.191   2.769
  837SOL     OW 2540   1.667   3.576   2.434
  837SOL    HW1 2541   1.626   3.553   2.346
  837SOL    HW2 2542   1.649   3.502   2.499
  838SOL     OW 2543   0.598   2.591   2.132
  838SOL    HW1 2544   0.622   2.660   2.064
  838SOL    HW2 2545   0.520   2.624   2.186
  839SOL     OW 2546   1.281   2.207   2.806
  839SOL    HW1 2547   1.195   2.157   2.793
  839SOL    HW2 2548   1.343   2.153   2.862
  840SOL     OW 2549   1.576   3.524   2.169
  840SOL    HW1 2550   1.665   3.570   2.172
  840SOL    HW2 2551   1.555   3.500   2.074
  841SOL     OW 2552   0.807   2.467   3.327
  841SOL    HW1 2553   0.760   2.464   3.416
  841SOL    HW2 2554   0.756   2.412   3.261
  842SOL     OW 2555   1.394   2.331   3.536
  842SOL    HW1 2556   1.374   2.374   3.624
  842SOL    HW2 2557   1.472   2.269   3.545
  843SOL     OW 2558   0.973   2.752   3.434
  843SOL    HW1 2559   1.019   2.668   3.405
  843SOL    HW2 2560   0.917   2.786   3.359
  844SOL     OW 2561   0.991   2.272   3.104
  844SOL    HW1 2562   0.914   2.306   3.158
  844SOL    HW2 2563   0.957   2.221   3.025
  845SOL     OW 2564   1.041   2.563   2.291
  845SOL    HW1 2565   1.067   2.559   2.387
  845SOL    HW2 2566   0.956   2.512   2.277
  846SOL     OW 2567   0.076   2.673   2.651
  846SOL    HW1 2568   0.175   2.661   2.660
  846SOL    HW2 2569   0.052   2.768   2.672
  847SOL     OW 2570   0.130   3.683   3.433
  847SOL    HW1 2571   0.120   3.668   3.532
  847SOL    HW2 2572   0.044   3.719   3.397
  848SOL     OW 2573   0.865   2.210   2.057
  848SOL    HW1 2574   0.924   2.273   2.008
  848SOL    HW2 2575   0.884   2.116   2.028
  849SOL     OW 2576   1.719   2.447   3.693
  849SOL    HW1 2577   1.693   2.536   3.657
  849SOL    HW2 2578   1.717   2.379   3.620
  850SOL     OW 2579   1.362   3.006   2.407
  850SOL    HW1 2580   1.445   2.977   2.359
  850SOL    HW2 2581   1.313   3.073   2.351
  851SOL     OW 2582   0.550   2.058   2.747
  851SOL    HW1 2583   0.545   2.053   2.847
  851SOL    HW2 2584   0.552   2.154   2.718
  852SOL     OW 2585   1.008   3.318   2.339
  852SOL    HW1 2586   0.962   3.390   2.287
  852SOL    HW2 2587   1.004   3.338   2.437
  853SOL     OW 2588   0.351   3.663   2.715
  853SOL    HW1 2589   0.401   3.577   2.721
  853SOL    HW2 2590   0.416   3.740   2.712
  854SOL     OW 2591   1.795   2.928   2.735
  854SOL    HW1 2592   1.733   2.913   2.659
  854SOL    HW2 2593   1.743   2.939   2.820
  855SOL     OW 2594   1.227   3.412   3.368
  855SOL    HW1 2595   1.233   3.335   3.432
  855SOL    HW2 2596   1.175   3.386   3.288
  856SOL     OW 2597   0.321   2.805   2.104
  856SOL    HW1 2598   0.403   2.844   2.062
  856SOL    HW2 2599   0.294   2.723   2.055
  857SOL     OW 2600   1.458   2.597   2.590
  857SOL    HW1 2601   1.453   2.532   2.665
  857SOL    HW2 2602   1.538   2.656   2.603
  858SOL     OW 2603   0.461   3.128   3.589
  858SOL    HW1 2604   0.411   3.129   3.503
  858SOL    HW2 2605   0.398   3.110   3.665
  859SOL     OW 2606   1.111   3.638   2.099
  859SOL    HW1 2607   1.051   3.576   2.149
  859SOL    HW2 2608   1.142   3.594   2.014
  860SOL     OW 2609   0.202   2.147   3.360
  860SOL    HW1 2610   0.122   2.207   3.347
  860SOL    HW2 2611   0.192   2.098   3.446
  861SOL     OW 2612   1.632   3.239   1.943
  861SOL    HW1 2613   1.600   3.333   1.933
  861SOL    HW2 2614   1.556   3.176   1.931
  862SOL     OW 2615   0.464   3.605   2.185
  862SOL    HW1 2616   0.497   3.644   2.271
  862SOL    HW2 2617   0.540   3.598   2.120
  863SOL     OW 2618   1.400   1.969   2.288
  863SOL    HW1 2619   1.376   1.932   2.198
  863SOL    HW2 2620   1.499   1.985   2.292
  864SOL     OW 2621   0.249   3.647   3.103
  864SOL    HW1 2622   0.306   3.582   3.153
  864SOL    HW2 2623   0.233   3.614   3.010
  865SOL     OW 2624   0.940   3.560   2.766
  865SOL    HW1 2625   1.020   3.503   2.787
  865SOL    HW2 2626   0.891   3.520   2.689
  866SOL     OW 2627   0.382   2.562   2.342
  866SOL    HW1 2628   0.427   2.472   2.339
  866SOL    HW2 2629   0.288   2.551   2.375
  867SOL     OW 2630   1.547   2.084   3.591
  867SOL    HW1 2631   1.542   2.121   3.683
  867SOL    HW2 2632   1.475   2.015   3.579
  868SOL     OW 2633   0.614   1.984   1.979
  868SOL    HW1 2634   0.712   1.962   1.986
  868SOL    HW2 2635   0.583   1.967   1.886
  869SOL     OW 2636   0.781   2.126   3.611
  869SOL    HW1 2637   0.848   2.065   3.654
  869SOL    HW2 2638   0.708   2.145   3.676
  870SOL     OW 2639   0.888   3.376   3.057
  870SOL    HW1 2640   0.865   3.351   2.963
  870SOL    HW2 2641   0.949   3.307   3.096
  871SOL     OW 2642   1.351   2.452   3.295
  871SOL    HW1 2643   1.379   2.409   3.380
  871SOL    HW2 2644   1.376   2.548   3.296
  872SOL     OW 2645   0.803   3.264   2.786
  872SOL    HW1 2646   0.893   3.278   2.744
  872SOL    HW2 2647   0.732   3.266   2.715
  873SOL     OW 2648   0.922   2.365   2.761
  873SOL    HW1 2649   0.897   2.356   2.665
  873SOL    HW2 2650   0.970   2.283   2.792
  874SOL     OW 2651   0.539   1.926   2.374
  874SOL    HW1 2652   0.458   1.927   2.432
  874SOL    HW2 2653   0.542   2.009   2.319
  875SOL     OW 2654   1.434   3.050   1.903
  875SOL    HW1 2655   1.466   2.974   1.960
  875SOL    HW2 2656   1.342   3.077   1.933
  876SOL     OW 2657   0.297   1.897   2.033
  876SOL    HW1 2658   0.346   1.981   2.012
  876SOL    HW2 2659   0.359   1.832   2.078
  877SOL     OW 2660   0.935   2.098   2.342
  877SOL    HW1 2661   0.887   2.139   2.264
  877SOL    HW2 2662   1.034   2.096   2.323
  878SOL     OW 2663   1.076   2.545   3.326
  878SOL    HW1 2664   0.996   2.484   3.329
  878SOL    HW2 2665   1.157   2.492   3.302
  879SOL     OW 2666   1.227   3.432   2.655
  879SOL    HW1 2667   1.248   3.506   2.590
  879SOL    HW2 2668   1.295   3.432   2.728
  880SOL     OW 2669   0.459   3.014   2.603
  880SOL    HW1 2670   0.388   2.987   2.668
  880SOL    HW2 2671   0.433   2.986   2.510
  881SOL     OW 2672   1.271   3.659   2.453
  881SOL    HW1 2673   1.315   3.723   2.389
  881SOL    HW2 2674   1.221   3.711   2.523
  882SOL     OW 2675   1.032   2.411   1.878
  882SOL    HW1 2676   0.991   2.493   1.839
  882SOL    HW2 2677   1.096   2.437   1.951
  883SOL     OW 2678   0.078   2.418   3.248
  883SOL    HW1 2679   0.170   2.417   3.207
  883SOL    HW2 2680   0.072   2.492   3.315
  884SOL     OW 2681   0.561   2.084   3.009
  884SOL    HW1 2682   0.599   2.000   3.046
  884SOL    HW2 2683   0.473   2.103   3.053
  885SOL     OW 2684   0.866   2.316   2.504
  885SOL    HW1 2685   0.834   2.388   2.442
  885SOL    HW2 2686   0.890   2.235   2.451
  886SOL     OW 2687   1.017   1.901   2.615
  886SOL    HW1 2688   0.945   1.906   2.546
  886SOL    HW2 2689   0.993   1.832   2.684
  887SOL     OW 2690   1.429   3.035   2.729
  887SOL    HW1 2691   1.374   2.951   2.722
  887SOL    HW2 2692   1.455   3.064   2.637
  888SOL     OW 2693   1.466   2.452   2.854
  888SOL    HW1 2694   1.436   2.357   2.861
  888SOL    HW2 2695   1.539   2.468   2.920
  889SOL     OW 2696   1.857   2.695   2.239
  889SOL    HW1 2697   1.899   2.631   2.303
  889SOL    HW2 2698   1.819   2.644   2.161
  890SOL     OW 2699   0.488   3.247   2.036
  890SOL    HW1 2700   0.401   3.232   2.083
  890SOL    HW2 2701   0.471   3.273   1.941
  891SOL     OW 2702   1.664   3.142   2.519
  891SOL    HW1 2703   1.763   3.150   2.533
  891SOL    HW2 2704   1.619   3.226   2.550
  892SOL     OW 2705   1.390   2.437   1.940
  892SOL    HW1 2706   1.336   2.416   2.021
  892SOL    HW2 2707   1.481   2.396   1.949
  893SOL     OW 2708   0.527   2.118   2.190
  893SOL    HW1 2709   0.554   2.059   2.115
  893SOL    HW2 2710   0.527   2.213   2.159
  894SOL     OW 2711   1.754   3.085   3.450
  894SOL    HW1 2712   1.845   3.046   3.437
  894SOL    HW2 2713   1.762   3.181   3.474
  895SOL     OW 2714   1.064   3.209   3.202
  895SOL    HW1 2715   0.984   3.186   3.257
  895SOL    HW2 2716   1.147   3.183   3.251
  896SOL     OW 2717   1.592   3.491   3.487
  896SOL    HW1 2718   1.619   3.525   3.397
  896SOL    HW2 2719   1.671   3.453   3.533
  897SOL     OW 2720   1.111   3.057   2.962
  897SOL    HW1 2721   1.071   3.101   3.043
  897SOL    HW2 2722   1.070   3.094   2.879
  898SOL     OW 2723   1.638   2.961   2.941
  898SOL    HW1 2724   1.643   3.042   3.000
  898SOL    HW2 2725   1.552   2.963   2.890
  899SOL     OW 2726   0.915   1.951   3.264
  899SOL    HW1 2727   0.940   1.931   3.169
  899SOL    HW2 2728   0.987   2.007   3.306
  900SOL     OW 2729   0.980   2.978   3.581
  900SOL    HW1 2730   0.881   2.984   3.591
  900SOL    HW2 2731   1.003   2.898   3.525
  901SOL     OW 2732   0.705   2.912   2.230
  901SOL    HW1 2733   0.691   2.919   2.329
  901SOL    HW2 2734   0.789   2.861   2.212
  902SOL     OW 2735   0.410   2.675   3.113
  902SOL    HW1 2736   0.496   2.687   3.163
  902SOL    HW2 2737   0.368   2.588   3.140
  903SOL     OW 2738   1.274   2.248   3.124
  903SOL    HW1 2739   1.295   2.322   3.188
  903SOL    HW2 2740   1.185   2.265   3.081
  904SOL     OW 2741   0.064   3.426   3.193
  904SOL    HW1 2742   0.018   3.508   3.159
  904SOL    HW2 2743   0.162   3.445   3.202
  905SOL     OW 2744   0.367   2.962   2.363
  905SOL    HW1 2745   0.360   3.045   2.307
  905SOL    HW2 2746   0.371   2.882   2.303
  906SOL     OW 2747   0.566   2.399   2.727
  906SOL    HW1 2748   0.578   2.465   2.653
  906SOL    HW2 2749   0.612   2.433   2.810
  907SOL     OW 2750   1.252   3.210   2.250
  907SOL    HW1 2751   1.302   3.287   2.290
  907SOL    HW2 2752   1.157   3.212   2.282
  908SOL     OW 2753   1.272   3.307   3.004
  908SOL    HW1 2754   1.319   3.320   3.091
  908SOL    HW2 2755   1.206   3.233   3.013
  909SOL     OW 2756   1.582   2.501   2.334
  909SOL    HW1 2757   1.551   2.562   2.407
  909SOL    HW2 2758   1.632   2.553   2.265
  910SOL     OW 2759   0.354   3.372   3.191
  910SOL    HW1 2760   0.333   3.328   3.104
  910SOL    HW2 2761   0.451   3.398   3.194
  911SOL     OW 2762   0.402   2.613   3.460
  911SOL    HW1 2763   0.470   2.668   3.413
  911SOL    HW2 2764   0.442   2.525   3.487
  912SOL     OW 2765   1.587   2.641   3.532
  912SOL    HW1 2766   1.495   2.679   3.527
  912SOL    HW2 2767   1.647   2.688   3.467
  913SOL     OW 2768   1.013   1.967   3.632
  913SOL    HW1 2769   1.019   2.052   3.580
  913SOL    HW2 2770   1.045   1.891   3.575
  914SOL     OW 2771   0.504   1.912   3.602
  914SOL    HW1 2772   0.462   1.855   3.532
  914SOL    HW2 2773   0.438   1.981   3.634
  915SOL     OW 2774   0.573   2.732   2.891
  915SOL    HW1 2775   0.617   2.821   2.882
  915SOL    HW2 2776   0.510   2.732   2.968
  916SOL     OW 2777   1.360   2.724   2.907
  916SOL    HW1 2778   1.285   2.724   2.841
  916SOL    HW2 2779   1.397   2.632   2.916
  917SOL     OW 2780   1.209   2.387   2.137
  917SOL    HW1 2781   1.222   2.303   2.191
  917SOL    HW2 2782   1.180   2.461   2.197
  918SOL     OW 2783   0.307   2.075   3.093
  918SOL    HW1 2784   0.284   2.112   3.183
  918SOL    HW2 2785   0.277   1.980   3.087
  919SOL     OW 2786   0.037   3.172   3.144
  919SOL    HW1 2787   0.090   3.123   3.212
  919SOL    HW2 2788   0.059   3.270   3.149
  920SOL     OW 2789   0.732   2.496   2.926
  920SOL    HW1 2790   0.791   2.470   2.850
  920SOL    HW2 2791   0.704   2.592   2.915
  921SOL     OW 2792   1.728   2.797   3.716
  921SOL    HW1 2793   1.682   2.790   3.627
  921SOL    HW2 2794   1.666   2.841   3.782
  922SOL     OW 2795   0.307   1.925   2.480
  922SOL    HW1 2796   0.296   2.019   2.513
  922SOL    HW2 2797   0.302   1.862   2.557
  923SOL     OW 2798   1.622   2.229   2.236
  923SOL    HW1 2799   1.624   2.153   2.300
  923SOL    HW2 2800   1.574   2.306   2.276
  924SOL     OW 2801   1.023   2.628   2.828
  924SOL    HW1 2802   1.038   2.649   2.924
  924SOL    HW2 2803   0.993   2.533   2.819
  925SOL     OW 2804   0.980   3.435   3.562
  925SOL    HW1 2805   0.960   3.479   3.474
  925SOL    HW2 2806   1.019   3.344   3.546
  926SOL     OW 2807   1.859   3.380   3.467
  926SOL    HW1 2808   1.873   3.407   3.372
  926SOL    HW2 2809   1.942   3.402   3.520
  927SOL     OW 2810   0.350   2.760   3.666
  927SOL    HW1 2811   0.426   2.804   3.714
  927SOL    HW2 2812   0.385   2.713   3.584
  928SOL     OW 2813   1.540   2.136   1.987
  928SOL    HW1 2814   1.479   2.061   2.010
  928SOL    HW2 2815   1.562   2.188   2.070
  929SOL     OW 2816   1.303   2.700   1.904
  929SOL    HW1 2817   1.337   2.607   1.919
  929SOL    HW2 2818   1.321   2.727   1.809
  930SOL     OW 2819   1.068   3.195   2.711
  930SOL    HW1 2820   1.075   3.111   2.656
  930SOL    HW2 2821   1.130   3.264   2.675
  931SOL     OW 2822   0.319   2.672   2.811
  931SOL    HW1 2823   0.412   2.708   2.816
  931SOL    HW2 2824   0.313   2.587   2.863
  932SOL     OW 2825   0.339   2.371   2.868
  932SOL    HW1 2826   0.287   2.288   2.851
  932SOL    HW2 2827   0.416   2.376   2.804
  933SOL     OW 2828   1.138   2.242   3.540
  933SOL    HW1 2829   1.093   2.305   3.604
  933SOL    HW2 2830   1.231   2.273   3.523
  934SOL     OW 2831   1.160   2.069   3.339
  934SOL    HW1 2832   1.160   2.133   3.416
  934SOL    HW2 2833   1.188   2.117   3.256
  935SOL     OW 2834   0.008   3.188   2.062
  935SOL    HW1 2835  -0.085   3.209   2.031
  935SOL    HW2 2836   0.018   3.089   2.075
  936SOL     OW 2837   0.088   3.663   2.789
  936SOL    HW1 2838   0.046   3.577   2.762
  936SOL    HW2 2839   0.182   3.666   2.755
  937SOL     OW 2840   0.504   3.430   2.772
  937SOL    HW1 2841   0.570   3.504   2.781
  937SOL    HW2 2842   0.548   3.351   2.730
  938SOL     OW 2843   1.002   2.658   3.100
  938SOL    HW1 2844   1.043   2.626   3.186
  938SOL    HW2 2845   0.906   2.631   3.097
  939SOL     OW 2846   0.040   2.406   2.976
  939SOL    HW1 2847   0.125   2.373   2.935
  939SOL    HW2 2848   0.053   2.421   3.074
  940SOL     OW 2849   0.189   2.382   3.584
  940SOL    HW1 2850   0.248   2.342   3.514
  940SOL    HW2 2851   0.131   2.453   3.543
  941SOL     OW 2852   1.369   2.812   3.522
  941SOL    HW1 2853   1.408   2.901   3.542
  941SOL    HW2 2854   1.379   2.792   3.425
  942SOL     OW 2855   0.815   2.434   2.187
  942SOL    HW1 2856   0.822   2.345   2.141
  942SOL    HW2 2857   0.721   2.468   2.179
  943SOL     OW 2858   1.657   2.466   3.068
  943SOL    HW1 2859   1.619   2.397   3.130
  943SOL    HW2 2860   1.739   2.430   3.024
  944SOL     OW 2861   0.252   3.426   3.606
  944SOL    HW1 2862   0.222   3.483   3.682
  944SOL    HW2 2863   0.245   3.329   3.632
  945SOL     OW 2864   0.671   2.326   3.131
  945SOL    HW1 2865   0.637   2.237   3.101
  945SOL    HW2 2866   0.697   2.380   3.051
  946SOL     OW 2867   0.930   3.540   3.327
  946SOL    HW1 2868   0.906   3.522   3.232
  946SOL    HW2 2869   0.960   3.634   3.337
  947SOL     OW 2870   0.473   2.362   2.053
  947SOL    HW1 2871   0.534   2.442   2.057
  947SOL    HW2 2872   0.378   2.393   2.060
  948SOL     OW 2873   0.159   2.999   3.328
  948SOL    HW1 2874   0.181   2.938   3.404
  948SOL    HW2 2875   0.169   2.950   3.242
  949SOL     OW 2876   1.347   2.921   3.096
  949SOL    HW1 2877   1.371   2.858   3.022
  949SOL    HW2 2878   1.257   2.961   3.078
  950SOL     OW 2879   1.302   2.717   2.171
  950SOL    HW1 2880   1.216   2.686   2.213
  950SOL    HW2 2881   1.298   2.703   2.072
  951SOL     OW 2882   1.759   3.609   3.016
  951SOL    HW1 2883   1.820   3.639   2.943
  951SOL    HW2 2884   1.721   3.520   2.994
  952SOL     OW 2885   1.252   3.593   2.990
  952SOL    HW1 2886   1.336   3.598   2.936
  952SOL    HW2 2887   1.229   3.497   3.008
  953SOL     OW 2888   0.083   3.120   2.884
  953SOL    HW1 2889   0.078   3.119   2.984
  953SOL    HW2 2890   0.000   3.079   2.846
  954SOL     OW 2891   0.688   3.524   3.578
  954SOL    HW1 2892   0.632   3.605   3.587
  954SOL    HW2 2893   0.740   3.528   3.492
  955SOL     OW 2894   1.726   1.997   2.385
  955SOL    HW1 2895   1.799   1.980   2.318
  955SOL    HW2 2896   1.695   1.910   2.423
  956SOL     OW 2897   1.388   3.435   2.339
  956SOL    HW1 2898   1.455   3.447   2.265
  956SOL    HW2 2899   1.348   3.524   2.362
  957SOL     OW 2900   0.130   3.656   3.713
  957SOL    HW1 2901   0.089   3.582   3.766
  957SOL    HW2 2902   0.194   3.707   3.771
  958SOL     OW 2903   1.280   2.789   2.534
  958SOL    HW1 2904   1.340   2.708   2.536
  958SOL    HW2 2905   1.320   2.858   2.474
  959SOL     OW 2906   0.830   3.135   3.284
  959SOL    HW1 2907   0.825   3.168   3.379
  959SOL    HW2 2908   0.744   3.154   3.238
  960SOL     OW 2909   0.672   3.478   2.016
  960SOL    HW1 2910   0.681   3.488   1.917
  960SOL    HW2 2911   0.632   3.389   2.037
  961SOL     OW 2912   1.650   3.582   3.256
  961SOL    HW1 2913   1.703   3.592   3.172
  961SOL    HW2 2914   1.623   3.672   3.290
  962SOL     OW 2915   1.841   2.037   2.825
  962SOL    HW1 2916   1.880   1.952   2.789
  962SOL    HW2 2917   1.743   2.039   2.806
  963SOL     OW 2918   0.263   2.188   2.582
  963SOL    HW1 2919   0.184   2.239   2.548
  963SOL    HW2 2920   0.254   2.173   2.680
  964SOL     OW 2921   1.194   3.474   1.893
  964SOL    HW1 2922   1.200   3.381   1.930
  964SOL    HW2 2923   1.135   3.474   1.813
  965SOL     OW 2924   0.822   2.864   3.234
  965SOL    HW1 2925   0.862   2.863   3.142
  965SOL    HW2 2926   0.832   2.956   3.274
  966SOL     OW 2927   0.916   2.772   2.153
  966SOL    HW1 2928   0.979   2.810   2.085
  966SOL    HW2 2929   0.956   2.689   2.192
  967SOL     OW 2930   1.504   3.469   1.906
  967SOL    HW1 2931   1.412   3.506   1.913
  967SOL    HW2 2932   1.542   3.489   1.816
  968SOL     OW 2933   0.372   3.150   3.352
  968SOL    HW1 2934   0.359   3.243   3.318
  968SOL    HW2 2935   0.288   3.098   3.339
  969SOL     OW 2936   1.614   3.154   3.151
  969SOL    HW1 2937   1.674   3.157   3.231
  969SOL    HW2 2938   1.539   3.218   3.164
  970SOL     OW 2939   1.039   2.960   2.558
  970SOL    HW1 2940   0.969   2.913   2.612
  970SOL    HW2 2941   1.098   2.892   2.515
  971SOL     OW 2942   1.014   2.098   2.833
  971SOL    HW1 2943   1.006   2.062   2.740
  971SOL    HW2 2944   1.012   2.022   2.898
  972SOL     OW 2945   0.590   3.349   2.353
  972SOL    HW1 2946   0.632   3.291   2.283
  972SOL    HW2 2947   0.546   3.428   2.309
  973SOL     OW 2948   1.709   2.247   3.243
  973SOL    HW1 2949   1.782   2.316   3.247
  973SOL    HW2 2950   1.737   2.172   3.184
  974SOL     OW 2951   0.255   3.210   2.152
  974SOL    HW1 2952   0.159   3.211   2.125
  974SOL    HW2 2953   0.267   3.263   2.236
  975SOL     OW 2954   0.105   2.875   3.588
  975SOL    HW1 2955   0.028   2.842   3.642
  975SOL    HW2 2956   0.190   2.845   3.630
  976SOL     OW 2957   0.672   2.065   3.351
  976SOL    HW1 2958   0.762   2.049   3.311
  976SOL    HW2 2959   0.680   2.070   3.450
  977SOL     OW 2960   0.075   2.207   1.895
  977SOL    HW1 2961  -0.017   2.179   1.866
  977SOL    HW2 2962   0.106   2.284   1.839
  978SOL     OW 2963   1.440   2.718   3.260
  978SOL    HW1 2964   1.383   2.770   3.197
  978SOL    HW2 2965   1.536   2.730   3.236
  979SOL     OW 2966   0.072   2.028   2.180
  979SOL    HW1 2967   0.055   2.111   2.126
  979SOL    HW2 2968   0.162   1.991   2.158
  980SOL     OW 2969   1.183   3.197   1.981
  980SOL    HW1 2970   1.084   3.186   1.983
  980SOL    HW2 2971   1.217   3.212   2.074
  981SOL     OW 2972   0.613   2.704   3.293
  981SOL    HW1 2973   0.669   2.785   3.276
  981SOL    HW2 2974   0.672   2.624   3.296
  982SOL     OW 2975   1.493   3.629   2.821
  982SOL    HW1 2976   1.526   3.693   2.752
  982SOL    HW2 2977   1.559   3.623   2.896
  983SOL     OW 2978   0.716   2.427   3.570
  983SOL    HW1 2979   0.735   2.492   3.644
  983SOL    HW2 2980   0.776   2.347   3.579
  984SOL     OW 2981   1.450   3.082   3.495
  984SOL    HW1 2982   1.441   3.072   3.594
  984SOL    HW2 2983   1.546   3.075   3.469
  985SOL     OW 2984   0.390   3.603   3.422
  985SOL    HW1 2985   0.299   3.644   3.420
  985SOL    HW2 2986   0.383   3.509   3.454
  986SOL     OW 2987   1.674   2.745   3.116
  986SOL    HW1 2988   1.647   2.656   3.079
  986SOL    HW2 2989   1.675   2.813   3.043
  987SOL     OW 2990   1.225   2.187   2.311
  987SOL    HW1 2991   1.290   2.113   2.300
  987SOL    HW2 2992   1.245   2.237   2.395
  988SOL     OW 2993   0.594   2.607   2.514
  988SOL    HW1 2994   0.644   2.692   2.495
  988SOL    HW2 2995   0.506   2.609   2.466
  989SOL     OW 2996   1.777   2.204   3.504
  989SOL    HW1 2997   1.760   2.235   3.410
  989SOL    HW2 2998   1.693   2.167   3.542
  990SOL     OW 2999   1.730   2.796   3.379
  990SOL    HW1 3000   1.768   2.887   3.394
  990SOL    HW2 3001   1.722   2.779   3.280
  991SOL     OW 3002   0.859   3.236   1.878
  991SOL    HW1 3003   0.813   3.251   1.966
  991SOL    HW2 3004   0.903   3.321   1.848
  992SOL     OW 3005   0.661   3.652   2.815
  992SOL    HW1 3006   0.615   3.740   2.802
  992SOL    HW2 3007   0.760   3.664   2.808
  993SOL     OW 3008   0.859   2.818   2.723
  993SOL    HW1 3009   0.913   2.749   2.771
  993SOL    HW2 3010   0.827   2.887   2.789
  994SOL     OW 3011   1.083   2.846   1.949
  994SOL    HW1 3012   1.060   2.899   1.867
  994SOL    HW2 3013   1.164   2.790   1.930
  995SOL     OW 3014   1.861   3.431   2.713
  995SOL    HW1 3015   1.790   3.419   2.643
  995SOL    HW2 3016   1.862   3.352   2.773
  996SOL     OW 3017   0.221   3.176   3.706
  996SOL    HW1 3018   0.156   3.103   3.685
  996SOL    HW2 3019   0.225   3.190   3.804
  997SOL     OW 3020   0.079   3.102   2.515
  997SOL    HW1 3021   0.078   3.055   2.603
  997SOL    HW2 3022   0.161   3.074   2.464
  998SOL     OW 3023   0.672   3.253   3.486
  998SOL    HW1 3024   0.594   3.203   3.524
  998SOL    HW2 3025   0.669   3.348   3.517
  999SOL     OW 3026   1.824   2.054   3.089
  999SOL    HW1 3027   1.820   1.964   3.133
  999SOL    HW2 3028   1.827   2.043   2.990
 1000SOL     OW 3029   0.428   2.286   2.382
 1000SOL    HW1 3030   0.458   2.214   2.320
 1000SOL    HW2 3031   0.389   2.246   2.465
 1001SOL     OW 3032   1.705   3.349   2.966
 1001SOL    HW1 3033   1.612   3.324   2.939
 1001SOL    HW2 3034   1.731   3.299   3.048
 1002SOL     OW 3035   0.317   2.409   3.142
 1002SOL    HW1 3036   0.355   2.350   3.214
 1002SOL    HW2 3037   0.357   2.383   3.054
 1003SOL     OW 3038   0.812   3.448   2.549
 1003SOL    HW1 3039   0.844   3.458   2.455
 1003SOL    HW2 3040   0.733   3.386   2.551
 1004SOL     OW 3041   1.424   2.076   2.974
 1004SOL    HW1 3042   1.476   2.011   3.029
 1004SOL    HW2 3043   1.375   2.139   3.035
 1005SOL     OW 3044   1.001   1.896   3.016
 1005SOL    HW1 3045   0.938   1.824   2.985
 1005SOL    HW2 3046   1.094   1.860   3.016
 1006SOL     OW 3047   0.770   3.192   2.163
 1006SOL    HW1 3048   0.724   3.105   2.180
 1006SOL    HW2 3049   0.861   3.189   2.204
 1007SOL     OW 3050   0.618   3.429   3.146
 1007SOL    HW1 3051   0.613   3.511   3.203
 1007SOL    HW2 3052   0.707   3.426   3.101
 1008SOL     OW 3053   1.352   1.914   2.030
 1008SOL    HW1 3054   1.387   1.873   1.946
 1008SOL    HW2 3055   1.262   1.876   2.050
 1009SOL     OW 3056   1.300   2.315   2.553
 1009SOL    HW1 3057   1.241   2.395   2.557
 1009SOL    HW2 3058   1.315   2.280   2.646
 1010SOL     OW 3059   1.593   2.083   2.744
 1010SOL    HW1 3060   1.509   2.082   2.798
 1010SOL    HW2 3061   1.595   2.166   2.688
 1011SOL     OW 3062   0.039   2.939   2.162
 1011SOL    HW1 3063   0.138   2.928   2.153
 1011SOL    HW2 3064  -0.001   2.853   2.194
 1012SOL     OW 3065   0.875   3.508   2.199
 1012SOL    HW1 3066   0.798   3.473   2.145
 1012SOL    HW2 3067   0.843   3.579   2.261
 1013SOL     OW 3068   0.230   2.490   3.837
 1013SOL    HW1 3069   0.137   2.488   3.874
 1013SOL    HW2 3070   0.231   2.451   3.745
 1014SOL     OW 3071   0.225   2.137   4.720
 1014SOL    HW1 3072   0.260   2.120   4.812
 1014SOL    HW2 3073   0.137   2.092   4.708
 1015SOL     OW 3074   0.019   2.230   4.371
 1015SOL    HW1 3075  -0.063   2.273   4.410
 1015SOL    HW2 3076  -0.009   2.157   4.308
 1016SOL     OW 3077   0.569   3.137   4.889
 1016SOL    HW1 3078   0.476   3.130   4.852
 1016SOL    HW2 3079   0.580   3.226   4.933
 1017SOL     OW 3080   1.555   3.373   4.427
 1017SOL    HW1 3081   1.498   3.357   4.508
 1017SOL    HW2 3082   1.496   3.383   4.347
 1018SOL     OW 3083   1.135   2.565   4.441
 1018SOL    HW1 3084   1.192   2.643   4.416
 1018SOL    HW2 3085   1.075   2.591   4.517
 1019SOL     OW 3086   1.755   2.469   3.955
 1019SOL    HW1 3087   1.743   2.456   3.856
 1019SOL    HW2 3088   1.725   2.388   4.004
 1020SOL     OW 3089   0.768   3.006   4.747
 1020SOL    HW1 3090   0.690   3.023   4.807
 1020SOL    HW2 3091   0.802   3.093   4.711
 1021SOL     OW 3092   0.685   2.874   4.389
 1021SOL    HW1 3093   0.754   2.858   4.459
 1021SOL    HW2 3094   0.612   2.931   4.427
 1022SOL     OW 3095   0.335   3.297   4.785
 1022SOL    HW1 3096   0.257   3.266   4.732
 1022SOL    HW2 3097   0.393   3.355   4.728
 1023SOL     OW 3098   0.438   2.254   5.223
 1023SOL    HW1 3099   0.520   2.198   5.232
 1023SOL    HW2 3100   0.357   2.196   5.227
 1024SOL     OW 3101   1.603   2.309   4.461
 1024SOL    HW1 3102   1.529   2.355   4.411
 1024SOL    HW2 3103   1.654   2.377   4.514
 1025SOL     OW 3104   0.231   3.575   4.207
 1025SOL    HW1 3105   0.265   3.652   4.261
 1025SOL    HW2 3106   0.275   3.575   4.117
 1026SOL     OW 3107   0.230   3.296   4.262
 1026SOL    HW1 3108   0.204   3.392   4.262
 1026SOL    HW2 3109   0.159   3.242   4.307
 1027SOL     OW 3110   0.240   2.953   4.610
 1027SOL    HW1 3111   0.254   2.869   4.662
 1027SOL    HW2 3112   0.185   3.017   4.665
 1028SOL     OW 3113   0.620   3.648   5.163
 1028SOL    HW1 3114   0.528   3.631   5.198
 1028SOL    HW2 3115   0.648   3.740   5.189
 1029SOL     OW 3116   0.606   2.826   3.847
 1029SOL    HW1 3117   0.613   2.910   3.793
 1029SOL    HW2 3118   0.652   2.839   3.935
 1030SOL     OW 3119   0.122   2.505   4.287
 1030SOL    HW1 3120   0.077   2.417   4.304
 1030SOL    HW2 3121   0.121   2.559   4.371
 1031SOL     OW 3122   1.842   3.629   4.083
 1031SOL    HW1 3123   1.896   3.600   4.163
 1031SOL    HW2 3124   1.872   3.719   4.054
 1032SOL     OW 3125   0.027   3.458   3.841
 1032SOL    HW1 3126   0.008   3.362   3.862
 1032SOL    HW2 3127  -0.006   3.516   3.916
 1033SOL     OW 3128   1.689   2.784   4.336
 1033SOL    HW1 3129   1.784   2.755   4.344
 1033SOL    HW2 3130   1.681   2.849   4.261
 1034SOL     OW 3131   1.641   2.970   4.156
 1034SOL    HW1 3132   1.727   2.972   4.104
 1034SOL    HW2 3133   1.655   3.017   4.244
 1035SOL     OW 3134   0.613   3.227   4.450
 1035SOL    HW1 3135   0.564   3.140   4.459
 1035SOL    HW2 3136   0.590   3.270   4.363
 1036SOL     OW 3137   0.809   1.866   4.226
 1036SOL    HW1 3138   0.849   1.957   4.217
 1036SOL    HW2 3139   0.709   1.874   4.232
 1037SOL     OW 3140   0.197   2.838   4.988
 1037SOL    HW1 3141   0.286   2.793   4.974
 1037SOL    HW2 3142   0.124   2.773   4.969
 1038SOL     OW 3143   1.525   2.861   3.914
 1038SOL    HW1 3144   1.462   2.785   3.927
 1038SOL    HW2 3145   1.573   2.879   4.000
 1039SOL     OW 3146   1.466   3.279   4.677
 1039SOL    HW1 3147   1.407   3.285   4.757
 1039SOL    HW2 3148   1.451   3.191   4.631
 1040SOL     OW 3149   1.667   3.576   4.296
 1040SOL    HW1 3150   1.626   3.553   4.208
 1040SOL    HW2 3151   1.649   3.502   4.361
 1041SOL     OW 3152   0.598   2.591   3.994
 1041SOL    HW1 3153   0.622   2.660   3.926
 1041SOL    HW2 3154   0.520   2.624   4.048
 1042SOL     OW 3155   1.281   2.207   4.668
 1042SOL    HW1 3156   1.195   2.157   4.655
 1042SOL    HW2 3157   1.343   2.153   4.724
 1043SOL     OW 3158   1.576   3.524   4.031
 1043SOL    HW1 3159   1.665   3.570   4.034
 1043SOL    HW2 3160   1.555   3.500   3.936
 1044SOL     OW 3161   0.807   2.467   5.189
 1044SOL    HW1 3162   0.760   2.464   5.278
 1044SOL    HW2 3163   0.756   2.412   5.123
 1045SOL     OW 3164   0.991   2.272   4.966
 1045SOL    HW1 3165   0.914   2.306   5.020
 1045SOL    HW2 3166   0.957   2.221   4.887
 1046SOL     OW 3167   1.041   2.563   4.153
 1046SOL    HW1 3168   1.067   2.559   4.249
 1046SOL    HW2 3169   0.956   2.512   4.139
 1047SOL     OW 3170   0.076   2.673   4.513
 1047SOL    HW1 3171   0.175   2.661   4.522
 1047SOL    HW2 3172   0.052   2.768   4.534
 1048SOL     OW 3173   0.130   3.683   5.295
 1048SOL    HW1 3174   0.120   3.668   5.394
 1048SOL    HW2 3175   0.044   3.719   5.259
 1049SOL     OW 3176   0.865   2.210   3.919
 1049SOL    HW1 3177   0.924   2.273   3.870
 1049SOL    HW2 3178   0.884   2.116   3.890
 1050SOL     OW 3179   1.362   3.006   4.269
 1050SOL    HW1 3180   1.445   2.977   4.221
 1050SOL    HW2 3181   1.313   3.073   4.213
 1051SOL     OW 3182   0.550   2.058   4.609
 1051SOL    HW1 3183   0.545   2.053   4.709
 1051SOL    HW2 3184   0.552   2.154   4.580
 1052SOL     OW 3185   1.008   3.318   4.201
 1052SOL    HW1 3186   0.962   3.390   4.149
 1052SOL    HW2 3187   1.004   3.338   4.299
 1053SOL     OW 3188   0.351   3.663   4.577
 1053SOL    HW1 3189   0.401   3.577   4.583
 1053SOL    HW2 3190   0.416   3.740   4.574
 1054SOL     OW 3191   1.795   2.928   4.597
 1054SOL    HW1 3192   1.733   2.913   4.521
 1054SOL    HW2 3193   1.743   2.939   4.682
 1055SOL     OW 3194   0.321   2.805   3.966
 1055SOL    HW1 3195   0.403   2.844   3.924
 1055SOL    HW2 3196   0.294   2.723   3.917
 1056SOL     OW 3197   1.458   2.597   4.452
 1056SOL    HW1 3198   1.453   2.532   4.527
 1056SOL    HW2 3199   1.538   2.656   4.465
 1057SOL     OW 3200   1.111   3.638   3.961
 1057SOL    HW1 3201   1.051   3.576   4.011
 1057SOL    HW2 3202   1.142   3.594   3.876
 1058SOL     OW 3203   1.632   3.239   3.805
 1058SOL    HW1 3204   1.600   3.333   3.795
 1058SOL    HW2 3205   1.556   3.176   3.793
 1059SOL     OW 3206   0.464   3.605   4.047
 1059SOL    HW1 3207   0.497   3.644   4.133
 1059SOL    HW2 3208   0.540   3.598   3.982
 1060SOL     OW 3209   1.400   1.969   4.150
 1060SOL    HW1 3210   1.376   1.932   4.060
 1060SOL    HW2 3211   1.499   1.985   4.154
 1061SOL     OW 3212   0.249   3.647   4.965
 1061SOL    HW1 3213   0.306   3.582   5.015
 1061SOL    HW2 3214   0.233   3.614   4.872
 1062SOL     OW 3215   0.940   3.560   4.628
 1062SOL    HW1 3216   1.020   3.503   4.649
 1062SOL    HW2 3217   0.891   3.520   4.551
 1063SOL     OW 3218   0.382   2.562   4.204
 1063SOL    HW1 3219   0.427   2.472   4.201
 1063SOL    HW2 3220   0.288   2.551   4.237
 1064SOL     OW 3221   0.614   1.984   3.841
 1064SOL    HW1 3222   0.712   1.962   3.848
 1064SOL    HW2 3223   0.583   1.967   3.748
 1065SOL     OW 3224   0.888   3.376   4.919
 1065SOL    HW1 3225   0.865   3.351   4.825
 1065SOL    HW2 3226   0.949   3.307   4.958
 1066SOL     OW 3227   0.803   3.264   4.648
 1066SOL    HW1 3228   0.893   3.278   4.606
 1066SOL    HW2 3229   0.732   3.266   4.577
 1067SOL     OW 3230   0.922   2.365   4.623
 1067SOL    HW1 3231   0.897   2.356   4.527
 1067SOL    HW2 3232   0.970   2.283   4.654
 1068SOL     OW 3233   0.539   1.926   4.236
 1068SOL    HW1 3234   0.458   1.927   4.294
 1068SOL    HW2 3235   0.542   2.009   4.181
 1069SOL     OW 3236   1.434   3.050   3.765
 1069SOL    HW1 3237   1.466   2.974   3.822
 1069SOL    HW2 3238   1.342   3.077   3.795
 1070SOL     OW 3239   0.297   1.897   3.895
 1070SOL    HW1 3240   0.346   1.981   3.874
 1070SOL    HW2 3241   0.359   1.832   3.940
 1071SOL     OW 3242   0.935   2.098   4.204
 1071SOL    HW1 3243   0.887   2.139   4.126
 1071SOL    HW2 3244   1.034   2.096   4.185
 1072SOL     OW 3245   1.227   3.432   4.517
 1072SOL    HW1 3246   1.248   3.506   4.452
 1072SOL    HW2 3247   1.295   3.432   4.590
 1073SOL     OW 3248   0.459   3.014   4.465
 1073SOL    HW1 3249   0.388   2.987   4.530
 1073SOL    HW2 3250   0.433   2.986   4.372
 1074SOL     OW 3251   1.271   3.659   4.315
 1074SOL    HW1 3252   1.315   3.723   4.251
 1074SOL    HW2 3253   1.221   3.711   4.385
 1075SOL     OW 3254   1.032   2.411   3.740
 1075SOL    HW1 3255   0.991   2.493   3.701
 1075SOL    HW2 3256   1.096   2.437   3.813
 1076SOL     OW 3257   0.561   2.084   4.871
 1076SOL    HW1 3258   0.599   2.000   4.908
 1076SOL    HW2 3259   0.473   2.103   4.915
 1077SOL     OW 3260   0.866   2.316   4.366
 1077SOL    HW1 3261   0.834   2.388   4.304
 1077SOL    HW2 3262   0.890   2.235   4.313
 1078SOL     OW 3263   1.017   1.901   4.477
 1078SOL    HW1 3264   0.945   1.906   4.408
 1078SOL    HW2 3265   0.993   1.832   4.546
 1079SOL     OW 3266   1.429   3.035   4.591
 1079SOL    HW1 3267   1.374   2.951   4.584
 1079SOL    HW2 3268   1.455   3.064   4.499
 1080SOL     OW 3269   1.466   2.452   4.716
 1080SOL    HW1 3270   1.436   2.357   4.723
 1080SOL    HW2 3271   1.539   2.468   4.782
 1081SOL     OW 3272   1.857   2.695   4.101
 1081SOL    HW1 3273   1.899   2.631   4.165
 1081SOL    HW2 3274   1.819   2.644   4.023
 1082SOL     OW 3275   0.488   3.247   3.898
 1082SOL    HW1 3276   0.401   3.232   3.945
 1082SOL    HW2 3277   0.471   3.273   3.803
 1083SOL     OW 3278   1.664   3.142   4.381
 1083SOL    HW1 3279   1.763   3.150   4.395
 1083SOL    HW2 3280   1.619   3.226   4.412
 1084SOL     OW 3281   1.390   2.437   3.802
 1084SOL    HW1 3282   1.336   2.416   3.883
 1084SOL    HW2 3283   1.481   2.396   3.811
 1085SOL     OW 3284   0.527   2.118   4.052
 1085SOL    HW1 3285   0.554   2.059   3.977
 1085SOL    HW2 3286   0.527   2.213   4.021
 1086SOL     OW 3287   1.754   3.085   5.312
 1086SOL    HW1 3288   1.845   3.046   5.299
 1086SOL    HW2 3289   1.762   3.181   5.336
 1087SOL     OW 3290   1.111   3.057   4.824
 1087SOL    HW1 3291   1.071   3.101   4.905
 1087SOL    HW2 3292   1.070   3.094   4.741
 1088SOL     OW 3293   1.638   2.961   4.803
 1088SOL    HW1 3294   1.643   3.042   4.862
 1088SOL    HW2 3295   1.552   2.963   4.752
 1089SOL     OW 3296   0.705   2.912   4.092
 1089SOL    HW1 3297   0.691   2.919   4.191
 1089SOL    HW2 3298   0.789   2.861   4.074
 1090SOL     OW 3299   0.410   2.675   4.975
 1090SOL    HW1 3300   0.496   2.687   5.025
 1090SOL    HW2 3301   0.368   2.588   5.002
 1091SOL     OW 3302   1.274   2.248   4.986
 1091SOL    HW1 3303   1.295   2.322   5.050
 1091SOL    HW2 3304   1.185   2.265   4.943
 1092SOL     OW 3305   0.064   3.426   5.055
 1092SOL    HW1 3306   0.018   3.508   5.021
 1092SOL    HW2 3307   0.162   3.445   5.064
 1093SOL     OW 3308   0.367   2.962   4.225
 1093SOL    HW1 3309   0.360   3.045   4.169
 1093SOL    HW2 3310   0.371   2.882   4.165
 1094SOL     OW 3311   0.566   2.399   4.589
 1094SOL    HW1 3312   0.578   2.465   4.515
 1094SOL    HW2 3313   0.612   2.433   4.672
 1095SOL     OW 3314   1.252   3.210   4.112
 1095SOL    HW1 3315   1.302   3.287   4.152
 1095SOL    HW2 3316   1.157   3.212   4.144
 1096SOL     OW 3317   1.272   3.307   4.866
 1096SOL    HW1 3318   1.319   3.320   4.953
 1096SOL    HW2 3319   1.206   3.233   4.875
 1097SOL     OW 3320   1.582   2.501   4.196
 1097SOL    HW1 3321   1.551   2.562   4.269
 1097SOL    HW2 3322   1.632   2.553   4.127
 1098SOL     OW 3323   0.354   3.372   5.053
 1098SOL    HW1 3324   0.333   3.328   4.966
 1098SOL    HW2 3325   0.451   3.398   5.056
 1099SOL     OW 3326   0.573   2.732   4.753
 1099SOL    HW1 3327   0.617   2.821   4.744
 1099SOL    HW2 3328   0.510   2.732   4.830
 1100SOL     OW 3329   1.360   2.724   4.769
 1100SOL    HW1 3330   1.285   2.724   4.703
 1100SOL    HW2 3331   1.397   2.632   4.778
 1101SOL     OW 3332   1.209   2.387   3.999
 1101SOL    HW1 3333   1.222   2.303   4.053
 1101SOL    HW2 3334   1.180   2.461   4.059
 1102SOL     OW 3335   0.307   2.075   4.955
 1102SOL    HW1 3336   0.284   2.112   5.045
 1102SOL    HW2 3337   0.277   1.980   4.949
 1103SOL     OW 3338   0.037   3.172   5.006
 1103SOL    HW1 3339   0.090   3.123   5.074
 1103SOL    HW2 3340   0.059   3.270   5.011
 1104SOL     OW 3341   0.732   2.496   4.788
 1104SOL    HW1 3342   0.791   2.470   4.712
 1104SOL    HW2 3343   0.704   2.592   4.777
 1105SOL     OW 3344   0.307   1.925   4.342
 1105SOL    HW1 3345   0.296   2.019   4.375
 1105SOL    HW2 3346   0.302   1.862   4.419
 1106SOL     OW 3347   1.622   2.229   4.098
 1106SOL    HW1 3348   1.624   2.153   4.162
 1106SOL    HW2 3349   1.574   2.306   4.138
 1107SOL     OW 3350   1.023   2.628   4.690
 1107SOL    HW1 3351   1.038   2.649   4.786
 1107SOL    HW2 3352   0.993   2.533   4.681
 1108SOL     OW 3353   1.540   2.136   3.849
 1108SOL    HW1 3354   1.479   2.061   3.872
 1108SOL    HW2 3355   1.562   2.188   3.932
 1109SOL     OW 3356   1.303   2.700   3.766
 1109SOL    HW1 3357   1.337   2.607   3.781
 1109SOL    HW2 3358   1.321   2.727   3.671
 1110SOL     OW 3359   1.068   3.195   4.573
 1110SOL    HW1 3360   1.075   3.111   4.518
 1110SOL    HW2 3361   1.130   3.264   4.537
 1111SOL     OW 3362   0.319   2.672   4.673
 1111SOL    HW1 3363   0.412   2.708   4.678
 1111SOL    HW2 3364   0.313   2.587   4.725
 1112SOL     OW 3365   0.339   2.371   4.730
 1112SOL    HW1 3366   0.287   2.288   4.713
 1112SOL    HW2 3367   0.416   2.376   4.666
 1113SOL     OW 3368   1.160   2.069   5.201
 1113SOL    HW1 3369   1.160   2.133   5.278
 1113SOL    HW2 3370   1.188   2.117   5.118
 1114SOL     OW 3371   0.008   3.188   3.924
 1114SOL    HW1 3372  -0.085   3.209   3.893
 1114SOL    HW2 3373   0.018   3.089   3.937
 1115SOL     OW 3374   0.088   3.663   4.651
 1115SOL    HW1 3375   0.046   3.577   4.624
 1115SOL    HW2 3376   0.182   3.666   4.617
 1116SOL     OW 3377   0.504   3.430   4.634
 1116SOL    HW1 3378   0.570   3.504   4.643
 1116SOL    HW2 3379   0.548   3.351   4.592
 1117SOL     OW 3380   1.002   2.658   4.962
 1117SOL    HW1 3381   1.043   2.626   5.048
 1117SOL    HW2 3382   0.906   2.631   4.959
 1118SOL     OW 3383   0.040   2.406   4.838
 1118SOL    HW1 3384   0.125   2.373   4.797
 1118SOL    HW2 3385   0.053   2.421   4.936
 1119SOL     OW 3386   0.815   2.434   4.049
 1119SOL    HW1 3387   0.822   2.345   4.003
 1119SOL    HW2 3388   0.721   2.468   4.041
 1120SOL     OW 3389   1.657   2.466   4.930
 1120SOL    HW1 3390   1.619   2.397   4.992
 1120SOL    HW2 3391   1.739   2.430   4.886
 1121SOL     OW 3392   0.671   2.326   4.993
 1121SOL    HW1 3393   0.637   2.237   4.963
 1121SOL    HW2 3394   0.697   2.380   4.913
 1122SOL     OW 3395   0.930   3.540   5.189
 1122SOL    HW1 3396   0.906   3.522   5.094
 1122SOL    HW2 3397   0.960   3.634   5.199
 1123SOL     OW 3398   0.473   2.362   3.915
 1123SOL    HW1 3399   0.534   2.442   3.919
 1123SOL    HW2 3400   0.378   2.393   3.922
 1124SOL     OW 3401   0.159   2.999   5.190
 1124SOL    HW1 3402   0.181   2.938   5.266
 1124SOL    HW2 3403   0.169   2.950   5.104
 1125SOL     OW 3404   1.347   2.921   4.958
 1125SOL    HW1 3405   1.371   2.858   4.884
 1125SOL    HW2 3406   1.257   2.961   4.940
 1126SOL     OW 3407   1.302   2.717   4.033
 1126SOL    HW1 3408   1.216   2.686   4.075
 1126SOL    HW2 3409   1.298   2.703   3.934
 1127SOL     OW 3410   1.759   3.609   4.878
 1127SOL    HW1 3411   1.820   3.639   4.805
 1127SOL    HW2 3412   1.721   3.520   4.856
 1128SOL     OW 3413   1.252   3.593   4.852
 1128SOL    HW1 3414   1.336   3.598   4.798
 1128SOL    HW2 3415   1.229   3.497   4.870
 1129SOL     OW 3416   0.083   3.120   4.746
 1129SOL    HW1 3417   0.078   3.119   4.846
 1129SOL    HW2 3418   0.000   3.079   4.708
 1130SOL     OW 3419   1.726   1.997   4.247
 1130SOL    HW1 3420   1.799   1.980   4.180
 1130SOL    HW2 3421   1.695   1.910   4.285
 1131SOL     OW 3422   1.388   3.435   4.201
 1131SOL    HW1 3423   1.455   3.447   4.127
 1131SOL    HW2 3424   1.348   3.524   4.224
 1132SOL     OW 3425   1.280   2.789   4.396
 1132SOL    HW1 3426   1.340   2.708   4.398
 1132SOL    HW2 3427   1.320   2.858   4.336
 1133SOL     OW 3428   0.672   3.478   3.878
 1133SOL    HW1 3429   0.681   3.488   3.779
 1133SOL    HW2 3430   0.632   3.389   3.899
 1134SOL     OW 3431   1.841   2.037   4.687
 1134SOL    HW1 3432   1.880   1.952   4.651
 1134SOL    HW2 3433   1.743   2.039   4.668
 1135SOL     OW 3434   0.263   2.188   4.444
 1135SOL    HW1 3435   0.184   2.239   4.410
 1135SOL    HW2 3436   0.254   2.173   4.542
 1136SOL     OW 3437   1.194   3.474   3.755
 1136SOL    HW1 3438   1.200   3.381   3.792
 1136SOL    HW2 3439   1.135   3.474   3.675
 1137SOL     OW 3440   0.822   2.864   5.096
 1137SOL    HW1 3441   0.862   2.863   5.004
 1137SOL    HW2 3442   0.832   2.956   5.136
 1138SOL     OW 3443   0.916   2.772   4.015
 1138SOL    HW1 3444   0.979   2.810   3.947
 1138SOL    HW2 3445   0.956   2.689   4.054
 1139SOL     OW 3446   1.504   3.469   3.768
 1139SOL    HW1 3447   1.412   3.506   3.775
 1139SOL    HW2 3448   1.542   3.489   3.678
 1140SOL     OW 3449   1.614   3.154   5.013
 1140SOL    HW1 3450   1.674   3.157   5.093
 1140SOL    HW2 3451   1.539   3.218   5.026
 1141SOL     OW 3452   1.039   2.960   4.420
 1141SOL    HW1 3453   0.969   2.913   4.474
 1141SOL    HW2 3454   1.098   2.892   4.377
 1142SOL     OW 3455   1.014   2.098   4.695
 1142SOL    HW1 3456   1.006   2.062   4.602
 1142SOL    HW2 3457   1.012   2.022   4.760
 1143SOL     OW 3458   0.590   3.349   4.215
 1143SOL    HW1 3459   0.632   3.291   4.145
 1143SOL    HW2 3460   0.546   3.428   4.171
 1144SOL     OW 3461   1.709   2.247   5.105
 1144SOL    HW1 3462   1.782   2.316   5.109
 1144SOL    HW2 3463   1.737   2.172   5.046
 1145SOL     OW 3464   0.255   3.210   4.014
 1145SOL    HW1 3465   0.159   3.211   3.987
 1145SOL    HW2 3466   0.267   3.263   4.098
 1146SOL     OW 3467   0.672   2.065   5.213
 1146SOL    HW1 3468   0.762   2.049   5.173
 1146SOL    HW2 3469   0.680   2.070   5.312
 1147SOL     OW 3470   0.075   2.207   3.757
 1147SOL    HW1 3471  -0.017   2.179   3.728
 1147SOL    HW2 3472   0.106   2.284   3.701
 1148SOL     OW 3473   0.072   2.028   4.042
 1148SOL    HW1 3474   0.055   2.111   3.988
 1148SOL    HW2 3475   0.162   1.991   4.020
 1149SOL     OW 3476   1.183   3.197   3.843
 1149SOL    HW1 3477   1.084   3.186   3.845
 1149SOL    HW2 3478   1.217   3.212   3.936
 1150SOL     OW 3479   0.613   2.704   5.155
 1150SOL    HW1 3480   0.669   2.785   5.138
 1150SOL    HW2 3481   0.672   2.624   5.158
 1151SOL     OW 3482   1.493   3.629   4.683
 1151SOL    HW1 3483   1.526   3.693   4.614
 1151SOL    HW2 3484   1.559   3.623   4.758
 1152SOL     OW 3485   0.390   3.603   5.284
 1152SOL    HW1 3486   0.299   3.644   5.282
 1152SOL    HW2 3487   0.383   3.509   5.316
 1153SOL     OW 3488   1.674   2.745   4.978
 1153SOL    HW1 3489   1.647   2.656   4.941
 1153SOL    HW2 3490   1.675   2.813   4.905
 1154SOL     OW 3491   1.225   2.187   4.173
 1154SOL    HW1 3492   1.290   2.113   4.162
 1154SOL    HW2 3493   1.245   2.237   4.257
 1155SOL     OW 3494   0.594   2.607   4.376
 1155SOL    HW1 3495   0.644   2.692   4.357
 1155SOL    HW2 3496   0.506   2.609   4.328
 1156SOL     OW 3497   1.730   2.796   5.241
 1156SOL    HW1 3498   1.768   2.887   5.256
 1156SOL    HW2 3499   1.722   2.779   5.142
 1157SOL     OW 3500   0.859   3.236   3.740
 1157SOL    HW1 3501   0.813   3.251   3.828
 1157SOL    HW2 3502   0.903   3.321   3.710
 1158SOL     OW 3503   0.661   3.652   4.677
 1158SOL    HW1 3504   0.615   3.740   4.664
 1158SOL    HW2 3505   0.760   3.664   4.670
 1159SOL     OW 3506   0.859   2.818   4.585
 1159SOL    HW1 3507   0.913   2.749   4.633
 1159SOL    HW2 3508   0.827   2.887   4.651
 1160SOL     OW 3509   1.083   2.846   3.811
 1160SOL    HW1 3510   1.060   2.899   3.729
 1160SOL    HW2 3511   1.164   2.790   3.792
 1161SOL     OW 3512   1.861   3.431   4.575
 1161SOL    HW1 3513   1.790   3.419   4.505
 1161SOL    HW2 3514   1.862   3.352   4.635
 1162SOL     OW 3515   0.079   3.102   4.377
 1162SOL    HW1 3516   0.078   3.055   4.465
 1162SOL    HW2 3517   0.161   3.074   4.326
 1163SOL     OW 3518   1.824   2.054   4.951
 1163SOL    HW1 3519   1.820   1.964   4.995
 1163SOL    HW2 3520   1.827   2.043   4.852
 1164SOL     OW 3521   0.428   2.286   4.244
 1164SOL    HW1 3522   0.458   2.214   4.182
 1164SOL    HW2 3523   0.389   2.246   4.327
 1165SOL     OW 3524   1.705   3.349   4.828
 1165SOL    HW1 3525   1.612   3.324   4.801
 1165SOL    HW2 3526   1.731   3.299   4.910
 1166SOL     OW 3527   0.317   2.409   5.004
 1166SOL    HW1 3528   0.355   2.350   5.076
 1166SOL    HW2 3529   0.357   2.383   4.916
 1167SOL     OW 3530   0.812   3.448   4.411
 1167SOL    HW1 3531   0.844   3.458   4.317
 1167SOL    HW2 3532   0.733   3.386   4.413
 1168SOL     OW 3533   1.424   2.076   4.836
 1168SOL    HW1 3534   1.476   2.011   4.891
 1168SOL    HW2 3535   1.375   2.139   4.897
 1169SOL     OW 3536   1.001   1.896   4.878
 1169SOL    HW1 3537   0.938   1.824   4.847
 1169SOL    HW2 3538   1.094   1.860   4.878
 1170SOL     OW 3539   0.770   3.192   4.025
 1170SOL    HW1 3540   0.724   3.105   4.042
 1170SOL    HW2 3541   0.861   3.189   4.066
 1171SOL     OW 3542   0.618   3.429   5.008
 1171SOL    HW1 3543   0.613   3.511   5.065
 1171SOL    HW2 3544   0.707   3.426   4.963
 1172SOL     OW 3545   1.352   1.914   3.892
 1172SOL    HW1 3546   1.387   1.873   3.808
 1172SOL    HW2 3547   1.262   1.876   3.912
 1173SOL     OW 3548   1.300   2.315   4.415
 1173SOL    HW1 3549   1.241   2.395   4.419
 1173SOL    HW2 3550   1.315   2.280   4.508
 1174SOL     OW 3551   1.593   2.083   4.606
 1174SOL    HW1 3552   1.509   2.082   4.660
 1174SOL    HW2 3553   1.595   2.166   4.550
 1175SOL     OW 3554   0.039   2.939   4.024
 1175SOL    HW1 3555   0.138   2.928   4.015
 1175SOL    HW2 3556  -0.001   2.853   4.056
 1176SOL     OW 3557   0.875   3.508   4.061
 1176SOL    HW1 3558   0.798   3.473   4.007
 1176SOL    HW2 3559   0.843   3.579   4.123
 1177SOL     OW 3560   0.230   4.352   0.113
 1177SOL    HW1 3561   0.137   4.350   0.150
 1177SOL    HW2 3562   0.231   4.313   0.021
 1178SOL     OW 3563   0.225   3.999   0.996
 1178SOL    HW1 3564   0.260   3.982   1.088
 1178SOL    HW2 3565   0.137   3.954   0.984
 1179SOL     OW 3566   0.019   4.092   0.647
 1179SOL    HW1 3567  -0.063   4.135   0.686
 1179SOL    HW2 3568  -0.009   4.019   0.584
 1180SOL     OW 3569   0.569   4.999   1.165
 1180SOL    HW1 3570   0.476   4.992   1.128
 1180SOL    HW2 3571   0.580   5.088   1.209
 1181SOL     OW 3572   1.555   5.235   0.703
 1181SOL    HW1 3573   1.498   5.219   0.784
 1181SOL    HW2 3574   1.496   5.245   0.623
 1182SOL     OW 3575   1.135   4.427   0.717
 1182SOL    HW1 3576   1.192   4.505   0.692
 1182SOL    HW2 3577   1.075   4.453   0.793
 1183SOL     OW 3578   1.755   4.331   0.231
 1183SOL    HW1 3579   1.743   4.318   0.132
 1183SOL    HW2 3580   1.725   4.250   0.280
 1184SOL     OW 3581   0.768   4.868   1.023
 1184SOL    HW1 3582   0.690   4.885   1.083
 1184SOL    HW2 3583   0.802   4.955   0.987
 1185SOL     OW 3584   0.850   4.522   1.823
 1185SOL    HW1 3585   0.846   4.598   1.888
 1185SOL    HW2 3586   0.872   4.558   1.732
 1186SOL     OW 3587   0.685   4.736   0.665
 1186SOL    HW1 3588   0.754   4.720   0.735
 1186SOL    HW2 3589   0.612   4.793   0.703
 1187SOL     OW 3590   0.686   4.885   1.803
 1187SOL    HW1 3591   0.746   4.964   1.817
 1187SOL    HW2 3592   0.600   4.916   1.762
 1188SOL     OW 3593   0.335   5.159   1.061
 1188SOL    HW1 3594   0.257   5.128   1.008
 1188SOL    HW2 3595   0.393   5.217   1.004
 1189SOL     OW 3596   0.438   4.116   1.499
 1189SOL    HW1 3597   0.520   4.060   1.508
 1189SOL    HW2 3598   0.357   4.058   1.503
 1190SOL     OW 3599   1.603   4.171   0.737
 1190SOL    HW1 3600   1.529   4.217   0.687
 1190SOL    HW2 3601   1.654   4.239   0.790
 1191SOL     OW 3602   0.240   4.815   0.886
 1191SOL    HW1 3603   0.254   4.731   0.938
 1191SOL    HW2 3604   0.185   4.879   0.941
 1192SOL     OW 3605   0.606   4.688   0.123
 1192SOL    HW1 3606   0.613   4.772   0.069
 1192SOL    HW2 3607   0.652   4.701   0.211
 1193SOL     OW 3608   1.594   3.838   1.480
 1193SOL    HW1 3609   1.576   3.905   1.408
 1193SOL    HW2 3610   1.591   3.884   1.569
 1194SOL     OW 3611   0.122   4.367   0.563
 1194SOL    HW1 3612   0.077   4.279   0.580
 1194SOL    HW2 3613   0.121   4.421   0.647
 1195SOL     OW 3614   1.689   4.646   0.612
 1195SOL    HW1 3615   1.784   4.617   0.620
 1195SOL    HW2 3616   1.681   4.711   0.537
 1196SOL     OW 3617   1.641   4.832   0.432
 1196SOL    HW1 3618   1.727   4.834   0.380
 1196SOL    HW2 3619   1.655   4.879   0.520
 1197SOL     OW 3620   0.113   4.461   1.597
 1197SOL    HW1 3621   0.201   4.448   1.642
 1197SOL    HW2 3622   0.100   4.558   1.575
 1198SOL     OW 3623   0.613   5.089   0.726
 1198SOL    HW1 3624   0.564   5.002   0.735
 1198SOL    HW2 3625   0.590   5.132   0.639
 1199SOL     OW 3626   1.293   4.952   1.423
 1199SOL    HW1 3627   1.330   4.879   1.365
 1199SOL    HW2 3628   1.345   4.957   1.508
 1200SOL     OW 3629   0.809   3.728   0.502
 1200SOL    HW1 3630   0.849   3.819   0.493
 1200SOL    HW2 3631   0.709   3.736   0.508
 1201SOL     OW 3632   0.197   4.700   1.264
 1201SOL    HW1 3633   0.286   4.655   1.250
 1201SOL    HW2 3634   0.124   4.635   1.245
 1202SOL     OW 3635   1.525   4.723   0.190
 1202SOL    HW1 3636   1.462   4.647   0.203
 1202SOL    HW2 3637   1.573   4.741   0.276
 1203SOL     OW 3638   0.317   3.975   1.801
 1203SOL    HW1 3639   0.388   4.046   1.807
 1203SOL    HW2 3640   0.229   4.014   1.829
 1204SOL     OW 3641   1.466   5.141   0.953
 1204SOL    HW1 3642   1.407   5.147   1.033
 1204SOL    HW2 3643   1.451   5.053   0.907
 1205SOL     OW 3644   0.598   4.453   0.270
 1205SOL    HW1 3645   0.622   4.522   0.202
 1205SOL    HW2 3646   0.520   4.486   0.324
 1206SOL     OW 3647   1.281   4.069   0.944
 1206SOL    HW1 3648   1.195   4.019   0.931
 1206SOL    HW2 3649   1.343   4.015   1.000
 1207SOL     OW 3650   0.807   4.329   1.465
 1207SOL    HW1 3651   0.760   4.326   1.554
 1207SOL    HW2 3652   0.756   4.274   1.399
 1208SOL     OW 3653   1.394   4.193   1.674
 1208SOL    HW1 3654   1.374   4.236   1.762
 1208SOL    HW2 3655   1.472   4.131   1.683
 1209SOL     OW 3656   0.973   4.614   1.572
 1209SOL    HW1 3657   1.019   4.530   1.543
 1209SOL    HW2 3658   0.917   4.648   1.497
 1210SOL     OW 3659   0.991   4.134   1.242
 1210SOL    HW1 3660   0.914   4.168   1.296
 1210SOL    HW2 3661   0.957   4.083   1.163
 1211SOL     OW 3662   1.041   4.425   0.429
 1211SOL    HW1 3663   1.067   4.421   0.525
 1211SOL    HW2 3664   0.956   4.374   0.415
 1212SOL     OW 3665   0.076   4.535   0.789
 1212SOL    HW1 3666   0.175   4.523   0.798
 1212SOL    HW2 3667   0.052   4.630   0.810
 1213SOL     OW 3668   0.865   4.072   0.195
 1213SOL    HW1 3669   0.924   4.135   0.146
 1213SOL    HW2 3670   0.884   3.978   0.166
 1214SOL     OW 3671   1.719   4.309   1.831
 1214SOL    HW1 3672   1.693   4.398   1.795
 1214SOL    HW2 3673   1.717   4.241   1.758
 1215SOL     OW 3674   1.362   4.868   0.545
 1215SOL    HW1 3675   1.445   4.839   0.497
 1215SOL    HW2 3676   1.313   4.935   0.489
 1216SOL     OW 3677   0.550   3.920   0.885
 1216SOL    HW1 3678   0.545   3.915   0.985
 1216SOL    HW2 3679   0.552   4.016   0.856
 1217SOL     OW 3680   1.795   4.790   0.873
 1217SOL    HW1 3681   1.733   4.775   0.797
 1217SOL    HW2 3682   1.743   4.801   0.958
 1218SOL     OW 3683   0.321   4.667   0.242
 1218SOL    HW1 3684   0.403   4.706   0.200
 1218SOL    HW2 3685   0.294   4.585   0.193
 1219SOL     OW 3686   1.458   4.459   0.728
 1219SOL    HW1 3687   1.453   4.394   0.803
 1219SOL    HW2 3688   1.538   4.518   0.741
 1220SOL     OW 3689   0.461   4.990   1.727
 1220SOL    HW1 3690   0.411   4.991   1.641
 1220SOL    HW2 3691   0.398   4.972   1.803
 1221SOL     OW 3692   0.202   4.009   1.498
 1221SOL    HW1 3693   0.122   4.069   1.485
 1221SOL    HW2 3694   0.192   3.960   1.584
 1222SOL     OW 3695   1.632   5.101   0.081
 1222SOL    HW1 3696   1.600   5.195   0.071
 1222SOL    HW2 3697   1.556   5.038   0.069
 1223SOL     OW 3698   1.400   3.831   0.426
 1223SOL    HW1 3699   1.376   3.794   0.336
 1223SOL    HW2 3700   1.499   3.847   0.430
 1224SOL     OW 3701   0.382   4.424   0.480
 1224SOL    HW1 3702   0.427   4.334   0.477
 1224SOL    HW2 3703   0.288   4.413   0.513
 1225SOL     OW 3704   1.547   3.946   1.729
 1225SOL    HW1 3705   1.542   3.983   1.821
 1225SOL    HW2 3706   1.475   3.877   1.717
 1226SOL     OW 3707   0.781   3.988   1.749
 1226SOL    HW1 3708   0.848   3.927   1.792
 1226SOL    HW2 3709   0.708   4.007   1.814
 1227SOL     OW 3710   1.351   4.314   1.433
 1227SOL    HW1 3711   1.379   4.271   1.518
 1227SOL    HW2 3712   1.376   4.410   1.434
 1228SOL     OW 3713   0.922   4.227   0.899
 1228SOL    HW1 3714   0.897   4.218   0.803
 1228SOL    HW2 3715   0.970   4.145   0.930
 1229SOL     OW 3716   0.539   3.788   0.512
 1229SOL    HW1 3717   0.458   3.789   0.570
 1229SOL    HW2 3718   0.542   3.871   0.457
 1230SOL     OW 3719   1.434   4.912   0.041
 1230SOL    HW1 3720   1.466   4.836   0.098
 1230SOL    HW2 3721   1.342   4.939   0.071
 1231SOL     OW 3722   0.935   3.960   0.480
 1231SOL    HW1 3723   0.887   4.001   0.402
 1231SOL    HW2 3724   1.034   3.958   0.461
 1232SOL     OW 3725   1.076   4.407   1.464
 1232SOL    HW1 3726   0.996   4.346   1.467
 1232SOL    HW2 3727   1.157   4.354   1.440
 1233SOL     OW 3728   1.227   5.294   0.793
 1233SOL    HW1 3729   1.248   5.368   0.728
 1233SOL    HW2 3730   1.295   5.294   0.866
 1234SOL     OW 3731   0.459   4.876   0.741
 1234SOL    HW1 3732   0.388   4.849   0.806
 1234SOL    HW2 3733   0.433   4.848   0.648
 1235SOL     OW 3734   1.032   4.273   0.016
 1235SOL    HW1 3735   0.991   4.355  -0.023
 1235SOL    HW2 3736   1.096   4.299   0.089
 1236SOL     OW 3737   0.078   4.280   1.386
 1236SOL    HW1 3738   0.170   4.279   1.345
 1236SOL    HW2 3739   0.072   4.354   1.453
 1237SOL     OW 3740   0.561   3.946   1.147
 1237SOL    HW1 3741   0.599   3.862   1.184
 1237SOL    HW2 3742   0.473   3.965   1.191
 1238SOL     OW 3743   0.866   4.178   0.642
 1238SOL    HW1 3744   0.834   4.250   0.580
 1238SOL    HW2 3745   0.890   4.097   0.589
 1239SOL     OW 3746   1.017   3.763   0.753
 1239SOL    HW1 3747   0.945   3.768   0.684
 1239SOL    HW2 3748   0.993   3.694   0.822
 1240SOL     OW 3749   1.429   4.897   0.867
 1240SOL    HW1 3750   1.374   4.813   0.860
 1240SOL    HW2 3751   1.455   4.926   0.775
 1241SOL     OW 3752   1.466   4.314   0.992
 1241SOL    HW1 3753   1.436   4.219   0.999
 1241SOL    HW2 3754   1.539   4.330   1.058
 1242SOL     OW 3755   1.857   4.557   0.377
 1242SOL    HW1 3756   1.899   4.493   0.441
 1242SOL    HW2 3757   1.819   4.506   0.299
 1243SOL     OW 3758   1.664   5.004   0.657
 1243SOL    HW1 3759   1.763   5.012   0.671
 1243SOL    HW2 3760   1.619   5.088   0.688
 1244SOL     OW 3761   1.390   4.299   0.078
 1244SOL    HW1 3762   1.336   4.278   0.159
 1244SOL    HW2 3763   1.481   4.258   0.087
 1245SOL     OW 3764   0.527   3.980   0.328
 1245SOL    HW1 3765   0.554   3.921   0.253
 1245SOL    HW2 3766   0.527   4.075   0.297
 1246SOL     OW 3767   1.754   4.947   1.588
 1246SOL    HW1 3768   1.845   4.908   1.575
 1246SOL    HW2 3769   1.762   5.043   1.612
 1247SOL     OW 3770   1.064   5.071   1.340
 1247SOL    HW1 3771   0.984   5.048   1.395
 1247SOL    HW2 3772   1.147   5.045   1.389
 1248SOL     OW 3773   1.111   4.919   1.100
 1248SOL    HW1 3774   1.071   4.963   1.181
 1248SOL    HW2 3775   1.070   4.956   1.017
 1249SOL     OW 3776   1.638   4.823   1.079
 1249SOL    HW1 3777   1.643   4.904   1.138
 1249SOL    HW2 3778   1.552   4.825   1.028
 1250SOL     OW 3779   0.915   3.813   1.402
 1250SOL    HW1 3780   0.940   3.793   1.307
 1250SOL    HW2 3781   0.987   3.869   1.444
 1251SOL     OW 3782   0.980   4.840   1.719
 1251SOL    HW1 3783   0.881   4.846   1.729
 1251SOL    HW2 3784   1.003   4.760   1.663
 1252SOL     OW 3785   0.705   4.774   0.368
 1252SOL    HW1 3786   0.691   4.781   0.467
 1252SOL    HW2 3787   0.789   4.723   0.350
 1253SOL     OW 3788   0.410   4.537   1.251
 1253SOL    HW1 3789   0.496   4.549   1.301
 1253SOL    HW2 3790   0.368   4.450   1.278
 1254SOL     OW 3791   1.274   4.110   1.262
 1254SOL    HW1 3792   1.295   4.184   1.326
 1254SOL    HW2 3793   1.185   4.127   1.219
 1255SOL     OW 3794   0.064   5.288   1.331
 1255SOL    HW1 3795   0.018   5.370   1.297
 1255SOL    HW2 3796   0.162   5.307   1.340
 1256SOL     OW 3797   0.367   4.824   0.501
 1256SOL    HW1 3798   0.360   4.907   0.445
 1256SOL    HW2 3799   0.371   4.744   0.441
 1257SOL     OW 3800   0.566   4.261   0.865
 1257SOL    HW1 3801   0.578   4.327   0.791
 1257SOL    HW2 3802   0.612   4.295   0.948
 1258SOL     OW 3803   1.252   5.072   0.388
 1258SOL    HW1 3804   1.302   5.149   0.428
 1258SOL    HW2 3805   1.157   5.074   0.420
 1259SOL     OW 3806   1.582   4.363   0.472
 1259SOL    HW1 3807   1.551   4.424   0.545
 1259SOL    HW2 3808   1.632   4.415   0.403
 1260SOL     OW 3809   0.402   4.475   1.598
 1260SOL    HW1 3810   0.470   4.530   1.551
 1260SOL    HW2 3811   0.442   4.387   1.625
 1261SOL     OW 3812   1.587   4.503   1.670
 1261SOL    HW1 3813   1.495   4.541   1.665
 1261SOL    HW2 3814   1.647   4.550   1.605
 1262SOL     OW 3815   1.013   3.829   1.770
 1262SOL    HW1 3816   1.019   3.914   1.718
 1262SOL    HW2 3817   1.045   3.753   1.713
 1263SOL     OW 3818   0.504   3.774   1.740
 1263SOL    HW1 3819   0.462   3.717   1.670
 1263SOL    HW2 3820   0.438   3.843   1.772
 1264SOL     OW 3821   0.573   4.594   1.029
 1264SOL    HW1 3822   0.617   4.683   1.020
 1264SOL    HW2 3823   0.510   4.594   1.106
 1265SOL     OW 3824   1.360   4.586   1.045
 1265SOL    HW1 3825   1.285   4.586   0.979
 1265SOL    HW2 3826   1.397   4.494   1.054
 1266SOL     OW 3827   1.209   4.249   0.275
 1266SOL    HW1 3828   1.222   4.165   0.329
 1266SOL    HW2 3829   1.180   4.323   0.335
 1267SOL     OW 3830   0.307   3.937   1.231
 1267SOL    HW1 3831   0.284   3.974   1.321
 1267SOL    HW2 3832   0.277   3.842   1.225
 1268SOL     OW 3833   0.037   5.034   1.282
 1268SOL    HW1 3834   0.090   4.985   1.350
 1268SOL    HW2 3835   0.059   5.132   1.287
 1269SOL     OW 3836   0.732   4.358   1.064
 1269SOL    HW1 3837   0.791   4.332   0.988
 1269SOL    HW2 3838   0.704   4.454   1.053
 1270SOL     OW 3839   1.728   4.659   1.854
 1270SOL    HW1 3840   1.682   4.652   1.765
 1270SOL    HW2 3841   1.666   4.703   1.920
 1271SOL     OW 3842   0.307   3.787   0.618
 1271SOL    HW1 3843   0.296   3.881   0.651
 1271SOL    HW2 3844   0.302   3.724   0.695
 1272SOL     OW 3845   1.622   4.091   0.374
 1272SOL    HW1 3846   1.624   4.015   0.438
 1272SOL    HW2 3847   1.574   4.168   0.414
 1273SOL     OW 3848   1.023   4.490   0.966
 1273SOL    HW1 3849   1.038   4.511   1.062
 1273SOL    HW2 3850   0.993   4.395   0.957
 1274SOL     OW 3851   1.859   5.242   1.605
 1274SOL    HW1 3852   1.873   5.269   1.510
 1274SOL    HW2 3853   1.942   5.264   1.658
 1275SOL     OW 3854   0.350   4.622   1.804
 1275SOL    HW1 3855   0.426   4.666   1.852
 1275SOL    HW2 3856   0.385   4.575   1.722
 1276SOL     OW 3857   1.540   3.998   0.125
 1276SOL    HW1 3858   1.479   3.923   0.148
 1276SOL    HW2 3859   1.562   4.050   0.208
 1277SOL     OW 3860   1.303   4.562   0.042
 1277SOL    HW1 3861   1.337   4.469   0.057
 1277SOL    HW2 3862   1.321   4.589  -0.053
 1278SOL     OW 3863   0.319   4.534   0.949
 1278SOL    HW1 3864   0.412   4.570   0.954
 1278SOL    HW2 3865   0.313   4.449   1.001
 1279SOL     OW 3866   0.339   4.233   1.006
 1279SOL    HW1 3867   0.287   4.150   0.989
 1279SOL    HW2 3868   0.416   4.238   0.942
 1280SOL     OW 3869   1.138   4.104   1.678
 1280SOL    HW1 3870   1.093   4.167   1.742
 1280SOL    HW2 3871   1.231   4.135   1.661
 1281SOL     OW 3872   1.160   3.931   1.477
 1281SOL    HW1 3873   1.160   3.995   1.554
 1281SOL    HW2 3874   1.188   3.979   1.394
 1282SOL     OW 3875   0.008   5.050   0.200
 1282SOL    HW1 3876  -0.085   5.071   0.169
 1282SOL    HW2 3877   0.018   4.951   0.213
 1283SOL     OW 3878   1.002   4.520   1.238
 1283SOL    HW1 3879   1.043   4.488   1.324
 1283SOL    HW2 3880   0.906   4.493   1.235
 1284SOL     OW 3881   0.040   4.268   1.114
 1284SOL    HW1 3882   0.125   4.235   1.073
 1284SOL    HW2 3883   0.053   4.283   1.212
 1285SOL     OW 3884   0.189   4.244   1.722
 1285SOL    HW1 3885   0.248   4.204   1.652
 1285SOL    HW2 3886   0.131   4.315   1.681
 1286SOL     OW 3887   1.369   4.674   1.660
 1286SOL    HW1 3888   1.408   4.763   1.680
 1286SOL    HW2 3889   1.379   4.654   1.563
 1287SOL     OW 3890   0.815   4.296   0.325
 1287SOL    HW1 3891   0.822   4.207   0.279
 1287SOL    HW2 3892   0.721   4.330   0.317
 1288SOL     OW 3893   1.657   4.328   1.206
 1288SOL    HW1 3894   1.619   4.259   1.268
 1288SOL    HW2 3895   1.739   4.292   1.162
 1289SOL     OW 3896   0.671   4.188   1.269
 1289SOL    HW1 3897   0.637   4.099   1.239
 1289SOL    HW2 3898   0.697   4.242   1.189
 1290SOL     OW 3899   0.473   4.224   0.191
 1290SOL    HW1 3900   0.534   4.304   0.195
 1290SOL    HW2 3901   0.378   4.255   0.198
 1291SOL     OW 3902   0.159   4.861   1.466
 1291SOL    HW1 3903   0.181   4.800   1.542
 1291SOL    HW2 3904   0.169   4.812   1.380
 1292SOL     OW 3905   1.347   4.783   1.234
 1292SOL    HW1 3906   1.371   4.720   1.160
 1292SOL    HW2 3907   1.257   4.823   1.216
 1293SOL     OW 3908   1.302   4.579   0.309
 1293SOL    HW1 3909   1.216   4.548   0.351
 1293SOL    HW2 3910   1.298   4.565   0.210
 1294SOL     OW 3911   0.083   4.982   1.022
 1294SOL    HW1 3912   0.078   4.981   1.122
 1294SOL    HW2 3913   0.000   4.941   0.984
 1295SOL     OW 3914   0.903   3.810   0.133
 1295SOL    HW1 3915   0.954   3.811   0.047
 1295SOL    HW2 3916   0.959   3.768   0.204
 1296SOL     OW 3917   1.726   3.859   0.523
 1296SOL    HW1 3918   1.799   3.842   0.456
 1296SOL    HW2 3919   1.695   3.772   0.561
 1297SOL     OW 3920   1.280   4.651   0.672
 1297SOL    HW1 3921   1.340   4.570   0.674
 1297SOL    HW2 3922   1.320   4.720   0.612
 1298SOL     OW 3923   0.830   4.997   1.422
 1298SOL    HW1 3924   0.825   5.030   1.517
 1298SOL    HW2 3925   0.744   5.016   1.376
 1299SOL     OW 3926   1.841   3.899   0.963
 1299SOL    HW1 3927   1.880   3.814   0.927
 1299SOL    HW2 3928   1.743   3.901   0.944
 1300SOL     OW 3929   0.263   4.050   0.720
 1300SOL    HW1 3930   0.184   4.101   0.686
 1300SOL    HW2 3931   0.254   4.035   0.818
 1301SOL     OW 3932   0.822   4.726   1.372
 1301SOL    HW1 3933   0.862   4.725   1.280
 1301SOL    HW2 3934   0.832   4.818   1.412
 1302SOL     OW 3935   0.916   4.634   0.291
 1302SOL    HW1 3936   0.979   4.672   0.223
 1302SOL    HW2 3937   0.956   4.551   0.330
 1303SOL     OW 3938   0.372   5.012   1.490
 1303SOL    HW1 3939   0.359   5.105   1.456
 1303SOL    HW2 3940   0.288   4.960   1.477
 1304SOL     OW 3941   1.614   5.016   1.289
 1304SOL    HW1 3942   1.674   5.019   1.369
 1304SOL    HW2 3943   1.539   5.080   1.302
 1305SOL     OW 3944   1.039   4.822   0.696
 1305SOL    HW1 3945   0.969   4.775   0.750
 1305SOL    HW2 3946   1.098   4.754   0.653
 1306SOL     OW 3947   1.014   3.960   0.971
 1306SOL    HW1 3948   1.006   3.924   0.878
 1306SOL    HW2 3949   1.012   3.884   1.036
 1307SOL     OW 3950   1.709   4.109   1.381
 1307SOL    HW1 3951   1.782   4.178   1.385
 1307SOL    HW2 3952   1.737   4.034   1.322
 1308SOL     OW 3953   0.105   4.737   1.726
 1308SOL    HW1 3954   0.028   4.704   1.780
 1308SOL    HW2 3955   0.190   4.707   1.768
 1309SOL     OW 3956   0.672   3.927   1.489
 1309SOL    HW1 3957   0.762   3.911   1.449
 1309SOL    HW2 3958   0.680   3.932   1.588
 1310SOL     OW 3959   0.075   4.069   0.033
 1310SOL    HW1 3960  -0.017   4.041   0.004
 1310SOL    HW2 3961   0.106   4.146  -0.023
 1311SOL     OW 3962   1.440   4.580   1.398
 1311SOL    HW1 3963   1.383   4.632   1.335
 1311SOL    HW2 3964   1.536   4.592   1.374
 1312SOL     OW 3965   0.072   3.890   0.318
 1312SOL    HW1 3966   0.055   3.973   0.264
 1312SOL    HW2 3967   0.162   3.853   0.296
 1313SOL     OW 3968   0.613   4.566   1.431
 1313SOL    HW1 3969   0.669   4.647   1.414
 1313SOL    HW2 3970   0.672   4.486   1.434
 1314SOL     OW 3971   0.716   4.289   1.708
 1314SOL    HW1 3972   0.735   4.354   1.782
 1314SOL    HW2 3973   0.776   4.209   1.717
 1315SOL     OW 3974   1.450   4.944   1.633
 1315SOL    HW1 3975   1.441   4.934   1.732
 1315SOL    HW2 3976   1.546   4.937   1.607
 1316SOL     OW 3977   1.674   4.607   1.254
 1316SOL    HW1 3978   1.647   4.518   1.217
 1316SOL    HW2 3979   1.675   4.675   1.181
 1317SOL     OW 3980   1.225   4.049   0.449
 1317SOL    HW1 3981   1.290   3.975   0.438
 1317SOL    HW2 3982   1.245   4.099   0.533
 1318SOL     OW 3983   0.594   4.469   0.652
 1318SOL    HW1 3984   0.644   4.554   0.633
 1318SOL    HW2 3985   0.506   4.471   0.604
 1319SOL     OW 3986   1.777   4.066   1.642
 1319SOL    HW1 3987   1.760   4.097   1.548
 1319SOL    HW2 3988   1.693   4.029   1.680
 1320SOL     OW 3989   1.730   4.658   1.517
 1320SOL    HW1 3990   1.768   4.749   1.532
 1320SOL    HW2 3991   1.722   4.641   1.418
 1321SOL     OW 3992   0.859   4.680   0.861
 1321SOL    HW1 3993   0.913   4.611   0.909
 1321SOL    HW2 3994   0.827   4.749   0.927
 1322SOL     OW 3995   1.083   4.708   0.087
 1322SOL    HW1 3996   1.060   4.761   0.005
 1322SOL    HW2 3997   1.164   4.652   0.068
 1323SOL     OW 3998   0.221   5.038   1.844
 1323SOL    HW1 3999   0.156   4.965   1.823
 1323SOL    HW2 4000   0.225   5.052   1.942
 1324SOL     OW 4001   0.079   4.964   0.653
 1324SOL    HW1 4002   0.078   4.917   0.741
 1324SOL    HW2 4003   0.161   4.936   0.602
 1325SOL     OW 4004   0.672   5.115   1.624
 1325SOL    HW1 4005   0.594   5.065   1.662
 1325SOL    HW2 4006   0.669   5.210   1.655
 1326SOL     OW 4007   1.824   3.916   1.227
 1326SOL    HW1 4008   1.820   3.826   1.271
 1326SOL    HW2 4009   1.827   3.905   1.128
 1327SOL     OW 4010   0.428   4.148   0.520
 1327SOL    HW1 4011   0.458   4.076   0.458
 1327SOL    HW2 4012   0.389   4.108   0.603
 1328SOL     OW 4013   1.705   5.211   1.104
 1328SOL    HW1 4014   1.612   5.186   1.077
 1328SOL    HW2 4015   1.731   5.161   1.186
 1329SOL     OW 4016   0.317   4.271   1.280
 1329SOL    HW1 4017   0.355   4.212   1.352
 1329SOL    HW2 4018   0.357   4.245   1.192
 1330SOL     OW 4019   1.424   3.938   1.112
 1330SOL    HW1 4020   1.476   3.873   1.167
 1330SOL    HW2 4021   1.375   4.001   1.173
 1331SOL     OW 4022   1.001   3.758   1.154
 1331SOL    HW1 4023   0.938   3.686   1.123
 1331SOL    HW2 4024   1.094   3.722   1.154
 1332SOL     OW 4025   0.770   5.054   0.301
 1332SOL    HW1 4026   0.724   4.967   0.318
 1332SOL    HW2 4027   0.861   5.051   0.342
 1333SOL     OW 4028   1.352   3.776   0.168
 1333SOL    HW1 4029   1.387   3.735   0.084
 1333SOL    HW2 4030   1.262   3.738   0.188
 1334SOL     OW 4031   1.300   4.177   0.691
 1334SOL    HW1 4032   1.241   4.257   0.695
 1334SOL    HW2 4033   1.315   4.142   0.784
 1335SOL     OW 4034   1.593   3.945   0.882
 1335SOL    HW1 4035   1.509   3.944   0.936
 1335SOL    HW2 4036   1.595   4.028   0.826
 1336SOL     OW 4037   0.039   4.801   0.300
 1336SOL    HW1 4038   0.138   4.790   0.291
 1336SOL    HW2 4039  -0.001   4.715   0.332
 1337SOL     OW 4040   0.230   4.352   1.975
 1337SOL    HW1 4041   0.137   4.350   2.012
 1337SOL    HW2 4042   0.231   4.313   1.883
 1338SOL     OW 4043   0.225   3.999   2.858
 1338SOL    HW1 4044   0.260   3.982   2.950
 1338SOL    HW2 4045   0.137   3.954   2.846
 1339SOL     OW 4046   0.019   4.092   2.509
 1339SOL    HW1 4047  -0.063   4.135   2.548
 1339SOL    HW2 4048  -0.009   4.019   2.446
 1340SOL     OW 4049   0.569   4.999   3.027
 1340SOL    HW1 4050   0.476   4.992   2.990
 1340SOL    HW2 4051   0.580   5.088   3.071
 1341SOL     OW 4052   1.555   5.235   2.565
 1341SOL    HW1 4053   1.498   5.219   2.646
 1341SOL    HW2 4054   1.496   5.245   2.485
 1342SOL     OW 4055   1.135   4.427   2.579
 1342SOL    HW1 4056   1.192   4.505   2.554
 1342SOL    HW2 4057   1.075   4.453   2.655
 1343SOL     OW 4058   1.755   4.331   2.093
 1343SOL    HW1 4059   1.743   4.318   1.994
 1343SOL    HW2 4060   1.725   4.250   2.142
 1344SOL     OW 4061   0.768   4.868   2.885
 1344SOL    HW1 4062   0.690   4.885   2.945
 1344SOL    HW2 4063   0.802   4.955   2.849
 1345SOL     OW 4064   0.850   4.522   3.685
 1345SOL    HW1 4065   0.846   4.598   3.750
 1345SOL    HW2 4066   0.872   4.558   3.594
 1346SOL     OW 4067   0.685   4.736   2.527
 1346SOL    HW1 4068   0.754   4.720   2.597
 1346SOL    HW2 4069   0.612   4.793   2.565
 1347SOL     OW 4070   0.686   4.885   3.665
 1347SOL    HW1 4071   0.746   4.964   3.679
 1347SOL    HW2 4072   0.600   4.916   3.624
 1348SOL     OW 4073   0.335   5.159   2.923
 1348SOL    HW1 4074   0.257   5.128   2.870
 1348SOL    HW2 4075   0.393   5.217   2.866
 1349SOL     OW 4076   0.438   4.116   3.361
 1349SOL    HW1 4077   0.520   4.060   3.370
 1349SOL    HW2 4078   0.357   4.058   3.365
 1350SOL     OW 4079   1.603   4.171   2.599
 1350SOL    HW1 4080   1.529   4.217   2.549
 1350SOL    HW2 4081   1.654   4.239   2.652
 1351SOL     OW 4082   0.240   4.815   2.748
 1351SOL    HW1 4083   0.254   4.731   2.800
 1351SOL    HW2 4084   0.185   4.879   2.803
 1352SOL     OW 4085   0.606   4.688   1.985
 1352SOL    HW1 4086   0.613   4.772   1.931
 1352SOL    HW2 4087   0.652   4.701   2.073
 1353SOL     OW 4088   1.594   3.838   3.342
 1353SOL    HW1 4089   1.576   3.905   3.270
 1353SOL    HW2 4090   1.591   3.884   3.431
 1354SOL     OW 4091   0.122   4.367   2.425
 1354SOL    HW1 4092   0.077   4.279   2.442
 1354SOL    HW2 4093   0.121   4.421   2.509
 1355SOL     OW 4094   1.689   4.646   2.474
 1355SOL    HW1 4095   1.784   4.617   2.482
 1355SOL    HW2 4096   1.681   4.711   2.399
 1356SOL     OW 4097   1.641   4.832   2.294
 1356SOL    HW1 4098   1.727   4.834   2.242
 1356SOL    HW2 4099   1.655   4.879   2.382
 1357SOL     OW 4100   0.113   4.461   3.459
 1357SOL    HW1 4101   0.201   4.448   3.504
 1357SOL    HW2 4102   0.100   4.558   3.437
 1358SOL     OW 4103   0.613   5.089   2.588
 1358SOL    HW1 4104   0.564   5.002   2.597
 1358SOL    HW2 4105   0.590   5.132   2.501
 1359SOL     OW 4106   1.293   4.952   3.285
 1359SOL    HW1 4107   1.330   4.879   3.227
 1359SOL    HW2 4108   1.345   4.957   3.370
 1360SOL     OW 4109   0.809   3.728   2.364
 1360SOL    HW1 4110   0.849   3.819   2.355
 1360SOL    HW2 4111   0.709   3.736   2.370
 1361SOL     OW 4112   0.197   4.700   3.126
 1361SOL    HW1 4113   0.286   4.655   3.112
 1361SOL    HW2 4114   0.124   4.635   3.107
 1362SOL     OW 4115   1.525   4.723   2.052
 1362SOL    HW1 4116   1.462   4.647   2.065
 1362SOL    HW2 4117   1.573   4.741   2.138
 1363SOL     OW 4118   0.317   3.975   3.663
 1363SOL    HW1 4119   0.388   4.046   3.669
 1363SOL    HW2 4120   0.229   4.014   3.691
 1364SOL     OW 4121   1.466   5.141   2.815
 1364SOL    HW1 4122   1.407   5.147   2.895
 1364SOL    HW2 4123   1.451   5.053   2.769
 1365SOL     OW 4124   0.598   4.453   2.132
 1365SOL    HW1 4125   0.622   4.522   2.064
 1365SOL    HW2 4126   0.520   4.486   2.186
 1366SOL     OW 4127   1.281   4.069   2.806
 1366SOL    HW1 4128   1.195   4.019   2.793
 1366SOL    HW2 4129   1.343   4.015   2.862
 1367SOL     OW 4130   0.807   4.329   3.327
 1367SOL    HW1 4131   0.760   4.326   3.416
 1367SOL    HW2 4132   0.756   4.274   3.261
 1368SOL     OW 4133   1.394   4.193   3.536
 1368SOL    HW1 4134   1.374   4.236   3.624
 1368SOL    HW2 4135   1.472   4.131   3.545
 1369SOL     OW 4136   0.973   4.614   3.434
 1369SOL    HW1 4137   1.019   4.530   3.405
 1369SOL    HW2 4138   0.917   4.648   3.359
 1370SOL     OW 4139   0.991   4.134   3.104
 1370SOL    HW1 4140   0.914   4.168   3.158
 1370SOL    HW2 4141   0.957   4.083   3.025
 1371SOL     OW 4142   1.041   4.425   2.291
 1371SOL    HW1 4143   1.067   4.421   2.387
 1371SOL    HW2 4144   0.956   4.374   2.277
 1372SOL     OW 4145   0.076   4.535   2.651
 1372SOL    HW1 4146   0.175   4.523   2.660
 1372SOL    HW2 4147   0.052   4.630   2.672
 1373SOL     OW 4148   0.865   4.072   2.057
 1373SOL    HW1 4149   0.924   4.135   2.008
 1373SOL    HW2 4150   0.884   3.978   2.028
 1374SOL     OW 4151   1.719   4.309   3.693
 1374SOL    HW1 4152   1.693   4.398   3.657
 1374SOL    HW2 4153   1.717   4.241   3.620
 1375SOL     OW 4154   1.362   4.868   2.407
 1375SOL    HW1 4155   1.445   4.839   2.359
 1375SOL    HW2 4156   1.313   4.935   2.351
 1376SOL     OW 4157   0.550   3.920   2.747
 1376SOL    HW1 4158   0.545   3.915   2.847
 1376SOL    HW2 4159   0.552   4.016   2.718
 1377SOL     OW 4160   1.795   4.790   2.735
 1377SOL    HW1 4161   1.733   4.775   2.659
 1377SOL    HW2 4162   1.743   4.801   2.820
 1378SOL     OW 4163   0.321   4.667   2.104
 1378SOL    HW1 4164   0.403   4.706   2.062
 1378SOL    HW2 4165   0.294   4.585   2.055
 1379SOL     OW 4166   1.458   4.459   2.590
 1379SOL    HW1 4167   1.453   4.394   2.665
 1379SOL    HW2 4168   1.538   4.518   2.603
 1380SOL     OW 4169   0.461   4.990   3.589
 1380SOL    HW1 4170   0.411   4.991   3.503
 1380SOL    HW2 4171   0.398   4.972   3.665
 1381SOL     OW 4172   0.202   4.009   3.360
 1381SOL    HW1 4173   0.122   4.069   3.347
 1381SOL    HW2 4174   0.192   3.960   3.446
 1382SOL     OW 4175   1.632   5.101   1.943
 1382SOL    HW1 4176   1.600   5.195   1.933
 1382SOL    HW2 4177   1.556   5.038   1.931
 1383SOL     OW 4178   1.400   3.831   2.288
 1383SOL    HW1 4179   1.376   3.794   2.198
 1383SOL    HW2 4180   1.499   3.847   2.292
 1384SOL     OW 4181   0.382   4.424   2.342
 1384SOL    HW1 4182   0.427   4.334   2.339
 1384SOL    HW2 4183   0.288   4.413   2.375
 1385SOL     OW 4184   1.547   3.946   3.591
 1385SOL    HW1 4185   1.542   3.983   3.683
 1385SOL    HW2 4186   1.475   3.877   3.579
 1386SOL     OW 4187   0.614   3.846   1.979
 1386SOL    HW1 4188   0.712   3.824   1.986
 1386SOL    HW2 4189   0.583   3.829   1.886
 1387SOL     OW 4190   0.781   3.988   3.611
 1387SOL    HW1 4191   0.848   3.927   3.654
 1387SOL    HW2 4192   0.708   4.007   3.676
 1388SOL     OW 4193   1.351   4.314   3.295
 1388SOL    HW1 4194   1.379   4.271   3.380
 1388SOL    HW2 4195   1.376   4.410   3.296
 1389SOL     OW 4196   0.922   4.227   2.761
 1389SOL    HW1 4197   0.897   4.218   2.665
 1389SOL    HW2 4198   0.970   4.145   2.792
 1390SOL     OW 4199   0.539   3.788   2.374
 1390SOL    HW1 4200   0.458   3.789   2.432
 1390SOL    HW2 4201   0.542   3.871   2.319
 1391SOL     OW 4202   1.434   4.912   1.903
 1391SOL    HW1 4203   1.466   4.836   1.960
 1391SOL    HW2 4204   1.342   4.939   1.933
 1392SOL     OW 4205   0.297   3.759   2.033
 1392SOL    HW1 4206   0.346   3.843   2.012
 1392SOL    HW2 4207   0.359   3.694   2.078
 1393SOL     OW 4208   0.935   3.960   2.342
 1393SOL    HW1 4209   0.887   4.001   2.264
 1393SOL    HW2 4210   1.034   3.958   2.323
 1394SOL     OW 4211   1.076   4.407   3.326
 1394SOL    HW1 4212   0.996   4.346   3.329
 1394SOL    HW2 4213   1.157   4.354   3.302
 1395SOL     OW 4214   1.227   5.294   2.655
 1395SOL    HW1 4215   1.248   5.368   2.590
 1395SOL    HW2 4216   1.295   5.294   2.728
 1396SOL     OW 4217   0.459   4.876   2.603
 1396SOL    HW1 4218   0.388   4.849   2.668
 1396SOL    HW2 4219   0.433   4.848   2.510
 1397SOL     OW 4220   1.032   4.273   1.878
 1397SOL    HW1 4221   0.991   4.355   1.839
 1397SOL    HW2 4222   1.096   4.299   1.951
 1398SOL     OW 4223   0.078   4.280   3.248
 1398SOL    HW1 4224   0.170   4.279   3.207
 1398SOL    HW2 4225   0.072   4.354   3.315
 1399SOL     OW 4226   0.561   3.946   3.009
 1399SOL    HW1 4227   0.599   3.862   3.046
 1399SOL    HW2 4228   0.473   3.965   3.053
 1400SOL     OW 4229   0.866   4.178   2.504
 1400SOL    HW1 4230   0.834   4.250   2.442
 1400SOL    HW2 4231   0.890   4.097   2.451
 1401SOL     OW 4232   1.017   3.763   2.615
 1401SOL    HW1 4233   0.945   3.768   2.546
 1401SOL    HW2 4234   0.993   3.694   2.684
 1402SOL     OW 4235   1.429   4.897   2.729
 1402SOL    HW1 4236   1.374   4.813   2.722
 1402SOL    HW2 4237   1.455   4.926   2.637
 1403SOL     OW 4238   1.466   4.314   2.854
 1403SOL    HW1 4239   1.436   4.219   2.861
 1403SOL    HW2 4240   1.539   4.330   2.920
 1404SOL     OW 4241   1.857   4.557   2.239
 1404SOL    HW1 4242   1.899   4.493   2.303
 1404SOL    HW2 4243   1.819   4.506   2.161
 1405SOL     OW 4244   1.664   5.004   2.519
 1405SOL    HW1 4245   1.763   5.012   2.533
 1405SOL    HW2 4246   1.619   5.088   2.550
 1406SOL     OW 4247   1.390   4.299   1.940
 1406SOL    HW1 4248   1.336   4.278   2.021
 1406SOL    HW2 4249   1.481   4.258   1.949
 1407SOL     OW 4250   0.527   3.980   2.190
 1407SOL    HW1 4251   0.554   3.921   2.115
 1407SOL    HW2 4252   0.527   4.075   2.159
 1408SOL     OW 4253   1.754   4.947   3.450
 1408SOL    HW1 4254   1.845   4.908   3.437
 1408SOL    HW2 4255   1.762   5.043   3.474
 1409SOL     OW 4256   1.064   5.071   3.202
 1409SOL    HW1 4257   0.984   5.048   3.257
 1409SOL    HW2 4258   1.147   5.045   3.251
 1410SOL     OW 4259   1.111   4.919   2.962
 1410SOL    HW1 4260   1.071   4.963   3.043
 1410SOL    HW2 4261   1.070   4.956   2.879
 1411SOL     OW 4262   1.638   4.823   2.941
 1411SOL    HW1 4263   1.643   4.904   3.000
 1411SOL    HW2 4264   1.552   4.825   2.890
 1412SOL     OW 4265   0.915   3.813   3.264
 1412SOL    HW1 4266   0.940   3.793   3.169
 1412SOL    HW2 4267   0.987   3.869   3.306
 1413SOL     OW 4268   0.980   4.840   3.581
 1413SOL    HW1 4269   0.881   4.846   3.591
 1413SOL    HW2 4270   1.003   4.760   3.525
 1414SOL     OW 4271   0.705   4.774   2.230
 1414SOL    HW1 4272   0.691   4.781   2.329
 1414SOL    HW2 4273   0.789   4.723   2.212
 1415SOL     OW 4274   0.410   4.537   3.113
 1415SOL    HW1 4275   0.496   4.549   3.163
 1415SOL    HW2 4276   0.368   4.450   3.140
 1416SOL     OW 4277   1.274   4.110   3.124
 1416SOL    HW1 4278   1.295   4.184   3.188
 1416SOL    HW2 4279   1.185   4.127   3.081
 1417SOL     OW 4280   0.064   5.288   3.193
 1417SOL    HW1 4281   0.018   5.370   3.159
 1417SOL    HW2 4282   0.162   5.307   3.202
 1418SOL     OW 4283   0.367   4.824   2.363
 1418SOL    HW1 4284   0.360   4.907   2.307
 1418SOL    HW2 4285   0.371   4.744   2.303
 1419SOL     OW 4286   0.566   4.261   2.727
 1419SOL    HW1 4287   0.578   4.327   2.653
 1419SOL    HW2 4288   0.612   4.295   2.810
 1420SOL     OW 4289   1.252   5.072   2.250
 1420SOL    HW1 4290   1.302   5.149   2.290
 1420SOL    HW2 4291   1.157   5.074   2.282
 1421SOL     OW 4292   1.582   4.363   2.334
 1421SOL    HW1 4293   1.551   4.424   2.407
 1421SOL    HW2 4294   1.632   4.415   2.265
 1422SOL     OW 4295   0.402   4.475   3.460
 1422SOL    HW1 4296   0.470   4.530   3.413
 1422SOL    HW2 4297   0.442   4.387   3.487
 1423SOL     OW 4298   1.587   4.503   3.532
 1423SOL    HW1 4299   1.495   4.541   3.527
 1423SOL    HW2 4300   1.647   4.550   3.467
 1424SOL     OW 4301   1.013   3.829   3.632
 1424SOL    HW1 4302   1.019   3.914   3.580
 1424SOL    HW2 4303   1.045   3.753   3.575
 1425SOL     OW 4304   0.504   3.774   3.602
 1425SOL    HW1 4305   0.462   3.717   3.532
 1425SOL    HW2 4306   0.438   3.843   3.634
 1426SOL     OW 4307   0.573   4.594   2.891
 1426SOL    HW1 4308   0.617   4.683   2.882
 1426SOL    HW2 4309   0.510   4.594   2.968
 1427SOL     OW 4310   1.360   4.586   2.907
 1427SOL    HW1 4311   1.285   4.586   2.841
 1427SOL    HW2 4312   1.397   4.494   2.916
 1428SOL     OW 4313   1.209   4.249   2.137
 1428SOL    HW1 4314   1.222   4.165   2.191
 1428SOL    HW2 4315   1.180   4.323   2.197
 1429SOL     OW 4316   0.307   3.937   3.093
 1429SOL    HW1 4317   0.284   3.974   3.183
 1429SOL    HW2 4318   0.277   3.842   3.087
 1430SOL     OW 4319   0.037   5.034   3.144
 1430SOL    HW1 4320   0.090   4.985   3.212
 1430SOL    HW2 4321   0.059   5.132   3.149
 1431SOL     OW 4322   0.732   4.358   2.926
 1431SOL    HW1 4323   0.791   4.332   2.850
 1431SOL    HW2 4324   0.704   4.454   2.915
 1432SOL     OW 4325   1.728   4.659   3.716
 1432SOL    HW1 4326   1.682   4.652   3.627
 1432SOL    HW2 4327   1.666   4.703   3.782
 1433SOL     OW 4328   0.307   3.787   2.480
 1433SOL    HW1 4329   0.296   3.881   2.513
 1433SOL    HW2 4330   0.302   3.724   2.557
 1434SOL     OW 4331   1.622   4.091   2.236
 1434SOL    HW1 4332   1.624   4.015   2.300
 1434SOL    HW2 4333   1.574   4.168   2.276
 1435SOL     OW 4334   1.023   4.490   2.828
 1435SOL    HW1 4335   1.038   4.511   2.924
 1435SOL    HW2 4336   0.993   4.395   2.819
 1436SOL     OW 4337   1.859   5.242   3.467
 1436SOL    HW1 4338   1.873   5.269   3.372
 1436SOL    HW2 4339   1.942   5.264   3.520
 1437SOL     OW 4340   0.350   4.622   3.666
 1437SOL    HW1 4341   0.426   4.666   3.714
 1437SOL    HW2 4342   0.385   4.575   3.584
 1438SOL     OW 4343   1.540   3.998   1.987
 1438SOL    HW1 4344   1.479   3.923   2.010
 1438SOL    HW2 4345   1.562   4.050   2.070
 1439SOL     OW 4346   1.303   4.562   1.904
 1439SOL    HW1 4347   1.337   4.469   1.919
 1439SOL    HW2 4348   1.321   4.589   1.809
 1440SOL     OW 4349   0.319   4.534   2.811
 1440SOL    HW1 4350   0.412   4.570   2.816
 1440SOL    HW2 4351   0.313   4.449   2.863
 1441SOL     OW 4352   0.339   4.233   2.868
 1441SOL    HW1 4353   0.287   4.150   2.851
 1441SOL    HW2 4354   0.416   4.238   2.804
 1442SOL     OW 4355   1.138   4.104   3.540
 1442SOL    HW1 4356   1.093   4.167   3.604
 1442SOL    HW2 4357   1.231   4.135   3.523
 1443SOL     OW 4358   1.160   3.931   3.339
 1443SOL    HW1 4359   1.160   3.995   3.416
 1443SOL    HW2 4360   1.188   3.979   3.256
 1444SOL     OW 4361   0.008   5.050   2.062
 1444SOL    HW1 4362  -0.085   5.071   2.031
 1444SOL    HW2 4363   0.018   4.951   2.075
 1445SOL     OW 4364   1.002   4.520   3.100
 1445SOL    HW1 4365   1.043   4.488   3.186
 1445SOL    HW2 4366   0.906   4.493   3.097
 1446SOL     OW 4367   0.040   4.268   2.976
 1446SOL    HW1 4368   0.125   4.235   2.935
 1446SOL    HW2 4369   0.053   4.283   3.074
 1447SOL     OW 4370   0.189   4.244   3.584
 1447SOL    HW1 4371   0.248   4.204   3.514
 1447SOL    HW2 4372   0.131   4.315   3.543
 1448SOL     OW 4373   1.369   4.674   3.522
 1448SOL    HW1 4374   1.408   4.763   3.542
 1448SOL    HW2 4375   1.379   4.654   3.425
 1449SOL     OW 4376   0.815   4.296   2.187
 1449SOL    HW1 4377   0.822   4.207   2.141
 1449SOL    HW2 4378   0.721   4.330   2.179
 1450SOL     OW 4379   1.657   4.328   3.068
 1450SOL    HW1 4380   1.619   4.259   3.130
 1450SOL    HW2 4381   1.739   4.292   3.024
 1451SOL     OW 4382   0.671   4.188   3.131
 1451SOL    HW1 4383   0.637   4.099   3.101
 1451SOL    HW2 4384   0.697   4.242   3.051
 1452SOL     OW 4385   0.473   4.224   2.053
 1452SOL    HW1 4386   0.534   4.304   2.057
 1452SOL    HW2 4387   0.378   4.255   2.060
 1453SOL     OW 4388   0.159   4.861   3.328
 1453SOL    HW1 4389   0.181   4.800   3.404
 1453SOL    HW2 4390   0.169   4.812   3.242
 1454SOL     OW 4391   1.347   4.783   3.096
 1454SOL    HW1 4392   1.371   4.720   3.022
 1454SOL    HW2 4393   1.257   4.823   3.078
 1455SOL     OW 4394   1.302   4.579   2.171
 1455SOL    HW1 4395   1.216   4.548   2.213
 1455SOL    HW2 4396   1.298   4.565   2.072
 1456SOL     OW 4397   0.083   4.982   2.884
 1456SOL    HW1 4398   0.078   4.981   2.984
 1456SOL    HW2 4399   0.000   4.941   2.846
 1457SOL     OW 4400   1.726   3.859   2.385
 1457SOL    HW1 4401   1.799   3.842   2.318
 1457SOL    HW2 4402   1.695   3.772   2.423
 1458SOL     OW 4403   1.280   4.651   2.534
 1458SOL    HW1 4404   1.340   4.570   2.536
 1458SOL    HW2 4405   1.320   4.720   2.474
 1459SOL     OW 4406   0.830   4.997   3.284
 1459SOL    HW1 4407   0.825   5.030   3.379
 1459SOL    HW2 4408   0.744   5.016   3.238
 1460SOL     OW 4409   1.841   3.899   2.825
 1460SOL    HW1 4410   1.880   3.814   2.789
 1460SOL    HW2 4411   1.743   3.901   2.806
 1461SOL     OW 4412   0.263   4.050   2.582
 1461SOL    HW1 4413   0.184   4.101   2.548
 1461SOL    HW2 4414   0.254   4.035   2.680
 1462SOL     OW 4415   0.822   4.726   3.234
 1462SOL    HW1 4416   0.862   4.725   3.142
 1462SOL    HW2 4417   0.832   4.818   3.274
 1463SOL     OW 4418   0.916   4.634   2.153
 1463SOL    HW1 4419   0.979   4.672   2.085
 1463SOL    HW2 4420   0.956   4.551   2.192
 1464SOL     OW 4421   0.372   5.012   3.352
 1464SOL    HW1 4422   0.359   5.105   3.318
 1464SOL    HW2 4423   0.288   4.960   3.339
 1465SOL     OW 4424   1.614   5.016   3.151
 1465SOL    HW1 4425   1.674   5.019   3.231
 1465SOL    HW2 4426   1.539   5.080   3.164
 1466SOL     OW 4427   1.039   4.822   2.558
 1466SOL    HW1 4428   0.969   4.775   2.612
 1466SOL    HW2 4429   1.098   4.754   2.515
 1467SOL     OW 4430   1.014   3.960   2.833
 1467SOL    HW1 4431   1.006   3.924   2.740
 1467SOL    HW2 4432   1.012   3.884   2.898
 1468SOL     OW 4433   1.709   4.109   3.243
 1468SOL    HW1 4434   1.782   4.178   3.247
 1468SOL    HW2 4435   1.737   4.034   3.184
 1469SOL     OW 4436   0.105   4.737   3.588
 1469SOL    HW1 4437   0.028   4.704   3.642
 1469SOL    HW2 4438   0.190   4.707   3.630
 1470SOL     OW 4439   0.672   3.927   3.351
 1470SOL    HW1 4440   0.762   3.911   3.311
 1470SOL    HW2 4441   0.680   3.932   3.450
 1471SOL     OW 4442   0.075   4.069   1.895
 1471SOL    HW1 4443  -0.017   4.041   1.866
 1471SOL    HW2 4444   0.106   4.146   1.839
 1472SOL     OW 4445   1.440   4.580   3.260
 1472SOL    HW1 4446   1.383   4.632   3.197
 1472SOL    HW2 4447   1.536   4.592   3.236
 1473SOL     OW 4448   0.072   3.890   2.180
 1473SOL    HW1 4449   0.055   3.973   2.126
 1473SOL    HW2 4450   0.162   3.853   2.158
 1474SOL     OW 4451   0.613   4.566   3.293
 1474SOL    HW1 4452   0.669   4.647   3.276
 1474SOL    HW2 4453   0.672   4.486   3.296
 1475SOL     OW 4454   0.716   4.289   3.570
 1475SOL    HW1 4455   0.735   4.354   3.644
 1475SOL    HW2 4456   0.776   4.209   3.579
 1476SOL     OW 4457   1.450   4.944   3.495
 1476SOL    HW1 4458   1.441   4.934   3.594
 1476SOL    HW2 4459   1.546   4.937   3.469
 1477SOL     OW 4460   1.674   4.607   3.116
 1477SOL    HW1 4461   1.647   4.518   3.079
 1477SOL    HW2 4462   1.675   4.675   3.043
 1478SOL     OW 4463   1.225   4.049   2.311
 1478SOL    HW1 4464   1.290   3.975   2.300
 1478SOL    HW2 4465   1.245   4.099   2.395
 1479SOL     OW 4466   0.594   4.469   2.514
 1479SOL    HW1 4467   0.644   4.554   2.495
 1479SOL    HW2 4468   0.506   4.471   2.466
 1480SOL     OW 4469   1.777   4.066   3.504
 1480SOL    HW1 4470   1.760   4.097   3.410
 1480SOL    HW2 4471   1.693   4.029   3.542
 1481SOL     OW 4472   1.730   4.658   3.379
 1481SOL    HW1 4473   1.768   4.749   3.394
 1481SOL    HW2 4474   1.722   4.641   3.280
 1482SOL     OW 4475   0.859   5.098   1.878
 1482SOL    HW1 4476   0.813   5.113   1.966
 1482SOL    HW2 4477   0.903   5.183   1.848
 1483SOL     OW 4478   0.859   4.680   2.723
 1483SOL    HW1 4479   0.913   4.611   2.771
 1483SOL    HW2 4480   0.827   4.749   2.789
 1484SOL     OW 4481   1.083   4.708   1.949
 1484SOL    HW1 4482   1.060   4.761   1.867
 1484SOL    HW2 4483   1.164   4.652   1.930
 1485SOL     OW 4484   0.221   5.038   3.706
 1485SOL    HW1 4485   0.156   4.965   3.685
 1485SOL    HW2 4486   0.225   5.052   3.804
 1486SOL     OW 4487   0.079   4.964   2.515
 1486SOL    HW1 4488   0.078   4.917   2.603
 1486SOL    HW2 4489   0.161   4.936   2.464
 1487SOL     OW 4490   0.672   5.115   3.486
 1487SOL    HW1 4491   0.594   5.065   3.524
 1487SOL    HW2 4492   0.669   5.210   3.517
 1488SOL     OW 4493   1.824   3.916   3.089
 1488SOL    HW1 4494   1.820   3.826   3.133
 1488SOL    HW2 4495   1.827   3.905   2.990
 1489SOL     OW 4496   0.428   4.148   2.382
 1489SOL    HW1 4497   0.458   4.076   2.320
 1489SOL    HW2 4498   0.389   4.108   2.465
 1490SOL     OW 4499   1.705   5.211   2.966
 1490SOL    HW1 4500   1.612   5.186   2.939
 1490SOL    HW2 4501   1.731   5.161   3.048
 1491SOL     OW 4502   0.317   4.271   3.142
 1491SOL    HW1 4503   0.355   4.212   3.214
 1491SOL    HW2 4504   0.357   4.245   3.054
 1492SOL     OW 4505   1.424   3.938   2.974
 1492SOL    HW1 4506   1.476   3.873   3.029
 1492SOL    HW2 4507   1.375   4.001   3.035
 1493SOL     OW 4508   1.001   3.758   3.016
 1493SOL    HW1 4509   0.938   3.686   2.985
 1493SOL    HW2 4510   1.094   3.722   3.016
 1494SOL     OW 4511   0.770   5.054   2.163
 1494SOL    HW1 4512   0.724   4.967   2.180
 1494SOL    HW2 4513   0.861   5.051   2.204
 1495SOL     OW 4514   1.352   3.776   2.030
 1495SOL    HW1 4515   1.387   3.735   1.946
 1495SOL    HW2 4516   1.262   3.738   2.050
 1496SOL     OW 4517   1.300   4.177   2.553
 1496SOL    HW1 4518   1.241   4.257   2.557
 1496SOL    HW2 4519   1.315   4.142   2.646
 1497SOL     OW 4520   1.593   3.945   2.744
 1497SOL    HW1 4521   1.509   3.944   2.798
 1497SOL    HW2 4522   1.595   4.028   2.688
 1498SOL     OW 4523   0.039   4.801   2.162
 1498SOL    HW1 4524   0.138   4.790   2.153
 1498SOL    HW2 4525  -0.001   4.715   2.194
 1499SOL     OW 4526   0.230   4.352   3.837
 1499SOL    HW1 4527   0.137   4.350   3.874
 1499SOL    HW2 4528   0.231   4.313   3.745
 1500SOL     OW 4529   0.225   3.999   4.720
 1500SOL    HW1 4530   0.260   3.982   4.812
 1500SOL    HW2 4531   0.137   3.954   4.708
 1501SOL     OW 4532   0.019   4.092   4.371
 1501SOL    HW1 4533  -0.063   4.135   4.410
 1501SOL    HW2 4534  -0.009   4.019   4.308
 1502SOL     OW 4535   0.569   4.999   4.889
 1502SOL    HW1 4536   0.476   4.992   4.852
 1502SOL    HW2 4537   0.580   5.088   4.933
 1503SOL     OW 4538   1.555   5.235   4.427
 1503SOL    HW1 4539   1.498   5.219   4.508
 1503SOL    HW2 4540   1.496   5.245   4.347
 1504SOL     OW 4541   1.135   4.427   4.441
 1504SOL    HW1 4542   1.192   4.505   4.416
 1504SOL    HW2 4543   1.075   4.453   4.517
 1505SOL     OW 4544   1.755   4.331   3.955
 1505SOL    HW1 4545   1.743   4.318   3.856
 1505SOL    HW2 4546   1.725   4.250   4.004
 1506SOL     OW 4547   0.768   4.868   4.747
 1506SOL    HW1 4548   0.690   4.885   4.807
 1506SOL    HW2 4549   0.802   4.955   4.711
 1507SOL     OW 4550   0.685   4.736   4.389
 1507SOL    HW1 4551   0.754   4.720   4.459
 1507SOL    HW2 4552   0.612   4.793   4.427
 1508SOL     OW 4553   0.335   5.159   4.785
 1508SOL    HW1 4554   0.257   5.128   4.732
 1508SOL    HW2 4555   0.393   5.217   4.728
 1509SOL     OW 4556   0.438   4.116   5.223
 1509SOL    HW1 4557   0.520   4.060   5.232
 1509SOL    HW2 4558   0.357   4.058   5.227
 1510SOL     OW 4559   1.603   4.171   4.461
 1510SOL    HW1 4560   1.529   4.217   4.411
 1510SOL    HW2 4561   1.654   4.239   4.514
 1511SOL     OW 4562   0.240   4.815   4.610
 1511SOL    HW1 4563   0.254   4.731   4.662
 1511SOL    HW2 4564   0.185   4.879   4.665
 1512SOL     OW 4565   0.606   4.688   3.847
 1512SOL    HW1 4566   0.613   4.772   3.793
 1512SOL    HW2 4567   0.652   4.701   3.935
 1513SOL     OW 4568   0.122   4.367   4.287
 1513SOL    HW1 4569   0.077   4.279   4.304
 1513SOL    HW2 4570   0.121   4.421   4.371
 1514SOL     OW 4571   1.689   4.646   4.336
 1514SOL    HW1 4572   1.784   4.617   4.344
 1514SOL    HW2 4573   1.681   4.711   4.261
 1515SOL     OW 4574   1.641   4.832   4.156
 1515SOL    HW1 4575   1.727   4.834   4.104
 1515SOL    HW2 4576   1.655   4.879   4.244
 1516SOL     OW 4577   0.613   5.089   4.450
 1516SOL    HW1 4578   0.564   5.002   4.459
 1516SOL    HW2 4579   0.590   5.132   4.363
 1517SOL     OW 4580   0.809   3.728   4.226
 1517SOL    HW1 4581   0.849   3.819   4.217
 1517SOL    HW2 4582   0.709   3.736   4.232
 1518SOL     OW 4583   0.197   4.700   4.988
 1518SOL    HW1 4584   0.286   4.655   4.974
 1518SOL    HW2 4585   0.124   4.635   4.969
 1519SOL     OW 4586   1.525   4.723   3.914
 1519SOL    HW1 4587   1.462   4.647   3.927
 1519SOL    HW2 4588   1.573   4.741   4.000
 1520SOL     OW 4589   1.466   5.141   4.677
 1520SOL    HW1 4590   1.407   5.147   4.757
 1520SOL    HW2 4591   1.451   5.053   4.631
 1521SOL     OW 4592   0.598   4.453   3.994
 1521SOL    HW1 4593   0.622   4.522   3.926
 1521SOL    HW2 4594   0.520   4.486   4.048
 1522SOL     OW 4595   1.281   4.069   4.668
 1522SOL    HW1 4596   1.195   4.019   4.655
 1522SOL    HW2 4597   1.343   4.015   4.724
 1523SOL     OW 4598   0.807   4.329   5.189
 1523SOL    HW1 4599   0.760   4.326   5.278
 1523SOL    HW2 4600   0.756   4.274   5.123
 1524SOL     OW 4601   0.991   4.134   4.966
 1524SOL    HW1 4602   0.914   4.168   5.020
 1524SOL    HW2 4603   0.957   4.083   4.887
 1525SOL     OW 4604   1.041   4.425   4.153
 1525SOL    HW1 4605   1.067   4.421   4.249
 1525SOL    HW2 4606   0.956   4.374   4.139
 1526SOL     OW 4607   0.076   4.535   4.513
 1526SOL    HW1 4608   0.175   4.523   4.522
 1526SOL    HW2 4609   0.052   4.630   4.534
 1527SOL     OW 4610   0.865   4.072   3.919
 1527SOL    HW1 4611   0.924   4.135   3.870
 1527SOL    HW2 4612   0.884   3.978   3.890
 1528SOL     OW 4613   1.362   4.868   4.269
 1528SOL    HW1 4614   1.445   4.839   4.221
 1528SOL    HW2 4615   1.313   4.935   4.213
 1529SOL     OW 4616   0.550   3.920   4.609
 1529SOL    HW1 4617   0.545   3.915   4.709
 1529SOL    HW2 4618   0.552   4.016   4.580
 1530SOL     OW 4619   1.795   4.790   4.597
 1530SOL    HW1 4620   1.733   4.775   4.521
 1530SOL    HW2 4621   1.743   4.801   4.682
 1531SOL     OW 4622   0.321   4.667   3.966
 1531SOL    HW1 4623   0.403   4.706   3.924
 1531SOL    HW2 4624   0.294   4.585   3.917
 1532SOL     OW 4625   1.458   4.459   4.452
 1532SOL    HW1 4626   1.453   4.394   4.527
 1532SOL    HW2 4627   1.538   4.518   4.465
 1533SOL     OW 4628   1.632   5.101   3.805
 1533SOL    HW1 4629   1.600   5.195   3.795
 1533SOL    HW2 4630   1.556   5.038   3.793
 1534SOL     OW 4631   1.400   3.831   4.150
 1534SOL    HW1 4632   1.376   3.794   4.060
 1534SOL    HW2 4633   1.499   3.847   4.154
 1535SOL     OW 4634   0.382   4.424   4.204
 1535SOL    HW1 4635   0.427   4.334   4.201
 1535SOL    HW2 4636   0.288   4.413   4.237
 1536SOL     OW 4637   0.614   3.846   3.841
 1536SOL    HW1 4638   0.712   3.824   3.848
 1536SOL    HW2 4639   0.583   3.829   3.748
 1537SOL     OW 4640   0.922   4.227   4.623
 1537SOL    HW1 4641   0.897   4.218   4.527
 1537SOL    HW2 4642   0.970   4.145   4.654
 1538SOL     OW 4643   0.539   3.788   4.236
 1538SOL    HW1 4644   0.458   3.789   4.294
 1538SOL    HW2 4645   0.542   3.871   4.181
 1539SOL     OW 4646   1.434   4.912   3.765
 1539SOL    HW1 4647   1.466   4.836   3.822
 1539SOL    HW2 4648   1.342   4.939   3.795
 1540SOL     OW 4649   0.297   3.759   3.895
 1540SOL    HW1 4650   0.346   3.843   3.874
 1540SOL    HW2 4651   0.359   3.694   3.940
 1541SOL     OW 4652   0.935   3.960   4.204
 1541SOL    HW1 4653   0.887   4.001   4.126
 1541SOL    HW2 4654   1.034   3.958   4.185
 1542SOL     OW 4655   1.227   5.294   4.517
 1542SOL    HW1 4656   1.248   5.368   4.452
 1542SOL    HW2 4657   1.295   5.294   4.590
 1543SOL     OW 4658   0.459   4.876   4.465
 1543SOL    HW1 4659   0.388   4.849   4.530
 1543SOL    HW2 4660   0.433   4.848   4.372
 1544SOL     OW 4661   1.032   4.273   3.740
 1544SOL    HW1 4662   0.991   4.355   3.701
 1544SOL    HW2 4663   1.096   4.299   3.813
 1545SOL     OW 4664   0.561   3.946   4.871
 1545SOL    HW1 4665   0.599   3.862   4.908
 1545SOL    HW2 4666   0.473   3.965   4.915
 1546SOL     OW 4667   0.866   4.178   4.366
 1546SOL    HW1 4668   0.834   4.250   4.304
 1546SOL    HW2 4669   0.890   4.097   4.313
 1547SOL     OW 4670   1.017   3.763   4.477
 1547SOL    HW1 4671   0.945   3.768   4.408
 1547SOL    HW2 4672   0.993   3.694   4.546
 1548SOL     OW 4673   1.429   4.897   4.591
 1548SOL    HW1 4674   1.374   4.813   4.584
 1548SOL    HW2 4675   1.455   4.926   4.499
 1549SOL     OW 4676   1.466   4.314   4.716
 1549SOL    HW1 4677   1.436   4.219   4.723
 1549SOL    HW2 4678   1.539   4.330   4.782
 1550SOL     OW 4679   1.857   4.557   4.101
 1550SOL    HW1 4680   1.899   4.493   4.165
 1550SOL    HW2 4681   1.819   4.506   4.023
 1551SOL     OW 4682   1.664   5.004   4.381
 1551SOL    HW1 4683   1.763   5.012   4.395
 1551SOL    HW2 4684   1.619   5.088   4.412
 1552SOL     OW 4685   1.390   4.299   3.802
 1552SOL    HW1 4686   1.336   4.278   3.883
 1552SOL    HW2 4687   1.481   4.258   3.811
 1553SOL     OW 4688   0.527   3.980   4.052
 1553SOL    HW1 4689   0.554   3.921   3.977
 1553SOL    HW2 4690   0.527   4.075   4.021
 1554SOL     OW 4691   1.754   4.947   5.312
 1554SOL    HW1 4692   1.845   4.908   5.299
 1554SOL    HW2 4693   1.762   5.043   5.336
 1555SOL     OW 4694   1.064   5.071   5.064
 1555SOL    HW1 4695   0.984   5.048   5.119
 1555SOL    HW2 4696   1.147   5.045   5.113
 1556SOL     OW 4697   1.111   4.919   4.824
 1556SOL    HW1 4698   1.071   4.963   4.905
 1556SOL    HW2 4699   1.070   4.956   4.741
 1557SOL     OW 4700   1.638   4.823   4.803
 1557SOL    HW1 4701   1.643   4.904   4.862
 1557SOL    HW2 4702   1.552   4.825   4.752
 1558SOL     OW 4703   0.705   4.774   4.092
 1558SOL    HW1 4704   0.691   4.781   4.191
 1558SOL    HW2 4705   0.789   4.723   4.074
 1559SOL     OW 4706   0.410   4.537   4.975
 1559SOL    HW1 4707   0.496   4.549   5.025
 1559SOL    HW2 4708   0.368   4.450   5.002
 1560SOL     OW 4709   1.274   4.110   4.986
 1560SOL    HW1 4710   1.295   4.184   5.050
 1560SOL    HW2 4711   1.185   4.127   4.943
 1561SOL     OW 4712   0.064   5.288   5.055
 1561SOL    HW1 4713   0.018   5.370   5.021
 1561SOL    HW2 4714   0.162   5.307   5.064
 1562SOL     OW 4715   0.367   4.824   4.225
 1562SOL    HW1 4716   0.360   4.907   4.169
 1562SOL    HW2 4717   0.371   4.744   4.165
 1563SOL     OW 4718   0.566   4.261   4.589
 1563SOL    HW1 4719   0.578   4.327   4.515
 1563SOL    HW2 4720   0.612   4.295   4.672
 1564SOL     OW 4721   1.252   5.072   4.112
 1564SOL    HW1 4722   1.302   5.149   4.152
 1564SOL    HW2 4723   1.157   5.074   4.144
 1565SOL     OW 4724   1.582   4.363   4.196
 1565SOL    HW1 4725   1.551   4.424   4.269
 1565SOL    HW2 4726   1.632   4.415   4.127
 1566SOL     OW 4727   0.573   4.594   4.753
 1566SOL    HW1 4728   0.617   4.683   4.744
 1566SOL    HW2 4729   0.510   4.594   4.830
 1567SOL     OW 4730   1.360   4.586   4.769
 1567SOL    HW1 4731   1.285   4.586   4.703
 1567SOL    HW2 4732   1.397   4.494   4.778
 1568SOL     OW 4733   1.209   4.249   3.999
 1568SOL    HW1 4734   1.222   4.165   4.053
 1568SOL    HW2 4735   1.180   4.323   4.059
 1569SOL     OW 4736   0.307   3.937   4.955
 1569SOL    HW1 4737   0.284   3.974   5.045
 1569SOL    HW2 4738   0.277   3.842   4.949
 1570SOL     OW 4739   0.037   5.034   5.006
 1570SOL    HW1 4740   0.090   4.985   5.074
 1570SOL    HW2 4741   0.059   5.132   5.011
 1571SOL     OW 4742   0.732   4.358   4.788
 1571SOL    HW1 4743   0.791   4.332   4.712
 1571SOL    HW2 4744   0.704   4.454   4.777
 1572SOL     OW 4745   0.307   3.787   4.342
 1572SOL    HW1 4746   0.296   3.881   4.375
 1572SOL    HW2 4747   0.302   3.724   4.419
 1573SOL     OW 4748   1.622   4.091   4.098
 1573SOL    HW1 4749   1.624   4.015   4.162
 1573SOL    HW2 4750   1.574   4.168   4.138
 1574SOL     OW 4751   1.023   4.490   4.690
 1574SOL    HW1 4752   1.038   4.511   4.786
 1574SOL    HW2 4753   0.993   4.395   4.681
 1575SOL     OW 4754   1.540   3.998   3.849
 1575SOL    HW1 4755   1.479   3.923   3.872
 1575SOL    HW2 4756   1.562   4.050   3.932
 1576SOL     OW 4757   1.303   4.562   3.766
 1576SOL    HW1 4758   1.337   4.469   3.781
 1576SOL    HW2 4759   1.321   4.589   3.671
 1577SOL     OW 4760   0.319   4.534   4.673
 1577SOL    HW1 4761   0.412   4.570   4.678
 1577SOL    HW2 4762   0.313   4.449   4.725
 1578SOL     OW 4763   0.339   4.233   4.730
 1578SOL    HW1 4764   0.287   4.150   4.713
 1578SOL    HW2 4765   0.416   4.238   4.666
 1579SOL     OW 4766   1.160   3.931   5.201
 1579SOL    HW1 4767   1.160   3.995   5.278
 1579SOL    HW2 4768   1.188   3.979   5.118
 1580SOL     OW 4769   0.008   5.050   3.924
 1580SOL    HW1 4770  -0.085   5.071   3.893
 1580SOL    HW2 4771   0.018   4.951   3.937
 1581SOL     OW 4772   1.002   4.520   4.962
 1581SOL    HW1 4773   1.043   4.488   5.048
 1581SOL    HW2 4774   0.906   4.493   4.959
 1582SOL     OW 4775   0.040   4.268   4.838
 1582SOL    HW1 4776   0.125   4.235   4.797
 1582SOL    HW2 4777   0.053   4.283   4.936
 1583SOL     OW 4778   0.815   4.296   4.049
 1583SOL    HW1 4779   0.822   4.207   4.003
 1583SOL    HW2 4780   0.721   4.330   4.041
 1584SOL     OW 4781   1.657   4.328   4.930
 1584SOL    HW1 4782   1.619   4.259   4.992
 1584SOL    HW2 4783   1.739   4.292   4.886
 1585SOL     OW 4784   0.671   4.188   4.993
 1585SOL    HW1 4785   0.637   4.099   4.963
 1585SOL    HW2 4786   0.697   4.242   4.913
 1586SOL     OW 4787   0.473   4.224   3.915
 1586SOL    HW1 4788   0.534   4.304   3.919
 1586SOL    HW2 4789   0.378   4.255   3.922
 1587SOL     OW 4790   0.159   4.861   5.190
 1587SOL    HW1 4791   0.181   4.800   5.266
 1587SOL    HW2 4792   0.169   4.812   5.104
 1588SOL     OW 4793   1.347   4.783   4.958
 1588SOL    HW1 4794   1.371   4.720   4.884
 1588SOL    HW2 4795   1.257   4.823   4.940
 1589SOL     OW 4796   1.302   4.579   4.033
 1589SOL    HW1 4797   1.216   4.548   4.075
 1589SOL    HW2 4798   1.298   4.565   3.934
 1590SOL     OW 4799   0.083   4.982   4.746
 1590SOL    HW1 4800   0.078   4.981   4.846
 1590SOL    HW2 4801   0.000   4.941   4.708
 1591SOL     OW 4802   1.726   3.859   4.247
 1591SOL    HW1 4803   1.799   3.842   4.180
 1591SOL    HW2 4804   1.695   3.772   4.285
 1592SOL     OW 4805   1.280   4.651   4.396
 1592SOL    HW1 4806   1.340   4.570   4.398
 1592SOL    HW2 4807   1.320   4.720   4.336
 1593SOL     OW 4808   0.830   4.997   5.146
 1593SOL    HW1 4809   0.825   5.030   5.241
 1593SOL    HW2 4810   0.744   5.016   5.100
 1594SOL     OW 4811   1.841   3.899   4.687
 1594SOL    HW1 4812   1.880   3.814   4.651
 1594SOL    HW2 4813   1.743   3.901   4.668
 1595SOL     OW 4814   0.263   4.050   4.444
 1595SOL    HW1 4815   0.184   4.101   4.410
 1595SOL    HW2 4816   0.254   4.035   4.542
 1596SOL     OW 4817   0.822   4.726   5.096
 1596SOL    HW1 4818   0.862   4.725   5.004
 1596SOL    HW2 4819   0.832   4.818   5.136
 1597SOL     OW 4820   0.916   4.634   4.015
 1597SOL    HW1 4821   0.979   4.672   3.947
 1597SOL    HW2 4822   0.956   4.551   4.054
 1598SOL     OW 4823   0.372   5.012   5.214
 1598SOL    HW1 4824   0.359   5.105   5.180
 1598SOL    HW2 4825   0.288   4.960   5.201
 1599SOL     OW 4826   1.614   5.016   5.013
 1599SOL    HW1 4827   1.674   5.019   5.093
 1599SOL    HW2 4828   1.539   5.080   5.026
 1600SOL     OW 4829   1.039   4.822   4.420
 1600SOL    HW1 4830   0.969   4.775   4.474
 1600SOL    HW2 4831   1.098   4.754   4.377
 1601SOL     OW 4832   1.014   3.960   4.695
 1601SOL    HW1 4833   1.006   3.924   4.602
 1601SOL    HW2 4834   1.012   3.884   4.760
 1602SOL     OW 4835   1.709   4.109   5.105
 1602SOL    HW1 4836   1.782   4.178   5.109
 1602SOL    HW2 4837   1.737   4.034   5.046
 1603SOL     OW 4838   0.672   3.927   5.213
 1603SOL    HW1 4839   0.762   3.911   5.173
 1603SOL    HW2 4840   0.680   3.932   5.312
 1604SOL     OW 4841   0.075   4.069   3.757
 1604SOL    HW1 4842  -0.017   4.041   3.728
 1604SOL    HW2 4843   0.106   4.146   3.701
 1605SOL     OW 4844   0.072   3.890   4.042
 1605SOL    HW1 4845   0.055   3.973   3.988
 1605SOL    HW2 4846   0.162   3.853   4.020
 1606SOL     OW 4847   0.613   4.566   5.155
 1606SOL    HW1 4848   0.669   4.647   5.138
 1606SOL    HW2 4849   0.672   4.486   5.158
 1607SOL     OW 4850   1.674   4.607   4.978
 1607SOL    HW1 4851   1.647   4.518   4.941
 1607SOL    HW2 4852   1.675   4.675   4.905
 1608SOL     OW 4853   1.225   4.049   4.173
 1608SOL    HW1 4854   1.290   3.975   4.162
 1608SOL    HW2 4855   1.245   4.099   4.257
 1609SOL     OW 4856   0.594   4.469   4.376
 1609SOL    HW1 4857   0.644   4.554   4.357
 1609SOL    HW2 4858   0.506   4.471   4.328
 1610SOL     OW 4859   1.730   4.658   5.241
 1610SOL    HW1 4860   1.768   4.749   5.256
 1610SOL    HW2 4861   1.722   4.641   5.142
 1611SOL     OW 4862   0.859   5.098   3.740
 1611SOL    HW1 4863   0.813   5.113   3.828
 1611SOL    HW2 4864   0.903   5.183   3.710
 1612SOL     OW 4865   0.859   4.680   4.585
 1612SOL    HW1 4866   0.913   4.611   4.633
 1612SOL    HW2 4867   0.827   4.749   4.651
 1613SOL     OW 4868   1.083   4.708   3.811
 1613SOL    HW1 4869   1.060   4.761   3.729
 1613SOL    HW2 4870   1.164   4.652   3.792
 1614SOL     OW 4871   0.079   4.964   4.377
 1614SOL    HW1 4872   0.078   4.917   4.465
 1614SOL    HW2 4873   0.161   4.936   4.326
 1615SOL     OW 4874   1.824   3.916   4.951
 1615SOL    HW1 4875   1.820   3.826   4.995
 1615SOL    HW2 4876   1.827   3.905   4.852
 1616SOL     OW 4877   0.428   4.148   4.244
 1616SOL    HW1 4878   0.458   4.076   4.182
 1616SOL    HW2 4879   0.389   4.108   4.327
 1617SOL     OW 4880   1.705   5.211   4.828
 1617SOL    HW1 4881   1.612   5.186   4.801
 1617SOL    HW2 4882   1.731   5.161   4.910
 1618SOL     OW 4883   0.317   4.271   5.004
 1618SOL    HW1 4884   0.355   4.212   5.076
 1618SOL    HW2 4885   0.357   4.245   4.916
 1619SOL     OW 4886   1.424   3.938   4.836
 1619SOL    HW1 4887   1.476   3.873   4.891
 1619SOL    HW2 4888   1.375   4.001   4.897
 1620SOL     OW 4889   1.001   3.758   4.878
 1620SOL    HW1 4890   0.938   3.686   4.847
 1620SOL    HW2 4891   1.094   3.722   4.878
 1621SOL     OW 4892   0.770   5.054   4.025
 1621SOL    HW1 4893   0.724   4.967   4.042
 1621SOL    HW2 4894   0.861   5.051   4.066
 1622SOL     OW 4895   1.352   3.776   3.892
 1622SOL    HW1 4896   1.387   3.735   3.808
 1622SOL    HW2 4897   1.262   3.738   3.912
 1623SOL     OW 4898   1.300   4.177   4.415
 1623SOL    HW1 4899   1.241   4.257   4.419
 1623SOL    HW2 4900   1.315   4.142   4.508
 1624SOL     OW 4901   1.593   3.945   4.606
 1624SOL    HW1 4902   1.509   3.944   4.660
 1624SOL    HW2 4903   1.595   4.028   4.550
 1625SOL     OW 4904   0.039   4.801   4.024
 1625SOL    HW1 4905   0.138   4.790   4.015
 1625SOL    HW2 4906  -0.001   4.715   4.056
 1626SOL     OW 4907   2.092   0.628   0.113
 1626SOL    HW1 4908   1.999   0.626   0.150
 1626SOL    HW2 4909   2.093   0.589   0.021
 1627SOL     OW 4910   2.087   0.275   0.996
 1627SOL    HW1 4911   2.122   0.258   1.088
 1627SOL    HW2 4912   1.999   0.230   0.984
 1628SOL     OW 4913   1.881   0.368   0.647
 1628SOL    HW1 4914   1.799   0.411   0.686
 1628SOL    HW2 4915   1.853   0.295   0.584
 1629SOL     OW 4916   2.431   1.275   1.165
 1629SOL    HW1 4917   2.338   1.268   1.128
 1629SOL    HW2 4918   2.442   1.364   1.209
 1630SOL     OW 4919   3.417   1.511   0.703
 1630SOL    HW1 4920   3.360   1.495   0.784
 1630SOL    HW2 4921   3.358   1.521   0.623
 1631SOL     OW 4922   2.997   0.703   0.717
 1631SOL    HW1 4923   3.054   0.781   0.692
 1631SOL    HW2 4924   2.937   0.729   0.793
 1632SOL     OW 4925   3.617   0.607   0.231
 1632SOL    HW1 4926   3.605   0.594   0.132
 1632SOL    HW2 4927   3.587   0.526   0.280
 1633SOL     OW 4928   2.630   1.144   1.023
 1633SOL    HW1 4929   2.552   1.161   1.083
 1633SOL    HW2 4930   2.664   1.231   0.987
 1634SOL     OW 4931   2.712   0.798   1.823
 1634SOL    HW1 4932   2.708   0.874   1.888
 1634SOL    HW2 4933   2.734   0.834   1.732
 1635SOL     OW 4934   2.547   1.012   0.665
 1635SOL    HW1 4935   2.616   0.996   0.735
 1635SOL    HW2 4936   2.474   1.069   0.703
 1636SOL     OW 4937   2.548   1.161   1.803
 1636SOL    HW1 4938   2.608   1.240   1.817
 1636SOL    HW2 4939   2.462   1.192   1.762
 1637SOL     OW 4940   2.197   1.435   1.061
 1637SOL    HW1 4941   2.119   1.404   1.008
 1637SOL    HW2 4942   2.255   1.493   1.004
 1638SOL     OW 4943   3.322   1.505   1.339
 1638SOL    HW1 4944   3.346   1.599   1.365
 1638SOL    HW2 4945   3.306   1.451   1.421
 1639SOL     OW 4946   2.300   0.392   1.499
 1639SOL    HW1 4947   2.382   0.336   1.508
 1639SOL    HW2 4948   2.219   0.334   1.503
 1640SOL     OW 4949   3.465   0.447   0.737
 1640SOL    HW1 4950   3.391   0.493   0.687
 1640SOL    HW2 4951   3.516   0.515   0.790
 1641SOL     OW 4952   2.093   1.713   0.483
 1641SOL    HW1 4953   2.127   1.790   0.537
 1641SOL    HW2 4954   2.137   1.713   0.393
 1642SOL     OW 4955   2.989   1.341   1.690
 1642SOL    HW1 4956   3.036   1.341   1.778
 1642SOL    HW2 4957   2.941   1.254   1.679
 1643SOL     OW 4958   2.092   1.434   0.538
 1643SOL    HW1 4959   2.066   1.530   0.538
 1643SOL    HW2 4960   2.021   1.380   0.583
 1644SOL     OW 4961   2.102   1.091   0.886
 1644SOL    HW1 4962   2.116   1.007   0.938
 1644SOL    HW2 4963   2.047   1.155   0.941
 1645SOL     OW 4964   2.482   1.786   1.439
 1645SOL    HW1 4965   2.390   1.769   1.474
 1645SOL    HW2 4966   2.510   1.878   1.465
 1646SOL     OW 4967   2.468   0.964   0.123
 1646SOL    HW1 4968   2.475   1.048   0.069
 1646SOL    HW2 4969   2.514   0.977   0.211
 1647SOL     OW 4970   3.456   0.114   1.480
 1647SOL    HW1 4971   3.438   0.181   1.408
 1647SOL    HW2 4972   3.453   0.160   1.569
 1648SOL     OW 4973   1.984   0.643   0.563
 1648SOL    HW1 4974   1.939   0.555   0.580
 1648SOL    HW2 4975   1.983   0.697   0.647
 1649SOL     OW 4976   3.704   1.767   0.359
 1649SOL    HW1 4977   3.758   1.738   0.439
 1649SOL    HW2 4978   3.734   1.857   0.330
 1650SOL     OW 4979   1.889   1.596   0.117
 1650SOL    HW1 4980   1.870   1.500   0.138
 1650SOL    HW2 4981   1.856   1.654   0.192
 1651SOL     OW 4982   3.551   0.922   0.612
 1651SOL    HW1 4983   3.646   0.893   0.620
 1651SOL    HW2 4984   3.543   0.987   0.537
 1652SOL     OW 4985   3.503   1.108   0.432
 1652SOL    HW1 4986   3.589   1.110   0.380
 1652SOL    HW2 4987   3.517   1.155   0.520
 1653SOL     OW 4988   1.975   0.737   1.597
 1653SOL    HW1 4989   2.063   0.724   1.642
 1653SOL    HW2 4990   1.962   0.834   1.575
 1654SOL     OW 4991   2.475   1.365   0.726
 1654SOL    HW1 4992   2.426   1.278   0.735
 1654SOL    HW2 4993   2.452   1.408   0.639
 1655SOL     OW 4994   3.155   1.228   1.423
 1655SOL    HW1 4995   3.192   1.155   1.365
 1655SOL    HW2 4996   3.207   1.233   1.508
 1656SOL     OW 4997   2.671   0.004   0.502
 1656SOL    HW1 4998   2.711   0.095   0.493
 1656SOL    HW2 4999   2.571   0.012   0.508
 1657SOL     OW 5000   2.059   0.976   1.264
 1657SOL    HW1 5001   2.148   0.931   1.250
 1657SOL    HW2 5002   1.986   0.911   1.245
 1658SOL     OW 5003   3.387   0.999   0.190
 1658SOL    HW1 5004   3.324   0.923   0.203
 1658SOL    HW2 5005   3.435   1.017   0.276
 1659SOL     OW 5006   3.049   1.792   1.616
 1659SOL    HW1 5007   3.073   1.852   1.540
 1659SOL    HW2 5008   3.056   1.697   1.586
 1660SOL     OW 5009   2.179   0.251   1.801
 1660SOL    HW1 5010   2.250   0.322   1.807
 1660SOL    HW2 5011   2.091   0.290   1.829
 1661SOL     OW 5012   3.328   1.417   0.953
 1661SOL    HW1 5013   3.269   1.423   1.033
 1661SOL    HW2 5014   3.313   1.329   0.907
 1662SOL     OW 5015   3.529   1.714   0.572
 1662SOL    HW1 5016   3.488   1.691   0.484
 1662SOL    HW2 5017   3.511   1.640   0.637
 1663SOL     OW 5018   2.460   0.729   0.270
 1663SOL    HW1 5019   2.484   0.798   0.202
 1663SOL    HW2 5020   2.382   0.762   0.324
 1664SOL     OW 5021   3.143   0.345   0.944
 1664SOL    HW1 5022   3.057   0.295   0.931
 1664SOL    HW2 5023   3.205   0.291   1.000
 1665SOL     OW 5024   3.438   1.662   0.307
 1665SOL    HW1 5025   3.527   1.708   0.310
 1665SOL    HW2 5026   3.417   1.638   0.212
 1666SOL     OW 5027   2.669   0.605   1.465
 1666SOL    HW1 5028   2.622   0.602   1.554
 1666SOL    HW2 5029   2.618   0.550   1.399
 1667SOL     OW 5030   3.256   0.469   1.674
 1667SOL    HW1 5031   3.236   0.512   1.762
 1667SOL    HW2 5032   3.334   0.407   1.683
 1668SOL     OW 5033   2.835   0.890   1.572
 1668SOL    HW1 5034   2.881   0.806   1.543
 1668SOL    HW2 5035   2.779   0.924   1.497
 1669SOL     OW 5036   2.853   0.410   1.242
 1669SOL    HW1 5037   2.776   0.444   1.296
 1669SOL    HW2 5038   2.819   0.359   1.163
 1670SOL     OW 5039   2.903   0.701   0.429
 1670SOL    HW1 5040   2.929   0.697   0.525
 1670SOL    HW2 5041   2.818   0.650   0.415
 1671SOL     OW 5042   1.938   0.811   0.789
 1671SOL    HW1 5043   2.037   0.799   0.798
 1671SOL    HW2 5044   1.914   0.906   0.810
 1672SOL     OW 5045   1.992   1.821   1.571
 1672SOL    HW1 5046   1.982   1.806   1.670
 1672SOL    HW2 5047   1.906   1.857   1.535
 1673SOL     OW 5048   2.727   0.348   0.195
 1673SOL    HW1 5049   2.786   0.411   0.146
 1673SOL    HW2 5050   2.746   0.254   0.166
 1674SOL     OW 5051   3.581   0.585   1.831
 1674SOL    HW1 5052   3.555   0.674   1.795
 1674SOL    HW2 5053   3.579   0.517   1.758
 1675SOL     OW 5054   3.224   1.144   0.545
 1675SOL    HW1 5055   3.307   1.115   0.497
 1675SOL    HW2 5056   3.175   1.211   0.489
 1676SOL     OW 5057   2.412   0.196   0.885
 1676SOL    HW1 5058   2.407   0.191   0.985
 1676SOL    HW2 5059   2.414   0.292   0.856
 1677SOL     OW 5060   2.870   1.456   0.477
 1677SOL    HW1 5061   2.824   1.528   0.425
 1677SOL    HW2 5062   2.866   1.476   0.575
 1678SOL     OW 5063   2.213   1.801   0.853
 1678SOL    HW1 5064   2.263   1.715   0.859
 1678SOL    HW2 5065   2.278   1.878   0.850
 1679SOL     OW 5066   3.657   1.066   0.873
 1679SOL    HW1 5067   3.595   1.051   0.797
 1679SOL    HW2 5068   3.605   1.077   0.958
 1680SOL     OW 5069   3.089   1.550   1.506
 1680SOL    HW1 5070   3.095   1.473   1.570
 1680SOL    HW2 5071   3.037   1.524   1.426
 1681SOL     OW 5072   2.183   0.943   0.242
 1681SOL    HW1 5073   2.265   0.982   0.200
 1681SOL    HW2 5074   2.156   0.861   0.193
 1682SOL     OW 5075   3.320   0.735   0.728
 1682SOL    HW1 5076   3.315   0.670   0.803
 1682SOL    HW2 5077   3.400   0.794   0.741
 1683SOL     OW 5078   2.323   1.266   1.727
 1683SOL    HW1 5079   2.273   1.267   1.641
 1683SOL    HW2 5080   2.260   1.248   1.803
 1684SOL     OW 5081   2.973   1.776   0.237
 1684SOL    HW1 5082   2.913   1.714   0.287
 1684SOL    HW2 5083   3.004   1.732   0.152
 1685SOL     OW 5084   2.064   0.285   1.498
 1685SOL    HW1 5085   1.984   0.345   1.485
 1685SOL    HW2 5086   2.054   0.236   1.584
 1686SOL     OW 5087   3.494   1.377   0.081
 1686SOL    HW1 5088   3.462   1.471   0.071
 1686SOL    HW2 5089   3.418   1.314   0.069
 1687SOL     OW 5090   2.326   1.743   0.323
 1687SOL    HW1 5091   2.359   1.782   0.409
 1687SOL    HW2 5092   2.402   1.736   0.258
 1688SOL     OW 5093   3.262   0.107   0.426
 1688SOL    HW1 5094   3.238   0.070   0.336
 1688SOL    HW2 5095   3.361   0.123   0.430
 1689SOL     OW 5096   2.111   1.785   1.241
 1689SOL    HW1 5097   2.168   1.720   1.291
 1689SOL    HW2 5098   2.095   1.752   1.148
 1690SOL     OW 5099   2.802   1.698   0.904
 1690SOL    HW1 5100   2.882   1.641   0.925
 1690SOL    HW2 5101   2.753   1.658   0.827
 1691SOL     OW 5102   2.244   0.700   0.480
 1691SOL    HW1 5103   2.289   0.610   0.477
 1691SOL    HW2 5104   2.150   0.689   0.513
 1692SOL     OW 5105   3.409   0.222   1.729
 1692SOL    HW1 5106   3.404   0.259   1.821
 1692SOL    HW2 5107   3.337   0.153   1.717
 1693SOL     OW 5108   2.476   0.122   0.117
 1693SOL    HW1 5109   2.574   0.100   0.124
 1693SOL    HW2 5110   2.445   0.105   0.024
 1694SOL     OW 5111   2.643   0.264   1.749
 1694SOL    HW1 5112   2.710   0.203   1.792
 1694SOL    HW2 5113   2.570   0.283   1.814
 1695SOL     OW 5114   2.750   1.514   1.195
 1695SOL    HW1 5115   2.727   1.489   1.101
 1695SOL    HW2 5116   2.811   1.445   1.234
 1696SOL     OW 5117   3.213   0.590   1.433
 1696SOL    HW1 5118   3.241   0.547   1.518
 1696SOL    HW2 5119   3.238   0.686   1.434
 1697SOL     OW 5120   2.665   1.402   0.924
 1697SOL    HW1 5121   2.755   1.416   0.882
 1697SOL    HW2 5122   2.594   1.404   0.853
 1698SOL     OW 5123   2.784   0.503   0.899
 1698SOL    HW1 5124   2.759   0.494   0.803
 1698SOL    HW2 5125   2.832   0.421   0.930
 1699SOL     OW 5126   2.401   0.064   0.512
 1699SOL    HW1 5127   2.320   0.065   0.570
 1699SOL    HW2 5128   2.404   0.147   0.457
 1700SOL     OW 5129   3.296   1.188   0.041
 1700SOL    HW1 5130   3.328   1.112   0.098
 1700SOL    HW2 5131   3.204   1.215   0.071
 1701SOL     OW 5132   2.159   0.035   0.171
 1701SOL    HW1 5133   2.208   0.119   0.150
 1701SOL    HW2 5134   2.221  -0.030   0.216
 1702SOL     OW 5135   2.797   0.236   0.480
 1702SOL    HW1 5136   2.749   0.277   0.402
 1702SOL    HW2 5137   2.896   0.234   0.461
 1703SOL     OW 5138   2.938   0.683   1.464
 1703SOL    HW1 5139   2.858   0.622   1.467
 1703SOL    HW2 5140   3.019   0.630   1.440
 1704SOL     OW 5141   3.089   1.570   0.793
 1704SOL    HW1 5142   3.110   1.644   0.728
 1704SOL    HW2 5143   3.157   1.570   0.866
 1705SOL     OW 5144   2.321   1.152   0.741
 1705SOL    HW1 5145   2.250   1.125   0.806
 1705SOL    HW2 5146   2.295   1.124   0.648
 1706SOL     OW 5147   3.133   1.797   0.591
 1706SOL    HW1 5148   3.177   1.861   0.527
 1706SOL    HW2 5149   3.083   1.849   0.661
 1707SOL     OW 5150   2.894   0.549   0.016
 1707SOL    HW1 5151   2.853   0.631  -0.023
 1707SOL    HW2 5152   2.958   0.575   0.089
 1708SOL     OW 5153   1.940   0.556   1.386
 1708SOL    HW1 5154   2.032   0.555   1.345
 1708SOL    HW2 5155   1.934   0.630   1.453
 1709SOL     OW 5156   2.423   0.222   1.147
 1709SOL    HW1 5157   2.461   0.138   1.184
 1709SOL    HW2 5158   2.335   0.241   1.191
 1710SOL     OW 5159   2.728   0.454   0.642
 1710SOL    HW1 5160   2.696   0.526   0.580
 1710SOL    HW2 5161   2.752   0.373   0.589
 1711SOL     OW 5162   2.879   0.039   0.753
 1711SOL    HW1 5163   2.807   0.044   0.684
 1711SOL    HW2 5164   2.855  -0.030   0.822
 1712SOL     OW 5165   3.291   1.173   0.867
 1712SOL    HW1 5166   3.236   1.089   0.860
 1712SOL    HW2 5167   3.317   1.202   0.775
 1713SOL     OW 5168   3.328   0.590   0.992
 1713SOL    HW1 5169   3.298   0.495   0.999
 1713SOL    HW2 5170   3.401   0.606   1.058
 1714SOL     OW 5171   3.719   0.833   0.377
 1714SOL    HW1 5172   3.761   0.769   0.441
 1714SOL    HW2 5173   3.681   0.782   0.299
 1715SOL     OW 5174   2.350   1.385   0.174
 1715SOL    HW1 5175   2.263   1.370   0.221
 1715SOL    HW2 5176   2.333   1.411   0.079
 1716SOL     OW 5177   3.526   1.280   0.657
 1716SOL    HW1 5178   3.625   1.288   0.671
 1716SOL    HW2 5179   3.481   1.364   0.688
 1717SOL     OW 5180   3.252   0.575   0.078
 1717SOL    HW1 5181   3.198   0.554   0.159
 1717SOL    HW2 5182   3.343   0.534   0.087
 1718SOL     OW 5183   2.389   0.256   0.328
 1718SOL    HW1 5184   2.416   0.197   0.253
 1718SOL    HW2 5185   2.389   0.351   0.297
 1719SOL     OW 5186   3.616   1.223   1.588
 1719SOL    HW1 5187   3.707   1.184   1.575
 1719SOL    HW2 5188   3.624   1.319   1.612
 1720SOL     OW 5189   2.926   1.347   1.340
 1720SOL    HW1 5190   2.846   1.324   1.395
 1720SOL    HW2 5191   3.009   1.321   1.389
 1721SOL     OW 5192   3.454   1.629   1.625
 1721SOL    HW1 5193   3.481   1.663   1.535
 1721SOL    HW2 5194   3.533   1.591   1.671
 1722SOL     OW 5195   2.973   1.195   1.100
 1722SOL    HW1 5196   2.933   1.239   1.181
 1722SOL    HW2 5197   2.932   1.232   1.017
 1723SOL     OW 5198   3.500   1.099   1.079
 1723SOL    HW1 5199   3.505   1.180   1.138
 1723SOL    HW2 5200   3.414   1.101   1.028
 1724SOL     OW 5201   2.777   0.089   1.402
 1724SOL    HW1 5202   2.802   0.069   1.307
 1724SOL    HW2 5203   2.849   0.145   1.444
 1725SOL     OW 5204   2.842   1.116   1.719
 1725SOL    HW1 5205   2.743   1.122   1.729
 1725SOL    HW2 5206   2.865   1.036   1.663
 1726SOL     OW 5207   2.567   1.050   0.368
 1726SOL    HW1 5208   2.553   1.057   0.467
 1726SOL    HW2 5209   2.651   0.999   0.350
 1727SOL     OW 5210   2.272   0.813   1.251
 1727SOL    HW1 5211   2.358   0.825   1.301
 1727SOL    HW2 5212   2.230   0.726   1.278
 1728SOL     OW 5213   3.136   0.386   1.262
 1728SOL    HW1 5214   3.157   0.460   1.326
 1728SOL    HW2 5215   3.047   0.403   1.219
 1729SOL     OW 5216   1.926   1.564   1.331
 1729SOL    HW1 5217   1.880   1.646   1.297
 1729SOL    HW2 5218   2.024   1.583   1.340
 1730SOL     OW 5219   2.229   1.100   0.501
 1730SOL    HW1 5220   2.222   1.183   0.445
 1730SOL    HW2 5221   2.233   1.020   0.441
 1731SOL     OW 5222   2.428   0.537   0.865
 1731SOL    HW1 5223   2.440   0.603   0.791
 1731SOL    HW2 5224   2.474   0.571   0.948
 1732SOL     OW 5225   3.114   1.348   0.388
 1732SOL    HW1 5226   3.164   1.425   0.428
 1732SOL    HW2 5227   3.019   1.350   0.420
 1733SOL     OW 5228   3.134   1.445   1.142
 1733SOL    HW1 5229   3.181   1.458   1.229
 1733SOL    HW2 5230   3.068   1.371   1.151
 1734SOL     OW 5231   3.444   0.639   0.472
 1734SOL    HW1 5232   3.413   0.700   0.545
 1734SOL    HW2 5233   3.494   0.691   0.403
 1735SOL     OW 5234   2.216   1.510   1.329
 1735SOL    HW1 5235   2.195   1.466   1.242
 1735SOL    HW2 5236   2.313   1.536   1.332
 1736SOL     OW 5237   2.264   0.751   1.598
 1736SOL    HW1 5238   2.332   0.806   1.551
 1736SOL    HW2 5239   2.304   0.663   1.625
 1737SOL     OW 5240   3.449   0.779   1.670
 1737SOL    HW1 5241   3.357   0.817   1.665
 1737SOL    HW2 5242   3.509   0.826   1.605
 1738SOL     OW 5243   2.875   0.105   1.770
 1738SOL    HW1 5244   2.881   0.190   1.718
 1738SOL    HW2 5245   2.907   0.029   1.713
 1739SOL     OW 5246   2.366   0.050   1.740
 1739SOL    HW1 5247   2.324  -0.007   1.670
 1739SOL    HW2 5248   2.300   0.119   1.772
 1740SOL     OW 5249   2.435   0.870   1.029
 1740SOL    HW1 5250   2.479   0.959   1.020
 1740SOL    HW2 5251   2.372   0.870   1.106
 1741SOL     OW 5252   3.222   0.862   1.045
 1741SOL    HW1 5253   3.147   0.862   0.979
 1741SOL    HW2 5254   3.259   0.770   1.054
 1742SOL     OW 5255   3.071   0.525   0.275
 1742SOL    HW1 5256   3.084   0.441   0.329
 1742SOL    HW2 5257   3.042   0.599   0.335
 1743SOL     OW 5258   2.169   0.213   1.231
 1743SOL    HW1 5259   2.146   0.250   1.321
 1743SOL    HW2 5260   2.139   0.118   1.225
 1744SOL     OW 5261   1.899   1.310   1.282
 1744SOL    HW1 5262   1.952   1.261   1.350
 1744SOL    HW2 5263   1.921   1.408   1.287
 1745SOL     OW 5264   2.594   0.634   1.064
 1745SOL    HW1 5265   2.653   0.608   0.988
 1745SOL    HW2 5266   2.566   0.730   1.053
 1746SOL     OW 5267   3.590   0.935   1.854
 1746SOL    HW1 5268   3.544   0.928   1.765
 1746SOL    HW2 5269   3.528   0.979   1.920
 1747SOL     OW 5270   2.169   0.063   0.618
 1747SOL    HW1 5271   2.158   0.157   0.651
 1747SOL    HW2 5272   2.164   0.000   0.695
 1748SOL     OW 5273   3.484   0.367   0.374
 1748SOL    HW1 5274   3.486   0.291   0.438
 1748SOL    HW2 5275   3.436   0.444   0.414
 1749SOL     OW 5276   2.885   0.766   0.966
 1749SOL    HW1 5277   2.900   0.787   1.062
 1749SOL    HW2 5278   2.855   0.671   0.957
 1750SOL     OW 5279   2.842   1.573   1.700
 1750SOL    HW1 5280   2.822   1.617   1.612
 1750SOL    HW2 5281   2.881   1.482   1.684
 1751SOL     OW 5282   3.721   1.518   1.605
 1751SOL    HW1 5283   3.735   1.545   1.510
 1751SOL    HW2 5284   3.804   1.540   1.658
 1752SOL     OW 5285   2.212   0.898   1.804
 1752SOL    HW1 5286   2.288   0.942   1.852
 1752SOL    HW2 5287   2.247   0.851   1.722
 1753SOL     OW 5288   3.402   0.274   0.125
 1753SOL    HW1 5289   3.341   0.199   0.148
 1753SOL    HW2 5290   3.424   0.326   0.208
 1754SOL     OW 5291   3.165   0.838   0.042
 1754SOL    HW1 5292   3.199   0.745   0.057
 1754SOL    HW2 5293   3.183   0.865  -0.053
 1755SOL     OW 5294   2.930   1.333   0.849
 1755SOL    HW1 5295   2.937   1.249   0.794
 1755SOL    HW2 5296   2.992   1.402   0.813
 1756SOL     OW 5297   2.181   0.810   0.949
 1756SOL    HW1 5298   2.274   0.846   0.954
 1756SOL    HW2 5299   2.175   0.725   1.001
 1757SOL     OW 5300   2.201   0.509   1.006
 1757SOL    HW1 5301   2.149   0.426   0.989
 1757SOL    HW2 5302   2.278   0.514   0.942
 1758SOL     OW 5303   3.000   0.380   1.678
 1758SOL    HW1 5304   2.955   0.443   1.742
 1758SOL    HW2 5305   3.093   0.411   1.661
 1759SOL     OW 5306   3.022   0.207   1.477
 1759SOL    HW1 5307   3.022   0.271   1.554
 1759SOL    HW2 5308   3.050   0.255   1.394
 1760SOL     OW 5309   1.950   1.801   0.927
 1760SOL    HW1 5310   1.908   1.715   0.900
 1760SOL    HW2 5311   2.044   1.804   0.893
 1761SOL     OW 5312   2.366   1.568   0.910
 1761SOL    HW1 5313   2.432   1.642   0.919
 1761SOL    HW2 5314   2.410   1.489   0.868
 1762SOL     OW 5315   2.864   0.796   1.238
 1762SOL    HW1 5316   2.905   0.764   1.324
 1762SOL    HW2 5317   2.768   0.769   1.235
 1763SOL     OW 5318   1.902   0.544   1.114
 1763SOL    HW1 5319   1.987   0.511   1.073
 1763SOL    HW2 5320   1.915   0.559   1.212
 1764SOL     OW 5321   2.051   0.520   1.722
 1764SOL    HW1 5322   2.110   0.480   1.652
 1764SOL    HW2 5323   1.993   0.591   1.681
 1765SOL     OW 5324   3.231   0.950   1.660
 1765SOL    HW1 5325   3.270   1.039   1.680
 1765SOL    HW2 5326   3.241   0.930   1.563
 1766SOL     OW 5327   2.677   0.572   0.325
 1766SOL    HW1 5328   2.684   0.483   0.279
 1766SOL    HW2 5329   2.583   0.606   0.317
 1767SOL     OW 5330   3.519   0.604   1.206
 1767SOL    HW1 5331   3.481   0.535   1.268
 1767SOL    HW2 5332   3.601   0.568   1.162
 1768SOL     OW 5333   2.114   1.564   1.744
 1768SOL    HW1 5334   2.084   1.621   1.820
 1768SOL    HW2 5335   2.107   1.467   1.770
 1769SOL     OW 5336   2.533   0.464   1.269
 1769SOL    HW1 5337   2.499   0.375   1.239
 1769SOL    HW2 5338   2.559   0.518   1.189
 1770SOL     OW 5339   2.792   1.678   1.465
 1770SOL    HW1 5340   2.768   1.660   1.370
 1770SOL    HW2 5341   2.822   1.772   1.475
 1771SOL     OW 5342   2.335   0.500   0.191
 1771SOL    HW1 5343   2.396   0.580   0.195
 1771SOL    HW2 5344   2.240   0.531   0.198
 1772SOL     OW 5345   2.021   1.137   1.466
 1772SOL    HW1 5346   2.043   1.076   1.542
 1772SOL    HW2 5347   2.031   1.088   1.380
 1773SOL     OW 5348   3.209   1.059   1.234
 1773SOL    HW1 5349   3.233   0.996   1.160
 1773SOL    HW2 5350   3.119   1.099   1.216
 1774SOL     OW 5351   3.164   0.855   0.309
 1774SOL    HW1 5352   3.078   0.824   0.351
 1774SOL    HW2 5353   3.160   0.841   0.210
 1775SOL     OW 5354   3.621   1.747   1.154
 1775SOL    HW1 5355   3.682   1.777   1.081
 1775SOL    HW2 5356   3.583   1.658   1.132
 1776SOL     OW 5357   3.114   1.731   1.128
 1776SOL    HW1 5358   3.198   1.736   1.074
 1776SOL    HW2 5359   3.091   1.635   1.146
 1777SOL     OW 5360   1.945   1.258   1.022
 1777SOL    HW1 5361   1.940   1.257   1.122
 1777SOL    HW2 5362   1.862   1.217   0.984
 1778SOL     OW 5363   2.550   1.662   1.716
 1778SOL    HW1 5364   2.494   1.743   1.725
 1778SOL    HW2 5365   2.602   1.666   1.630
 1779SOL     OW 5366   2.765   0.086   0.133
 1779SOL    HW1 5367   2.816   0.087   0.047
 1779SOL    HW2 5368   2.821   0.044   0.204
 1780SOL     OW 5369   3.588   0.135   0.523
 1780SOL    HW1 5370   3.661   0.118   0.456
 1780SOL    HW2 5371   3.557   0.048   0.561
 1781SOL     OW 5372   3.250   1.573   0.477
 1781SOL    HW1 5373   3.317   1.585   0.403
 1781SOL    HW2 5374   3.210   1.662   0.500
 1782SOL     OW 5375   1.992   1.794   1.851
 1782SOL    HW1 5376   1.951   1.720   1.904
 1782SOL    HW2 5377   2.056   1.845   1.909
 1783SOL     OW 5378   3.142   0.927   0.672
 1783SOL    HW1 5379   3.202   0.846   0.674
 1783SOL    HW2 5380   3.182   0.996   0.612
 1784SOL     OW 5381   2.692   1.273   1.422
 1784SOL    HW1 5382   2.687   1.306   1.517
 1784SOL    HW2 5383   2.606   1.292   1.376
 1785SOL     OW 5384   2.534   1.616   0.154
 1785SOL    HW1 5385   2.543   1.626   0.055
 1785SOL    HW2 5386   2.494   1.527   0.175
 1786SOL     OW 5387   3.512   1.720   1.394
 1786SOL    HW1 5388   3.565   1.730   1.310
 1786SOL    HW2 5389   3.485   1.810   1.428
 1787SOL     OW 5390   3.703   0.175   0.963
 1787SOL    HW1 5391   3.742   0.090   0.927
 1787SOL    HW2 5392   3.605   0.177   0.944
 1788SOL     OW 5393   2.125   0.326   0.720
 1788SOL    HW1 5394   2.046   0.377   0.686
 1788SOL    HW2 5395   2.116   0.311   0.818
 1789SOL     OW 5396   3.056   1.612   0.031
 1789SOL    HW1 5397   3.062   1.519   0.068
 1789SOL    HW2 5398   2.997   1.612  -0.049
 1790SOL     OW 5399   2.684   1.002   1.372
 1790SOL    HW1 5400   2.724   1.001   1.280
 1790SOL    HW2 5401   2.694   1.094   1.412
 1791SOL     OW 5402   2.778   0.910   0.291
 1791SOL    HW1 5403   2.841   0.948   0.223
 1791SOL    HW2 5404   2.818   0.827   0.330
 1792SOL     OW 5405   3.366   1.607   0.044
 1792SOL    HW1 5406   3.274   1.644   0.051
 1792SOL    HW2 5407   3.404   1.627  -0.046
 1793SOL     OW 5408   2.234   1.288   1.490
 1793SOL    HW1 5409   2.221   1.381   1.456
 1793SOL    HW2 5410   2.150   1.236   1.477
 1794SOL     OW 5411   3.476   1.292   1.289
 1794SOL    HW1 5412   3.536   1.295   1.369
 1794SOL    HW2 5413   3.401   1.356   1.302
 1795SOL     OW 5414   2.901   1.098   0.696
 1795SOL    HW1 5415   2.831   1.051   0.750
 1795SOL    HW2 5416   2.960   1.030   0.653
 1796SOL     OW 5417   2.876   0.236   0.971
 1796SOL    HW1 5418   2.868   0.200   0.878
 1796SOL    HW2 5419   2.874   0.160   1.036
 1797SOL     OW 5420   2.452   1.487   0.491
 1797SOL    HW1 5421   2.494   1.429   0.421
 1797SOL    HW2 5422   2.408   1.566   0.447
 1798SOL     OW 5423   3.571   0.385   1.381
 1798SOL    HW1 5424   3.644   0.454   1.385
 1798SOL    HW2 5425   3.599   0.310   1.322
 1799SOL     OW 5426   2.117   1.348   0.290
 1799SOL    HW1 5427   2.021   1.349   0.263
 1799SOL    HW2 5428   2.129   1.401   0.374
 1800SOL     OW 5429   1.967   1.013   1.726
 1800SOL    HW1 5430   1.890   0.980   1.780
 1800SOL    HW2 5431   2.052   0.983   1.768
 1801SOL     OW 5432   2.534   0.203   1.489
 1801SOL    HW1 5433   2.624   0.187   1.449
 1801SOL    HW2 5434   2.542   0.208   1.588
 1802SOL     OW 5435   1.937   0.345   0.033
 1802SOL    HW1 5436   1.845   0.317   0.004
 1802SOL    HW2 5437   1.968   0.422  -0.023
 1803SOL     OW 5438   3.302   0.856   1.398
 1803SOL    HW1 5439   3.245   0.908   1.335
 1803SOL    HW2 5440   3.398   0.868   1.374
 1804SOL     OW 5441   1.934   0.166   0.318
 1804SOL    HW1 5442   1.917   0.249   0.264
 1804SOL    HW2 5443   2.024   0.129   0.296
 1805SOL     OW 5444   3.045   1.335   0.119
 1805SOL    HW1 5445   2.946   1.324   0.121
 1805SOL    HW2 5446   3.079   1.350   0.212
 1806SOL     OW 5447   2.475   0.842   1.431
 1806SOL    HW1 5448   2.531   0.923   1.414
 1806SOL    HW2 5449   2.534   0.762   1.434
 1807SOL     OW 5450   3.355   1.767   0.959
 1807SOL    HW1 5451   3.388   1.831   0.890
 1807SOL    HW2 5452   3.421   1.761   1.034
 1808SOL     OW 5453   2.578   0.565   1.708
 1808SOL    HW1 5454   2.597   0.630   1.782
 1808SOL    HW2 5455   2.638   0.485   1.717
 1809SOL     OW 5456   3.312   1.220   1.633
 1809SOL    HW1 5457   3.303   1.210   1.732
 1809SOL    HW2 5458   3.408   1.213   1.607
 1810SOL     OW 5459   2.252   1.741   1.560
 1810SOL    HW1 5460   2.161   1.782   1.558
 1810SOL    HW2 5461   2.245   1.647   1.592
 1811SOL     OW 5462   3.536   0.883   1.254
 1811SOL    HW1 5463   3.509   0.794   1.217
 1811SOL    HW2 5464   3.537   0.951   1.181
 1812SOL     OW 5465   3.087   0.325   0.449
 1812SOL    HW1 5466   3.152   0.251   0.438
 1812SOL    HW2 5467   3.107   0.375   0.533
 1813SOL     OW 5468   2.456   0.745   0.652
 1813SOL    HW1 5469   2.506   0.830   0.633
 1813SOL    HW2 5470   2.368   0.747   0.604
 1814SOL     OW 5471   3.639   0.342   1.642
 1814SOL    HW1 5472   3.622   0.373   1.548
 1814SOL    HW2 5473   3.555   0.305   1.680
 1815SOL     OW 5474   3.592   0.934   1.517
 1815SOL    HW1 5475   3.630   1.025   1.532
 1815SOL    HW2 5476   3.584   0.917   1.418
 1816SOL     OW 5477   2.721   1.374   0.016
 1816SOL    HW1 5478   2.675   1.389   0.104
 1816SOL    HW2 5479   2.765   1.459  -0.014
 1817SOL     OW 5480   2.523   1.790   0.953
 1817SOL    HW1 5481   2.477   1.878   0.940
 1817SOL    HW2 5482   2.622   1.802   0.946
 1818SOL     OW 5483   2.721   0.956   0.861
 1818SOL    HW1 5484   2.775   0.887   0.909
 1818SOL    HW2 5485   2.689   1.025   0.927
 1819SOL     OW 5486   2.945   0.984   0.087
 1819SOL    HW1 5487   2.922   1.037   0.005
 1819SOL    HW2 5488   3.026   0.928   0.068
 1820SOL     OW 5489   3.723   1.569   0.851
 1820SOL    HW1 5490   3.652   1.557   0.781
 1820SOL    HW2 5491   3.724   1.490   0.911
 1821SOL     OW 5492   2.083   1.314   1.844
 1821SOL    HW1 5493   2.018   1.241   1.823
 1821SOL    HW2 5494   2.087   1.328   1.942
 1822SOL     OW 5495   1.941   1.240   0.653
 1822SOL    HW1 5496   1.940   1.193   0.741
 1822SOL    HW2 5497   2.023   1.212   0.602
 1823SOL     OW 5498   2.534   1.391   1.624
 1823SOL    HW1 5499   2.456   1.341   1.662
 1823SOL    HW2 5500   2.531   1.486   1.655
 1824SOL     OW 5501   3.686   0.192   1.227
 1824SOL    HW1 5502   3.682   0.102   1.271
 1824SOL    HW2 5503   3.689   0.181   1.128
 1825SOL     OW 5504   2.290   0.424   0.520
 1825SOL    HW1 5505   2.320   0.352   0.458
 1825SOL    HW2 5506   2.251   0.384   0.603
 1826SOL     OW 5507   3.567   1.487   1.104
 1826SOL    HW1 5508   3.474   1.462   1.077
 1826SOL    HW2 5509   3.593   1.437   1.186
 1827SOL     OW 5510   2.179   0.547   1.280
 1827SOL    HW1 5511   2.217   0.488   1.352
 1827SOL    HW2 5512   2.219   0.521   1.192
 1828SOL     OW 5513   2.674   1.586   0.687
 1828SOL    HW1 5514   2.706   1.596   0.593
 1828SOL    HW2 5515   2.595   1.524   0.689
 1829SOL     OW 5516   3.286   0.214   1.112
 1829SOL    HW1 5517   3.338   0.149   1.167
 1829SOL    HW2 5518   3.237   0.277   1.173
 1830SOL     OW 5519   2.863   0.034   1.154
 1830SOL    HW1 5520   2.800  -0.038   1.123
 1830SOL    HW2 5521   2.956  -0.002   1.154
 1831SOL     OW 5522   2.632   1.330   0.301
 1831SOL    HW1 5523   2.586   1.243   0.318
 1831SOL    HW2 5524   2.723   1.327   0.342
 1832SOL     OW 5525   2.480   1.567   1.284
 1832SOL    HW1 5526   2.475   1.649   1.341
 1832SOL    HW2 5527   2.569   1.564   1.239
 1833SOL     OW 5528   3.214   0.052   0.168
 1833SOL    HW1 5529   3.249   0.011   0.084
 1833SOL    HW2 5530   3.124   0.014   0.188
 1834SOL     OW 5531   3.162   0.453   0.691
 1834SOL    HW1 5532   3.103   0.533   0.695
 1834SOL    HW2 5533   3.177   0.418   0.784
 1835SOL     OW 5534   3.455   0.221   0.882
 1835SOL    HW1 5535   3.371   0.220   0.936
 1835SOL    HW2 5536   3.457   0.304   0.826
 1836SOL     OW 5537   1.901   1.077   0.300
 1836SOL    HW1 5538   2.000   1.066   0.291
 1836SOL    HW2 5539   1.861   0.991   0.332
 1837SOL     OW 5540   2.737   1.646   0.337
 1837SOL    HW1 5541   2.660   1.611   0.283
 1837SOL    HW2 5542   2.705   1.717   0.399
 1838SOL     OW 5543   2.092   0.628   1.975
 1838SOL    HW1 5544   1.999   0.626   2.012
 1838SOL    HW2 5545   2.093   0.589   1.883
 1839SOL     OW 5546   2.087   0.275   2.858
 1839SOL    HW1 5547   2.122   0.258   2.950
 1839SOL    HW2 5548   1.999   0.230   2.846
 1840SOL     OW 5549   1.881   0.368   2.509
 1840SOL    HW1 5550   1.799   0.411   2.548
 1840SOL    HW2 5551   1.853   0.295   2.446
 1841SOL     OW 5552   2.431   1.275   3.027
 1841SOL    HW1 5553   2.338   1.268   2.990
 1841SOL    HW2 5554   2.442   1.364   3.071
 1842SOL     OW 5555   3.417   1.511   2.565
 1842SOL    HW1 5556   3.360   1.495   2.646
 1842SOL    HW2 5557   3.358   1.521   2.485
 1843SOL     OW 5558   2.997   0.703   2.579
 1843SOL    HW1 5559   3.054   0.781   2.554
 1843SOL    HW2 5560   2.937   0.729   2.655
 1844SOL     OW 5561   3.617   0.607   2.093
 1844SOL    HW1 5562   3.605   0.594   1.994
 1844SOL    HW2 5563   3.587   0.526   2.142
 1845SOL     OW 5564   2.630   1.144   2.885
 1845SOL    HW1 5565   2.552   1.161   2.945
 1845SOL    HW2 5566   2.664   1.231   2.849
 1846SOL     OW 5567   2.712   0.798   3.685
 1846SOL    HW1 5568   2.708   0.874   3.750
 1846SOL    HW2 5569   2.734   0.834   3.594
 1847SOL     OW 5570   2.547   1.012   2.527
 1847SOL    HW1 5571   2.616   0.996   2.597
 1847SOL    HW2 5572   2.474   1.069   2.565
 1848SOL     OW 5573   2.548   1.161   3.665
 1848SOL    HW1 5574   2.608   1.240   3.679
 1848SOL    HW2 5575   2.462   1.192   3.624
 1849SOL     OW 5576   2.197   1.435   2.923
 1849SOL    HW1 5577   2.119   1.404   2.870
 1849SOL    HW2 5578   2.255   1.493   2.866
 1850SOL     OW 5579   3.322   1.505   3.201
 1850SOL    HW1 5580   3.346   1.599   3.227
 1850SOL    HW2 5581   3.306   1.451   3.283
 1851SOL     OW 5582   2.300   0.392   3.361
 1851SOL    HW1 5583   2.382   0.336   3.370
 1851SOL    HW2 5584   2.219   0.334   3.365
 1852SOL     OW 5585   3.465   0.447   2.599
 1852SOL    HW1 5586   3.391   0.493   2.549
 1852SOL    HW2 5587   3.516   0.515   2.652
 1853SOL     OW 5588   2.093   1.713   2.345
 1853SOL    HW1 5589   2.127   1.790   2.399
 1853SOL    HW2 5590   2.137   1.713   2.255
 1854SOL     OW 5591   2.989   1.341   3.552
 1854SOL    HW1 5592   3.036   1.341   3.640
 1854SOL    HW2 5593   2.941   1.254   3.541
 1855SOL     OW 5594   2.092   1.434   2.400
 1855SOL    HW1 5595   2.066   1.530   2.400
 1855SOL    HW2 5596   2.021   1.380   2.445
 1856SOL     OW 5597   2.102   1.091   2.748
 1856SOL    HW1 5598   2.116   1.007   2.800
 1856SOL    HW2 5599   2.047   1.155   2.803
 1857SOL     OW 5600   2.482   1.786   3.301
 1857SOL    HW1 5601   2.390   1.769   3.336
 1857SOL    HW2 5602   2.510   1.878   3.327
 1858SOL     OW 5603   2.468   0.964   1.985
 1858SOL    HW1 5604   2.475   1.048   1.931
 1858SOL    HW2 5605   2.514   0.977   2.073
 1859SOL     OW 5606   3.456   0.114   3.342
 1859SOL    HW1 5607   3.438   0.181   3.270
 1859SOL    HW2 5608   3.453   0.160   3.431
 1860SOL     OW 5609   1.984   0.643   2.425
 1860SOL    HW1 5610   1.939   0.555   2.442
 1860SOL    HW2 5611   1.983   0.697   2.509
 1861SOL     OW 5612   3.704   1.767   2.221
 1861SOL    HW1 5613   3.758   1.738   2.301
 1861SOL    HW2 5614   3.734   1.857   2.192
 1862SOL     OW 5615   1.889   1.596   1.979
 1862SOL    HW1 5616   1.870   1.500   2.000
 1862SOL    HW2 5617   1.856   1.654   2.054
 1863SOL     OW 5618   3.551   0.922   2.474
 1863SOL    HW1 5619   3.646   0.893   2.482
 1863SOL    HW2 5620   3.543   0.987   2.399
 1864SOL     OW 5621   3.503   1.108   2.294
 1864SOL    HW1 5622   3.589   1.110   2.242
 1864SOL    HW2 5623   3.517   1.155   2.382
 1865SOL     OW 5624   1.975   0.737   3.459
 1865SOL    HW1 5625   2.063   0.724   3.504
 1865SOL    HW2 5626   1.962   0.834   3.437
 1866SOL     OW 5627   2.475   1.365   2.588
 1866SOL    HW1 5628   2.426   1.278   2.597
 1866SOL    HW2 5629   2.452   1.408   2.501
 1867SOL     OW 5630   3.155   1.228   3.285
 1867SOL    HW1 5631   3.192   1.155   3.227
 1867SOL    HW2 5632   3.207   1.233   3.370
 1868SOL     OW 5633   2.671   0.004   2.364
 1868SOL    HW1 5634   2.711   0.095   2.355
 1868SOL    HW2 5635   2.571   0.012   2.370
 1869SOL     OW 5636   2.059   0.976   3.126
 1869SOL    HW1 5637   2.148   0.931   3.112
 1869SOL    HW2 5638   1.986   0.911   3.107
 1870SOL     OW 5639   3.387   0.999   2.052
 1870SOL    HW1 5640   3.324   0.923   2.065
 1870SOL    HW2 5641   3.435   1.017   2.138
 1871SOL     OW 5642   3.049   1.792   3.478
 1871SOL    HW1 5643   3.073   1.852   3.402
 1871SOL    HW2 5644   3.056   1.697   3.448
 1872SOL     OW 5645   2.179   0.251   3.663
 1872SOL    HW1 5646   2.250   0.322   3.669
 1872SOL    HW2 5647   2.091   0.290   3.691
 1873SOL     OW 5648   3.328   1.417   2.815
 1873SOL    HW1 5649   3.269   1.423   2.895
 1873SOL    HW2 5650   3.313   1.329   2.769
 1874SOL     OW 5651   3.529   1.714   2.434
 1874SOL    HW1 5652   3.488   1.691   2.346
 1874SOL    HW2 5653   3.511   1.640   2.499
 1875SOL     OW 5654   2.460   0.729   2.132
 1875SOL    HW1 5655   2.484   0.798   2.064
 1875SOL    HW2 5656   2.382   0.762   2.186
 1876SOL     OW 5657   3.143   0.345   2.806
 1876SOL    HW1 5658   3.057   0.295   2.793
 1876SOL    HW2 5659   3.205   0.291   2.862
 1877SOL     OW 5660   3.438   1.662   2.169
 1877SOL    HW1 5661   3.527   1.708   2.172
 1877SOL    HW2 5662   3.417   1.638   2.074
 1878SOL     OW 5663   2.669   0.605   3.327
 1878SOL    HW1 5664   2.622   0.602   3.416
 1878SOL    HW2 5665   2.618   0.550   3.261
 1879SOL     OW 5666   3.256   0.469   3.536
 1879SOL    HW1 5667   3.236   0.512   3.624
 1879SOL    HW2 5668   3.334   0.407   3.545
 1880SOL     OW 5669   2.835   0.890   3.434
 1880SOL    HW1 5670   2.881   0.806   3.405
 1880SOL    HW2 5671   2.779   0.924   3.359
 1881SOL     OW 5672   2.853   0.410   3.104
 1881SOL    HW1 5673   2.776   0.444   3.158
 1881SOL    HW2 5674   2.819   0.359   3.025
 1882SOL     OW 5675   2.903   0.701   2.291
 1882SOL    HW1 5676   2.929   0.697   2.387
 1882SOL    HW2 5677   2.818   0.650   2.277
 1883SOL     OW 5678   1.938   0.811   2.651
 1883SOL    HW1 5679   2.037   0.799   2.660
 1883SOL    HW2 5680   1.914   0.906   2.672
 1884SOL     OW 5681   1.992   1.821   3.433
 1884SOL    HW1 5682   1.982   1.806   3.532
 1884SOL    HW2 5683   1.906   1.857   3.397
 1885SOL     OW 5684   2.727   0.348   2.057
 1885SOL    HW1 5685   2.786   0.411   2.008
 1885SOL    HW2 5686   2.746   0.254   2.028
 1886SOL     OW 5687   3.581   0.585   3.693
 1886SOL    HW1 5688   3.555   0.674   3.657
 1886SOL    HW2 5689   3.579   0.517   3.620
 1887SOL     OW 5690   3.224   1.144   2.407
 1887SOL    HW1 5691   3.307   1.115   2.359
 1887SOL    HW2 5692   3.175   1.211   2.351
 1888SOL     OW 5693   2.412   0.196   2.747
 1888SOL    HW1 5694   2.407   0.191   2.847
 1888SOL    HW2 5695   2.414   0.292   2.718
 1889SOL     OW 5696   2.870   1.456   2.339
 1889SOL    HW1 5697   2.824   1.528   2.287
 1889SOL    HW2 5698   2.866   1.476   2.437
 1890SOL     OW 5699   2.213   1.801   2.715
 1890SOL    HW1 5700   2.263   1.715   2.721
 1890SOL    HW2 5701   2.278   1.878   2.712
 1891SOL     OW 5702   3.657   1.066   2.735
 1891SOL    HW1 5703   3.595   1.051   2.659
 1891SOL    HW2 5704   3.605   1.077   2.820
 1892SOL     OW 5705   3.089   1.550   3.368
 1892SOL    HW1 5706   3.095   1.473   3.432
 1892SOL    HW2 5707   3.037   1.524   3.288
 1893SOL     OW 5708   2.183   0.943   2.104
 1893SOL    HW1 5709   2.265   0.982   2.062
 1893SOL    HW2 5710   2.156   0.861   2.055
 1894SOL     OW 5711   3.320   0.735   2.590
 1894SOL    HW1 5712   3.315   0.670   2.665
 1894SOL    HW2 5713   3.400   0.794   2.603
 1895SOL     OW 5714   2.323   1.266   3.589
 1895SOL    HW1 5715   2.273   1.267   3.503
 1895SOL    HW2 5716   2.260   1.248   3.665
 1896SOL     OW 5717   2.973   1.776   2.099
 1896SOL    HW1 5718   2.913   1.714   2.149
 1896SOL    HW2 5719   3.004   1.732   2.014
 1897SOL     OW 5720   2.064   0.285   3.360
 1897SOL    HW1 5721   1.984   0.345   3.347
 1897SOL    HW2 5722   2.054   0.236   3.446
 1898SOL     OW 5723   3.494   1.377   1.943
 1898SOL    HW1 5724   3.462   1.471   1.933
 1898SOL    HW2 5725   3.418   1.314   1.931
 1899SOL     OW 5726   2.326   1.743   2.185
 1899SOL    HW1 5727   2.359   1.782   2.271
 1899SOL    HW2 5728   2.402   1.736   2.120
 1900SOL     OW 5729   3.262   0.107   2.288
 1900SOL    HW1 5730   3.238   0.070   2.198
 1900SOL    HW2 5731   3.361   0.123   2.292
 1901SOL     OW 5732   2.111   1.785   3.103
 1901SOL    HW1 5733   2.168   1.720   3.153
 1901SOL    HW2 5734   2.095   1.752   3.010
 1902SOL     OW 5735   2.802   1.698   2.766
 1902SOL    HW1 5736   2.882   1.641   2.787
 1902SOL    HW2 5737   2.753   1.658   2.689
 1903SOL     OW 5738   2.244   0.700   2.342
 1903SOL    HW1 5739   2.289   0.610   2.339
 1903SOL    HW2 5740   2.150   0.689   2.375
 1904SOL     OW 5741   3.409   0.222   3.591
 1904SOL    HW1 5742   3.404   0.259   3.683
 1904SOL    HW2 5743   3.337   0.153   3.579
 1905SOL     OW 5744   2.476   0.122   1.979
 1905SOL    HW1 5745   2.574   0.100   1.986
 1905SOL    HW2 5746   2.445   0.105   1.886
 1906SOL     OW 5747   2.643   0.264   3.611
 1906SOL    HW1 5748   2.710   0.203   3.654
 1906SOL    HW2 5749   2.570   0.283   3.676
 1907SOL     OW 5750   2.750   1.514   3.057
 1907SOL    HW1 5751   2.727   1.489   2.963
 1907SOL    HW2 5752   2.811   1.445   3.096
 1908SOL     OW 5753   3.213   0.590   3.295
 1908SOL    HW1 5754   3.241   0.547   3.380
 1908SOL    HW2 5755   3.238   0.686   3.296
 1909SOL     OW 5756   2.665   1.402   2.786
 1909SOL    HW1 5757   2.755   1.416   2.744
 1909SOL    HW2 5758   2.594   1.404   2.715
 1910SOL     OW 5759   2.784   0.503   2.761
 1910SOL    HW1 5760   2.759   0.494   2.665
 1910SOL    HW2 5761   2.832   0.421   2.792
 1911SOL     OW 5762   2.401   0.064   2.374
 1911SOL    HW1 5763   2.320   0.065   2.432
 1911SOL    HW2 5764   2.404   0.147   2.319
 1912SOL     OW 5765   3.296   1.188   1.903
 1912SOL    HW1 5766   3.328   1.112   1.960
 1912SOL    HW2 5767   3.204   1.215   1.933
 1913SOL     OW 5768   2.159   0.035   2.033
 1913SOL    HW1 5769   2.208   0.119   2.012
 1913SOL    HW2 5770   2.221  -0.030   2.078
 1914SOL     OW 5771   2.797   0.236   2.342
 1914SOL    HW1 5772   2.749   0.277   2.264
 1914SOL    HW2 5773   2.896   0.234   2.323
 1915SOL     OW 5774   2.938   0.683   3.326
 1915SOL    HW1 5775   2.858   0.622   3.329
 1915SOL    HW2 5776   3.019   0.630   3.302
 1916SOL     OW 5777   3.089   1.570   2.655
 1916SOL    HW1 5778   3.110   1.644   2.590
 1916SOL    HW2 5779   3.157   1.570   2.728
 1917SOL     OW 5780   2.321   1.152   2.603
 1917SOL    HW1 5781   2.250   1.125   2.668
 1917SOL    HW2 5782   2.295   1.124   2.510
 1918SOL     OW 5783   3.133   1.797   2.453
 1918SOL    HW1 5784   3.177   1.861   2.389
 1918SOL    HW2 5785   3.083   1.849   2.523
 1919SOL     OW 5786   2.894   0.549   1.878
 1919SOL    HW1 5787   2.853   0.631   1.839
 1919SOL    HW2 5788   2.958   0.575   1.951
 1920SOL     OW 5789   1.940   0.556   3.248
 1920SOL    HW1 5790   2.032   0.555   3.207
 1920SOL    HW2 5791   1.934   0.630   3.315
 1921SOL     OW 5792   2.423   0.222   3.009
 1921SOL    HW1 5793   2.461   0.138   3.046
 1921SOL    HW2 5794   2.335   0.241   3.053
 1922SOL     OW 5795   2.728   0.454   2.504
 1922SOL    HW1 5796   2.696   0.526   2.442
 1922SOL    HW2 5797   2.752   0.373   2.451
 1923SOL     OW 5798   2.879   0.039   2.615
 1923SOL    HW1 5799   2.807   0.044   2.546
 1923SOL    HW2 5800   2.855  -0.030   2.684
 1924SOL     OW 5801   3.291   1.173   2.729
 1924SOL    HW1 5802   3.236   1.089   2.722
 1924SOL    HW2 5803   3.317   1.202   2.637
 1925SOL     OW 5804   3.328   0.590   2.854
 1925SOL    HW1 5805   3.298   0.495   2.861
 1925SOL    HW2 5806   3.401   0.606   2.920
 1926SOL     OW 5807   3.719   0.833   2.239
 1926SOL    HW1 5808   3.761   0.769   2.303
 1926SOL    HW2 5809   3.681   0.782   2.161
 1927SOL     OW 5810   2.350   1.385   2.036
 1927SOL    HW1 5811   2.263   1.370   2.083
 1927SOL    HW2 5812   2.333   1.411   1.941
 1928SOL     OW 5813   3.526   1.280   2.519
 1928SOL    HW1 5814   3.625   1.288   2.533
 1928SOL    HW2 5815   3.481   1.364   2.550
 1929SOL     OW 5816   3.252   0.575   1.940
 1929SOL    HW1 5817   3.198   0.554   2.021
 1929SOL    HW2 5818   3.343   0.534   1.949
 1930SOL     OW 5819   2.389   0.256   2.190
 1930SOL    HW1 5820   2.416   0.197   2.115
 1930SOL    HW2 5821   2.389   0.351   2.159
 1931SOL     OW 5822   3.616   1.223   3.450
 1931SOL    HW1 5823   3.707   1.184   3.437
 1931SOL    HW2 5824   3.624   1.319   3.474
 1932SOL     OW 5825   2.926   1.347   3.202
 1932SOL    HW1 5826   2.846   1.324   3.257
 1932SOL    HW2 5827   3.009   1.321   3.251
 1933SOL     OW 5828   3.454   1.629   3.487
 1933SOL    HW1 5829   3.481   1.663   3.397
 1933SOL    HW2 5830   3.533   1.591   3.533
 1934SOL     OW 5831   2.973   1.195   2.962
 1934SOL    HW1 5832   2.933   1.239   3.043
 1934SOL    HW2 5833   2.932   1.232   2.879
 1935SOL     OW 5834   3.500   1.099   2.941
 1935SOL    HW1 5835   3.505   1.180   3.000
 1935SOL    HW2 5836   3.414   1.101   2.890
 1936SOL     OW 5837   2.777   0.089   3.264
 1936SOL    HW1 5838   2.802   0.069   3.169
 1936SOL    HW2 5839   2.849   0.145   3.306
 1937SOL     OW 5840   2.842   1.116   3.581
 1937SOL    HW1 5841   2.743   1.122   3.591
 1937SOL    HW2 5842   2.865   1.036   3.525
 1938SOL     OW 5843   2.567   1.050   2.230
 1938SOL    HW1 5844   2.553   1.057   2.329
 1938SOL    HW2 5845   2.651   0.999   2.212
 1939SOL     OW 5846   2.272   0.813   3.113
 1939SOL    HW1 5847   2.358   0.825   3.163
 1939SOL    HW2 5848   2.230   0.726   3.140
 1940SOL     OW 5849   3.136   0.386   3.124
 1940SOL    HW1 5850   3.157   0.460   3.188
 1940SOL    HW2 5851   3.047   0.403   3.081
 1941SOL     OW 5852   1.926   1.564   3.193
 1941SOL    HW1 5853   1.880   1.646   3.159
 1941SOL    HW2 5854   2.024   1.583   3.202
 1942SOL     OW 5855   2.229   1.100   2.363
 1942SOL    HW1 5856   2.222   1.183   2.307
 1942SOL    HW2 5857   2.233   1.020   2.303
 1943SOL     OW 5858   2.428   0.537   2.727
 1943SOL    HW1 5859   2.440   0.603   2.653
 1943SOL    HW2 5860   2.474   0.571   2.810
 1944SOL     OW 5861   3.114   1.348   2.250
 1944SOL    HW1 5862   3.164   1.425   2.290
 1944SOL    HW2 5863   3.019   1.350   2.282
 1945SOL     OW 5864   3.134   1.445   3.004
 1945SOL    HW1 5865   3.181   1.458   3.091
 1945SOL    HW2 5866   3.068   1.371   3.013
 1946SOL     OW 5867   3.444   0.639   2.334
 1946SOL    HW1 5868   3.413   0.700   2.407
 1946SOL    HW2 5869   3.494   0.691   2.265
 1947SOL     OW 5870   2.216   1.510   3.191
 1947SOL    HW1 5871   2.195   1.466   3.104
 1947SOL    HW2 5872   2.313   1.536   3.194
 1948SOL     OW 5873   2.264   0.751   3.460
 1948SOL    HW1 5874   2.332   0.806   3.413
 1948SOL    HW2 5875   2.304   0.663   3.487
 1949SOL     OW 5876   3.449   0.779   3.532
 1949SOL    HW1 5877   3.357   0.817   3.527
 1949SOL    HW2 5878   3.509   0.826   3.467
 1950SOL     OW 5879   2.875   0.105   3.632
 1950SOL    HW1 5880   2.881   0.190   3.580
 1950SOL    HW2 5881   2.907   0.029   3.575
 1951SOL     OW 5882   2.366   0.050   3.602
 1951SOL    HW1 5883   2.324  -0.007   3.532
 1951SOL    HW2 5884   2.300   0.119   3.634
 1952SOL     OW 5885   2.435   0.870   2.891
 1952SOL    HW1 5886   2.479   0.959   2.882
 1952SOL    HW2 5887   2.372   0.870   2.968
 1953SOL     OW 5888   3.222   0.862   2.907
 1953SOL    HW1 5889   3.147   0.862   2.841
 1953SOL    HW2 5890   3.259   0.770   2.916
 1954SOL     OW 5891   3.071   0.525   2.137
 1954SOL    HW1 5892   3.084   0.441   2.191
 1954SOL    HW2 5893   3.042   0.599   2.197
 1955SOL     OW 5894   2.169   0.213   3.093
 1955SOL    HW1 5895   2.146   0.250   3.183
 1955SOL    HW2 5896   2.139   0.118   3.087
 1956SOL     OW 5897   1.899   1.310   3.144
 1956SOL    HW1 5898   1.952   1.261   3.212
 1956SOL    HW2 5899   1.921   1.408   3.149
 1957SOL     OW 5900   2.594   0.634   2.926
 1957SOL    HW1 5901   2.653   0.608   2.850
 1957SOL    HW2 5902   2.566   0.730   2.915
 1958SOL     OW 5903   3.590   0.935   3.716
 1958SOL    HW1 5904   3.544   0.928   3.627
 1958SOL    HW2 5905   3.528   0.979   3.782
 1959SOL     OW 5906   2.169   0.063   2.480
 1959SOL    HW1 5907   2.158   0.157   2.513
 1959SOL    HW2 5908   2.164   0.000   2.557
 1960SOL     OW 5909   3.484   0.367   2.236
 1960SOL    HW1 5910   3.486   0.291   2.300
 1960SOL    HW2 5911   3.436   0.444   2.276
 1961SOL     OW 5912   2.885   0.766   2.828
 1961SOL    HW1 5913   2.900   0.787   2.924
 1961SOL    HW2 5914   2.855   0.671   2.819
 1962SOL     OW 5915   2.842   1.573   3.562
 1962SOL    HW1 5916   2.822   1.617   3.474
 1962SOL    HW2 5917   2.881   1.482   3.546
 1963SOL     OW 5918   3.721   1.518   3.467
 1963SOL    HW1 5919   3.735   1.545   3.372
 1963SOL    HW2 5920   3.804   1.540   3.520
 1964SOL     OW 5921   2.212   0.898   3.666
 1964SOL    HW1 5922   2.288   0.942   3.714
 1964SOL    HW2 5923   2.247   0.851   3.584
 1965SOL     OW 5924   3.402   0.274   1.987
 1965SOL    HW1 5925   3.341   0.199   2.010
 1965SOL    HW2 5926   3.424   0.326   2.070
 1966SOL     OW 5927   3.165   0.838   1.904
 1966SOL    HW1 5928   3.199   0.745   1.919
 1966SOL    HW2 5929   3.183   0.865   1.809
 1967SOL     OW 5930   2.930   1.333   2.711
 1967SOL    HW1 5931   2.937   1.249   2.656
 1967SOL    HW2 5932   2.992   1.402   2.675
 1968SOL     OW 5933   2.181   0.810   2.811
 1968SOL    HW1 5934   2.274   0.846   2.816
 1968SOL    HW2 5935   2.175   0.725   2.863
 1969SOL     OW 5936   2.201   0.509   2.868
 1969SOL    HW1 5937   2.149   0.426   2.851
 1969SOL    HW2 5938   2.278   0.514   2.804
 1970SOL     OW 5939   3.000   0.380   3.540
 1970SOL    HW1 5940   2.955   0.443   3.604
 1970SOL    HW2 5941   3.093   0.411   3.523
 1971SOL     OW 5942   3.022   0.207   3.339
 1971SOL    HW1 5943   3.022   0.271   3.416
 1971SOL    HW2 5944   3.050   0.255   3.256
 1972SOL     OW 5945   1.870   1.326   2.062
 1972SOL    HW1 5946   1.777   1.347   2.031
 1972SOL    HW2 5947   1.880   1.227   2.075
 1973SOL     OW 5948   1.950   1.801   2.789
 1973SOL    HW1 5949   1.908   1.715   2.762
 1973SOL    HW2 5950   2.044   1.804   2.755
 1974SOL     OW 5951   2.366   1.568   2.772
 1974SOL    HW1 5952   2.432   1.642   2.781
 1974SOL    HW2 5953   2.410   1.489   2.730
 1975SOL     OW 5954   2.864   0.796   3.100
 1975SOL    HW1 5955   2.905   0.764   3.186
 1975SOL    HW2 5956   2.768   0.769   3.097
 1976SOL     OW 5957   1.902   0.544   2.976
 1976SOL    HW1 5958   1.987   0.511   2.935
 1976SOL    HW2 5959   1.915   0.559   3.074
 1977SOL     OW 5960   2.051   0.520   3.584
 1977SOL    HW1 5961   2.110   0.480   3.514
 1977SOL    HW2 5962   1.993   0.591   3.543
 1978SOL     OW 5963   3.231   0.950   3.522
 1978SOL    HW1 5964   3.270   1.039   3.542
 1978SOL    HW2 5965   3.241   0.930   3.425
 1979SOL     OW 5966   2.677   0.572   2.187
 1979SOL    HW1 5967   2.684   0.483   2.141
 1979SOL    HW2 5968   2.583   0.606   2.179
 1980SOL     OW 5969   3.519   0.604   3.068
 1980SOL    HW1 5970   3.481   0.535   3.130
 1980SOL    HW2 5971   3.601   0.568   3.024
 1981SOL     OW 5972   2.114   1.564   3.606
 1981SOL    HW1 5973   2.084   1.621   3.682
 1981SOL    HW2 5974   2.107   1.467   3.632
 1982SOL     OW 5975   2.533   0.464   3.131
 1982SOL    HW1 5976   2.499   0.375   3.101
 1982SOL    HW2 5977   2.559   0.518   3.051
 1983SOL     OW 5978   2.792   1.678   3.327
 1983SOL    HW1 5979   2.768   1.660   3.232
 1983SOL    HW2 5980   2.822   1.772   3.337
 1984SOL     OW 5981   2.335   0.500   2.053
 1984SOL    HW1 5982   2.396   0.580   2.057
 1984SOL    HW2 5983   2.240   0.531   2.060
 1985SOL     OW 5984   2.021   1.137   3.328
 1985SOL    HW1 5985   2.043   1.076   3.404
 1985SOL    HW2 5986   2.031   1.088   3.242
 1986SOL     OW 5987   3.209   1.059   3.096
 1986SOL    HW1 5988   3.233   0.996   3.022
 1986SOL    HW2 5989   3.119   1.099   3.078
 1987SOL     OW 5990   3.164   0.855   2.171
 1987SOL    HW1 5991   3.078   0.824   2.213
 1987SOL    HW2 5992   3.160   0.841   2.072
 1988SOL     OW 5993   3.621   1.747   3.016
 1988SOL    HW1 5994   3.682   1.777   2.943
 1988SOL    HW2 5995   3.583   1.658   2.994
 1989SOL     OW 5996   3.114   1.731   2.990
 1989SOL    HW1 5997   3.198   1.736   2.936
 1989SOL    HW2 5998   3.091   1.635   3.008
 1990SOL     OW 5999   1.945   1.258   2.884
 1990SOL    HW1 6000   1.940   1.257   2.984
 1990SOL    HW2 6001   1.862   1.217   2.846
 1991SOL     OW 6002   2.550   1.662   3.578
 1991SOL    HW1 6003   2.494   1.743   3.587
 1991SOL    HW2 6004   2.602   1.666   3.492
 1992SOL     OW 6005   3.588   0.135   2.385
 1992SOL    HW1 6006   3.661   0.118   2.318
 1992SOL    HW2 6007   3.557   0.048   2.423
 1993SOL     OW 6008   3.250   1.573   2.339
 1993SOL    HW1 6009   3.317   1.585   2.265
 1993SOL    HW2 6010   3.210   1.662   2.362
 1994SOL     OW 6011   1.992   1.794   3.713
 1994SOL    HW1 6012   1.951   1.720   3.766
 1994SOL    HW2 6013   2.056   1.845   3.771
 1995SOL     OW 6014   3.142   0.927   2.534
 1995SOL    HW1 6015   3.202   0.846   2.536
 1995SOL    HW2 6016   3.182   0.996   2.474
 1996SOL     OW 6017   2.692   1.273   3.284
 1996SOL    HW1 6018   2.687   1.306   3.379
 1996SOL    HW2 6019   2.606   1.292   3.238
 1997SOL     OW 6020   2.534   1.616   2.016
 1997SOL    HW1 6021   2.543   1.626   1.917
 1997SOL    HW2 6022   2.494   1.527   2.037
 1998SOL     OW 6023   3.512   1.720   3.256
 1998SOL    HW1 6024   3.565   1.730   3.172
 1998SOL    HW2 6025   3.485   1.810   3.290
 1999SOL     OW 6026   3.703   0.175   2.825
 1999SOL    HW1 6027   3.742   0.090   2.789
 1999SOL    HW2 6028   3.605   0.177   2.806
 2000SOL     OW 6029   2.125   0.326   2.582
 2000SOL    HW1 6030   2.046   0.377   2.548
 2000SOL    HW2 6031   2.116   0.311   2.680
 2001SOL     OW 6032   3.056   1.612   1.893
 2001SOL    HW1 6033   3.062   1.519   1.930
 2001SOL    HW2 6034   2.997   1.612   1.813
 2002SOL     OW 6035   2.684   1.002   3.234
 2002SOL    HW1 6036   2.724   1.001   3.142
 2002SOL    HW2 6037   2.694   1.094   3.274
 2003SOL     OW 6038   2.778   0.910   2.153
 2003SOL    HW1 6039   2.841   0.948   2.085
 2003SOL    HW2 6040   2.818   0.827   2.192
 2004SOL     OW 6041   3.366   1.607   1.906
 2004SOL    HW1 6042   3.274   1.644   1.913
 2004SOL    HW2 6043   3.404   1.627   1.816
 2005SOL     OW 6044   2.234   1.288   3.352
 2005SOL    HW1 6045   2.221   1.381   3.318
 2005SOL    HW2 6046   2.150   1.236   3.339
 2006SOL     OW 6047   3.476   1.292   3.151
 2006SOL    HW1 6048   3.536   1.295   3.231
 2006SOL    HW2 6049   3.401   1.356   3.164
 2007SOL     OW 6050   2.901   1.098   2.558
 2007SOL    HW1 6051   2.831   1.051   2.612
 2007SOL    HW2 6052   2.960   1.030   2.515
 2008SOL     OW 6053   2.876   0.236   2.833
 2008SOL    HW1 6054   2.868   0.200   2.740
 2008SOL    HW2 6055   2.874   0.160   2.898
 2009SOL     OW 6056   2.452   1.487   2.353
 2009SOL    HW1 6057   2.494   1.429   2.283
 2009SOL    HW2 6058   2.408   1.566   2.309
 2010SOL     OW 6059   3.571   0.385   3.243
 2010SOL    HW1 6060   3.644   0.454   3.247
 2010SOL    HW2 6061   3.599   0.310   3.184
 2011SOL     OW 6062   2.117   1.348   2.152
 2011SOL    HW1 6063   2.021   1.349   2.125
 2011SOL    HW2 6064   2.129   1.401   2.236
 2012SOL     OW 6065   1.967   1.013   3.588
 2012SOL    HW1 6066   1.890   0.980   3.642
 2012SOL    HW2 6067   2.052   0.983   3.630
 2013SOL     OW 6068   2.534   0.203   3.351
 2013SOL    HW1 6069   2.624   0.187   3.311
 2013SOL    HW2 6070   2.542   0.208   3.450
 2014SOL     OW 6071   1.937   0.345   1.895
 2014SOL    HW1 6072   1.845   0.317   1.866
 2014SOL    HW2 6073   1.968   0.422   1.839
 2015SOL     OW 6074   3.302   0.856   3.260
 2015SOL    HW1 6075   3.245   0.908   3.197
 2015SOL    HW2 6076   3.398   0.868   3.236
 2016SOL     OW 6077   1.934   0.166   2.180
 2016SOL    HW1 6078   1.917   0.249   2.126
 2016SOL    HW2 6079   2.024   0.129   2.158
 2017SOL     OW 6080   3.045   1.335   1.981
 2017SOL    HW1 6081   2.946   1.324   1.983
 2017SOL    HW2 6082   3.079   1.350   2.074
 2018SOL     OW 6083   2.475   0.842   3.293
 2018SOL    HW1 6084   2.531   0.923   3.276
 2018SOL    HW2 6085   2.534   0.762   3.296
 2019SOL     OW 6086   3.355   1.767   2.821
 2019SOL    HW1 6087   3.388   1.831   2.752
 2019SOL    HW2 6088   3.421   1.761   2.896
 2020SOL     OW 6089   2.578   0.565   3.570
 2020SOL    HW1 6090   2.597   0.630   3.644
 2020SOL    HW2 6091   2.638   0.485   3.579
 2021SOL     OW 6092   3.312   1.220   3.495
 2021SOL    HW1 6093   3.303   1.210   3.594
 2021SOL    HW2 6094   3.408   1.213   3.469
 2022SOL     OW 6095   2.252   1.741   3.422
 2022SOL    HW1 6096   2.161   1.782   3.420
 2022SOL    HW2 6097   2.245   1.647   3.454
 2023SOL     OW 6098   3.536   0.883   3.116
 2023SOL    HW1 6099   3.509   0.794   3.079
 2023SOL    HW2 6100   3.537   0.951   3.043
 2024SOL     OW 6101   3.087   0.325   2.311
 2024SOL    HW1 6102   3.152   0.251   2.300
 2024SOL    HW2 6103   3.107   0.375   2.395
 2025SOL     OW 6104   2.456   0.745   2.514
 2025SOL    HW1 6105   2.506   0.830   2.495
 2025SOL    HW2 6106   2.368   0.747   2.466
 2026SOL     OW 6107   3.639   0.342   3.504
 2026SOL    HW1 6108   3.622   0.373   3.410
 2026SOL    HW2 6109   3.555   0.305   3.542
 2027SOL     OW 6110   3.592   0.934   3.379
 2027SOL    HW1 6111   3.630   1.025   3.394
 2027SOL    HW2 6112   3.584   0.917   3.280
 2028SOL     OW 6113   2.721   1.374   1.878
 2028SOL    HW1 6114   2.675   1.389   1.966
 2028SOL    HW2 6115   2.765   1.459   1.848
 2029SOL     OW 6116   2.523   1.790   2.815
 2029SOL    HW1 6117   2.477   1.878   2.802
 2029SOL    HW2 6118   2.622   1.802   2.808
 2030SOL     OW 6119   2.721   0.956   2.723
 2030SOL    HW1 6120   2.775   0.887   2.771
 2030SOL    HW2 6121   2.689   1.025   2.789
 2031SOL     OW 6122   2.945   0.984   1.949
 2031SOL    HW1 6123   2.922   1.037   1.867
 2031SOL    HW2 6124   3.026   0.928   1.930
 2032SOL     OW 6125   3.723   1.569   2.713
 2032SOL    HW1 6126   3.652   1.557   2.643
 2032SOL    HW2 6127   3.724   1.490   2.773
 2033SOL     OW 6128   2.083   1.314   3.706
 2033SOL    HW1 6129   2.018   1.241   3.685
 2033SOL    HW2 6130   2.087   1.328   3.804
 2034SOL     OW 6131   1.941   1.240   2.515
 2034SOL    HW1 6132   1.940   1.193   2.603
 2034SOL    HW2 6133   2.023   1.212   2.464
 2035SOL     OW 6134   2.534   1.391   3.486
 2035SOL    HW1 6135   2.456   1.341   3.524
 2035SOL    HW2 6136   2.531   1.486   3.517
 2036SOL     OW 6137   3.686   0.192   3.089
 2036SOL    HW1 6138   3.682   0.102   3.133
 2036SOL    HW2 6139   3.689   0.181   2.990
 2037SOL     OW 6140   2.290   0.424   2.382
 2037SOL    HW1 6141   2.320   0.352   2.320
 2037SOL    HW2 6142   2.251   0.384   2.465
 2038SOL     OW 6143   3.567   1.487   2.966
 2038SOL    HW1 6144   3.474   1.462   2.939
 2038SOL    HW2 6145   3.593   1.437   3.048
 2039SOL     OW 6146   2.179   0.547   3.142
 2039SOL    HW1 6147   2.217   0.488   3.214
 2039SOL    HW2 6148   2.219   0.521   3.054
 2040SOL     OW 6149   2.674   1.586   2.549
 2040SOL    HW1 6150   2.706   1.596   2.455
 2040SOL    HW2 6151   2.595   1.524   2.551
 2041SOL     OW 6152   3.286   0.214   2.974
 2041SOL    HW1 6153   3.338   0.149   3.029
 2041SOL    HW2 6154   3.237   0.277   3.035
 2042SOL     OW 6155   2.863   0.034   3.016
 2042SOL    HW1 6156   2.800  -0.038   2.985
 2042SOL    HW2 6157   2.956  -0.002   3.016
 2043SOL     OW 6158   2.632   1.330   2.163
 2043SOL    HW1 6159   2.586   1.243   2.180
 2043SOL    HW2 6160   2.723   1.327   2.204
 2044SOL     OW 6161   2.480   1.567   3.146
 2044SOL    HW1 6162   2.475   1.649   3.203
 2044SOL    HW2 6163   2.569   1.564   3.101
 2045SOL     OW 6164   3.214   0.052   2.030
 2045SOL    HW1 6165   3.249   0.011   1.946
 2045SOL    HW2 6166   3.124   0.014   2.050
 2046SOL     OW 6167   3.162   0.453   2.553
 2046SOL    HW1 6168   3.103   0.533   2.557
 2046SOL    HW2 6169   3.177   0.418   2.646
 2047SOL     OW 6170   3.455   0.221   2.744
 2047SOL    HW1 6171   3.371   0.220   2.798
 2047SOL    HW2 6172   3.457   0.304   2.688
 2048SOL     OW 6173   1.901   1.077   2.162
 2048SOL    HW1 6174   2.000   1.066   2.153
 2048SOL    HW2 6175   1.861   0.991   2.194
 2049SOL     OW 6176   2.737   1.646   2.199
 2049SOL    HW1 6177   2.660   1.611   2.145
 2049SOL    HW2 6178   2.705   1.717   2.261
 2050SOL     OW 6179   2.092   0.628   3.837
 2050SOL    HW1 6180   1.999   0.626   3.874
 2050SOL    HW2 6181   2.093   0.589   3.745
 2051SOL     OW 6182   2.087   0.275   4.720
 2051SOL    HW1 6183   2.122   0.258   4.812
 2051SOL    HW2 6184   1.999   0.230   4.708
 2052SOL     OW 6185   1.881   0.368   4.371
 2052SOL    HW1 6186   1.799   0.411   4.410
 2052SOL    HW2 6187   1.853   0.295   4.308
 2053SOL     OW 6188   2.431   1.275   4.889
 2053SOL    HW1 6189   2.338   1.268   4.852
 2053SOL    HW2 6190   2.442   1.364   4.933
 2054SOL     OW 6191   3.417   1.511   4.427
 2054SOL    HW1 6192   3.360   1.495   4.508
 2054SOL    HW2 6193   3.358   1.521   4.347
 2055SOL     OW 6194   2.997   0.703   4.441
 2055SOL    HW1 6195   3.054   0.781   4.416
 2055SOL    HW2 6196   2.937   0.729   4.517
 2056SOL     OW 6197   3.617   0.607   3.955
 2056SOL    HW1 6198   3.605   0.594   3.856
 2056SOL    HW2 6199   3.587   0.526   4.004
 2057SOL     OW 6200   2.630   1.144   4.747
 2057SOL    HW1 6201   2.552   1.161   4.807
 2057SOL    HW2 6202   2.664   1.231   4.711
 2058SOL     OW 6203   2.547   1.012   4.389
 2058SOL    HW1 6204   2.616   0.996   4.459
 2058SOL    HW2 6205   2.474   1.069   4.427
 2059SOL     OW 6206   2.197   1.435   4.785
 2059SOL    HW1 6207   2.119   1.404   4.732
 2059SOL    HW2 6208   2.255   1.493   4.728
 2060SOL     OW 6209   2.300   0.392   5.223
 2060SOL    HW1 6210   2.382   0.336   5.232
 2060SOL    HW2 6211   2.219   0.334   5.227
 2061SOL     OW 6212   3.465   0.447   4.461
 2061SOL    HW1 6213   3.391   0.493   4.411
 2061SOL    HW2 6214   3.516   0.515   4.514
 2062SOL     OW 6215   2.093   1.713   4.207
 2062SOL    HW1 6216   2.127   1.790   4.261
 2062SOL    HW2 6217   2.137   1.713   4.117
 2063SOL     OW 6218   2.092   1.434   4.262
 2063SOL    HW1 6219   2.066   1.530   4.262
 2063SOL    HW2 6220   2.021   1.380   4.307
 2064SOL     OW 6221   2.102   1.091   4.610
 2064SOL    HW1 6222   2.116   1.007   4.662
 2064SOL    HW2 6223   2.047   1.155   4.665
 2065SOL     OW 6224   2.482   1.786   5.163
 2065SOL    HW1 6225   2.390   1.769   5.198
 2065SOL    HW2 6226   2.510   1.878   5.189
 2066SOL     OW 6227   2.468   0.964   3.847
 2066SOL    HW1 6228   2.475   1.048   3.793
 2066SOL    HW2 6229   2.514   0.977   3.935
 2067SOL     OW 6230   1.984   0.643   4.287
 2067SOL    HW1 6231   1.939   0.555   4.304
 2067SOL    HW2 6232   1.983   0.697   4.371
 2068SOL     OW 6233   3.704   1.767   4.083
 2068SOL    HW1 6234   3.758   1.738   4.163
 2068SOL    HW2 6235   3.734   1.857   4.054
 2069SOL     OW 6236   1.889   1.596   3.841
 2069SOL    HW1 6237   1.870   1.500   3.862
 2069SOL    HW2 6238   1.856   1.654   3.916
 2070SOL     OW 6239   3.551   0.922   4.336
 2070SOL    HW1 6240   3.646   0.893   4.344
 2070SOL    HW2 6241   3.543   0.987   4.261
 2071SOL     OW 6242   3.503   1.108   4.156
 2071SOL    HW1 6243   3.589   1.110   4.104
 2071SOL    HW2 6244   3.517   1.155   4.244
 2072SOL     OW 6245   2.475   1.365   4.450
 2072SOL    HW1 6246   2.426   1.278   4.459
 2072SOL    HW2 6247   2.452   1.408   4.363
 2073SOL     OW 6248   2.671   0.004   4.226
 2073SOL    HW1 6249   2.711   0.095   4.217
 2073SOL    HW2 6250   2.571   0.012   4.232
 2074SOL     OW 6251   2.059   0.976   4.988
 2074SOL    HW1 6252   2.148   0.931   4.974
 2074SOL    HW2 6253   1.986   0.911   4.969
 2075SOL     OW 6254   3.387   0.999   3.914
 2075SOL    HW1 6255   3.324   0.923   3.927
 2075SOL    HW2 6256   3.435   1.017   4.000
 2076SOL     OW 6257   3.328   1.417   4.677
 2076SOL    HW1 6258   3.269   1.423   4.757
 2076SOL    HW2 6259   3.313   1.329   4.631
 2077SOL     OW 6260   3.529   1.714   4.296
 2077SOL    HW1 6261   3.488   1.691   4.208
 2077SOL    HW2 6262   3.511   1.640   4.361
 2078SOL     OW 6263   2.460   0.729   3.994
 2078SOL    HW1 6264   2.484   0.798   3.926
 2078SOL    HW2 6265   2.382   0.762   4.048
 2079SOL     OW 6266   3.143   0.345   4.668
 2079SOL    HW1 6267   3.057   0.295   4.655
 2079SOL    HW2 6268   3.205   0.291   4.724
 2080SOL     OW 6269   3.438   1.662   4.031
 2080SOL    HW1 6270   3.527   1.708   4.034
 2080SOL    HW2 6271   3.417   1.638   3.936
 2081SOL     OW 6272   2.669   0.605   5.189
 2081SOL    HW1 6273   2.622   0.602   5.278
 2081SOL    HW2 6274   2.618   0.550   5.123
 2082SOL     OW 6275   2.853   0.410   4.966
 2082SOL    HW1 6276   2.776   0.444   5.020
 2082SOL    HW2 6277   2.819   0.359   4.887
 2083SOL     OW 6278   2.903   0.701   4.153
 2083SOL    HW1 6279   2.929   0.697   4.249
 2083SOL    HW2 6280   2.818   0.650   4.139
 2084SOL     OW 6281   1.938   0.811   4.513
 2084SOL    HW1 6282   2.037   0.799   4.522
 2084SOL    HW2 6283   1.914   0.906   4.534
 2085SOL     OW 6284   1.992   1.821   5.295
 2085SOL    HW1 6285   1.982   1.806   5.394
 2085SOL    HW2 6286   1.906   1.857   5.259
 2086SOL     OW 6287   2.727   0.348   3.919
 2086SOL    HW1 6288   2.786   0.411   3.870
 2086SOL    HW2 6289   2.746   0.254   3.890
 2087SOL     OW 6290   3.224   1.144   4.269
 2087SOL    HW1 6291   3.307   1.115   4.221
 2087SOL    HW2 6292   3.175   1.211   4.213
 2088SOL     OW 6293   2.412   0.196   4.609
 2088SOL    HW1 6294   2.407   0.191   4.709
 2088SOL    HW2 6295   2.414   0.292   4.580
 2089SOL     OW 6296   2.870   1.456   4.201
 2089SOL    HW1 6297   2.824   1.528   4.149
 2089SOL    HW2 6298   2.866   1.476   4.299
 2090SOL     OW 6299   2.213   1.801   4.577
 2090SOL    HW1 6300   2.263   1.715   4.583
 2090SOL    HW2 6301   2.278   1.878   4.574
 2091SOL     OW 6302   3.657   1.066   4.597
 2091SOL    HW1 6303   3.595   1.051   4.521
 2091SOL    HW2 6304   3.605   1.077   4.682
 2092SOL     OW 6305   2.183   0.943   3.966
 2092SOL    HW1 6306   2.265   0.982   3.924
 2092SOL    HW2 6307   2.156   0.861   3.917
 2093SOL     OW 6308   3.320   0.735   4.452
 2093SOL    HW1 6309   3.315   0.670   4.527
 2093SOL    HW2 6310   3.400   0.794   4.465
 2094SOL     OW 6311   2.973   1.776   3.961
 2094SOL    HW1 6312   2.913   1.714   4.011
 2094SOL    HW2 6313   3.004   1.732   3.876
 2095SOL     OW 6314   3.494   1.377   3.805
 2095SOL    HW1 6315   3.462   1.471   3.795
 2095SOL    HW2 6316   3.418   1.314   3.793
 2096SOL     OW 6317   2.326   1.743   4.047
 2096SOL    HW1 6318   2.359   1.782   4.133
 2096SOL    HW2 6319   2.402   1.736   3.982
 2097SOL     OW 6320   3.262   0.107   4.150
 2097SOL    HW1 6321   3.238   0.070   4.060
 2097SOL    HW2 6322   3.361   0.123   4.154
 2098SOL     OW 6323   2.111   1.785   4.965
 2098SOL    HW1 6324   2.168   1.720   5.015
 2098SOL    HW2 6325   2.095   1.752   4.872
 2099SOL     OW 6326   2.802   1.698   4.628
 2099SOL    HW1 6327   2.882   1.641   4.649
 2099SOL    HW2 6328   2.753   1.658   4.551
 2100SOL     OW 6329   2.244   0.700   4.204
 2100SOL    HW1 6330   2.289   0.610   4.201
 2100SOL    HW2 6331   2.150   0.689   4.237
 2101SOL     OW 6332   2.476   0.122   3.841
 2101SOL    HW1 6333   2.574   0.100   3.848
 2101SOL    HW2 6334   2.445   0.105   3.748
 2102SOL     OW 6335   2.750   1.514   4.919
 2102SOL    HW1 6336   2.727   1.489   4.825
 2102SOL    HW2 6337   2.811   1.445   4.958
 2103SOL     OW 6338   2.665   1.402   4.648
 2103SOL    HW1 6339   2.755   1.416   4.606
 2103SOL    HW2 6340   2.594   1.404   4.577
 2104SOL     OW 6341   2.784   0.503   4.623
 2104SOL    HW1 6342   2.759   0.494   4.527
 2104SOL    HW2 6343   2.832   0.421   4.654
 2105SOL     OW 6344   2.401   0.064   4.236
 2105SOL    HW1 6345   2.320   0.065   4.294
 2105SOL    HW2 6346   2.404   0.147   4.181
 2106SOL     OW 6347   3.296   1.188   3.765
 2106SOL    HW1 6348   3.328   1.112   3.822
 2106SOL    HW2 6349   3.204   1.215   3.795
 2107SOL     OW 6350   2.159   0.035   3.895
 2107SOL    HW1 6351   2.208   0.119   3.874
 2107SOL    HW2 6352   2.221  -0.030   3.940
 2108SOL     OW 6353   2.797   0.236   4.204
 2108SOL    HW1 6354   2.749   0.277   4.126
 2108SOL    HW2 6355   2.896   0.234   4.185
 2109SOL     OW 6356   3.089   1.570   4.517
 2109SOL    HW1 6357   3.110   1.644   4.452
 2109SOL    HW2 6358   3.157   1.570   4.590
 2110SOL     OW 6359   2.321   1.152   4.465
 2110SOL    HW1 6360   2.250   1.125   4.530
 2110SOL    HW2 6361   2.295   1.124   4.372
 2111SOL     OW 6362   3.133   1.797   4.315
 2111SOL    HW1 6363   3.177   1.861   4.251
 2111SOL    HW2 6364   3.083   1.849   4.385
 2112SOL     OW 6365   2.894   0.549   3.740
 2112SOL    HW1 6366   2.853   0.631   3.701
 2112SOL    HW2 6367   2.958   0.575   3.813
 2113SOL     OW 6368   2.423   0.222   4.871
 2113SOL    HW1 6369   2.461   0.138   4.908
 2113SOL    HW2 6370   2.335   0.241   4.915
 2114SOL     OW 6371   2.728   0.454   4.366
 2114SOL    HW1 6372   2.696   0.526   4.304
 2114SOL    HW2 6373   2.752   0.373   4.313
 2115SOL     OW 6374   2.879   0.039   4.477
 2115SOL    HW1 6375   2.807   0.044   4.408
 2115SOL    HW2 6376   2.855  -0.030   4.546
 2116SOL     OW 6377   3.291   1.173   4.591
 2116SOL    HW1 6378   3.236   1.089   4.584
 2116SOL    HW2 6379   3.317   1.202   4.499
 2117SOL     OW 6380   3.328   0.590   4.716
 2117SOL    HW1 6381   3.298   0.495   4.723
 2117SOL    HW2 6382   3.401   0.606   4.782
 2118SOL     OW 6383   3.719   0.833   4.101
 2118SOL    HW1 6384   3.761   0.769   4.165
 2118SOL    HW2 6385   3.681   0.782   4.023
 2119SOL     OW 6386   2.350   1.385   3.898
 2119SOL    HW1 6387   2.263   1.370   3.945
 2119SOL    HW2 6388   2.333   1.411   3.803
 2120SOL     OW 6389   3.526   1.280   4.381
 2120SOL    HW1 6390   3.625   1.288   4.395
 2120SOL    HW2 6391   3.481   1.364   4.412
 2121SOL     OW 6392   3.252   0.575   3.802
 2121SOL    HW1 6393   3.198   0.554   3.883
 2121SOL    HW2 6394   3.343   0.534   3.811
 2122SOL     OW 6395   2.389   0.256   4.052
 2122SOL    HW1 6396   2.416   0.197   3.977
 2122SOL    HW2 6397   2.389   0.351   4.021
 2123SOL     OW 6398   3.616   1.223   5.312
 2123SOL    HW1 6399   3.707   1.184   5.299
 2123SOL    HW2 6400   3.624   1.319   5.336
 2124SOL     OW 6401   2.973   1.195   4.824
 2124SOL    HW1 6402   2.933   1.239   4.905
 2124SOL    HW2 6403   2.932   1.232   4.741
 2125SOL     OW 6404   3.500   1.099   4.803
 2125SOL    HW1 6405   3.505   1.180   4.862
 2125SOL    HW2 6406   3.414   1.101   4.752
 2126SOL     OW 6407   2.567   1.050   4.092
 2126SOL    HW1 6408   2.553   1.057   4.191
 2126SOL    HW2 6409   2.651   0.999   4.074
 2127SOL     OW 6410   2.272   0.813   4.975
 2127SOL    HW1 6411   2.358   0.825   5.025
 2127SOL    HW2 6412   2.230   0.726   5.002
 2128SOL     OW 6413   3.136   0.386   4.986
 2128SOL    HW1 6414   3.157   0.460   5.050
 2128SOL    HW2 6415   3.047   0.403   4.943
 2129SOL     OW 6416   1.926   1.564   5.055
 2129SOL    HW1 6417   1.880   1.646   5.021
 2129SOL    HW2 6418   2.024   1.583   5.064
 2130SOL     OW 6419   2.229   1.100   4.225
 2130SOL    HW1 6420   2.222   1.183   4.169
 2130SOL    HW2 6421   2.233   1.020   4.165
 2131SOL     OW 6422   2.428   0.537   4.589
 2131SOL    HW1 6423   2.440   0.603   4.515
 2131SOL    HW2 6424   2.474   0.571   4.672
 2132SOL     OW 6425   3.114   1.348   4.112
 2132SOL    HW1 6426   3.164   1.425   4.152
 2132SOL    HW2 6427   3.019   1.350   4.144
 2133SOL     OW 6428   3.134   1.445   4.866
 2133SOL    HW1 6429   3.181   1.458   4.953
 2133SOL    HW2 6430   3.068   1.371   4.875
 2134SOL     OW 6431   3.444   0.639   4.196
 2134SOL    HW1 6432   3.413   0.700   4.269
 2134SOL    HW2 6433   3.494   0.691   4.127
 2135SOL     OW 6434   2.216   1.510   5.053
 2135SOL    HW1 6435   2.195   1.466   4.966
 2135SOL    HW2 6436   2.313   1.536   5.056
 2136SOL     OW 6437   2.435   0.870   4.753
 2136SOL    HW1 6438   2.479   0.959   4.744
 2136SOL    HW2 6439   2.372   0.870   4.830
 2137SOL     OW 6440   3.222   0.862   4.769
 2137SOL    HW1 6441   3.147   0.862   4.703
 2137SOL    HW2 6442   3.259   0.770   4.778
 2138SOL     OW 6443   3.071   0.525   3.999
 2138SOL    HW1 6444   3.084   0.441   4.053
 2138SOL    HW2 6445   3.042   0.599   4.059
 2139SOL     OW 6446   2.169   0.213   4.955
 2139SOL    HW1 6447   2.146   0.250   5.045
 2139SOL    HW2 6448   2.139   0.118   4.949
 2140SOL     OW 6449   1.899   1.310   5.006
 2140SOL    HW1 6450   1.952   1.261   5.074
 2140SOL    HW2 6451   1.921   1.408   5.011
 2141SOL     OW 6452   2.594   0.634   4.788
 2141SOL    HW1 6453   2.653   0.608   4.712
 2141SOL    HW2 6454   2.566   0.730   4.777
 2142SOL     OW 6455   2.169   0.063   4.342
 2142SOL    HW1 6456   2.158   0.157   4.375
 2142SOL    HW2 6457   2.164   0.000   4.419
 2143SOL     OW 6458   3.484   0.367   4.098
 2143SOL    HW1 6459   3.486   0.291   4.162
 2143SOL    HW2 6460   3.436   0.444   4.138
 2144SOL     OW 6461   2.885   0.766   4.690
 2144SOL    HW1 6462   2.900   0.787   4.786
 2144SOL    HW2 6463   2.855   0.671   4.681
 2145SOL     OW 6464   3.402   0.274   3.849
 2145SOL    HW1 6465   3.341   0.199   3.872
 2145SOL    HW2 6466   3.424   0.326   3.932
 2146SOL     OW 6467   3.165   0.838   3.766
 2146SOL    HW1 6468   3.199   0.745   3.781
 2146SOL    HW2 6469   3.183   0.865   3.671
 2147SOL     OW 6470   2.930   1.333   4.573
 2147SOL    HW1 6471   2.937   1.249   4.518
 2147SOL    HW2 6472   2.992   1.402   4.537
 2148SOL     OW 6473   2.181   0.810   4.673
 2148SOL    HW1 6474   2.274   0.846   4.678
 2148SOL    HW2 6475   2.175   0.725   4.725
 2149SOL     OW 6476   2.201   0.509   4.730
 2149SOL    HW1 6477   2.149   0.426   4.713
 2149SOL    HW2 6478   2.278   0.514   4.666
 2150SOL     OW 6479   3.022   0.207   5.201
 2150SOL    HW1 6480   3.022   0.271   5.278
 2150SOL    HW2 6481   3.050   0.255   5.118
 2151SOL     OW 6482   1.870   1.326   3.924
 2151SOL    HW1 6483   1.777   1.347   3.893
 2151SOL    HW2 6484   1.880   1.227   3.937
 2152SOL     OW 6485   1.950   1.801   4.651
 2152SOL    HW1 6486   1.908   1.715   4.624
 2152SOL    HW2 6487   2.044   1.804   4.617
 2153SOL     OW 6488   2.366   1.568   4.634
 2153SOL    HW1 6489   2.432   1.642   4.643
 2153SOL    HW2 6490   2.410   1.489   4.592
 2154SOL     OW 6491   2.864   0.796   4.962
 2154SOL    HW1 6492   2.905   0.764   5.048
 2154SOL    HW2 6493   2.768   0.769   4.959
 2155SOL     OW 6494   1.902   0.544   4.838
 2155SOL    HW1 6495   1.987   0.511   4.797
 2155SOL    HW2 6496   1.915   0.559   4.936
 2156SOL     OW 6497   2.677   0.572   4.049
 2156SOL    HW1 6498   2.684   0.483   4.003
 2156SOL    HW2 6499   2.583   0.606   4.041
 2157SOL     OW 6500   3.519   0.604   4.930
 2157SOL    HW1 6501   3.481   0.535   4.992
 2157SOL    HW2 6502   3.601   0.568   4.886
 2158SOL     OW 6503   2.533   0.464   4.993
 2158SOL    HW1 6504   2.499   0.375   4.963
 2158SOL    HW2 6505   2.559   0.518   4.913
 2159SOL     OW 6506   2.792   1.678   5.189
 2159SOL    HW1 6507   2.768   1.660   5.094
 2159SOL    HW2 6508   2.822   1.772   5.199
 2160SOL     OW 6509   2.335   0.500   3.915
 2160SOL    HW1 6510   2.396   0.580   3.919
 2160SOL    HW2 6511   2.240   0.531   3.922
 2161SOL     OW 6512   2.021   1.137   5.190
 2161SOL    HW1 6513   2.043   1.076   5.266
 2161SOL    HW2 6514   2.031   1.088   5.104
 2162SOL     OW 6515   3.209   1.059   4.958
 2162SOL    HW1 6516   3.233   0.996   4.884
 2162SOL    HW2 6517   3.119   1.099   4.940
 2163SOL     OW 6518   3.164   0.855   4.033
 2163SOL    HW1 6519   3.078   0.824   4.075
 2163SOL    HW2 6520   3.160   0.841   3.934
 2164SOL     OW 6521   3.621   1.747   4.878
 2164SOL    HW1 6522   3.682   1.777   4.805
 2164SOL    HW2 6523   3.583   1.658   4.856
 2165SOL     OW 6524   3.114   1.731   4.852
 2165SOL    HW1 6525   3.198   1.736   4.798
 2165SOL    HW2 6526   3.091   1.635   4.870
 2166SOL     OW 6527   1.945   1.258   4.746
 2166SOL    HW1 6528   1.940   1.257   4.846
 2166SOL    HW2 6529   1.862   1.217   4.708
 2167SOL     OW 6530   3.588   0.135   4.247
 2167SOL    HW1 6531   3.661   0.118   4.180
 2167SOL    HW2 6532   3.557   0.048   4.285
 2168SOL     OW 6533   3.250   1.573   4.201
 2168SOL    HW1 6534   3.317   1.585   4.127
 2168SOL    HW2 6535   3.210   1.662   4.224
 2169SOL     OW 6536   3.142   0.927   4.396
 2169SOL    HW1 6537   3.202   0.846   4.398
 2169SOL    HW2 6538   3.182   0.996   4.336
 2170SOL     OW 6539   2.534   1.616   3.878
 2170SOL    HW1 6540   2.543   1.626   3.779
 2170SOL    HW2 6541   2.494   1.527   3.899
 2171SOL     OW 6542   3.703   0.175   4.687
 2171SOL    HW1 6543   3.742   0.090   4.651
 2171SOL    HW2 6544   3.605   0.177   4.668
 2172SOL     OW 6545   2.125   0.326   4.444
 2172SOL    HW1 6546   2.046   0.377   4.410
 2172SOL    HW2 6547   2.116   0.311   4.542
 2173SOL     OW 6548   3.056   1.612   3.755
 2173SOL    HW1 6549   3.062   1.519   3.792
 2173SOL    HW2 6550   2.997   1.612   3.675
 2174SOL     OW 6551   2.684   1.002   5.096
 2174SOL    HW1 6552   2.724   1.001   5.004
 2174SOL    HW2 6553   2.694   1.094   5.136
 2175SOL     OW 6554   2.778   0.910   4.015
 2175SOL    HW1 6555   2.841   0.948   3.947
 2175SOL    HW2 6556   2.818   0.827   4.054
 2176SOL     OW 6557   3.366   1.607   3.768
 2176SOL    HW1 6558   3.274   1.644   3.775
 2176SOL    HW2 6559   3.404   1.627   3.678
 2177SOL     OW 6560   3.476   1.292   5.013
 2177SOL    HW1 6561   3.536   1.295   5.093
 2177SOL    HW2 6562   3.401   1.356   5.026
 2178SOL     OW 6563   2.901   1.098   4.420
 2178SOL    HW1 6564   2.831   1.051   4.474
 2178SOL    HW2 6565   2.960   1.030   4.377
 2179SOL     OW 6566   2.876   0.236   4.695
 2179SOL    HW1 6567   2.868   0.200   4.602
 2179SOL    HW2 6568   2.874   0.160   4.760
 2180SOL     OW 6569   2.452   1.487   4.215
 2180SOL    HW1 6570   2.494   1.429   4.145
 2180SOL    HW2 6571   2.408   1.566   4.171
 2181SOL     OW 6572   3.571   0.385   5.105
 2181SOL    HW1 6573   3.644   0.454   5.109
 2181SOL    HW2 6574   3.599   0.310   5.046
 2182SOL     OW 6575   2.117   1.348   4.014
 2182SOL    HW1 6576   2.021   1.349   3.987
 2182SOL    HW2 6577   2.129   1.401   4.098
 2183SOL     OW 6578   1.937   0.345   3.757
 2183SOL    HW1 6579   1.845   0.317   3.728
 2183SOL    HW2 6580   1.968   0.422   3.701
 2184SOL     OW 6581   1.934   0.166   4.042
 2184SOL    HW1 6582   1.917   0.249   3.988
 2184SOL    HW2 6583   2.024   0.129   4.020
 2185SOL     OW 6584   3.045   1.335   3.843
 2185SOL    HW1 6585   2.946   1.324   3.845
 2185SOL    HW2 6586   3.079   1.350   3.936
 2186SOL     OW 6587   2.475   0.842   5.155
 2186SOL    HW1 6588   2.531   0.923   5.138
 2186SOL    HW2 6589   2.534   0.762   5.158
 2187SOL     OW 6590   3.355   1.767   4.683
 2187SOL    HW1 6591   3.388   1.831   4.614
 2187SOL    HW2 6592   3.421   1.761   4.758
 2188SOL     OW 6593   2.252   1.741   5.284
 2188SOL    HW1 6594   2.161   1.782   5.282
 2188SOL    HW2 6595   2.245   1.647   5.316
 2189SOL     OW 6596   3.536   0.883   4.978
 2189SOL    HW1 6597   3.509   0.794   4.941
 2189SOL    HW2 6598   3.537   0.951   4.905
 2190SOL     OW 6599   3.087   0.325   4.173
 2190SOL    HW1 6600   3.152   0.251   4.162
 2190SOL    HW2 6601   3.107   0.375   4.257
 2191SOL     OW 6602   2.456   0.745   4.376
 2191SOL    HW1 6603   2.506   0.830   4.357
 2191SOL    HW2 6604   2.368   0.747   4.328
 2192SOL     OW 6605   3.592   0.934   5.241
 2192SOL    HW1 6606   3.630   1.025   5.256
 2192SOL    HW2 6607   3.584   0.917   5.142
 2193SOL     OW 6608   2.721   1.374   3.740
 2193SOL    HW1 6609   2.675   1.389   3.828
 2193SOL    HW2 6610   2.765   1.459   3.710
 2194SOL     OW 6611   2.523   1.790   4.677
 2194SOL    HW1 6612   2.477   1.878   4.664
 2194SOL    HW2 6613   2.622   1.802   4.670
 2195SOL     OW 6614   2.721   0.956   4.585
 2195SOL    HW1 6615   2.775   0.887   4.633
 2195SOL    HW2 6616   2.689   1.025   4.651
 2196SOL     OW 6617   2.945   0.984   3.811
 2196SOL    HW1 6618   2.922   1.037   3.729
 2196SOL    HW2 6619   3.026   0.928   3.792
 2197SOL     OW 6620   3.723   1.569   4.575
 2197SOL    HW1 6621   3.652   1.557   4.505
 2197SOL    HW2 6622   3.724   1.490   4.635
 2198SOL     OW 6623   1.941   1.240   4.377
 2198SOL    HW1 6624   1.940   1.193   4.465
 2198SOL    HW2 6625   2.023   1.212   4.326
 2199SOL     OW 6626   3.686   0.192   4.951
 2199SOL    HW1 6627   3.682   0.102   4.995
 2199SOL    HW2 6628   3.689   0.181   4.852
 2200SOL     OW 6629   2.290   0.424   4.244
 2200SOL    HW1 6630   2.320   0.352   4.182
 2200SOL    HW2 6631   2.251   0.384   4.327
 2201SOL     OW 6632   3.567   1.487   4.828
 2201SOL    HW1 6633   3.474   1.462   4.801
 2201SOL    HW2 6634   3.593   1.437   4.910
 2202SOL     OW 6635   2.179   0.547   5.004
 2202SOL    HW1 6636   2.217   0.488   5.076
 2202SOL    HW2 6637   2.219   0.521   4.916
 2203SOL     OW 6638   2.674   1.586   4.411
 2203SOL    HW1 6639   2.706   1.596   4.317
 2203SOL    HW2 6640   2.595   1.524   4.413
 2204SOL     OW 6641   3.286   0.214   4.836
 2204SOL    HW1 6642   3.338   0.149   4.891
 2204SOL    HW2 6643   3.237   0.277   4.897
 2205SOL     OW 6644   2.863   0.034   4.878
 2205SOL    HW1 6645   2.800  -0.038   4.847
 2205SOL    HW2 6646   2.956  -0.002   4.878
 2206SOL     OW 6647   2.632   1.330   4.025
 2206SOL    HW1 6648   2.586   1.243   4.042
 2206SOL    HW2 6649   2.723   1.327   4.066
 2207SOL     OW 6650   2.480   1.567   5.008
 2207SOL    HW1 6651   2.475   1.649   5.065
 2207SOL    HW2 6652   2.569   1.564   4.963
 2208SOL     OW 6653   3.214   0.052   3.892
 2208SOL    HW1 6654   3.249   0.011   3.808
 2208SOL    HW2 6655   3.124   0.014   3.912
 2209SOL     OW 6656   3.162   0.453   4.415
 2209SOL    HW1 6657   3.103   0.533   4.419
 2209SOL    HW2 6658   3.177   0.418   4.508
 2210SOL     OW 6659   3.455   0.221   4.606
 2210SOL    HW1 6660   3.371   0.220   4.660
 2210SOL    HW2 6661   3.457   0.304   4.550
 2211SOL     OW 6662   1.901   1.077   4.024
 2211SOL    HW1 6663   2.000   1.066   4.015
 2211SOL    HW2 6664   1.861   0.991   4.056
 2212SOL     OW 6665   2.737   1.646   4.061
 2212SOL    HW1 6666   2.660   1.611   4.007
 2212SOL    HW2 6667   2.705   1.717   4.123
 2213SOL     OW 6668   2.092   2.490   0.113
 2213SOL    HW1 6669   1.999   2.488   0.150
 2213SOL    HW2 6670   2.093   2.451   0.021
 2214SOL     OW 6671   2.087   2.137   0.996
 2214SOL    HW1 6672   2.122   2.120   1.088
 2214SOL    HW2 6673   1.999   2.092   0.984
 2215SOL     OW 6674   1.881   2.230   0.647
 2215SOL    HW1 6675   1.799   2.273   0.686
 2215SOL    HW2 6676   1.853   2.157   0.584
 2216SOL     OW 6677   2.431   3.137   1.165
 2216SOL    HW1 6678   2.338   3.130   1.128
 2216SOL    HW2 6679   2.442   3.226   1.209
 2217SOL     OW 6680   3.417   3.373   0.703
 2217SOL    HW1 6681   3.360   3.357   0.784
 2217SOL    HW2 6682   3.358   3.383   0.623
 2218SOL     OW 6683   2.997   2.565   0.717
 2218SOL    HW1 6684   3.054   2.643   0.692
 2218SOL    HW2 6685   2.937   2.591   0.793
 2219SOL     OW 6686   3.617   2.469   0.231
 2219SOL    HW1 6687   3.605   2.456   0.132
 2219SOL    HW2 6688   3.587   2.388   0.280
 2220SOL     OW 6689   2.630   3.006   1.023
 2220SOL    HW1 6690   2.552   3.023   1.083
 2220SOL    HW2 6691   2.664   3.093   0.987
 2221SOL     OW 6692   2.712   2.660   1.823
 2221SOL    HW1 6693   2.708   2.736   1.888
 2221SOL    HW2 6694   2.734   2.696   1.732
 2222SOL     OW 6695   2.547   2.874   0.665
 2222SOL    HW1 6696   2.616   2.858   0.735
 2222SOL    HW2 6697   2.474   2.931   0.703
 2223SOL     OW 6698   2.548   3.023   1.803
 2223SOL    HW1 6699   2.608   3.102   1.817
 2223SOL    HW2 6700   2.462   3.054   1.762
 2224SOL     OW 6701   2.197   3.297   1.061
 2224SOL    HW1 6702   2.119   3.266   1.008
 2224SOL    HW2 6703   2.255   3.355   1.004
 2225SOL     OW 6704   3.322   3.367   1.339
 2225SOL    HW1 6705   3.346   3.461   1.365
 2225SOL    HW2 6706   3.306   3.313   1.421
 2226SOL     OW 6707   2.300   2.254   1.499
 2226SOL    HW1 6708   2.382   2.198   1.508
 2226SOL    HW2 6709   2.219   2.196   1.503
 2227SOL     OW 6710   3.465   2.309   0.737
 2227SOL    HW1 6711   3.391   2.355   0.687
 2227SOL    HW2 6712   3.516   2.377   0.790
 2228SOL     OW 6713   2.093   3.575   0.483
 2228SOL    HW1 6714   2.127   3.652   0.537
 2228SOL    HW2 6715   2.137   3.575   0.393
 2229SOL     OW 6716   2.989   3.203   1.690
 2229SOL    HW1 6717   3.036   3.203   1.778
 2229SOL    HW2 6718   2.941   3.116   1.679
 2230SOL     OW 6719   2.092   3.296   0.538
 2230SOL    HW1 6720   2.066   3.392   0.538
 2230SOL    HW2 6721   2.021   3.242   0.583
 2231SOL     OW 6722   2.102   2.953   0.886
 2231SOL    HW1 6723   2.116   2.869   0.938
 2231SOL    HW2 6724   2.047   3.017   0.941
 2232SOL     OW 6725   2.482   3.648   1.439
 2232SOL    HW1 6726   2.390   3.631   1.474
 2232SOL    HW2 6727   2.510   3.740   1.465
 2233SOL     OW 6728   2.468   2.826   0.123
 2233SOL    HW1 6729   2.475   2.910   0.069
 2233SOL    HW2 6730   2.514   2.839   0.211
 2234SOL     OW 6731   3.456   1.976   1.480
 2234SOL    HW1 6732   3.438   2.043   1.408
 2234SOL    HW2 6733   3.453   2.022   1.569
 2235SOL     OW 6734   1.984   2.505   0.563
 2235SOL    HW1 6735   1.939   2.417   0.580
 2235SOL    HW2 6736   1.983   2.559   0.647
 2236SOL     OW 6737   3.704   3.629   0.359
 2236SOL    HW1 6738   3.758   3.600   0.439
 2236SOL    HW2 6739   3.734   3.719   0.330
 2237SOL     OW 6740   1.889   3.458   0.117
 2237SOL    HW1 6741   1.870   3.362   0.138
 2237SOL    HW2 6742   1.856   3.516   0.192
 2238SOL     OW 6743   3.551   2.784   0.612
 2238SOL    HW1 6744   3.646   2.755   0.620
 2238SOL    HW2 6745   3.543   2.849   0.537
 2239SOL     OW 6746   3.503   2.970   0.432
 2239SOL    HW1 6747   3.589   2.972   0.380
 2239SOL    HW2 6748   3.517   3.017   0.520
 2240SOL     OW 6749   1.975   2.599   1.597
 2240SOL    HW1 6750   2.063   2.586   1.642
 2240SOL    HW2 6751   1.962   2.696   1.575
 2241SOL     OW 6752   2.475   3.227   0.726
 2241SOL    HW1 6753   2.426   3.140   0.735
 2241SOL    HW2 6754   2.452   3.270   0.639
 2242SOL     OW 6755   3.155   3.090   1.423
 2242SOL    HW1 6756   3.192   3.017   1.365
 2242SOL    HW2 6757   3.207   3.095   1.508
 2243SOL     OW 6758   2.671   1.866   0.502
 2243SOL    HW1 6759   2.711   1.957   0.493
 2243SOL    HW2 6760   2.571   1.874   0.508
 2244SOL     OW 6761   2.059   2.838   1.264
 2244SOL    HW1 6762   2.148   2.793   1.250
 2244SOL    HW2 6763   1.986   2.773   1.245
 2245SOL     OW 6764   3.387   2.861   0.190
 2245SOL    HW1 6765   3.324   2.785   0.203
 2245SOL    HW2 6766   3.435   2.879   0.276
 2246SOL     OW 6767   3.049   3.654   1.616
 2246SOL    HW1 6768   3.073   3.714   1.540
 2246SOL    HW2 6769   3.056   3.559   1.586
 2247SOL     OW 6770   2.179   2.113   1.801
 2247SOL    HW1 6771   2.250   2.184   1.807
 2247SOL    HW2 6772   2.091   2.152   1.829
 2248SOL     OW 6773   3.328   3.279   0.953
 2248SOL    HW1 6774   3.269   3.285   1.033
 2248SOL    HW2 6775   3.313   3.191   0.907
 2249SOL     OW 6776   3.529   3.576   0.572
 2249SOL    HW1 6777   3.488   3.553   0.484
 2249SOL    HW2 6778   3.511   3.502   0.637
 2250SOL     OW 6779   2.460   2.591   0.270
 2250SOL    HW1 6780   2.484   2.660   0.202
 2250SOL    HW2 6781   2.382   2.624   0.324
 2251SOL     OW 6782   3.143   2.207   0.944
 2251SOL    HW1 6783   3.057   2.157   0.931
 2251SOL    HW2 6784   3.205   2.153   1.000
 2252SOL     OW 6785   3.438   3.524   0.307
 2252SOL    HW1 6786   3.527   3.570   0.310
 2252SOL    HW2 6787   3.417   3.500   0.212
 2253SOL     OW 6788   2.669   2.467   1.465
 2253SOL    HW1 6789   2.622   2.464   1.554
 2253SOL    HW2 6790   2.618   2.412   1.399
 2254SOL     OW 6791   3.256   2.331   1.674
 2254SOL    HW1 6792   3.236   2.374   1.762
 2254SOL    HW2 6793   3.334   2.269   1.683
 2255SOL     OW 6794   2.835   2.752   1.572
 2255SOL    HW1 6795   2.881   2.668   1.543
 2255SOL    HW2 6796   2.779   2.786   1.497
 2256SOL     OW 6797   2.853   2.272   1.242
 2256SOL    HW1 6798   2.776   2.306   1.296
 2256SOL    HW2 6799   2.819   2.221   1.163
 2257SOL     OW 6800   2.903   2.563   0.429
 2257SOL    HW1 6801   2.929   2.559   0.525
 2257SOL    HW2 6802   2.818   2.512   0.415
 2258SOL     OW 6803   1.938   2.673   0.789
 2258SOL    HW1 6804   2.037   2.661   0.798
 2258SOL    HW2 6805   1.914   2.768   0.810
 2259SOL     OW 6806   1.992   3.683   1.571
 2259SOL    HW1 6807   1.982   3.668   1.670
 2259SOL    HW2 6808   1.906   3.719   1.535
 2260SOL     OW 6809   2.727   2.210   0.195
 2260SOL    HW1 6810   2.786   2.273   0.146
 2260SOL    HW2 6811   2.746   2.116   0.166
 2261SOL     OW 6812   3.581   2.447   1.831
 2261SOL    HW1 6813   3.555   2.536   1.795
 2261SOL    HW2 6814   3.579   2.379   1.758
 2262SOL     OW 6815   3.224   3.006   0.545
 2262SOL    HW1 6816   3.307   2.977   0.497
 2262SOL    HW2 6817   3.175   3.073   0.489
 2263SOL     OW 6818   2.412   2.058   0.885
 2263SOL    HW1 6819   2.407   2.053   0.985
 2263SOL    HW2 6820   2.414   2.154   0.856
 2264SOL     OW 6821   2.870   3.318   0.477
 2264SOL    HW1 6822   2.824   3.390   0.425
 2264SOL    HW2 6823   2.866   3.338   0.575
 2265SOL     OW 6824   2.213   3.663   0.853
 2265SOL    HW1 6825   2.263   3.577   0.859
 2265SOL    HW2 6826   2.278   3.740   0.850
 2266SOL     OW 6827   3.657   2.928   0.873
 2266SOL    HW1 6828   3.595   2.913   0.797
 2266SOL    HW2 6829   3.605   2.939   0.958
 2267SOL     OW 6830   3.089   3.412   1.506
 2267SOL    HW1 6831   3.095   3.335   1.570
 2267SOL    HW2 6832   3.037   3.386   1.426
 2268SOL     OW 6833   2.183   2.805   0.242
 2268SOL    HW1 6834   2.265   2.844   0.200
 2268SOL    HW2 6835   2.156   2.723   0.193
 2269SOL     OW 6836   3.320   2.597   0.728
 2269SOL    HW1 6837   3.315   2.532   0.803
 2269SOL    HW2 6838   3.400   2.656   0.741
 2270SOL     OW 6839   2.323   3.128   1.727
 2270SOL    HW1 6840   2.273   3.129   1.641
 2270SOL    HW2 6841   2.260   3.110   1.803
 2271SOL     OW 6842   2.973   3.638   0.237
 2271SOL    HW1 6843   2.913   3.576   0.287
 2271SOL    HW2 6844   3.004   3.594   0.152
 2272SOL     OW 6845   2.064   2.147   1.498
 2272SOL    HW1 6846   1.984   2.207   1.485
 2272SOL    HW2 6847   2.054   2.098   1.584
 2273SOL     OW 6848   3.494   3.239   0.081
 2273SOL    HW1 6849   3.462   3.333   0.071
 2273SOL    HW2 6850   3.418   3.176   0.069
 2274SOL     OW 6851   2.326   3.605   0.323
 2274SOL    HW1 6852   2.359   3.644   0.409
 2274SOL    HW2 6853   2.402   3.598   0.258
 2275SOL     OW 6854   3.262   1.969   0.426
 2275SOL    HW1 6855   3.238   1.932   0.336
 2275SOL    HW2 6856   3.361   1.985   0.430
 2276SOL     OW 6857   2.111   3.647   1.241
 2276SOL    HW1 6858   2.168   3.582   1.291
 2276SOL    HW2 6859   2.095   3.614   1.148
 2277SOL     OW 6860   2.802   3.560   0.904
 2277SOL    HW1 6861   2.882   3.503   0.925
 2277SOL    HW2 6862   2.753   3.520   0.827
 2278SOL     OW 6863   2.244   2.562   0.480
 2278SOL    HW1 6864   2.289   2.472   0.477
 2278SOL    HW2 6865   2.150   2.551   0.513
 2279SOL     OW 6866   3.409   2.084   1.729
 2279SOL    HW1 6867   3.404   2.121   1.821
 2279SOL    HW2 6868   3.337   2.015   1.717
 2280SOL     OW 6869   2.643   2.126   1.749
 2280SOL    HW1 6870   2.710   2.065   1.792
 2280SOL    HW2 6871   2.570   2.145   1.814
 2281SOL     OW 6872   2.750   3.376   1.195
 2281SOL    HW1 6873   2.727   3.351   1.101
 2281SOL    HW2 6874   2.811   3.307   1.234
 2282SOL     OW 6875   3.213   2.452   1.433
 2282SOL    HW1 6876   3.241   2.409   1.518
 2282SOL    HW2 6877   3.238   2.548   1.434
 2283SOL     OW 6878   2.665   3.264   0.924
 2283SOL    HW1 6879   2.755   3.278   0.882
 2283SOL    HW2 6880   2.594   3.266   0.853
 2284SOL     OW 6881   2.784   2.365   0.899
 2284SOL    HW1 6882   2.759   2.356   0.803
 2284SOL    HW2 6883   2.832   2.283   0.930
 2285SOL     OW 6884   2.401   1.926   0.512
 2285SOL    HW1 6885   2.320   1.927   0.570
 2285SOL    HW2 6886   2.404   2.009   0.457
 2286SOL     OW 6887   3.296   3.050   0.041
 2286SOL    HW1 6888   3.328   2.974   0.098
 2286SOL    HW2 6889   3.204   3.077   0.071
 2287SOL     OW 6890   2.797   2.098   0.480
 2287SOL    HW1 6891   2.749   2.139   0.402
 2287SOL    HW2 6892   2.896   2.096   0.461
 2288SOL     OW 6893   2.938   2.545   1.464
 2288SOL    HW1 6894   2.858   2.484   1.467
 2288SOL    HW2 6895   3.019   2.492   1.440
 2289SOL     OW 6896   3.089   3.432   0.793
 2289SOL    HW1 6897   3.110   3.506   0.728
 2289SOL    HW2 6898   3.157   3.432   0.866
 2290SOL     OW 6899   2.321   3.014   0.741
 2290SOL    HW1 6900   2.250   2.987   0.806
 2290SOL    HW2 6901   2.295   2.986   0.648
 2291SOL     OW 6902   3.133   3.659   0.591
 2291SOL    HW1 6903   3.177   3.723   0.527
 2291SOL    HW2 6904   3.083   3.711   0.661
 2292SOL     OW 6905   2.894   2.411   0.016
 2292SOL    HW1 6906   2.853   2.493  -0.023
 2292SOL    HW2 6907   2.958   2.437   0.089
 2293SOL     OW 6908   1.940   2.418   1.386
 2293SOL    HW1 6909   2.032   2.417   1.345
 2293SOL    HW2 6910   1.934   2.492   1.453
 2294SOL     OW 6911   2.423   2.084   1.147
 2294SOL    HW1 6912   2.461   2.000   1.184
 2294SOL    HW2 6913   2.335   2.103   1.191
 2295SOL     OW 6914   2.728   2.316   0.642
 2295SOL    HW1 6915   2.696   2.388   0.580
 2295SOL    HW2 6916   2.752   2.235   0.589
 2296SOL     OW 6917   2.879   1.901   0.753
 2296SOL    HW1 6918   2.807   1.906   0.684
 2296SOL    HW2 6919   2.855   1.832   0.822
 2297SOL     OW 6920   3.291   3.035   0.867
 2297SOL    HW1 6921   3.236   2.951   0.860
 2297SOL    HW2 6922   3.317   3.064   0.775
 2298SOL     OW 6923   3.328   2.452   0.992
 2298SOL    HW1 6924   3.298   2.357   0.999
 2298SOL    HW2 6925   3.401   2.468   1.058
 2299SOL     OW 6926   3.719   2.695   0.377
 2299SOL    HW1 6927   3.761   2.631   0.441
 2299SOL    HW2 6928   3.681   2.644   0.299
 2300SOL     OW 6929   2.350   3.247   0.174
 2300SOL    HW1 6930   2.263   3.232   0.221
 2300SOL    HW2 6931   2.333   3.273   0.079
 2301SOL     OW 6932   3.526   3.142   0.657
 2301SOL    HW1 6933   3.625   3.150   0.671
 2301SOL    HW2 6934   3.481   3.226   0.688
 2302SOL     OW 6935   3.252   2.437   0.078
 2302SOL    HW1 6936   3.198   2.416   0.159
 2302SOL    HW2 6937   3.343   2.396   0.087
 2303SOL     OW 6938   2.389   2.118   0.328
 2303SOL    HW1 6939   2.416   2.059   0.253
 2303SOL    HW2 6940   2.389   2.213   0.297
 2304SOL     OW 6941   3.616   3.085   1.588
 2304SOL    HW1 6942   3.707   3.046   1.575
 2304SOL    HW2 6943   3.624   3.181   1.612
 2305SOL     OW 6944   2.926   3.209   1.340
 2305SOL    HW1 6945   2.846   3.186   1.395
 2305SOL    HW2 6946   3.009   3.183   1.389
 2306SOL     OW 6947   3.454   3.491   1.625
 2306SOL    HW1 6948   3.481   3.525   1.535
 2306SOL    HW2 6949   3.533   3.453   1.671
 2307SOL     OW 6950   2.973   3.057   1.100
 2307SOL    HW1 6951   2.933   3.101   1.181
 2307SOL    HW2 6952   2.932   3.094   1.017
 2308SOL     OW 6953   3.500   2.961   1.079
 2308SOL    HW1 6954   3.505   3.042   1.138
 2308SOL    HW2 6955   3.414   2.963   1.028
 2309SOL     OW 6956   2.777   1.951   1.402
 2309SOL    HW1 6957   2.802   1.931   1.307
 2309SOL    HW2 6958   2.849   2.007   1.444
 2310SOL     OW 6959   2.842   2.978   1.719
 2310SOL    HW1 6960   2.743   2.984   1.729
 2310SOL    HW2 6961   2.865   2.898   1.663
 2311SOL     OW 6962   2.567   2.912   0.368
 2311SOL    HW1 6963   2.553   2.919   0.467
 2311SOL    HW2 6964   2.651   2.861   0.350
 2312SOL     OW 6965   2.272   2.675   1.251
 2312SOL    HW1 6966   2.358   2.687   1.301
 2312SOL    HW2 6967   2.230   2.588   1.278
 2313SOL     OW 6968   3.136   2.248   1.262
 2313SOL    HW1 6969   3.157   2.322   1.326
 2313SOL    HW2 6970   3.047   2.265   1.219
 2314SOL     OW 6971   1.926   3.426   1.331
 2314SOL    HW1 6972   1.880   3.508   1.297
 2314SOL    HW2 6973   2.024   3.445   1.340
 2315SOL     OW 6974   2.229   2.962   0.501
 2315SOL    HW1 6975   2.222   3.045   0.445
 2315SOL    HW2 6976   2.233   2.882   0.441
 2316SOL     OW 6977   2.428   2.399   0.865
 2316SOL    HW1 6978   2.440   2.465   0.791
 2316SOL    HW2 6979   2.474   2.433   0.948
 2317SOL     OW 6980   3.114   3.210   0.388
 2317SOL    HW1 6981   3.164   3.287   0.428
 2317SOL    HW2 6982   3.019   3.212   0.420
 2318SOL     OW 6983   3.134   3.307   1.142
 2318SOL    HW1 6984   3.181   3.320   1.229
 2318SOL    HW2 6985   3.068   3.233   1.151
 2319SOL     OW 6986   3.444   2.501   0.472
 2319SOL    HW1 6987   3.413   2.562   0.545
 2319SOL    HW2 6988   3.494   2.553   0.403
 2320SOL     OW 6989   2.216   3.372   1.329
 2320SOL    HW1 6990   2.195   3.328   1.242
 2320SOL    HW2 6991   2.313   3.398   1.332
 2321SOL     OW 6992   2.264   2.613   1.598
 2321SOL    HW1 6993   2.332   2.668   1.551
 2321SOL    HW2 6994   2.304   2.525   1.625
 2322SOL     OW 6995   3.449   2.641   1.670
 2322SOL    HW1 6996   3.357   2.679   1.665
 2322SOL    HW2 6997   3.509   2.688   1.605
 2323SOL     OW 6998   2.875   1.967   1.770
 2323SOL    HW1 6999   2.881   2.052   1.718
 2323SOL    HW2 7000   2.907   1.891   1.713
 2324SOL     OW 7001   2.366   1.912   1.740
 2324SOL    HW1 7002   2.324   1.855   1.670
 2324SOL    HW2 7003   2.300   1.981   1.772
 2325SOL     OW 7004   2.435   2.732   1.029
 2325SOL    HW1 7005   2.479   2.821   1.020
 2325SOL    HW2 7006   2.372   2.732   1.106
 2326SOL     OW 7007   3.222   2.724   1.045
 2326SOL    HW1 7008   3.147   2.724   0.979
 2326SOL    HW2 7009   3.259   2.632   1.054
 2327SOL     OW 7010   3.071   2.387   0.275
 2327SOL    HW1 7011   3.084   2.303   0.329
 2327SOL    HW2 7012   3.042   2.461   0.335
 2328SOL     OW 7013   2.169   2.075   1.231
 2328SOL    HW1 7014   2.146   2.112   1.321
 2328SOL    HW2 7015   2.139   1.980   1.225
 2329SOL     OW 7016   1.899   3.172   1.282
 2329SOL    HW1 7017   1.952   3.123   1.350
 2329SOL    HW2 7018   1.921   3.270   1.287
 2330SOL     OW 7019   2.594   2.496   1.064
 2330SOL    HW1 7020   2.653   2.470   0.988
 2330SOL    HW2 7021   2.566   2.592   1.053
 2331SOL     OW 7022   3.590   2.797   1.854
 2331SOL    HW1 7023   3.544   2.790   1.765
 2331SOL    HW2 7024   3.528   2.841   1.920
 2332SOL     OW 7025   2.169   1.925   0.618
 2332SOL    HW1 7026   2.158   2.019   0.651
 2332SOL    HW2 7027   2.164   1.862   0.695
 2333SOL     OW 7028   3.484   2.229   0.374
 2333SOL    HW1 7029   3.486   2.153   0.438
 2333SOL    HW2 7030   3.436   2.306   0.414
 2334SOL     OW 7031   2.885   2.628   0.966
 2334SOL    HW1 7032   2.900   2.649   1.062
 2334SOL    HW2 7033   2.855   2.533   0.957
 2335SOL     OW 7034   2.842   3.435   1.700
 2335SOL    HW1 7035   2.822   3.479   1.612
 2335SOL    HW2 7036   2.881   3.344   1.684
 2336SOL     OW 7037   3.721   3.380   1.605
 2336SOL    HW1 7038   3.735   3.407   1.510
 2336SOL    HW2 7039   3.804   3.402   1.658
 2337SOL     OW 7040   2.212   2.760   1.804
 2337SOL    HW1 7041   2.288   2.804   1.852
 2337SOL    HW2 7042   2.247   2.713   1.722
 2338SOL     OW 7043   3.402   2.136   0.125
 2338SOL    HW1 7044   3.341   2.061   0.148
 2338SOL    HW2 7045   3.424   2.188   0.208
 2339SOL     OW 7046   3.165   2.700   0.042
 2339SOL    HW1 7047   3.199   2.607   0.057
 2339SOL    HW2 7048   3.183   2.727  -0.053
 2340SOL     OW 7049   2.930   3.195   0.849
 2340SOL    HW1 7050   2.937   3.111   0.794
 2340SOL    HW2 7051   2.992   3.264   0.813
 2341SOL     OW 7052   2.181   2.672   0.949
 2341SOL    HW1 7053   2.274   2.708   0.954
 2341SOL    HW2 7054   2.175   2.587   1.001
 2342SOL     OW 7055   2.201   2.371   1.006
 2342SOL    HW1 7056   2.149   2.288   0.989
 2342SOL    HW2 7057   2.278   2.376   0.942
 2343SOL     OW 7058   3.000   2.242   1.678
 2343SOL    HW1 7059   2.955   2.305   1.742
 2343SOL    HW2 7060   3.093   2.273   1.661
 2344SOL     OW 7061   3.022   2.069   1.477
 2344SOL    HW1 7062   3.022   2.133   1.554
 2344SOL    HW2 7063   3.050   2.117   1.394
 2345SOL     OW 7064   1.950   3.663   0.927
 2345SOL    HW1 7065   1.908   3.577   0.900
 2345SOL    HW2 7066   2.044   3.666   0.893
 2346SOL     OW 7067   2.366   3.430   0.910
 2346SOL    HW1 7068   2.432   3.504   0.919
 2346SOL    HW2 7069   2.410   3.351   0.868
 2347SOL     OW 7070   2.864   2.658   1.238
 2347SOL    HW1 7071   2.905   2.626   1.324
 2347SOL    HW2 7072   2.768   2.631   1.235
 2348SOL     OW 7073   1.902   2.406   1.114
 2348SOL    HW1 7074   1.987   2.373   1.073
 2348SOL    HW2 7075   1.915   2.421   1.212
 2349SOL     OW 7076   2.051   2.382   1.722
 2349SOL    HW1 7077   2.110   2.342   1.652
 2349SOL    HW2 7078   1.993   2.453   1.681
 2350SOL     OW 7079   3.231   2.812   1.660
 2350SOL    HW1 7080   3.270   2.901   1.680
 2350SOL    HW2 7081   3.241   2.792   1.563
 2351SOL     OW 7082   2.677   2.434   0.325
 2351SOL    HW1 7083   2.684   2.345   0.279
 2351SOL    HW2 7084   2.583   2.468   0.317
 2352SOL     OW 7085   3.519   2.466   1.206
 2352SOL    HW1 7086   3.481   2.397   1.268
 2352SOL    HW2 7087   3.601   2.430   1.162
 2353SOL     OW 7088   2.114   3.426   1.744
 2353SOL    HW1 7089   2.084   3.483   1.820
 2353SOL    HW2 7090   2.107   3.329   1.770
 2354SOL     OW 7091   2.533   2.326   1.269
 2354SOL    HW1 7092   2.499   2.237   1.239
 2354SOL    HW2 7093   2.559   2.380   1.189
 2355SOL     OW 7094   2.792   3.540   1.465
 2355SOL    HW1 7095   2.768   3.522   1.370
 2355SOL    HW2 7096   2.822   3.634   1.475
 2356SOL     OW 7097   2.335   2.362   0.191
 2356SOL    HW1 7098   2.396   2.442   0.195
 2356SOL    HW2 7099   2.240   2.393   0.198
 2357SOL     OW 7100   2.021   2.999   1.466
 2357SOL    HW1 7101   2.043   2.938   1.542
 2357SOL    HW2 7102   2.031   2.950   1.380
 2358SOL     OW 7103   3.209   2.921   1.234
 2358SOL    HW1 7104   3.233   2.858   1.160
 2358SOL    HW2 7105   3.119   2.961   1.216
 2359SOL     OW 7106   3.164   2.717   0.309
 2359SOL    HW1 7107   3.078   2.686   0.351
 2359SOL    HW2 7108   3.160   2.703   0.210
 2360SOL     OW 7109   3.621   3.609   1.154
 2360SOL    HW1 7110   3.682   3.639   1.081
 2360SOL    HW2 7111   3.583   3.520   1.132
 2361SOL     OW 7112   3.114   3.593   1.128
 2361SOL    HW1 7113   3.198   3.598   1.074
 2361SOL    HW2 7114   3.091   3.497   1.146
 2362SOL     OW 7115   1.945   3.120   1.022
 2362SOL    HW1 7116   1.940   3.119   1.122
 2362SOL    HW2 7117   1.862   3.079   0.984
 2363SOL     OW 7118   2.550   3.524   1.716
 2363SOL    HW1 7119   2.494   3.605   1.725
 2363SOL    HW2 7120   2.602   3.528   1.630
 2364SOL     OW 7121   2.765   1.948   0.133
 2364SOL    HW1 7122   2.816   1.949   0.047
 2364SOL    HW2 7123   2.821   1.906   0.204
 2365SOL     OW 7124   3.588   1.997   0.523
 2365SOL    HW1 7125   3.661   1.980   0.456
 2365SOL    HW2 7126   3.557   1.910   0.561
 2366SOL     OW 7127   3.250   3.435   0.477
 2366SOL    HW1 7128   3.317   3.447   0.403
 2366SOL    HW2 7129   3.210   3.524   0.500
 2367SOL     OW 7130   1.992   3.656   1.851
 2367SOL    HW1 7131   1.951   3.582   1.904
 2367SOL    HW2 7132   2.056   3.707   1.909
 2368SOL     OW 7133   3.142   2.789   0.672
 2368SOL    HW1 7134   3.202   2.708   0.674
 2368SOL    HW2 7135   3.182   2.858   0.612
 2369SOL     OW 7136   2.692   3.135   1.422
 2369SOL    HW1 7137   2.687   3.168   1.517
 2369SOL    HW2 7138   2.606   3.154   1.376
 2370SOL     OW 7139   2.534   3.478   0.154
 2370SOL    HW1 7140   2.543   3.488   0.055
 2370SOL    HW2 7141   2.494   3.389   0.175
 2371SOL     OW 7142   3.512   3.582   1.394
 2371SOL    HW1 7143   3.565   3.592   1.310
 2371SOL    HW2 7144   3.485   3.672   1.428
 2372SOL     OW 7145   3.703   2.037   0.963
 2372SOL    HW1 7146   3.742   1.952   0.927
 2372SOL    HW2 7147   3.605   2.039   0.944
 2373SOL     OW 7148   2.125   2.188   0.720
 2373SOL    HW1 7149   2.046   2.239   0.686
 2373SOL    HW2 7150   2.116   2.173   0.818
 2374SOL     OW 7151   3.056   3.474   0.031
 2374SOL    HW1 7152   3.062   3.381   0.068
 2374SOL    HW2 7153   2.997   3.474  -0.049
 2375SOL     OW 7154   2.684   2.864   1.372
 2375SOL    HW1 7155   2.724   2.863   1.280
 2375SOL    HW2 7156   2.694   2.956   1.412
 2376SOL     OW 7157   2.778   2.772   0.291
 2376SOL    HW1 7158   2.841   2.810   0.223
 2376SOL    HW2 7159   2.818   2.689   0.330
 2377SOL     OW 7160   3.366   3.469   0.044
 2377SOL    HW1 7161   3.274   3.506   0.051
 2377SOL    HW2 7162   3.404   3.489  -0.046
 2378SOL     OW 7163   2.234   3.150   1.490
 2378SOL    HW1 7164   2.221   3.243   1.456
 2378SOL    HW2 7165   2.150   3.098   1.477
 2379SOL     OW 7166   3.476   3.154   1.289
 2379SOL    HW1 7167   3.536   3.157   1.369
 2379SOL    HW2 7168   3.401   3.218   1.302
 2380SOL     OW 7169   2.901   2.960   0.696
 2380SOL    HW1 7170   2.831   2.913   0.750
 2380SOL    HW2 7171   2.960   2.892   0.653
 2381SOL     OW 7172   2.876   2.098   0.971
 2381SOL    HW1 7173   2.868   2.062   0.878
 2381SOL    HW2 7174   2.874   2.022   1.036
 2382SOL     OW 7175   2.452   3.349   0.491
 2382SOL    HW1 7176   2.494   3.291   0.421
 2382SOL    HW2 7177   2.408   3.428   0.447
 2383SOL     OW 7178   3.571   2.247   1.381
 2383SOL    HW1 7179   3.644   2.316   1.385
 2383SOL    HW2 7180   3.599   2.172   1.322
 2384SOL     OW 7181   2.117   3.210   0.290
 2384SOL    HW1 7182   2.021   3.211   0.263
 2384SOL    HW2 7183   2.129   3.263   0.374
 2385SOL     OW 7184   1.967   2.875   1.726
 2385SOL    HW1 7185   1.890   2.842   1.780
 2385SOL    HW2 7186   2.052   2.845   1.768
 2386SOL     OW 7187   2.534   2.065   1.489
 2386SOL    HW1 7188   2.624   2.049   1.449
 2386SOL    HW2 7189   2.542   2.070   1.588
 2387SOL     OW 7190   1.937   2.207   0.033
 2387SOL    HW1 7191   1.845   2.179   0.004
 2387SOL    HW2 7192   1.968   2.284  -0.023
 2388SOL     OW 7193   3.302   2.718   1.398
 2388SOL    HW1 7194   3.245   2.770   1.335
 2388SOL    HW2 7195   3.398   2.730   1.374
 2389SOL     OW 7196   1.934   2.028   0.318
 2389SOL    HW1 7197   1.917   2.111   0.264
 2389SOL    HW2 7198   2.024   1.991   0.296
 2390SOL     OW 7199   3.045   3.197   0.119
 2390SOL    HW1 7200   2.946   3.186   0.121
 2390SOL    HW2 7201   3.079   3.212   0.212
 2391SOL     OW 7202   2.475   2.704   1.431
 2391SOL    HW1 7203   2.531   2.785   1.414
 2391SOL    HW2 7204   2.534   2.624   1.434
 2392SOL     OW 7205   3.355   3.629   0.959
 2392SOL    HW1 7206   3.388   3.693   0.890
 2392SOL    HW2 7207   3.421   3.623   1.034
 2393SOL     OW 7208   2.578   2.427   1.708
 2393SOL    HW1 7209   2.597   2.492   1.782
 2393SOL    HW2 7210   2.638   2.347   1.717
 2394SOL     OW 7211   3.312   3.082   1.633
 2394SOL    HW1 7212   3.303   3.072   1.732
 2394SOL    HW2 7213   3.408   3.075   1.607
 2395SOL     OW 7214   2.252   3.603   1.560
 2395SOL    HW1 7215   2.161   3.644   1.558
 2395SOL    HW2 7216   2.245   3.509   1.592
 2396SOL     OW 7217   3.536   2.745   1.254
 2396SOL    HW1 7218   3.509   2.656   1.217
 2396SOL    HW2 7219   3.537   2.813   1.181
 2397SOL     OW 7220   3.087   2.187   0.449
 2397SOL    HW1 7221   3.152   2.113   0.438
 2397SOL    HW2 7222   3.107   2.237   0.533
 2398SOL     OW 7223   2.456   2.607   0.652
 2398SOL    HW1 7224   2.506   2.692   0.633
 2398SOL    HW2 7225   2.368   2.609   0.604
 2399SOL     OW 7226   3.639   2.204   1.642
 2399SOL    HW1 7227   3.622   2.235   1.548
 2399SOL    HW2 7228   3.555   2.167   1.680
 2400SOL     OW 7229   3.592   2.796   1.517
 2400SOL    HW1 7230   3.630   2.887   1.532
 2400SOL    HW2 7231   3.584   2.779   1.418
 2401SOL     OW 7232   2.721   3.236   0.016
 2401SOL    HW1 7233   2.675   3.251   0.104
 2401SOL    HW2 7234   2.765   3.321  -0.014
 2402SOL     OW 7235   2.523   3.652   0.953
 2402SOL    HW1 7236   2.477   3.740   0.940
 2402SOL    HW2 7237   2.622   3.664   0.946
 2403SOL     OW 7238   2.721   2.818   0.861
 2403SOL    HW1 7239   2.775   2.749   0.909
 2403SOL    HW2 7240   2.689   2.887   0.927
 2404SOL     OW 7241   2.945   2.846   0.087
 2404SOL    HW1 7242   2.922   2.899   0.005
 2404SOL    HW2 7243   3.026   2.790   0.068
 2405SOL     OW 7244   3.723   3.431   0.851
 2405SOL    HW1 7245   3.652   3.419   0.781
 2405SOL    HW2 7246   3.724   3.352   0.911
 2406SOL     OW 7247   2.083   3.176   1.844
 2406SOL    HW1 7248   2.018   3.103   1.823
 2406SOL    HW2 7249   2.087   3.190   1.942
 2407SOL     OW 7250   1.941   3.102   0.653
 2407SOL    HW1 7251   1.940   3.055   0.741
 2407SOL    HW2 7252   2.023   3.074   0.602
 2408SOL     OW 7253   2.534   3.253   1.624
 2408SOL    HW1 7254   2.456   3.203   1.662
 2408SOL    HW2 7255   2.531   3.348   1.655
 2409SOL     OW 7256   3.686   2.054   1.227
 2409SOL    HW1 7257   3.682   1.964   1.271
 2409SOL    HW2 7258   3.689   2.043   1.128
 2410SOL     OW 7259   2.290   2.286   0.520
 2410SOL    HW1 7260   2.320   2.214   0.458
 2410SOL    HW2 7261   2.251   2.246   0.603
 2411SOL     OW 7262   3.567   3.349   1.104
 2411SOL    HW1 7263   3.474   3.324   1.077
 2411SOL    HW2 7264   3.593   3.299   1.186
 2412SOL     OW 7265   2.179   2.409   1.280
 2412SOL    HW1 7266   2.217   2.350   1.352
 2412SOL    HW2 7267   2.219   2.383   1.192
 2413SOL     OW 7268   2.674   3.448   0.687
 2413SOL    HW1 7269   2.706   3.458   0.593
 2413SOL    HW2 7270   2.595   3.386   0.689
 2414SOL     OW 7271   3.286   2.076   1.112
 2414SOL    HW1 7272   3.338   2.011   1.167
 2414SOL    HW2 7273   3.237   2.139   1.173
 2415SOL     OW 7274   2.863   1.896   1.154
 2415SOL    HW1 7275   2.800   1.824   1.123
 2415SOL    HW2 7276   2.956   1.860   1.154
 2416SOL     OW 7277   2.632   3.192   0.301
 2416SOL    HW1 7278   2.586   3.105   0.318
 2416SOL    HW2 7279   2.723   3.189   0.342
 2417SOL     OW 7280   2.480   3.429   1.284
 2417SOL    HW1 7281   2.475   3.511   1.341
 2417SOL    HW2 7282   2.569   3.426   1.239
 2418SOL     OW 7283   3.214   1.914   0.168
 2418SOL    HW1 7284   3.249   1.873   0.084
 2418SOL    HW2 7285   3.124   1.876   0.188
 2419SOL     OW 7286   3.162   2.315   0.691
 2419SOL    HW1 7287   3.103   2.395   0.695
 2419SOL    HW2 7288   3.177   2.280   0.784
 2420SOL     OW 7289   3.455   2.083   0.882
 2420SOL    HW1 7290   3.371   2.082   0.936
 2420SOL    HW2 7291   3.457   2.166   0.826
 2421SOL     OW 7292   1.901   2.939   0.300
 2421SOL    HW1 7293   2.000   2.928   0.291
 2421SOL    HW2 7294   1.861   2.853   0.332
 2422SOL     OW 7295   2.737   3.508   0.337
 2422SOL    HW1 7296   2.660   3.473   0.283
 2422SOL    HW2 7297   2.705   3.579   0.399
 2423SOL     OW 7298   2.092   2.490   1.975
 2423SOL    HW1 7299   1.999   2.488   2.012
 2423SOL    HW2 7300   2.093   2.451   1.883
 2424SOL     OW 7301   2.087   2.137   2.858
 2424SOL    HW1 7302   2.122   2.120   2.950
 2424SOL    HW2 7303   1.999   2.092   2.846
 2425SOL     OW 7304   1.881   2.230   2.509
 2425SOL    HW1 7305   1.799   2.273   2.548
 2425SOL    HW2 7306   1.853   2.157   2.446
 2426SOL     OW 7307   2.431   3.137   3.027
 2426SOL    HW1 7308   2.338   3.130   2.990
 2426SOL    HW2 7309   2.442   3.226   3.071
 2427SOL     OW 7310   3.417   3.373   2.565
 2427SOL    HW1 7311   3.360   3.357   2.646
 2427SOL    HW2 7312   3.358   3.383   2.485
 2428SOL     OW 7313   3.617   2.469   2.093
 2428SOL    HW1 7314   3.605   2.456   1.994
 2428SOL    HW2 7315   3.587   2.388   2.142
 2429SOL     OW 7316   2.630   3.006   2.885
 2429SOL    HW1 7317   2.552   3.023   2.945
 2429SOL    HW2 7318   2.664   3.093   2.849
 2430SOL     OW 7319   2.712   2.660   3.685
 2430SOL    HW1 7320   2.708   2.736   3.750
 2430SOL    HW2 7321   2.734   2.696   3.594
 2431SOL     OW 7322   2.548   3.023   3.665
 2431SOL    HW1 7323   2.608   3.102   3.679
 2431SOL    HW2 7324   2.462   3.054   3.624
 2432SOL     OW 7325   2.197   3.297   2.923
 2432SOL    HW1 7326   2.119   3.266   2.870
 2432SOL    HW2 7327   2.255   3.355   2.866
 2433SOL     OW 7328   3.322   3.367   3.201
 2433SOL    HW1 7329   3.346   3.461   3.227
 2433SOL    HW2 7330   3.306   3.313   3.283
 2434SOL     OW 7331   2.300   2.254   3.361
 2434SOL    HW1 7332   2.382   2.198   3.370
 2434SOL    HW2 7333   2.219   2.196   3.365
 2435SOL     OW 7334   3.465   2.309   2.599
 2435SOL    HW1 7335   3.391   2.355   2.549
 2435SOL    HW2 7336   3.516   2.377   2.652
 2436SOL     OW 7337   2.093   3.575   2.345
 2436SOL    HW1 7338   2.127   3.652   2.399
 2436SOL    HW2 7339   2.137   3.575   2.255
 2437SOL     OW 7340   2.989   3.203   3.552
 2437SOL    HW1 7341   3.036   3.203   3.640
 2437SOL    HW2 7342   2.941   3.116   3.541
 2438SOL     OW 7343   2.092   3.296   2.400
 2438SOL    HW1 7344   2.066   3.392   2.400
 2438SOL    HW2 7345   2.021   3.242   2.445
 2439SOL     OW 7346   2.102   2.953   2.748
 2439SOL    HW1 7347   2.116   2.869   2.800
 2439SOL    HW2 7348   2.047   3.017   2.803
 2440SOL     OW 7349   2.482   3.648   3.301
 2440SOL    HW1 7350   2.390   3.631   3.336
 2440SOL    HW2 7351   2.510   3.740   3.327
 2441SOL     OW 7352   2.468   2.826   1.985
 2441SOL    HW1 7353   2.475   2.910   1.931
 2441SOL    HW2 7354   2.514   2.839   2.073
 2442SOL     OW 7355   3.456   1.976   3.342
 2442SOL    HW1 7356   3.438   2.043   3.270
 2442SOL    HW2 7357   3.453   2.022   3.431
 2443SOL     OW 7358   1.984   2.505   2.425
 2443SOL    HW1 7359   1.939   2.417   2.442
 2443SOL    HW2 7360   1.983   2.559   2.509
 2444SOL     OW 7361   3.704   3.629   2.221
 2444SOL    HW1 7362   3.758   3.600   2.301
 2444SOL    HW2 7363   3.734   3.719   2.192
 2445SOL     OW 7364   1.889   3.458   1.979
 2445SOL    HW1 7365   1.870   3.362   2.000
 2445SOL    HW2 7366   1.856   3.516   2.054
 2446SOL     OW 7367   3.551   2.784   2.474
 2446SOL    HW1 7368   3.646   2.755   2.482
 2446SOL    HW2 7369   3.543   2.849   2.399
 2447SOL     OW 7370   3.503   2.970   2.294
 2447SOL    HW1 7371   3.589   2.972   2.242
 2447SOL    HW2 7372   3.517   3.017   2.382
 2448SOL     OW 7373   1.975   2.599   3.459
 2448SOL    HW1 7374   2.063   2.586   3.504
 2448SOL    HW2 7375   1.962   2.696   3.437
 2449SOL     OW 7376   2.475   3.227   2.588
 2449SOL    HW1 7377   2.426   3.140   2.597
 2449SOL    HW2 7378   2.452   3.270   2.501
 2450SOL     OW 7379   3.155   3.090   3.285
 2450SOL    HW1 7380   3.192   3.017   3.227
 2450SOL    HW2 7381   3.207   3.095   3.370
 2451SOL     OW 7382   2.671   1.866   2.364
 2451SOL    HW1 7383   2.711   1.957   2.355
 2451SOL    HW2 7384   2.571   1.874   2.370
 2452SOL     OW 7385   3.387   2.861   2.052
 2452SOL    HW1 7386   3.324   2.785   2.065
 2452SOL    HW2 7387   3.435   2.879   2.138
 2453SOL     OW 7388   3.049   3.654   3.478
 2453SOL    HW1 7389   3.073   3.714   3.402
 2453SOL    HW2 7390   3.056   3.559   3.448
 2454SOL     OW 7391   2.179   2.113   3.663
 2454SOL    HW1 7392   2.250   2.184   3.669
 2454SOL    HW2 7393   2.091   2.152   3.691
 2455SOL     OW 7394   3.328   3.279   2.815
 2455SOL    HW1 7395   3.269   3.285   2.895
 2455SOL    HW2 7396   3.313   3.191   2.769
 2456SOL     OW 7397   3.529   3.576   2.434
 2456SOL    HW1 7398   3.488   3.553   2.346
 2456SOL    HW2 7399   3.511   3.502   2.499
 2457SOL     OW 7400   2.460   2.591   2.132
 2457SOL    HW1 7401   2.484   2.660   2.064
 2457SOL    HW2 7402   2.382   2.624   2.186
 2458SOL     OW 7403   3.143   2.207   2.806
 2458SOL    HW1 7404   3.057   2.157   2.793
 2458SOL    HW2 7405   3.205   2.153   2.862
 2459SOL     OW 7406   3.438   3.524   2.169
 2459SOL    HW1 7407   3.527   3.570   2.172
 2459SOL    HW2 7408   3.417   3.500   2.074
 2460SOL     OW 7409   2.669   2.467   3.327
 2460SOL    HW1 7410   2.622   2.464   3.416
 2460SOL    HW2 7411   2.618   2.412   3.261
 2461SOL     OW 7412   3.256   2.331   3.536
 2461SOL    HW1 7413   3.236   2.374   3.624
 2461SOL    HW2 7414   3.334   2.269   3.545
 2462SOL     OW 7415   2.835   2.752   3.434
 2462SOL    HW1 7416   2.881   2.668   3.405
 2462SOL    HW2 7417   2.779   2.786   3.359
 2463SOL     OW 7418   2.853   2.272   3.104
 2463SOL    HW1 7419   2.776   2.306   3.158
 2463SOL    HW2 7420   2.819   2.221   3.025
 2464SOL     OW 7421   1.992   3.683   3.433
 2464SOL    HW1 7422   1.982   3.668   3.532
 2464SOL    HW2 7423   1.906   3.719   3.397
 2465SOL     OW 7424   2.727   2.210   2.057
 2465SOL    HW1 7425   2.786   2.273   2.008
 2465SOL    HW2 7426   2.746   2.116   2.028
 2466SOL     OW 7427   3.581   2.447   3.693
 2466SOL    HW1 7428   3.555   2.536   3.657
 2466SOL    HW2 7429   3.579   2.379   3.620
 2467SOL     OW 7430   3.224   3.006   2.407
 2467SOL    HW1 7431   3.307   2.977   2.359
 2467SOL    HW2 7432   3.175   3.073   2.351
 2468SOL     OW 7433   2.412   2.058   2.747
 2468SOL    HW1 7434   2.407   2.053   2.847
 2468SOL    HW2 7435   2.414   2.154   2.718
 2469SOL     OW 7436   2.870   3.318   2.339
 2469SOL    HW1 7437   2.824   3.390   2.287
 2469SOL    HW2 7438   2.866   3.338   2.437
 2470SOL     OW 7439   2.213   3.663   2.715
 2470SOL    HW1 7440   2.263   3.577   2.721
 2470SOL    HW2 7441   2.278   3.740   2.712
 2471SOL     OW 7442   3.657   2.928   2.735
 2471SOL    HW1 7443   3.595   2.913   2.659
 2471SOL    HW2 7444   3.605   2.939   2.820
 2472SOL     OW 7445   3.089   3.412   3.368
 2472SOL    HW1 7446   3.095   3.335   3.432
 2472SOL    HW2 7447   3.037   3.386   3.288
 2473SOL     OW 7448   2.183   2.805   2.104
 2473SOL    HW1 7449   2.265   2.844   2.062
 2473SOL    HW2 7450   2.156   2.723   2.055
 2474SOL     OW 7451   3.320   2.597   2.590
 2474SOL    HW1 7452   3.315   2.532   2.665
 2474SOL    HW2 7453   3.400   2.656   2.603
 2475SOL     OW 7454   2.323   3.128   3.589
 2475SOL    HW1 7455   2.273   3.129   3.503
 2475SOL    HW2 7456   2.260   3.110   3.665
 2476SOL     OW 7457   2.973   3.638   2.099
 2476SOL    HW1 7458   2.913   3.576   2.149
 2476SOL    HW2 7459   3.004   3.594   2.014
 2477SOL     OW 7460   2.064   2.147   3.360
 2477SOL    HW1 7461   1.984   2.207   3.347
 2477SOL    HW2 7462   2.054   2.098   3.446
 2478SOL     OW 7463   3.494   3.239   1.943
 2478SOL    HW1 7464   3.462   3.333   1.933
 2478SOL    HW2 7465   3.418   3.176   1.931
 2479SOL     OW 7466   2.326   3.605   2.185
 2479SOL    HW1 7467   2.359   3.644   2.271
 2479SOL    HW2 7468   2.402   3.598   2.120
 2480SOL     OW 7469   3.262   1.969   2.288
 2480SOL    HW1 7470   3.238   1.932   2.198
 2480SOL    HW2 7471   3.361   1.985   2.292
 2481SOL     OW 7472   2.111   3.647   3.103
 2481SOL    HW1 7473   2.168   3.582   3.153
 2481SOL    HW2 7474   2.095   3.614   3.010
 2482SOL     OW 7475   2.802   3.560   2.766
 2482SOL    HW1 7476   2.882   3.503   2.787
 2482SOL    HW2 7477   2.753   3.520   2.689
 2483SOL     OW 7478   2.244   2.562   2.342
 2483SOL    HW1 7479   2.289   2.472   2.339
 2483SOL    HW2 7480   2.150   2.551   2.375
 2484SOL     OW 7481   3.409   2.084   3.591
 2484SOL    HW1 7482   3.404   2.121   3.683
 2484SOL    HW2 7483   3.337   2.015   3.579
 2485SOL     OW 7484   2.476   1.984   1.979
 2485SOL    HW1 7485   2.574   1.962   1.986
 2485SOL    HW2 7486   2.445   1.967   1.886
 2486SOL     OW 7487   2.643   2.126   3.611
 2486SOL    HW1 7488   2.710   2.065   3.654
 2486SOL    HW2 7489   2.570   2.145   3.676
 2487SOL     OW 7490   2.750   3.376   3.057
 2487SOL    HW1 7491   2.727   3.351   2.963
 2487SOL    HW2 7492   2.811   3.307   3.096
 2488SOL     OW 7493   3.213   2.452   3.295
 2488SOL    HW1 7494   3.241   2.409   3.380
 2488SOL    HW2 7495   3.238   2.548   3.296
 2489SOL     OW 7496   2.665   3.264   2.786
 2489SOL    HW1 7497   2.755   3.278   2.744
 2489SOL    HW2 7498   2.594   3.266   2.715
 2490SOL     OW 7499   2.401   1.926   2.374
 2490SOL    HW1 7500   2.320   1.927   2.432
 2490SOL    HW2 7501   2.404   2.009   2.319
 2491SOL     OW 7502   3.296   3.050   1.903
 2491SOL    HW1 7503   3.328   2.974   1.960
 2491SOL    HW2 7504   3.204   3.077   1.933
 2492SOL     OW 7505   2.159   1.897   2.033
 2492SOL    HW1 7506   2.208   1.981   2.012
 2492SOL    HW2 7507   2.221   1.832   2.078
 2493SOL     OW 7508   2.797   2.098   2.342
 2493SOL    HW1 7509   2.749   2.139   2.264
 2493SOL    HW2 7510   2.896   2.096   2.323
 2494SOL     OW 7511   2.938   2.545   3.326
 2494SOL    HW1 7512   2.858   2.484   3.329
 2494SOL    HW2 7513   3.019   2.492   3.302
 2495SOL     OW 7514   3.089   3.432   2.655
 2495SOL    HW1 7515   3.110   3.506   2.590
 2495SOL    HW2 7516   3.157   3.432   2.728
 2496SOL     OW 7517   2.321   3.014   2.603
 2496SOL    HW1 7518   2.250   2.987   2.668
 2496SOL    HW2 7519   2.295   2.986   2.510
 2497SOL     OW 7520   3.133   3.659   2.453
 2497SOL    HW1 7521   3.177   3.723   2.389
 2497SOL    HW2 7522   3.083   3.711   2.523
 2498SOL     OW 7523   2.894   2.411   1.878
 2498SOL    HW1 7524   2.853   2.493   1.839
 2498SOL    HW2 7525   2.958   2.437   1.951
 2499SOL     OW 7526   1.940   2.418   3.248
 2499SOL    HW1 7527   2.032   2.417   3.207
 2499SOL    HW2 7528   1.934   2.492   3.315
 2500SOL     OW 7529   2.423   2.084   3.009
 2500SOL    HW1 7530   2.461   2.000   3.046
 2500SOL    HW2 7531   2.335   2.103   3.053
 2501SOL     OW 7532   2.879   1.901   2.615
 2501SOL    HW1 7533   2.807   1.906   2.546
 2501SOL    HW2 7534   2.855   1.832   2.684
 2502SOL     OW 7535   3.291   3.035   2.729
 2502SOL    HW1 7536   3.236   2.951   2.722
 2502SOL    HW2 7537   3.317   3.064   2.637
 2503SOL     OW 7538   3.328   2.452   2.854
 2503SOL    HW1 7539   3.298   2.357   2.861
 2503SOL    HW2 7540   3.401   2.468   2.920
 2504SOL     OW 7541   3.719   2.695   2.239
 2504SOL    HW1 7542   3.761   2.631   2.303
 2504SOL    HW2 7543   3.681   2.644   2.161
 2505SOL     OW 7544   2.350   3.247   2.036
 2505SOL    HW1 7545   2.263   3.232   2.083
 2505SOL    HW2 7546   2.333   3.273   1.941
 2506SOL     OW 7547   3.526   3.142   2.519
 2506SOL    HW1 7548   3.625   3.150   2.533
 2506SOL    HW2 7549   3.481   3.226   2.550
 2507SOL     OW 7550   3.252   2.437   1.940
 2507SOL    HW1 7551   3.198   2.416   2.021
 2507SOL    HW2 7552   3.343   2.396   1.949
 2508SOL     OW 7553   2.389   2.118   2.190
 2508SOL    HW1 7554   2.416   2.059   2.115
 2508SOL    HW2 7555   2.389   2.213   2.159
 2509SOL     OW 7556   3.616   3.085   3.450
 2509SOL    HW1 7557   3.707   3.046   3.437
 2509SOL    HW2 7558   3.624   3.181   3.474
 2510SOL     OW 7559   2.926   3.209   3.202
 2510SOL    HW1 7560   2.846   3.186   3.257
 2510SOL    HW2 7561   3.009   3.183   3.251
 2511SOL     OW 7562   3.454   3.491   3.487
 2511SOL    HW1 7563   3.481   3.525   3.397
 2511SOL    HW2 7564   3.533   3.453   3.533
 2512SOL     OW 7565   2.973   3.057   2.962
 2512SOL    HW1 7566   2.933   3.101   3.043
 2512SOL    HW2 7567   2.932   3.094   2.879
 2513SOL     OW 7568   3.500   2.961   2.941
 2513SOL    HW1 7569   3.505   3.042   3.000
 2513SOL    HW2 7570   3.414   2.963   2.890
 2514SOL     OW 7571   2.777   1.951   3.264
 2514SOL    HW1 7572   2.802   1.931   3.169
 2514SOL    HW2 7573   2.849   2.007   3.306
 2515SOL     OW 7574   2.842   2.978   3.581
 2515SOL    HW1 7575   2.743   2.984   3.591
 2515SOL    HW2 7576   2.865   2.898   3.525
 2516SOL     OW 7577   2.567   2.912   2.230
 2516SOL    HW1 7578   2.553   2.919   2.329
 2516SOL    HW2 7579   2.651   2.861   2.212
 2517SOL     OW 7580   3.136   2.248   3.124
 2517SOL    HW1 7581   3.157   2.322   3.188
 2517SOL    HW2 7582   3.047   2.265   3.081
 2518SOL     OW 7583   1.926   3.426   3.193
 2518SOL    HW1 7584   1.880   3.508   3.159
 2518SOL    HW2 7585   2.024   3.445   3.202
 2519SOL     OW 7586   2.229   2.962   2.363
 2519SOL    HW1 7587   2.222   3.045   2.307
 2519SOL    HW2 7588   2.233   2.882   2.303
 2520SOL     OW 7589   2.428   2.399   2.727
 2520SOL    HW1 7590   2.440   2.465   2.653
 2520SOL    HW2 7591   2.474   2.433   2.810
 2521SOL     OW 7592   3.114   3.210   2.250
 2521SOL    HW1 7593   3.164   3.287   2.290
 2521SOL    HW2 7594   3.019   3.212   2.282
 2522SOL     OW 7595   3.134   3.307   3.004
 2522SOL    HW1 7596   3.181   3.320   3.091
 2522SOL    HW2 7597   3.068   3.233   3.013
 2523SOL     OW 7598   3.444   2.501   2.334
 2523SOL    HW1 7599   3.413   2.562   2.407
 2523SOL    HW2 7600   3.494   2.553   2.265
 2524SOL     OW 7601   2.216   3.372   3.191
 2524SOL    HW1 7602   2.195   3.328   3.104
 2524SOL    HW2 7603   2.313   3.398   3.194
 2525SOL     OW 7604   2.264   2.613   3.460
 2525SOL    HW1 7605   2.332   2.668   3.413
 2525SOL    HW2 7606   2.304   2.525   3.487
 2526SOL     OW 7607   3.449   2.641   3.532
 2526SOL    HW1 7608   3.357   2.679   3.527
 2526SOL    HW2 7609   3.509   2.688   3.467
 2527SOL     OW 7610   2.875   1.967   3.632
 2527SOL    HW1 7611   2.881   2.052   3.580
 2527SOL    HW2 7612   2.907   1.891   3.575
 2528SOL     OW 7613   2.366   1.912   3.602
 2528SOL    HW1 7614   2.324   1.855   3.532
 2528SOL    HW2 7615   2.300   1.981   3.634
 2529SOL     OW 7616   3.222   2.724   2.907
 2529SOL    HW1 7617   3.147   2.724   2.841
 2529SOL    HW2 7618   3.259   2.632   2.916
 2530SOL     OW 7619   3.071   2.387   2.137
 2530SOL    HW1 7620   3.084   2.303   2.191
 2530SOL    HW2 7621   3.042   2.461   2.197
 2531SOL     OW 7622   2.169   2.075   3.093
 2531SOL    HW1 7623   2.146   2.112   3.183
 2531SOL    HW2 7624   2.139   1.980   3.087
 2532SOL     OW 7625   1.899   3.172   3.144
 2532SOL    HW1 7626   1.952   3.123   3.212
 2532SOL    HW2 7627   1.921   3.270   3.149
 2533SOL     OW 7628   2.594   2.496   2.926
 2533SOL    HW1 7629   2.653   2.470   2.850
 2533SOL    HW2 7630   2.566   2.592   2.915
 2534SOL     OW 7631   3.590   2.797   3.716
 2534SOL    HW1 7632   3.544   2.790   3.627
 2534SOL    HW2 7633   3.528   2.841   3.782
 2535SOL     OW 7634   2.169   1.925   2.480
 2535SOL    HW1 7635   2.158   2.019   2.513
 2535SOL    HW2 7636   2.164   1.862   2.557
 2536SOL     OW 7637   3.484   2.229   2.236
 2536SOL    HW1 7638   3.486   2.153   2.300
 2536SOL    HW2 7639   3.436   2.306   2.276
 2537SOL     OW 7640   2.885   2.628   2.828
 2537SOL    HW1 7641   2.900   2.649   2.924
 2537SOL    HW2 7642   2.855   2.533   2.819
 2538SOL     OW 7643   2.842   3.435   3.562
 2538SOL    HW1 7644   2.822   3.479   3.474
 2538SOL    HW2 7645   2.881   3.344   3.546
 2539SOL     OW 7646   3.721   3.380   3.467
 2539SOL    HW1 7647   3.735   3.407   3.372
 2539SOL    HW2 7648   3.804   3.402   3.520
 2540SOL     OW 7649   2.212   2.760   3.666
 2540SOL    HW1 7650   2.288   2.804   3.714
 2540SOL    HW2 7651   2.247   2.713   3.584
 2541SOL     OW 7652   3.402   2.136   1.987
 2541SOL    HW1 7653   3.341   2.061   2.010
 2541SOL    HW2 7654   3.424   2.188   2.070
 2542SOL     OW 7655   3.165   2.700   1.904
 2542SOL    HW1 7656   3.199   2.607   1.919
 2542SOL    HW2 7657   3.183   2.727   1.809
 2543SOL     OW 7658   2.930   3.195   2.711
 2543SOL    HW1 7659   2.937   3.111   2.656
 2543SOL    HW2 7660   2.992   3.264   2.675
 2544SOL     OW 7661   2.201   2.371   2.868
 2544SOL    HW1 7662   2.149   2.288   2.851
 2544SOL    HW2 7663   2.278   2.376   2.804
 2545SOL     OW 7664   3.000   2.242   3.540
 2545SOL    HW1 7665   2.955   2.305   3.604
 2545SOL    HW2 7666   3.093   2.273   3.523
 2546SOL     OW 7667   3.022   2.069   3.339
 2546SOL    HW1 7668   3.022   2.133   3.416
 2546SOL    HW2 7669   3.050   2.117   3.256
 2547SOL     OW 7670   1.870   3.188   2.062
 2547SOL    HW1 7671   1.777   3.209   2.031
 2547SOL    HW2 7672   1.880   3.089   2.075
 2548SOL     OW 7673   1.950   3.663   2.789
 2548SOL    HW1 7674   1.908   3.577   2.762
 2548SOL    HW2 7675   2.044   3.666   2.755
 2549SOL     OW 7676   2.366   3.430   2.772
 2549SOL    HW1 7677   2.432   3.504   2.781
 2549SOL    HW2 7678   2.410   3.351   2.730
 2550SOL     OW 7679   2.864   2.658   3.100
 2550SOL    HW1 7680   2.905   2.626   3.186
 2550SOL    HW2 7681   2.768   2.631   3.097
 2551SOL     OW 7682   1.902   2.406   2.976
 2551SOL    HW1 7683   1.987   2.373   2.935
 2551SOL    HW2 7684   1.915   2.421   3.074
 2552SOL     OW 7685   2.051   2.382   3.584
 2552SOL    HW1 7686   2.110   2.342   3.514
 2552SOL    HW2 7687   1.993   2.453   3.543
 2553SOL     OW 7688   3.231   2.812   3.522
 2553SOL    HW1 7689   3.270   2.901   3.542
 2553SOL    HW2 7690   3.241   2.792   3.425
 2554SOL     OW 7691   3.519   2.466   3.068
 2554SOL    HW1 7692   3.481   2.397   3.130
 2554SOL    HW2 7693   3.601   2.430   3.024
 2555SOL     OW 7694   2.114   3.426   3.606
 2555SOL    HW1 7695   2.084   3.483   3.682
 2555SOL    HW2 7696   2.107   3.329   3.632
 2556SOL     OW 7697   2.533   2.326   3.131
 2556SOL    HW1 7698   2.499   2.237   3.101
 2556SOL    HW2 7699   2.559   2.380   3.051
 2557SOL     OW 7700   2.792   3.540   3.327
 2557SOL    HW1 7701   2.768   3.522   3.232
 2557SOL    HW2 7702   2.822   3.634   3.337
 2558SOL     OW 7703   2.335   2.362   2.053
 2558SOL    HW1 7704   2.396   2.442   2.057
 2558SOL    HW2 7705   2.240   2.393   2.060
 2559SOL     OW 7706   2.021   2.999   3.328
 2559SOL    HW1 7707   2.043   2.938   3.404
 2559SOL    HW2 7708   2.031   2.950   3.242
 2560SOL     OW 7709   3.209   2.921   3.096
 2560SOL    HW1 7710   3.233   2.858   3.022
 2560SOL    HW2 7711   3.119   2.961   3.078
 2561SOL     OW 7712   3.164   2.717   2.171
 2561SOL    HW1 7713   3.078   2.686   2.213
 2561SOL    HW2 7714   3.160   2.703   2.072
 2562SOL     OW 7715   3.621   3.609   3.016
 2562SOL    HW1 7716   3.682   3.639   2.943
 2562SOL    HW2 7717   3.583   3.520   2.994
 2563SOL     OW 7718   3.114   3.593   2.990
 2563SOL    HW1 7719   3.198   3.598   2.936
 2563SOL    HW2 7720   3.091   3.497   3.008
 2564SOL     OW 7721   1.945   3.120   2.884
 2564SOL    HW1 7722   1.940   3.119   2.984
 2564SOL    HW2 7723   1.862   3.079   2.846
 2565SOL     OW 7724   2.550   3.524   3.578
 2565SOL    HW1 7725   2.494   3.605   3.587
 2565SOL    HW2 7726   2.602   3.528   3.492
 2566SOL     OW 7727   3.588   1.997   2.385
 2566SOL    HW1 7728   3.661   1.980   2.318
 2566SOL    HW2 7729   3.557   1.910   2.423
 2567SOL     OW 7730   3.250   3.435   2.339
 2567SOL    HW1 7731   3.317   3.447   2.265
 2567SOL    HW2 7732   3.210   3.524   2.362
 2568SOL     OW 7733   1.992   3.656   3.713
 2568SOL    HW1 7734   1.951   3.582   3.766
 2568SOL    HW2 7735   2.056   3.707   3.771
 2569SOL     OW 7736   3.142   2.789   2.534
 2569SOL    HW1 7737   3.202   2.708   2.536
 2569SOL    HW2 7738   3.182   2.858   2.474
 2570SOL     OW 7739   2.692   3.135   3.284
 2570SOL    HW1 7740   2.687   3.168   3.379
 2570SOL    HW2 7741   2.606   3.154   3.238
 2571SOL     OW 7742   2.534   3.478   2.016
 2571SOL    HW1 7743   2.543   3.488   1.917
 2571SOL    HW2 7744   2.494   3.389   2.037
 2572SOL     OW 7745   3.512   3.582   3.256
 2572SOL    HW1 7746   3.565   3.592   3.172
 2572SOL    HW2 7747   3.485   3.672   3.290
 2573SOL     OW 7748   3.703   2.037   2.825
 2573SOL    HW1 7749   3.742   1.952   2.789
 2573SOL    HW2 7750   3.605   2.039   2.806
 2574SOL     OW 7751   2.125   2.188   2.582
 2574SOL    HW1 7752   2.046   2.239   2.548
 2574SOL    HW2 7753   2.116   2.173   2.680
 2575SOL     OW 7754   3.056   3.474   1.893
 2575SOL    HW1 7755   3.062   3.381   1.930
 2575SOL    HW2 7756   2.997   3.474   1.813
 2576SOL     OW 7757   2.684   2.864   3.234
 2576SOL    HW1 7758   2.724   2.863   3.142
 2576SOL    HW2 7759   2.694   2.956   3.274
 2577SOL     OW 7760   3.366   3.469   1.906
 2577SOL    HW1 7761   3.274   3.506   1.913
 2577SOL    HW2 7762   3.404   3.489   1.816
 2578SOL     OW 7763   2.234   3.150   3.352
 2578SOL    HW1 7764   2.221   3.243   3.318
 2578SOL    HW2 7765   2.150   3.098   3.339
 2579SOL     OW 7766   3.476   3.154   3.151
 2579SOL    HW1 7767   3.536   3.157   3.231
 2579SOL    HW2 7768   3.401   3.218   3.164
 2580SOL     OW 7769   2.901   2.960   2.558
 2580SOL    HW1 7770   2.831   2.913   2.612
 2580SOL    HW2 7771   2.960   2.892   2.515
 2581SOL     OW 7772   2.452   3.349   2.353
 2581SOL    HW1 7773   2.494   3.291   2.283
 2581SOL    HW2 7774   2.408   3.428   2.309
 2582SOL     OW 7775   3.571   2.247   3.243
 2582SOL    HW1 7776   3.644   2.316   3.247
 2582SOL    HW2 7777   3.599   2.172   3.184
 2583SOL     OW 7778   2.117   3.210   2.152
 2583SOL    HW1 7779   2.021   3.211   2.125
 2583SOL    HW2 7780   2.129   3.263   2.236
 2584SOL     OW 7781   1.967   2.875   3.588
 2584SOL    HW1 7782   1.890   2.842   3.642
 2584SOL    HW2 7783   2.052   2.845   3.630
 2585SOL     OW 7784   2.534   2.065   3.351
 2585SOL    HW1 7785   2.624   2.049   3.311
 2585SOL    HW2 7786   2.542   2.070   3.450
 2586SOL     OW 7787   1.937   2.207   1.895
 2586SOL    HW1 7788   1.845   2.179   1.866
 2586SOL    HW2 7789   1.968   2.284   1.839
 2587SOL     OW 7790   3.302   2.718   3.260
 2587SOL    HW1 7791   3.245   2.770   3.197
 2587SOL    HW2 7792   3.398   2.730   3.236
 2588SOL     OW 7793   1.934   2.028   2.180
 2588SOL    HW1 7794   1.917   2.111   2.126
 2588SOL    HW2 7795   2.024   1.991   2.158
 2589SOL     OW 7796   3.045   3.197   1.981
 2589SOL    HW1 7797   2.946   3.186   1.983
 2589SOL    HW2 7798   3.079   3.212   2.074
 2590SOL     OW 7799   2.475   2.704   3.293
 2590SOL    HW1 7800   2.531   2.785   3.276
 2590SOL    HW2 7801   2.534   2.624   3.296
 2591SOL     OW 7802   3.355   3.629   2.821
 2591SOL    HW1 7803   3.388   3.693   2.752
 2591SOL    HW2 7804   3.421   3.623   2.896
 2592SOL     OW 7805   2.578   2.427   3.570
 2592SOL    HW1 7806   2.597   2.492   3.644
 2592SOL    HW2 7807   2.638   2.347   3.579
 2593SOL     OW 7808   3.312   3.082   3.495
 2593SOL    HW1 7809   3.303   3.072   3.594
 2593SOL    HW2 7810   3.408   3.075   3.469
 2594SOL     OW 7811   2.252   3.603   3.422
 2594SOL    HW1 7812   2.161   3.644   3.420
 2594SOL    HW2 7813   2.245   3.509   3.454
 2595SOL     OW 7814   3.536   2.745   3.116
 2595SOL    HW1 7815   3.509   2.656   3.079
 2595SOL    HW2 7816   3.537   2.813   3.043
 2596SOL     OW 7817   3.087   2.187   2.311
 2596SOL    HW1 7818   3.152   2.113   2.300
 2596SOL    HW2 7819   3.107   2.237   2.395
 2597SOL     OW 7820   3.639   2.204   3.504
 2597SOL    HW1 7821   3.622   2.235   3.410
 2597SOL    HW2 7822   3.555   2.167   3.542
 2598SOL     OW 7823   3.592   2.796   3.379
 2598SOL    HW1 7824   3.630   2.887   3.394
 2598SOL    HW2 7825   3.584   2.779   3.280
 2599SOL     OW 7826   2.721   3.236   1.878
 2599SOL    HW1 7827   2.675   3.251   1.966
 2599SOL    HW2 7828   2.765   3.321   1.848
 2600SOL     OW 7829   2.523   3.652   2.815
 2600SOL    HW1 7830   2.477   3.740   2.802
 2600SOL    HW2 7831   2.622   3.664   2.808
 2601SOL     OW 7832   2.945   2.846   1.949
 2601SOL    HW1 7833   2.922   2.899   1.867
 2601SOL    HW2 7834   3.026   2.790   1.930
 2602SOL     OW 7835   3.723   3.431   2.713
 2602SOL    HW1 7836   3.652   3.419   2.643
 2602SOL    HW2 7837   3.724   3.352   2.773
 2603SOL     OW 7838   2.083   3.176   3.706
 2603SOL    HW1 7839   2.018   3.103   3.685
 2603SOL    HW2 7840   2.087   3.190   3.804
 2604SOL     OW 7841   1.941   3.102   2.515
 2604SOL    HW1 7842   1.940   3.055   2.603
 2604SOL    HW2 7843   2.023   3.074   2.464
 2605SOL     OW 7844   2.534   3.253   3.486
 2605SOL    HW1 7845   2.456   3.203   3.524
 2605SOL    HW2 7846   2.531   3.348   3.517
 2606SOL     OW 7847   3.686   2.054   3.089
 2606SOL    HW1 7848   3.682   1.964   3.133
 2606SOL    HW2 7849   3.689   2.043   2.990
 2607SOL     OW 7850   2.290   2.286   2.382
 2607SOL    HW1 7851   2.320   2.214   2.320
 2607SOL    HW2 7852   2.251   2.246   2.465
 2608SOL     OW 7853   3.567   3.349   2.966
 2608SOL    HW1 7854   3.474   3.324   2.939
 2608SOL    HW2 7855   3.593   3.299   3.048
 2609SOL     OW 7856   2.179   2.409   3.142
 2609SOL    HW1 7857   2.217   2.350   3.214
 2609SOL    HW2 7858   2.219   2.383   3.054
 2610SOL     OW 7859   2.674   3.448   2.549
 2610SOL    HW1 7860   2.706   3.458   2.455
 2610SOL    HW2 7861   2.595   3.386   2.551
 2611SOL     OW 7862   3.286   2.076   2.974
 2611SOL    HW1 7863   3.338   2.011   3.029
 2611SOL    HW2 7864   3.237   2.139   3.035
 2612SOL     OW 7865   2.863   1.896   3.016
 2612SOL    HW1 7866   2.800   1.824   2.985
 2612SOL    HW2 7867   2.956   1.860   3.016
 2613SOL     OW 7868   2.632   3.192   2.163
 2613SOL    HW1 7869   2.586   3.105   2.180
 2613SOL    HW2 7870   2.723   3.189   2.204
 2614SOL     OW 7871   2.480   3.429   3.146
 2614SOL    HW1 7872   2.475   3.511   3.203
 2614SOL    HW2 7873   2.569   3.426   3.101
 2615SOL     OW 7874   3.214   1.914   2.030
 2615SOL    HW1 7875   3.249   1.873   1.946
 2615SOL    HW2 7876   3.124   1.876   2.050
 2616SOL     OW 7877   3.162   2.315   2.553
 2616SOL    HW1 7878   3.103   2.395   2.557
 2616SOL    HW2 7879   3.177   2.280   2.646
 2617SOL     OW 7880   3.455   2.083   2.744
 2617SOL    HW1 7881   3.371   2.082   2.798
 2617SOL    HW2 7882   3.457   2.166   2.688
 2618SOL     OW 7883   1.901   2.939   2.162
 2618SOL    HW1 7884   2.000   2.928   2.153
 2618SOL    HW2 7885   1.861   2.853   2.194
 2619SOL     OW 7886   2.737   3.508   2.199
 2619SOL    HW1 7887   2.660   3.473   2.145
 2619SOL    HW2 7888   2.705   3.579   2.261
 2620SOL     OW 7889   2.092   2.490   3.837
 2620SOL    HW1 7890   1.999   2.488   3.874
 2620SOL    HW2 7891   2.093   2.451   3.745
 2621SOL     OW 7892   2.087   2.137   4.720
 2621SOL    HW1 7893   2.122   2.120   4.812
 2621SOL    HW2 7894   1.999   2.092   4.708
 2622SOL     OW 7895   1.881   2.230   4.371
 2622SOL    HW1 7896   1.799   2.273   4.410
 2622SOL    HW2 7897   1.853   2.157   4.308
 2623SOL     OW 7898   2.431   3.137   4.889
 2623SOL    HW1 7899   2.338   3.130   4.852
 2623SOL    HW2 7900   2.442   3.226   4.933
 2624SOL     OW 7901   3.417   3.373   4.427
 2624SOL    HW1 7902   3.360   3.357   4.508
 2624SOL    HW2 7903   3.358   3.383   4.347
 2625SOL     OW 7904   2.997   2.565   4.441
 2625SOL    HW1 7905   3.054   2.643   4.416
 2625SOL    HW2 7906   2.937   2.591   4.517
 2626SOL     OW 7907   3.617   2.469   3.955
 2626SOL    HW1 7908   3.605   2.456   3.856
 2626SOL    HW2 7909   3.587   2.388   4.004
 2627SOL     OW 7910   2.630   3.006   4.747
 2627SOL    HW1 7911   2.552   3.023   4.807
 2627SOL    HW2 7912   2.664   3.093   4.711
 2628SOL     OW 7913   2.547   2.874   4.389
 2628SOL    HW1 7914   2.616   2.858   4.459
 2628SOL    HW2 7915   2.474   2.931   4.427
 2629SOL     OW 7916   2.197   3.297   4.785
 2629SOL    HW1 7917   2.119   3.266   4.732
 2629SOL    HW2 7918   2.255   3.355   4.728
 2630SOL     OW 7919   2.300   2.254   5.223
 2630SOL    HW1 7920   2.382   2.198   5.232
 2630SOL    HW2 7921   2.219   2.196   5.227
 2631SOL     OW 7922   3.465   2.309   4.461
 2631SOL    HW1 7923   3.391   2.355   4.411
 2631SOL    HW2 7924   3.516   2.377   4.514
 2632SOL     OW 7925   2.093   3.575   4.207
 2632SOL    HW1 7926   2.127   3.652   4.261
 2632SOL    HW2 7927   2.137   3.575   4.117
 2633SOL     OW 7928   2.092   3.296   4.262
 2633SOL    HW1 7929   2.066   3.392   4.262
 2633SOL    HW2 7930   2.021   3.242   4.307
 2634SOL     OW 7931   2.102   2.953   4.610
 2634SOL    HW1 7932   2.116   2.869   4.662
 2634SOL    HW2 7933   2.047   3.017   4.665
 2635SOL     OW 7934   2.482   3.648   5.163
 2635SOL    HW1 7935   2.390   3.631   5.198
 2635SOL    HW2 7936   2.510   3.740   5.189
 2636SOL     OW 7937   2.468   2.826   3.847
 2636SOL    HW1 7938   2.475   2.910   3.793
 2636SOL    HW2 7939   2.514   2.839   3.935
 2637SOL     OW 7940   1.984   2.505   4.287
 2637SOL    HW1 7941   1.939   2.417   4.304
 2637SOL    HW2 7942   1.983   2.559   4.371
 2638SOL     OW 7943   3.704   3.629   4.083
 2638SOL    HW1 7944   3.758   3.600   4.163
 2638SOL    HW2 7945   3.734   3.719   4.054
 2639SOL     OW 7946   1.889   3.458   3.841
 2639SOL    HW1 7947   1.870   3.362   3.862
 2639SOL    HW2 7948   1.856   3.516   3.916
 2640SOL     OW 7949   3.551   2.784   4.336
 2640SOL    HW1 7950   3.646   2.755   4.344
 2640SOL    HW2 7951   3.543   2.849   4.261
 2641SOL     OW 7952   3.503   2.970   4.156
 2641SOL    HW1 7953   3.589   2.972   4.104
 2641SOL    HW2 7954   3.517   3.017   4.244
 2642SOL     OW 7955   2.475   3.227   4.450
 2642SOL    HW1 7956   2.426   3.140   4.459
 2642SOL    HW2 7957   2.452   3.270   4.363
 2643SOL     OW 7958   2.671   1.866   4.226
 2643SOL    HW1 7959   2.711   1.957   4.217
 2643SOL    HW2 7960   2.571   1.874   4.232
 2644SOL     OW 7961   2.059   2.838   4.988
 2644SOL    HW1 7962   2.148   2.793   4.974
 2644SOL    HW2 7963   1.986   2.773   4.969
 2645SOL     OW 7964   3.387   2.861   3.914
 2645SOL    HW1 7965   3.324   2.785   3.927
 2645SOL    HW2 7966   3.435   2.879   4.000
 2646SOL     OW 7967   3.328   3.279   4.677
 2646SOL    HW1 7968   3.269   3.285   4.757
 2646SOL    HW2 7969   3.313   3.191   4.631
 2647SOL     OW 7970   3.529   3.576   4.296
 2647SOL    HW1 7971   3.488   3.553   4.208
 2647SOL    HW2 7972   3.511   3.502   4.361
 2648SOL     OW 7973   2.460   2.591   3.994
 2648SOL    HW1 7974   2.484   2.660   3.926
 2648SOL    HW2 7975   2.382   2.624   4.048
 2649SOL     OW 7976   3.143   2.207   4.668
 2649SOL    HW1 7977   3.057   2.157   4.655
 2649SOL    HW2 7978   3.205   2.153   4.724
 2650SOL     OW 7979   3.438   3.524   4.031
 2650SOL    HW1 7980   3.527   3.570   4.034
 2650SOL    HW2 7981   3.417   3.500   3.936
 2651SOL     OW 7982   2.669   2.467   5.189
 2651SOL    HW1 7983   2.622   2.464   5.278
 2651SOL    HW2 7984   2.618   2.412   5.123
 2652SOL     OW 7985   2.853   2.272   4.966
 2652SOL    HW1 7986   2.776   2.306   5.020
 2652SOL    HW2 7987   2.819   2.221   4.887
 2653SOL     OW 7988   2.903   2.563   4.153
 2653SOL    HW1 7989   2.929   2.559   4.249
 2653SOL    HW2 7990   2.818   2.512   4.139
 2654SOL     OW 7991   1.938   2.673   4.513
 2654SOL    HW1 7992   2.037   2.661   4.522
 2654SOL    HW2 7993   1.914   2.768   4.534
 2655SOL     OW 7994   1.992   3.683   5.295
 2655SOL    HW1 7995   1.982   3.668   5.394
 2655SOL    HW2 7996   1.906   3.719   5.259
 2656SOL     OW 7997   2.727   2.210   3.919
 2656SOL    HW1 7998   2.786   2.273   3.870
 2656SOL    HW2 7999   2.746   2.116   3.890
 2657SOL     OW 8000   3.224   3.006   4.269
 2657SOL    HW1 8001   3.307   2.977   4.221
 2657SOL    HW2 8002   3.175   3.073   4.213
 2658SOL     OW 8003   2.412   2.058   4.609
 2658SOL    HW1 8004   2.407   2.053   4.709
 2658SOL    HW2 8005   2.414   2.154   4.580
 2659SOL     OW 8006   2.870   3.318   4.201
 2659SOL    HW1 8007   2.824   3.390   4.149
 2659SOL    HW2 8008   2.866   3.338   4.299
 2660SOL     OW 8009   2.213   3.663   4.577
 2660SOL    HW1 8010   2.263   3.577   4.583
 2660SOL    HW2 8011   2.278   3.740   4.574
 2661SOL     OW 8012   3.657   2.928   4.597
 2661SOL    HW1 8013   3.595   2.913   4.521
 2661SOL    HW2 8014   3.605   2.939   4.682
 2662SOL     OW 8015   2.183   2.805   3.966
 2662SOL    HW1 8016   2.265   2.844   3.924
 2662SOL    HW2 8017   2.156   2.723   3.917
 2663SOL     OW 8018   3.320   2.597   4.452
 2663SOL    HW1 8019   3.315   2.532   4.527
 2663SOL    HW2 8020   3.400   2.656   4.465
 2664SOL     OW 8021   2.973   3.638   3.961
 2664SOL    HW1 8022   2.913   3.576   4.011
 2664SOL    HW2 8023   3.004   3.594   3.876
 2665SOL     OW 8024   3.494   3.239   3.805
 2665SOL    HW1 8025   3.462   3.333   3.795
 2665SOL    HW2 8026   3.418   3.176   3.793
 2666SOL     OW 8027   2.326   3.605   4.047
 2666SOL    HW1 8028   2.359   3.644   4.133
 2666SOL    HW2 8029   2.402   3.598   3.982
 2667SOL     OW 8030   3.262   1.969   4.150
 2667SOL    HW1 8031   3.238   1.932   4.060
 2667SOL    HW2 8032   3.361   1.985   4.154
 2668SOL     OW 8033   2.111   3.647   4.965
 2668SOL    HW1 8034   2.168   3.582   5.015
 2668SOL    HW2 8035   2.095   3.614   4.872
 2669SOL     OW 8036   2.802   3.560   4.628
 2669SOL    HW1 8037   2.882   3.503   4.649
 2669SOL    HW2 8038   2.753   3.520   4.551
 2670SOL     OW 8039   2.244   2.562   4.204
 2670SOL    HW1 8040   2.289   2.472   4.201
 2670SOL    HW2 8041   2.150   2.551   4.237
 2671SOL     OW 8042   2.476   1.984   3.841
 2671SOL    HW1 8043   2.574   1.962   3.848
 2671SOL    HW2 8044   2.445   1.967   3.748
 2672SOL     OW 8045   2.750   3.376   4.919
 2672SOL    HW1 8046   2.727   3.351   4.825
 2672SOL    HW2 8047   2.811   3.307   4.958
 2673SOL     OW 8048   2.665   3.264   4.648
 2673SOL    HW1 8049   2.755   3.278   4.606
 2673SOL    HW2 8050   2.594   3.266   4.577
 2674SOL     OW 8051   2.784   2.365   4.623
 2674SOL    HW1 8052   2.759   2.356   4.527
 2674SOL    HW2 8053   2.832   2.283   4.654
 2675SOL     OW 8054   2.401   1.926   4.236
 2675SOL    HW1 8055   2.320   1.927   4.294
 2675SOL    HW2 8056   2.404   2.009   4.181
 2676SOL     OW 8057   3.296   3.050   3.765
 2676SOL    HW1 8058   3.328   2.974   3.822
 2676SOL    HW2 8059   3.204   3.077   3.795
 2677SOL     OW 8060   2.159   1.897   3.895
 2677SOL    HW1 8061   2.208   1.981   3.874
 2677SOL    HW2 8062   2.221   1.832   3.940
 2678SOL     OW 8063   2.797   2.098   4.204
 2678SOL    HW1 8064   2.749   2.139   4.126
 2678SOL    HW2 8065   2.896   2.096   4.185
 2679SOL     OW 8066   3.089   3.432   4.517
 2679SOL    HW1 8067   3.110   3.506   4.452
 2679SOL    HW2 8068   3.157   3.432   4.590
 2680SOL     OW 8069   2.321   3.014   4.465
 2680SOL    HW1 8070   2.250   2.987   4.530
 2680SOL    HW2 8071   2.295   2.986   4.372
 2681SOL     OW 8072   3.133   3.659   4.315
 2681SOL    HW1 8073   3.177   3.723   4.251
 2681SOL    HW2 8074   3.083   3.711   4.385
 2682SOL     OW 8075   2.894   2.411   3.740
 2682SOL    HW1 8076   2.853   2.493   3.701
 2682SOL    HW2 8077   2.958   2.437   3.813
 2683SOL     OW 8078   2.423   2.084   4.871
 2683SOL    HW1 8079   2.461   2.000   4.908
 2683SOL    HW2 8080   2.335   2.103   4.915
 2684SOL     OW 8081   2.728   2.316   4.366
 2684SOL    HW1 8082   2.696   2.388   4.304
 2684SOL    HW2 8083   2.752   2.235   4.313
 2685SOL     OW 8084   2.879   1.901   4.477
 2685SOL    HW1 8085   2.807   1.906   4.408
 2685SOL    HW2 8086   2.855   1.832   4.546
 2686SOL     OW 8087   3.291   3.035   4.591
 2686SOL    HW1 8088   3.236   2.951   4.584
 2686SOL    HW2 8089   3.317   3.064   4.499
 2687SOL     OW 8090   3.328   2.452   4.716
 2687SOL    HW1 8091   3.298   2.357   4.723
 2687SOL    HW2 8092   3.401   2.468   4.782
 2688SOL     OW 8093   3.719   2.695   4.101
 2688SOL    HW1 8094   3.761   2.631   4.165
 2688SOL    HW2 8095   3.681   2.644   4.023
 2689SOL     OW 8096   2.350   3.247   3.898
 2689SOL    HW1 8097   2.263   3.232   3.945
 2689SOL    HW2 8098   2.333   3.273   3.803
 2690SOL     OW 8099   3.526   3.142   4.381
 2690SOL    HW1 8100   3.625   3.150   4.395
 2690SOL    HW2 8101   3.481   3.226   4.412
 2691SOL     OW 8102   3.252   2.437   3.802
 2691SOL    HW1 8103   3.198   2.416   3.883
 2691SOL    HW2 8104   3.343   2.396   3.811
 2692SOL     OW 8105   2.389   2.118   4.052
 2692SOL    HW1 8106   2.416   2.059   3.977
 2692SOL    HW2 8107   2.389   2.213   4.021
 2693SOL     OW 8108   3.616   3.085   5.312
 2693SOL    HW1 8109   3.707   3.046   5.299
 2693SOL    HW2 8110   3.624   3.181   5.336
 2694SOL     OW 8111   2.973   3.057   4.824
 2694SOL    HW1 8112   2.933   3.101   4.905
 2694SOL    HW2 8113   2.932   3.094   4.741
 2695SOL     OW 8114   3.500   2.961   4.803
 2695SOL    HW1 8115   3.505   3.042   4.862
 2695SOL    HW2 8116   3.414   2.963   4.752
 2696SOL     OW 8117   2.567   2.912   4.092
 2696SOL    HW1 8118   2.553   2.919   4.191
 2696SOL    HW2 8119   2.651   2.861   4.074
 2697SOL     OW 8120   2.272   2.675   4.975
 2697SOL    HW1 8121   2.358   2.687   5.025
 2697SOL    HW2 8122   2.230   2.588   5.002
 2698SOL     OW 8123   3.136   2.248   4.986
 2698SOL    HW1 8124   3.157   2.322   5.050
 2698SOL    HW2 8125   3.047   2.265   4.943
 2699SOL     OW 8126   1.926   3.426   5.055
 2699SOL    HW1 8127   1.880   3.508   5.021
 2699SOL    HW2 8128   2.024   3.445   5.064
 2700SOL     OW 8129   2.229   2.962   4.225
 2700SOL    HW1 8130   2.222   3.045   4.169
 2700SOL    HW2 8131   2.233   2.882   4.165
 2701SOL     OW 8132   2.428   2.399   4.589
 2701SOL    HW1 8133   2.440   2.465   4.515
 2701SOL    HW2 8134   2.474   2.433   4.672
 2702SOL     OW 8135   3.114   3.210   4.112
 2702SOL    HW1 8136   3.164   3.287   4.152
 2702SOL    HW2 8137   3.019   3.212   4.144
 2703SOL     OW 8138   3.134   3.307   4.866
 2703SOL    HW1 8139   3.181   3.320   4.953
 2703SOL    HW2 8140   3.068   3.233   4.875
 2704SOL     OW 8141   3.444   2.501   4.196
 2704SOL    HW1 8142   3.413   2.562   4.269
 2704SOL    HW2 8143   3.494   2.553   4.127
 2705SOL     OW 8144   2.216   3.372   5.053
 2705SOL    HW1 8145   2.195   3.328   4.966
 2705SOL    HW2 8146   2.313   3.398   5.056
 2706SOL     OW 8147   2.435   2.732   4.753
 2706SOL    HW1 8148   2.479   2.821   4.744
 2706SOL    HW2 8149   2.372   2.732   4.830
 2707SOL     OW 8150   3.222   2.724   4.769
 2707SOL    HW1 8151   3.147   2.724   4.703
 2707SOL    HW2 8152   3.259   2.632   4.778
 2708SOL     OW 8153   3.071   2.387   3.999
 2708SOL    HW1 8154   3.084   2.303   4.053
 2708SOL    HW2 8155   3.042   2.461   4.059
 2709SOL     OW 8156   2.169   2.075   4.955
 2709SOL    HW1 8157   2.146   2.112   5.045
 2709SOL    HW2 8158   2.139   1.980   4.949
 2710SOL     OW 8159   1.899   3.172   5.006
 2710SOL    HW1 8160   1.952   3.123   5.074
 2710SOL    HW2 8161   1.921   3.270   5.011
 2711SOL     OW 8162   2.594   2.496   4.788
 2711SOL    HW1 8163   2.653   2.470   4.712
 2711SOL    HW2 8164   2.566   2.592   4.777
 2712SOL     OW 8165   2.169   1.925   4.342
 2712SOL    HW1 8166   2.158   2.019   4.375
 2712SOL    HW2 8167   2.164   1.862   4.419
 2713SOL     OW 8168   3.484   2.229   4.098
 2713SOL    HW1 8169   3.486   2.153   4.162
 2713SOL    HW2 8170   3.436   2.306   4.138
 2714SOL     OW 8171   2.885   2.628   4.690
 2714SOL    HW1 8172   2.900   2.649   4.786
 2714SOL    HW2 8173   2.855   2.533   4.681
 2715SOL     OW 8174   3.402   2.136   3.849
 2715SOL    HW1 8175   3.341   2.061   3.872
 2715SOL    HW2 8176   3.424   2.188   3.932
 2716SOL     OW 8177   3.165   2.700   3.766
 2716SOL    HW1 8178   3.199   2.607   3.781
 2716SOL    HW2 8179   3.183   2.727   3.671
 2717SOL     OW 8180   2.930   3.195   4.573
 2717SOL    HW1 8181   2.937   3.111   4.518
 2717SOL    HW2 8182   2.992   3.264   4.537
 2718SOL     OW 8183   2.181   2.672   4.673
 2718SOL    HW1 8184   2.274   2.708   4.678
 2718SOL    HW2 8185   2.175   2.587   4.725
 2719SOL     OW 8186   2.201   2.371   4.730
 2719SOL    HW1 8187   2.149   2.288   4.713
 2719SOL    HW2 8188   2.278   2.376   4.666
 2720SOL     OW 8189   3.022   2.069   5.201
 2720SOL    HW1 8190   3.022   2.133   5.278
 2720SOL    HW2 8191   3.050   2.117   5.118
 2721SOL     OW 8192   1.870   3.188   3.924
 2721SOL    HW1 8193   1.777   3.209   3.893
 2721SOL    HW2 8194   1.880   3.089   3.937
 2722SOL     OW 8195   1.950   3.663   4.651
 2722SOL    HW1 8196   1.908   3.577   4.624
 2722SOL    HW2 8197   2.044   3.666   4.617
 2723SOL     OW 8198   2.366   3.430   4.634
 2723SOL    HW1 8199   2.432   3.504   4.643
 2723SOL    HW2 8200   2.410   3.351   4.592
 2724SOL     OW 8201   2.864   2.658   4.962
 2724SOL    HW1 8202   2.905   2.626   5.048
 2724SOL    HW2 8203   2.768   2.631   4.959
 2725SOL     OW 8204   1.902   2.406   4.838
 2725SOL    HW1 8205   1.987   2.373   4.797
 2725SOL    HW2 8206   1.915   2.421   4.936
 2726SOL     OW 8207   2.677   2.434   4.049
 2726SOL    HW1 8208   2.684   2.345   4.003
 2726SOL    HW2 8209   2.583   2.468   4.041
 2727SOL     OW 8210   3.519   2.466   4.930
 2727SOL    HW1 8211   3.481   2.397   4.992
 2727SOL    HW2 8212   3.601   2.430   4.886
 2728SOL     OW 8213   2.533   2.326   4.993
 2728SOL    HW1 8214   2.499   2.237   4.963
 2728SOL    HW2 8215   2.559   2.380   4.913
 2729SOL     OW 8216   2.792   3.540   5.189
 2729SOL    HW1 8217   2.768   3.522   5.094
 2729SOL    HW2 8218   2.822   3.634   5.199
 2730SOL     OW 8219   2.335   2.362   3.915
 2730SOL    HW1 8220   2.396   2.442   3.919
 2730SOL    HW2 8221   2.240   2.393   3.922
 2731SOL     OW 8222   2.021   2.999   5.190
 2731SOL    HW1 8223   2.043   2.938   5.266
 2731SOL    HW2 8224   2.031   2.950   5.104
 2732SOL     OW 8225   3.209   2.921   4.958
 2732SOL    HW1 8226   3.233   2.858   4.884
 2732SOL    HW2 8227   3.119   2.961   4.940
 2733SOL     OW 8228   3.164   2.717   4.033
 2733SOL    HW1 8229   3.078   2.686   4.075
 2733SOL    HW2 8230   3.160   2.703   3.934
 2734SOL     OW 8231   3.621   3.609   4.878
 2734SOL    HW1 8232   3.682   3.639   4.805
 2734SOL    HW2 8233   3.583   3.520   4.856
 2735SOL     OW 8234   3.114   3.593   4.852
 2735SOL    HW1 8235   3.198   3.598   4.798
 2735SOL    HW2 8236   3.091   3.497   4.870
 2736SOL     OW 8237   1.945   3.120   4.746
 2736SOL    HW1 8238   1.940   3.119   4.846
 2736SOL    HW2 8239   1.862   3.079   4.708
 2737SOL     OW 8240   3.588   1.997   4.247
 2737SOL    HW1 8241   3.661   1.980   4.180
 2737SOL    HW2 8242   3.557   1.910   4.285
 2738SOL     OW 8243   3.250   3.435   4.201
 2738SOL    HW1 8244   3.317   3.447   4.127
 2738SOL    HW2 8245   3.210   3.524   4.224
 2739SOL     OW 8246   3.142   2.789   4.396
 2739SOL    HW1 8247   3.202   2.708   4.398
 2739SOL    HW2 8248   3.182   2.858   4.336
 2740SOL     OW 8249   2.534   3.478   3.878
 2740SOL    HW1 8250   2.543   3.488   3.779
 2740SOL    HW2 8251   2.494   3.389   3.899
 2741SOL     OW 8252   3.703   2.037   4.687
 2741SOL    HW1 8253   3.742   1.952   4.651
 2741SOL    HW2 8254   3.605   2.039   4.668
 2742SOL     OW 8255   2.125   2.188   4.444
 2742SOL    HW1 8256   2.046   2.239   4.410
 2742SOL    HW2 8257   2.116   2.173   4.542
 2743SOL     OW 8258   3.056   3.474   3.755
 2743SOL    HW1 8259   3.062   3.381   3.792
 2743SOL    HW2 8260   2.997   3.474   3.675
 2744SOL     OW 8261   2.684   2.864   5.096
 2744SOL    HW1 8262   2.724   2.863   5.004
 2744SOL    HW2 8263   2.694   2.956   5.136
 2745SOL     OW 8264   2.778   2.772   4.015
 2745SOL    HW1 8265   2.841   2.810   3.947
 2745SOL    HW2 8266   2.818   2.689   4.054
 2746SOL     OW 8267   3.366   3.469   3.768
 2746SOL    HW1 8268   3.274   3.506   3.775
 2746SOL    HW2 8269   3.404   3.489   3.678
 2747SOL     OW 8270   3.476   3.154   5.013
 2747SOL    HW1 8271   3.536   3.157   5.093
 2747SOL    HW2 8272   3.401   3.218   5.026
 2748SOL     OW 8273   2.901   2.960   4.420
 2748SOL    HW1 8274   2.831   2.913   4.474
 2748SOL    HW2 8275   2.960   2.892   4.377
 2749SOL     OW 8276   2.876   2.098   4.695
 2749SOL    HW1 8277   2.868   2.062   4.602
 2749SOL    HW2 8278   2.874   2.022   4.760
 2750SOL     OW 8279   2.452   3.349   4.215
 2750SOL    HW1 8280   2.494   3.291   4.145
 2750SOL    HW2 8281   2.408   3.428   4.171
 2751SOL     OW 8282   3.571   2.247   5.105
 2751SOL    HW1 8283   3.644   2.316   5.109
 2751SOL    HW2 8284   3.599   2.172   5.046
 2752SOL     OW 8285   2.117   3.210   4.014
 2752SOL    HW1 8286   2.021   3.211   3.987
 2752SOL    HW2 8287   2.129   3.263   4.098
 2753SOL     OW 8288   2.534   2.065   5.213
 2753SOL    HW1 8289   2.624   2.049   5.173
 2753SOL    HW2 8290   2.542   2.070   5.312
 2754SOL     OW 8291   1.937   2.207   3.757
 2754SOL    HW1 8292   1.845   2.179   3.728
 2754SOL    HW2 8293   1.968   2.284   3.701
 2755SOL     OW 8294   1.934   2.028   4.042
 2755SOL    HW1 8295   1.917   2.111   3.988
 2755SOL    HW2 8296   2.024   1.991   4.020
 2756SOL     OW 8297   3.045   3.197   3.843
 2756SOL    HW1 8298   2.946   3.186   3.845
 2756SOL    HW2 8299   3.079   3.212   3.936
 2757SOL     OW 8300   2.475   2.704   5.155
 2757SOL    HW1 8301   2.531   2.785   5.138
 2757SOL    HW2 8302   2.534   2.624   5.158
 2758SOL     OW 8303   3.355   3.629   4.683
 2758SOL    HW1 8304   3.388   3.693   4.614
 2758SOL    HW2 8305   3.421   3.623   4.758
 2759SOL     OW 8306   2.252   3.603   5.284
 2759SOL    HW1 8307   2.161   3.644   5.282
 2759SOL    HW2 8308   2.245   3.509   5.316
 2760SOL     OW 8309   3.536   2.745   4.978
 2760SOL    HW1 8310   3.509   2.656   4.941
 2760SOL    HW2 8311   3.537   2.813   4.905
 2761SOL     OW 8312   3.087   2.187   4.173
 2761SOL    HW1 8313   3.152   2.113   4.162
 2761SOL    HW2 8314   3.107   2.237   4.257
 2762SOL     OW 8315   2.456   2.607   4.376
 2762SOL    HW1 8316   2.506   2.692   4.357
 2762SOL    HW2 8317   2.368   2.609   4.328
 2763SOL     OW 8318   3.592   2.796   5.241
 2763SOL    HW1 8319   3.630   2.887   5.256
 2763SOL    HW2 8320   3.584   2.779   5.142
 2764SOL     OW 8321   2.721   3.236   3.740
 2764SOL    HW1 8322   2.675   3.251   3.828
 2764SOL    HW2 8323   2.765   3.321   3.710
 2765SOL     OW 8324   2.523   3.652   4.677
 2765SOL    HW1 8325   2.477   3.740   4.664
 2765SOL    HW2 8326   2.622   3.664   4.670
 2766SOL     OW 8327   2.721   2.818   4.585
 2766SOL    HW1 8328   2.775   2.749   4.633
 2766SOL    HW2 8329   2.689   2.887   4.651
 2767SOL     OW 8330   2.945   2.846   3.811
 2767SOL    HW1 8331   2.922   2.899   3.729
 2767SOL    HW2 8332   3.026   2.790   3.792
 2768SOL     OW 8333   3.723   3.431   4.575
 2768SOL    HW1 8334   3.652   3.419   4.505
 2768SOL    HW2 8335   3.724   3.352   4.635
 2769SOL     OW 8336   1.941   3.102   4.377
 2769SOL    HW1 8337   1.940   3.055   4.465
 2769SOL    HW2 8338   2.023   3.074   4.326
 2770SOL     OW 8339   3.686   2.054   4.951
 2770SOL    HW1 8340   3.682   1.964   4.995
 2770SOL    HW2 8341   3.689   2.043   4.852
 2771SOL     OW 8342   2.290   2.286   4.244
 2771SOL    HW1 8343   2.320   2.214   4.182
 2771SOL    HW2 8344   2.251   2.246   4.327
 2772SOL     OW 8345   3.567   3.349   4.828
 2772SOL    HW1 8346   3.474   3.324   4.801
 2772SOL    HW2 8347   3.593   3.299   4.910
 2773SOL     OW 8348   2.179   2.409   5.004
 2773SOL    HW1 8349   2.217   2.350   5.076
 2773SOL    HW2 8350   2.219   2.383   4.916
 2774SOL     OW 8351   2.674   3.448   4.411
 2774SOL    HW1 8352   2.706   3.458   4.317
 2774SOL    HW2 8353   2.595   3.386   4.413
 2775SOL     OW 8354   3.286   2.076   4.836
 2775SOL    HW1 8355   3.338   2.011   4.891
 2775SOL    HW2 8356   3.237   2.139   4.897
 2776SOL     OW 8357   2.863   1.896   4.878
 2776SOL    HW1 8358   2.800   1.824   4.847
 2776SOL    HW2 8359   2.956   1.860   4.878
 2777SOL     OW 8360   2.632   3.192   4.025
 2777SOL    HW1 8361   2.586   3.105   4.042
 2777SOL    HW2 8362   2.723   3.189   4.066
 2778SOL     OW 8363   2.480   3.429   5.008
 2778SOL    HW1 8364   2.475   3.511   5.065
 2778SOL    HW2 8365   2.569   3.426   4.963
 2779SOL     OW 8366   3.214   1.914   3.892
 2779SOL    HW1 8367   3.249   1.873   3.808
 2779SOL    HW2 8368   3.124   1.876   3.912
 2780SOL     OW 8369   3.162   2.315   4.415
 2780SOL    HW1 8370   3.103   2.395   4.419
 2780SOL    HW2 8371   3.177   2.280   4.508
 2781SOL     OW 8372   3.455   2.083   4.606
 2781SOL    HW1 8373   3.371   2.082   4.660
 2781SOL    HW2 8374   3.457   2.166   4.550
 2782SOL     OW 8375   1.901   2.939   4.024
 2782SOL    HW1 8376   2.000   2.928   4.015
 2782SOL    HW2 8377   1.861   2.853   4.056
 2783SOL     OW 8378   2.737   3.508   4.061
 2783SOL    HW1 8379   2.660   3.473   4.007
 2783SOL    HW2 8380   2.705   3.579   4.123
 2784SOL     OW 8381   2.092   4.352   0.113
 2784SOL    HW1 8382   1.999   4.350   0.150
 2784SOL    HW2 8383   2.093   4.313   0.021
 2785SOL     OW 8384   2.087   3.999   0.996
 2785SOL    HW1 8385   2.122   3.982   1.088
 2785SOL    HW2 8386   1.999   3.954   0.984
 2786SOL     OW 8387   1.881   4.092   0.647
 2786SOL    HW1 8388   1.799   4.135   0.686
 2786SOL    HW2 8389   1.853   4.019   0.584
 2787SOL     OW 8390   2.431   4.999   1.165
 2787SOL    HW1 8391   2.338   4.992   1.128
 2787SOL    HW2 8392   2.442   5.088   1.209
 2788SOL     OW 8393   3.417   5.235   0.703
 2788SOL    HW1 8394   3.360   5.219   0.784
 2788SOL    HW2 8395   3.358   5.245   0.623
 2789SOL     OW 8396   2.997   4.427   0.717
 2789SOL    HW1 8397   3.054   4.505   0.692
 2789SOL    HW2 8398   2.937   4.453   0.793
 2790SOL     OW 8399   3.617   4.331   0.231
 2790SOL    HW1 8400   3.605   4.318   0.132
 2790SOL    HW2 8401   3.587   4.250   0.280
 2791SOL     OW 8402   2.630   4.868   1.023
 2791SOL    HW1 8403   2.552   4.885   1.083
 2791SOL    HW2 8404   2.664   4.955   0.987
 2792SOL     OW 8405   2.712   4.522   1.823
 2792SOL    HW1 8406   2.708   4.598   1.888
 2792SOL    HW2 8407   2.734   4.558   1.732
 2793SOL     OW 8408   2.547   4.736   0.665
 2793SOL    HW1 8409   2.616   4.720   0.735
 2793SOL    HW2 8410   2.474   4.793   0.703
 2794SOL     OW 8411   2.548   4.885   1.803
 2794SOL    HW1 8412   2.608   4.964   1.817
 2794SOL    HW2 8413   2.462   4.916   1.762
 2795SOL     OW 8414   2.197   5.159   1.061
 2795SOL    HW1 8415   2.119   5.128   1.008
 2795SOL    HW2 8416   2.255   5.217   1.004
 2796SOL     OW 8417   2.300   4.116   1.499
 2796SOL    HW1 8418   2.382   4.060   1.508
 2796SOL    HW2 8419   2.219   4.058   1.503
 2797SOL     OW 8420   3.465   4.171   0.737
 2797SOL    HW1 8421   3.391   4.217   0.687
 2797SOL    HW2 8422   3.516   4.239   0.790
 2798SOL     OW 8423   2.102   4.815   0.886
 2798SOL    HW1 8424   2.116   4.731   0.938
 2798SOL    HW2 8425   2.047   4.879   0.941
 2799SOL     OW 8426   2.468   4.688   0.123
 2799SOL    HW1 8427   2.475   4.772   0.069
 2799SOL    HW2 8428   2.514   4.701   0.211
 2800SOL     OW 8429   3.456   3.838   1.480
 2800SOL    HW1 8430   3.438   3.905   1.408
 2800SOL    HW2 8431   3.453   3.884   1.569
 2801SOL     OW 8432   1.984   4.367   0.563
 2801SOL    HW1 8433   1.939   4.279   0.580
 2801SOL    HW2 8434   1.983   4.421   0.647
 2802SOL     OW 8435   3.551   4.646   0.612
 2802SOL    HW1 8436   3.646   4.617   0.620
 2802SOL    HW2 8437   3.543   4.711   0.537
 2803SOL     OW 8438   3.503   4.832   0.432
 2803SOL    HW1 8439   3.589   4.834   0.380
 2803SOL    HW2 8440   3.517   4.879   0.520
 2804SOL     OW 8441   1.975   4.461   1.597
 2804SOL    HW1 8442   2.063   4.448   1.642
 2804SOL    HW2 8443   1.962   4.558   1.575
 2805SOL     OW 8444   2.475   5.089   0.726
 2805SOL    HW1 8445   2.426   5.002   0.735
 2805SOL    HW2 8446   2.452   5.132   0.639
 2806SOL     OW 8447   3.155   4.952   1.423
 2806SOL    HW1 8448   3.192   4.879   1.365
 2806SOL    HW2 8449   3.207   4.957   1.508
 2807SOL     OW 8450   2.671   3.728   0.502
 2807SOL    HW1 8451   2.711   3.819   0.493
 2807SOL    HW2 8452   2.571   3.736   0.508
 2808SOL     OW 8453   2.059   4.700   1.264
 2808SOL    HW1 8454   2.148   4.655   1.250
 2808SOL    HW2 8455   1.986   4.635   1.245
 2809SOL     OW 8456   3.387   4.723   0.190
 2809SOL    HW1 8457   3.324   4.647   0.203
 2809SOL    HW2 8458   3.435   4.741   0.276
 2810SOL     OW 8459   2.179   3.975   1.801
 2810SOL    HW1 8460   2.250   4.046   1.807
 2810SOL    HW2 8461   2.091   4.014   1.829
 2811SOL     OW 8462   3.328   5.141   0.953
 2811SOL    HW1 8463   3.269   5.147   1.033
 2811SOL    HW2 8464   3.313   5.053   0.907
 2812SOL     OW 8465   2.460   4.453   0.270
 2812SOL    HW1 8466   2.484   4.522   0.202
 2812SOL    HW2 8467   2.382   4.486   0.324
 2813SOL     OW 8468   3.143   4.069   0.944
 2813SOL    HW1 8469   3.057   4.019   0.931
 2813SOL    HW2 8470   3.205   4.015   1.000
 2814SOL     OW 8471   2.669   4.329   1.465
 2814SOL    HW1 8472   2.622   4.326   1.554
 2814SOL    HW2 8473   2.618   4.274   1.399
 2815SOL     OW 8474   3.256   4.193   1.674
 2815SOL    HW1 8475   3.236   4.236   1.762
 2815SOL    HW2 8476   3.334   4.131   1.683
 2816SOL     OW 8477   2.835   4.614   1.572
 2816SOL    HW1 8478   2.881   4.530   1.543
 2816SOL    HW2 8479   2.779   4.648   1.497
 2817SOL     OW 8480   2.853   4.134   1.242
 2817SOL    HW1 8481   2.776   4.168   1.296
 2817SOL    HW2 8482   2.819   4.083   1.163
 2818SOL     OW 8483   2.903   4.425   0.429
 2818SOL    HW1 8484   2.929   4.421   0.525
 2818SOL    HW2 8485   2.818   4.374   0.415
 2819SOL     OW 8486   1.938   4.535   0.789
 2819SOL    HW1 8487   2.037   4.523   0.798
 2819SOL    HW2 8488   1.914   4.630   0.810
 2820SOL     OW 8489   2.727   4.072   0.195
 2820SOL    HW1 8490   2.786   4.135   0.146
 2820SOL    HW2 8491   2.746   3.978   0.166
 2821SOL     OW 8492   3.581   4.309   1.831
 2821SOL    HW1 8493   3.555   4.398   1.795
 2821SOL    HW2 8494   3.579   4.241   1.758
 2822SOL     OW 8495   3.224   4.868   0.545
 2822SOL    HW1 8496   3.307   4.839   0.497
 2822SOL    HW2 8497   3.175   4.935   0.489
 2823SOL     OW 8498   2.412   3.920   0.885
 2823SOL    HW1 8499   2.407   3.915   0.985
 2823SOL    HW2 8500   2.414   4.016   0.856
 2824SOL     OW 8501   3.657   4.790   0.873
 2824SOL    HW1 8502   3.595   4.775   0.797
 2824SOL    HW2 8503   3.605   4.801   0.958
 2825SOL     OW 8504   2.183   4.667   0.242
 2825SOL    HW1 8505   2.265   4.706   0.200
 2825SOL    HW2 8506   2.156   4.585   0.193
 2826SOL     OW 8507   3.320   4.459   0.728
 2826SOL    HW1 8508   3.315   4.394   0.803
 2826SOL    HW2 8509   3.400   4.518   0.741
 2827SOL     OW 8510   2.323   4.990   1.727
 2827SOL    HW1 8511   2.273   4.991   1.641
 2827SOL    HW2 8512   2.260   4.972   1.803
 2828SOL     OW 8513   2.064   4.009   1.498
 2828SOL    HW1 8514   1.984   4.069   1.485
 2828SOL    HW2 8515   2.054   3.960   1.584
 2829SOL     OW 8516   3.494   5.101   0.081
 2829SOL    HW1 8517   3.462   5.195   0.071
 2829SOL    HW2 8518   3.418   5.038   0.069
 2830SOL     OW 8519   3.262   3.831   0.426
 2830SOL    HW1 8520   3.238   3.794   0.336
 2830SOL    HW2 8521   3.361   3.847   0.430
 2831SOL     OW 8522   2.244   4.424   0.480
 2831SOL    HW1 8523   2.289   4.334   0.477
 2831SOL    HW2 8524   2.150   4.413   0.513
 2832SOL     OW 8525   3.409   3.946   1.729
 2832SOL    HW1 8526   3.404   3.983   1.821
 2832SOL    HW2 8527   3.337   3.877   1.717
 2833SOL     OW 8528   2.643   3.988   1.749
 2833SOL    HW1 8529   2.710   3.927   1.792
 2833SOL    HW2 8530   2.570   4.007   1.814
 2834SOL     OW 8531   3.213   4.314   1.433
 2834SOL    HW1 8532   3.241   4.271   1.518
 2834SOL    HW2 8533   3.238   4.410   1.434
 2835SOL     OW 8534   2.784   4.227   0.899
 2835SOL    HW1 8535   2.759   4.218   0.803
 2835SOL    HW2 8536   2.832   4.145   0.930
 2836SOL     OW 8537   2.401   3.788   0.512
 2836SOL    HW1 8538   2.320   3.789   0.570
 2836SOL    HW2 8539   2.404   3.871   0.457
 2837SOL     OW 8540   3.296   4.912   0.041
 2837SOL    HW1 8541   3.328   4.836   0.098
 2837SOL    HW2 8542   3.204   4.939   0.071
 2838SOL     OW 8543   2.797   3.960   0.480
 2838SOL    HW1 8544   2.749   4.001   0.402
 2838SOL    HW2 8545   2.896   3.958   0.461
 2839SOL     OW 8546   2.938   4.407   1.464
 2839SOL    HW1 8547   2.858   4.346   1.467
 2839SOL    HW2 8548   3.019   4.354   1.440
 2840SOL     OW 8549   3.089   5.294   0.793
 2840SOL    HW1 8550   3.110   5.368   0.728
 2840SOL    HW2 8551   3.157   5.294   0.866
 2841SOL     OW 8552   2.321   4.876   0.741
 2841SOL    HW1 8553   2.250   4.849   0.806
 2841SOL    HW2 8554   2.295   4.848   0.648
 2842SOL     OW 8555   2.894   4.273   0.016
 2842SOL    HW1 8556   2.853   4.355  -0.023
 2842SOL    HW2 8557   2.958   4.299   0.089
 2843SOL     OW 8558   1.940   4.280   1.386
 2843SOL    HW1 8559   2.032   4.279   1.345
 2843SOL    HW2 8560   1.934   4.354   1.453
 2844SOL     OW 8561   2.423   3.946   1.147
 2844SOL    HW1 8562   2.461   3.862   1.184
 2844SOL    HW2 8563   2.335   3.965   1.191
 2845SOL     OW 8564   2.728   4.178   0.642
 2845SOL    HW1 8565   2.696   4.250   0.580
 2845SOL    HW2 8566   2.752   4.097   0.589
 2846SOL     OW 8567   2.879   3.763   0.753
 2846SOL    HW1 8568   2.807   3.768   0.684
 2846SOL    HW2 8569   2.855   3.694   0.822
 2847SOL     OW 8570   3.291   4.897   0.867
 2847SOL    HW1 8571   3.236   4.813   0.860
 2847SOL    HW2 8572   3.317   4.926   0.775
 2848SOL     OW 8573   3.328   4.314   0.992
 2848SOL    HW1 8574   3.298   4.219   0.999
 2848SOL    HW2 8575   3.401   4.330   1.058
 2849SOL     OW 8576   3.719   4.557   0.377
 2849SOL    HW1 8577   3.761   4.493   0.441
 2849SOL    HW2 8578   3.681   4.506   0.299
 2850SOL     OW 8579   3.526   5.004   0.657
 2850SOL    HW1 8580   3.625   5.012   0.671
 2850SOL    HW2 8581   3.481   5.088   0.688
 2851SOL     OW 8582   3.252   4.299   0.078
 2851SOL    HW1 8583   3.198   4.278   0.159
 2851SOL    HW2 8584   3.343   4.258   0.087
 2852SOL     OW 8585   2.389   3.980   0.328
 2852SOL    HW1 8586   2.416   3.921   0.253
 2852SOL    HW2 8587   2.389   4.075   0.297
 2853SOL     OW 8588   3.616   4.947   1.588
 2853SOL    HW1 8589   3.707   4.908   1.575
 2853SOL    HW2 8590   3.624   5.043   1.612
 2854SOL     OW 8591   2.926   5.071   1.340
 2854SOL    HW1 8592   2.846   5.048   1.395
 2854SOL    HW2 8593   3.009   5.045   1.389
 2855SOL     OW 8594   2.973   4.919   1.100
 2855SOL    HW1 8595   2.933   4.963   1.181
 2855SOL    HW2 8596   2.932   4.956   1.017
 2856SOL     OW 8597   3.500   4.823   1.079
 2856SOL    HW1 8598   3.505   4.904   1.138
 2856SOL    HW2 8599   3.414   4.825   1.028
 2857SOL     OW 8600   2.777   3.813   1.402
 2857SOL    HW1 8601   2.802   3.793   1.307
 2857SOL    HW2 8602   2.849   3.869   1.444
 2858SOL     OW 8603   2.842   4.840   1.719
 2858SOL    HW1 8604   2.743   4.846   1.729
 2858SOL    HW2 8605   2.865   4.760   1.663
 2859SOL     OW 8606   2.567   4.774   0.368
 2859SOL    HW1 8607   2.553   4.781   0.467
 2859SOL    HW2 8608   2.651   4.723   0.350
 2860SOL     OW 8609   2.272   4.537   1.251
 2860SOL    HW1 8610   2.358   4.549   1.301
 2860SOL    HW2 8611   2.230   4.450   1.278
 2861SOL     OW 8612   3.136   4.110   1.262
 2861SOL    HW1 8613   3.157   4.184   1.326
 2861SOL    HW2 8614   3.047   4.127   1.219
 2862SOL     OW 8615   2.229   4.824   0.501
 2862SOL    HW1 8616   2.222   4.907   0.445
 2862SOL    HW2 8617   2.233   4.744   0.441
 2863SOL     OW 8618   2.428   4.261   0.865
 2863SOL    HW1 8619   2.440   4.327   0.791
 2863SOL    HW2 8620   2.474   4.295   0.948
 2864SOL     OW 8621   3.114   5.072   0.388
 2864SOL    HW1 8622   3.164   5.149   0.428
 2864SOL    HW2 8623   3.019   5.074   0.420
 2865SOL     OW 8624   3.444   4.363   0.472
 2865SOL    HW1 8625   3.413   4.424   0.545
 2865SOL    HW2 8626   3.494   4.415   0.403
 2866SOL     OW 8627   2.264   4.475   1.598
 2866SOL    HW1 8628   2.332   4.530   1.551
 2866SOL    HW2 8629   2.304   4.387   1.625
 2867SOL     OW 8630   3.449   4.503   1.670
 2867SOL    HW1 8631   3.357   4.541   1.665
 2867SOL    HW2 8632   3.509   4.550   1.605
 2868SOL     OW 8633   2.875   3.829   1.770
 2868SOL    HW1 8634   2.881   3.914   1.718
 2868SOL    HW2 8635   2.907   3.753   1.713
 2869SOL     OW 8636   2.366   3.774   1.740
 2869SOL    HW1 8637   2.324   3.717   1.670
 2869SOL    HW2 8638   2.300   3.843   1.772
 2870SOL     OW 8639   2.435   4.594   1.029
 2870SOL    HW1 8640   2.479   4.683   1.020
 2870SOL    HW2 8641   2.372   4.594   1.106
 2871SOL     OW 8642   3.222   4.586   1.045
 2871SOL    HW1 8643   3.147   4.586   0.979
 2871SOL    HW2 8644   3.259   4.494   1.054
 2872SOL     OW 8645   3.071   4.249   0.275
 2872SOL    HW1 8646   3.084   4.165   0.329
 2872SOL    HW2 8647   3.042   4.323   0.335
 2873SOL     OW 8648   2.169   3.937   1.231
 2873SOL    HW1 8649   2.146   3.974   1.321
 2873SOL    HW2 8650   2.139   3.842   1.225
 2874SOL     OW 8651   1.899   5.034   1.282
 2874SOL    HW1 8652   1.952   4.985   1.350
 2874SOL    HW2 8653   1.921   5.132   1.287
 2875SOL     OW 8654   2.594   4.358   1.064
 2875SOL    HW1 8655   2.653   4.332   0.988
 2875SOL    HW2 8656   2.566   4.454   1.053
 2876SOL     OW 8657   3.590   4.659   1.854
 2876SOL    HW1 8658   3.544   4.652   1.765
 2876SOL    HW2 8659   3.528   4.703   1.920
 2877SOL     OW 8660   2.169   3.787   0.618
 2877SOL    HW1 8661   2.158   3.881   0.651
 2877SOL    HW2 8662   2.164   3.724   0.695
 2878SOL     OW 8663   3.484   4.091   0.374
 2878SOL    HW1 8664   3.486   4.015   0.438
 2878SOL    HW2 8665   3.436   4.168   0.414
 2879SOL     OW 8666   2.885   4.490   0.966
 2879SOL    HW1 8667   2.900   4.511   1.062
 2879SOL    HW2 8668   2.855   4.395   0.957
 2880SOL     OW 8669   3.721   5.242   1.605
 2880SOL    HW1 8670   3.735   5.269   1.510
 2880SOL    HW2 8671   3.804   5.264   1.658
 2881SOL     OW 8672   2.212   4.622   1.804
 2881SOL    HW1 8673   2.288   4.666   1.852
 2881SOL    HW2 8674   2.247   4.575   1.722
 2882SOL     OW 8675   3.402   3.998   0.125
 2882SOL    HW1 8676   3.341   3.923   0.148
 2882SOL    HW2 8677   3.424   4.050   0.208
 2883SOL     OW 8678   3.165   4.562   0.042
 2883SOL    HW1 8679   3.199   4.469   0.057
 2883SOL    HW2 8680   3.183   4.589  -0.053
 2884SOL     OW 8681   2.181   4.534   0.949
 2884SOL    HW1 8682   2.274   4.570   0.954
 2884SOL    HW2 8683   2.175   4.449   1.001
 2885SOL     OW 8684   2.201   4.233   1.006
 2885SOL    HW1 8685   2.149   4.150   0.989
 2885SOL    HW2 8686   2.278   4.238   0.942
 2886SOL     OW 8687   3.000   4.104   1.678
 2886SOL    HW1 8688   2.955   4.167   1.742
 2886SOL    HW2 8689   3.093   4.135   1.661
 2887SOL     OW 8690   3.022   3.931   1.477
 2887SOL    HW1 8691   3.022   3.995   1.554
 2887SOL    HW2 8692   3.050   3.979   1.394
 2888SOL     OW 8693   2.864   4.520   1.238
 2888SOL    HW1 8694   2.905   4.488   1.324
 2888SOL    HW2 8695   2.768   4.493   1.235
 2889SOL     OW 8696   1.902   4.268   1.114
 2889SOL    HW1 8697   1.987   4.235   1.073
 2889SOL    HW2 8698   1.915   4.283   1.212
 2890SOL     OW 8699   2.051   4.244   1.722
 2890SOL    HW1 8700   2.110   4.204   1.652
 2890SOL    HW2 8701   1.993   4.315   1.681
 2891SOL     OW 8702   3.231   4.674   1.660
 2891SOL    HW1 8703   3.270   4.763   1.680
 2891SOL    HW2 8704   3.241   4.654   1.563
 2892SOL     OW 8705   2.677   4.296   0.325
 2892SOL    HW1 8706   2.684   4.207   0.279
 2892SOL    HW2 8707   2.583   4.330   0.317
 2893SOL     OW 8708   3.519   4.328   1.206
 2893SOL    HW1 8709   3.481   4.259   1.268
 2893SOL    HW2 8710   3.601   4.292   1.162
 2894SOL     OW 8711   2.533   4.188   1.269
 2894SOL    HW1 8712   2.499   4.099   1.239
 2894SOL    HW2 8713   2.559   4.242   1.189
 2895SOL     OW 8714   2.335   4.224   0.191
 2895SOL    HW1 8715   2.396   4.304   0.195
 2895SOL    HW2 8716   2.240   4.255   0.198
 2896SOL     OW 8717   2.021   4.861   1.466
 2896SOL    HW1 8718   2.043   4.800   1.542
 2896SOL    HW2 8719   2.031   4.812   1.380
 2897SOL     OW 8720   3.209   4.783   1.234
 2897SOL    HW1 8721   3.233   4.720   1.160
 2897SOL    HW2 8722   3.119   4.823   1.216
 2898SOL     OW 8723   3.164   4.579   0.309
 2898SOL    HW1 8724   3.078   4.548   0.351
 2898SOL    HW2 8725   3.160   4.565   0.210
 2899SOL     OW 8726   1.945   4.982   1.022
 2899SOL    HW1 8727   1.940   4.981   1.122
 2899SOL    HW2 8728   1.862   4.941   0.984
 2900SOL     OW 8729   2.765   3.810   0.133
 2900SOL    HW1 8730   2.816   3.811   0.047
 2900SOL    HW2 8731   2.821   3.768   0.204
 2901SOL     OW 8732   3.588   3.859   0.523
 2901SOL    HW1 8733   3.661   3.842   0.456
 2901SOL    HW2 8734   3.557   3.772   0.561
 2902SOL     OW 8735   3.142   4.651   0.672
 2902SOL    HW1 8736   3.202   4.570   0.674
 2902SOL    HW2 8737   3.182   4.720   0.612
 2903SOL     OW 8738   2.692   4.997   1.422
 2903SOL    HW1 8739   2.687   5.030   1.517
 2903SOL    HW2 8740   2.606   5.016   1.376
 2904SOL     OW 8741   3.703   3.899   0.963
 2904SOL    HW1 8742   3.742   3.814   0.927
 2904SOL    HW2 8743   3.605   3.901   0.944
 2905SOL     OW 8744   2.125   4.050   0.720
 2905SOL    HW1 8745   2.046   4.101   0.686
 2905SOL    HW2 8746   2.116   4.035   0.818
 2906SOL     OW 8747   2.684   4.726   1.372
 2906SOL    HW1 8748   2.724   4.725   1.280
 2906SOL    HW2 8749   2.694   4.818   1.412
 2907SOL     OW 8750   2.778   4.634   0.291
 2907SOL    HW1 8751   2.841   4.672   0.223
 2907SOL    HW2 8752   2.818   4.551   0.330
 2908SOL     OW 8753   2.234   5.012   1.490
 2908SOL    HW1 8754   2.221   5.105   1.456
 2908SOL    HW2 8755   2.150   4.960   1.477
 2909SOL     OW 8756   3.476   5.016   1.289
 2909SOL    HW1 8757   3.536   5.019   1.369
 2909SOL    HW2 8758   3.401   5.080   1.302
 2910SOL     OW 8759   2.901   4.822   0.696
 2910SOL    HW1 8760   2.831   4.775   0.750
 2910SOL    HW2 8761   2.960   4.754   0.653
 2911SOL     OW 8762   2.876   3.960   0.971
 2911SOL    HW1 8763   2.868   3.924   0.878
 2911SOL    HW2 8764   2.874   3.884   1.036
 2912SOL     OW 8765   3.571   4.109   1.381
 2912SOL    HW1 8766   3.644   4.178   1.385
 2912SOL    HW2 8767   3.599   4.034   1.322
 2913SOL     OW 8768   1.967   4.737   1.726
 2913SOL    HW1 8769   1.890   4.704   1.780
 2913SOL    HW2 8770   2.052   4.707   1.768
 2914SOL     OW 8771   2.534   3.927   1.489
 2914SOL    HW1 8772   2.624   3.911   1.449
 2914SOL    HW2 8773   2.542   3.932   1.588
 2915SOL     OW 8774   1.937   4.069   0.033
 2915SOL    HW1 8775   1.845   4.041   0.004
 2915SOL    HW2 8776   1.968   4.146  -0.023
 2916SOL     OW 8777   3.302   4.580   1.398
 2916SOL    HW1 8778   3.245   4.632   1.335
 2916SOL    HW2 8779   3.398   4.592   1.374
 2917SOL     OW 8780   1.934   3.890   0.318
 2917SOL    HW1 8781   1.917   3.973   0.264
 2917SOL    HW2 8782   2.024   3.853   0.296
 2918SOL     OW 8783   2.475   4.566   1.431
 2918SOL    HW1 8784   2.531   4.647   1.414
 2918SOL    HW2 8785   2.534   4.486   1.434
 2919SOL     OW 8786   2.578   4.289   1.708
 2919SOL    HW1 8787   2.597   4.354   1.782
 2919SOL    HW2 8788   2.638   4.209   1.717
 2920SOL     OW 8789   3.312   4.944   1.633
 2920SOL    HW1 8790   3.303   4.934   1.732
 2920SOL    HW2 8791   3.408   4.937   1.607
 2921SOL     OW 8792   3.536   4.607   1.254
 2921SOL    HW1 8793   3.509   4.518   1.217
 2921SOL    HW2 8794   3.537   4.675   1.181
 2922SOL     OW 8795   3.087   4.049   0.449
 2922SOL    HW1 8796   3.152   3.975   0.438
 2922SOL    HW2 8797   3.107   4.099   0.533
 2923SOL     OW 8798   2.456   4.469   0.652
 2923SOL    HW1 8799   2.506   4.554   0.633
 2923SOL    HW2 8800   2.368   4.471   0.604
 2924SOL     OW 8801   3.639   4.066   1.642
 2924SOL    HW1 8802   3.622   4.097   1.548
 2924SOL    HW2 8803   3.555   4.029   1.680
 2925SOL     OW 8804   3.592   4.658   1.517
 2925SOL    HW1 8805   3.630   4.749   1.532
 2925SOL    HW2 8806   3.584   4.641   1.418
 2926SOL     OW 8807   2.721   4.680   0.861
 2926SOL    HW1 8808   2.775   4.611   0.909
 2926SOL    HW2 8809   2.689   4.749   0.927
 2927SOL     OW 8810   2.945   4.708   0.087
 2927SOL    HW1 8811   2.922   4.761   0.005
 2927SOL    HW2 8812   3.026   4.652   0.068
 2928SOL     OW 8813   2.083   5.038   1.844
 2928SOL    HW1 8814   2.018   4.965   1.823
 2928SOL    HW2 8815   2.087   5.052   1.942
 2929SOL     OW 8816   1.941   4.964   0.653
 2929SOL    HW1 8817   1.940   4.917   0.741
 2929SOL    HW2 8818   2.023   4.936   0.602
 2930SOL     OW 8819   2.534   5.115   1.624
 2930SOL    HW1 8820   2.456   5.065   1.662
 2930SOL    HW2 8821   2.531   5.210   1.655
 2931SOL     OW 8822   3.686   3.916   1.227
 2931SOL    HW1 8823   3.682   3.826   1.271
 2931SOL    HW2 8824   3.689   3.905   1.128
 2932SOL     OW 8825   2.290   4.148   0.520
 2932SOL    HW1 8826   2.320   4.076   0.458
 2932SOL    HW2 8827   2.251   4.108   0.603
 2933SOL     OW 8828   3.567   5.211   1.104
 2933SOL    HW1 8829   3.474   5.186   1.077
 2933SOL    HW2 8830   3.593   5.161   1.186
 2934SOL     OW 8831   2.179   4.271   1.280
 2934SOL    HW1 8832   2.217   4.212   1.352
 2934SOL    HW2 8833   2.219   4.245   1.192
 2935SOL     OW 8834   3.286   3.938   1.112
 2935SOL    HW1 8835   3.338   3.873   1.167
 2935SOL    HW2 8836   3.237   4.001   1.173
 2936SOL     OW 8837   2.863   3.758   1.154
 2936SOL    HW1 8838   2.800   3.686   1.123
 2936SOL    HW2 8839   2.956   3.722   1.154
 2937SOL     OW 8840   2.632   5.054   0.301
 2937SOL    HW1 8841   2.586   4.967   0.318
 2937SOL    HW2 8842   2.723   5.051   0.342
 2938SOL     OW 8843   3.214   3.776   0.168
 2938SOL    HW1 8844   3.249   3.735   0.084
 2938SOL    HW2 8845   3.124   3.738   0.188
 2939SOL     OW 8846   3.162   4.177   0.691
 2939SOL    HW1 8847   3.103   4.257   0.695
 2939SOL    HW2 8848   3.177   4.142   0.784
 2940SOL     OW 8849   3.455   3.945   0.882
 2940SOL    HW1 8850   3.371   3.944   0.936
 2940SOL    HW2 8851   3.457   4.028   0.826
 2941SOL     OW 8852   1.901   4.801   0.300
 2941SOL    HW1 8853   2.000   4.790   0.291
 2941SOL    HW2 8854   1.861   4.715   0.332
 2942SOL     OW 8855   2.092   4.352   1.975
 2942SOL    HW1 8856   1.999   4.350   2.012
 2942SOL    HW2 8857   2.093   4.313   1.883
 2943SOL     OW 8858   2.087   3.999   2.858
 2943SOL    HW1 8859   2.122   3.982   2.950
 2943SOL    HW2 8860   1.999   3.954   2.846
 2944SOL     OW 8861   1.881   4.092   2.509
 2944SOL    HW1 8862   1.799   4.135   2.548
 2944SOL    HW2 8863   1.853   4.019   2.446
 2945SOL     OW 8864   2.431   4.999   3.027
 2945SOL    HW1 8865   2.338   4.992   2.990
 2945SOL    HW2 8866   2.442   5.088   3.071
 2946SOL     OW 8867   3.417   5.235   2.565
 2946SOL    HW1 8868   3.360   5.219   2.646
 2946SOL    HW2 8869   3.358   5.245   2.485
 2947SOL     OW 8870   2.997   4.427   2.579
 2947SOL    HW1 8871   3.054   4.505   2.554
 2947SOL    HW2 8872   2.937   4.453   2.655
 2948SOL     OW 8873   3.617   4.331   2.093
 2948SOL    HW1 8874   3.605   4.318   1.994
 2948SOL    HW2 8875   3.587   4.250   2.142
 2949SOL     OW 8876   2.630   4.868   2.885
 2949SOL    HW1 8877   2.552   4.885   2.945
 2949SOL    HW2 8878   2.664   4.955   2.849
 2950SOL     OW 8879   2.712   4.522   3.685
 2950SOL    HW1 8880   2.708   4.598   3.750
 2950SOL    HW2 8881   2.734   4.558   3.594
 2951SOL     OW 8882   2.547   4.736   2.527
 2951SOL    HW1 8883   2.616   4.720   2.597
 2951SOL    HW2 8884   2.474   4.793   2.565
 2952SOL     OW 8885   2.548   4.885   3.665
 2952SOL    HW1 8886   2.608   4.964   3.679
 2952SOL    HW2 8887   2.462   4.916   3.624
 2953SOL     OW 8888   2.197   5.159   2.923
 2953SOL    HW1 8889   2.119   5.128   2.870
 2953SOL    HW2 8890   2.255   5.217   2.866
 2954SOL     OW 8891   2.300   4.116   3.361
 2954SOL    HW1 8892   2.382   4.060   3.370
 2954SOL    HW2 8893   2.219   4.058   3.365
 2955SOL     OW 8894   3.465   4.171   2.599
 2955SOL    HW1 8895   3.391   4.217   2.549
 2955SOL    HW2 8896   3.516   4.239   2.652
 2956SOL     OW 8897   2.102   4.815   2.748
 2956SOL    HW1 8898   2.116   4.731   2.800
 2956SOL    HW2 8899   2.047   4.879   2.803
 2957SOL     OW 8900   2.468   4.688   1.985
 2957SOL    HW1 8901   2.475   4.772   1.931
 2957SOL    HW2 8902   2.514   4.701   2.073
 2958SOL     OW 8903   3.456   3.838   3.342
 2958SOL    HW1 8904   3.438   3.905   3.270
 2958SOL    HW2 8905   3.453   3.884   3.431
 2959SOL     OW 8906   1.984   4.367   2.425
 2959SOL    HW1 8907   1.939   4.279   2.442
 2959SOL    HW2 8908   1.983   4.421   2.509
 2960SOL     OW 8909   3.551   4.646   2.474
 2960SOL    HW1 8910   3.646   4.617   2.482
 2960SOL    HW2 8911   3.543   4.711   2.399
 2961SOL     OW 8912   3.503   4.832   2.294
 2961SOL    HW1 8913   3.589   4.834   2.242
 2961SOL    HW2 8914   3.517   4.879   2.382
 2962SOL     OW 8915   1.975   4.461   3.459
 2962SOL    HW1 8916   2.063   4.448   3.504
 2962SOL    HW2 8917   1.962   4.558   3.437
 2963SOL     OW 8918   2.475   5.089   2.588
 2963SOL    HW1 8919   2.426   5.002   2.597
 2963SOL    HW2 8920   2.452   5.132   2.501
 2964SOL     OW 8921   3.155   4.952   3.285
 2964SOL    HW1 8922   3.192   4.879   3.227
 2964SOL    HW2 8923   3.207   4.957   3.370
 2965SOL     OW 8924   2.671   3.728   2.364
 2965SOL    HW1 8925   2.711   3.819   2.355
 2965SOL    HW2 8926   2.571   3.736   2.370
 2966SOL     OW 8927   2.059   4.700   3.126
 2966SOL    HW1 8928   2.148   4.655   3.112
 2966SOL    HW2 8929   1.986   4.635   3.107
 2967SOL     OW 8930   3.387   4.723   2.052
 2967SOL    HW1 8931   3.324   4.647   2.065
 2967SOL    HW2 8932   3.435   4.741   2.138
 2968SOL     OW 8933   2.179   3.975   3.663
 2968SOL    HW1 8934   2.250   4.046   3.669
 2968SOL    HW2 8935   2.091   4.014   3.691
 2969SOL     OW 8936   3.328   5.141   2.815
 2969SOL    HW1 8937   3.269   5.147   2.895
 2969SOL    HW2 8938   3.313   5.053   2.769
 2970SOL     OW 8939   2.460   4.453   2.132
 2970SOL    HW1 8940   2.484   4.522   2.064
 2970SOL    HW2 8941   2.382   4.486   2.186
 2971SOL     OW 8942   3.143   4.069   2.806
 2971SOL    HW1 8943   3.057   4.019   2.793
 2971SOL    HW2 8944   3.205   4.015   2.862
 2972SOL     OW 8945   2.669   4.329   3.327
 2972SOL    HW1 8946   2.622   4.326   3.416
 2972SOL    HW2 8947   2.618   4.274   3.261
 2973SOL     OW 8948   3.256   4.193   3.536
 2973SOL    HW1 8949   3.236   4.236   3.624
 2973SOL    HW2 8950   3.334   4.131   3.545
 2974SOL     OW 8951   2.835   4.614   3.434
 2974SOL    HW1 8952   2.881   4.530   3.405
 2974SOL    HW2 8953   2.779   4.648   3.359
 2975SOL     OW 8954   2.853   4.134   3.104
 2975SOL    HW1 8955   2.776   4.168   3.158
 2975SOL    HW2 8956   2.819   4.083   3.025
 2976SOL     OW 8957   2.903   4.425   2.291
 2976SOL    HW1 8958   2.929   4.421   2.387
 2976SOL    HW2 8959   2.818   4.374   2.277
 2977SOL     OW 8960   1.938   4.535   2.651
 2977SOL    HW1 8961   2.037   4.523   2.660
 2977SOL    HW2 8962   1.914   4.630   2.672
 2978SOL     OW 8963   2.727   4.072   2.057
 2978SOL    HW1 8964   2.786   4.135   2.008
 2978SOL    HW2 8965   2.746   3.978   2.028
 2979SOL     OW 8966   3.581   4.309   3.693
 2979SOL    HW1 8967   3.555   4.398   3.657
 2979SOL    HW2 8968   3.579   4.241   3.620
 2980SOL     OW 8969   3.224   4.868   2.407
 2980SOL    HW1 8970   3.307   4.839   2.359
 2980SOL    HW2 8971   3.175   4.935   2.351
 2981SOL     OW 8972   2.412   3.920   2.747
 2981SOL    HW1 8973   2.407   3.915   2.847
 2981SOL    HW2 8974   2.414   4.016   2.718
 2982SOL     OW 8975   3.657   4.790   2.735
 2982SOL    HW1 8976   3.595   4.775   2.659
 2982SOL    HW2 8977   3.605   4.801   2.820
 2983SOL     OW 8978   2.183   4.667   2.104
 2983SOL    HW1 8979   2.265   4.706   2.062
 2983SOL    HW2 8980   2.156   4.585   2.055
 2984SOL     OW 8981   3.320   4.459   2.590
 2984SOL    HW1 8982   3.315   4.394   2.665
 2984SOL    HW2 8983   3.400   4.518   2.603
 2985SOL     OW 8984   2.323   4.990   3.589
 2985SOL    HW1 8985   2.273   4.991   3.503
 2985SOL    HW2 8986   2.260   4.972   3.665
 2986SOL     OW 8987   2.064   4.009   3.360
 2986SOL    HW1 8988   1.984   4.069   3.347
 2986SOL    HW2 8989   2.054   3.960   3.446
 2987SOL     OW 8990   3.494   5.101   1.943
 2987SOL    HW1 8991   3.462   5.195   1.933
 2987SOL    HW2 8992   3.418   5.038   1.931
 2988SOL     OW 8993   3.262   3.831   2.288
 2988SOL    HW1 8994   3.238   3.794   2.198
 2988SOL    HW2 8995   3.361   3.847   2.292
 2989SOL     OW 8996   2.244   4.424   2.342
 2989SOL    HW1 8997   2.289   4.334   2.339
 2989SOL    HW2 8998   2.150   4.413   2.375
 2990SOL     OW 8999   3.409   3.946   3.591
 2990SOL    HW1 9000   3.404   3.983   3.683
 2990SOL    HW2 9001   3.337   3.877   3.579
 2991SOL     OW 9002   2.476   3.846   1.979
 2991SOL    HW1 9003   2.574   3.824   1.986
 2991SOL    HW2 9004   2.445   3.829   1.886
 2992SOL     OW 9005   2.643   3.988   3.611
 2992SOL    HW1 9006   2.710   3.927   3.654
 2992SOL    HW2 9007   2.570   4.007   3.676
 2993SOL     OW 9008   3.213   4.314   3.295
 2993SOL    HW1 9009   3.241   4.271   3.380
 2993SOL    HW2 9010   3.238   4.410   3.296
 2994SOL     OW 9011   2.784   4.227   2.761
 2994SOL    HW1 9012   2.759   4.218   2.665
 2994SOL    HW2 9013   2.832   4.145   2.792
 2995SOL     OW 9014   2.401   3.788   2.374
 2995SOL    HW1 9015   2.320   3.789   2.432
 2995SOL    HW2 9016   2.404   3.871   2.319
 2996SOL     OW 9017   3.296   4.912   1.903
 2996SOL    HW1 9018   3.328   4.836   1.960
 2996SOL    HW2 9019   3.204   4.939   1.933
 2997SOL     OW 9020   2.159   3.759   2.033
 2997SOL    HW1 9021   2.208   3.843   2.012
 2997SOL    HW2 9022   2.221   3.694   2.078
 2998SOL     OW 9023   2.797   3.960   2.342
 2998SOL    HW1 9024   2.749   4.001   2.264
 2998SOL    HW2 9025   2.896   3.958   2.323
 2999SOL     OW 9026   2.938   4.407   3.326
 2999SOL    HW1 9027   2.858   4.346   3.329
 2999SOL    HW2 9028   3.019   4.354   3.302
 3000SOL     OW 9029   3.089   5.294   2.655
 3000SOL    HW1 9030   3.110   5.368   2.590
 3000SOL    HW2 9031   3.157   5.294   2.728
 3001SOL     OW 9032   2.321   4.876   2.603
 3001SOL    HW1 9033   2.250   4.849   2.668
 3001SOL    HW2 9034   2.295   4.848   2.510
 3002SOL     OW 9035   2.894   4.273   1.878
 3002SOL    HW1 9036   2.853   4.355   1.839
 3002SOL    HW2 9037   2.958   4.299   1.951
 3003SOL     OW 9038   1.940   4.280   3.248
 3003SOL    HW1 9039   2.032   4.279   3.207
 3003SOL    HW2 9040   1.934   4.354   3.315
 3004SOL     OW 9041   2.423   3.946   3.009
 3004SOL    HW1 9042   2.461   3.862   3.046
 3004SOL    HW2 9043   2.335   3.965   3.053
 3005SOL     OW 9044   2.728   4.178   2.504
 3005SOL    HW1 9045   2.696   4.250   2.442
 3005SOL    HW2 9046   2.752   4.097   2.451
 3006SOL     OW 9047   2.879   3.763   2.615
 3006SOL    HW1 9048   2.807   3.768   2.546
 3006SOL    HW2 9049   2.855   3.694   2.684
 3007SOL     OW 9050   3.291   4.897   2.729
 3007SOL    HW1 9051   3.236   4.813   2.722
 3007SOL    HW2 9052   3.317   4.926   2.637
 3008SOL     OW 9053   3.328   4.314   2.854
 3008SOL    HW1 9054   3.298   4.219   2.861
 3008SOL    HW2 9055   3.401   4.330   2.920
 3009SOL     OW 9056   3.719   4.557   2.239
 3009SOL    HW1 9057   3.761   4.493   2.303
 3009SOL    HW2 9058   3.681   4.506   2.161
 3010SOL     OW 9059   3.526   5.004   2.519
 3010SOL    HW1 9060   3.625   5.012   2.533
 3010SOL    HW2 9061   3.481   5.088   2.550
 3011SOL     OW 9062   3.252   4.299   1.940
 3011SOL    HW1 9063   3.198   4.278   2.021
 3011SOL    HW2 9064   3.343   4.258   1.949
 3012SOL     OW 9065   2.389   3.980   2.190
 3012SOL    HW1 9066   2.416   3.921   2.115
 3012SOL    HW2 9067   2.389   4.075   2.159
 3013SOL     OW 9068   3.616   4.947   3.450
 3013SOL    HW1 9069   3.707   4.908   3.437
 3013SOL    HW2 9070   3.624   5.043   3.474
 3014SOL     OW 9071   2.926   5.071   3.202
 3014SOL    HW1 9072   2.846   5.048   3.257
 3014SOL    HW2 9073   3.009   5.045   3.251
 3015SOL     OW 9074   2.973   4.919   2.962
 3015SOL    HW1 9075   2.933   4.963   3.043
 3015SOL    HW2 9076   2.932   4.956   2.879
 3016SOL     OW 9077   3.500   4.823   2.941
 3016SOL    HW1 9078   3.505   4.904   3.000
 3016SOL    HW2 9079   3.414   4.825   2.890
 3017SOL     OW 9080   2.777   3.813   3.264
 3017SOL    HW1 9081   2.802   3.793   3.169
 3017SOL    HW2 9082   2.849   3.869   3.306
 3018SOL     OW 9083   2.842   4.840   3.581
 3018SOL    HW1 9084   2.743   4.846   3.591
 3018SOL    HW2 9085   2.865   4.760   3.525
 3019SOL     OW 9086   2.567   4.774   2.230
 3019SOL    HW1 9087   2.553   4.781   2.329
 3019SOL    HW2 9088   2.651   4.723   2.212
 3020SOL     OW 9089   2.272   4.537   3.113
 3020SOL    HW1 9090   2.358   4.549   3.163
 3020SOL    HW2 9091   2.230   4.450   3.140
 3021SOL     OW 9092   3.136   4.110   3.124
 3021SOL    HW1 9093   3.157   4.184   3.188
 3021SOL    HW2 9094   3.047   4.127   3.081
 3022SOL     OW 9095   2.229   4.824   2.363
 3022SOL    HW1 9096   2.222   4.907   2.307
 3022SOL    HW2 9097   2.233   4.744   2.303
 3023SOL     OW 9098   2.428   4.261   2.727
 3023SOL    HW1 9099   2.440   4.327   2.653
 3023SOL    HW2 9100   2.474   4.295   2.810
 3024SOL     OW 9101   3.114   5.072   2.250
 3024SOL    HW1 9102   3.164   5.149   2.290
 3024SOL    HW2 9103   3.019   5.074   2.282
 3025SOL     OW 9104   3.444   4.363   2.334
 3025SOL    HW1 9105   3.413   4.424   2.407
 3025SOL    HW2 9106   3.494   4.415   2.265
 3026SOL     OW 9107   2.264   4.475   3.460
 3026SOL    HW1 9108   2.332   4.530   3.413
 3026SOL    HW2 9109   2.304   4.387   3.487
 3027SOL     OW 9110   3.449   4.503   3.532
 3027SOL    HW1 9111   3.357   4.541   3.527
 3027SOL    HW2 9112   3.509   4.550   3.467
 3028SOL     OW 9113   2.875   3.829   3.632
 3028SOL    HW1 9114   2.881   3.914   3.580
 3028SOL    HW2 9115   2.907   3.753   3.575
 3029SOL     OW 9116   2.366   3.774   3.602
 3029SOL    HW1 9117   2.324   3.717   3.532
 3029SOL    HW2 9118   2.300   3.843   3.634
 3030SOL     OW 9119   2.435   4.594   2.891
 3030SOL    HW1 9120   2.479   4.683   2.882
 3030SOL    HW2 9121   2.372   4.594   2.968
 3031SOL     OW 9122   3.222   4.586   2.907
 3031SOL    HW1 9123   3.147   4.586   2.841
 3031SOL    HW2 9124   3.259   4.494   2.916
 3032SOL     OW 9125   3.071   4.249   2.137
 3032SOL    HW1 9126   3.084   4.165   2.191
 3032SOL    HW2 9127   3.042   4.323   2.197
 3033SOL     OW 9128   2.169   3.937   3.093
 3033SOL    HW1 9129   2.146   3.974   3.183
 3033SOL    HW2 9130   2.139   3.842   3.087
 3034SOL     OW 9131   1.899   5.034   3.144
 3034SOL    HW1 9132   1.952   4.985   3.212
 3034SOL    HW2 9133   1.921   5.132   3.149
 3035SOL     OW 9134   2.594   4.358   2.926
 3035SOL    HW1 9135   2.653   4.332   2.850
 3035SOL    HW2 9136   2.566   4.454   2.915
 3036SOL     OW 9137   3.590   4.659   3.716
 3036SOL    HW1 9138   3.544   4.652   3.627
 3036SOL    HW2 9139   3.528   4.703   3.782
 3037SOL     OW 9140   2.169   3.787   2.480
 3037SOL    HW1 9141   2.158   3.881   2.513
 3037SOL    HW2 9142   2.164   3.724   2.557
 3038SOL     OW 9143   3.484   4.091   2.236
 3038SOL    HW1 9144   3.486   4.015   2.300
 3038SOL    HW2 9145   3.436   4.168   2.276
 3039SOL     OW 9146   2.885   4.490   2.828
 3039SOL    HW1 9147   2.900   4.511   2.924
 3039SOL    HW2 9148   2.855   4.395   2.819
 3040SOL     OW 9149   3.721   5.242   3.467
 3040SOL    HW1 9150   3.735   5.269   3.372
 3040SOL    HW2 9151   3.804   5.264   3.520
 3041SOL     OW 9152   2.212   4.622   3.666
 3041SOL    HW1 9153   2.288   4.666   3.714
 3041SOL    HW2 9154   2.247   4.575   3.584
 3042SOL     OW 9155   3.402   3.998   1.987
 3042SOL    HW1 9156   3.341   3.923   2.010
 3042SOL    HW2 9157   3.424   4.050   2.070
 3043SOL     OW 9158   3.165   4.562   1.904
 3043SOL    HW1 9159   3.199   4.469   1.919
 3043SOL    HW2 9160   3.183   4.589   1.809
 3044SOL     OW 9161   2.181   4.534   2.811
 3044SOL    HW1 9162   2.274   4.570   2.816
 3044SOL    HW2 9163   2.175   4.449   2.863
 3045SOL     OW 9164   2.201   4.233   2.868
 3045SOL    HW1 9165   2.149   4.150   2.851
 3045SOL    HW2 9166   2.278   4.238   2.804
 3046SOL     OW 9167   3.000   4.104   3.540
 3046SOL    HW1 9168   2.955   4.167   3.604
 3046SOL    HW2 9169   3.093   4.135   3.523
 3047SOL     OW 9170   3.022   3.931   3.339
 3047SOL    HW1 9171   3.022   3.995   3.416
 3047SOL    HW2 9172   3.050   3.979   3.256
 3048SOL     OW 9173   1.870   5.050   2.062
 3048SOL    HW1 9174   1.777   5.071   2.031
 3048SOL    HW2 9175   1.880   4.951   2.075
 3049SOL     OW 9176   2.864   4.520   3.100
 3049SOL    HW1 9177   2.905   4.488   3.186
 3049SOL    HW2 9178   2.768   4.493   3.097
 3050SOL     OW 9179   1.902   4.268   2.976
 3050SOL    HW1 9180   1.987   4.235   2.935
 3050SOL    HW2 9181   1.915   4.283   3.074
 3051SOL     OW 9182   2.051   4.244   3.584
 3051SOL    HW1 9183   2.110   4.204   3.514
 3051SOL    HW2 9184   1.993   4.315   3.543
 3052SOL     OW 9185   3.231   4.674   3.522
 3052SOL    HW1 9186   3.270   4.763   3.542
 3052SOL    HW2 9187   3.241   4.654   3.425
 3053SOL     OW 9188   2.677   4.296   2.187
 3053SOL    HW1 9189   2.684   4.207   2.141
 3053SOL    HW2 9190   2.583   4.330   2.179
 3054SOL     OW 9191   3.519   4.328   3.068
 3054SOL    HW1 9192   3.481   4.259   3.130
 3054SOL    HW2 9193   3.601   4.292   3.024
 3055SOL     OW 9194   2.533   4.188   3.131
 3055SOL    HW1 9195   2.499   4.099   3.101
 3055SOL    HW2 9196   2.559   4.242   3.051
 3056SOL     OW 9197   2.335   4.224   2.053
 3056SOL    HW1 9198   2.396   4.304   2.057
 3056SOL    HW2 9199   2.240   4.255   2.060
 3057SOL     OW 9200   2.021   4.861   3.328
 3057SOL    HW1 9201   2.043   4.800   3.404
 3057SOL    HW2 9202   2.031   4.812   3.242
 3058SOL     OW 9203   3.209   4.783   3.096
 3058SOL    HW1 9204   3.233   4.720   3.022
 3058SOL    HW2 9205   3.119   4.823   3.078
 3059SOL     OW 9206   3.164   4.579   2.171
 3059SOL    HW1 9207   3.078   4.548   2.213
 3059SOL    HW2 9208   3.160   4.565   2.072
 3060SOL     OW 9209   1.945   4.982   2.884
 3060SOL    HW1 9210   1.940   4.981   2.984
 3060SOL    HW2 9211   1.862   4.941   2.846
 3061SOL     OW 9212   3.588   3.859   2.385
 3061SOL    HW1 9213   3.661   3.842   2.318
 3061SOL    HW2 9214   3.557   3.772   2.423
 3062SOL     OW 9215   3.142   4.651   2.534
 3062SOL    HW1 9216   3.202   4.570   2.536
 3062SOL    HW2 9217   3.182   4.720   2.474
 3063SOL     OW 9218   2.692   4.997   3.284
 3063SOL    HW1 9219   2.687   5.030   3.379
 3063SOL    HW2 9220   2.606   5.016   3.238
 3064SOL     OW 9221   3.703   3.899   2.825
 3064SOL    HW1 9222   3.742   3.814   2.789
 3064SOL    HW2 9223   3.605   3.901   2.806
 3065SOL     OW 9224   2.125   4.050   2.582
 3065SOL    HW1 9225   2.046   4.101   2.548
 3065SOL    HW2 9226   2.116   4.035   2.680
 3066SOL     OW 9227   2.684   4.726   3.234
 3066SOL    HW1 9228   2.724   4.725   3.142
 3066SOL    HW2 9229   2.694   4.818   3.274
 3067SOL     OW 9230   2.778   4.634   2.153
 3067SOL    HW1 9231   2.841   4.672   2.085
 3067SOL    HW2 9232   2.818   4.551   2.192
 3068SOL     OW 9233   2.234   5.012   3.352
 3068SOL    HW1 9234   2.221   5.105   3.318
 3068SOL    HW2 9235   2.150   4.960   3.339
 3069SOL     OW 9236   3.476   5.016   3.151
 3069SOL    HW1 9237   3.536   5.019   3.231
 3069SOL    HW2 9238   3.401   5.080   3.164
 3070SOL     OW 9239   2.901   4.822   2.558
 3070SOL    HW1 9240   2.831   4.775   2.612
 3070SOL    HW2 9241   2.960   4.754   2.515
 3071SOL     OW 9242   2.876   3.960   2.833
 3071SOL    HW1 9243   2.868   3.924   2.740
 3071SOL    HW2 9244   2.874   3.884   2.898
 3072SOL     OW 9245   3.571   4.109   3.243
 3072SOL    HW1 9246   3.644   4.178   3.247
 3072SOL    HW2 9247   3.599   4.034   3.184
 3073SOL     OW 9248   1.967   4.737   3.588
 3073SOL    HW1 9249   1.890   4.704   3.642
 3073SOL    HW2 9250   2.052   4.707   3.630
 3074SOL     OW 9251   2.534   3.927   3.351
 3074SOL    HW1 9252   2.624   3.911   3.311
 3074SOL    HW2 9253   2.542   3.932   3.450
 3075SOL     OW 9254   1.937   4.069   1.895
 3075SOL    HW1 9255   1.845   4.041   1.866
 3075SOL    HW2 9256   1.968   4.146   1.839
 3076SOL     OW 9257   3.302   4.580   3.260
 3076SOL    HW1 9258   3.245   4.632   3.197
 3076SOL    HW2 9259   3.398   4.592   3.236
 3077SOL     OW 9260   1.934   3.890   2.180
 3077SOL    HW1 9261   1.917   3.973   2.126
 3077SOL    HW2 9262   2.024   3.853   2.158
 3078SOL     OW 9263   2.475   4.566   3.293
 3078SOL    HW1 9264   2.531   4.647   3.276
 3078SOL    HW2 9265   2.534   4.486   3.296
 3079SOL     OW 9266   2.578   4.289   3.570
 3079SOL    HW1 9267   2.597   4.354   3.644
 3079SOL    HW2 9268   2.638   4.209   3.579
 3080SOL     OW 9269   3.312   4.944   3.495
 3080SOL    HW1 9270   3.303   4.934   3.594
 3080SOL    HW2 9271   3.408   4.937   3.469
 3081SOL     OW 9272   3.536   4.607   3.116
 3081SOL    HW1 9273   3.509   4.518   3.079
 3081SOL    HW2 9274   3.537   4.675   3.043
 3082SOL     OW 9275   3.087   4.049   2.311
 3082SOL    HW1 9276   3.152   3.975   2.300
 3082SOL    HW2 9277   3.107   4.099   2.395
 3083SOL     OW 9278   2.456   4.469   2.514
 3083SOL    HW1 9279   2.506   4.554   2.495
 3083SOL    HW2 9280   2.368   4.471   2.466
 3084SOL     OW 9281   3.639   4.066   3.504
 3084SOL    HW1 9282   3.622   4.097   3.410
 3084SOL    HW2 9283   3.555   4.029   3.542
 3085SOL     OW 9284   3.592   4.658   3.379
 3085SOL    HW1 9285   3.630   4.749   3.394
 3085SOL    HW2 9286   3.584   4.641   3.280
 3086SOL     OW 9287   2.721   5.098   1.878
 3086SOL    HW1 9288   2.675   5.113   1.966
 3086SOL    HW2 9289   2.765   5.183   1.848
 3087SOL     OW 9290   2.721   4.680   2.723
 3087SOL    HW1 9291   2.775   4.611   2.771
 3087SOL    HW2 9292   2.689   4.749   2.789
 3088SOL     OW 9293   2.945   4.708   1.949
 3088SOL    HW1 9294   2.922   4.761   1.867
 3088SOL    HW2 9295   3.026   4.652   1.930
 3089SOL     OW 9296   2.083   5.038   3.706
 3089SOL    HW1 9297   2.018   4.965   3.685
 3089SOL    HW2 9298   2.087   5.052   3.804
 3090SOL     OW 9299   1.941   4.964   2.515
 3090SOL    HW1 9300   1.940   4.917   2.603
 3090SOL    HW2 9301   2.023   4.936   2.464
 3091SOL     OW 9302   2.534   5.115   3.486
 3091SOL    HW1 9303   2.456   5.065   3.524
 3091SOL    HW2 9304   2.531   5.210   3.517
 3092SOL     OW 9305   3.686   3.916   3.089
 3092SOL    HW1 9306   3.682   3.826   3.133
 3092SOL    HW2 9307   3.689   3.905   2.990
 3093SOL     OW 9308   2.290   4.148   2.382
 3093SOL    HW1 9309   2.320   4.076   2.320
 3093SOL    HW2 9310   2.251   4.108   2.465
 3094SOL     OW 9311   3.567   5.211   2.966
 3094SOL    HW1 9312   3.474   5.186   2.939
 3094SOL    HW2 9313   3.593   5.161   3.048
 3095SOL     OW 9314   2.179   4.271   3.142
 3095SOL    HW1 9315   2.217   4.212   3.214
 3095SOL    HW2 9316   2.219   4.245   3.054
 3096SOL     OW 9317   3.286   3.938   2.974
 3096SOL    HW1 9318   3.338   3.873   3.029
 3096SOL    HW2 9319   3.237   4.001   3.035
 3097SOL     OW 9320   2.863   3.758   3.016
 3097SOL    HW1 9321   2.800   3.686   2.985
 3097SOL    HW2 9322   2.956   3.722   3.016
 3098SOL     OW 9323   2.632   5.054   2.163
 3098SOL    HW1 9324   2.586   4.967   2.180
 3098SOL    HW2 9325   2.723   5.051   2.204
 3099SOL     OW 9326   3.214   3.776   2.030
 3099SOL    HW1 9327   3.249   3.735   1.946
 3099SOL    HW2 9328   3.124   3.738   2.050
 3100SOL     OW 9329   3.162   4.177   2.553
 3100SOL    HW1 9330   3.103   4.257   2.557
 3100SOL    HW2 9331   3.177   4.142   2.646
 3101SOL     OW 9332   3.455   3.945   2.744
 3101SOL    HW1 9333   3.371   3.944   2.798
 3101SOL    HW2 9334   3.457   4.028   2.688
 3102SOL     OW 9335   1.901   4.801   2.162
 3102SOL    HW1 9336   2.000   4.790   2.153
 3102SOL    HW2 9337   1.861   4.715   2.194
 3103SOL     OW 9338   2.092   4.352   3.837
 3103SOL    HW1 9339   1.999   4.350   3.874
 3103SOL    HW2 9340   2.093   4.313   3.745
 3104SOL     OW 9341   2.087   3.999   4.720
 3104SOL    HW1 9342   2.122   3.982   4.812
 3104SOL    HW2 9343   1.999   3.954   4.708
 3105SOL     OW 9344   1.881   4.092   4.371
 3105SOL    HW1 9345   1.799   4.135   4.410
 3105SOL    HW2 9346   1.853   4.019   4.308
 3106SOL     OW 9347   2.431   4.999   4.889
 3106SOL    HW1 9348   2.338   4.992   4.852
 3106SOL    HW2 9349   2.442   5.088   4.933
 3107SOL     OW 9350   3.417   5.235   4.427
 3107SOL    HW1 9351   3.360   5.219   4.508
 3107SOL    HW2 9352   3.358   5.245   4.347
 3108SOL     OW 9353   2.997   4.427   4.441
 3108SOL    HW1 9354   3.054   4.505   4.416
 3108SOL    HW2 9355   2.937   4.453   4.517
 3109SOL     OW 9356   3.617   4.331   3.955
 3109SOL    HW1 9357   3.605   4.318   3.856
 3109SOL    HW2 9358   3.587   4.250   4.004
 3110SOL     OW 9359   2.630   4.868   4.747
 3110SOL    HW1 9360   2.552   4.885   4.807
 3110SOL    HW2 9361   2.664   4.955   4.711
 3111SOL     OW 9362   2.547   4.736   4.389
 3111SOL    HW1 9363   2.616   4.720   4.459
 3111SOL    HW2 9364   2.474   4.793   4.427
 3112SOL     OW 9365   2.197   5.159   4.785
 3112SOL    HW1 9366   2.119   5.128   4.732
 3112SOL    HW2 9367   2.255   5.217   4.728
 3113SOL     OW 9368   2.300   4.116   5.223
 3113SOL    HW1 9369   2.382   4.060   5.232
 3113SOL    HW2 9370   2.219   4.058   5.227
 3114SOL     OW 9371   3.465   4.171   4.461
 3114SOL    HW1 9372   3.391   4.217   4.411
 3114SOL    HW2 9373   3.516   4.239   4.514
 3115SOL     OW 9374   2.102   4.815   4.610
 3115SOL    HW1 9375   2.116   4.731   4.662
 3115SOL    HW2 9376   2.047   4.879   4.665
 3116SOL     OW 9377   2.468   4.688   3.847
 3116SOL    HW1 9378   2.475   4.772   3.793
 3116SOL    HW2 9379   2.514   4.701   3.935
 3117SOL     OW 9380   1.984   4.367   4.287
 3117SOL    HW1 9381   1.939   4.279   4.304
 3117SOL    HW2 9382   1.983   4.421   4.371
 3118SOL     OW 9383   3.551   4.646   4.336
 3118SOL    HW1 9384   3.646   4.617   4.344
 3118SOL    HW2 9385   3.543   4.711   4.261
 3119SOL     OW 9386   3.503   4.832   4.156
 3119SOL    HW1 9387   3.589   4.834   4.104
 3119SOL    HW2 9388   3.517   4.879   4.244
 3120SOL     OW 9389   2.475   5.089   4.450
 3120SOL    HW1 9390   2.426   5.002   4.459
 3120SOL    HW2 9391   2.452   5.132   4.363
 3121SOL     OW 9392   2.671   3.728   4.226
 3121SOL    HW1 9393   2.711   3.819   4.217
 3121SOL    HW2 9394   2.571   3.736   4.232
 3122SOL     OW 9395   2.059   4.700   4.988
 3122SOL    HW1 9396   2.148   4.655   4.974
 3122SOL    HW2 9397   1.986   4.635   4.969
 3123SOL     OW 9398   3.387   4.723   3.914
 3123SOL    HW1 9399   3.324   4.647   3.927
 3123SOL    HW2 9400   3.435   4.741   4.000
 3124SOL     OW 9401   3.328   5.141   4.677
 3124SOL    HW1 9402   3.269   5.147   4.757
 3124SOL    HW2 9403   3.313   5.053   4.631
 3125SOL     OW 9404   2.460   4.453   3.994
 3125SOL    HW1 9405   2.484   4.522   3.926
 3125SOL    HW2 9406   2.382   4.486   4.048
 3126SOL     OW 9407   3.143   4.069   4.668
 3126SOL    HW1 9408   3.057   4.019   4.655
 3126SOL    HW2 9409   3.205   4.015   4.724
 3127SOL     OW 9410   2.669   4.329   5.189
 3127SOL    HW1 9411   2.622   4.326   5.278
 3127SOL    HW2 9412   2.618   4.274   5.123
 3128SOL     OW 9413   2.853   4.134   4.966
 3128SOL    HW1 9414   2.776   4.168   5.020
 3128SOL    HW2 9415   2.819   4.083   4.887
 3129SOL     OW 9416   2.903   4.425   4.153
 3129SOL    HW1 9417   2.929   4.421   4.249
 3129SOL    HW2 9418   2.818   4.374   4.139
 3130SOL     OW 9419   1.938   4.535   4.513
 3130SOL    HW1 9420   2.037   4.523   4.522
 3130SOL    HW2 9421   1.914   4.630   4.534
 3131SOL     OW 9422   2.727   4.072   3.919
 3131SOL    HW1 9423   2.786   4.135   3.870
 3131SOL    HW2 9424   2.746   3.978   3.890
 3132SOL     OW 9425   3.224   4.868   4.269
 3132SOL    HW1 9426   3.307   4.839   4.221
 3132SOL    HW2 9427   3.175   4.935   4.213
 3133SOL     OW 9428   2.412   3.920   4.609
 3133SOL    HW1 9429   2.407   3.915   4.709
 3133SOL    HW2 9430   2.414   4.016   4.580
 3134SOL     OW 9431   3.657   4.790   4.597
 3134SOL    HW1 9432   3.595   4.775   4.521
 3134SOL    HW2 9433   3.605   4.801   4.682
 3135SOL     OW 9434   2.183   4.667   3.966
 3135SOL    HW1 9435   2.265   4.706   3.924
 3135SOL    HW2 9436   2.156   4.585   3.917
 3136SOL     OW 9437   3.320   4.459   4.452
 3136SOL    HW1 9438   3.315   4.394   4.527
 3136SOL    HW2 9439   3.400   4.518   4.465
 3137SOL     OW 9440   3.494   5.101   3.805
 3137SOL    HW1 9441   3.462   5.195   3.795
 3137SOL    HW2 9442   3.418   5.038   3.793
 3138SOL     OW 9443   3.262   3.831   4.150
 3138SOL    HW1 9444   3.238   3.794   4.060
 3138SOL    HW2 9445   3.361   3.847   4.154
 3139SOL     OW 9446   2.244   4.424   4.204
 3139SOL    HW1 9447   2.289   4.334   4.201
 3139SOL    HW2 9448   2.150   4.413   4.237
 3140SOL     OW 9449   2.476   3.846   3.841
 3140SOL    HW1 9450   2.574   3.824   3.848
 3140SOL    HW2 9451   2.445   3.829   3.748
 3141SOL     OW 9452   2.784   4.227   4.623
 3141SOL    HW1 9453   2.759   4.218   4.527
 3141SOL    HW2 9454   2.832   4.145   4.654
 3142SOL     OW 9455   2.401   3.788   4.236
 3142SOL    HW1 9456   2.320   3.789   4.294
 3142SOL    HW2 9457   2.404   3.871   4.181
 3143SOL     OW 9458   3.296   4.912   3.765
 3143SOL    HW1 9459   3.328   4.836   3.822
 3143SOL    HW2 9460   3.204   4.939   3.795
 3144SOL     OW 9461   2.159   3.759   3.895
 3144SOL    HW1 9462   2.208   3.843   3.874
 3144SOL    HW2 9463   2.221   3.694   3.940
 3145SOL     OW 9464   2.797   3.960   4.204
 3145SOL    HW1 9465   2.749   4.001   4.126
 3145SOL    HW2 9466   2.896   3.958   4.185
 3146SOL     OW 9467   3.089   5.294   4.517
 3146SOL    HW1 9468   3.110   5.368   4.452
 3146SOL    HW2 9469   3.157   5.294   4.590
 3147SOL     OW 9470   2.321   4.876   4.465
 3147SOL    HW1 9471   2.250   4.849   4.530
 3147SOL    HW2 9472   2.295   4.848   4.372
 3148SOL     OW 9473   2.894   4.273   3.740
 3148SOL    HW1 9474   2.853   4.355   3.701
 3148SOL    HW2 9475   2.958   4.299   3.813
 3149SOL     OW 9476   2.423   3.946   4.871
 3149SOL    HW1 9477   2.461   3.862   4.908
 3149SOL    HW2 9478   2.335   3.965   4.915
 3150SOL     OW 9479   2.728   4.178   4.366
 3150SOL    HW1 9480   2.696   4.250   4.304
 3150SOL    HW2 9481   2.752   4.097   4.313
 3151SOL     OW 9482   2.879   3.763   4.477
 3151SOL    HW1 9483   2.807   3.768   4.408
 3151SOL    HW2 9484   2.855   3.694   4.546
 3152SOL     OW 9485   3.291   4.897   4.591
 3152SOL    HW1 9486   3.236   4.813   4.584
 3152SOL    HW2 9487   3.317   4.926   4.499
 3153SOL     OW 9488   3.328   4.314   4.716
 3153SOL    HW1 9489   3.298   4.219   4.723
 3153SOL    HW2 9490   3.401   4.330   4.782
 3154SOL     OW 9491   3.719   4.557   4.101
 3154SOL    HW1 9492   3.761   4.493   4.165
 3154SOL    HW2 9493   3.681   4.506   4.023
 3155SOL     OW 9494   3.526   5.004   4.381
 3155SOL    HW1 9495   3.625   5.012   4.395
 3155SOL    HW2 9496   3.481   5.088   4.412
 3156SOL     OW 9497   3.252   4.299   3.802
 3156SOL    HW1 9498   3.198   4.278   3.883
 3156SOL    HW2 9499   3.343   4.258   3.811
 3157SOL     OW 9500   2.389   3.980   4.052
 3157SOL    HW1 9501   2.416   3.921   3.977
 3157SOL    HW2 9502   2.389   4.075   4.021
 3158SOL     OW 9503   3.616   4.947   5.312
 3158SOL    HW1 9504   3.707   4.908   5.299
 3158SOL    HW2 9505   3.624   5.043   5.336
 3159SOL     OW 9506   2.926   5.071   5.064
 3159SOL    HW1 9507   2.846   5.048   5.119
 3159SOL    HW2 9508   3.009   5.045   5.113
 3160SOL     OW 9509   2.973   4.919   4.824
 3160SOL    HW1 9510   2.933   4.963   4.905
 3160SOL    HW2 9511   2.932   4.956   4.741
 3161SOL     OW 9512   3.500   4.823   4.803
 3161SOL    HW1 9513   3.505   4.904   4.862
 3161SOL    HW2 9514   3.414   4.825   4.752
 3162SOL     OW 9515   2.567   4.774   4.092
 3162SOL    HW1 9516   2.553   4.781   4.191
 3162SOL    HW2 9517   2.651   4.723   4.074
 3163SOL     OW 9518   2.272   4.537   4.975
 3163SOL    HW1 9519   2.358   4.549   5.025
 3163SOL    HW2 9520   2.230   4.450   5.002
 3164SOL     OW 9521   3.136   4.110   4.986
 3164SOL    HW1 9522   3.157   4.184   5.050
 3164SOL    HW2 9523   3.047   4.127   4.943
 3165SOL     OW 9524   2.229   4.824   4.225
 3165SOL    HW1 9525   2.222   4.907   4.169
 3165SOL    HW2 9526   2.233   4.744   4.165
 3166SOL     OW 9527   2.428   4.261   4.589
 3166SOL    HW1 9528   2.440   4.327   4.515
 3166SOL    HW2 9529   2.474   4.295   4.672
 3167SOL     OW 9530   3.114   5.072   4.112
 3167SOL    HW1 9531   3.164   5.149   4.152
 3167SOL    HW2 9532   3.019   5.074   4.144
 3168SOL     OW 9533   3.444   4.363   4.196
 3168SOL    HW1 9534   3.413   4.424   4.269
 3168SOL    HW2 9535   3.494   4.415   4.127
 3169SOL     OW 9536   2.435   4.594   4.753
 3169SOL    HW1 9537   2.479   4.683   4.744
 3169SOL    HW2 9538   2.372   4.594   4.830
 3170SOL     OW 9539   3.222   4.586   4.769
 3170SOL    HW1 9540   3.147   4.586   4.703
 3170SOL    HW2 9541   3.259   4.494   4.778
 3171SOL     OW 9542   3.071   4.249   3.999
 3171SOL    HW1 9543   3.084   4.165   4.053
 3171SOL    HW2 9544   3.042   4.323   4.059
 3172SOL     OW 9545   2.169   3.937   4.955
 3172SOL    HW1 9546   2.146   3.974   5.045
 3172SOL    HW2 9547   2.139   3.842   4.949
 3173SOL     OW 9548   1.899   5.034   5.006
 3173SOL    HW1 9549   1.952   4.985   5.074
 3173SOL    HW2 9550   1.921   5.132   5.011
 3174SOL     OW 9551   2.594   4.358   4.788
 3174SOL    HW1 9552   2.653   4.332   4.712
 3174SOL    HW2 9553   2.566   4.454   4.777
 3175SOL     OW 9554   2.169   3.787   4.342
 3175SOL    HW1 9555   2.158   3.881   4.375
 3175SOL    HW2 9556   2.164   3.724   4.419
 3176SOL     OW 9557   3.484   4.091   4.098
 3176SOL    HW1 9558   3.486   4.015   4.162
 3176SOL    HW2 9559   3.436   4.168   4.138
 3177SOL     OW 9560   2.885   4.490   4.690
 3177SOL    HW1 9561   2.900   4.511   4.786
 3177SOL    HW2 9562   2.855   4.395   4.681
 3178SOL     OW 9563   3.402   3.998   3.849
 3178SOL    HW1 9564   3.341   3.923   3.872
 3178SOL    HW2 9565   3.424   4.050   3.932
 3179SOL     OW 9566   3.165   4.562   3.766
 3179SOL    HW1 9567   3.199   4.469   3.781
 3179SOL    HW2 9568   3.183   4.589   3.671
 3180SOL     OW 9569   2.181   4.534   4.673
 3180SOL    HW1 9570   2.274   4.570   4.678
 3180SOL    HW2 9571   2.175   4.449   4.725
 3181SOL     OW 9572   2.201   4.233   4.730
 3181SOL    HW1 9573   2.149   4.150   4.713
 3181SOL    HW2 9574   2.278   4.238   4.666
 3182SOL     OW 9575   3.022   3.931   5.201
 3182SOL    HW1 9576   3.022   3.995   5.278
 3182SOL    HW2 9577   3.050   3.979   5.118
 3183SOL     OW 9578   1.870   5.050   3.924
 3183SOL    HW1 9579   1.777   5.071   3.893
 3183SOL    HW2 9580   1.880   4.951   3.937
 3184SOL     OW 9581   2.864   4.520   4.962
 3184SOL    HW1 9582   2.905   4.488   5.048
 3184SOL    HW2 9583   2.768   4.493   4.959
 3185SOL     OW 9584   1.902   4.268   4.838
 3185SOL    HW1 9585   1.987   4.235   4.797
 3185SOL    HW2 9586   1.915   4.283   4.936
 3186SOL     OW 9587   2.677   4.296   4.049
 3186SOL    HW1 9588   2.684   4.207   4.003
 3186SOL    HW2 9589   2.583   4.330   4.041
 3187SOL     OW 9590   3.519   4.328   4.930
 3187SOL    HW1 9591   3.481   4.259   4.992
 3187SOL    HW2 9592   3.601   4.292   4.886
 3188SOL     OW 9593   2.533   4.188   4.993
 3188SOL    HW1 9594   2.499   4.099   4.963
 3188SOL    HW2 9595   2.559   4.242   4.913
 3189SOL     OW 9596   2.335   4.224   3.915
 3189SOL    HW1 9597   2.396   4.304   3.919
 3189SOL    HW2 9598   2.240   4.255   3.922
 3190SOL     OW 9599   2.021   4.861   5.190
 3190SOL    HW1 9600   2.043   4.800   5.266
 3190SOL    HW2 9601   2.031   4.812   5.104
 3191SOL     OW 9602   3.209   4.783   4.958
 3191SOL    HW1 9603   3.233   4.720   4.884
 3191SOL    HW2 9604   3.119   4.823   4.940
 3192SOL     OW 9605   3.164   4.579   4.033
 3192SOL    HW1 9606   3.078   4.548   4.075
 3192SOL    HW2 9607   3.160   4.565   3.934
 3193SOL     OW 9608   1.945   4.982   4.746
 3193SOL    HW1 9609   1.940   4.981   4.846
 3193SOL    HW2 9610   1.862   4.941   4.708
 3194SOL     OW 9611   3.588   3.859   4.247
 3194SOL    HW1 9612   3.661   3.842   4.180
 3194SOL    HW2 9613   3.557   3.772   4.285
 3195SOL     OW 9614   3.142   4.651   4.396
 3195SOL    HW1 9615   3.202   4.570   4.398
 3195SOL    HW2 9616   3.182   4.720   4.336
 3196SOL     OW 9617   2.692   4.997   5.146
 3196SOL    HW1 9618   2.687   5.030   5.241
 3196SOL    HW2 9619   2.606   5.016   5.100
 3197SOL     OW 9620   3.703   3.899   4.687
 3197SOL    HW1 9621   3.742   3.814   4.651
 3197SOL    HW2 9622   3.605   3.901   4.668
 3198SOL     OW 9623   2.125   4.050   4.444
 3198SOL    HW1 9624   2.046   4.101   4.410
 3198SOL    HW2 9625   2.116   4.035   4.542
 3199SOL     OW 9626   2.684   4.726   5.096
 3199SOL    HW1 9627   2.724   4.725   5.004
 3199SOL    HW2 9628   2.694   4.818   5.136
 3200SOL     OW 9629   2.778   4.634   4.015
 3200SOL    HW1 9630   2.841   4.672   3.947
 3200SOL    HW2 9631   2.818   4.551   4.054
 3201SOL     OW 9632   2.234   5.012   5.214
 3201SOL    HW1 9633   2.221   5.105   5.180
 3201SOL    HW2 9634   2.150   4.960   5.201
 3202SOL     OW 9635   3.476   5.016   5.013
 3202SOL    HW1 9636   3.536   5.019   5.093
 3202SOL    HW2 9637   3.401   5.080   5.026
 3203SOL     OW 9638   2.901   4.822   4.420
 3203SOL    HW1 9639   2.831   4.775   4.474
 3203SOL    HW2 9640   2.960   4.754   4.377
 3204SOL     OW 9641   2.876   3.960   4.695
 3204SOL    HW1 9642   2.868   3.924   4.602
 3204SOL    HW2 9643   2.874   3.884   4.760
 3205SOL     OW 9644   3.571   4.109   5.105
 3205SOL    HW1 9645   3.644   4.178   5.109
 3205SOL    HW2 9646   3.599   4.034   5.046
 3206SOL     OW 9647   2.534   3.927   5.213
 3206SOL    HW1 9648   2.624   3.911   5.173
 3206SOL    HW2 9649   2.542   3.932   5.312
 3207SOL     OW 9650   1.937   4.069   3.757
 3207SOL    HW1 9651   1.845   4.041   3.728
 3207SOL    HW2 9652   1.968   4.146   3.701
 3208SOL     OW 9653   1.934   3.890   4.042
 3208SOL    HW1 9654   1.917   3.973   3.988
 3208SOL    HW2 9655   2.024   3.853   4.020
 3209SOL     OW 9656   2.475   4.566   5.155
 3209SOL    HW1 9657   2.531   4.647   5.138
 3209SOL    HW2 9658   2.534   4.486   5.158
 3210SOL     OW 9659   3.536   4.607   4.978
 3210SOL    HW1 9660   3.509   4.518   4.941
 3210SOL    HW2 9661   3.537   4.675   4.905
 3211SOL     OW 9662   3.087   4.049   4.173
 3211SOL    HW1 9663   3.152   3.975   4.162
 3211SOL    HW2 9664   3.107   4.099   4.257
 3212SOL     OW 9665   2.456   4.469   4.376
 3212SOL    HW1 9666   2.506   4.554   4.357
 3212SOL    HW2 9667   2.368   4.471   4.328
 3213SOL     OW 9668   3.592   4.658   5.241
 3213SOL    HW1 9669   3.630   4.749   5.256
 3213SOL    HW2 9670   3.584   4.641   5.142
 3214SOL     OW 9671   2.721   5.098   3.740
 3214SOL    HW1 9672   2.675   5.113   3.828
 3214SOL    HW2 9673   2.765   5.183   3.710
 3215SOL     OW 9674   2.721   4.680   4.585
 3215SOL    HW1 9675   2.775   4.611   4.633
 3215SOL    HW2 9676   2.689   4.749   4.651
 3216SOL     OW 9677   2.945   4.708   3.811
 3216SOL    HW1 9678   2.922   4.761   3.729
 3216SOL    HW2 9679   3.026   4.652   3.792
 3217SOL     OW 9680   1.941   4.964   4.377
 3217SOL    HW1 9681   1.940   4.917   4.465
 3217SOL    HW2 9682   2.023   4.936   4.326
 3218SOL     OW 9683   3.686   3.916   4.951
 3218SOL    HW1 9684   3.682   3.826   4.995
 3218SOL    HW2 9685   3.689   3.905   4.852
 3219SOL     OW 9686   2.290   4.148   4.244
 3219SOL    HW1 9687   2.320   4.076   4.182
 3219SOL    HW2 9688   2.251   4.108   4.327
 3220SOL     OW 9689   3.567   5.211   4.828
 3220SOL    HW1 9690   3.474   5.186   4.801
 3220SOL    HW2 9691   3.593   5.161   4.910
 3221SOL     OW 9692   2.179   4.271   5.004
 3221SOL    HW1 9693   2.217   4.212   5.076
 3221SOL    HW2 9694   2.219   4.245   4.916
 3222SOL     OW 9695   3.286   3.938   4.836
 3222SOL    HW1 9696   3.338   3.873   4.891
 3222SOL    HW2 9697   3.237   4.001   4.897
 3223SOL     OW 9698   2.863   3.758   4.878
 3223SOL    HW1 9699   2.800   3.686   4.847
 3223SOL    HW2 9700   2.956   3.722   4.878
 3224SOL     OW 9701   2.632   5.054   4.025
 3224SOL    HW1 9702   2.586   4.967   4.042
 3224SOL    HW2 9703   2.723   5.051   4.066
 3225SOL     OW 9704   3.214   3.776   3.892
 3225SOL    HW1 9705   3.249   3.735   3.808
 3225SOL    HW2 9706   3.124   3.738   3.912
 3226SOL     OW 9707   3.162   4.177   4.415
 3226SOL    HW1 9708   3.103   4.257   4.419
 3226SOL    HW2 9709   3.177   4.142   4.508
 3227SOL     OW 9710   3.455   3.945   4.606
 3227SOL    HW1 9711   3.371   3.944   4.660
 3227SOL    HW2 9712   3.457   4.028   4.550
 3228SOL     OW 9713   1.901   4.801   4.024
 3228SOL    HW1 9714   2.000   4.790   4.015
 3228SOL    HW2 9715   1.861   4.715   4.056
 3229SOL     OW 9716   3.954   0.628   0.113
 3229SOL    HW1 9717   3.861   0.626   0.150
 3229SOL    HW2 9718   3.955   0.589   0.021
 3230SOL     OW 9719   3.949   0.275   0.996
 3230SOL    HW1 9720   3.984   0.258   1.088
 3230SOL    HW2 9721   3.861   0.230   0.984
 3231SOL     OW 9722   3.743   0.368   0.647
 3231SOL    HW1 9723   3.661   0.411   0.686
 3231SOL    HW2 9724   3.715   0.295   0.584
 3232SOL     OW 9725   4.293   1.275   1.165
 3232SOL    HW1 9726   4.200   1.268   1.128
 3232SOL    HW2 9727   4.304   1.364   1.209
 3233SOL     OW 9728   5.279   1.511   0.703
 3233SOL    HW1 9729   5.222   1.495   0.784
 3233SOL    HW2 9730   5.220   1.521   0.623
 3234SOL     OW 9731   4.859   0.703   0.717
 3234SOL    HW1 9732   4.916   0.781   0.692
 3234SOL    HW2 9733   4.799   0.729   0.793
 3235SOL     OW 9734   4.492   1.144   1.023
 3235SOL    HW1 9735   4.414   1.161   1.083
 3235SOL    HW2 9736   4.526   1.231   0.987
 3236SOL     OW 9737   4.574   0.798   1.823
 3236SOL    HW1 9738   4.570   0.874   1.888
 3236SOL    HW2 9739   4.596   0.834   1.732
 3237SOL     OW 9740   4.409   1.012   0.665
 3237SOL    HW1 9741   4.478   0.996   0.735
 3237SOL    HW2 9742   4.336   1.069   0.703
 3238SOL     OW 9743   4.410   1.161   1.803
 3238SOL    HW1 9744   4.470   1.240   1.817
 3238SOL    HW2 9745   4.324   1.192   1.762
 3239SOL     OW 9746   4.059   1.435   1.061
 3239SOL    HW1 9747   3.981   1.404   1.008
 3239SOL    HW2 9748   4.117   1.493   1.004
 3240SOL     OW 9749   4.162   0.392   1.499
 3240SOL    HW1 9750   4.244   0.336   1.508
 3240SOL    HW2 9751   4.081   0.334   1.503
 3241SOL     OW 9752   3.955   1.713   0.483
 3241SOL    HW1 9753   3.989   1.790   0.537
 3241SOL    HW2 9754   3.999   1.713   0.393
 3242SOL     OW 9755   4.851   1.341   1.690
 3242SOL    HW1 9756   4.898   1.341   1.778
 3242SOL    HW2 9757   4.803   1.254   1.679
 3243SOL     OW 9758   3.954   1.434   0.538
 3243SOL    HW1 9759   3.928   1.530   0.538
 3243SOL    HW2 9760   3.883   1.380   0.583
 3244SOL     OW 9761   3.964   1.091   0.886
 3244SOL    HW1 9762   3.978   1.007   0.938
 3244SOL    HW2 9763   3.909   1.155   0.941
 3245SOL     OW 9764   4.344   1.786   1.439
 3245SOL    HW1 9765   4.252   1.769   1.474
 3245SOL    HW2 9766   4.372   1.878   1.465
 3246SOL     OW 9767   4.330   0.964   0.123
 3246SOL    HW1 9768   4.337   1.048   0.069
 3246SOL    HW2 9769   4.376   0.977   0.211
 3247SOL     OW 9770   3.846   0.643   0.563
 3247SOL    HW1 9771   3.801   0.555   0.580
 3247SOL    HW2 9772   3.845   0.697   0.647
 3248SOL     OW 9773   3.751   1.596   0.117
 3248SOL    HW1 9774   3.732   1.500   0.138
 3248SOL    HW2 9775   3.718   1.654   0.192
 3249SOL     OW 9776   5.413   0.922   0.612
 3249SOL    HW1 9777   5.508   0.893   0.620
 3249SOL    HW2 9778   5.405   0.987   0.537
 3250SOL     OW 9779   3.837   0.737   1.597
 3250SOL    HW1 9780   3.925   0.724   1.642
 3250SOL    HW2 9781   3.824   0.834   1.575
 3251SOL     OW 9782   4.337   1.365   0.726
 3251SOL    HW1 9783   4.288   1.278   0.735
 3251SOL    HW2 9784   4.314   1.408   0.639
 3252SOL     OW 9785   5.017   1.228   1.423
 3252SOL    HW1 9786   5.054   1.155   1.365
 3252SOL    HW2 9787   5.069   1.233   1.508
 3253SOL     OW 9788   4.533   0.004   0.502
 3253SOL    HW1 9789   4.573   0.095   0.493
 3253SOL    HW2 9790   4.433   0.012   0.508
 3254SOL     OW 9791   3.921   0.976   1.264
 3254SOL    HW1 9792   4.010   0.931   1.250
 3254SOL    HW2 9793   3.848   0.911   1.245
 3255SOL     OW 9794   4.911   1.792   1.616
 3255SOL    HW1 9795   4.935   1.852   1.540
 3255SOL    HW2 9796   4.918   1.697   1.586
 3256SOL     OW 9797   4.041   0.251   1.801
 3256SOL    HW1 9798   4.112   0.322   1.807
 3256SOL    HW2 9799   3.953   0.290   1.829
 3257SOL     OW 9800   4.322   0.729   0.270
 3257SOL    HW1 9801   4.346   0.798   0.202
 3257SOL    HW2 9802   4.244   0.762   0.324
 3258SOL     OW 9803   5.005   0.345   0.944
 3258SOL    HW1 9804   4.919   0.295   0.931
 3258SOL    HW2 9805   5.067   0.291   1.000
 3259SOL     OW 9806   4.531   0.605   1.465
 3259SOL    HW1 9807   4.484   0.602   1.554
 3259SOL    HW2 9808   4.480   0.550   1.399
 3260SOL     OW 9809   5.118   0.469   1.674
 3260SOL    HW1 9810   5.098   0.512   1.762
 3260SOL    HW2 9811   5.196   0.407   1.683
 3261SOL     OW 9812   4.697   0.890   1.572
 3261SOL    HW1 9813   4.743   0.806   1.543
 3261SOL    HW2 9814   4.641   0.924   1.497
 3262SOL     OW 9815   4.715   0.410   1.242
 3262SOL    HW1 9816   4.638   0.444   1.296
 3262SOL    HW2 9817   4.681   0.359   1.163
 3263SOL     OW 9818   4.765   0.701   0.429
 3263SOL    HW1 9819   4.791   0.697   0.525
 3263SOL    HW2 9820   4.680   0.650   0.415
 3264SOL     OW 9821   3.800   0.811   0.789
 3264SOL    HW1 9822   3.899   0.799   0.798
 3264SOL    HW2 9823   3.776   0.906   0.810
 3265SOL     OW 9824   3.854   1.821   1.571
 3265SOL    HW1 9825   3.844   1.806   1.670
 3265SOL    HW2 9826   3.768   1.857   1.535
 3266SOL     OW 9827   4.589   0.348   0.195
 3266SOL    HW1 9828   4.648   0.411   0.146
 3266SOL    HW2 9829   4.608   0.254   0.166
 3267SOL     OW 9830   5.086   1.144   0.545
 3267SOL    HW1 9831   5.169   1.115   0.497
 3267SOL    HW2 9832   5.037   1.211   0.489
 3268SOL     OW 9833   4.274   0.196   0.885
 3268SOL    HW1 9834   4.269   0.191   0.985
 3268SOL    HW2 9835   4.276   0.292   0.856
 3269SOL     OW 9836   4.732   1.456   0.477
 3269SOL    HW1 9837   4.686   1.528   0.425
 3269SOL    HW2 9838   4.728   1.476   0.575
 3270SOL     OW 9839   4.075   1.801   0.853
 3270SOL    HW1 9840   4.125   1.715   0.859
 3270SOL    HW2 9841   4.140   1.878   0.850
 3271SOL     OW 9842   4.951   1.550   1.506
 3271SOL    HW1 9843   4.957   1.473   1.570
 3271SOL    HW2 9844   4.899   1.524   1.426
 3272SOL     OW 9845   4.045   0.943   0.242
 3272SOL    HW1 9846   4.127   0.982   0.200
 3272SOL    HW2 9847   4.018   0.861   0.193
 3273SOL     OW 9848   4.185   1.266   1.727
 3273SOL    HW1 9849   4.135   1.267   1.641
 3273SOL    HW2 9850   4.122   1.248   1.803
 3274SOL     OW 9851   4.835   1.776   0.237
 3274SOL    HW1 9852   4.775   1.714   0.287
 3274SOL    HW2 9853   4.866   1.732   0.152
 3275SOL     OW 9854   3.926   0.285   1.498
 3275SOL    HW1 9855   3.846   0.345   1.485
 3275SOL    HW2 9856   3.916   0.236   1.584
 3276SOL     OW 9857   5.356   1.377   0.081
 3276SOL    HW1 9858   5.324   1.471   0.071
 3276SOL    HW2 9859   5.280   1.314   0.069
 3277SOL     OW 9860   4.188   1.743   0.323
 3277SOL    HW1 9861   4.221   1.782   0.409
 3277SOL    HW2 9862   4.264   1.736   0.258
 3278SOL     OW 9863   3.973   1.785   1.241
 3278SOL    HW1 9864   4.030   1.720   1.291
 3278SOL    HW2 9865   3.957   1.752   1.148
 3279SOL     OW 9866   4.664   1.698   0.904
 3279SOL    HW1 9867   4.744   1.641   0.925
 3279SOL    HW2 9868   4.615   1.658   0.827
 3280SOL     OW 9869   4.106   0.700   0.480
 3280SOL    HW1 9870   4.151   0.610   0.477
 3280SOL    HW2 9871   4.012   0.689   0.513
 3281SOL     OW 9872   4.338   0.122   0.117
 3281SOL    HW1 9873   4.436   0.100   0.124
 3281SOL    HW2 9874   4.307   0.105   0.024
 3282SOL     OW 9875   4.505   0.264   1.749
 3282SOL    HW1 9876   4.572   0.203   1.792
 3282SOL    HW2 9877   4.432   0.283   1.814
 3283SOL     OW 9878   4.612   1.514   1.195
 3283SOL    HW1 9879   4.589   1.489   1.101
 3283SOL    HW2 9880   4.673   1.445   1.234
 3284SOL     OW 9881   5.075   0.590   1.433
 3284SOL    HW1 9882   5.103   0.547   1.518
 3284SOL    HW2 9883   5.100   0.686   1.434
 3285SOL     OW 9884   4.527   1.402   0.924
 3285SOL    HW1 9885   4.617   1.416   0.882
 3285SOL    HW2 9886   4.456   1.404   0.853
 3286SOL     OW 9887   4.646   0.503   0.899
 3286SOL    HW1 9888   4.621   0.494   0.803
 3286SOL    HW2 9889   4.694   0.421   0.930
 3287SOL     OW 9890   4.263   0.064   0.512
 3287SOL    HW1 9891   4.182   0.065   0.570
 3287SOL    HW2 9892   4.266   0.147   0.457
 3288SOL     OW 9893   4.021   0.035   0.171
 3288SOL    HW1 9894   4.070   0.119   0.150
 3288SOL    HW2 9895   4.083  -0.030   0.216
 3289SOL     OW 9896   4.659   0.236   0.480
 3289SOL    HW1 9897   4.611   0.277   0.402
 3289SOL    HW2 9898   4.758   0.234   0.461
 3290SOL     OW 9899   4.800   0.683   1.464
 3290SOL    HW1 9900   4.720   0.622   1.467
 3290SOL    HW2 9901   4.881   0.630   1.440
 3291SOL     OW 9902   4.951   1.570   0.793
 3291SOL    HW1 9903   4.972   1.644   0.728
 3291SOL    HW2 9904   5.019   1.570   0.866
 3292SOL     OW 9905   4.183   1.152   0.741
 3292SOL    HW1 9906   4.112   1.125   0.806
 3292SOL    HW2 9907   4.157   1.124   0.648
 3293SOL     OW 9908   4.995   1.797   0.591
 3293SOL    HW1 9909   5.039   1.861   0.527
 3293SOL    HW2 9910   4.945   1.849   0.661
 3294SOL     OW 9911   4.756   0.549   0.016
 3294SOL    HW1 9912   4.715   0.631  -0.023
 3294SOL    HW2 9913   4.820   0.575   0.089
 3295SOL     OW 9914   3.802   0.556   1.386
 3295SOL    HW1 9915   3.894   0.555   1.345
 3295SOL    HW2 9916   3.796   0.630   1.453
 3296SOL     OW 9917   4.285   0.222   1.147
 3296SOL    HW1 9918   4.323   0.138   1.184
 3296SOL    HW2 9919   4.197   0.241   1.191
 3297SOL     OW 9920   4.590   0.454   0.642
 3297SOL    HW1 9921   4.558   0.526   0.580
 3297SOL    HW2 9922   4.614   0.373   0.589
 3298SOL     OW 9923   4.741   0.039   0.753
 3298SOL    HW1 9924   4.669   0.044   0.684
 3298SOL    HW2 9925   4.717  -0.030   0.822
 3299SOL     OW 9926   4.212   1.385   0.174
 3299SOL    HW1 9927   4.125   1.370   0.221
 3299SOL    HW2 9928   4.195   1.411   0.079
 3300SOL     OW 9929   5.114   0.575   0.078
 3300SOL    HW1 9930   5.060   0.554   0.159
 3300SOL    HW2 9931   5.205   0.534   0.087
 3301SOL     OW 9932   4.251   0.256   0.328
 3301SOL    HW1 9933   4.278   0.197   0.253
 3301SOL    HW2 9934   4.251   0.351   0.297
 3302SOL     OW 9935   4.788   1.347   1.340
 3302SOL    HW1 9936   4.708   1.324   1.395
 3302SOL    HW2 9937   4.871   1.321   1.389
 3303SOL     OW 9938   4.835   1.195   1.100
 3303SOL    HW1 9939   4.795   1.239   1.181
 3303SOL    HW2 9940   4.794   1.232   1.017
 3304SOL     OW 9941   4.639   0.089   1.402
 3304SOL    HW1 9942   4.664   0.069   1.307
 3304SOL    HW2 9943   4.711   0.145   1.444
 3305SOL     OW 9944   4.704   1.116   1.719
 3305SOL    HW1 9945   4.605   1.122   1.729
 3305SOL    HW2 9946   4.727   1.036   1.663
 3306SOL     OW 9947   4.429   1.050   0.368
 3306SOL    HW1 9948   4.415   1.057   0.467
 3306SOL    HW2 9949   4.513   0.999   0.350
 3307SOL     OW 9950   4.134   0.813   1.251
 3307SOL    HW1 9951   4.220   0.825   1.301
 3307SOL    HW2 9952   4.092   0.726   1.278
 3308SOL     OW 9953   4.998   0.386   1.262
 3308SOL    HW1 9954   5.019   0.460   1.326
 3308SOL    HW2 9955   4.909   0.403   1.219
 3309SOL     OW 9956   3.788   1.564   1.331
 3309SOL    HW1 9957   3.742   1.646   1.297
 3309SOL    HW2 9958   3.886   1.583   1.340
 3310SOL     OW 9959   4.091   1.100   0.501
 3310SOL    HW1 9960   4.084   1.183   0.445
 3310SOL    HW2 9961   4.095   1.020   0.441
 3311SOL     OW 9962   4.290   0.537   0.865
 3311SOL    HW1 9963   4.302   0.603   0.791
 3311SOL    HW2 9964   4.336   0.571   0.948
 3312SOL     OW 9965   4.976   1.348   0.388
 3312SOL    HW1 9966   5.026   1.425   0.428
 3312SOL    HW2 9967   4.881   1.350   0.420
 3313SOL     OW 9968   4.996   1.445   1.142
 3313SOL    HW1 9969   5.043   1.458   1.229
 3313SOL    HW2 9970   4.930   1.371   1.151
 3314SOL     OW 9971   4.078   1.510   1.329
 3314SOL    HW1 9972   4.057   1.466   1.242
 3314SOL    HW2 9973   4.175   1.536   1.332
 3315SOL     OW 9974   4.126   0.751   1.598
 3315SOL    HW1 9975   4.194   0.806   1.551
 3315SOL    HW2 9976   4.166   0.663   1.625
 3316SOL     OW 9977   4.737   0.105   1.770
 3316SOL    HW1 9978   4.743   0.190   1.718
 3316SOL    HW2 9979   4.769   0.029   1.713
 3317SOL     OW 9980   4.228   0.050   1.740
 3317SOL    HW1 9981   4.186  -0.007   1.670
 3317SOL    HW2 9982   4.162   0.119   1.772
 3318SOL     OW 9983   4.297   0.870   1.029
 3318SOL    HW1 9984   4.341   0.959   1.020
 3318SOL    HW2 9985   4.234   0.870   1.106
 3319SOL     OW 9986   5.084   0.862   1.045
 3319SOL    HW1 9987   5.009   0.862   0.979
 3319SOL    HW2 9988   5.121   0.770   1.054
 3320SOL     OW 9989   4.933   0.525   0.275
 3320SOL    HW1 9990   4.946   0.441   0.329
 3320SOL    HW2 9991   4.904   0.599   0.335
 3321SOL     OW 9992   4.031   0.213   1.231
 3321SOL    HW1 9993   4.008   0.250   1.321
 3321SOL    HW2 9994   4.001   0.118   1.225
 3322SOL     OW 9995   3.761   1.310   1.282
 3322SOL    HW1 9996   3.814   1.261   1.350
 3322SOL    HW2 9997   3.783   1.408   1.287
 3323SOL     OW 9998   4.456   0.634   1.064
 3323SOL    HW1 9999   4.515   0.608   0.988
 3323SOL    HW210000   4.428   0.730   1.053
 3324SOL     OW10001   4.031   0.063   0.618
 3324SOL    HW110002   4.020   0.157   0.651
 3324SOL    HW210003   4.026   0.000   0.695
 3325SOL     OW10004   5.346   0.367   0.374
 3325SOL    HW110005   5.348   0.291   0.438
 3325SOL    HW210006   5.298   0.444   0.414
 3326SOL     OW10007   4.747   0.766   0.966
 3326SOL    HW110008   4.762   0.787   1.062
 3326SOL    HW210009   4.717   0.671   0.957
 3327SOL     OW10010   4.704   1.573   1.700
 3327SOL    HW110011   4.684   1.617   1.612
 3327SOL    HW210012   4.743   1.482   1.684
 3328SOL     OW10013   4.074   0.898   1.804
 3328SOL    HW110014   4.150   0.942   1.852
 3328SOL    HW210015   4.109   0.851   1.722
 3329SOL     OW10016   5.027   0.838   0.042
 3329SOL    HW110017   5.061   0.745   0.057
 3329SOL    HW210018   5.045   0.865  -0.053
 3330SOL     OW10019   4.792   1.333   0.849
 3330SOL    HW110020   4.799   1.249   0.794
 3330SOL    HW210021   4.854   1.402   0.813
 3331SOL     OW10022   4.043   0.810   0.949
 3331SOL    HW110023   4.136   0.846   0.954
 3331SOL    HW210024   4.037   0.725   1.001
 3332SOL     OW10025   4.063   0.509   1.006
 3332SOL    HW110026   4.011   0.426   0.989
 3332SOL    HW210027   4.140   0.514   0.942
 3333SOL     OW10028   4.862   0.380   1.678
 3333SOL    HW110029   4.817   0.443   1.742
 3333SOL    HW210030   4.955   0.411   1.661
 3334SOL     OW10031   4.884   0.207   1.477
 3334SOL    HW110032   4.884   0.271   1.554
 3334SOL    HW210033   4.912   0.255   1.394
 3335SOL     OW10034   3.812   1.801   0.927
 3335SOL    HW110035   3.770   1.715   0.900
 3335SOL    HW210036   3.906   1.804   0.893
 3336SOL     OW10037   4.228   1.568   0.910
 3336SOL    HW110038   4.294   1.642   0.919
 3336SOL    HW210039   4.272   1.489   0.868
 3337SOL     OW10040   4.726   0.796   1.238
 3337SOL    HW110041   4.767   0.764   1.324
 3337SOL    HW210042   4.630   0.769   1.235
 3338SOL     OW10043   3.764   0.544   1.114
 3338SOL    HW110044   3.849   0.511   1.073
 3338SOL    HW210045   3.777   0.559   1.212
 3339SOL     OW10046   3.913   0.520   1.722
 3339SOL    HW110047   3.972   0.480   1.652
 3339SOL    HW210048   3.855   0.591   1.681
 3340SOL     OW10049   4.539   0.572   0.325
 3340SOL    HW110050   4.546   0.483   0.279
 3340SOL    HW210051   4.445   0.606   0.317
 3341SOL     OW10052   3.976   1.564   1.744
 3341SOL    HW110053   3.946   1.621   1.820
 3341SOL    HW210054   3.969   1.467   1.770
 3342SOL     OW10055   4.395   0.464   1.269
 3342SOL    HW110056   4.361   0.375   1.239
 3342SOL    HW210057   4.421   0.518   1.189
 3343SOL     OW10058   4.654   1.678   1.465
 3343SOL    HW110059   4.630   1.660   1.370
 3343SOL    HW210060   4.684   1.772   1.475
 3344SOL     OW10061   4.197   0.500   0.191
 3344SOL    HW110062   4.258   0.580   0.195
 3344SOL    HW210063   4.102   0.531   0.198
 3345SOL     OW10064   3.883   1.137   1.466
 3345SOL    HW110065   3.905   1.076   1.542
 3345SOL    HW210066   3.893   1.088   1.380
 3346SOL     OW10067   5.071   1.059   1.234
 3346SOL    HW110068   5.095   0.996   1.160
 3346SOL    HW210069   4.981   1.099   1.216
 3347SOL     OW10070   5.026   0.855   0.309
 3347SOL    HW110071   4.940   0.824   0.351
 3347SOL    HW210072   5.022   0.841   0.210
 3348SOL     OW10073   4.976   1.731   1.128
 3348SOL    HW110074   5.060   1.736   1.074
 3348SOL    HW210075   4.953   1.635   1.146
 3349SOL     OW10076   3.807   1.258   1.022
 3349SOL    HW110077   3.802   1.257   1.122
 3349SOL    HW210078   3.724   1.217   0.984
 3350SOL     OW10079   4.412   1.662   1.716
 3350SOL    HW110080   4.356   1.743   1.725
 3350SOL    HW210081   4.464   1.666   1.630
 3351SOL     OW10082   4.627   0.086   0.133
 3351SOL    HW110083   4.678   0.087   0.047
 3351SOL    HW210084   4.683   0.044   0.204
 3352SOL     OW10085   5.112   1.573   0.477
 3352SOL    HW110086   5.179   1.585   0.403
 3352SOL    HW210087   5.072   1.662   0.500
 3353SOL     OW10088   3.854   1.794   1.851
 3353SOL    HW110089   3.813   1.720   1.904
 3353SOL    HW210090   3.918   1.845   1.909
 3354SOL     OW10091   5.004   0.927   0.672
 3354SOL    HW110092   5.064   0.846   0.674
 3354SOL    HW210093   5.044   0.996   0.612
 3355SOL     OW10094   4.554   1.273   1.422
 3355SOL    HW110095   4.549   1.306   1.517
 3355SOL    HW210096   4.468   1.292   1.376
 3356SOL     OW10097   4.396   1.616   0.154
 3356SOL    HW110098   4.405   1.626   0.055
 3356SOL    HW210099   4.356   1.527   0.175
 3357SOL     OW10100   3.987   0.326   0.720
 3357SOL    HW110101   3.908   0.377   0.686
 3357SOL    HW210102   3.978   0.311   0.818
 3358SOL     OW10103   4.918   1.612   0.031
 3358SOL    HW110104   4.924   1.519   0.068
 3358SOL    HW210105   4.859   1.612  -0.049
 3359SOL     OW10106   4.546   1.002   1.372
 3359SOL    HW110107   4.586   1.001   1.280
 3359SOL    HW210108   4.556   1.094   1.412
 3360SOL     OW10109   4.640   0.910   0.291
 3360SOL    HW110110   4.703   0.948   0.223
 3360SOL    HW210111   4.680   0.827   0.330
 3361SOL     OW10112   4.096   1.288   1.490
 3361SOL    HW110113   4.083   1.381   1.456
 3361SOL    HW210114   4.012   1.236   1.477
 3362SOL     OW10115   4.763   1.098   0.696
 3362SOL    HW110116   4.693   1.051   0.750
 3362SOL    HW210117   4.822   1.030   0.653
 3363SOL     OW10118   4.738   0.236   0.971
 3363SOL    HW110119   4.730   0.200   0.878
 3363SOL    HW210120   4.736   0.160   1.036
 3364SOL     OW10121   4.314   1.487   0.491
 3364SOL    HW110122   4.356   1.429   0.421
 3364SOL    HW210123   4.270   1.566   0.447
 3365SOL     OW10124   3.979   1.348   0.290
 3365SOL    HW110125   3.883   1.349   0.263
 3365SOL    HW210126   3.991   1.401   0.374
 3366SOL     OW10127   3.829   1.013   1.726
 3366SOL    HW110128   3.752   0.980   1.780
 3366SOL    HW210129   3.914   0.983   1.768
 3367SOL     OW10130   4.396   0.203   1.489
 3367SOL    HW110131   4.486   0.187   1.449
 3367SOL    HW210132   4.404   0.208   1.588
 3368SOL     OW10133   3.799   0.345   0.033
 3368SOL    HW110134   3.707   0.317   0.004
 3368SOL    HW210135   3.830   0.422  -0.023
 3369SOL     OW10136   5.164   0.856   1.398
 3369SOL    HW110137   5.107   0.908   1.335
 3369SOL    HW210138   5.260   0.868   1.374
 3370SOL     OW10139   3.796   0.166   0.318
 3370SOL    HW110140   3.779   0.249   0.264
 3370SOL    HW210141   3.886   0.129   0.296
 3371SOL     OW10142   4.907   1.335   0.119
 3371SOL    HW110143   4.808   1.324   0.121
 3371SOL    HW210144   4.941   1.350   0.212
 3372SOL     OW10145   4.337   0.842   1.431
 3372SOL    HW110146   4.393   0.923   1.414
 3372SOL    HW210147   4.396   0.762   1.434
 3373SOL     OW10148   4.440   0.565   1.708
 3373SOL    HW110149   4.459   0.630   1.782
 3373SOL    HW210150   4.500   0.485   1.717
 3374SOL     OW10151   5.174   1.220   1.633
 3374SOL    HW110152   5.165   1.210   1.732
 3374SOL    HW210153   5.270   1.213   1.607
 3375SOL     OW10154   4.114   1.741   1.560
 3375SOL    HW110155   4.023   1.782   1.558
 3375SOL    HW210156   4.107   1.647   1.592
 3376SOL     OW10157   4.949   0.325   0.449
 3376SOL    HW110158   5.014   0.251   0.438
 3376SOL    HW210159   4.969   0.375   0.533
 3377SOL     OW10160   4.318   0.745   0.652
 3377SOL    HW110161   4.368   0.830   0.633
 3377SOL    HW210162   4.230   0.747   0.604
 3378SOL     OW10163   4.583   1.374   0.016
 3378SOL    HW110164   4.537   1.389   0.104
 3378SOL    HW210165   4.627   1.459  -0.014
 3379SOL     OW10166   4.385   1.790   0.953
 3379SOL    HW110167   4.339   1.878   0.940
 3379SOL    HW210168   4.484   1.802   0.946
 3380SOL     OW10169   4.583   0.956   0.861
 3380SOL    HW110170   4.637   0.887   0.909
 3380SOL    HW210171   4.551   1.025   0.927
 3381SOL     OW10172   4.807   0.984   0.087
 3381SOL    HW110173   4.784   1.037   0.005
 3381SOL    HW210174   4.888   0.928   0.068
 3382SOL     OW10175   3.945   1.314   1.844
 3382SOL    HW110176   3.880   1.241   1.823
 3382SOL    HW210177   3.949   1.328   1.942
 3383SOL     OW10178   3.803   1.240   0.653
 3383SOL    HW110179   3.802   1.193   0.741
 3383SOL    HW210180   3.885   1.212   0.602
 3384SOL     OW10181   4.396   1.391   1.624
 3384SOL    HW110182   4.318   1.341   1.662
 3384SOL    HW210183   4.393   1.486   1.655
 3385SOL     OW10184   4.152   0.424   0.520
 3385SOL    HW110185   4.182   0.352   0.458
 3385SOL    HW210186   4.113   0.384   0.603
 3386SOL     OW10187   4.041   0.547   1.280
 3386SOL    HW110188   4.079   0.488   1.352
 3386SOL    HW210189   4.081   0.521   1.192
 3387SOL     OW10190   4.536   1.586   0.687
 3387SOL    HW110191   4.568   1.596   0.593
 3387SOL    HW210192   4.457   1.524   0.689
 3388SOL     OW10193   5.148   0.214   1.112
 3388SOL    HW110194   5.200   0.149   1.167
 3388SOL    HW210195   5.099   0.277   1.173
 3389SOL     OW10196   4.725   0.034   1.154
 3389SOL    HW110197   4.662  -0.038   1.123
 3389SOL    HW210198   4.818  -0.002   1.154
 3390SOL     OW10199   4.494   1.330   0.301
 3390SOL    HW110200   4.448   1.243   0.318
 3390SOL    HW210201   4.585   1.327   0.342
 3391SOL     OW10202   4.342   1.567   1.284
 3391SOL    HW110203   4.337   1.649   1.341
 3391SOL    HW210204   4.431   1.564   1.239
 3392SOL     OW10205   3.763   1.077   0.300
 3392SOL    HW110206   3.862   1.066   0.291
 3392SOL    HW210207   3.723   0.991   0.332
 3393SOL     OW10208   4.599   1.646   0.337
 3393SOL    HW110209   4.522   1.611   0.283
 3393SOL    HW210210   4.567   1.717   0.399
 3394SOL     OW10211   3.954   0.628   1.975
 3394SOL    HW110212   3.861   0.626   2.012
 3394SOL    HW210213   3.955   0.589   1.883
 3395SOL     OW10214   3.949   0.275   2.858
 3395SOL    HW110215   3.984   0.258   2.950
 3395SOL    HW210216   3.861   0.230   2.846
 3396SOL     OW10217   3.743   0.368   2.509
 3396SOL    HW110218   3.661   0.411   2.548
 3396SOL    HW210219   3.715   0.295   2.446
 3397SOL     OW10220   4.293   1.275   3.027
 3397SOL    HW110221   4.200   1.268   2.990
 3397SOL    HW210222   4.304   1.364   3.071
 3398SOL     OW10223   5.279   1.511   2.565
 3398SOL    HW110224   5.222   1.495   2.646
 3398SOL    HW210225   5.220   1.521   2.485
 3399SOL     OW10226   4.859   0.703   2.579
 3399SOL    HW110227   4.916   0.781   2.554
 3399SOL    HW210228   4.799   0.729   2.655
 3400SOL     OW10229   4.492   1.144   2.885
 3400SOL    HW110230   4.414   1.161   2.945
 3400SOL    HW210231   4.526   1.231   2.849
 3401SOL     OW10232   4.574   0.798   3.685
 3401SOL    HW110233   4.570   0.874   3.750
 3401SOL    HW210234   4.596   0.834   3.594
 3402SOL     OW10235   4.409   1.012   2.527
 3402SOL    HW110236   4.478   0.996   2.597
 3402SOL    HW210237   4.336   1.069   2.565
 3403SOL     OW10238   4.410   1.161   3.665
 3403SOL    HW110239   4.470   1.240   3.679
 3403SOL    HW210240   4.324   1.192   3.624
 3404SOL     OW10241   4.059   1.435   2.923
 3404SOL    HW110242   3.981   1.404   2.870
 3404SOL    HW210243   4.117   1.493   2.866
 3405SOL     OW10244   4.162   0.392   3.361
 3405SOL    HW110245   4.244   0.336   3.370
 3405SOL    HW210246   4.081   0.334   3.365
 3406SOL     OW10247   3.955   1.713   2.345
 3406SOL    HW110248   3.989   1.790   2.399
 3406SOL    HW210249   3.999   1.713   2.255
 3407SOL     OW10250   4.851   1.341   3.552
 3407SOL    HW110251   4.898   1.341   3.640
 3407SOL    HW210252   4.803   1.254   3.541
 3408SOL     OW10253   3.954   1.434   2.400
 3408SOL    HW110254   3.928   1.530   2.400
 3408SOL    HW210255   3.883   1.380   2.445
 3409SOL     OW10256   3.964   1.091   2.748
 3409SOL    HW110257   3.978   1.007   2.800
 3409SOL    HW210258   3.909   1.155   2.803
 3410SOL     OW10259   4.344   1.786   3.301
 3410SOL    HW110260   4.252   1.769   3.336
 3410SOL    HW210261   4.372   1.878   3.327
 3411SOL     OW10262   4.330   0.964   1.985
 3411SOL    HW110263   4.337   1.048   1.931
 3411SOL    HW210264   4.376   0.977   2.073
 3412SOL     OW10265   3.846   0.643   2.425
 3412SOL    HW110266   3.801   0.555   2.442
 3412SOL    HW210267   3.845   0.697   2.509
 3413SOL     OW10268   3.751   1.596   1.979
 3413SOL    HW110269   3.732   1.500   2.000
 3413SOL    HW210270   3.718   1.654   2.054
 3414SOL     OW10271   5.413   0.922   2.474
 3414SOL    HW110272   5.508   0.893   2.482
 3414SOL    HW210273   5.405   0.987   2.399
 3415SOL     OW10274   3.837   0.737   3.459
 3415SOL    HW110275   3.925   0.724   3.504
 3415SOL    HW210276   3.824   0.834   3.437
 3416SOL     OW10277   4.337   1.365   2.588
 3416SOL    HW110278   4.288   1.278   2.597
 3416SOL    HW210279   4.314   1.408   2.501
 3417SOL     OW10280   5.017   1.228   3.285
 3417SOL    HW110281   5.054   1.155   3.227
 3417SOL    HW210282   5.069   1.233   3.370
 3418SOL     OW10283   4.533   0.004   2.364
 3418SOL    HW110284   4.573   0.095   2.355
 3418SOL    HW210285   4.433   0.012   2.370
 3419SOL     OW10286   3.921   0.976   3.126
 3419SOL    HW110287   4.010   0.931   3.112
 3419SOL    HW210288   3.848   0.911   3.107
 3420SOL     OW10289   4.911   1.792   3.478
 3420SOL    HW110290   4.935   1.852   3.402
 3420SOL    HW210291   4.918   1.697   3.448
 3421SOL     OW10292   4.041   0.251   3.663
 3421SOL    HW110293   4.112   0.322   3.669
 3421SOL    HW210294   3.953   0.290   3.691
 3422SOL     OW10295   4.322   0.729   2.132
 3422SOL    HW110296   4.346   0.798   2.064
 3422SOL    HW210297   4.244   0.762   2.186
 3423SOL     OW10298   5.005   0.345   2.806
 3423SOL    HW110299   4.919   0.295   2.793
 3423SOL    HW210300   5.067   0.291   2.862
 3424SOL     OW10301   4.531   0.605   3.327
 3424SOL    HW110302   4.484   0.602   3.416
 3424SOL    HW210303   4.480   0.550   3.261
 3425SOL     OW10304   5.118   0.469   3.536
 3425SOL    HW110305   5.098   0.512   3.624
 3425SOL    HW210306   5.196   0.407   3.545
 3426SOL     OW10307   4.697   0.890   3.434
 3426SOL    HW110308   4.743   0.806   3.405
 3426SOL    HW210309   4.641   0.924   3.359
 3427SOL     OW10310   4.715   0.410   3.104
 3427SOL    HW110311   4.638   0.444   3.158
 3427SOL    HW210312   4.681   0.359   3.025
 3428SOL     OW10313   4.765   0.701   2.291
 3428SOL    HW110314   4.791   0.697   2.387
 3428SOL    HW210315   4.680   0.650   2.277
 3429SOL     OW10316   3.800   0.811   2.651
 3429SOL    HW110317   3.899   0.799   2.660
 3429SOL    HW210318   3.776   0.906   2.672
 3430SOL     OW10319   3.854   1.821   3.433
 3430SOL    HW110320   3.844   1.806   3.532
 3430SOL    HW210321   3.768   1.857   3.397
 3431SOL     OW10322   4.589   0.348   2.057
 3431SOL    HW110323   4.648   0.411   2.008
 3431SOL    HW210324   4.608   0.254   2.028
 3432SOL     OW10325   5.086   1.144   2.407
 3432SOL    HW110326   5.169   1.115   2.359
 3432SOL    HW210327   5.037   1.211   2.351
 3433SOL     OW10328   4.274   0.196   2.747
 3433SOL    HW110329   4.269   0.191   2.847
 3433SOL    HW210330   4.276   0.292   2.718
 3434SOL     OW10331   4.732   1.456   2.339
 3434SOL    HW110332   4.686   1.528   2.287
 3434SOL    HW210333   4.728   1.476   2.437
 3435SOL     OW10334   4.075   1.801   2.715
 3435SOL    HW110335   4.125   1.715   2.721
 3435SOL    HW210336   4.140   1.878   2.712
 3436SOL     OW10337   4.951   1.550   3.368
 3436SOL    HW110338   4.957   1.473   3.432
 3436SOL    HW210339   4.899   1.524   3.288
 3437SOL     OW10340   4.045   0.943   2.104
 3437SOL    HW110341   4.127   0.982   2.062
 3437SOL    HW210342   4.018   0.861   2.055
 3438SOL     OW10343   4.185   1.266   3.589
 3438SOL    HW110344   4.135   1.267   3.503
 3438SOL    HW210345   4.122   1.248   3.665
 3439SOL     OW10346   4.835   1.776   2.099
 3439SOL    HW110347   4.775   1.714   2.149
 3439SOL    HW210348   4.866   1.732   2.014
 3440SOL     OW10349   3.926   0.285   3.360
 3440SOL    HW110350   3.846   0.345   3.347
 3440SOL    HW210351   3.916   0.236   3.446
 3441SOL     OW10352   4.188   1.743   2.185
 3441SOL    HW110353   4.221   1.782   2.271
 3441SOL    HW210354   4.264   1.736   2.120
 3442SOL     OW10355   3.973   1.785   3.103
 3442SOL    HW110356   4.030   1.720   3.153
 3442SOL    HW210357   3.957   1.752   3.010
 3443SOL     OW10358   4.664   1.698   2.766
 3443SOL    HW110359   4.744   1.641   2.787
 3443SOL    HW210360   4.615   1.658   2.689
 3444SOL     OW10361   4.106   0.700   2.342
 3444SOL    HW110362   4.151   0.610   2.339
 3444SOL    HW210363   4.012   0.689   2.375
 3445SOL     OW10364   4.338   0.122   1.979
 3445SOL    HW110365   4.436   0.100   1.986
 3445SOL    HW210366   4.307   0.105   1.886
 3446SOL     OW10367   4.505   0.264   3.611
 3446SOL    HW110368   4.572   0.203   3.654
 3446SOL    HW210369   4.432   0.283   3.676
 3447SOL     OW10370   4.612   1.514   3.057
 3447SOL    HW110371   4.589   1.489   2.963
 3447SOL    HW210372   4.673   1.445   3.096
 3448SOL     OW10373   5.075   0.590   3.295
 3448SOL    HW110374   5.103   0.547   3.380
 3448SOL    HW210375   5.100   0.686   3.296
 3449SOL     OW10376   4.527   1.402   2.786
 3449SOL    HW110377   4.617   1.416   2.744
 3449SOL    HW210378   4.456   1.404   2.715
 3450SOL     OW10379   4.646   0.503   2.761
 3450SOL    HW110380   4.621   0.494   2.665
 3450SOL    HW210381   4.694   0.421   2.792
 3451SOL     OW10382   4.263   0.064   2.374
 3451SOL    HW110383   4.182   0.065   2.432
 3451SOL    HW210384   4.266   0.147   2.319
 3452SOL     OW10385   5.158   1.188   1.903
 3452SOL    HW110386   5.190   1.112   1.960
 3452SOL    HW210387   5.066   1.215   1.933
 3453SOL     OW10388   4.021   0.035   2.033
 3453SOL    HW110389   4.070   0.119   2.012
 3453SOL    HW210390   4.083  -0.030   2.078
 3454SOL     OW10391   4.659   0.236   2.342
 3454SOL    HW110392   4.611   0.277   2.264
 3454SOL    HW210393   4.758   0.234   2.323
 3455SOL     OW10394   4.800   0.683   3.326
 3455SOL    HW110395   4.720   0.622   3.329
 3455SOL    HW210396   4.881   0.630   3.302
 3456SOL     OW10397   4.951   1.570   2.655
 3456SOL    HW110398   4.972   1.644   2.590
 3456SOL    HW210399   5.019   1.570   2.728
 3457SOL     OW10400   4.183   1.152   2.603
 3457SOL    HW110401   4.112   1.125   2.668
 3457SOL    HW210402   4.157   1.124   2.510
 3458SOL     OW10403   4.995   1.797   2.453
 3458SOL    HW110404   5.039   1.861   2.389
 3458SOL    HW210405   4.945   1.849   2.523
 3459SOL     OW10406   4.756   0.549   1.878
 3459SOL    HW110407   4.715   0.631   1.839
 3459SOL    HW210408   4.820   0.575   1.951
 3460SOL     OW10409   3.802   0.556   3.248
 3460SOL    HW110410   3.894   0.555   3.207
 3460SOL    HW210411   3.796   0.630   3.315
 3461SOL     OW10412   4.285   0.222   3.009
 3461SOL    HW110413   4.323   0.138   3.046
 3461SOL    HW210414   4.197   0.241   3.053
 3462SOL     OW10415   4.590   0.454   2.504
 3462SOL    HW110416   4.558   0.526   2.442
 3462SOL    HW210417   4.614   0.373   2.451
 3463SOL     OW10418   4.741   0.039   2.615
 3463SOL    HW110419   4.669   0.044   2.546
 3463SOL    HW210420   4.717  -0.030   2.684
 3464SOL     OW10421   4.212   1.385   2.036
 3464SOL    HW110422   4.125   1.370   2.083
 3464SOL    HW210423   4.195   1.411   1.941
 3465SOL     OW10424   5.114   0.575   1.940
 3465SOL    HW110425   5.060   0.554   2.021
 3465SOL    HW210426   5.205   0.534   1.949
 3466SOL     OW10427   4.251   0.256   2.190
 3466SOL    HW110428   4.278   0.197   2.115
 3466SOL    HW210429   4.251   0.351   2.159
 3467SOL     OW10430   4.788   1.347   3.202
 3467SOL    HW110431   4.708   1.324   3.257
 3467SOL    HW210432   4.871   1.321   3.251
 3468SOL     OW10433   4.835   1.195   2.962
 3468SOL    HW110434   4.795   1.239   3.043
 3468SOL    HW210435   4.794   1.232   2.879
 3469SOL     OW10436   4.639   0.089   3.264
 3469SOL    HW110437   4.664   0.069   3.169
 3469SOL    HW210438   4.711   0.145   3.306
 3470SOL     OW10439   4.704   1.116   3.581
 3470SOL    HW110440   4.605   1.122   3.591
 3470SOL    HW210441   4.727   1.036   3.525
 3471SOL     OW10442   4.429   1.050   2.230
 3471SOL    HW110443   4.415   1.057   2.329
 3471SOL    HW210444   4.513   0.999   2.212
 3472SOL     OW10445   4.134   0.813   3.113
 3472SOL    HW110446   4.220   0.825   3.163
 3472SOL    HW210447   4.092   0.726   3.140
 3473SOL     OW10448   4.998   0.386   3.124
 3473SOL    HW110449   5.019   0.460   3.188
 3473SOL    HW210450   4.909   0.403   3.081
 3474SOL     OW10451   3.788   1.564   3.193
 3474SOL    HW110452   3.742   1.646   3.159
 3474SOL    HW210453   3.886   1.583   3.202
 3475SOL     OW10454   4.091   1.100   2.363
 3475SOL    HW110455   4.084   1.183   2.307
 3475SOL    HW210456   4.095   1.020   2.303
 3476SOL     OW10457   4.290   0.537   2.727
 3476SOL    HW110458   4.302   0.603   2.653
 3476SOL    HW210459   4.336   0.571   2.810
 3477SOL     OW10460   4.976   1.348   2.250
 3477SOL    HW110461   5.026   1.425   2.290
 3477SOL    HW210462   4.881   1.350   2.282
 3478SOL     OW10463   4.996   1.445   3.004
 3478SOL    HW110464   5.043   1.458   3.091
 3478SOL    HW210465   4.930   1.371   3.013
 3479SOL     OW10466   4.078   1.510   3.191
 3479SOL    HW110467   4.057   1.466   3.104
 3479SOL    HW210468   4.175   1.536   3.194
 3480SOL     OW10469   4.126   0.751   3.460
 3480SOL    HW110470   4.194   0.806   3.413
 3480SOL    HW210471   4.166   0.663   3.487
 3481SOL     OW10472   4.737   0.105   3.632
 3481SOL    HW110473   4.743   0.190   3.580
 3481SOL    HW210474   4.769   0.029   3.575
 3482SOL     OW10475   4.228   0.050   3.602
 3482SOL    HW110476   4.186  -0.007   3.532
 3482SOL    HW210477   4.162   0.119   3.634
 3483SOL     OW10478   4.297   0.870   2.891
 3483SOL    HW110479   4.341   0.959   2.882
 3483SOL    HW210480   4.234   0.870   2.968
 3484SOL     OW10481   5.084   0.862   2.907
 3484SOL    HW110482   5.009   0.862   2.841
 3484SOL    HW210483   5.121   0.770   2.916
 3485SOL     OW10484   4.933   0.525   2.137
 3485SOL    HW110485   4.946   0.441   2.191
 3485SOL    HW210486   4.904   0.599   2.197
 3486SOL     OW10487   4.031   0.213   3.093
 3486SOL    HW110488   4.008   0.250   3.183
 3486SOL    HW210489   4.001   0.118   3.087
 3487SOL     OW10490   3.761   1.310   3.144
 3487SOL    HW110491   3.814   1.261   3.212
 3487SOL    HW210492   3.783   1.408   3.149
 3488SOL     OW10493   4.456   0.634   2.926
 3488SOL    HW110494   4.515   0.608   2.850
 3488SOL    HW210495   4.428   0.730   2.915
 3489SOL     OW10496   4.031   0.063   2.480
 3489SOL    HW110497   4.020   0.157   2.513
 3489SOL    HW210498   4.026   0.000   2.557
 3490SOL     OW10499   5.346   0.367   2.236
 3490SOL    HW110500   5.348   0.291   2.300
 3490SOL    HW210501   5.298   0.444   2.276
 3491SOL     OW10502   4.747   0.766   2.828
 3491SOL    HW110503   4.762   0.787   2.924
 3491SOL    HW210504   4.717   0.671   2.819
 3492SOL     OW10505   4.704   1.573   3.562
 3492SOL    HW110506   4.684   1.617   3.474
 3492SOL    HW210507   4.743   1.482   3.546
 3493SOL     OW10508   4.074   0.898   3.666
 3493SOL    HW110509   4.150   0.942   3.714
 3493SOL    HW210510   4.109   0.851   3.584
 3494SOL     OW10511   5.027   0.838   1.904
 3494SOL    HW110512   5.061   0.745   1.919
 3494SOL    HW210513   5.045   0.865   1.809
 3495SOL     OW10514   4.792   1.333   2.711
 3495SOL    HW110515   4.799   1.249   2.656
 3495SOL    HW210516   4.854   1.402   2.675
 3496SOL     OW10517   4.043   0.810   2.811
 3496SOL    HW110518   4.136   0.846   2.816
 3496SOL    HW210519   4.037   0.725   2.863
 3497SOL     OW10520   4.063   0.509   2.868
 3497SOL    HW110521   4.011   0.426   2.851
 3497SOL    HW210522   4.140   0.514   2.804
 3498SOL     OW10523   4.862   0.380   3.540
 3498SOL    HW110524   4.817   0.443   3.604
 3498SOL    HW210525   4.955   0.411   3.523
 3499SOL     OW10526   4.884   0.207   3.339
 3499SOL    HW110527   4.884   0.271   3.416
 3499SOL    HW210528   4.912   0.255   3.256
 3500SOL     OW10529   3.732   1.326   2.062
 3500SOL    HW110530   3.639   1.347   2.031
 3500SOL    HW210531   3.742   1.227   2.075
 3501SOL     OW10532   3.812   1.801   2.789
 3501SOL    HW110533   3.770   1.715   2.762
 3501SOL    HW210534   3.906   1.804   2.755
 3502SOL     OW10535   4.228   1.568   2.772
 3502SOL    HW110536   4.294   1.642   2.781
 3502SOL    HW210537   4.272   1.489   2.730
 3503SOL     OW10538   4.726   0.796   3.100
 3503SOL    HW110539   4.767   0.764   3.186
 3503SOL    HW210540   4.630   0.769   3.097
 3504SOL     OW10541   3.764   0.544   2.976
 3504SOL    HW110542   3.849   0.511   2.935
 3504SOL    HW210543   3.777   0.559   3.074
 3505SOL     OW10544   3.913   0.520   3.584
 3505SOL    HW110545   3.972   0.480   3.514
 3505SOL    HW210546   3.855   0.591   3.543
 3506SOL     OW10547   4.539   0.572   2.187
 3506SOL    HW110548   4.546   0.483   2.141
 3506SOL    HW210549   4.445   0.606   2.179
 3507SOL     OW10550   3.976   1.564   3.606
 3507SOL    HW110551   3.946   1.621   3.682
 3507SOL    HW210552   3.969   1.467   3.632
 3508SOL     OW10553   4.395   0.464   3.131
 3508SOL    HW110554   4.361   0.375   3.101
 3508SOL    HW210555   4.421   0.518   3.051
 3509SOL     OW10556   4.654   1.678   3.327
 3509SOL    HW110557   4.630   1.660   3.232
 3509SOL    HW210558   4.684   1.772   3.337
 3510SOL     OW10559   4.197   0.500   2.053
 3510SOL    HW110560   4.258   0.580   2.057
 3510SOL    HW210561   4.102   0.531   2.060
 3511SOL     OW10562   3.883   1.137   3.328
 3511SOL    HW110563   3.905   1.076   3.404
 3511SOL    HW210564   3.893   1.088   3.242
 3512SOL     OW10565   5.071   1.059   3.096
 3512SOL    HW110566   5.095   0.996   3.022
 3512SOL    HW210567   4.981   1.099   3.078
 3513SOL     OW10568   5.026   0.855   2.171
 3513SOL    HW110569   4.940   0.824   2.213
 3513SOL    HW210570   5.022   0.841   2.072
 3514SOL     OW10571   4.976   1.731   2.990
 3514SOL    HW110572   5.060   1.736   2.936
 3514SOL    HW210573   4.953   1.635   3.008
 3515SOL     OW10574   3.807   1.258   2.884
 3515SOL    HW110575   3.802   1.257   2.984
 3515SOL    HW210576   3.724   1.217   2.846
 3516SOL     OW10577   4.412   1.662   3.578
 3516SOL    HW110578   4.356   1.743   3.587
 3516SOL    HW210579   4.464   1.666   3.492
 3517SOL     OW10580   5.112   1.573   2.339
 3517SOL    HW110581   5.179   1.585   2.265
 3517SOL    HW210582   5.072   1.662   2.362
 3518SOL     OW10583   3.854   1.794   3.713
 3518SOL    HW110584   3.813   1.720   3.766
 3518SOL    HW210585   3.918   1.845   3.771
 3519SOL     OW10586   5.004   0.927   2.534
 3519SOL    HW110587   5.064   0.846   2.536
 3519SOL    HW210588   5.044   0.996   2.474
 3520SOL     OW10589   4.554   1.273   3.284
 3520SOL    HW110590   4.549   1.306   3.379
 3520SOL    HW210591   4.468   1.292   3.238
 3521SOL     OW10592   4.396   1.616   2.016
 3521SOL    HW110593   4.405   1.626   1.917
 3521SOL    HW210594   4.356   1.527   2.037
 3522SOL     OW10595   3.987   0.326   2.582
 3522SOL    HW110596   3.908   0.377   2.548
 3522SOL    HW210597   3.978   0.311   2.680
 3523SOL     OW10598   4.918   1.612   1.893
 3523SOL    HW110599   4.924   1.519   1.930
 3523SOL    HW210600   4.859   1.612   1.813
 3524SOL     OW10601   4.546   1.002   3.234
 3524SOL    HW110602   4.586   1.001   3.142
 3524SOL    HW210603   4.556   1.094   3.274
 3525SOL     OW10604   4.640   0.910   2.153
 3525SOL    HW110605   4.703   0.948   2.085
 3525SOL    HW210606   4.680   0.827   2.192
 3526SOL     OW10607   4.096   1.288   3.352
 3526SOL    HW110608   4.083   1.381   3.318
 3526SOL    HW210609   4.012   1.236   3.339
 3527SOL     OW10610   4.763   1.098   2.558
 3527SOL    HW110611   4.693   1.051   2.612
 3527SOL    HW210612   4.822   1.030   2.515
 3528SOL     OW10613   4.738   0.236   2.833
 3528SOL    HW110614   4.730   0.200   2.740
 3528SOL    HW210615   4.736   0.160   2.898
 3529SOL     OW10616   4.314   1.487   2.353
 3529SOL    HW110617   4.356   1.429   2.283
 3529SOL    HW210618   4.270   1.566   2.309
 3530SOL     OW10619   3.979   1.348   2.152
 3530SOL    HW110620   3.883   1.349   2.125
 3530SOL    HW210621   3.991   1.401   2.236
 3531SOL     OW10622   3.829   1.013   3.588
 3531SOL    HW110623   3.752   0.980   3.642
 3531SOL    HW210624   3.914   0.983   3.630
 3532SOL     OW10625   4.396   0.203   3.351
 3532SOL    HW110626   4.486   0.187   3.311
 3532SOL    HW210627   4.404   0.208   3.450
 3533SOL     OW10628   3.799   0.345   1.895
 3533SOL    HW110629   3.707   0.317   1.866
 3533SOL    HW210630   3.830   0.422   1.839
 3534SOL     OW10631   5.164   0.856   3.260
 3534SOL    HW110632   5.107   0.908   3.197
 3534SOL    HW210633   5.260   0.868   3.236
 3535SOL     OW10634   3.796   0.166   2.180
 3535SOL    HW110635   3.779   0.249   2.126
 3535SOL    HW210636   3.886   0.129   2.158
 3536SOL     OW10637   4.907   1.335   1.981
 3536SOL    HW110638   4.808   1.324   1.983
 3536SOL    HW210639   4.941   1.350   2.074
 3537SOL     OW10640   4.337   0.842   3.293
 3537SOL    HW110641   4.393   0.923   3.276
 3537SOL    HW210642   4.396   0.762   3.296
 3538SOL     OW10643   4.440   0.565   3.570
 3538SOL    HW110644   4.459   0.630   3.644
 3538SOL    HW210645   4.500   0.485   3.579
 3539SOL     OW10646   5.174   1.220   3.495
 3539SOL    HW110647   5.165   1.210   3.594
 3539SOL    HW210648   5.270   1.213   3.469
 3540SOL     OW10649   4.114   1.741   3.422
 3540SOL    HW110650   4.023   1.782   3.420
 3540SOL    HW210651   4.107   1.647   3.454
 3541SOL     OW10652   4.949   0.325   2.311
 3541SOL    HW110653   5.014   0.251   2.300
 3541SOL    HW210654   4.969   0.375   2.395
 3542SOL     OW10655   4.318   0.745   2.514
 3542SOL    HW110656   4.368   0.830   2.495
 3542SOL    HW210657   4.230   0.747   2.466
 3543SOL     OW10658   4.583   1.374   1.878
 3543SOL    HW110659   4.537   1.389   1.966
 3543SOL    HW210660   4.627   1.459   1.848
 3544SOL     OW10661   4.385   1.790   2.815
 3544SOL    HW110662   4.339   1.878   2.802
 3544SOL    HW210663   4.484   1.802   2.808
 3545SOL     OW10664   4.583   0.956   2.723
 3545SOL    HW110665   4.637   0.887   2.771
 3545SOL    HW210666   4.551   1.025   2.789
 3546SOL     OW10667   4.807   0.984   1.949
 3546SOL    HW110668   4.784   1.037   1.867
 3546SOL    HW210669   4.888   0.928   1.930
 3547SOL     OW10670   3.945   1.314   3.706
 3547SOL    HW110671   3.880   1.241   3.685
 3547SOL    HW210672   3.949   1.328   3.804
 3548SOL     OW10673   3.803   1.240   2.515
 3548SOL    HW110674   3.802   1.193   2.603
 3548SOL    HW210675   3.885   1.212   2.464
 3549SOL     OW10676   4.396   1.391   3.486
 3549SOL    HW110677   4.318   1.341   3.524
 3549SOL    HW210678   4.393   1.486   3.517
 3550SOL     OW10679   4.152   0.424   2.382
 3550SOL    HW110680   4.182   0.352   2.320
 3550SOL    HW210681   4.113   0.384   2.465
 3551SOL     OW10682   4.041   0.547   3.142
 3551SOL    HW110683   4.079   0.488   3.214
 3551SOL    HW210684   4.081   0.521   3.054
 3552SOL     OW10685   4.536   1.586   2.549
 3552SOL    HW110686   4.568   1.596   2.455
 3552SOL    HW210687   4.457   1.524   2.551
 3553SOL     OW10688   5.148   0.214   2.974
 3553SOL    HW110689   5.200   0.149   3.029
 3553SOL    HW210690   5.099   0.277   3.035
 3554SOL     OW10691   4.725   0.034   3.016
 3554SOL    HW110692   4.662  -0.038   2.985
 3554SOL    HW210693   4.818  -0.002   3.016
 3555SOL     OW10694   4.494   1.330   2.163
 3555SOL    HW110695   4.448   1.243   2.180
 3555SOL    HW210696   4.585   1.327   2.204
 3556SOL     OW10697   4.342   1.567   3.146
 3556SOL    HW110698   4.337   1.649   3.203
 3556SOL    HW210699   4.431   1.564   3.101
 3557SOL     OW10700   3.763   1.077   2.162
 3557SOL    HW110701   3.862   1.066   2.153
 3557SOL    HW210702   3.723   0.991   2.194
 3558SOL     OW10703   4.599   1.646   2.199
 3558SOL    HW110704   4.522   1.611   2.145
 3558SOL    HW210705   4.567   1.717   2.261
 3559SOL     OW10706   3.954   0.628   3.837
 3559SOL    HW110707   3.861   0.626   3.874
 3559SOL    HW210708   3.955   0.589   3.745
 3560SOL     OW10709   3.949   0.275   4.720
 3560SOL    HW110710   3.984   0.258   4.812
 3560SOL    HW210711   3.861   0.230   4.708
 3561SOL     OW10712   3.743   0.368   4.371
 3561SOL    HW110713   3.661   0.411   4.410
 3561SOL    HW210714   3.715   0.295   4.308
 3562SOL     OW10715   4.293   1.275   4.889
 3562SOL    HW110716   4.200   1.268   4.852
 3562SOL    HW210717   4.304   1.364   4.933
 3563SOL     OW10718   5.279   1.511   4.427
 3563SOL    HW110719   5.222   1.495   4.508
 3563SOL    HW210720   5.220   1.521   4.347
 3564SOL     OW10721   4.859   0.703   4.441
 3564SOL    HW110722   4.916   0.781   4.416
 3564SOL    HW210723   4.799   0.729   4.517
 3565SOL     OW10724   4.492   1.144   4.747
 3565SOL    HW110725   4.414   1.161   4.807
 3565SOL    HW210726   4.526   1.231   4.711
 3566SOL     OW10727   4.409   1.012   4.389
 3566SOL    HW110728   4.478   0.996   4.459
 3566SOL    HW210729   4.336   1.069   4.427
 3567SOL     OW10730   4.059   1.435   4.785
 3567SOL    HW110731   3.981   1.404   4.732
 3567SOL    HW210732   4.117   1.493   4.728
 3568SOL     OW10733   4.162   0.392   5.223
 3568SOL    HW110734   4.244   0.336   5.232
 3568SOL    HW210735   4.081   0.334   5.227
 3569SOL     OW10736   3.955   1.713   4.207
 3569SOL    HW110737   3.989   1.790   4.261
 3569SOL    HW210738   3.999   1.713   4.117
 3570SOL     OW10739   3.954   1.434   4.262
 3570SOL    HW110740   3.928   1.530   4.262
 3570SOL    HW210741   3.883   1.380   4.307
 3571SOL     OW10742   3.964   1.091   4.610
 3571SOL    HW110743   3.978   1.007   4.662
 3571SOL    HW210744   3.909   1.155   4.665
 3572SOL     OW10745   4.344   1.786   5.163
 3572SOL    HW110746   4.252   1.769   5.198
 3572SOL    HW210747   4.372   1.878   5.189
 3573SOL     OW10748   4.330   0.964   3.847
 3573SOL    HW110749   4.337   1.048   3.793
 3573SOL    HW210750   4.376   0.977   3.935
 3574SOL     OW10751   3.846   0.643   4.287
 3574SOL    HW110752   3.801   0.555   4.304
 3574SOL    HW210753   3.845   0.697   4.371
 3575SOL     OW10754   3.751   1.596   3.841
 3575SOL    HW110755   3.732   1.500   3.862
 3575SOL    HW210756   3.718   1.654   3.916
 3576SOL     OW10757   5.413   0.922   4.336
 3576SOL    HW110758   5.508   0.893   4.344
 3576SOL    HW210759   5.405   0.987   4.261
 3577SOL     OW10760   4.337   1.365   4.450
 3577SOL    HW110761   4.288   1.278   4.459
 3577SOL    HW210762   4.314   1.408   4.363
 3578SOL     OW10763   5.017   1.228   5.147
 3578SOL    HW110764   5.054   1.155   5.089
 3578SOL    HW210765   5.069   1.233   5.232
 3579SOL     OW10766   4.533   0.004   4.226
 3579SOL    HW110767   4.573   0.095   4.217
 3579SOL    HW210768   4.433   0.012   4.232
 3580SOL     OW10769   3.921   0.976   4.988
 3580SOL    HW110770   4.010   0.931   4.974
 3580SOL    HW210771   3.848   0.911   4.969
 3581SOL     OW10772   4.322   0.729   3.994
 3581SOL    HW110773   4.346   0.798   3.926
 3581SOL    HW210774   4.244   0.762   4.048
 3582SOL     OW10775   5.005   0.345   4.668
 3582SOL    HW110776   4.919   0.295   4.655
 3582SOL    HW210777   5.067   0.291   4.724
 3583SOL     OW10778   4.531   0.605   5.189
 3583SOL    HW110779   4.484   0.602   5.278
 3583SOL    HW210780   4.480   0.550   5.123
 3584SOL     OW10781   4.715   0.410   4.966
 3584SOL    HW110782   4.638   0.444   5.020
 3584SOL    HW210783   4.681   0.359   4.887
 3585SOL     OW10784   4.765   0.701   4.153
 3585SOL    HW110785   4.791   0.697   4.249
 3585SOL    HW210786   4.680   0.650   4.139
 3586SOL     OW10787   3.800   0.811   4.513
 3586SOL    HW110788   3.899   0.799   4.522
 3586SOL    HW210789   3.776   0.906   4.534
 3587SOL     OW10790   3.854   1.821   5.295
 3587SOL    HW110791   3.844   1.806   5.394
 3587SOL    HW210792   3.768   1.857   5.259
 3588SOL     OW10793   4.589   0.348   3.919
 3588SOL    HW110794   4.648   0.411   3.870
 3588SOL    HW210795   4.608   0.254   3.890
 3589SOL     OW10796   5.086   1.144   4.269
 3589SOL    HW110797   5.169   1.115   4.221
 3589SOL    HW210798   5.037   1.211   4.213
 3590SOL     OW10799   4.274   0.196   4.609
 3590SOL    HW110800   4.269   0.191   4.709
 3590SOL    HW210801   4.276   0.292   4.580
 3591SOL     OW10802   4.732   1.456   4.201
 3591SOL    HW110803   4.686   1.528   4.149
 3591SOL    HW210804   4.728   1.476   4.299
 3592SOL     OW10805   4.075   1.801   4.577
 3592SOL    HW110806   4.125   1.715   4.583
 3592SOL    HW210807   4.140   1.878   4.574
 3593SOL     OW10808   4.045   0.943   3.966
 3593SOL    HW110809   4.127   0.982   3.924
 3593SOL    HW210810   4.018   0.861   3.917
 3594SOL     OW10811   4.835   1.776   3.961
 3594SOL    HW110812   4.775   1.714   4.011
 3594SOL    HW210813   4.866   1.732   3.876
 3595SOL     OW10814   4.188   1.743   4.047
 3595SOL    HW110815   4.221   1.782   4.133
 3595SOL    HW210816   4.264   1.736   3.982
 3596SOL     OW10817   3.973   1.785   4.965
 3596SOL    HW110818   4.030   1.720   5.015
 3596SOL    HW210819   3.957   1.752   4.872
 3597SOL     OW10820   4.664   1.698   4.628
 3597SOL    HW110821   4.744   1.641   4.649
 3597SOL    HW210822   4.615   1.658   4.551
 3598SOL     OW10823   4.106   0.700   4.204
 3598SOL    HW110824   4.151   0.610   4.201
 3598SOL    HW210825   4.012   0.689   4.237
 3599SOL     OW10826   4.338   0.122   3.841
 3599SOL    HW110827   4.436   0.100   3.848
 3599SOL    HW210828   4.307   0.105   3.748
 3600SOL     OW10829   4.612   1.514   4.919
 3600SOL    HW110830   4.589   1.489   4.825
 3600SOL    HW210831   4.673   1.445   4.958
 3601SOL     OW10832   4.527   1.402   4.648
 3601SOL    HW110833   4.617   1.416   4.606
 3601SOL    HW210834   4.456   1.404   4.577
 3602SOL     OW10835   4.646   0.503   4.623
 3602SOL    HW110836   4.621   0.494   4.527
 3602SOL    HW210837   4.694   0.421   4.654
 3603SOL     OW10838   4.263   0.064   4.236
 3603SOL    HW110839   4.182   0.065   4.294
 3603SOL    HW210840   4.266   0.147   4.181
 3604SOL     OW10841   5.158   1.188   3.765
 3604SOL    HW110842   5.190   1.112   3.822
 3604SOL    HW210843   5.066   1.215   3.795
 3605SOL     OW10844   4.021   0.035   3.895
 3605SOL    HW110845   4.070   0.119   3.874
 3605SOL    HW210846   4.083  -0.030   3.940
 3606SOL     OW10847   4.659   0.236   4.204
 3606SOL    HW110848   4.611   0.277   4.126
 3606SOL    HW210849   4.758   0.234   4.185
 3607SOL     OW10850   4.951   1.570   4.517
 3607SOL    HW110851   4.972   1.644   4.452
 3607SOL    HW210852   5.019   1.570   4.590
 3608SOL     OW10853   4.183   1.152   4.465
 3608SOL    HW110854   4.112   1.125   4.530
 3608SOL    HW210855   4.157   1.124   4.372
 3609SOL     OW10856   4.995   1.797   4.315
 3609SOL    HW110857   5.039   1.861   4.251
 3609SOL    HW210858   4.945   1.849   4.385
 3610SOL     OW10859   4.756   0.549   3.740
 3610SOL    HW110860   4.715   0.631   3.701
 3610SOL    HW210861   4.820   0.575   3.813
 3611SOL     OW10862   4.285   0.222   4.871
 3611SOL    HW110863   4.323   0.138   4.908
 3611SOL    HW210864   4.197   0.241   4.915
 3612SOL     OW10865   4.590   0.454   4.366
 3612SOL    HW110866   4.558   0.526   4.304
 3612SOL    HW210867   4.614   0.373   4.313
 3613SOL     OW10868   4.741   0.039   4.477
 3613SOL    HW110869   4.669   0.044   4.408
 3613SOL    HW210870   4.717  -0.030   4.546
 3614SOL     OW10871   4.212   1.385   3.898
 3614SOL    HW110872   4.125   1.370   3.945
 3614SOL    HW210873   4.195   1.411   3.803
 3615SOL     OW10874   5.114   0.575   3.802
 3615SOL    HW110875   5.060   0.554   3.883
 3615SOL    HW210876   5.205   0.534   3.811
 3616SOL     OW10877   4.251   0.256   4.052
 3616SOL    HW110878   4.278   0.197   3.977
 3616SOL    HW210879   4.251   0.351   4.021
 3617SOL     OW10880   4.835   1.195   4.824
 3617SOL    HW110881   4.795   1.239   4.905
 3617SOL    HW210882   4.794   1.232   4.741
 3618SOL     OW10883   4.429   1.050   4.092
 3618SOL    HW110884   4.415   1.057   4.191
 3618SOL    HW210885   4.513   0.999   4.074
 3619SOL     OW10886   4.134   0.813   4.975
 3619SOL    HW110887   4.220   0.825   5.025
 3619SOL    HW210888   4.092   0.726   5.002
 3620SOL     OW10889   4.998   0.386   4.986
 3620SOL    HW110890   5.019   0.460   5.050
 3620SOL    HW210891   4.909   0.403   4.943
 3621SOL     OW10892   3.788   1.564   5.055
 3621SOL    HW110893   3.742   1.646   5.021
 3621SOL    HW210894   3.886   1.583   5.064
 3622SOL     OW10895   4.091   1.100   4.225
 3622SOL    HW110896   4.084   1.183   4.169
 3622SOL    HW210897   4.095   1.020   4.165
 3623SOL     OW10898   4.290   0.537   4.589
 3623SOL    HW110899   4.302   0.603   4.515
 3623SOL    HW210900   4.336   0.571   4.672
 3624SOL     OW10901   4.976   1.348   4.112
 3624SOL    HW110902   5.026   1.425   4.152
 3624SOL    HW210903   4.881   1.350   4.144
 3625SOL     OW10904   4.996   1.445   4.866
 3625SOL    HW110905   5.043   1.458   4.953
 3625SOL    HW210906   4.930   1.371   4.875
 3626SOL     OW10907   4.078   1.510   5.053
 3626SOL    HW110908   4.057   1.466   4.966
 3626SOL    HW210909   4.175   1.536   5.056
 3627SOL     OW10910   4.297   0.870   4.753
 3627SOL    HW110911   4.341   0.959   4.744
 3627SOL    HW210912   4.234   0.870   4.830
 3628SOL     OW10913   5.084   0.862   4.769
 3628SOL    HW110914   5.009   0.862   4.703
 3628SOL    HW210915   5.121   0.770   4.778
 3629SOL     OW10916   4.933   0.525   3.999
 3629SOL    HW110917   4.946   0.441   4.053
 3629SOL    HW210918   4.904   0.599   4.059
 3630SOL     OW10919   4.031   0.213   4.955
 3630SOL    HW110920   4.008   0.250   5.045
 3630SOL    HW210921   4.001   0.118   4.949
 3631SOL     OW10922   3.761   1.310   5.006
 3631SOL    HW110923   3.814   1.261   5.074
 3631SOL    HW210924   3.783   1.408   5.011
 3632SOL     OW10925   4.456   0.634   4.788
 3632SOL    HW110926   4.515   0.608   4.712
 3632SOL    HW210927   4.428   0.730   4.777
 3633SOL     OW10928   4.031   0.063   4.342
 3633SOL    HW110929   4.020   0.157   4.375
 3633SOL    HW210930   4.026   0.000   4.419
 3634SOL     OW10931   5.346   0.367   4.098
 3634SOL    HW110932   5.348   0.291   4.162
 3634SOL    HW210933   5.298   0.444   4.138
 3635SOL     OW10934   4.747   0.766   4.690
 3635SOL    HW110935   4.762   0.787   4.786
 3635SOL    HW210936   4.717   0.671   4.681
 3636SOL     OW10937   5.027   0.838   3.766
 3636SOL    HW110938   5.061   0.745   3.781
 3636SOL    HW210939   5.045   0.865   3.671
 3637SOL     OW10940   4.792   1.333   4.573
 3637SOL    HW110941   4.799   1.249   4.518
 3637SOL    HW210942   4.854   1.402   4.537
 3638SOL     OW10943   4.043   0.810   4.673
 3638SOL    HW110944   4.136   0.846   4.678
 3638SOL    HW210945   4.037   0.725   4.725
 3639SOL     OW10946   4.063   0.509   4.730
 3639SOL    HW110947   4.011   0.426   4.713
 3639SOL    HW210948   4.140   0.514   4.666
 3640SOL     OW10949   4.884   0.207   5.201
 3640SOL    HW110950   4.884   0.271   5.278
 3640SOL    HW210951   4.912   0.255   5.118
 3641SOL     OW10952   3.732   1.326   3.924
 3641SOL    HW110953   3.639   1.347   3.893
 3641SOL    HW210954   3.742   1.227   3.937
 3642SOL     OW10955   3.812   1.801   4.651
 3642SOL    HW110956   3.770   1.715   4.624
 3642SOL    HW210957   3.906   1.804   4.617
 3643SOL     OW10958   4.228   1.568   4.634
 3643SOL    HW110959   4.294   1.642   4.643
 3643SOL    HW210960   4.272   1.489   4.592
 3644SOL     OW10961   4.726   0.796   4.962
 3644SOL    HW110962   4.767   0.764   5.048
 3644SOL    HW210963   4.630   0.769   4.959
 3645SOL     OW10964   3.764   0.544   4.838
 3645SOL    HW110965   3.849   0.511   4.797
 3645SOL    HW210966   3.777   0.559   4.936
 3646SOL     OW10967   4.539   0.572   4.049
 3646SOL    HW110968   4.546   0.483   4.003
 3646SOL    HW210969   4.445   0.606   4.041
 3647SOL     OW10970   4.395   0.464   4.993
 3647SOL    HW110971   4.361   0.375   4.963
 3647SOL    HW210972   4.421   0.518   4.913
 3648SOL     OW10973   4.654   1.678   5.189
 3648SOL    HW110974   4.630   1.660   5.094
 3648SOL    HW210975   4.684   1.772   5.199
 3649SOL     OW10976   4.197   0.500   3.915
 3649SOL    HW110977   4.258   0.580   3.919
 3649SOL    HW210978   4.102   0.531   3.922
 3650SOL     OW10979   3.883   1.137   5.190
 3650SOL    HW110980   3.905   1.076   5.266
 3650SOL    HW210981   3.893   1.088   5.104
 3651SOL     OW10982   5.071   1.059   4.958
 3651SOL    HW110983   5.095   0.996   4.884
 3651SOL    HW210984   4.981   1.099   4.940
 3652SOL     OW10985   5.026   0.855   4.033
 3652SOL    HW110986   4.940   0.824   4.075
 3652SOL    HW210987   5.022   0.841   3.934
 3653SOL     OW10988   4.976   1.731   4.852
 3653SOL    HW110989   5.060   1.736   4.798
 3653SOL    HW210990   4.953   1.635   4.870
 3654SOL     OW10991   3.807   1.258   4.746
 3654SOL    HW110992   3.802   1.257   4.846
 3654SOL    HW210993   3.724   1.217   4.708
 3655SOL     OW10994   5.112   1.573   4.201
 3655SOL    HW110995   5.179   1.585   4.127
 3655SOL    HW210996   5.072   1.662   4.224
 3656SOL     OW10997   5.004   0.927   4.396
 3656SOL    HW110998   5.064   0.846   4.398
 3656SOL    HW210999   5.044   0.996   4.336
 3657SOL     OW11000   4.396   1.616   3.878
 3657SOL    HW111001   4.405   1.626   3.779
 3657SOL    HW211002   4.356   1.527   3.899
 3658SOL     OW11003   3.987   0.326   4.444
 3658SOL    HW111004   3.908   0.377   4.410
 3658SOL    HW211005   3.978   0.311   4.542
 3659SOL     OW11006   4.918   1.612   3.755
 3659SOL    HW111007   4.924   1.519   3.792
 3659SOL    HW211008   4.859   1.612   3.675
 3660SOL     OW11009   4.546   1.002   5.096
 3660SOL    HW111010   4.586   1.001   5.004
 3660SOL    HW211011   4.556   1.094   5.136
 3661SOL     OW11012   4.640   0.910   4.015
 3661SOL    HW111013   4.703   0.948   3.947
 3661SOL    HW211014   4.680   0.827   4.054
 3662SOL     OW11015   4.763   1.098   4.420
 3662SOL    HW111016   4.693   1.051   4.474
 3662SOL    HW211017   4.822   1.030   4.377
 3663SOL     OW11018   4.738   0.236   4.695
 3663SOL    HW111019   4.730   0.200   4.602
 3663SOL    HW211020   4.736   0.160   4.760
 3664SOL     OW11021   4.314   1.487   4.215
 3664SOL    HW111022   4.356   1.429   4.145
 3664SOL    HW211023   4.270   1.566   4.171
 3665SOL     OW11024   3.979   1.348   4.014
 3665SOL    HW111025   3.883   1.349   3.987
 3665SOL    HW211026   3.991   1.401   4.098
 3666SOL     OW11027   3.799   0.345   3.757
 3666SOL    HW111028   3.707   0.317   3.728
 3666SOL    HW211029   3.830   0.422   3.701
 3667SOL     OW11030   3.796   0.166   4.042
 3667SOL    HW111031   3.779   0.249   3.988
 3667SOL    HW211032   3.886   0.129   4.020
 3668SOL     OW11033   4.907   1.335   3.843
 3668SOL    HW111034   4.808   1.324   3.845
 3668SOL    HW211035   4.941   1.350   3.936
 3669SOL     OW11036   4.337   0.842   5.155
 3669SOL    HW111037   4.393   0.923   5.138
 3669SOL    HW211038   4.396   0.762   5.158
 3670SOL     OW11039   4.114   1.741   5.284
 3670SOL    HW111040   4.023   1.782   5.282
 3670SOL    HW211041   4.107   1.647   5.316
 3671SOL     OW11042   4.949   0.325   4.173
 3671SOL    HW111043   5.014   0.251   4.162
 3671SOL    HW211044   4.969   0.375   4.257
 3672SOL     OW11045   4.318   0.745   4.376
 3672SOL    HW111046   4.368   0.830   4.357
 3672SOL    HW211047   4.230   0.747   4.328
 3673SOL     OW11048   4.583   1.374   3.740
 3673SOL    HW111049   4.537   1.389   3.828
 3673SOL    HW211050   4.627   1.459   3.710
 3674SOL     OW11051   4.385   1.790   4.677
 3674SOL    HW111052   4.339   1.878   4.664
 3674SOL    HW211053   4.484   1.802   4.670
 3675SOL     OW11054   4.583   0.956   4.585
 3675SOL    HW111055   4.637   0.887   4.633
 3675SOL    HW211056   4.551   1.025   4.651
 3676SOL     OW11057   4.807   0.984   3.811
 3676SOL    HW111058   4.784   1.037   3.729
 3676SOL    HW211059   4.888   0.928   3.792
 3677SOL     OW11060   3.803   1.240   4.377
 3677SOL    HW111061   3.802   1.193   4.465
 3677SOL    HW211062   3.885   1.212   4.326
 3678SOL     OW11063   4.152   0.424   4.244
 3678SOL    HW111064   4.182   0.352   4.182
 3678SOL    HW211065   4.113   0.384   4.327
 3679SOL     OW11066   4.041   0.547   5.004
 3679SOL    HW111067   4.079   0.488   5.076
 3679SOL    HW211068   4.081   0.521   4.916
 3680SOL     OW11069   4.536   1.586   4.411
 3680SOL    HW111070   4.568   1.596   4.317
 3680SOL    HW211071   4.457   1.524   4.413
 3681SOL     OW11072   5.148   0.214   4.836
 3681SOL    HW111073   5.200   0.149   4.891
 3681SOL    HW211074   5.099   0.277   4.897
 3682SOL     OW11075   4.725   0.034   4.878
 3682SOL    HW111076   4.662  -0.038   4.847
 3682SOL    HW211077   4.818  -0.002   4.878
 3683SOL     OW11078   4.494   1.330   4.025
 3683SOL    HW111079   4.448   1.243   4.042
 3683SOL    HW211080   4.585   1.327   4.066
 3684SOL     OW11081   4.342   1.567   5.008
 3684SOL    HW111082   4.337   1.649   5.065
 3684SOL    HW211083   4.431   1.564   4.963
 3685SOL     OW11084   3.763   1.077   4.024
 3685SOL    HW111085   3.862   1.066   4.015
 3685SOL    HW211086   3.723   0.991   4.056
 3686SOL     OW11087   4.599   1.646   4.061
 3686SOL    HW111088   4.522   1.611   4.007
 3686SOL    HW211089   4.567   1.717   4.123
 3687SOL     OW11090   3.954   2.490   0.113
 3687SOL    HW111091   3.861   2.488   0.150
 3687SOL    HW211092   3.955   2.451   0.021
 3688SOL     OW11093   3.949   2.137   0.996
 3688SOL    HW111094   3.984   2.120   1.088
 3688SOL    HW211095   3.861   2.092   0.984
 3689SOL     OW11096   3.743   2.230   0.647
 3689SOL    HW111097   3.661   2.273   0.686
 3689SOL    HW211098   3.715   2.157   0.584
 3690SOL     OW11099   4.293   3.137   1.165
 3690SOL    HW111100   4.200   3.130   1.128
 3690SOL    HW211101   4.304   3.226   1.209
 3691SOL     OW11102   5.279   3.373   0.703
 3691SOL    HW111103   5.222   3.357   0.784
 3691SOL    HW211104   5.220   3.383   0.623
 3692SOL     OW11105   4.859   2.565   0.717
 3692SOL    HW111106   4.916   2.643   0.692
 3692SOL    HW211107   4.799   2.591   0.793
 3693SOL     OW11108   4.492   3.006   1.023
 3693SOL    HW111109   4.414   3.023   1.083
 3693SOL    HW211110   4.526   3.093   0.987
 3694SOL     OW11111   4.574   2.660   1.823
 3694SOL    HW111112   4.570   2.736   1.888
 3694SOL    HW211113   4.596   2.696   1.732
 3695SOL     OW11114   4.409   2.874   0.665
 3695SOL    HW111115   4.478   2.858   0.735
 3695SOL    HW211116   4.336   2.931   0.703
 3696SOL     OW11117   4.410   3.023   1.803
 3696SOL    HW111118   4.470   3.102   1.817
 3696SOL    HW211119   4.324   3.054   1.762
 3697SOL     OW11120   4.059   3.297   1.061
 3697SOL    HW111121   3.981   3.266   1.008
 3697SOL    HW211122   4.117   3.355   1.004
 3698SOL     OW11123   4.162   2.254   1.499
 3698SOL    HW111124   4.244   2.198   1.508
 3698SOL    HW211125   4.081   2.196   1.503
 3699SOL     OW11126   3.955   3.575   0.483
 3699SOL    HW111127   3.989   3.652   0.537
 3699SOL    HW211128   3.999   3.575   0.393
 3700SOL     OW11129   4.851   3.203   1.690
 3700SOL    HW111130   4.898   3.203   1.778
 3700SOL    HW211131   4.803   3.116   1.679
 3701SOL     OW11132   3.954   3.296   0.538
 3701SOL    HW111133   3.928   3.392   0.538
 3701SOL    HW211134   3.883   3.242   0.583
 3702SOL     OW11135   3.964   2.953   0.886
 3702SOL    HW111136   3.978   2.869   0.938
 3702SOL    HW211137   3.909   3.017   0.941
 3703SOL     OW11138   4.344   3.648   1.439
 3703SOL    HW111139   4.252   3.631   1.474
 3703SOL    HW211140   4.372   3.740   1.465
 3704SOL     OW11141   4.330   2.826   0.123
 3704SOL    HW111142   4.337   2.910   0.069
 3704SOL    HW211143   4.376   2.839   0.211
 3705SOL     OW11144   3.846   2.505   0.563
 3705SOL    HW111145   3.801   2.417   0.580
 3705SOL    HW211146   3.845   2.559   0.647
 3706SOL     OW11147   3.751   3.458   0.117
 3706SOL    HW111148   3.732   3.362   0.138
 3706SOL    HW211149   3.718   3.516   0.192
 3707SOL     OW11150   5.413   2.784   0.612
 3707SOL    HW111151   5.508   2.755   0.620
 3707SOL    HW211152   5.405   2.849   0.537
 3708SOL     OW11153   3.837   2.599   1.597
 3708SOL    HW111154   3.925   2.586   1.642
 3708SOL    HW211155   3.824   2.696   1.575
 3709SOL     OW11156   4.337   3.227   0.726
 3709SOL    HW111157   4.288   3.140   0.735
 3709SOL    HW211158   4.314   3.270   0.639
 3710SOL     OW11159   5.017   3.090   1.423
 3710SOL    HW111160   5.054   3.017   1.365
 3710SOL    HW211161   5.069   3.095   1.508
 3711SOL     OW11162   4.533   1.866   0.502
 3711SOL    HW111163   4.573   1.957   0.493
 3711SOL    HW211164   4.433   1.874   0.508
 3712SOL     OW11165   3.921   2.838   1.264
 3712SOL    HW111166   4.010   2.793   1.250
 3712SOL    HW211167   3.848   2.773   1.245
 3713SOL     OW11168   4.911   3.654   1.616
 3713SOL    HW111169   4.935   3.714   1.540
 3713SOL    HW211170   4.918   3.559   1.586
 3714SOL     OW11171   4.041   2.113   1.801
 3714SOL    HW111172   4.112   2.184   1.807
 3714SOL    HW211173   3.953   2.152   1.829
 3715SOL     OW11174   4.322   2.591   0.270
 3715SOL    HW111175   4.346   2.660   0.202
 3715SOL    HW211176   4.244   2.624   0.324
 3716SOL     OW11177   5.005   2.207   0.944
 3716SOL    HW111178   4.919   2.157   0.931
 3716SOL    HW211179   5.067   2.153   1.000
 3717SOL     OW11180   4.531   2.467   1.465
 3717SOL    HW111181   4.484   2.464   1.554
 3717SOL    HW211182   4.480   2.412   1.399
 3718SOL     OW11183   5.118   2.331   1.674
 3718SOL    HW111184   5.098   2.374   1.762
 3718SOL    HW211185   5.196   2.269   1.683
 3719SOL     OW11186   4.697   2.752   1.572
 3719SOL    HW111187   4.743   2.668   1.543
 3719SOL    HW211188   4.641   2.786   1.497
 3720SOL     OW11189   4.715   2.272   1.242
 3720SOL    HW111190   4.638   2.306   1.296
 3720SOL    HW211191   4.681   2.221   1.163
 3721SOL     OW11192   4.765   2.563   0.429
 3721SOL    HW111193   4.791   2.559   0.525
 3721SOL    HW211194   4.680   2.512   0.415
 3722SOL     OW11195   3.800   2.673   0.789
 3722SOL    HW111196   3.899   2.661   0.798
 3722SOL    HW211197   3.776   2.768   0.810
 3723SOL     OW11198   3.854   3.683   1.571
 3723SOL    HW111199   3.844   3.668   1.670
 3723SOL    HW211200   3.768   3.719   1.535
 3724SOL     OW11201   4.589   2.210   0.195
 3724SOL    HW111202   4.648   2.273   0.146
 3724SOL    HW211203   4.608   2.116   0.166
 3725SOL     OW11204   5.086   3.006   0.545
 3725SOL    HW111205   5.169   2.977   0.497
 3725SOL    HW211206   5.037   3.073   0.489
 3726SOL     OW11207   4.274   2.058   0.885
 3726SOL    HW111208   4.269   2.053   0.985
 3726SOL    HW211209   4.276   2.154   0.856
 3727SOL     OW11210   4.732   3.318   0.477
 3727SOL    HW111211   4.686   3.390   0.425
 3727SOL    HW211212   4.728   3.338   0.575
 3728SOL     OW11213   4.075   3.663   0.853
 3728SOL    HW111214   4.125   3.577   0.859
 3728SOL    HW211215   4.140   3.740   0.850
 3729SOL     OW11216   4.951   3.412   1.506
 3729SOL    HW111217   4.957   3.335   1.570
 3729SOL    HW211218   4.899   3.386   1.426
 3730SOL     OW11219   4.045   2.805   0.242
 3730SOL    HW111220   4.127   2.844   0.200
 3730SOL    HW211221   4.018   2.723   0.193
 3731SOL     OW11222   4.185   3.128   1.727
 3731SOL    HW111223   4.135   3.129   1.641
 3731SOL    HW211224   4.122   3.110   1.803
 3732SOL     OW11225   4.835   3.638   0.237
 3732SOL    HW111226   4.775   3.576   0.287
 3732SOL    HW211227   4.866   3.594   0.152
 3733SOL     OW11228   3.926   2.147   1.498
 3733SOL    HW111229   3.846   2.207   1.485
 3733SOL    HW211230   3.916   2.098   1.584
 3734SOL     OW11231   5.356   3.239   0.081
 3734SOL    HW111232   5.324   3.333   0.071
 3734SOL    HW211233   5.280   3.176   0.069
 3735SOL     OW11234   4.188   3.605   0.323
 3735SOL    HW111235   4.221   3.644   0.409
 3735SOL    HW211236   4.264   3.598   0.258
 3736SOL     OW11237   3.973   3.647   1.241
 3736SOL    HW111238   4.030   3.582   1.291
 3736SOL    HW211239   3.957   3.614   1.148
 3737SOL     OW11240   4.664   3.560   0.904
 3737SOL    HW111241   4.744   3.503   0.925
 3737SOL    HW211242   4.615   3.520   0.827
 3738SOL     OW11243   4.106   2.562   0.480
 3738SOL    HW111244   4.151   2.472   0.477
 3738SOL    HW211245   4.012   2.551   0.513
 3739SOL     OW11246   4.505   2.126   1.749
 3739SOL    HW111247   4.572   2.065   1.792
 3739SOL    HW211248   4.432   2.145   1.814
 3740SOL     OW11249   4.612   3.376   1.195
 3740SOL    HW111250   4.589   3.351   1.101
 3740SOL    HW211251   4.673   3.307   1.234
 3741SOL     OW11252   5.075   2.452   1.433
 3741SOL    HW111253   5.103   2.409   1.518
 3741SOL    HW211254   5.100   2.548   1.434
 3742SOL     OW11255   4.527   3.264   0.924
 3742SOL    HW111256   4.617   3.278   0.882
 3742SOL    HW211257   4.456   3.266   0.853
 3743SOL     OW11258   4.646   2.365   0.899
 3743SOL    HW111259   4.621   2.356   0.803
 3743SOL    HW211260   4.694   2.283   0.930
 3744SOL     OW11261   4.263   1.926   0.512
 3744SOL    HW111262   4.182   1.927   0.570
 3744SOL    HW211263   4.266   2.009   0.457
 3745SOL     OW11264   4.659   2.098   0.480
 3745SOL    HW111265   4.611   2.139   0.402
 3745SOL    HW211266   4.758   2.096   0.461
 3746SOL     OW11267   4.800   2.545   1.464
 3746SOL    HW111268   4.720   2.484   1.467
 3746SOL    HW211269   4.881   2.492   1.440
 3747SOL     OW11270   4.951   3.432   0.793
 3747SOL    HW111271   4.972   3.506   0.728
 3747SOL    HW211272   5.019   3.432   0.866
 3748SOL     OW11273   4.183   3.014   0.741
 3748SOL    HW111274   4.112   2.987   0.806
 3748SOL    HW211275   4.157   2.986   0.648
 3749SOL     OW11276   4.995   3.659   0.591
 3749SOL    HW111277   5.039   3.723   0.527
 3749SOL    HW211278   4.945   3.711   0.661
 3750SOL     OW11279   4.756   2.411   0.016
 3750SOL    HW111280   4.715   2.493  -0.023
 3750SOL    HW211281   4.820   2.437   0.089
 3751SOL     OW11282   3.802   2.418   1.386
 3751SOL    HW111283   3.894   2.417   1.345
 3751SOL    HW211284   3.796   2.492   1.453
 3752SOL     OW11285   4.285   2.084   1.147
 3752SOL    HW111286   4.323   2.000   1.184
 3752SOL    HW211287   4.197   2.103   1.191
 3753SOL     OW11288   4.590   2.316   0.642
 3753SOL    HW111289   4.558   2.388   0.580
 3753SOL    HW211290   4.614   2.235   0.589
 3754SOL     OW11291   4.741   1.901   0.753
 3754SOL    HW111292   4.669   1.906   0.684
 3754SOL    HW211293   4.717   1.832   0.822
 3755SOL     OW11294   4.212   3.247   0.174
 3755SOL    HW111295   4.125   3.232   0.221
 3755SOL    HW211296   4.195   3.273   0.079
 3756SOL     OW11297   5.114   2.437   0.078
 3756SOL    HW111298   5.060   2.416   0.159
 3756SOL    HW211299   5.205   2.396   0.087
 3757SOL     OW11300   4.251   2.118   0.328
 3757SOL    HW111301   4.278   2.059   0.253
 3757SOL    HW211302   4.251   2.213   0.297
 3758SOL     OW11303   4.788   3.209   1.340
 3758SOL    HW111304   4.708   3.186   1.395
 3758SOL    HW211305   4.871   3.183   1.389
 3759SOL     OW11306   4.835   3.057   1.100
 3759SOL    HW111307   4.795   3.101   1.181
 3759SOL    HW211308   4.794   3.094   1.017
 3760SOL     OW11309   4.639   1.951   1.402
 3760SOL    HW111310   4.664   1.931   1.307
 3760SOL    HW211311   4.711   2.007   1.444
 3761SOL     OW11312   4.704   2.978   1.719
 3761SOL    HW111313   4.605   2.984   1.729
 3761SOL    HW211314   4.727   2.898   1.663
 3762SOL     OW11315   4.429   2.912   0.368
 3762SOL    HW111316   4.415   2.919   0.467
 3762SOL    HW211317   4.513   2.861   0.350
 3763SOL     OW11318   4.134   2.675   1.251
 3763SOL    HW111319   4.220   2.687   1.301
 3763SOL    HW211320   4.092   2.588   1.278
 3764SOL     OW11321   4.998   2.248   1.262
 3764SOL    HW111322   5.019   2.322   1.326
 3764SOL    HW211323   4.909   2.265   1.219
 3765SOL     OW11324   3.788   3.426   1.331
 3765SOL    HW111325   3.742   3.508   1.297
 3765SOL    HW211326   3.886   3.445   1.340
 3766SOL     OW11327   4.091   2.962   0.501
 3766SOL    HW111328   4.084   3.045   0.445
 3766SOL    HW211329   4.095   2.882   0.441
 3767SOL     OW11330   4.290   2.399   0.865
 3767SOL    HW111331   4.302   2.465   0.791
 3767SOL    HW211332   4.336   2.433   0.948
 3768SOL     OW11333   4.976   3.210   0.388
 3768SOL    HW111334   5.026   3.287   0.428
 3768SOL    HW211335   4.881   3.212   0.420
 3769SOL     OW11336   4.996   3.307   1.142
 3769SOL    HW111337   5.043   3.320   1.229
 3769SOL    HW211338   4.930   3.233   1.151
 3770SOL     OW11339   4.078   3.372   1.329
 3770SOL    HW111340   4.057   3.328   1.242
 3770SOL    HW211341   4.175   3.398   1.332
 3771SOL     OW11342   4.126   2.613   1.598
 3771SOL    HW111343   4.194   2.668   1.551
 3771SOL    HW211344   4.166   2.525   1.625
 3772SOL     OW11345   4.737   1.967   1.770
 3772SOL    HW111346   4.743   2.052   1.718
 3772SOL    HW211347   4.769   1.891   1.713
 3773SOL     OW11348   4.228   1.912   1.740
 3773SOL    HW111349   4.186   1.855   1.670
 3773SOL    HW211350   4.162   1.981   1.772
 3774SOL     OW11351   4.297   2.732   1.029
 3774SOL    HW111352   4.341   2.821   1.020
 3774SOL    HW211353   4.234   2.732   1.106
 3775SOL     OW11354   5.084   2.724   1.045
 3775SOL    HW111355   5.009   2.724   0.979
 3775SOL    HW211356   5.121   2.632   1.054
 3776SOL     OW11357   4.933   2.387   0.275
 3776SOL    HW111358   4.946   2.303   0.329
 3776SOL    HW211359   4.904   2.461   0.335
 3777SOL     OW11360   4.031   2.075   1.231
 3777SOL    HW111361   4.008   2.112   1.321
 3777SOL    HW211362   4.001   1.980   1.225
 3778SOL     OW11363   3.761   3.172   1.282
 3778SOL    HW111364   3.814   3.123   1.350
 3778SOL    HW211365   3.783   3.270   1.287
 3779SOL     OW11366   4.456   2.496   1.064
 3779SOL    HW111367   4.515   2.470   0.988
 3779SOL    HW211368   4.428   2.592   1.053
 3780SOL     OW11369   4.031   1.925   0.618
 3780SOL    HW111370   4.020   2.019   0.651
 3780SOL    HW211371   4.026   1.862   0.695
 3781SOL     OW11372   5.346   2.229   0.374
 3781SOL    HW111373   5.348   2.153   0.438
 3781SOL    HW211374   5.298   2.306   0.414
 3782SOL     OW11375   4.747   2.628   0.966
 3782SOL    HW111376   4.762   2.649   1.062
 3782SOL    HW211377   4.717   2.533   0.957
 3783SOL     OW11378   4.704   3.435   1.700
 3783SOL    HW111379   4.684   3.479   1.612
 3783SOL    HW211380   4.743   3.344   1.684
 3784SOL     OW11381   4.074   2.760   1.804
 3784SOL    HW111382   4.150   2.804   1.852
 3784SOL    HW211383   4.109   2.713   1.722
 3785SOL     OW11384   5.027   2.700   0.042
 3785SOL    HW111385   5.061   2.607   0.057
 3785SOL    HW211386   5.045   2.727  -0.053
 3786SOL     OW11387   4.792   3.195   0.849
 3786SOL    HW111388   4.799   3.111   0.794
 3786SOL    HW211389   4.854   3.264   0.813
 3787SOL     OW11390   4.043   2.672   0.949
 3787SOL    HW111391   4.136   2.708   0.954
 3787SOL    HW211392   4.037   2.587   1.001
 3788SOL     OW11393   4.063   2.371   1.006
 3788SOL    HW111394   4.011   2.288   0.989
 3788SOL    HW211395   4.140   2.376   0.942
 3789SOL     OW11396   4.862   2.242   1.678
 3789SOL    HW111397   4.817   2.305   1.742
 3789SOL    HW211398   4.955   2.273   1.661
 3790SOL     OW11399   4.884   2.069   1.477
 3790SOL    HW111400   4.884   2.133   1.554
 3790SOL    HW211401   4.912   2.117   1.394
 3791SOL     OW11402   3.812   3.663   0.927
 3791SOL    HW111403   3.770   3.577   0.900
 3791SOL    HW211404   3.906   3.666   0.893
 3792SOL     OW11405   4.228   3.430   0.910
 3792SOL    HW111406   4.294   3.504   0.919
 3792SOL    HW211407   4.272   3.351   0.868
 3793SOL     OW11408   4.726   2.658   1.238
 3793SOL    HW111409   4.767   2.626   1.324
 3793SOL    HW211410   4.630   2.631   1.235
 3794SOL     OW11411   3.764   2.406   1.114
 3794SOL    HW111412   3.849   2.373   1.073
 3794SOL    HW211413   3.777   2.421   1.212
 3795SOL     OW11414   3.913   2.382   1.722
 3795SOL    HW111415   3.972   2.342   1.652
 3795SOL    HW211416   3.855   2.453   1.681
 3796SOL     OW11417   4.539   2.434   0.325
 3796SOL    HW111418   4.546   2.345   0.279
 3796SOL    HW211419   4.445   2.468   0.317
 3797SOL     OW11420   3.976   3.426   1.744
 3797SOL    HW111421   3.946   3.483   1.820
 3797SOL    HW211422   3.969   3.329   1.770
 3798SOL     OW11423   4.395   2.326   1.269
 3798SOL    HW111424   4.361   2.237   1.239
 3798SOL    HW211425   4.421   2.380   1.189
 3799SOL     OW11426   4.654   3.540   1.465
 3799SOL    HW111427   4.630   3.522   1.370
 3799SOL    HW211428   4.684   3.634   1.475
 3800SOL     OW11429   4.197   2.362   0.191
 3800SOL    HW111430   4.258   2.442   0.195
 3800SOL    HW211431   4.102   2.393   0.198
 3801SOL     OW11432   3.883   2.999   1.466
 3801SOL    HW111433   3.905   2.938   1.542
 3801SOL    HW211434   3.893   2.950   1.380
 3802SOL     OW11435   5.071   2.921   1.234
 3802SOL    HW111436   5.095   2.858   1.160
 3802SOL    HW211437   4.981   2.961   1.216
 3803SOL     OW11438   5.026   2.717   0.309
 3803SOL    HW111439   4.940   2.686   0.351
 3803SOL    HW211440   5.022   2.703   0.210
 3804SOL     OW11441   4.976   3.593   1.128
 3804SOL    HW111442   5.060   3.598   1.074
 3804SOL    HW211443   4.953   3.497   1.146
 3805SOL     OW11444   3.807   3.120   1.022
 3805SOL    HW111445   3.802   3.119   1.122
 3805SOL    HW211446   3.724   3.079   0.984
 3806SOL     OW11447   4.412   3.524   1.716
 3806SOL    HW111448   4.356   3.605   1.725
 3806SOL    HW211449   4.464   3.528   1.630
 3807SOL     OW11450   4.627   1.948   0.133
 3807SOL    HW111451   4.678   1.949   0.047
 3807SOL    HW211452   4.683   1.906   0.204
 3808SOL     OW11453   5.112   3.435   0.477
 3808SOL    HW111454   5.179   3.447   0.403
 3808SOL    HW211455   5.072   3.524   0.500
 3809SOL     OW11456   3.854   3.656   1.851
 3809SOL    HW111457   3.813   3.582   1.904
 3809SOL    HW211458   3.918   3.707   1.909
 3810SOL     OW11459   5.004   2.789   0.672
 3810SOL    HW111460   5.064   2.708   0.674
 3810SOL    HW211461   5.044   2.858   0.612
 3811SOL     OW11462   4.554   3.135   1.422
 3811SOL    HW111463   4.549   3.168   1.517
 3811SOL    HW211464   4.468   3.154   1.376
 3812SOL     OW11465   4.396   3.478   0.154
 3812SOL    HW111466   4.405   3.488   0.055
 3812SOL    HW211467   4.356   3.389   0.175
 3813SOL     OW11468   3.987   2.188   0.720
 3813SOL    HW111469   3.908   2.239   0.686
 3813SOL    HW211470   3.978   2.173   0.818
 3814SOL     OW11471   4.918   3.474   0.031
 3814SOL    HW111472   4.924   3.381   0.068
 3814SOL    HW211473   4.859   3.474  -0.049
 3815SOL     OW11474   4.546   2.864   1.372
 3815SOL    HW111475   4.586   2.863   1.280
 3815SOL    HW211476   4.556   2.956   1.412
 3816SOL     OW11477   4.640   2.772   0.291
 3816SOL    HW111478   4.703   2.810   0.223
 3816SOL    HW211479   4.680   2.689   0.330
 3817SOL     OW11480   4.096   3.150   1.490
 3817SOL    HW111481   4.083   3.243   1.456
 3817SOL    HW211482   4.012   3.098   1.477
 3818SOL     OW11483   4.763   2.960   0.696
 3818SOL    HW111484   4.693   2.913   0.750
 3818SOL    HW211485   4.822   2.892   0.653
 3819SOL     OW11486   4.738   2.098   0.971
 3819SOL    HW111487   4.730   2.062   0.878
 3819SOL    HW211488   4.736   2.022   1.036
 3820SOL     OW11489   4.314   3.349   0.491
 3820SOL    HW111490   4.356   3.291   0.421
 3820SOL    HW211491   4.270   3.428   0.447
 3821SOL     OW11492   3.979   3.210   0.290
 3821SOL    HW111493   3.883   3.211   0.263
 3821SOL    HW211494   3.991   3.263   0.374
 3822SOL     OW11495   3.829   2.875   1.726
 3822SOL    HW111496   3.752   2.842   1.780
 3822SOL    HW211497   3.914   2.845   1.768
 3823SOL     OW11498   4.396   2.065   1.489
 3823SOL    HW111499   4.486   2.049   1.449
 3823SOL    HW211500   4.404   2.070   1.588
 3824SOL     OW11501   3.799   2.207   0.033
 3824SOL    HW111502   3.707   2.179   0.004
 3824SOL    HW211503   3.830   2.284  -0.023
 3825SOL     OW11504   5.164   2.718   1.398
 3825SOL    HW111505   5.107   2.770   1.335
 3825SOL    HW211506   5.260   2.730   1.374
 3826SOL     OW11507   3.796   2.028   0.318
 3826SOL    HW111508   3.779   2.111   0.264
 3826SOL    HW211509   3.886   1.991   0.296
 3827SOL     OW11510   4.907   3.197   0.119
 3827SOL    HW111511   4.808   3.186   0.121
 3827SOL    HW211512   4.941   3.212   0.212
 3828SOL     OW11513   4.337   2.704   1.431
 3828SOL    HW111514   4.393   2.785   1.414
 3828SOL    HW211515   4.396   2.624   1.434
 3829SOL     OW11516   4.440   2.427   1.708
 3829SOL    HW111517   4.459   2.492   1.782
 3829SOL    HW211518   4.500   2.347   1.717
 3830SOL     OW11519   5.174   3.082   1.633
 3830SOL    HW111520   5.165   3.072   1.732
 3830SOL    HW211521   5.270   3.075   1.607
 3831SOL     OW11522   4.114   3.603   1.560
 3831SOL    HW111523   4.023   3.644   1.558
 3831SOL    HW211524   4.107   3.509   1.592
 3832SOL     OW11525   4.949   2.187   0.449
 3832SOL    HW111526   5.014   2.113   0.438
 3832SOL    HW211527   4.969   2.237   0.533
 3833SOL     OW11528   4.318   2.607   0.652
 3833SOL    HW111529   4.368   2.692   0.633
 3833SOL    HW211530   4.230   2.609   0.604
 3834SOL     OW11531   4.583   3.236   0.016
 3834SOL    HW111532   4.537   3.251   0.104
 3834SOL    HW211533   4.627   3.321  -0.014
 3835SOL     OW11534   4.385   3.652   0.953
 3835SOL    HW111535   4.339   3.740   0.940
 3835SOL    HW211536   4.484   3.664   0.946
 3836SOL     OW11537   4.583   2.818   0.861
 3836SOL    HW111538   4.637   2.749   0.909
 3836SOL    HW211539   4.551   2.887   0.927
 3837SOL     OW11540   4.807   2.846   0.087
 3837SOL    HW111541   4.784   2.899   0.005
 3837SOL    HW211542   4.888   2.790   0.068
 3838SOL     OW11543   3.945   3.176   1.844
 3838SOL    HW111544   3.880   3.103   1.823
 3838SOL    HW211545   3.949   3.190   1.942
 3839SOL     OW11546   3.803   3.102   0.653
 3839SOL    HW111547   3.802   3.055   0.741
 3839SOL    HW211548   3.885   3.074   0.602
 3840SOL     OW11549   4.396   3.253   1.624
 3840SOL    HW111550   4.318   3.203   1.662
 3840SOL    HW211551   4.393   3.348   1.655
 3841SOL     OW11552   4.152   2.286   0.520
 3841SOL    HW111553   4.182   2.214   0.458
 3841SOL    HW211554   4.113   2.246   0.603
 3842SOL     OW11555   4.041   2.409   1.280
 3842SOL    HW111556   4.079   2.350   1.352
 3842SOL    HW211557   4.081   2.383   1.192
 3843SOL     OW11558   4.536   3.448   0.687
 3843SOL    HW111559   4.568   3.458   0.593
 3843SOL    HW211560   4.457   3.386   0.689
 3844SOL     OW11561   5.148   2.076   1.112
 3844SOL    HW111562   5.200   2.011   1.167
 3844SOL    HW211563   5.099   2.139   1.173
 3845SOL     OW11564   4.725   1.896   1.154
 3845SOL    HW111565   4.662   1.824   1.123
 3845SOL    HW211566   4.818   1.860   1.154
 3846SOL     OW11567   4.494   3.192   0.301
 3846SOL    HW111568   4.448   3.105   0.318
 3846SOL    HW211569   4.585   3.189   0.342
 3847SOL     OW11570   4.342   3.429   1.284
 3847SOL    HW111571   4.337   3.511   1.341
 3847SOL    HW211572   4.431   3.426   1.239
 3848SOL     OW11573   3.763   2.939   0.300
 3848SOL    HW111574   3.862   2.928   0.291
 3848SOL    HW211575   3.723   2.853   0.332
 3849SOL     OW11576   4.599   3.508   0.337
 3849SOL    HW111577   4.522   3.473   0.283
 3849SOL    HW211578   4.567   3.579   0.399
 3850SOL     OW11579   3.954   2.490   1.975
 3850SOL    HW111580   3.861   2.488   2.012
 3850SOL    HW211581   3.955   2.451   1.883
 3851SOL     OW11582   3.949   2.137   2.858
 3851SOL    HW111583   3.984   2.120   2.950
 3851SOL    HW211584   3.861   2.092   2.846
 3852SOL     OW11585   3.743   2.230   2.509
 3852SOL    HW111586   3.661   2.273   2.548
 3852SOL    HW211587   3.715   2.157   2.446
 3853SOL     OW11588   4.293   3.137   3.027
 3853SOL    HW111589   4.200   3.130   2.990
 3853SOL    HW211590   4.304   3.226   3.071
 3854SOL     OW11591   5.279   3.373   2.565
 3854SOL    HW111592   5.222   3.357   2.646
 3854SOL    HW211593   5.220   3.383   2.485
 3855SOL     OW11594   4.859   2.565   2.579
 3855SOL    HW111595   4.916   2.643   2.554
 3855SOL    HW211596   4.799   2.591   2.655
 3856SOL     OW11597   4.492   3.006   2.885
 3856SOL    HW111598   4.414   3.023   2.945
 3856SOL    HW211599   4.526   3.093   2.849
 3857SOL     OW11600   4.574   2.660   3.685
 3857SOL    HW111601   4.570   2.736   3.750
 3857SOL    HW211602   4.596   2.696   3.594
 3858SOL     OW11603   4.409   2.874   2.527
 3858SOL    HW111604   4.478   2.858   2.597
 3858SOL    HW211605   4.336   2.931   2.565
 3859SOL     OW11606   4.410   3.023   3.665
 3859SOL    HW111607   4.470   3.102   3.679
 3859SOL    HW211608   4.324   3.054   3.624
 3860SOL     OW11609   4.059   3.297   2.923
 3860SOL    HW111610   3.981   3.266   2.870
 3860SOL    HW211611   4.117   3.355   2.866
 3861SOL     OW11612   4.162   2.254   3.361
 3861SOL    HW111613   4.244   2.198   3.370
 3861SOL    HW211614   4.081   2.196   3.365
 3862SOL     OW11615   3.955   3.575   2.345
 3862SOL    HW111616   3.989   3.652   2.399
 3862SOL    HW211617   3.999   3.575   2.255
 3863SOL     OW11618   4.851   3.203   3.552
 3863SOL    HW111619   4.898   3.203   3.640
 3863SOL    HW211620   4.803   3.116   3.541
 3864SOL     OW11621   3.954   3.296   2.400
 3864SOL    HW111622   3.928   3.392   2.400
 3864SOL    HW211623   3.883   3.242   2.445
 3865SOL     OW11624   3.964   2.953   2.748
 3865SOL    HW111625   3.978   2.869   2.800
 3865SOL    HW211626   3.909   3.017   2.803
 3866SOL     OW11627   4.344   3.648   3.301
 3866SOL    HW111628   4.252   3.631   3.336
 3866SOL    HW211629   4.372   3.740   3.327
 3867SOL     OW11630   4.330   2.826   1.985
 3867SOL    HW111631   4.337   2.910   1.931
 3867SOL    HW211632   4.376   2.839   2.073
 3868SOL     OW11633   3.846   2.505   2.425
 3868SOL    HW111634   3.801   2.417   2.442
 3868SOL    HW211635   3.845   2.559   2.509
 3869SOL     OW11636   3.751   3.458   1.979
 3869SOL    HW111637   3.732   3.362   2.000
 3869SOL    HW211638   3.718   3.516   2.054
 3870SOL     OW11639   5.413   2.784   2.474
 3870SOL    HW111640   5.508   2.755   2.482
 3870SOL    HW211641   5.405   2.849   2.399
 3871SOL     OW11642   3.837   2.599   3.459
 3871SOL    HW111643   3.925   2.586   3.504
 3871SOL    HW211644   3.824   2.696   3.437
 3872SOL     OW11645   4.337   3.227   2.588
 3872SOL    HW111646   4.288   3.140   2.597
 3872SOL    HW211647   4.314   3.270   2.501
 3873SOL     OW11648   5.017   3.090   3.285
 3873SOL    HW111649   5.054   3.017   3.227
 3873SOL    HW211650   5.069   3.095   3.370
 3874SOL     OW11651   4.533   1.866   2.364
 3874SOL    HW111652   4.573   1.957   2.355
 3874SOL    HW211653   4.433   1.874   2.370
 3875SOL     OW11654   3.921   2.838   3.126
 3875SOL    HW111655   4.010   2.793   3.112
 3875SOL    HW211656   3.848   2.773   3.107
 3876SOL     OW11657   4.911   3.654   3.478
 3876SOL    HW111658   4.935   3.714   3.402
 3876SOL    HW211659   4.918   3.559   3.448
 3877SOL     OW11660   4.041   2.113   3.663
 3877SOL    HW111661   4.112   2.184   3.669
 3877SOL    HW211662   3.953   2.152   3.691
 3878SOL     OW11663   4.322   2.591   2.132
 3878SOL    HW111664   4.346   2.660   2.064
 3878SOL    HW211665   4.244   2.624   2.186
 3879SOL     OW11666   5.005   2.207   2.806
 3879SOL    HW111667   4.919   2.157   2.793
 3879SOL    HW211668   5.067   2.153   2.862
 3880SOL     OW11669   4.531   2.467   3.327
 3880SOL    HW111670   4.484   2.464   3.416
 3880SOL    HW211671   4.480   2.412   3.261
 3881SOL     OW11672   5.118   2.331   3.536
 3881SOL    HW111673   5.098   2.374   3.624
 3881SOL    HW211674   5.196   2.269   3.545
 3882SOL     OW11675   4.697   2.752   3.434
 3882SOL    HW111676   4.743   2.668   3.405
 3882SOL    HW211677   4.641   2.786   3.359
 3883SOL     OW11678   4.715   2.272   3.104
 3883SOL    HW111679   4.638   2.306   3.158
 3883SOL    HW211680   4.681   2.221   3.025
 3884SOL     OW11681   4.765   2.563   2.291
 3884SOL    HW111682   4.791   2.559   2.387
 3884SOL    HW211683   4.680   2.512   2.277
 3885SOL     OW11684   3.800   2.673   2.651
 3885SOL    HW111685   3.899   2.661   2.660
 3885SOL    HW211686   3.776   2.768   2.672
 3886SOL     OW11687   3.854   3.683   3.433
 3886SOL    HW111688   3.844   3.668   3.532
 3886SOL    HW211689   3.768   3.719   3.397
 3887SOL     OW11690   4.589   2.210   2.057
 3887SOL    HW111691   4.648   2.273   2.008
 3887SOL    HW211692   4.608   2.116   2.028
 3888SOL     OW11693   5.086   3.006   2.407
 3888SOL    HW111694   5.169   2.977   2.359
 3888SOL    HW211695   5.037   3.073   2.351
 3889SOL     OW11696   4.274   2.058   2.747
 3889SOL    HW111697   4.269   2.053   2.847
 3889SOL    HW211698   4.276   2.154   2.718
 3890SOL     OW11699   4.732   3.318   2.339
 3890SOL    HW111700   4.686   3.390   2.287
 3890SOL    HW211701   4.728   3.338   2.437
 3891SOL     OW11702   4.075   3.663   2.715
 3891SOL    HW111703   4.125   3.577   2.721
 3891SOL    HW211704   4.140   3.740   2.712
 3892SOL     OW11705   4.951   3.412   3.368
 3892SOL    HW111706   4.957   3.335   3.432
 3892SOL    HW211707   4.899   3.386   3.288
 3893SOL     OW11708   4.045   2.805   2.104
 3893SOL    HW111709   4.127   2.844   2.062
 3893SOL    HW211710   4.018   2.723   2.055
 3894SOL     OW11711   4.185   3.128   3.589
 3894SOL    HW111712   4.135   3.129   3.503
 3894SOL    HW211713   4.122   3.110   3.665
 3895SOL     OW11714   4.835   3.638   2.099
 3895SOL    HW111715   4.775   3.576   2.149
 3895SOL    HW211716   4.866   3.594   2.014
 3896SOL     OW11717   3.926   2.147   3.360
 3896SOL    HW111718   3.846   2.207   3.347
 3896SOL    HW211719   3.916   2.098   3.446
 3897SOL     OW11720   4.188   3.605   2.185
 3897SOL    HW111721   4.221   3.644   2.271
 3897SOL    HW211722   4.264   3.598   2.120
 3898SOL     OW11723   3.973   3.647   3.103
 3898SOL    HW111724   4.030   3.582   3.153
 3898SOL    HW211725   3.957   3.614   3.010
 3899SOL     OW11726   4.664   3.560   2.766
 3899SOL    HW111727   4.744   3.503   2.787
 3899SOL    HW211728   4.615   3.520   2.689
 3900SOL     OW11729   4.106   2.562   2.342
 3900SOL    HW111730   4.151   2.472   2.339
 3900SOL    HW211731   4.012   2.551   2.375
 3901SOL     OW11732   4.338   1.984   1.979
 3901SOL    HW111733   4.436   1.962   1.986
 3901SOL    HW211734   4.307   1.967   1.886
 3902SOL     OW11735   4.505   2.126   3.611
 3902SOL    HW111736   4.572   2.065   3.654
 3902SOL    HW211737   4.432   2.145   3.676
 3903SOL     OW11738   4.612   3.376   3.057
 3903SOL    HW111739   4.589   3.351   2.963
 3903SOL    HW211740   4.673   3.307   3.096
 3904SOL     OW11741   5.075   2.452   3.295
 3904SOL    HW111742   5.103   2.409   3.380
 3904SOL    HW211743   5.100   2.548   3.296
 3905SOL     OW11744   4.527   3.264   2.786
 3905SOL    HW111745   4.617   3.278   2.744
 3905SOL    HW211746   4.456   3.266   2.715
 3906SOL     OW11747   4.646   2.365   2.761
 3906SOL    HW111748   4.621   2.356   2.665
 3906SOL    HW211749   4.694   2.283   2.792
 3907SOL     OW11750   4.263   1.926   2.374
 3907SOL    HW111751   4.182   1.927   2.432
 3907SOL    HW211752   4.266   2.009   2.319
 3908SOL     OW11753   5.158   3.050   1.903
 3908SOL    HW111754   5.190   2.974   1.960
 3908SOL    HW211755   5.066   3.077   1.933
 3909SOL     OW11756   4.021   1.897   2.033
 3909SOL    HW111757   4.070   1.981   2.012
 3909SOL    HW211758   4.083   1.832   2.078
 3910SOL     OW11759   4.659   2.098   2.342
 3910SOL    HW111760   4.611   2.139   2.264
 3910SOL    HW211761   4.758   2.096   2.323
 3911SOL     OW11762   4.800   2.545   3.326
 3911SOL    HW111763   4.720   2.484   3.329
 3911SOL    HW211764   4.881   2.492   3.302
 3912SOL     OW11765   4.951   3.432   2.655
 3912SOL    HW111766   4.972   3.506   2.590
 3912SOL    HW211767   5.019   3.432   2.728
 3913SOL     OW11768   4.183   3.014   2.603
 3913SOL    HW111769   4.112   2.987   2.668
 3913SOL    HW211770   4.157   2.986   2.510
 3914SOL     OW11771   4.995   3.659   2.453
 3914SOL    HW111772   5.039   3.723   2.389
 3914SOL    HW211773   4.945   3.711   2.523
 3915SOL     OW11774   4.756   2.411   1.878
 3915SOL    HW111775   4.715   2.493   1.839
 3915SOL    HW211776   4.820   2.437   1.951
 3916SOL     OW11777   3.802   2.418   3.248
 3916SOL    HW111778   3.894   2.417   3.207
 3916SOL    HW211779   3.796   2.492   3.315
 3917SOL     OW11780   4.285   2.084   3.009
 3917SOL    HW111781   4.323   2.000   3.046
 3917SOL    HW211782   4.197   2.103   3.053
 3918SOL     OW11783   4.590   2.316   2.504
 3918SOL    HW111784   4.558   2.388   2.442
 3918SOL    HW211785   4.614   2.235   2.451
 3919SOL     OW11786   4.741   1.901   2.615
 3919SOL    HW111787   4.669   1.906   2.546
 3919SOL    HW211788   4.717   1.832   2.684
 3920SOL     OW11789   4.212   3.247   2.036
 3920SOL    HW111790   4.125   3.232   2.083
 3920SOL    HW211791   4.195   3.273   1.941
 3921SOL     OW11792   5.114   2.437   1.940
 3921SOL    HW111793   5.060   2.416   2.021
 3921SOL    HW211794   5.205   2.396   1.949
 3922SOL     OW11795   4.251   2.118   2.190
 3922SOL    HW111796   4.278   2.059   2.115
 3922SOL    HW211797   4.251   2.213   2.159
 3923SOL     OW11798   4.788   3.209   3.202
 3923SOL    HW111799   4.708   3.186   3.257
 3923SOL    HW211800   4.871   3.183   3.251
 3924SOL     OW11801   4.835   3.057   2.962
 3924SOL    HW111802   4.795   3.101   3.043
 3924SOL    HW211803   4.794   3.094   2.879
 3925SOL     OW11804   4.639   1.951   3.264
 3925SOL    HW111805   4.664   1.931   3.169
 3925SOL    HW211806   4.711   2.007   3.306
 3926SOL     OW11807   4.704   2.978   3.581
 3926SOL    HW111808   4.605   2.984   3.591
 3926SOL    HW211809   4.727   2.898   3.525
 3927SOL     OW11810   4.429   2.912   2.230
 3927SOL    HW111811   4.415   2.919   2.329
 3927SOL    HW211812   4.513   2.861   2.212
 3928SOL     OW11813   4.134   2.675   3.113
 3928SOL    HW111814   4.220   2.687   3.163
 3928SOL    HW211815   4.092   2.588   3.140
 3929SOL     OW11816   4.998   2.248   3.124
 3929SOL    HW111817   5.019   2.322   3.188
 3929SOL    HW211818   4.909   2.265   3.081
 3930SOL     OW11819   3.788   3.426   3.193
 3930SOL    HW111820   3.742   3.508   3.159
 3930SOL    HW211821   3.886   3.445   3.202
 3931SOL     OW11822   4.091   2.962   2.363
 3931SOL    HW111823   4.084   3.045   2.307
 3931SOL    HW211824   4.095   2.882   2.303
 3932SOL     OW11825   4.290   2.399   2.727
 3932SOL    HW111826   4.302   2.465   2.653
 3932SOL    HW211827   4.336   2.433   2.810
 3933SOL     OW11828   4.976   3.210   2.250
 3933SOL    HW111829   5.026   3.287   2.290
 3933SOL    HW211830   4.881   3.212   2.282
 3934SOL     OW11831   4.996   3.307   3.004
 3934SOL    HW111832   5.043   3.320   3.091
 3934SOL    HW211833   4.930   3.233   3.013
 3935SOL     OW11834   4.078   3.372   3.191
 3935SOL    HW111835   4.057   3.328   3.104
 3935SOL    HW211836   4.175   3.398   3.194
 3936SOL     OW11837   4.126   2.613   3.460
 3936SOL    HW111838   4.194   2.668   3.413
 3936SOL    HW211839   4.166   2.525   3.487
 3937SOL     OW11840   4.737   1.967   3.632
 3937SOL    HW111841   4.743   2.052   3.580
 3937SOL    HW211842   4.769   1.891   3.575
 3938SOL     OW11843   4.228   1.912   3.602
 3938SOL    HW111844   4.186   1.855   3.532
 3938SOL    HW211845   4.162   1.981   3.634
 3939SOL     OW11846   4.297   2.732   2.891
 3939SOL    HW111847   4.341   2.821   2.882
 3939SOL    HW211848   4.234   2.732   2.968
 3940SOL     OW11849   5.084   2.724   2.907
 3940SOL    HW111850   5.009   2.724   2.841
 3940SOL    HW211851   5.121   2.632   2.916
 3941SOL     OW11852   4.933   2.387   2.137
 3941SOL    HW111853   4.946   2.303   2.191
 3941SOL    HW211854   4.904   2.461   2.197
 3942SOL     OW11855   4.031   2.075   3.093
 3942SOL    HW111856   4.008   2.112   3.183
 3942SOL    HW211857   4.001   1.980   3.087
 3943SOL     OW11858   3.761   3.172   3.144
 3943SOL    HW111859   3.814   3.123   3.212
 3943SOL    HW211860   3.783   3.270   3.149
 3944SOL     OW11861   4.456   2.496   2.926
 3944SOL    HW111862   4.515   2.470   2.850
 3944SOL    HW211863   4.428   2.592   2.915
 3945SOL     OW11864   4.031   1.925   2.480
 3945SOL    HW111865   4.020   2.019   2.513
 3945SOL    HW211866   4.026   1.862   2.557
 3946SOL     OW11867   5.346   2.229   2.236
 3946SOL    HW111868   5.348   2.153   2.300
 3946SOL    HW211869   5.298   2.306   2.276
 3947SOL     OW11870   4.747   2.628   2.828
 3947SOL    HW111871   4.762   2.649   2.924
 3947SOL    HW211872   4.717   2.533   2.819
 3948SOL     OW11873   4.704   3.435   3.562
 3948SOL    HW111874   4.684   3.479   3.474
 3948SOL    HW211875   4.743   3.344   3.546
 3949SOL     OW11876   4.074   2.760   3.666
 3949SOL    HW111877   4.150   2.804   3.714
 3949SOL    HW211878   4.109   2.713   3.584
 3950SOL     OW11879   5.027   2.700   1.904
 3950SOL    HW111880   5.061   2.607   1.919
 3950SOL    HW211881   5.045   2.727   1.809
 3951SOL     OW11882   4.792   3.195   2.711
 3951SOL    HW111883   4.799   3.111   2.656
 3951SOL    HW211884   4.854   3.264   2.675
 3952SOL     OW11885   4.043   2.672   2.811
 3952SOL    HW111886   4.136   2.708   2.816
 3952SOL    HW211887   4.037   2.587   2.863
 3953SOL     OW11888   4.063   2.371   2.868
 3953SOL    HW111889   4.011   2.288   2.851
 3953SOL    HW211890   4.140   2.376   2.804
 3954SOL     OW11891   4.862   2.242   3.540
 3954SOL    HW111892   4.817   2.305   3.604
 3954SOL    HW211893   4.955   2.273   3.523
 3955SOL     OW11894   4.884   2.069   3.339
 3955SOL    HW111895   4.884   2.133   3.416
 3955SOL    HW211896   4.912   2.117   3.256
 3956SOL     OW11897   3.732   3.188   2.062
 3956SOL    HW111898   3.639   3.209   2.031
 3956SOL    HW211899   3.742   3.089   2.075
 3957SOL     OW11900   3.812   3.663   2.789
 3957SOL    HW111901   3.770   3.577   2.762
 3957SOL    HW211902   3.906   3.666   2.755
 3958SOL     OW11903   4.228   3.430   2.772
 3958SOL    HW111904   4.294   3.504   2.781
 3958SOL    HW211905   4.272   3.351   2.730
 3959SOL     OW11906   4.726   2.658   3.100
 3959SOL    HW111907   4.767   2.626   3.186
 3959SOL    HW211908   4.630   2.631   3.097
 3960SOL     OW11909   3.764   2.406   2.976
 3960SOL    HW111910   3.849   2.373   2.935
 3960SOL    HW211911   3.777   2.421   3.074
 3961SOL     OW11912   3.913   2.382   3.584
 3961SOL    HW111913   3.972   2.342   3.514
 3961SOL    HW211914   3.855   2.453   3.543
 3962SOL     OW11915   4.539   2.434   2.187
 3962SOL    HW111916   4.546   2.345   2.141
 3962SOL    HW211917   4.445   2.468   2.179
 3963SOL     OW11918   3.976   3.426   3.606
 3963SOL    HW111919   3.946   3.483   3.682
 3963SOL    HW211920   3.969   3.329   3.632
 3964SOL     OW11921   4.395   2.326   3.131
 3964SOL    HW111922   4.361   2.237   3.101
 3964SOL    HW211923   4.421   2.380   3.051
 3965SOL     OW11924   4.654   3.540   3.327
 3965SOL    HW111925   4.630   3.522   3.232
 3965SOL    HW211926   4.684   3.634   3.337
 3966SOL     OW11927   4.197   2.362   2.053
 3966SOL    HW111928   4.258   2.442   2.057
 3966SOL    HW211929   4.102   2.393   2.060
 3967SOL     OW11930   3.883   2.999   3.328
 3967SOL    HW111931   3.905   2.938   3.404
 3967SOL    HW211932   3.893   2.950   3.242
 3968SOL     OW11933   5.071   2.921   3.096
 3968SOL    HW111934   5.095   2.858   3.022
 3968SOL    HW211935   4.981   2.961   3.078
 3969SOL     OW11936   5.026   2.717   2.171
 3969SOL    HW111937   4.940   2.686   2.213
 3969SOL    HW211938   5.022   2.703   2.072
 3970SOL     OW11939   4.976   3.593   2.990
 3970SOL    HW111940   5.060   3.598   2.936
 3970SOL    HW211941   4.953   3.497   3.008
 3971SOL     OW11942   3.807   3.120   2.884
 3971SOL    HW111943   3.802   3.119   2.984
 3971SOL    HW211944   3.724   3.079   2.846
 3972SOL     OW11945   4.412   3.524   3.578
 3972SOL    HW111946   4.356   3.605   3.587
 3972SOL    HW211947   4.464   3.528   3.492
 3973SOL     OW11948   5.112   3.435   2.339
 3973SOL    HW111949   5.179   3.447   2.265
 3973SOL    HW211950   5.072   3.524   2.362
 3974SOL     OW11951   3.854   3.656   3.713
 3974SOL    HW111952   3.813   3.582   3.766
 3974SOL    HW211953   3.918   3.707   3.771
 3975SOL     OW11954   5.004   2.789   2.534
 3975SOL    HW111955   5.064   2.708   2.536
 3975SOL    HW211956   5.044   2.858   2.474
 3976SOL     OW11957   4.554   3.135   3.284
 3976SOL    HW111958   4.549   3.168   3.379
 3976SOL    HW211959   4.468   3.154   3.238
 3977SOL     OW11960   4.396   3.478   2.016
 3977SOL    HW111961   4.405   3.488   1.917
 3977SOL    HW211962   4.356   3.389   2.037
 3978SOL     OW11963   3.987   2.188   2.582
 3978SOL    HW111964   3.908   2.239   2.548
 3978SOL    HW211965   3.978   2.173   2.680
 3979SOL     OW11966   4.918   3.474   1.893
 3979SOL    HW111967   4.924   3.381   1.930
 3979SOL    HW211968   4.859   3.474   1.813
 3980SOL     OW11969   4.546   2.864   3.234
 3980SOL    HW111970   4.586   2.863   3.142
 3980SOL    HW211971   4.556   2.956   3.274
 3981SOL     OW11972   4.640   2.772   2.153
 3981SOL    HW111973   4.703   2.810   2.085
 3981SOL    HW211974   4.680   2.689   2.192
 3982SOL     OW11975   4.096   3.150   3.352
 3982SOL    HW111976   4.083   3.243   3.318
 3982SOL    HW211977   4.012   3.098   3.339
 3983SOL     OW11978   4.763   2.960   2.558
 3983SOL    HW111979   4.693   2.913   2.612
 3983SOL    HW211980   4.822   2.892   2.515
 3984SOL     OW11981   4.738   2.098   2.833
 3984SOL    HW111982   4.730   2.062   2.740
 3984SOL    HW211983   4.736   2.022   2.898
 3985SOL     OW11984   4.314   3.349   2.353
 3985SOL    HW111985   4.356   3.291   2.283
 3985SOL    HW211986   4.270   3.428   2.309
 3986SOL     OW11987   3.979   3.210   2.152
 3986SOL    HW111988   3.883   3.211   2.125
 3986SOL    HW211989   3.991   3.263   2.236
 3987SOL     OW11990   3.829   2.875   3.588
 3987SOL    HW111991   3.752   2.842   3.642
 3987SOL    HW211992   3.914   2.845   3.630
 3988SOL     OW11993   4.396   2.065   3.351
 3988SOL    HW111994   4.486   2.049   3.311
 3988SOL    HW211995   4.404   2.070   3.450
 3989SOL     OW11996   3.799   2.207   1.895
 3989SOL    HW111997   3.707   2.179   1.866
 3989SOL    HW211998   3.830   2.284   1.839
 3990SOL     OW11999   5.164   2.718   3.260
 3990SOL    HW112000   5.107   2.770   3.197
 3990SOL    HW212001   5.260   2.730   3.236
 3991SOL     OW12002   3.796   2.028   2.180
 3991SOL    HW112003   3.779   2.111   2.126
 3991SOL    HW212004   3.886   1.991   2.158
 3992SOL     OW12005   4.907   3.197   1.981
 3992SOL    HW112006   4.808   3.186   1.983
 3992SOL    HW212007   4.941   3.212   2.074
 3993SOL     OW12008   4.337   2.704   3.293
 3993SOL    HW112009   4.393   2.785   3.276
 3993SOL    HW212010   4.396   2.624   3.296
 3994SOL     OW12011   4.440   2.427   3.570
 3994SOL    HW112012   4.459   2.492   3.644
 3994SOL    HW212013   4.500   2.347   3.579
 3995SOL     OW12014   5.174   3.082   3.495
 3995SOL    HW112015   5.165   3.072   3.594
 3995SOL    HW212016   5.270   3.075   3.469
 3996SOL     OW12017   4.114   3.603   3.422
 3996SOL    HW112018   4.023   3.644   3.420
 3996SOL    HW212019   4.107   3.509   3.454
 3997SOL     OW12020   4.949   2.187   2.311
 3997SOL    HW112021   5.014   2.113   2.300
 3997SOL    HW212022   4.969   2.237   2.395
 3998SOL     OW12023   4.318   2.607   2.514
 3998SOL    HW112024   4.368   2.692   2.495
 3998SOL    HW212025   4.230   2.609   2.466
 3999SOL     OW12026   4.583   3.236   1.878
 3999SOL    HW112027   4.537   3.251   1.966
 3999SOL    HW212028   4.627   3.321   1.848
 4000SOL     OW12029   4.385   3.652   2.815
 4000SOL    HW112030   4.339   3.740   2.802
 4000SOL    HW212031   4.484   3.664   2.808
 4001SOL     OW12032   4.583   2.818   2.723
 4001SOL    HW112033   4.637   2.749   2.771
 4001SOL    HW212034   4.551   2.887   2.789
 4002SOL     OW12035   4.807   2.846   1.949
 4002SOL    HW112036   4.784   2.899   1.867
 4002SOL    HW212037   4.888   2.790   1.930
 4003SOL     OW12038   3.945   3.176   3.706
 4003SOL    HW112039   3.880   3.103   3.685
 4003SOL    HW212040   3.949   3.190   3.804
 4004SOL     OW12041   3.803   3.102   2.515
 4004SOL    HW112042   3.802   3.055   2.603
 4004SOL    HW212043   3.885   3.074   2.464
 4005SOL     OW12044   4.396   3.253   3.486
 4005SOL    HW112045   4.318   3.203   3.524
 4005SOL    HW212046   4.393   3.348   3.517
 4006SOL     OW12047   4.152   2.286   2.382
 4006SOL    HW112048   4.182   2.214   2.320
 4006SOL    HW212049   4.113   2.246   2.465
 4007SOL     OW12050   4.041   2.409   3.142
 4007SOL    HW112051   4.079   2.350   3.214
 4007SOL    HW212052   4.081   2.383   3.054
 4008SOL     OW12053   4.536   3.448   2.549
 4008SOL    HW112054   4.568   3.458   2.455
 4008SOL    HW212055   4.457   3.386   2.551
 4009SOL     OW12056   5.148   2.076   2.974
 4009SOL    HW112057   5.200   2.011   3.029
 4009SOL    HW212058   5.099   2.139   3.035
 4010SOL     OW12059   4.725   1.896   3.016
 4010SOL    HW112060   4.662   1.824   2.985
 4010SOL    HW212061   4.818   1.860   3.016
 4011SOL     OW12062   4.494   3.192   2.163
 4011SOL    HW112063   4.448   3.105   2.180
 4011SOL    HW212064   4.585   3.189   2.204
 4012SOL     OW12065   4.342   3.429   3.146
 4012SOL    HW112066   4.337   3.511   3.203
 4012SOL    HW212067   4.431   3.426   3.101
 4013SOL     OW12068   5.076   1.914   2.030
 4013SOL    HW112069   5.111   1.873   1.946
 4013SOL    HW212070   4.986   1.876   2.050
 4014SOL     OW12071   3.763   2.939   2.162
 4014SOL    HW112072   3.862   2.928   2.153
 4014SOL    HW212073   3.723   2.853   2.194
 4015SOL     OW12074   4.599   3.508   2.199
 4015SOL    HW112075   4.522   3.473   2.145
 4015SOL    HW212076   4.567   3.579   2.261
 4016SOL     OW12077   3.954   2.490   3.837
 4016SOL    HW112078   3.861   2.488   3.874
 4016SOL    HW212079   3.955   2.451   3.745
 4017SOL     OW12080   3.949   2.137   4.720
 4017SOL    HW112081   3.984   2.120   4.812
 4017SOL    HW212082   3.861   2.092   4.708
 4018SOL     OW12083   3.743   2.230   4.371
 4018SOL    HW112084   3.661   2.273   4.410
 4018SOL    HW212085   3.715   2.157   4.308
 4019SOL     OW12086   4.293   3.137   4.889
 4019SOL    HW112087   4.200   3.130   4.852
 4019SOL    HW212088   4.304   3.226   4.933
 4020SOL     OW12089   5.279   3.373   4.427
 4020SOL    HW112090   5.222   3.357   4.508
 4020SOL    HW212091   5.220   3.383   4.347
 4021SOL     OW12092   4.859   2.565   4.441
 4021SOL    HW112093   4.916   2.643   4.416
 4021SOL    HW212094   4.799   2.591   4.517
 4022SOL     OW12095   4.492   3.006   4.747
 4022SOL    HW112096   4.414   3.023   4.807
 4022SOL    HW212097   4.526   3.093   4.711
 4023SOL     OW12098   4.409   2.874   4.389
 4023SOL    HW112099   4.478   2.858   4.459
 4023SOL    HW212100   4.336   2.931   4.427
 4024SOL     OW12101   4.059   3.297   4.785
 4024SOL    HW112102   3.981   3.266   4.732
 4024SOL    HW212103   4.117   3.355   4.728
 4025SOL     OW12104   4.162   2.254   5.223
 4025SOL    HW112105   4.244   2.198   5.232
 4025SOL    HW212106   4.081   2.196   5.227
 4026SOL     OW12107   3.955   3.575   4.207
 4026SOL    HW112108   3.989   3.652   4.261
 4026SOL    HW212109   3.999   3.575   4.117
 4027SOL     OW12110   3.954   3.296   4.262
 4027SOL    HW112111   3.928   3.392   4.262
 4027SOL    HW212112   3.883   3.242   4.307
 4028SOL     OW12113   3.964   2.953   4.610
 4028SOL    HW112114   3.978   2.869   4.662
 4028SOL    HW212115   3.909   3.017   4.665
 4029SOL     OW12116   4.344   3.648   5.163
 4029SOL    HW112117   4.252   3.631   5.198
 4029SOL    HW212118   4.372   3.740   5.189
 4030SOL     OW12119   4.330   2.826   3.847
 4030SOL    HW112120   4.337   2.910   3.793
 4030SOL    HW212121   4.376   2.839   3.935
 4031SOL     OW12122   5.318   1.976   5.204
 4031SOL    HW112123   5.300   2.043   5.132
 4031SOL    HW212124   5.315   2.022   5.293
 4032SOL     OW12125   3.846   2.505   4.287
 4032SOL    HW112126   3.801   2.417   4.304
 4032SOL    HW212127   3.845   2.559   4.371
 4033SOL     OW12128   3.751   3.458   3.841
 4033SOL    HW112129   3.732   3.362   3.862
 4033SOL    HW212130   3.718   3.516   3.916
 4034SOL     OW12131   5.413   2.784   4.336
 4034SOL    HW112132   5.508   2.755   4.344
 4034SOL    HW212133   5.405   2.849   4.261
 4035SOL     OW12134   4.337   3.227   4.450
 4035SOL    HW112135   4.288   3.140   4.459
 4035SOL    HW212136   4.314   3.270   4.363
 4036SOL     OW12137   5.017   3.090   5.147
 4036SOL    HW112138   5.054   3.017   5.089
 4036SOL    HW212139   5.069   3.095   5.232
 4037SOL     OW12140   4.533   1.866   4.226
 4037SOL    HW112141   4.573   1.957   4.217
 4037SOL    HW212142   4.433   1.874   4.232
 4038SOL     OW12143   3.921   2.838   4.988
 4038SOL    HW112144   4.010   2.793   4.974
 4038SOL    HW212145   3.848   2.773   4.969
 4039SOL     OW12146   4.322   2.591   3.994
 4039SOL    HW112147   4.346   2.660   3.926
 4039SOL    HW212148   4.244   2.624   4.048
 4040SOL     OW12149   5.005   2.207   4.668
 4040SOL    HW112150   4.919   2.157   4.655
 4040SOL    HW212151   5.067   2.153   4.724
 4041SOL     OW12152   4.531   2.467   5.189
 4041SOL    HW112153   4.484   2.464   5.278
 4041SOL    HW212154   4.480   2.412   5.123
 4042SOL     OW12155   4.715   2.272   4.966
 4042SOL    HW112156   4.638   2.306   5.020
 4042SOL    HW212157   4.681   2.221   4.887
 4043SOL     OW12158   4.765   2.563   4.153
 4043SOL    HW112159   4.791   2.559   4.249
 4043SOL    HW212160   4.680   2.512   4.139
 4044SOL     OW12161   3.800   2.673   4.513
 4044SOL    HW112162   3.899   2.661   4.522
 4044SOL    HW212163   3.776   2.768   4.534
 4045SOL     OW12164   3.854   3.683   5.295
 4045SOL    HW112165   3.844   3.668   5.394
 4045SOL    HW212166   3.768   3.719   5.259
 4046SOL     OW12167   4.589   2.210   3.919
 4046SOL    HW112168   4.648   2.273   3.870
 4046SOL    HW212169   4.608   2.116   3.890
 4047SOL     OW12170   5.086   3.006   4.269
 4047SOL    HW112171   5.169   2.977   4.221
 4047SOL    HW212172   5.037   3.073   4.213
 4048SOL     OW12173   4.274   2.058   4.609
 4048SOL    HW112174   4.269   2.053   4.709
 4048SOL    HW212175   4.276   2.154   4.580
 4049SOL     OW12176   4.732   3.318   4.201
 4049SOL    HW112177   4.686   3.390   4.149
 4049SOL    HW212178   4.728   3.338   4.299
 4050SOL     OW12179   4.075   3.663   4.577
 4050SOL    HW112180   4.125   3.577   4.583
 4050SOL    HW212181   4.140   3.740   4.574
 4051SOL     OW12182   4.045   2.805   3.966
 4051SOL    HW112183   4.127   2.844   3.924
 4051SOL    HW212184   4.018   2.723   3.917
 4052SOL     OW12185   4.835   3.638   3.961
 4052SOL    HW112186   4.775   3.576   4.011
 4052SOL    HW212187   4.866   3.594   3.876
 4053SOL     OW12188   4.188   3.605   4.047
 4053SOL    HW112189   4.221   3.644   4.133
 4053SOL    HW212190   4.264   3.598   3.982
 4054SOL     OW12191   3.973   3.647   4.965
 4054SOL    HW112192   4.030   3.582   5.015
 4054SOL    HW212193   3.957   3.614   4.872
 4055SOL     OW12194   4.664   3.560   4.628
 4055SOL    HW112195   4.744   3.503   4.649
 4055SOL    HW212196   4.615   3.520   4.551
 4056SOL     OW12197   4.106   2.562   4.204
 4056SOL    HW112198   4.151   2.472   4.201
 4056SOL    HW212199   4.012   2.551   4.237
 4057SOL     OW12200   4.338   1.984   3.841
 4057SOL    HW112201   4.436   1.962   3.848
 4057SOL    HW212202   4.307   1.967   3.748
 4058SOL     OW12203   4.612   3.376   4.919
 4058SOL    HW112204   4.589   3.351   4.825
 4058SOL    HW212205   4.673   3.307   4.958
 4059SOL     OW12206   4.527   3.264   4.648
 4059SOL    HW112207   4.617   3.278   4.606
 4059SOL    HW212208   4.456   3.266   4.577
 4060SOL     OW12209   4.646   2.365   4.623
 4060SOL    HW112210   4.621   2.356   4.527
 4060SOL    HW212211   4.694   2.283   4.654
 4061SOL     OW12212   4.263   1.926   4.236
 4061SOL    HW112213   4.182   1.927   4.294
 4061SOL    HW212214   4.266   2.009   4.181
 4062SOL     OW12215   5.158   3.050   3.765
 4062SOL    HW112216   5.190   2.974   3.822
 4062SOL    HW212217   5.066   3.077   3.795
 4063SOL     OW12218   4.021   1.897   3.895
 4063SOL    HW112219   4.070   1.981   3.874
 4063SOL    HW212220   4.083   1.832   3.940
 4064SOL     OW12221   4.659   2.098   4.204
 4064SOL    HW112222   4.611   2.139   4.126
 4064SOL    HW212223   4.758   2.096   4.185
 4065SOL     OW12224   4.951   3.432   4.517
 4065SOL    HW112225   4.972   3.506   4.452
 4065SOL    HW212226   5.019   3.432   4.590
 4066SOL     OW12227   4.183   3.014   4.465
 4066SOL    HW112228   4.112   2.987   4.530
 4066SOL    HW212229   4.157   2.986   4.372
 4067SOL     OW12230   4.995   3.659   4.315
 4067SOL    HW112231   5.039   3.723   4.251
 4067SOL    HW212232   4.945   3.711   4.385
 4068SOL     OW12233   4.756   2.411   3.740
 4068SOL    HW112234   4.715   2.493   3.701
 4068SOL    HW212235   4.820   2.437   3.813
 4069SOL     OW12236   4.285   2.084   4.871
 4069SOL    HW112237   4.323   2.000   4.908
 4069SOL    HW212238   4.197   2.103   4.915
 4070SOL     OW12239   4.590   2.316   4.366
 4070SOL    HW112240   4.558   2.388   4.304
 4070SOL    HW212241   4.614   2.235   4.313
 4071SOL     OW12242   4.741   1.901   4.477
 4071SOL    HW112243   4.669   1.906   4.408
 4071SOL    HW212244   4.717   1.832   4.546
 4072SOL     OW12245   4.212   3.247   3.898
 4072SOL    HW112246   4.125   3.232   3.945
 4072SOL    HW212247   4.195   3.273   3.803
 4073SOL     OW12248   5.114   2.437   3.802
 4073SOL    HW112249   5.060   2.416   3.883
 4073SOL    HW212250   5.205   2.396   3.811
 4074SOL     OW12251   4.251   2.118   4.052
 4074SOL    HW112252   4.278   2.059   3.977
 4074SOL    HW212253   4.251   2.213   4.021
 4075SOL     OW12254   4.835   3.057   4.824
 4075SOL    HW112255   4.795   3.101   4.905
 4075SOL    HW212256   4.794   3.094   4.741
 4076SOL     OW12257   4.429   2.912   4.092
 4076SOL    HW112258   4.415   2.919   4.191
 4076SOL    HW212259   4.513   2.861   4.074
 4077SOL     OW12260   4.134   2.675   4.975
 4077SOL    HW112261   4.220   2.687   5.025
 4077SOL    HW212262   4.092   2.588   5.002
 4078SOL     OW12263   4.998   2.248   4.986
 4078SOL    HW112264   5.019   2.322   5.050
 4078SOL    HW212265   4.909   2.265   4.943
 4079SOL     OW12266   3.788   3.426   5.055
 4079SOL    HW112267   3.742   3.508   5.021
 4079SOL    HW212268   3.886   3.445   5.064
 4080SOL     OW12269   4.091   2.962   4.225
 4080SOL    HW112270   4.084   3.045   4.169
 4080SOL    HW212271   4.095   2.882   4.165
 4081SOL     OW12272   4.290   2.399   4.589
 4081SOL    HW112273   4.302   2.465   4.515
 4081SOL    HW212274   4.336   2.433   4.672
 4082SOL     OW12275   4.976   3.210   4.112
 4082SOL    HW112276   5.026   3.287   4.152
 4082SOL    HW212277   4.881   3.212   4.144
 4083SOL     OW12278   4.996   3.307   4.866
 4083SOL    HW112279   5.043   3.320   4.953
 4083SOL    HW212280   4.930   3.233   4.875
 4084SOL     OW12281   4.078   3.372   5.053
 4084SOL    HW112282   4.057   3.328   4.966
 4084SOL    HW212283   4.175   3.398   5.056
 4085SOL     OW12284   4.297   2.732   4.753
 4085SOL    HW112285   4.341   2.821   4.744
 4085SOL    HW212286   4.234   2.732   4.830
 4086SOL     OW12287   5.084   2.724   4.769
 4086SOL    HW112288   5.009   2.724   4.703
 4086SOL    HW212289   5.121   2.632   4.778
 4087SOL     OW12290   4.933   2.387   3.999
 4087SOL    HW112291   4.946   2.303   4.053
 4087SOL    HW212292   4.904   2.461   4.059
 4088SOL     OW12293   4.031   2.075   4.955
 4088SOL    HW112294   4.008   2.112   5.045
 4088SOL    HW212295   4.001   1.980   4.949
 4089SOL     OW12296   3.761   3.172   5.006
 4089SOL    HW112297   3.814   3.123   5.074
 4089SOL    HW212298   3.783   3.270   5.011
 4090SOL     OW12299   4.456   2.496   4.788
 4090SOL    HW112300   4.515   2.470   4.712
 4090SOL    HW212301   4.428   2.592   4.777
 4091SOL     OW12302   4.031   1.925   4.342
 4091SOL    HW112303   4.020   2.019   4.375
 4091SOL    HW212304   4.026   1.862   4.419
 4092SOL     OW12305   5.346   2.229   4.098
 4092SOL    HW112306   5.348   2.153   4.162
 4092SOL    HW212307   5.298   2.306   4.138
 4093SOL     OW12308   4.747   2.628   4.690
 4093SOL    HW112309   4.762   2.649   4.786
 4093SOL    HW212310   4.717   2.533   4.681
 4094SOL     OW12311   5.027   2.700   3.766
 4094SOL    HW112312   5.061   2.607   3.781
 4094SOL    HW212313   5.045   2.727   3.671
 4095SOL     OW12314   4.792   3.195   4.573
 4095SOL    HW112315   4.799   3.111   4.518
 4095SOL    HW212316   4.854   3.264   4.537
 4096SOL     OW12317   4.043   2.672   4.673
 4096SOL    HW112318   4.136   2.708   4.678
 4096SOL    HW212319   4.037   2.587   4.725
 4097SOL     OW12320   4.063   2.371   4.730
 4097SOL    HW112321   4.011   2.288   4.713
 4097SOL    HW212322   4.140   2.376   4.666
 4098SOL     OW12323   4.884   2.069   5.201
 4098SOL    HW112324   4.884   2.133   5.278
 4098SOL    HW212325   4.912   2.117   5.118
 4099SOL     OW12326   3.732   3.188   3.924
 4099SOL    HW112327   3.639   3.209   3.893
 4099SOL    HW212328   3.742   3.089   3.937
 4100SOL     OW12329   3.812   3.663   4.651
 4100SOL    HW112330   3.770   3.577   4.624
 4100SOL    HW212331   3.906   3.666   4.617
 4101SOL     OW12332   4.228   3.430   4.634
 4101SOL    HW112333   4.294   3.504   4.643
 4101SOL    HW212334   4.272   3.351   4.592
 4102SOL     OW12335   4.726   2.658   4.962
 4102SOL    HW112336   4.767   2.626   5.048
 4102SOL    HW212337   4.630   2.631   4.959
 4103SOL     OW12338   3.764   2.406   4.838
 4103SOL    HW112339   3.849   2.373   4.797
 4103SOL    HW212340   3.777   2.421   4.936
 4104SOL     OW12341   4.539   2.434   4.049
 4104SOL    HW112342   4.546   2.345   4.003
 4104SOL    HW212343   4.445   2.468   4.041
 4105SOL     OW12344   4.395   2.326   4.993
 4105SOL    HW112345   4.361   2.237   4.963
 4105SOL    HW212346   4.421   2.380   4.913
 4106SOL     OW12347   4.654   3.540   5.189
 4106SOL    HW112348   4.630   3.522   5.094
 4106SOL    HW212349   4.684   3.634   5.199
 4107SOL     OW12350   4.197   2.362   3.915
 4107SOL    HW112351   4.258   2.442   3.919
 4107SOL    HW212352   4.102   2.393   3.922
 4108SOL     OW12353   3.883   2.999   5.190
 4108SOL    HW112354   3.905   2.938   5.266
 4108SOL    HW212355   3.893   2.950   5.104
 4109SOL     OW12356   5.071   2.921   4.958
 4109SOL    HW112357   5.095   2.858   4.884
 4109SOL    HW212358   4.981   2.961   4.940
 4110SOL     OW12359   5.026   2.717   4.033
 4110SOL    HW112360   4.940   2.686   4.075
 4110SOL    HW212361   5.022   2.703   3.934
 4111SOL     OW12362   4.976   3.593   4.852
 4111SOL    HW112363   5.060   3.598   4.798
 4111SOL    HW212364   4.953   3.497   4.870
 4112SOL     OW12365   3.807   3.120   4.746
 4112SOL    HW112366   3.802   3.119   4.846
 4112SOL    HW212367   3.724   3.079   4.708
 4113SOL     OW12368   5.112   3.435   4.201
 4113SOL    HW112369   5.179   3.447   4.127
 4113SOL    HW212370   5.072   3.524   4.224
 4114SOL     OW12371   5.004   2.789   4.396
 4114SOL    HW112372   5.064   2.708   4.398
 4114SOL    HW212373   5.044   2.858   4.336
 4115SOL     OW12374   4.396   3.478   3.878
 4115SOL    HW112375   4.405   3.488   3.779
 4115SOL    HW212376   4.356   3.389   3.899
 4116SOL     OW12377   3.987   2.188   4.444
 4116SOL    HW112378   3.908   2.239   4.410
 4116SOL    HW212379   3.978   2.173   4.542
 4117SOL     OW12380   4.918   3.474   3.755
 4117SOL    HW112381   4.924   3.381   3.792
 4117SOL    HW212382   4.859   3.474   3.675
 4118SOL     OW12383   4.546   2.864   5.096
 4118SOL    HW112384   4.586   2.863   5.004
 4118SOL    HW212385   4.556   2.956   5.136
 4119SOL     OW12386   4.640   2.772   4.015
 4119SOL    HW112387   4.703   2.810   3.947
 4119SOL    HW212388   4.680   2.689   4.054
 4120SOL     OW12389   4.763   2.960   4.420
 4120SOL    HW112390   4.693   2.913   4.474
 4120SOL    HW212391   4.822   2.892   4.377
 4121SOL     OW12392   4.738   2.098   4.695
 4121SOL    HW112393   4.730   2.062   4.602
 4121SOL    HW212394   4.736   2.022   4.760
 4122SOL     OW12395   4.314   3.349   4.215
 4122SOL    HW112396   4.356   3.291   4.145
 4122SOL    HW212397   4.270   3.428   4.171
 4123SOL     OW12398   3.979   3.210   4.014
 4123SOL    HW112399   3.883   3.211   3.987
 4123SOL    HW212400   3.991   3.263   4.098
 4124SOL     OW12401   4.396   2.065   5.213
 4124SOL    HW112402   4.486   2.049   5.173
 4124SOL    HW212403   4.404   2.070   5.312
 4125SOL     OW12404   3.799   2.207   3.757
 4125SOL    HW112405   3.707   2.179   3.728
 4125SOL    HW212406   3.830   2.284   3.701
 4126SOL     OW12407   3.796   2.028   4.042
 4126SOL    HW112408   3.779   2.111   3.988
 4126SOL    HW212409   3.886   1.991   4.020
 4127SOL     OW12410   4.907   3.197   3.843
 4127SOL    HW112411   4.808   3.186   3.845
 4127SOL    HW212412   4.941   3.212   3.936
 4128SOL     OW12413   4.337   2.704   5.155
 4128SOL    HW112414   4.393   2.785   5.138
 4128SOL    HW212415   4.396   2.624   5.158
 4129SOL     OW12416   4.114   3.603   5.284
 4129SOL    HW112417   4.023   3.644   5.282
 4129SOL    HW212418   4.107   3.509   5.316
 4130SOL     OW12419   4.949   2.187   4.173
 4130SOL    HW112420   5.014   2.113   4.162
 4130SOL    HW212421   4.969   2.237   4.257
 4131SOL     OW12422   4.318   2.607   4.376
 4131SOL    HW112423   4.368   2.692   4.357
 4131SOL    HW212424   4.230   2.609   4.328
 4132SOL     OW12425   4.583   3.236   3.740
 4132SOL    HW112426   4.537   3.251   3.828
 4132SOL    HW212427   4.627   3.321   3.710
 4133SOL     OW12428   4.385   3.652   4.677
 4133SOL    HW112429   4.339   3.740   4.664
 4133SOL    HW212430   4.484   3.664   4.670
 4134SOL     OW12431   4.583   2.818   4.585
 4134SOL    HW112432   4.637   2.749   4.633
 4134SOL    HW212433   4.551   2.887   4.651
 4135SOL     OW12434   4.807   2.846   3.811
 4135SOL    HW112435   4.784   2.899   3.729
 4135SOL    HW212436   4.888   2.790   3.792
 4136SOL     OW12437   3.803   3.102   4.377
 4136SOL    HW112438   3.802   3.055   4.465
 4136SOL    HW212439   3.885   3.074   4.326
 4137SOL     OW12440   4.152   2.286   4.244
 4137SOL    HW112441   4.182   2.214   4.182
 4137SOL    HW212442   4.113   2.246   4.327
 4138SOL     OW12443   4.041   2.409   5.004
 4138SOL    HW112444   4.079   2.350   5.076
 4138SOL    HW212445   4.081   2.383   4.916
 4139SOL     OW12446   4.536   3.448   4.411
 4139SOL    HW112447   4.568   3.458   4.317
 4139SOL    HW212448   4.457   3.386   4.413
 4140SOL     OW12449   5.148   2.076   4.836
 4140SOL    HW112450   5.200   2.011   4.891
 4140SOL    HW212451   5.099   2.139   4.897
 4141SOL     OW12452   4.725   1.896   4.878
 4141SOL    HW112453   4.662   1.824   4.847
 4141SOL    HW212454   4.818   1.860   4.878
 4142SOL     OW12455   4.494   3.192   4.025
 4142SOL    HW112456   4.448   3.105   4.042
 4142SOL    HW212457   4.585   3.189   4.066
 4143SOL     OW12458   4.342   3.429   5.008
 4143SOL    HW112459   4.337   3.511   5.065
 4143SOL    HW212460   4.431   3.426   4.963
 4144SOL     OW12461   5.076   1.914   3.892
 4144SOL    HW112462   5.111   1.873   3.808
 4144SOL    HW212463   4.986   1.876   3.912
 4145SOL     OW12464   3.763   2.939   4.024
 4145SOL    HW112465   3.862   2.928   4.015
 4145SOL    HW212466   3.723   2.853   4.056
 4146SOL     OW12467   4.599   3.508   4.061
 4146SOL    HW112468   4.522   3.473   4.007
 4146SOL    HW212469   4.567   3.579   4.123
 4147SOL     OW12470   3.954   4.352   0.113
 4147SOL    HW112471   3.861   4.350   0.150
 4147SOL    HW212472   3.955   4.313   0.021
 4148SOL     OW12473   3.949   3.999   0.996
 4148SOL    HW112474   3.984   3.982   1.088
 4148SOL    HW212475   3.861   3.954   0.984
 4149SOL     OW12476   3.743   4.092   0.647
 4149SOL    HW112477   3.661   4.135   0.686
 4149SOL    HW212478   3.715   4.019   0.584
 4150SOL     OW12479   4.293   4.999   1.165
 4150SOL    HW112480   4.200   4.992   1.128
 4150SOL    HW212481   4.304   5.088   1.209
 4151SOL     OW12482   5.279   5.235   0.703
 4151SOL    HW112483   5.222   5.219   0.784
 4151SOL    HW212484   5.220   5.245   0.623
 4152SOL     OW12485   4.859   4.427   0.717
 4152SOL    HW112486   4.916   4.505   0.692
 4152SOL    HW212487   4.799   4.453   0.793
 4153SOL     OW12488   4.492   4.868   1.023
 4153SOL    HW112489   4.414   4.885   1.083
 4153SOL    HW212490   4.526   4.955   0.987
 4154SOL     OW12491   4.574   4.522   1.823
 4154SOL    HW112492   4.570   4.598   1.888
 4154SOL    HW212493   4.596   4.558   1.732
 4155SOL     OW12494   4.409   4.736   0.665
 4155SOL    HW112495   4.478   4.720   0.735
 4155SOL    HW212496   4.336   4.793   0.703
 4156SOL     OW12497   4.410   4.885   1.803
 4156SOL    HW112498   4.470   4.964   1.817
 4156SOL    HW212499   4.324   4.916   1.762
 4157SOL     OW12500   4.059   5.159   1.061
 4157SOL    HW112501   3.981   5.128   1.008
 4157SOL    HW212502   4.117   5.217   1.004
 4158SOL     OW12503   4.162   4.116   1.499
 4158SOL    HW112504   4.244   4.060   1.508
 4158SOL    HW212505   4.081   4.058   1.503
 4159SOL     OW12506   3.964   4.815   0.886
 4159SOL    HW112507   3.978   4.731   0.938
 4159SOL    HW212508   3.909   4.879   0.941
 4160SOL     OW12509   4.330   4.688   0.123
 4160SOL    HW112510   4.337   4.772   0.069
 4160SOL    HW212511   4.376   4.701   0.211
 4161SOL     OW12512   3.846   4.367   0.563
 4161SOL    HW112513   3.801   4.279   0.580
 4161SOL    HW212514   3.845   4.421   0.647
 4162SOL     OW12515   5.413   4.646   0.612
 4162SOL    HW112516   5.508   4.617   0.620
 4162SOL    HW212517   5.405   4.711   0.537
 4163SOL     OW12518   3.837   4.461   1.597
 4163SOL    HW112519   3.925   4.448   1.642
 4163SOL    HW212520   3.824   4.558   1.575
 4164SOL     OW12521   4.337   5.089   0.726
 4164SOL    HW112522   4.288   5.002   0.735
 4164SOL    HW212523   4.314   5.132   0.639
 4165SOL     OW12524   5.017   4.952   1.423
 4165SOL    HW112525   5.054   4.879   1.365
 4165SOL    HW212526   5.069   4.957   1.508
 4166SOL     OW12527   4.533   3.728   0.502
 4166SOL    HW112528   4.573   3.819   0.493
 4166SOL    HW212529   4.433   3.736   0.508
 4167SOL     OW12530   3.921   4.700   1.264
 4167SOL    HW112531   4.010   4.655   1.250
 4167SOL    HW212532   3.848   4.635   1.245
 4168SOL     OW12533   4.041   3.975   1.801
 4168SOL    HW112534   4.112   4.046   1.807
 4168SOL    HW212535   3.953   4.014   1.829
 4169SOL     OW12536   4.322   4.453   0.270
 4169SOL    HW112537   4.346   4.522   0.202
 4169SOL    HW212538   4.244   4.486   0.324
 4170SOL     OW12539   5.005   4.069   0.944
 4170SOL    HW112540   4.919   4.019   0.931
 4170SOL    HW212541   5.067   4.015   1.000
 4171SOL     OW12542   4.531   4.329   1.465
 4171SOL    HW112543   4.484   4.326   1.554
 4171SOL    HW212544   4.480   4.274   1.399
 4172SOL     OW12545   5.118   4.193   1.674
 4172SOL    HW112546   5.098   4.236   1.762
 4172SOL    HW212547   5.196   4.131   1.683
 4173SOL     OW12548   4.697   4.614   1.572
 4173SOL    HW112549   4.743   4.530   1.543
 4173SOL    HW212550   4.641   4.648   1.497
 4174SOL     OW12551   4.715   4.134   1.242
 4174SOL    HW112552   4.638   4.168   1.296
 4174SOL    HW212553   4.681   4.083   1.163
 4175SOL     OW12554   4.765   4.425   0.429
 4175SOL    HW112555   4.791   4.421   0.525
 4175SOL    HW212556   4.680   4.374   0.415
 4176SOL     OW12557   3.800   4.535   0.789
 4176SOL    HW112558   3.899   4.523   0.798
 4176SOL    HW212559   3.776   4.630   0.810
 4177SOL     OW12560   4.589   4.072   0.195
 4177SOL    HW112561   4.648   4.135   0.146
 4177SOL    HW212562   4.608   3.978   0.166
 4178SOL     OW12563   5.086   4.868   0.545
 4178SOL    HW112564   5.169   4.839   0.497
 4178SOL    HW212565   5.037   4.935   0.489
 4179SOL     OW12566   4.274   3.920   0.885
 4179SOL    HW112567   4.269   3.915   0.985
 4179SOL    HW212568   4.276   4.016   0.856
 4180SOL     OW12569   4.045   4.667   0.242
 4180SOL    HW112570   4.127   4.706   0.200
 4180SOL    HW212571   4.018   4.585   0.193
 4181SOL     OW12572   4.185   4.990   1.727
 4181SOL    HW112573   4.135   4.991   1.641
 4181SOL    HW212574   4.122   4.972   1.803
 4182SOL     OW12575   3.926   4.009   1.498
 4182SOL    HW112576   3.846   4.069   1.485
 4182SOL    HW212577   3.916   3.960   1.584
 4183SOL     OW12578   4.106   4.424   0.480
 4183SOL    HW112579   4.151   4.334   0.477
 4183SOL    HW212580   4.012   4.413   0.513
 4184SOL     OW12581   4.505   3.988   1.749
 4184SOL    HW112582   4.572   3.927   1.792
 4184SOL    HW212583   4.432   4.007   1.814
 4185SOL     OW12584   5.075   4.314   1.433
 4185SOL    HW112585   5.103   4.271   1.518
 4185SOL    HW212586   5.100   4.410   1.434
 4186SOL     OW12587   4.646   4.227   0.899
 4186SOL    HW112588   4.621   4.218   0.803
 4186SOL    HW212589   4.694   4.145   0.930
 4187SOL     OW12590   4.263   3.788   0.512
 4187SOL    HW112591   4.182   3.789   0.570
 4187SOL    HW212592   4.266   3.871   0.457
 4188SOL     OW12593   4.659   3.960   0.480
 4188SOL    HW112594   4.611   4.001   0.402
 4188SOL    HW212595   4.758   3.958   0.461
 4189SOL     OW12596   4.800   4.407   1.464
 4189SOL    HW112597   4.720   4.346   1.467
 4189SOL    HW212598   4.881   4.354   1.440
 4190SOL     OW12599   4.951   5.294   0.793
 4190SOL    HW112600   4.972   5.368   0.728
 4190SOL    HW212601   5.019   5.294   0.866
 4191SOL     OW12602   4.183   4.876   0.741
 4191SOL    HW112603   4.112   4.849   0.806
 4191SOL    HW212604   4.157   4.848   0.648
 4192SOL     OW12605   4.756   4.273   0.016
 4192SOL    HW112606   4.715   4.355  -0.023
 4192SOL    HW212607   4.820   4.299   0.089
 4193SOL     OW12608   3.802   4.280   1.386
 4193SOL    HW112609   3.894   4.279   1.345
 4193SOL    HW212610   3.796   4.354   1.453
 4194SOL     OW12611   4.285   3.946   1.147
 4194SOL    HW112612   4.323   3.862   1.184
 4194SOL    HW212613   4.197   3.965   1.191
 4195SOL     OW12614   4.590   4.178   0.642
 4195SOL    HW112615   4.558   4.250   0.580
 4195SOL    HW212616   4.614   4.097   0.589
 4196SOL     OW12617   4.741   3.763   0.753
 4196SOL    HW112618   4.669   3.768   0.684
 4196SOL    HW212619   4.717   3.694   0.822
 4197SOL     OW12620   5.114   4.299   0.078
 4197SOL    HW112621   5.060   4.278   0.159
 4197SOL    HW212622   5.205   4.258   0.087
 4198SOL     OW12623   4.251   3.980   0.328
 4198SOL    HW112624   4.278   3.921   0.253
 4198SOL    HW212625   4.251   4.075   0.297
 4199SOL     OW12626   4.788   5.071   1.340
 4199SOL    HW112627   4.708   5.048   1.395
 4199SOL    HW212628   4.871   5.045   1.389
 4200SOL     OW12629   4.835   4.919   1.100
 4200SOL    HW112630   4.795   4.963   1.181
 4200SOL    HW212631   4.794   4.956   1.017
 4201SOL     OW12632   4.639   3.813   1.402
 4201SOL    HW112633   4.664   3.793   1.307
 4201SOL    HW212634   4.711   3.869   1.444
 4202SOL     OW12635   4.704   4.840   1.719
 4202SOL    HW112636   4.605   4.846   1.729
 4202SOL    HW212637   4.727   4.760   1.663
 4203SOL     OW12638   4.429   4.774   0.368
 4203SOL    HW112639   4.415   4.781   0.467
 4203SOL    HW212640   4.513   4.723   0.350
 4204SOL     OW12641   4.134   4.537   1.251
 4204SOL    HW112642   4.220   4.549   1.301
 4204SOL    HW212643   4.092   4.450   1.278
 4205SOL     OW12644   4.998   4.110   1.262
 4205SOL    HW112645   5.019   4.184   1.326
 4205SOL    HW212646   4.909   4.127   1.219
 4206SOL     OW12647   4.091   4.824   0.501
 4206SOL    HW112648   4.084   4.907   0.445
 4206SOL    HW212649   4.095   4.744   0.441
 4207SOL     OW12650   4.290   4.261   0.865
 4207SOL    HW112651   4.302   4.327   0.791
 4207SOL    HW212652   4.336   4.295   0.948
 4208SOL     OW12653   4.976   5.072   0.388
 4208SOL    HW112654   5.026   5.149   0.428
 4208SOL    HW212655   4.881   5.074   0.420
 4209SOL     OW12656   4.126   4.475   1.598
 4209SOL    HW112657   4.194   4.530   1.551
 4209SOL    HW212658   4.166   4.387   1.625
 4210SOL     OW12659   4.737   3.829   1.770
 4210SOL    HW112660   4.743   3.914   1.718
 4210SOL    HW212661   4.769   3.753   1.713
 4211SOL     OW12662   4.228   3.774   1.740
 4211SOL    HW112663   4.186   3.717   1.670
 4211SOL    HW212664   4.162   3.843   1.772
 4212SOL     OW12665   4.297   4.594   1.029
 4212SOL    HW112666   4.341   4.683   1.020
 4212SOL    HW212667   4.234   4.594   1.106
 4213SOL     OW12668   5.084   4.586   1.045
 4213SOL    HW112669   5.009   4.586   0.979
 4213SOL    HW212670   5.121   4.494   1.054
 4214SOL     OW12671   4.933   4.249   0.275
 4214SOL    HW112672   4.946   4.165   0.329
 4214SOL    HW212673   4.904   4.323   0.335
 4215SOL     OW12674   4.031   3.937   1.231
 4215SOL    HW112675   4.008   3.974   1.321
 4215SOL    HW212676   4.001   3.842   1.225
 4216SOL     OW12677   3.761   5.034   1.282
 4216SOL    HW112678   3.814   4.985   1.350
 4216SOL    HW212679   3.783   5.132   1.287
 4217SOL     OW12680   4.456   4.358   1.064
 4217SOL    HW112681   4.515   4.332   0.988
 4217SOL    HW212682   4.428   4.454   1.053
 4218SOL     OW12683   4.031   3.787   0.618
 4218SOL    HW112684   4.020   3.881   0.651
 4218SOL    HW212685   4.026   3.724   0.695
 4219SOL     OW12686   5.346   4.091   0.374
 4219SOL    HW112687   5.348   4.015   0.438
 4219SOL    HW212688   5.298   4.168   0.414
 4220SOL     OW12689   4.747   4.490   0.966
 4220SOL    HW112690   4.762   4.511   1.062
 4220SOL    HW212691   4.717   4.395   0.957
 4221SOL     OW12692   4.074   4.622   1.804
 4221SOL    HW112693   4.150   4.666   1.852
 4221SOL    HW212694   4.109   4.575   1.722
 4222SOL     OW12695   5.027   4.562   0.042
 4222SOL    HW112696   5.061   4.469   0.057
 4222SOL    HW212697   5.045   4.589  -0.053
 4223SOL     OW12698   4.043   4.534   0.949
 4223SOL    HW112699   4.136   4.570   0.954
 4223SOL    HW212700   4.037   4.449   1.001
 4224SOL     OW12701   4.063   4.233   1.006
 4224SOL    HW112702   4.011   4.150   0.989
 4224SOL    HW212703   4.140   4.238   0.942
 4225SOL     OW12704   4.862   4.104   1.678
 4225SOL    HW112705   4.817   4.167   1.742
 4225SOL    HW212706   4.955   4.135   1.661
 4226SOL     OW12707   4.884   3.931   1.477
 4226SOL    HW112708   4.884   3.995   1.554
 4226SOL    HW212709   4.912   3.979   1.394
 4227SOL     OW12710   4.726   4.520   1.238
 4227SOL    HW112711   4.767   4.488   1.324
 4227SOL    HW212712   4.630   4.493   1.235
 4228SOL     OW12713   3.764   4.268   1.114
 4228SOL    HW112714   3.849   4.235   1.073
 4228SOL    HW212715   3.777   4.283   1.212
 4229SOL     OW12716   3.913   4.244   1.722
 4229SOL    HW112717   3.972   4.204   1.652
 4229SOL    HW212718   3.855   4.315   1.681
 4230SOL     OW12719   4.539   4.296   0.325
 4230SOL    HW112720   4.546   4.207   0.279
 4230SOL    HW212721   4.445   4.330   0.317
 4231SOL     OW12722   4.395   4.188   1.269
 4231SOL    HW112723   4.361   4.099   1.239
 4231SOL    HW212724   4.421   4.242   1.189
 4232SOL     OW12725   4.197   4.224   0.191
 4232SOL    HW112726   4.258   4.304   0.195
 4232SOL    HW212727   4.102   4.255   0.198
 4233SOL     OW12728   3.883   4.861   1.466
 4233SOL    HW112729   3.905   4.800   1.542
 4233SOL    HW212730   3.893   4.812   1.380
 4234SOL     OW12731   5.071   4.783   1.234
 4234SOL    HW112732   5.095   4.720   1.160
 4234SOL    HW212733   4.981   4.823   1.216
 4235SOL     OW12734   5.026   4.579   0.309
 4235SOL    HW112735   4.940   4.548   0.351
 4235SOL    HW212736   5.022   4.565   0.210
 4236SOL     OW12737   3.807   4.982   1.022
 4236SOL    HW112738   3.802   4.981   1.122
 4236SOL    HW212739   3.724   4.941   0.984
 4237SOL     OW12740   4.627   3.810   0.133
 4237SOL    HW112741   4.678   3.811   0.047
 4237SOL    HW212742   4.683   3.768   0.204
 4238SOL     OW12743   5.004   4.651   0.672
 4238SOL    HW112744   5.064   4.570   0.674
 4238SOL    HW212745   5.044   4.720   0.612
 4239SOL     OW12746   4.554   4.997   1.422
 4239SOL    HW112747   4.549   5.030   1.517
 4239SOL    HW212748   4.468   5.016   1.376
 4240SOL     OW12749   3.987   4.050   0.720
 4240SOL    HW112750   3.908   4.101   0.686
 4240SOL    HW212751   3.978   4.035   0.818
 4241SOL     OW12752   4.546   4.726   1.372
 4241SOL    HW112753   4.586   4.725   1.280
 4241SOL    HW212754   4.556   4.818   1.412
 4242SOL     OW12755   4.640   4.634   0.291
 4242SOL    HW112756   4.703   4.672   0.223
 4242SOL    HW212757   4.680   4.551   0.330
 4243SOL     OW12758   4.096   5.012   1.490
 4243SOL    HW112759   4.083   5.105   1.456
 4243SOL    HW212760   4.012   4.960   1.477
 4244SOL     OW12761   4.763   4.822   0.696
 4244SOL    HW112762   4.693   4.775   0.750
 4244SOL    HW212763   4.822   4.754   0.653
 4245SOL     OW12764   4.738   3.960   0.971
 4245SOL    HW112765   4.730   3.924   0.878
 4245SOL    HW212766   4.736   3.884   1.036
 4246SOL     OW12767   3.829   4.737   1.726
 4246SOL    HW112768   3.752   4.704   1.780
 4246SOL    HW212769   3.914   4.707   1.768
 4247SOL     OW12770   4.396   3.927   1.489
 4247SOL    HW112771   4.486   3.911   1.449
 4247SOL    HW212772   4.404   3.932   1.588
 4248SOL     OW12773   3.799   4.069   0.033
 4248SOL    HW112774   3.707   4.041   0.004
 4248SOL    HW212775   3.830   4.146  -0.023
 4249SOL     OW12776   5.164   4.580   1.398
 4249SOL    HW112777   5.107   4.632   1.335
 4249SOL    HW212778   5.260   4.592   1.374
 4250SOL     OW12779   3.796   3.890   0.318
 4250SOL    HW112780   3.779   3.973   0.264
 4250SOL    HW212781   3.886   3.853   0.296
 4251SOL     OW12782   4.907   5.059   0.119
 4251SOL    HW112783   4.808   5.048   0.121
 4251SOL    HW212784   4.941   5.074   0.212
 4252SOL     OW12785   4.337   4.566   1.431
 4252SOL    HW112786   4.393   4.647   1.414
 4252SOL    HW212787   4.396   4.486   1.434
 4253SOL     OW12788   4.440   4.289   1.708
 4253SOL    HW112789   4.459   4.354   1.782
 4253SOL    HW212790   4.500   4.209   1.717
 4254SOL     OW12791   5.174   4.944   1.633
 4254SOL    HW112792   5.165   4.934   1.732
 4254SOL    HW212793   5.270   4.937   1.607
 4255SOL     OW12794   4.949   4.049   0.449
 4255SOL    HW112795   5.014   3.975   0.438
 4255SOL    HW212796   4.969   4.099   0.533
 4256SOL     OW12797   4.318   4.469   0.652
 4256SOL    HW112798   4.368   4.554   0.633
 4256SOL    HW212799   4.230   4.471   0.604
 4257SOL     OW12800   4.583   4.680   0.861
 4257SOL    HW112801   4.637   4.611   0.909
 4257SOL    HW212802   4.551   4.749   0.927
 4258SOL     OW12803   4.807   4.708   0.087
 4258SOL    HW112804   4.784   4.761   0.005
 4258SOL    HW212805   4.888   4.652   0.068
 4259SOL     OW12806   3.945   5.038   1.844
 4259SOL    HW112807   3.880   4.965   1.823
 4259SOL    HW212808   3.949   5.052   1.942
 4260SOL     OW12809   3.803   4.964   0.653
 4260SOL    HW112810   3.802   4.917   0.741
 4260SOL    HW212811   3.885   4.936   0.602
 4261SOL     OW12812   4.396   5.115   1.624
 4261SOL    HW112813   4.318   5.065   1.662
 4261SOL    HW212814   4.393   5.210   1.655
 4262SOL     OW12815   4.152   4.148   0.520
 4262SOL    HW112816   4.182   4.076   0.458
 4262SOL    HW212817   4.113   4.108   0.603
 4263SOL     OW12818   4.041   4.271   1.280
 4263SOL    HW112819   4.079   4.212   1.352
 4263SOL    HW212820   4.081   4.245   1.192
 4264SOL     OW12821   5.148   3.938   1.112
 4264SOL    HW112822   5.200   3.873   1.167
 4264SOL    HW212823   5.099   4.001   1.173
 4265SOL     OW12824   4.725   3.758   1.154
 4265SOL    HW112825   4.662   3.686   1.123
 4265SOL    HW212826   4.818   3.722   1.154
 4266SOL     OW12827   4.494   5.054   0.301
 4266SOL    HW112828   4.448   4.967   0.318
 4266SOL    HW212829   4.585   5.051   0.342
 4267SOL     OW12830   3.763   4.801   0.300
 4267SOL    HW112831   3.862   4.790   0.291
 4267SOL    HW212832   3.723   4.715   0.332
 4268SOL     OW12833   3.954   4.352   1.975
 4268SOL    HW112834   3.861   4.350   2.012
 4268SOL    HW212835   3.955   4.313   1.883
 4269SOL     OW12836   3.949   3.999   2.858
 4269SOL    HW112837   3.984   3.982   2.950
 4269SOL    HW212838   3.861   3.954   2.846
 4270SOL     OW12839   3.743   4.092   2.509
 4270SOL    HW112840   3.661   4.135   2.548
 4270SOL    HW212841   3.715   4.019   2.446
 4271SOL     OW12842   4.293   4.999   3.027
 4271SOL    HW112843   4.200   4.992   2.990
 4271SOL    HW212844   4.304   5.088   3.071
 4272SOL     OW12845   5.279   5.235   2.565
 4272SOL    HW112846   5.222   5.219   2.646
 4272SOL    HW212847   5.220   5.245   2.485
 4273SOL     OW12848   4.859   4.427   2.579
 4273SOL    HW112849   4.916   4.505   2.554
 4273SOL    HW212850   4.799   4.453   2.655
 4274SOL     OW12851   4.492   4.868   2.885
 4274SOL    HW112852   4.414   4.885   2.945
 4274SOL    HW212853   4.526   4.955   2.849
 4275SOL     OW12854   4.574   4.522   3.685
 4275SOL    HW112855   4.570   4.598   3.750
 4275SOL    HW212856   4.596   4.558   3.594
 4276SOL     OW12857   4.409   4.736   2.527
 4276SOL    HW112858   4.478   4.720   2.597
 4276SOL    HW212859   4.336   4.793   2.565
 4277SOL     OW12860   4.410   4.885   3.665
 4277SOL    HW112861   4.470   4.964   3.679
 4277SOL    HW212862   4.324   4.916   3.624
 4278SOL     OW12863   4.059   5.159   2.923
 4278SOL    HW112864   3.981   5.128   2.870
 4278SOL    HW212865   4.117   5.217   2.866
 4279SOL     OW12866   4.162   4.116   3.361
 4279SOL    HW112867   4.244   4.060   3.370
 4279SOL    HW212868   4.081   4.058   3.365
 4280SOL     OW12869   3.964   4.815   2.748
 4280SOL    HW112870   3.978   4.731   2.800
 4280SOL    HW212871   3.909   4.879   2.803
 4281SOL     OW12872   4.330   4.688   1.985
 4281SOL    HW112873   4.337   4.772   1.931
 4281SOL    HW212874   4.376   4.701   2.073
 4282SOL     OW12875   3.846   4.367   2.425
 4282SOL    HW112876   3.801   4.279   2.442
 4282SOL    HW212877   3.845   4.421   2.509
 4283SOL     OW12878   5.413   4.646   2.474
 4283SOL    HW112879   5.508   4.617   2.482
 4283SOL    HW212880   5.405   4.711   2.399
 4284SOL     OW12881   3.837   4.461   3.459
 4284SOL    HW112882   3.925   4.448   3.504
 4284SOL    HW212883   3.824   4.558   3.437
 4285SOL     OW12884   4.337   5.089   2.588
 4285SOL    HW112885   4.288   5.002   2.597
 4285SOL    HW212886   4.314   5.132   2.501
 4286SOL     OW12887   5.017   4.952   3.285
 4286SOL    HW112888   5.054   4.879   3.227
 4286SOL    HW212889   5.069   4.957   3.370
 4287SOL     OW12890   4.533   3.728   2.364
 4287SOL    HW112891   4.573   3.819   2.355
 4287SOL    HW212892   4.433   3.736   2.370
 4288SOL     OW12893   3.921   4.700   3.126
 4288SOL    HW112894   4.010   4.655   3.112
 4288SOL    HW212895   3.848   4.635   3.107
 4289SOL     OW12896   4.041   3.975   3.663
 4289SOL    HW112897   4.112   4.046   3.669
 4289SOL    HW212898   3.953   4.014   3.691
 4290SOL     OW12899   4.322   4.453   2.132
 4290SOL    HW112900   4.346   4.522   2.064
 4290SOL    HW212901   4.244   4.486   2.186
 4291SOL     OW12902   5.005   4.069   2.806
 4291SOL    HW112903   4.919   4.019   2.793
 4291SOL    HW212904   5.067   4.015   2.862
 4292SOL     OW12905   4.531   4.329   3.327
 4292SOL    HW112906   4.484   4.326   3.416
 4292SOL    HW212907   4.480   4.274   3.261
 4293SOL     OW12908   5.118   4.193   3.536
 4293SOL    HW112909   5.098   4.236   3.624
 4293SOL    HW212910   5.196   4.131   3.545
 4294SOL     OW12911   4.697   4.614   3.434
 4294SOL    HW112912   4.743   4.530   3.405
 4294SOL    HW212913   4.641   4.648   3.359
 4295SOL     OW12914   4.715   4.134   3.104
 4295SOL    HW112915   4.638   4.168   3.158
 4295SOL    HW212916   4.681   4.083   3.025
 4296SOL     OW12917   4.765   4.425   2.291
 4296SOL    HW112918   4.791   4.421   2.387
 4296SOL    HW212919   4.680   4.374   2.277
 4297SOL     OW12920   3.800   4.535   2.651
 4297SOL    HW112921   3.899   4.523   2.660
 4297SOL    HW212922   3.776   4.630   2.672
 4298SOL     OW12923   4.589   4.072   2.057
 4298SOL    HW112924   4.648   4.135   2.008
 4298SOL    HW212925   4.608   3.978   2.028
 4299SOL     OW12926   5.086   4.868   2.407
 4299SOL    HW112927   5.169   4.839   2.359
 4299SOL    HW212928   5.037   4.935   2.351
 4300SOL     OW12929   4.274   3.920   2.747
 4300SOL    HW112930   4.269   3.915   2.847
 4300SOL    HW212931   4.276   4.016   2.718
 4301SOL     OW12932   4.045   4.667   2.104
 4301SOL    HW112933   4.127   4.706   2.062
 4301SOL    HW212934   4.018   4.585   2.055
 4302SOL     OW12935   4.185   4.990   3.589
 4302SOL    HW112936   4.135   4.991   3.503
 4302SOL    HW212937   4.122   4.972   3.665
 4303SOL     OW12938   3.926   4.009   3.360
 4303SOL    HW112939   3.846   4.069   3.347
 4303SOL    HW212940   3.916   3.960   3.446
 4304SOL     OW12941   4.106   4.424   2.342
 4304SOL    HW112942   4.151   4.334   2.339
 4304SOL    HW212943   4.012   4.413   2.375
 4305SOL     OW12944   4.338   3.846   1.979
 4305SOL    HW112945   4.436   3.824   1.986
 4305SOL    HW212946   4.307   3.829   1.886
 4306SOL     OW12947   4.505   3.988   3.611
 4306SOL    HW112948   4.572   3.927   3.654
 4306SOL    HW212949   4.432   4.007   3.676
 4307SOL     OW12950   5.075   4.314   3.295
 4307SOL    HW112951   5.103   4.271   3.380
 4307SOL    HW212952   5.100   4.410   3.296
 4308SOL     OW12953   4.646   4.227   2.761
 4308SOL    HW112954   4.621   4.218   2.665
 4308SOL    HW212955   4.694   4.145   2.792
 4309SOL     OW12956   4.263   3.788   2.374
 4309SOL    HW112957   4.182   3.789   2.432
 4309SOL    HW212958   4.266   3.871   2.319
 4310SOL     OW12959   5.158   4.912   1.903
 4310SOL    HW112960   5.190   4.836   1.960
 4310SOL    HW212961   5.066   4.939   1.933
 4311SOL     OW12962   4.021   3.759   2.033
 4311SOL    HW112963   4.070   3.843   2.012
 4311SOL    HW212964   4.083   3.694   2.078
 4312SOL     OW12965   4.659   3.960   2.342
 4312SOL    HW112966   4.611   4.001   2.264
 4312SOL    HW212967   4.758   3.958   2.323
 4313SOL     OW12968   4.800   4.407   3.326
 4313SOL    HW112969   4.720   4.346   3.329
 4313SOL    HW212970   4.881   4.354   3.302
 4314SOL     OW12971   4.951   5.294   2.655
 4314SOL    HW112972   4.972   5.368   2.590
 4314SOL    HW212973   5.019   5.294   2.728
 4315SOL     OW12974   4.183   4.876   2.603
 4315SOL    HW112975   4.112   4.849   2.668
 4315SOL    HW212976   4.157   4.848   2.510
 4316SOL     OW12977   4.756   4.273   1.878
 4316SOL    HW112978   4.715   4.355   1.839
 4316SOL    HW212979   4.820   4.299   1.951
 4317SOL     OW12980   3.802   4.280   3.248
 4317SOL    HW112981   3.894   4.279   3.207
 4317SOL    HW212982   3.796   4.354   3.315
 4318SOL     OW12983   4.285   3.946   3.009
 4318SOL    HW112984   4.323   3.862   3.046
 4318SOL    HW212985   4.197   3.965   3.053
 4319SOL     OW12986   4.590   4.178   2.504
 4319SOL    HW112987   4.558   4.250   2.442
 4319SOL    HW212988   4.614   4.097   2.451
 4320SOL     OW12989   4.741   3.763   2.615
 4320SOL    HW112990   4.669   3.768   2.546
 4320SOL    HW212991   4.717   3.694   2.684
 4321SOL     OW12992   5.114   4.299   1.940
 4321SOL    HW112993   5.060   4.278   2.021
 4321SOL    HW212994   5.205   4.258   1.949
 4322SOL     OW12995   4.251   3.980   2.190
 4322SOL    HW112996   4.278   3.921   2.115
 4322SOL    HW212997   4.251   4.075   2.159
 4323SOL     OW12998   4.788   5.071   3.202
 4323SOL    HW112999   4.708   5.048   3.257
 4323SOL    HW213000   4.871   5.045   3.251
 4324SOL     OW13001   4.835   4.919   2.962
 4324SOL    HW113002   4.795   4.963   3.043
 4324SOL    HW213003   4.794   4.956   2.879
 4325SOL     OW13004   4.639   3.813   3.264
 4325SOL    HW113005   4.664   3.793   3.169
 4325SOL    HW213006   4.711   3.869   3.306
 4326SOL     OW13007   4.704   4.840   3.581
 4326SOL    HW113008   4.605   4.846   3.591
 4326SOL    HW213009   4.727   4.760   3.525
 4327SOL     OW13010   4.429   4.774   2.230
 4327SOL    HW113011   4.415   4.781   2.329
 4327SOL    HW213012   4.513   4.723   2.212
 4328SOL     OW13013   4.134   4.537   3.113
 4328SOL    HW113014   4.220   4.549   3.163
 4328SOL    HW213015   4.092   4.450   3.140
 4329SOL     OW13016   4.998   4.110   3.124
 4329SOL    HW113017   5.019   4.184   3.188
 4329SOL    HW213018   4.909   4.127   3.081
 4330SOL     OW13019   4.091   4.824   2.363
 4330SOL    HW113020   4.084   4.907   2.307
 4330SOL    HW213021   4.095   4.744   2.303
 4331SOL     OW13022   4.290   4.261   2.727
 4331SOL    HW113023   4.302   4.327   2.653
 4331SOL    HW213024   4.336   4.295   2.810
 4332SOL     OW13025   4.976   5.072   2.250
 4332SOL    HW113026   5.026   5.149   2.290
 4332SOL    HW213027   4.881   5.074   2.282
 4333SOL     OW13028   4.126   4.475   3.460
 4333SOL    HW113029   4.194   4.530   3.413
 4333SOL    HW213030   4.166   4.387   3.487
 4334SOL     OW13031   4.737   3.829   3.632
 4334SOL    HW113032   4.743   3.914   3.580
 4334SOL    HW213033   4.769   3.753   3.575
 4335SOL     OW13034   4.228   3.774   3.602
 4335SOL    HW113035   4.186   3.717   3.532
 4335SOL    HW213036   4.162   3.843   3.634
 4336SOL     OW13037   4.297   4.594   2.891
 4336SOL    HW113038   4.341   4.683   2.882
 4336SOL    HW213039   4.234   4.594   2.968
 4337SOL     OW13040   5.084   4.586   2.907
 4337SOL    HW113041   5.009   4.586   2.841
 4337SOL    HW213042   5.121   4.494   2.916
 4338SOL     OW13043   4.933   4.249   2.137
 4338SOL    HW113044   4.946   4.165   2.191
 4338SOL    HW213045   4.904   4.323   2.197
 4339SOL     OW13046   4.031   3.937   3.093
 4339SOL    HW113047   4.008   3.974   3.183
 4339SOL    HW213048   4.001   3.842   3.087
 4340SOL     OW13049   3.761   5.034   3.144
 4340SOL    HW113050   3.814   4.985   3.212
 4340SOL    HW213051   3.783   5.132   3.149
 4341SOL     OW13052   4.456   4.358   2.926
 4341SOL    HW113053   4.515   4.332   2.850
 4341SOL    HW213054   4.428   4.454   2.915
 4342SOL     OW13055   4.031   3.787   2.480
 4342SOL    HW113056   4.020   3.881   2.513
 4342SOL    HW213057   4.026   3.724   2.557
 4343SOL     OW13058   5.346   4.091   2.236
 4343SOL    HW113059   5.348   4.015   2.300
 4343SOL    HW213060   5.298   4.168   2.276
 4344SOL     OW13061   4.747   4.490   2.828
 4344SOL    HW113062   4.762   4.511   2.924
 4344SOL    HW213063   4.717   4.395   2.819
 4345SOL     OW13064   4.074   4.622   3.666
 4345SOL    HW113065   4.150   4.666   3.714
 4345SOL    HW213066   4.109   4.575   3.584
 4346SOL     OW13067   5.027   4.562   1.904
 4346SOL    HW113068   5.061   4.469   1.919
 4346SOL    HW213069   5.045   4.589   1.809
 4347SOL     OW13070   4.043   4.534   2.811
 4347SOL    HW113071   4.136   4.570   2.816
 4347SOL    HW213072   4.037   4.449   2.863
 4348SOL     OW13073   4.063   4.233   2.868
 4348SOL    HW113074   4.011   4.150   2.851
 4348SOL    HW213075   4.140   4.238   2.804
 4349SOL     OW13076   4.862   4.104   3.540
 4349SOL    HW113077   4.817   4.167   3.604
 4349SOL    HW213078   4.955   4.135   3.523
 4350SOL     OW13079   4.884   3.931   3.339
 4350SOL    HW113080   4.884   3.995   3.416
 4350SOL    HW213081   4.912   3.979   3.256
 4351SOL     OW13082   3.732   5.050   2.062
 4351SOL    HW113083   3.639   5.071   2.031
 4351SOL    HW213084   3.742   4.951   2.075
 4352SOL     OW13085   4.726   4.520   3.100
 4352SOL    HW113086   4.767   4.488   3.186
 4352SOL    HW213087   4.630   4.493   3.097
 4353SOL     OW13088   3.764   4.268   2.976
 4353SOL    HW113089   3.849   4.235   2.935
 4353SOL    HW213090   3.777   4.283   3.074
 4354SOL     OW13091   3.913   4.244   3.584
 4354SOL    HW113092   3.972   4.204   3.514
 4354SOL    HW213093   3.855   4.315   3.543
 4355SOL     OW13094   4.539   4.296   2.187
 4355SOL    HW113095   4.546   4.207   2.141
 4355SOL    HW213096   4.445   4.330   2.179
 4356SOL     OW13097   4.395   4.188   3.131
 4356SOL    HW113098   4.361   4.099   3.101
 4356SOL    HW213099   4.421   4.242   3.051
 4357SOL     OW13100   4.197   4.224   2.053
 4357SOL    HW113101   4.258   4.304   2.057
 4357SOL    HW213102   4.102   4.255   2.060
 4358SOL     OW13103   3.883   4.861   3.328
 4358SOL    HW113104   3.905   4.800   3.404
 4358SOL    HW213105   3.893   4.812   3.242
 4359SOL     OW13106   5.071   4.783   3.096
 4359SOL    HW113107   5.095   4.720   3.022
 4359SOL    HW213108   4.981   4.823   3.078
 4360SOL     OW13109   5.026   4.579   2.171
 4360SOL    HW113110   4.940   4.548   2.213
 4360SOL    HW213111   5.022   4.565   2.072
 4361SOL     OW13112   3.807   4.982   2.884
 4361SOL    HW113113   3.802   4.981   2.984
 4361SOL    HW213114   3.724   4.941   2.846
 4362SOL     OW13115   5.004   4.651   2.534
 4362SOL    HW113116   5.064   4.570   2.536
 4362SOL    HW213117   5.044   4.720   2.474
 4363SOL     OW13118   4.554   4.997   3.284
 4363SOL    HW113119   4.549   5.030   3.379
 4363SOL    HW213120   4.468   5.016   3.238
 4364SOL     OW13121   3.987   4.050   2.582
 4364SOL    HW113122   3.908   4.101   2.548
 4364SOL    HW213123   3.978   4.035   2.680
 4365SOL     OW13124   4.546   4.726   3.234
 4365SOL    HW113125   4.586   4.725   3.142
 4365SOL    HW213126   4.556   4.818   3.274
 4366SOL     OW13127   4.640   4.634   2.153
 4366SOL    HW113128   4.703   4.672   2.085
 4366SOL    HW213129   4.680   4.551   2.192
 4367SOL     OW13130   4.096   5.012   3.352
 4367SOL    HW113131   4.083   5.105   3.318
 4367SOL    HW213132   4.012   4.960   3.339
 4368SOL     OW13133   4.763   4.822   2.558
 4368SOL    HW113134   4.693   4.775   2.612
 4368SOL    HW213135   4.822   4.754   2.515
 4369SOL     OW13136   4.738   3.960   2.833
 4369SOL    HW113137   4.730   3.924   2.740
 4369SOL    HW213138   4.736   3.884   2.898
 4370SOL     OW13139   3.829   4.737   3.588
 4370SOL    HW113140   3.752   4.704   3.642
 4370SOL    HW213141   3.914   4.707   3.630
 4371SOL     OW13142   4.396   3.927   3.351
 4371SOL    HW113143   4.486   3.911   3.311
 4371SOL    HW213144   4.404   3.932   3.450
 4372SOL     OW13145   3.799   4.069   1.895
 4372SOL    HW113146   3.707   4.041   1.866
 4372SOL    HW213147   3.830   4.146   1.839
 4373SOL     OW13148   5.164   4.580   3.260
 4373SOL    HW113149   5.107   4.632   3.197
 4373SOL    HW213150   5.260   4.592   3.236
 4374SOL     OW13151   3.796   3.890   2.180
 4374SOL    HW113152   3.779   3.973   2.126
 4374SOL    HW213153   3.886   3.853   2.158
 4375SOL     OW13154   4.907   5.059   1.981
 4375SOL    HW113155   4.808   5.048   1.983
 4375SOL    HW213156   4.941   5.074   2.074
 4376SOL     OW13157   4.337   4.566   3.293
 4376SOL    HW113158   4.393   4.647   3.276
 4376SOL    HW213159   4.396   4.486   3.296
 4377SOL     OW13160   4.440   4.289   3.570
 4377SOL    HW113161   4.459   4.354   3.644
 4377SOL    HW213162   4.500   4.209   3.579
 4378SOL     OW13163   5.174   4.944   3.495
 4378SOL    HW113164   5.165   4.934   3.594
 4378SOL    HW213165   5.270   4.937   3.469
 4379SOL     OW13166   4.949   4.049   2.311
 4379SOL    HW113167   5.014   3.975   2.300
 4379SOL    HW213168   4.969   4.099   2.395
 4380SOL     OW13169   4.318   4.469   2.514
 4380SOL    HW113170   4.368   4.554   2.495
 4380SOL    HW213171   4.230   4.471   2.466
 4381SOL     OW13172   4.583   5.098   1.878
 4381SOL    HW113173   4.537   5.113   1.966
 4381SOL    HW213174   4.627   5.183   1.848
 4382SOL     OW13175   4.583   4.680   2.723
 4382SOL    HW113176   4.637   4.611   2.771
 4382SOL    HW213177   4.551   4.749   2.789
 4383SOL     OW13178   4.807   4.708   1.949
 4383SOL    HW113179   4.784   4.761   1.867
 4383SOL    HW213180   4.888   4.652   1.930
 4384SOL     OW13181   3.945   5.038   3.706
 4384SOL    HW113182   3.880   4.965   3.685
 4384SOL    HW213183   3.949   5.052   3.804
 4385SOL     OW13184   3.803   4.964   2.515
 4385SOL    HW113185   3.802   4.917   2.603
 4385SOL    HW213186   3.885   4.936   2.464
 4386SOL     OW13187   4.396   5.115   3.486
 4386SOL    HW113188   4.318   5.065   3.524
 4386SOL    HW213189   4.393   5.210   3.517
 4387SOL     OW13190   4.152   4.148   2.382
 4387SOL    HW113191   4.182   4.076   2.320
 4387SOL    HW213192   4.113   4.108   2.465
 4388SOL     OW13193   4.041   4.271   3.142
 4388SOL    HW113194   4.079   4.212   3.214
 4388SOL    HW213195   4.081   4.245   3.054
 4389SOL     OW13196   5.148   3.938   2.974
 4389SOL    HW113197   5.200   3.873   3.029
 4389SOL    HW213198   5.099   4.001   3.035
 4390SOL     OW13199   4.725   3.758   3.016
 4390SOL    HW113200   4.662   3.686   2.985
 4390SOL    HW213201   4.818   3.722   3.016
 4391SOL     OW13202   4.494   5.054   2.163
 4391SOL    HW113203   4.448   4.967   2.180
 4391SOL    HW213204   4.585   5.051   2.204
 4392SOL     OW13205   5.076   3.776   2.030
 4392SOL    HW113206   5.111   3.735   1.946
 4392SOL    HW213207   4.986   3.738   2.050
 4393SOL     OW13208   3.763   4.801   2.162
 4393SOL    HW113209   3.862   4.790   2.153
 4393SOL    HW213210   3.723   4.715   2.194
 4394SOL     OW13211   3.954   4.352   3.837
 4394SOL    HW113212   3.861   4.350   3.874
 4394SOL    HW213213   3.955   4.313   3.745
 4395SOL     OW13214   3.949   3.999   4.720
 4395SOL    HW113215   3.984   3.982   4.812
 4395SOL    HW213216   3.861   3.954   4.708
 4396SOL     OW13217   3.743   4.092   4.371
 4396SOL    HW113218   3.661   4.135   4.410
 4396SOL    HW213219   3.715   4.019   4.308
 4397SOL     OW13220   4.293   4.999   4.889
 4397SOL    HW113221   4.200   4.992   4.852
 4397SOL    HW213222   4.304   5.088   4.933
 4398SOL     OW13223   5.279   5.235   4.427
 4398SOL    HW113224   5.222   5.219   4.508
 4398SOL    HW213225   5.220   5.245   4.347
 4399SOL     OW13226   4.859   4.427   4.441
 4399SOL    HW113227   4.916   4.505   4.416
 4399SOL    HW213228   4.799   4.453   4.517
 4400SOL     OW13229   4.492   4.868   4.747
 4400SOL    HW113230   4.414   4.885   4.807
 4400SOL    HW213231   4.526   4.955   4.711
 4401SOL     OW13232   4.409   4.736   4.389
 4401SOL    HW113233   4.478   4.720   4.459
 4401SOL    HW213234   4.336   4.793   4.427
 4402SOL     OW13235   4.059   5.159   4.785
 4402SOL    HW113236   3.981   5.128   4.732
 4402SOL    HW213237   4.117   5.217   4.728
 4403SOL     OW13238   4.162   4.116   5.223
 4403SOL    HW113239   4.244   4.060   5.232
 4403SOL    HW213240   4.081   4.058   5.227
 4404SOL     OW13241   3.964   4.815   4.610
 4404SOL    HW113242   3.978   4.731   4.662
 4404SOL    HW213243   3.909   4.879   4.665
 4405SOL     OW13244   4.330   4.688   3.847
 4405SOL    HW113245   4.337   4.772   3.793
 4405SOL    HW213246   4.376   4.701   3.935
 4406SOL     OW13247   5.318   3.838   5.204
 4406SOL    HW113248   5.300   3.905   5.132
 4406SOL    HW213249   5.315   3.884   5.293
 4407SOL     OW13250   3.846   4.367   4.287
 4407SOL    HW113251   3.801   4.279   4.304
 4407SOL    HW213252   3.845   4.421   4.371
 4408SOL     OW13253   5.413   4.646   4.336
 4408SOL    HW113254   5.508   4.617   4.344
 4408SOL    HW213255   5.405   4.711   4.261
 4409SOL     OW13256   4.337   5.089   4.450
 4409SOL    HW113257   4.288   5.002   4.459
 4409SOL    HW213258   4.314   5.132   4.363
 4410SOL     OW13259   5.017   4.952   5.147
 4410SOL    HW113260   5.054   4.879   5.089
 4410SOL    HW213261   5.069   4.957   5.232
 4411SOL     OW13262   4.533   3.728   4.226
 4411SOL    HW113263   4.573   3.819   4.217
 4411SOL    HW213264   4.433   3.736   4.232
 4412SOL     OW13265   3.921   4.700   4.988
 4412SOL    HW113266   4.010   4.655   4.974
 4412SOL    HW213267   3.848   4.635   4.969
 4413SOL     OW13268   4.322   4.453   3.994
 4413SOL    HW113269   4.346   4.522   3.926
 4413SOL    HW213270   4.244   4.486   4.048
 4414SOL     OW13271   5.005   4.069   4.668
 4414SOL    HW113272   4.919   4.019   4.655
 4414SOL    HW213273   5.067   4.015   4.724
 4415SOL     OW13274   4.531   4.329   5.189
 4415SOL    HW113275   4.484   4.326   5.278
 4415SOL    HW213276   4.480   4.274   5.123
 4416SOL     OW13277   4.715   4.134   4.966
 4416SOL    HW113278   4.638   4.168   5.020
 4416SOL    HW213279   4.681   4.083   4.887
 4417SOL     OW13280   4.765   4.425   4.153
 4417SOL    HW113281   4.791   4.421   4.249
 4417SOL    HW213282   4.680   4.374   4.139
 4418SOL     OW13283   3.800   4.535   4.513
 4418SOL    HW113284   3.899   4.523   4.522
 4418SOL    HW213285   3.776   4.630   4.534
 4419SOL     OW13286   4.589   4.072   3.919
 4419SOL    HW113287   4.648   4.135   3.870
 4419SOL    HW213288   4.608   3.978   3.890
 4420SOL     OW13289   5.086   4.868   4.269
 4420SOL    HW113290   5.169   4.839   4.221
 4420SOL    HW213291   5.037   4.935   4.213
 4421SOL     OW13292   4.274   3.920   4.609
 4421SOL    HW113293   4.269   3.915   4.709
 4421SOL    HW213294   4.276   4.016   4.580
 4422SOL     OW13295   4.045   4.667   3.966
 4422SOL    HW113296   4.127   4.706   3.924
 4422SOL    HW213297   4.018   4.585   3.917
 4423SOL     OW13298   4.106   4.424   4.204
 4423SOL    HW113299   4.151   4.334   4.201
 4423SOL    HW213300   4.012   4.413   4.237
 4424SOL     OW13301   4.338   3.846   3.841
 4424SOL    HW113302   4.436   3.824   3.848
 4424SOL    HW213303   4.307   3.829   3.748
 4425SOL     OW13304   4.646   4.227   4.623
 4425SOL    HW113305   4.621   4.218   4.527
 4425SOL    HW213306   4.694   4.145   4.654
 4426SOL     OW13307   4.263   3.788   4.236
 4426SOL    HW113308   4.182   3.789   4.294
 4426SOL    HW213309   4.266   3.871   4.181
 4427SOL     OW13310   5.158   4.912   3.765
 4427SOL    HW113311   5.190   4.836   3.822
 4427SOL    HW213312   5.066   4.939   3.795
 4428SOL     OW13313   4.021   3.759   3.895
 4428SOL    HW113314   4.070   3.843   3.874
 4428SOL    HW213315   4.083   3.694   3.940
 4429SOL     OW13316   4.659   3.960   4.204
 4429SOL    HW113317   4.611   4.001   4.126
 4429SOL    HW213318   4.758   3.958   4.185
 4430SOL     OW13319   4.951   5.294   4.517
 4430SOL    HW113320   4.972   5.368   4.452
 4430SOL    HW213321   5.019   5.294   4.590
 4431SOL     OW13322   4.183   4.876   4.465
 4431SOL    HW113323   4.112   4.849   4.530
 4431SOL    HW213324   4.157   4.848   4.372
 4432SOL     OW13325   4.756   4.273   3.740
 4432SOL    HW113326   4.715   4.355   3.701
 4432SOL    HW213327   4.820   4.299   3.813
 4433SOL     OW13328   4.285   3.946   4.871
 4433SOL    HW113329   4.323   3.862   4.908
 4433SOL    HW213330   4.197   3.965   4.915
 4434SOL     OW13331   4.590   4.178   4.366
 4434SOL    HW113332   4.558   4.250   4.304
 4434SOL    HW213333   4.614   4.097   4.313
 4435SOL     OW13334   4.741   3.763   4.477
 4435SOL    HW113335   4.669   3.768   4.408
 4435SOL    HW213336   4.717   3.694   4.546
 4436SOL     OW13337   5.114   4.299   3.802
 4436SOL    HW113338   5.060   4.278   3.883
 4436SOL    HW213339   5.205   4.258   3.811
 4437SOL     OW13340   4.251   3.980   4.052
 4437SOL    HW113341   4.278   3.921   3.977
 4437SOL    HW213342   4.251   4.075   4.021
 4438SOL     OW13343   4.788   5.071   5.064
 4438SOL    HW113344   4.708   5.048   5.119
 4438SOL    HW213345   4.871   5.045   5.113
 4439SOL     OW13346   4.835   4.919   4.824
 4439SOL    HW113347   4.795   4.963   4.905
 4439SOL    HW213348   4.794   4.956   4.741
 4440SOL     OW13349   4.429   4.774   4.092
 4440SOL    HW113350   4.415   4.781   4.191
 4440SOL    HW213351   4.513   4.723   4.074
 4441SOL     OW13352   4.134   4.537   4.975
 4441SOL    HW113353   4.220   4.549   5.025
 4441SOL    HW213354   4.092   4.450   5.002
 4442SOL     OW13355   4.998   4.110   4.986
 4442SOL    HW113356   5.019   4.184   5.050
 4442SOL    HW213357   4.909   4.127   4.943
 4443SOL     OW13358   4.091   4.824   4.225
 4443SOL    HW113359   4.084   4.907   4.169
 4443SOL    HW213360   4.095   4.744   4.165
 4444SOL     OW13361   4.290   4.261   4.589
 4444SOL    HW113362   4.302   4.327   4.515
 4444SOL    HW213363   4.336   4.295   4.672
 4445SOL     OW13364   4.976   5.072   4.112
 4445SOL    HW113365   5.026   5.149   4.152
 4445SOL    HW213366   4.881   5.074   4.144
 4446SOL     OW13367   4.297   4.594   4.753
 4446SOL    HW113368   4.341   4.683   4.744
 4446SOL    HW213369   4.234   4.594   4.830
 4447SOL     OW13370   5.084   4.586   4.769
 4447SOL    HW113371   5.009   4.586   4.703
 4447SOL    HW213372   5.121   4.494   4.778
 4448SOL     OW13373   4.933   4.249   3.999
 4448SOL    HW113374   4.946   4.165   4.053
 4448SOL    HW213375   4.904   4.323   4.059
 4449SOL     OW13376   4.031   3.937   4.955
 4449SOL    HW113377   4.008   3.974   5.045
 4449SOL    HW213378   4.001   3.842   4.949
 4450SOL     OW13379   3.761   5.034   5.006
 4450SOL    HW113380   3.814   4.985   5.074
 4450SOL    HW213381   3.783   5.132   5.011
 4451SOL     OW13382   4.456   4.358   4.788
 4451SOL    HW113383   4.515   4.332   4.712
 4451SOL    HW213384   4.428   4.454   4.777
 4452SOL     OW13385   4.031   3.787   4.342
 4452SOL    HW113386   4.020   3.881   4.375
 4452SOL    HW213387   4.026   3.724   4.419
 4453SOL     OW13388   5.346   4.091   4.098
 4453SOL    HW113389   5.348   4.015   4.162
 4453SOL    HW213390   5.298   4.168   4.138
 4454SOL     OW13391   4.747   4.490   4.690
 4454SOL    HW113392   4.762   4.511   4.786
 4454SOL    HW213393   4.717   4.395   4.681
 4455SOL     OW13394   5.027   4.562   3.766
 4455SOL    HW113395   5.061   4.469   3.781
 4455SOL    HW213396   5.045   4.589   3.671
 4456SOL     OW13397   4.043   4.534   4.673
 4456SOL    HW113398   4.136   4.570   4.678
 4456SOL    HW213399   4.037   4.449   4.725
 4457SOL     OW13400   4.063   4.233   4.730
 4457SOL    HW113401   4.011   4.150   4.713
 4457SOL    HW213402   4.140   4.238   4.666
 4458SOL     OW13403   4.884   3.931   5.201
 4458SOL    HW113404   4.884   3.995   5.278
 4458SOL    HW213405   4.912   3.979   5.118
 4459SOL     OW13406   3.732   5.050   3.924
 4459SOL    HW113407   3.639   5.071   3.893
 4459SOL    HW213408   3.742   4.951   3.937
 4460SOL     OW13409   4.726   4.520   4.962
 4460SOL    HW113410   4.767   4.488   5.048
 4460SOL    HW213411   4.630   4.493   4.959
 4461SOL     OW13412   3.764   4.268   4.838
 4461SOL    HW113413   3.849   4.235   4.797
 4461SOL    HW213414   3.777   4.283   4.936
 4462SOL     OW13415   4.539   4.296   4.049
 4462SOL    HW113416   4.546   4.207   4.003
 4462SOL    HW213417   4.445   4.330   4.041
 4463SOL     OW13418   4.395   4.188   4.993
 4463SOL    HW113419   4.361   4.099   4.963
 4463SOL    HW213420   4.421   4.242   4.913
 4464SOL     OW13421   4.197   4.224   3.915
 4464SOL    HW113422   4.258   4.304   3.919
 4464SOL    HW213423   4.102   4.255   3.922
 4465SOL     OW13424   3.883   4.861   5.190
 4465SOL    HW113425   3.905   4.800   5.266
 4465SOL    HW213426   3.893   4.812   5.104
 4466SOL     OW13427   5.071   4.783   4.958
 4466SOL    HW113428   5.095   4.720   4.884
 4466SOL    HW213429   4.981   4.823   4.940
 4467SOL     OW13430   5.026   4.579   4.033
 4467SOL    HW113431   4.940   4.548   4.075
 4467SOL    HW213432   5.022   4.565   3.934
 4468SOL     OW13433   3.807   4.982   4.746
 4468SOL    HW113434   3.802   4.981   4.846
 4468SOL    HW213435   3.724   4.941   4.708
 4469SOL     OW13436   5.004   4.651   4.396
 4469SOL    HW113437   5.064   4.570   4.398
 4469SOL    HW213438   5.044   4.720   4.336
 4470SOL     OW13439   4.554   4.997   5.146
 4470SOL    HW113440   4.549   5.030   5.241
 4470SOL    HW213441   4.468   5.016   5.100
 4471SOL     OW13442   3.987   4.050   4.444
 4471SOL    HW113443   3.908   4.101   4.410
 4471SOL    HW213444   3.978   4.035   4.542
 4472SOL     OW13445   4.546   4.726   5.096
 4472SOL    HW113446   4.586   4.725   5.004
 4472SOL    HW213447   4.556   4.818   5.136
 4473SOL     OW13448   4.640   4.634   4.015
 4473SOL    HW113449   4.703   4.672   3.947
 4473SOL    HW213450   4.680   4.551   4.054
 4474SOL     OW13451   4.096   5.012   5.214
 4474SOL    HW113452   4.083   5.105   5.180
 4474SOL    HW213453   4.012   4.960   5.201
 4475SOL     OW13454   4.763   4.822   4.420
 4475SOL    HW113455   4.693   4.775   4.474
 4475SOL    HW213456   4.822   4.754   4.377
 4476SOL     OW13457   4.738   3.960   4.695
 4476SOL    HW113458   4.730   3.924   4.602
 4476SOL    HW213459   4.736   3.884   4.760
 4477SOL     OW13460   4.396   3.927   5.213
 4477SOL    HW113461   4.486   3.911   5.173
 4477SOL    HW213462   4.404   3.932   5.312
 4478SOL     OW13463   3.799   4.069   3.757
 4478SOL    HW113464   3.707   4.041   3.728
 4478SOL    HW213465   3.830   4.146   3.701
 4479SOL     OW13466   3.796   3.890   4.042
 4479SOL    HW113467   3.779   3.973   3.988
 4479SOL    HW213468   3.886   3.853   4.020
 4480SOL     OW13469   4.907   5.059   3.843
 4480SOL    HW113470   4.808   5.048   3.845
 4480SOL    HW213471   4.941   5.074   3.936
 4481SOL     OW13472   4.337   4.566   5.155
 4481SOL    HW113473   4.393   4.647   5.138
 4481SOL    HW213474   4.396   4.486   5.158
 4482SOL     OW13475   4.949   4.049   4.173
 4482SOL    HW113476   5.014   3.975   4.162
 4482SOL    HW213477   4.969   4.099   4.257
 4483SOL     OW13478   4.318   4.469   4.376
 4483SOL    HW113479   4.368   4.554   4.357
 4483SOL    HW213480   4.230   4.471   4.328
 4484SOL     OW13481   4.583   5.098   3.740
 4484SOL    HW113482   4.537   5.113   3.828
 4484SOL    HW213483   4.627   5.183   3.710
 4485SOL     OW13484   4.583   4.680   4.585
 4485SOL    HW113485   4.637   4.611   4.633
 4485SOL    HW213486   4.551   4.749   4.651
 4486SOL     OW13487   4.807   4.708   3.811
 4486SOL    HW113488   4.784   4.761   3.729
 4486SOL    HW213489   4.888   4.652   3.792
 4487SOL     OW13490   3.803   4.964   4.377
 4487SOL    HW113491   3.802   4.917   4.465
 4487SOL    HW213492   3.885   4.936   4.326
 4488SOL     OW13493   4.152   4.148   4.244
 4488SOL    HW113494   4.182   4.076   4.182
 4488SOL    HW213495   4.113   4.108   4.327
 4489SOL     OW13496   4.041   4.271   5.004
 4489SOL    HW113497   4.079   4.212   5.076
 4489SOL    HW213498   4.081   4.245   4.916
 4490SOL     OW13499   5.148   3.938   4.836
 4490SOL    HW113500   5.200   3.873   4.891
 4490SOL    HW213501   5.099   4.001   4.897
 4491SOL     OW13502   4.725   3.758   4.878
 4491SOL    HW113503   4.662   3.686   4.847
 4491SOL    HW213504   4.818   3.722   4.878
 4492SOL     OW13505   4.494   5.054   4.025
 4492SOL    HW113506   4.448   4.967   4.042
 4492SOL    HW213507   4.585   5.051   4.066
 4493SOL     OW13508   5.076   3.776   3.892
 4493SOL    HW113509   5.111   3.735   3.808
 4493SOL    HW213510   4.986   3.738   3.912
 4494SOL     OW13511   3.763   4.801   4.024
 4494SOL    HW113512   3.862   4.790   4.015
 4494SOL    HW213513   3.723   4.715   4.056
   5.16494   5.16494   5.16494
