; mobley_1800170_GMX_OPLS.top created by acpype (v: 2023.10.27) on Wed May 20 23:48:30 2026

; Include forcefield parameters
#include "ffoplsaa.itp"

; Include mobley_1800170_GMX.itp topology
#include "mobley_1800170_GMX.itp"

; Ligand position restraints
#ifdef POSRES_LIG
#include "posre_mobley_1800170.itp"
#endif

[ system ]
 mobley_1800170

[ molecules ]
; Compound        nmols
 mobley_1800170   1     
