ethanethiol
     9
   0.4410000  -0.3500000   0.9400000   1.8520000  -0.8680000   0.7340000
   2.9260000   0.4450000   0.0920000   0.4160000   0.4720000   1.6630000
   0.0000000   0.0000000   0.0000000  -0.1970000  -1.1510000   1.3270000
   1.8500000  -1.7010000   0.0240000   2.2640000  -1.2290000   1.6810000
   3.5900000  -0.3270000  -0.7790000
