; mobley_1800170_GMX_OPLS.itp created by acpype (v: 2023.10.27) on Wed May 20 23:48:30 2026

; For OPLS atomtypes manual fine tuning
; AC_at:OPLS_at:OPLScode: Possible_Alternatives (see ffoplsaa.atp and ffoplsaanb.itp)
; c3:CT:opls_135: ['136', '137', '149', '157', '158', '206', '209', '210', '223B', '224B', '245', '246', '274', '283', '284', '285', '292', '292B', '293B', '296', '307', '308', '505']
; sh:SH:opls_200: []
; hc:HC:opls_140: []
; h1:HC:opls_140: []
; hs:HS:opls_204: []

[ moleculetype ]
;name            nrexcl
 mobley_1800170   3

[ atoms ]
;   nr  type  resi  res  atom  cgnr     charge      mass       ; qtot   bond_type
     1 opls_135     1   MOL    C1    1    -0.088100     12.01100 ; qtot -0.088  CT  
     2 opls_135     1   MOL    C2    2     0.012700     12.01100 ; qtot -0.075  CT  
     3 opls_200     1   MOL    S1    3    -0.382899     32.06000 ; qtot -0.458  SH  
     4 opls_140     1   MOL    H1    4     0.048033      1.00800 ; qtot -0.410  HC  
     5 opls_140     1   MOL    H2    5     0.048033      1.00800 ; qtot -0.362  HC  
     6 opls_140     1   MOL    H3    6     0.048033      1.00800 ; qtot -0.314  HC  
     7 opls_140     1   MOL    H4    7     0.057700      1.00800 ; qtot -0.257  HC  
     8 opls_140     1   MOL    H5    8     0.057700      1.00800 ; qtot -0.199  HC  
     9 opls_204     1   MOL    H6    9     0.198800      1.00800 ; qtot -0.000  HS  

[ bonds ]
;   ai     aj funct   r             k
     1      2   1 ;    1.5354e-01    1.9154e+05 ;     C1 - C2         CT - CT    
     1      4   1 ;    1.0962e-01    2.8891e+05 ;     C1 - H1         CT - HC    
     1      5   1 ;    1.0962e-01    2.8891e+05 ;     C1 - H2         CT - HC    
     1      6   1 ;    1.0962e-01    2.8891e+05 ;     C1 - H3         CT - HC    
     2      3   1 ;    1.8446e-01    1.5307e+05 ;     C2 - S1         CT - SH    
     2      7   1 ;    1.0969e-01    2.8804e+05 ;     C2 - H4         CT - HC    
     2      8   1 ;    1.0969e-01    2.8804e+05 ;     C2 - H5         CT - HC    
     3      9   1 ;    1.3503e-01    2.3222e+05 ;     S1 - H6         SH - HS    

[ pairs ]
;   ai     aj    funct
     1      9      1 ;     C1 - H6    
     4      3      1 ;     H1 - S1    
     4      7      1 ;     H1 - H4    
     4      8      1 ;     H1 - H5    
     5      3      1 ;     H2 - S1    
     5      7      1 ;     H2 - H4    
     5      8      1 ;     H2 - H5    
     6      3      1 ;     H3 - S1    
     6      7      1 ;     H3 - H4    
     6      8      1 ;     H3 - H5    
     7      9      1 ;     H4 - H6    
     8      9      1 ;     H5 - H6    

[ angles ]
;   ai     aj     ak    funct   theta         cth
     1      2      3      1 ;    1.1330e+02    5.1840e+02 ;     C1 - C2   - S1       CT -   CT - SH  
     1      2      7      1 ;    1.0959e+02    3.6217e+02 ;     C1 - C2   - H4       CT -   CT - HC  
     1      2      8      1 ;    1.0959e+02    3.6217e+02 ;     C1 - C2   - H5       CT -   CT - HC  
     2      1      4      1 ;    1.0968e+02    3.6208e+02 ;     C2 - C1   - H1       CT -   CT - HC  
     2      1      5      1 ;    1.0968e+02    3.6208e+02 ;     C2 - C1   - H2       CT -   CT - HC  
     2      1      6      1 ;    1.0968e+02    3.6208e+02 ;     C2 - C1   - H3       CT -   CT - HC  
     2      3      9      1 ;    9.6410e+01    5.5957e+02 ;     C2 - S1   - H6       CT -   SH - HS  
     3      2      7      1 ;    1.0837e+02    3.5171e+02 ;     S1 - C2   - H4       SH -   CT - HC  
     3      2      8      1 ;    1.0837e+02    3.5171e+02 ;     S1 - C2   - H5       SH -   CT - HC  
     4      1      5      1 ;    1.0773e+02    2.9957e+02 ;     H1 - C1   - H2       HC -   CT - HC  
     4      1      6      1 ;    1.0773e+02    2.9957e+02 ;     H1 - C1   - H3       HC -   CT - HC  
     5      1      6      1 ;    1.0773e+02    2.9957e+02 ;     H2 - C1   - H3       HC -   CT - HC  
     7      2      8      1 ;    1.0855e+02    2.9824e+02 ;     H4 - C2   - H5       HC -   CT - HC  

[ dihedrals ] ; propers
; for gromacs 4.5 or higher, using funct 9
;    i      j      k      l   func   phase     kd      pn
     1      2      3      9      9 ;     0.00   1.04600   3 ;     C1-    C2-    S1-    H6
     4      1      2      3      9 ;     0.00   0.65084   3 ;     H1-    C1-    C2-    S1
     4      1      2      7      9 ;     0.00   0.65084   3 ;     H1-    C1-    C2-    H4
     4      1      2      8      9 ;     0.00   0.65084   3 ;     H1-    C1-    C2-    H5
     5      1      2      3      9 ;     0.00   0.65084   3 ;     H2-    C1-    C2-    S1
     5      1      2      7      9 ;     0.00   0.65084   3 ;     H2-    C1-    C2-    H4
     5      1      2      8      9 ;     0.00   0.65084   3 ;     H2-    C1-    C2-    H5
     6      1      2      3      9 ;     0.00   0.65084   3 ;     H3-    C1-    C2-    S1
     6      1      2      7      9 ;     0.00   0.65084   3 ;     H3-    C1-    C2-    H4
     6      1      2      8      9 ;     0.00   0.65084   3 ;     H3-    C1-    C2-    H5
     7      2      3      9      9 ;     0.00   0.59831   3 ;     H4-    C2-    S1-    H6
     8      2      3      9      9 ;     0.00   0.59831   3 ;     H5-    C2-    S1-    H6
