; mobley_7497999_GMX_OPLS.top created by acpype (v: 2023.10.27) on Wed May 20 23:43:50 2026

; Include forcefield parameters
#include "ffoplsaa.itp"

; Include mobley_7497999_GMX.itp topology
#include "mobley_7497999_GMX.itp"

; Ligand position restraints
#ifdef POSRES_LIG
#include "posre_mobley_7497999.itp"
#endif

[ system ]
 mobley_7497999

[ molecules ]
; Compound        nmols
 mobley_7497999   1     
