acetophenone
    17
   1.8850000  -1.0380000  -0.1090000   0.8180000  -0.4410000   0.5630000
   2.9350000  -1.6040000   0.6140000   0.8010000  -0.4100000   1.9570000
   2.9180000  -1.5730000   2.0080000   1.8510000  -0.9770000   2.6800000
   1.8330000  -0.9450000   4.1340000   0.6700000  -0.2930000   4.8740000
   2.7570000  -1.4430000   4.8070000   1.8970000  -1.0610000  -1.1950000
   0.0000000   0.0000000  -0.0000000   3.7650000  -2.0690000   0.0910000
  -0.0360000   0.0570000   2.4700000   3.7420000  -2.0180000   2.5610000
  -0.2580000  -0.8230000   4.6420000   0.6000000   0.7620000   4.5970000
   0.8300000  -0.3480000   5.9560000
