mobley_7497999_GMX.gro created by acpype (v: 2023.10.27) on Wed May 20 23:43:50 2026
 17
    1  MOL   C1    1   0.189  -0.104  -0.011
    1  MOL   C2    2   0.082  -0.044   0.056
    1  MOL   C3    3   0.294  -0.160   0.061
    1  MOL   C4    4   0.080  -0.041   0.196
    1  MOL   C5    5   0.292  -0.157   0.201
    1  MOL   C6    6   0.185  -0.098   0.268
    1  MOL   C7    7   0.183  -0.095   0.413
    1  MOL   C8    8   0.067  -0.029   0.487
    1  MOL   O1    9   0.276  -0.144   0.481
    1  MOL   H1   10   0.190  -0.106  -0.120
    1  MOL   H2   11   0.000   0.000  -0.000
    1  MOL   H3   12   0.377  -0.207   0.009
    1  MOL   H4   13  -0.004   0.006   0.247
    1  MOL   H5   14   0.374  -0.202   0.256
    1  MOL   H6   15  -0.026  -0.082   0.464
    1  MOL   H7   16   0.060   0.076   0.460
    1  MOL   H8   17   0.083  -0.035   0.596
    8.04600     5.66200    14.30200
