mobley_9246351_GMX.gro created by acpype (v: 2023.10.27) on Wed May 20 23:58:59 2026
 5
    1  MOL   C1    1  -0.044   0.094  -0.035
    1  MOL  BR1    2  -0.110   0.066  -0.214
    1  MOL  BR2    3  -0.180   0.148   0.090
    1  MOL   H1    4   0.032   0.172  -0.039
    1  MOL   H2    5   0.000   0.000   0.000
    4.25200     3.44600     6.09200
