; mobley_9246351_GMX_OPLS.itp created by acpype (v: 2023.10.27) on Wed May 20 23:58:59 2026

; For OPLS atomtypes manual fine tuning
; AC_at:OPLS_at:OPLScode: Possible_Alternatives (see ffoplsaa.atp and ffoplsaanb.itp)
; c3:CT:opls_135: ['136', '137', '149', '157', '158', '206', '209', '210', '223B', '224B', '245', '246', '274', '283', '284', '285', '292', '292B', '293B', '296', '307', '308', '505']
; br:x:opls_x: []
; h2:x:opls_x: []

[ moleculetype ]
;name            nrexcl
 mobley_9246351   3

[ atoms ]
;   nr  type  resi  res  atom  cgnr     charge      mass       ; qtot   bond_type
     1 opls_135     1   MOL    C1    1     0.009400     12.01100 ; qtot  0.009  CT  
     2 opls_x     1   MOL   BR1    2    -0.108400      0.00000 ; qtot -0.099  x   
     3 opls_x     1   MOL   BR2    3    -0.108400      0.00000 ; qtot -0.207  x   
     4 opls_x     1   MOL    H1    4     0.103700      0.00000 ; qtot -0.104  x   
     5 opls_x     1   MOL    H2    5     0.103700      0.00000 ; qtot  0.000  x   

[ bonds ]
;   ai     aj funct   r             k
     1      2   1 ;    1.9805e-01    1.0319e+05 ;     C1 - BR1        CT - x     
     1      3   1 ;    1.9805e-01    1.0319e+05 ;     C1 - BR2        CT - x     
     1      4   1 ;    1.0950e-01    2.9039e+05 ;     C1 - H1         CT - x     
     1      5   1 ;    1.0950e-01    2.9039e+05 ;     C1 - H2         CT - x     

[ angles ]
;   ai     aj     ak    funct   theta         cth
     2      1      3      1 ;    1.0991e+02    5.5898e+02 ;    BR1 - C1   - BR2       x -   CT - x   
     2      1      4      1 ;    1.0695e+02    3.3505e+02 ;    BR1 - C1   - H1        x -   CT - x   
     2      1      5      1 ;    1.0695e+02    3.3505e+02 ;    BR1 - C1   - H2        x -   CT - x   
     3      1      4      1 ;    1.0695e+02    3.3505e+02 ;    BR2 - C1   - H1        x -   CT - x   
     3      1      5      1 ;    1.0695e+02    3.3505e+02 ;    BR2 - C1   - H2        x -   CT - x   
     4      1      5      1 ;    1.0951e+02    2.9748e+02 ;     H1 - C1   - H2        x -   CT - x   
