n_pentyl_propanoate
    26
   5.2420000  -2.0420000  -5.0270000   6.7590000  -2.9230000  -6.8260000
   0.8520000  -0.3690000   0.6910000   6.0000000  -3.2390000  -5.5500000
   1.6510000  -1.4310000  -0.0470000   2.2940000  -0.8690000  -1.3150000
   3.1240000  -1.9290000  -2.0350000   3.8010000  -1.3660000  -3.2760000
   5.2340000  -0.9320000  -5.5430000   4.5660000  -2.3950000  -3.8880000
   7.4870000  -2.1210000  -6.6630000   7.2980000  -3.8080000  -7.1780000
   6.0770000  -2.5990000  -7.6190000   1.4920000   0.4680000   0.9890000
   0.0450000   0.0220000   0.0620000   0.4030000  -0.7920000   1.5950000
   6.7060000  -3.5650000  -4.7790000   5.2840000  -4.0450000  -5.7440000
   0.9890000  -2.2660000  -0.3040000   2.4270000  -1.8250000   0.6200000
   1.5130000  -0.4940000  -1.9880000   2.9330000  -0.0160000  -1.0550000
   2.4900000  -2.7780000  -2.3210000   3.8850000  -2.3390000  -1.3590000
   4.4730000  -0.5420000  -3.0150000   3.0600000  -1.0070000  -3.9970000
