; mobley_3572203_GMX_OPLS.top created by acpype (v: 2023.10.27) on Wed May 20 23:48:30 2026

; Include forcefield parameters
#include "ffoplsaa.itp"

; Include mobley_3572203_GMX.itp topology
#include "mobley_3572203_GMX.itp"

; Ligand position restraints
#ifdef POSRES_LIG
#include "posre_mobley_3572203.itp"
#endif

[ system ]
 mobley_3572203

[ molecules ]
; Compound        nmols
 mobley_3572203   1     
