; mobley_3572203_GMX_OPLS.itp created by acpype (v: 2023.10.27) on Wed May 20 23:48:30 2026

; For OPLS atomtypes manual fine tuning
; AC_at:OPLS_at:OPLScode: Possible_Alternatives (see ffoplsaa.atp and ffoplsaanb.itp)
; c:C:opls_235: ['271']
; c3:CT:opls_135: ['136', '137', '149', '157', '158', '206', '209', '210', '223B', '224B', '245', '246', '274', '283', '284', '285', '292', '292B', '293B', '296', '307', '308', '505']
; o:O:opls_236: ['272']
; os:x:opls_x: []
; hc:HC:opls_140: []
; h1:HC:opls_140: []

[ moleculetype ]
;name            nrexcl
 mobley_3572203   3

[ atoms ]
;   nr  type  resi  res  atom  cgnr     charge      mass       ; qtot   bond_type
     1 opls_235     1   MOL    C1    1     0.633099     12.01100 ; qtot  0.633  C   
     2 opls_135     1   MOL    C2    2    -0.094100     12.01100 ; qtot  0.539  CT  
     3 opls_135     1   MOL    C3    3    -0.093100     12.01100 ; qtot  0.446  CT  
     4 opls_135     1   MOL    C4    4    -0.127400     12.01100 ; qtot  0.318  CT  
     5 opls_135     1   MOL    C5    5    -0.079400     12.01100 ; qtot  0.239  CT  
     6 opls_135     1   MOL    C6    6    -0.078400     12.01100 ; qtot  0.161  CT  
     7 opls_135     1   MOL    C7    7    -0.085400     12.01100 ; qtot  0.075  CT  
     8 opls_135     1   MOL    C8    8     0.139400     12.01100 ; qtot  0.215  CT  
     9 opls_236     1   MOL    O1    9    -0.544000     15.99940 ; qtot -0.329  O   
    10 opls_x     1   MOL    O2   10    -0.445900      0.00000 ; qtot -0.775  x   
    11 opls_140     1   MOL    H1   11     0.048367      1.00800 ; qtot -0.727  HC  
    12 opls_140     1   MOL    H2   12     0.048367      1.00800 ; qtot -0.678  HC  
    13 opls_140     1   MOL    H3   13     0.048367      1.00800 ; qtot -0.630  HC  
    14 opls_140     1   MOL    H4   14     0.033700      1.00800 ; qtot -0.596  HC  
    15 opls_140     1   MOL    H5   15     0.033700      1.00800 ; qtot -0.563  HC  
    16 opls_140     1   MOL    H6   16     0.033700      1.00800 ; qtot -0.529  HC  
    17 opls_140     1   MOL    H7   17     0.076700      1.00800 ; qtot -0.452  HC  
    18 opls_140     1   MOL    H8   18     0.076700      1.00800 ; qtot -0.376  HC  
    19 opls_140     1   MOL    H9   19     0.039700      1.00800 ; qtot -0.336  HC  
    20 opls_140     1   MOL   H10   20     0.039700      1.00800 ; qtot -0.296  HC  
    21 opls_140     1   MOL   H11   21     0.042700      1.00800 ; qtot -0.254  HC  
    22 opls_140     1   MOL   H12   22     0.042700      1.00800 ; qtot -0.211  HC  
    23 opls_140     1   MOL   H13   23     0.053700      1.00800 ; qtot -0.157  HC  
    24 opls_140     1   MOL   H14   24     0.053700      1.00800 ; qtot -0.103  HC  
    25 opls_140     1   MOL   H15   25     0.051700      1.00800 ; qtot -0.052  HC  
    26 opls_140     1   MOL   H16   26     0.051700      1.00800 ; qtot -0.000  HC  

[ bonds ]
;   ai     aj funct   r             k
     1      4   1 ;    1.5270e-01    1.9652e+05 ;     C1 - C4          C - CT    
     1      9   1 ;    1.2190e-01    4.9421e+05 ;     C1 - O1          C - O     
     1     10   1 ;    1.3621e-01    2.9398e+05 ;     C1 - O2          C - x     
     2      4   1 ;    1.5354e-01    1.9154e+05 ;     C2 - C4         CT - CT    
     2     11   1 ;    1.0962e-01    2.8891e+05 ;     C2 - H1         CT - HC    
     2     12   1 ;    1.0962e-01    2.8891e+05 ;     C2 - H2         CT - HC    
     2     13   1 ;    1.0962e-01    2.8891e+05 ;     C2 - H3         CT - HC    
     3      5   1 ;    1.5354e-01    1.9154e+05 ;     C3 - C5         CT - CT    
     3     14   1 ;    1.0962e-01    2.8891e+05 ;     C3 - H4         CT - HC    
     3     15   1 ;    1.0962e-01    2.8891e+05 ;     C3 - H5         CT - HC    
     3     16   1 ;    1.0962e-01    2.8891e+05 ;     C3 - H6         CT - HC    
     4     17   1 ;    1.0962e-01    2.8891e+05 ;     C4 - H7         CT - HC    
     4     18   1 ;    1.0962e-01    2.8891e+05 ;     C4 - H8         CT - HC    
     5      6   1 ;    1.5354e-01    1.9154e+05 ;     C5 - C6         CT - CT    
     5     19   1 ;    1.0962e-01    2.8891e+05 ;     C5 - H9         CT - HC    
     5     20   1 ;    1.0962e-01    2.8891e+05 ;     C5 - H10        CT - HC    
     6      7   1 ;    1.5354e-01    1.9154e+05 ;     C6 - C7         CT - CT    
     6     21   1 ;    1.0962e-01    2.8891e+05 ;     C6 - H11        CT - HC    
     6     22   1 ;    1.0962e-01    2.8891e+05 ;     C6 - H12        CT - HC    
     7      8   1 ;    1.5354e-01    1.9154e+05 ;     C7 - C8         CT - CT    
     7     23   1 ;    1.0962e-01    2.8891e+05 ;     C7 - H13        CT - HC    
     7     24   1 ;    1.0962e-01    2.8891e+05 ;     C7 - H14        CT - HC    
     8     10   1 ;    1.4273e-01    2.3620e+05 ;     C8 - O2         CT - x     
     8     25   1 ;    1.0969e-01    2.8804e+05 ;     C8 - H15        CT - HC    
     8     26   1 ;    1.0969e-01    2.8804e+05 ;     C8 - H16        CT - HC    

[ pairs ]
;   ai     aj    funct
     1      7      1 ;     C1 - C7    
     1     11      1 ;     C1 - H1    
     1     12      1 ;     C1 - H2    
     1     13      1 ;     C1 - H3    
     1     25      1 ;     C1 - H15   
     1     26      1 ;     C1 - H16   
     3      7      1 ;     C3 - C7    
     3     21      1 ;     C3 - H11   
     3     22      1 ;     C3 - H12   
     4      8      1 ;     C4 - C8    
     5      8      1 ;     C5 - C8    
     5     23      1 ;     C5 - H13   
     5     24      1 ;     C5 - H14   
     6     10      1 ;     C6 - O2    
     6     14      1 ;     C6 - H4    
     6     15      1 ;     C6 - H5    
     6     16      1 ;     C6 - H6    
     6     25      1 ;     C6 - H15   
     6     26      1 ;     C6 - H16   
     7     19      1 ;     C7 - H9    
     7     20      1 ;     C7 - H10   
     8     21      1 ;     C8 - H11   
     8     22      1 ;     C8 - H12   
     9      2      1 ;     O1 - C2    
     9      8      1 ;     O1 - C8    
     9     17      1 ;     O1 - H7    
     9     18      1 ;     O1 - H8    
    10      2      1 ;     O2 - C2    
    10     17      1 ;     O2 - H7    
    10     18      1 ;     O2 - H8    
    10     23      1 ;     O2 - H13   
    10     24      1 ;     O2 - H14   
    11     17      1 ;     H1 - H7    
    11     18      1 ;     H1 - H8    
    12     17      1 ;     H2 - H7    
    12     18      1 ;     H2 - H8    
    13     17      1 ;     H3 - H7    
    13     18      1 ;     H3 - H8    
    14     19      1 ;     H4 - H9    
    14     20      1 ;     H4 - H10   
    15     19      1 ;     H5 - H9    
    15     20      1 ;     H5 - H10   
    16     19      1 ;     H6 - H9    
    16     20      1 ;     H6 - H10   
    19     21      1 ;     H9 - H11   
    19     22      1 ;     H9 - H12   
    20     21      1 ;    H10 - H11   
    20     22      1 ;    H10 - H12   
    21     23      1 ;    H11 - H13   
    21     24      1 ;    H11 - H14   
    22     23      1 ;    H12 - H13   
    22     24      1 ;    H12 - H14   
    23     25      1 ;    H13 - H15   
    23     26      1 ;    H13 - H16   
    24     25      1 ;    H14 - H15   
    24     26      1 ;    H14 - H16   

[ angles ]
;   ai     aj     ak    funct   theta         cth
     1      4      2      1 ;    1.1143e+02    5.0509e+02 ;     C1 - C4   - C2        C -   CT - CT  
     1      4     17      1 ;    1.0895e+02    3.6510e+02 ;     C1 - C4   - H7        C -   CT - HC  
     1      4     18      1 ;    1.0895e+02    3.6510e+02 ;     C1 - C4   - H8        C -   CT - HC  
     1     10      8      1 ;    1.1582e+02    7.4835e+02 ;     C1 - O2   - C8        C -    x - CT  
     2      4     17      1 ;    1.0968e+02    3.6208e+02 ;     C2 - C4   - H7       CT -   CT - HC  
     2      4     18      1 ;    1.0968e+02    3.6208e+02 ;     C2 - C4   - H8       CT -   CT - HC  
     3      5      6      1 ;    1.1263e+02    5.0099e+02 ;     C3 - C5   - C6       CT -   CT - CT  
     3      5     19      1 ;    1.0968e+02    3.6208e+02 ;     C3 - C5   - H9       CT -   CT - HC  
     3      5     20      1 ;    1.0968e+02    3.6208e+02 ;     C3 - C5   - H10      CT -   CT - HC  
     4      1      9      1 ;    1.2290e+02    6.3973e+02 ;     C4 - C1   - O1       CT -    C - O   
     4      1     10      1 ;    1.1080e+02    6.5245e+02 ;     C4 - C1   - O2       CT -    C - x   
     4      2     11      1 ;    1.0968e+02    3.6208e+02 ;     C4 - C2   - H1       CT -   CT - HC  
     4      2     12      1 ;    1.0968e+02    3.6208e+02 ;     C4 - C2   - H2       CT -   CT - HC  
     4      2     13      1 ;    1.0968e+02    3.6208e+02 ;     C4 - C2   - H3       CT -   CT - HC  
     5      3     14      1 ;    1.0968e+02    3.6208e+02 ;     C5 - C3   - H4       CT -   CT - HC  
     5      3     15      1 ;    1.0968e+02    3.6208e+02 ;     C5 - C3   - H5       CT -   CT - HC  
     5      3     16      1 ;    1.0968e+02    3.6208e+02 ;     C5 - C3   - H6       CT -   CT - HC  
     5      6      7      1 ;    1.1263e+02    5.0099e+02 ;     C5 - C6   - C7       CT -   CT - CT  
     5      6     21      1 ;    1.0968e+02    3.6208e+02 ;     C5 - C6   - H11      CT -   CT - HC  
     5      6     22      1 ;    1.0968e+02    3.6208e+02 ;     C5 - C6   - H12      CT -   CT - HC  
     6      5     19      1 ;    1.0968e+02    3.6208e+02 ;     C6 - C5   - H9       CT -   CT - HC  
     6      5     20      1 ;    1.0968e+02    3.6208e+02 ;     C6 - C5   - H10      CT -   CT - HC  
     6      7      8      1 ;    1.1263e+02    5.0099e+02 ;     C6 - C7   - C8       CT -   CT - CT  
     6      7     23      1 ;    1.0968e+02    3.6208e+02 ;     C6 - C7   - H13      CT -   CT - HC  
     6      7     24      1 ;    1.0968e+02    3.6208e+02 ;     C6 - C7   - H14      CT -   CT - HC  
     7      6     21      1 ;    1.0968e+02    3.6208e+02 ;     C7 - C6   - H11      CT -   CT - HC  
     7      6     22      1 ;    1.0968e+02    3.6208e+02 ;     C7 - C6   - H12      CT -   CT - HC  
     7      8     10      1 ;    1.0762e+02    6.4802e+02 ;     C7 - C8   - O2       CT -   CT - x   
     7      8     25      1 ;    1.0959e+02    3.6217e+02 ;     C7 - C8   - H15      CT -   CT - HC  
     7      8     26      1 ;    1.0959e+02    3.6217e+02 ;     C7 - C8   - H16      CT -   CT - HC  
     8      7     23      1 ;    1.0968e+02    3.6208e+02 ;     C8 - C7   - H13      CT -   CT - HC  
     8      7     24      1 ;    1.0968e+02    3.6208e+02 ;     C8 - C7   - H14      CT -   CT - HC  
     9      1     10      1 ;    1.2320e+02    8.4734e+02 ;     O1 - C1   - O2        O -    C - x   
    10      8     25      1 ;    1.1034e+02    4.7028e+02 ;     O2 - C8   - H15       x -   CT - HC  
    10      8     26      1 ;    1.1034e+02    4.7028e+02 ;     O2 - C8   - H16       x -   CT - HC  
    11      2     12      1 ;    1.0773e+02    2.9957e+02 ;     H1 - C2   - H2       HC -   CT - HC  
    11      2     13      1 ;    1.0773e+02    2.9957e+02 ;     H1 - C2   - H3       HC -   CT - HC  
    12      2     13      1 ;    1.0773e+02    2.9957e+02 ;     H2 - C2   - H3       HC -   CT - HC  
    14      3     15      1 ;    1.0773e+02    2.9957e+02 ;     H4 - C3   - H5       HC -   CT - HC  
    14      3     16      1 ;    1.0773e+02    2.9957e+02 ;     H4 - C3   - H6       HC -   CT - HC  
    15      3     16      1 ;    1.0773e+02    2.9957e+02 ;     H5 - C3   - H6       HC -   CT - HC  
    17      4     18      1 ;    1.0773e+02    2.9957e+02 ;     H7 - C4   - H8       HC -   CT - HC  
    19      5     20      1 ;    1.0773e+02    2.9957e+02 ;     H9 - C5   - H10      HC -   CT - HC  
    21      6     22      1 ;    1.0773e+02    2.9957e+02 ;    H11 - C6   - H12      HC -   CT - HC  
    23      7     24      1 ;    1.0773e+02    2.9957e+02 ;    H13 - C7   - H14      HC -   CT - HC  
    25      8     26      1 ;    1.0855e+02    2.9824e+02 ;    H15 - C8   - H16      HC -   CT - HC  

[ dihedrals ] ; propers
; for gromacs 4.5 or higher, using funct 9
;    i      j      k      l   func   phase     kd      pn
     1      4      2     11      9 ;     0.00   0.65084   3 ;     C1-    C4-    C2-    H1
     1      4      2     12      9 ;     0.00   0.65084   3 ;     C1-    C4-    C2-    H2
     1      4      2     13      9 ;     0.00   0.65084   3 ;     C1-    C4-    C2-    H3
     1     10      8      7      9 ;     0.00   1.60247   3 ;     C1-    O2-    C8-    C7
     1     10      8      7      9 ;   180.00   3.34720   1 ;     C1-    O2-    C8-    C7
     1     10      8     25      9 ;     0.00   1.60387   3 ;     C1-    O2-    C8-   H15
     1     10      8     26      9 ;     0.00   1.60387   3 ;     C1-    O2-    C8-   H16
     3      5      6      7      9 ;     0.00   2.17568   3 ;     C3-    C5-    C6-    C7
     3      5      6     21      9 ;     0.00   0.54392   3 ;     C3-    C5-    C6-   H11
     3      5      6     22      9 ;     0.00   0.54392   3 ;     C3-    C5-    C6-   H12
     4      1     10      8      9 ;     0.00   3.13800   3 ;     C4-    C1-    O2-    C8
     4      1     10      8      9 ;   180.00   7.90776   1 ;     C4-    C1-    O2-    C8
     4      1     10      8      9 ;   180.00  13.76536   2 ;     C4-    C1-    O2-    C8
     5      6      7      8      9 ;     0.00   2.17568   3 ;     C5-    C6-    C7-    C8
     5      6      7     23      9 ;     0.00   0.54392   3 ;     C5-    C6-    C7-   H13
     5      6      7     24      9 ;     0.00   0.54392   3 ;     C5-    C6-    C7-   H14
     6      5      3     14      9 ;     0.00   0.54392   3 ;     C6-    C5-    C3-    H4
     6      5      3     15      9 ;     0.00   0.54392   3 ;     C6-    C5-    C3-    H5
     6      5      3     16      9 ;     0.00   0.54392   3 ;     C6-    C5-    C3-    H6
     6      7      8     10      9 ;     0.00   0.65084   3 ;     C6-    C7-    C8-    O2
     6      7      8     25      9 ;     0.00   0.65084   3 ;     C6-    C7-    C8-   H15
     6      7      8     26      9 ;     0.00   0.65084   3 ;     C6-    C7-    C8-   H16
     7      6      5     19      9 ;     0.00   0.54392   3 ;     C7-    C6-    C5-    H9
     7      6      5     20      9 ;     0.00   0.54392   3 ;     C7-    C6-    C5-   H10
     8      7      6     21      9 ;     0.00   0.54392   3 ;     C8-    C7-    C6-   H11
     8      7      6     22      9 ;     0.00   0.54392   3 ;     C8-    C7-    C6-   H12
     9      1      4      2      9 ;     0.00   2.84512   1 ;     O1-    C1-    C4-    C2
     9      1      4      2      9 ;   180.00   0.83680   2 ;     O1-    C1-    C4-    C2
     9      1      4      2      9 ;   180.00   1.84096   3 ;     O1-    C1-    C4-    C2
     9      1      4     17      9 ;     0.00  16.86152   1 ;     O1-    C1-    C4-    H7
     9      1      4     17      9 ;   180.00  15.31344   2 ;     O1-    C1-    C4-    H7
     9      1      4     18      9 ;     0.00  16.86152   1 ;     O1-    C1-    C4-    H8
     9      1      4     18      9 ;   180.00  15.31344   2 ;     O1-    C1-    C4-    H8
     9      1     10      8      9 ;   180.00   5.85760   1 ;     O1-    C1-    O2-    C8
     9      1     10      8      9 ;   180.00  11.29680   2 ;     O1-    C1-    O2-    C8
    10      1      4      2      9 ;   180.00   0.00000   2 ;     O2-    C1-    C4-    C2
    10      1      4     17      9 ;   180.00   0.00000   2 ;     O2-    C1-    C4-    H7
    10      1      4     18      9 ;   180.00   0.00000   2 ;     O2-    C1-    C4-    H8
    10      8      7     23      9 ;     0.00   0.00000   0 ;     O2-    C8-    C7-   H13
    10      8      7     23      9 ;     0.00   1.04600   1 ;     O2-    C8-    C7-   H13
    10      8      7     24      9 ;     0.00   0.00000   0 ;     O2-    C8-    C7-   H14
    10      8      7     24      9 ;     0.00   1.04600   1 ;     O2-    C8-    C7-   H14
    11      2      4     17      9 ;     0.00   0.50208   3 ;     H1-    C2-    C4-    H7
    11      2      4     18      9 ;     0.00   0.50208   3 ;     H1-    C2-    C4-    H8
    12      2      4     17      9 ;     0.00   0.50208   3 ;     H2-    C2-    C4-    H7
    12      2      4     18      9 ;     0.00   0.50208   3 ;     H2-    C2-    C4-    H8
    13      2      4     17      9 ;     0.00   0.50208   3 ;     H3-    C2-    C4-    H7
    13      2      4     18      9 ;     0.00   0.50208   3 ;     H3-    C2-    C4-    H8
    14      3      5     19      9 ;     0.00   0.50208   3 ;     H4-    C3-    C5-    H9
    14      3      5     20      9 ;     0.00   0.50208   3 ;     H4-    C3-    C5-   H10
    15      3      5     19      9 ;     0.00   0.50208   3 ;     H5-    C3-    C5-    H9
    15      3      5     20      9 ;     0.00   0.50208   3 ;     H5-    C3-    C5-   H10
    16      3      5     19      9 ;     0.00   0.50208   3 ;     H6-    C3-    C5-    H9
    16      3      5     20      9 ;     0.00   0.50208   3 ;     H6-    C3-    C5-   H10
    19      5      6     21      9 ;     0.00   0.50208   3 ;     H9-    C5-    C6-   H11
    19      5      6     22      9 ;     0.00   0.50208   3 ;     H9-    C5-    C6-   H12
    20      5      6     21      9 ;     0.00   0.50208   3 ;    H10-    C5-    C6-   H11
    20      5      6     22      9 ;     0.00   0.50208   3 ;    H10-    C5-    C6-   H12
    21      6      7     23      9 ;     0.00   0.50208   3 ;    H11-    C6-    C7-   H13
    21      6      7     24      9 ;     0.00   0.50208   3 ;    H11-    C6-    C7-   H14
    22      6      7     23      9 ;     0.00   0.50208   3 ;    H12-    C6-    C7-   H13
    22      6      7     24      9 ;     0.00   0.50208   3 ;    H12-    C6-    C7-   H14
    23      7      8     25      9 ;     0.00   0.65084   3 ;    H13-    C7-    C8-   H15
    23      7      8     26      9 ;     0.00   0.65084   3 ;    H13-    C7-    C8-   H16
    24      7      8     25      9 ;     0.00   0.65084   3 ;    H14-    C7-    C8-   H15
    24      7      8     26      9 ;     0.00   0.65084   3 ;    H14-    C7-    C8-   H16

[ dihedrals ] ; impropers
; treated as propers in GROMACS to use correct AMBER analytical function
;    i      j      k      l   func   phase     kd      pn
    10      1      9      4      4 ;   180.00   4.60240   2 ;     O2-    C1-    O1-    C4
