%VERSION  VERSION_STAMP = V0001.000  DATE = 05/20/26  23:48:41                  
%FLAG TITLE                                                                     
%FORMAT(20a4)                                                                   
n_pentyl_propanoate                                                             
%FLAG POINTERS                                                                  
%FORMAT(10I8)                                                                   
      26       6      16       9      37       9      52      15       0       0
     129       1       9       9      15       7      13      21       6       0
       0       0       0       0       0       0       0       0      26       0
       0
%FLAG ATOM_NAME                                                                 
%FORMAT(20a4)                                                                   
C1  C2  C3  C4  C5  C6  C7  C8  O1  O2  H1  H2  H3  H4  H5  H6  H7  H8  H9  H10 
H11 H12 H13 H14 H15 H16 
%FLAG CHARGE                                                                    
%FORMAT(5E16.8)                                                                 
  1.15000935E+01 -1.71471843E+00 -1.69649613E+00 -2.32152102E+00 -1.44685062E+00
 -1.42862832E+00 -1.55618442E+00  2.54018862E+00 -9.91293120E+00 -8.12532357E+00
  8.81357984E-01  8.81357984E-01  8.81357984E-01  6.14091510E-01  6.14091510E-01
  6.14091510E-01  1.39765041E+00  1.39765041E+00  7.23425310E-01  7.23425310E-01
  7.78092210E-01  7.78092210E-01  9.78537510E-01  9.78537510E-01  9.42092910E-01
  9.42092910E-01
%FLAG ATOMIC_NUMBER                                                             
%FORMAT(10I8)                                                                   
       6       6       6       6       6       6       6       6       8       8
       1       1       1       1       1       1       1       1       1       1
       1       1       1       1       1       1
%FLAG MASS                                                                      
%FORMAT(5E16.8)                                                                 
  1.20100000E+01  1.20100000E+01  1.20100000E+01  1.20100000E+01  1.20100000E+01
  1.20100000E+01  1.20100000E+01  1.20100000E+01  1.60000000E+01  1.60000000E+01
  1.00800000E+00  1.00800000E+00  1.00800000E+00  1.00800000E+00  1.00800000E+00
  1.00800000E+00  1.00800000E+00  1.00800000E+00  1.00800000E+00  1.00800000E+00
  1.00800000E+00  1.00800000E+00  1.00800000E+00  1.00800000E+00  1.00800000E+00
  1.00800000E+00
%FLAG ATOM_TYPE_INDEX                                                           
%FORMAT(10I8)                                                                   
       1       2       2       2       2       2       2       2       3       4
       5       5       5       5       5       5       5       5       5       5
       5       5       5       5       6       6
%FLAG NUMBER_EXCLUDED_ATOMS                                                     
%FORMAT(10I8)                                                                   
      13       8      10       8      12      14      10       8       3       6
       4       3       2       4       3       2       1       1       3       2
       3       2       3       2       1       1
%FLAG NONBONDED_PARM_INDEX                                                      
%FORMAT(10I8)                                                                   
       1       2       4       7      11      16       2       3       5       8
      12      17       4       5       6       9      13      18       7       8
       9      10      14      19      11      12      13      14      15      20
      16      17      18      19      20      21
%FLAG RESIDUE_LABEL                                                             
%FORMAT(20a4)                                                                   
MOL 
%FLAG RESIDUE_POINTER                                                           
%FORMAT(10I8)                                                                   
       1
%FLAG BOND_FORCE_CONSTANT                                                       
%FORMAT(5E16.8)                                                                 
  2.34850000E+02  5.90600000E+02  3.51310000E+02  2.28890000E+02  3.45250000E+02
  2.82270000E+02  3.44220000E+02
%FLAG BOND_EQUIL_VALUE                                                          
%FORMAT(5E16.8)                                                                 
  1.52700000E+00  1.21900000E+00  1.36210000E+00  1.53540000E+00  1.09620000E+00
  1.42730000E+00  1.09690000E+00
%FLAG ANGLE_FORCE_CONSTANT                                                      
%FORMAT(5E16.8)                                                                 
  6.03600000E+01  4.36300000E+01  8.94300000E+01  4.32700000E+01  5.98700000E+01
  7.64500000E+01  7.79700000E+01  7.74400000E+01  4.32800000E+01  1.01260000E+02
  5.62000000E+01  3.58000000E+01  3.56400000E+01
%FLAG ANGLE_EQUIL_VALUE                                                         
%FORMAT(5E16.8)                                                                 
  1.94482122E+00  1.90153704E+00  2.02144121E+00  1.91427794E+00  1.96576518E+00
  2.14501057E+00  1.93382564E+00  1.87832415E+00  1.91270715E+00  2.15024656E+00
  1.92579712E+00  1.88024401E+00  1.89455572E+00
%FLAG DIHEDRAL_FORCE_CONSTANT                                                   
%FORMAT(5E16.8)                                                                 
  1.55555556E-01  8.00000000E-01  3.83000000E-01  3.83333333E-01  6.80000000E-01
  2.00000000E-01  4.40000000E-01  0.00000000E+00  5.20000000E-01  1.30000000E-01
  1.89000000E+00  3.29000000E+00  7.50000000E-01  1.40000000E+00  2.70000000E+00
  4.03000000E+00  3.66000000E+00  2.50000000E-01  0.00000000E+00  1.20000000E-01
  1.10000000E+00
%FLAG DIHEDRAL_PERIODICITY                                                      
%FORMAT(5E16.8)                                                                 
  3.00000000E+00  1.00000000E+00  3.00000000E+00  3.00000000E+00  1.00000000E+00
  2.00000000E+00  3.00000000E+00  2.00000000E+00  3.00000000E+00  3.00000000E+00
  1.00000000E+00  2.00000000E+00  3.00000000E+00  1.00000000E+00  2.00000000E+00
  1.00000000E+00  2.00000000E+00  1.00000000E+00  3.00000000E+00  3.00000000E+00
  2.00000000E+00
%FLAG DIHEDRAL_PHASE                                                            
%FORMAT(5E16.8)                                                                 
  0.00000000E+00  3.14159400E+00  0.00000000E+00  0.00000000E+00  0.00000000E+00
  3.14159400E+00  3.14159400E+00  3.14159400E+00  0.00000000E+00  0.00000000E+00
  3.14159400E+00  3.14159400E+00  0.00000000E+00  3.14159400E+00  3.14159400E+00
  0.00000000E+00  3.14159400E+00  0.00000000E+00  0.00000000E+00  0.00000000E+00
  3.14159400E+00
%FLAG SCEE_SCALE_FACTOR                                                         
%FORMAT(5E16.8)                                                                 
  1.20000000E+00  1.20000000E+00  1.20000000E+00  1.20000000E+00  1.20000000E+00
  1.20000000E+00  1.20000000E+00  1.20000000E+00  1.20000000E+00  1.20000000E+00
  1.20000000E+00  1.20000000E+00  1.20000000E+00  1.20000000E+00  1.20000000E+00
  1.20000000E+00  1.20000000E+00  1.20000000E+00  1.20000000E+00  1.20000000E+00
  0.00000000E+00
%FLAG SCNB_SCALE_FACTOR                                                         
%FORMAT(5E16.8)                                                                 
  2.00000000E+00  2.00000000E+00  2.00000000E+00  2.00000000E+00  2.00000000E+00
  2.00000000E+00  2.00000000E+00  2.00000000E+00  2.00000000E+00  2.00000000E+00
  2.00000000E+00  2.00000000E+00  2.00000000E+00  2.00000000E+00  2.00000000E+00
  2.00000000E+00  2.00000000E+00  2.00000000E+00  2.00000000E+00  2.00000000E+00
  0.00000000E+00
%FLAG SOLTY                                                                     
%FORMAT(5E16.8)                                                                 
  0.00000000E+00  0.00000000E+00  0.00000000E+00  0.00000000E+00  0.00000000E+00
  0.00000000E+00
%FLAG LENNARD_JONES_ACOEF                                                       
%FORMAT(5E16.8)                                                                 
  6.96551276E+05  8.43969952E+05  1.02073671E+06  5.17507491E+05  6.30925504E+05
  3.76435470E+05  4.46121722E+05  5.42502534E+05  3.27367585E+05  2.83662575E+05
  8.12662403E+04  1.00235148E+05  5.68021765E+04  5.02224902E+04  7.94617769E+03
  5.63013422E+04  6.97998263E+04  3.86646725E+04  3.44374471E+04  5.22955465E+03
  3.39005767E+03
%FLAG LENNARD_JONES_BCOEF                                                       
%FORMAT(5E16.8)                                                                 
  5.24668528E+02  5.90251928E+02  6.63431737E+02  4.98871431E+02  5.62969425E+02
  4.69350655E+02  3.88758656E+02  4.38146883E+02  3.67361018E+02  2.87011518E+02
  1.21392023E+02  1.37787728E+02  1.11953944E+02  8.83545880E+01  2.57122925E+01
  1.01040256E+02  1.14981426E+02  9.23664132E+01  7.31636661E+01  2.08590256E+01
  1.67944276E+01
%FLAG BONDS_INC_HYDROGEN                                                        
%FORMAT(10I8)                                                                   
       3      30       5       3      33       5       3      36       5       6
      39       5       6      42       5       6      45       5       9      48
       5       9      51       5      12      54       5      12      57       5
      15      60       5      15      63       5      18      66       5      18
      69       5      21      72       7      21      75       7
%FLAG BONDS_WITHOUT_HYDROGEN                                                    
%FORMAT(10I8)                                                                   
       0       9       1       0      24       2       0      27       3       3
       9       4       6      12       4      12      15       4      15      18
       4      18      21       4      21      27       6
%FLAG ANGLES_INC_HYDROGEN                                                       
%FORMAT(10I8)                                                                   
       0       9      48       2       0       9      51       2       3       9
      48       4       3       9      51       4       6      12      54       4
       6      12      57       4       9       3      30       4       9       3
      33       4       9       3      36       4      12       6      39       4
      12       6      42       4      12       6      45       4      12      15
      60       4      12      15      63       4      15      12      54       4
      15      12      57       4      15      18      66       4      15      18
      69       4      18      15      60       4      18      15      63       4
      18      21      72       9      18      21      75       9      21      18
      66       4      21      18      69       4      27      21      72      11
      27      21      75      11      30       3      33      12      30       3
      36      12      33       3      36      12      39       6      42      12
      39       6      45      12      42       6      45      12      48       9
      51      12      54      12      57      12      60      15      63      12
      66      18      69      12      72      21      75      13
%FLAG ANGLES_WITHOUT_HYDROGEN                                                   
%FORMAT(10I8)                                                                   
       0       9       3       1       0      27      21       3       6      12
      15       5       9       0      24       6       9       0      27       7
      12      15      18       5      15      18      21       5      18      21
      27       8      24       0      27      10
%FLAG DIHEDRALS_INC_HYDROGEN                                                    
%FORMAT(10I8)                                                                   
       0       9       3      30       1       0       9       3      33       1
       0       9       3      36       1       0      27      21      72       4
       0      27      21      75       4       6      12      15      60      10
       6      12      15      63      10      12      15      18      66      10
      12      15      18      69      10      15      12       6      39      10
      15      12       6      42      10      15      12       6      45      10
      15      18      21      72       1      15      18      21      75       1
      18      15      12      54      10      18      15      12      57      10
      21      18      15      60      10      21      18      15      63      10
      24       0       9      48      16      24       0      -9      48      17
      24       0       9      51      16      24       0      -9      51      17
      27       0       9      48       8      27       0       9      51       8
      27      21      18      66      18      27      21     -18      66      19
      27      21      18      69      18      27      21     -18      69      19
      30       3       9      48      20      30       3       9      51      20
      33       3       9      48      20      33       3       9      51      20
      36       3       9      48      20      36       3       9      51      20
      39       6      12      54      20      39       6      12      57      20
      42       6      12      54      20      42       6      12      57      20
      45       6      12      54      20      45       6      12      57      20
      54      12      15      60      20      54      12      15      63      20
      57      12      15      60      20      57      12      15      63      20
      60      15      18      66      20      60      15      18      69      20
      63      15      18      66      20      63      15      18      69      20
      66      18      21      72       1      66      18      21      75       1
      69      18      21      72       1      69      18      21      75       1
%FLAG DIHEDRALS_WITHOUT_HYDROGEN                                                
%FORMAT(10I8)                                                                   
       0      27      21      18       2       0      27     -21      18       3
      24       0       9       3       5      24       0      -9       3       6
      24       0      -9       3       7      27       0       9       3       8
       6      12      15      18       9       9       0      27      21      11
       9       0     -27      21      12       9       0     -27      21      13
      12      15      18      21       9      15      18      21      27       1
      24       0      27      21      14      24       0     -27      21      15
      27       0     -24      -9      21
%FLAG EXCLUDED_ATOMS_LIST                                                       
%FORMAT(10I8)                                                                   
       2       4       7       8       9      10      11      12      13      17
      18      25      26       4       9      10      11      12      13      17
      18       5       6       7      14      15      16      19      20      21
      22       8       9      10      11      12      13      17      18       6
       7       8      14      15      16      19      20      21      22      23
      24       7       8      10      14      15      16      19      20      21
      22      23      24      25      26       8      10      19      20      21
      22      23      24      25      26       9      10      21      22      23
      24      25      26      10      17      18      17      18      23      24
      25      26      12      13      17      18      13      17      18      17
      18      15      16      19      20      16      19      20      19      20
      18       0      20      21      22      21      22      22      23      24
      23      24      24      25      26      25      26      26       0
%FLAG HBOND_ACOEF                                                               
%FORMAT(5E16.8)                                                                 

%FLAG HBOND_BCOEF                                                               
%FORMAT(5E16.8)                                                                 

%FLAG HBCUT                                                                     
%FORMAT(5E16.8)                                                                 

%FLAG AMBER_ATOM_TYPE                                                           
%FORMAT(20a4)                                                                   
c   c3  c3  c3  c3  c3  c3  c3  o   os  hc  hc  hc  hc  hc  hc  hc  hc  hc  hc  
hc  hc  hc  hc  h1  h1  
%FLAG TREE_CHAIN_CLASSIFICATION                                                 
%FORMAT(20a4)                                                                   
BLA BLA BLA BLA BLA BLA BLA BLA BLA BLA BLA BLA BLA BLA BLA BLA BLA BLA BLA BLA 
BLA BLA BLA BLA BLA BLA 
%FLAG JOIN_ARRAY                                                                
%FORMAT(10I8)                                                                   
       0       0       0       0       0       0       0       0       0       0
       0       0       0       0       0       0       0       0       0       0
       0       0       0       0       0       0
%FLAG IROTAT                                                                    
%FORMAT(10I8)                                                                   
       0       0       0       0       0       0       0       0       0       0
       0       0       0       0       0       0       0       0       0       0
       0       0       0       0       0       0
%FLAG RADIUS_SET                                                                
%FORMAT(1a80)                                                                   
modified Bondi radii (mbondi)                                                   
%FLAG RADII                                                                     
%FORMAT(5E16.8)                                                                 
  1.70000000E+00  1.70000000E+00  1.70000000E+00  1.70000000E+00  1.70000000E+00
  1.70000000E+00  1.70000000E+00  1.70000000E+00  1.50000000E+00  1.50000000E+00
  1.30000000E+00  1.30000000E+00  1.30000000E+00  1.30000000E+00  1.30000000E+00
  1.30000000E+00  1.30000000E+00  1.30000000E+00  1.30000000E+00  1.30000000E+00
  1.30000000E+00  1.30000000E+00  1.30000000E+00  1.30000000E+00  1.30000000E+00
  1.30000000E+00
%FLAG SCREEN                                                                    
%FORMAT(5E16.8)                                                                 
  7.20000000E-01  7.20000000E-01  7.20000000E-01  7.20000000E-01  7.20000000E-01
  7.20000000E-01  7.20000000E-01  7.20000000E-01  8.50000000E-01  8.50000000E-01
  8.50000000E-01  8.50000000E-01  8.50000000E-01  8.50000000E-01  8.50000000E-01
  8.50000000E-01  8.50000000E-01  8.50000000E-01  8.50000000E-01  8.50000000E-01
  8.50000000E-01  8.50000000E-01  8.50000000E-01  8.50000000E-01  8.50000000E-01
  8.50000000E-01
%FLAG IPOL                                                                      
%FORMAT(1I8)                                                                    
       0
