mobley_2493732_GMX.gro created by acpype (v: 2023.10.27) on Wed May 20 23:56:35 2026
    6
    1MOL     C1    1   2.206   2.257   2.198
    1MOL     C2    2   2.167   2.131   2.174
    1MOL    CL1    3   2.203   2.005   2.286
    1MOL    CL2    4   2.081   2.091   2.031
    1MOL     H1    5   2.185   2.337   2.128
    1MOL     H2    6   2.261   2.283   2.288
   4.36812   4.36812   4.36812
