mobley_2493732_GMX.gro created by acpype (v: 2023.10.27) on Wed May 20 23:56:35 2026
 8190
    1MOL     C1    1   2.206   2.257   2.198
    1MOL     C2    2   2.167   2.131   2.174
    1MOL    CL1    3   2.203   2.005   2.286
    1MOL    CL2    4   2.081   2.091   2.031
    1MOL     H1    5   2.185   2.337   2.128
    1MOL     H2    6   2.261   2.283   2.288
    2SOL     OW    7   0.230   0.628   0.113
    2SOL    HW1    8   0.137   0.626   0.150
    2SOL    HW2    9   0.231   0.589   0.021
    3SOL     OW   10   0.225   0.275   0.996
    3SOL    HW1   11   0.260   0.258   1.088
    3SOL    HW2   12   0.137   0.230   0.984
    4SOL     OW   13   0.019   0.368   0.647
    4SOL    HW1   14  -0.063   0.411   0.686
    4SOL    HW2   15  -0.009   0.295   0.584
    5SOL     OW   16   0.569   1.275   1.165
    5SOL    HW1   17   0.476   1.268   1.128
    5SOL    HW2   18   0.580   1.364   1.209
    6SOL     OW   19   1.555   1.511   0.703
    6SOL    HW1   20   1.498   1.495   0.784
    6SOL    HW2   21   1.496   1.521   0.623
    7SOL     OW   22   1.135   0.703   0.717
    7SOL    HW1   23   1.192   0.781   0.692
    7SOL    HW2   24   1.075   0.729   0.793
    8SOL     OW   25   1.755   0.607   0.231
    8SOL    HW1   26   1.743   0.594   0.132
    8SOL    HW2   27   1.725   0.526   0.280
    9SOL     OW   28   0.768   1.144   1.023
    9SOL    HW1   29   0.690   1.161   1.083
    9SOL    HW2   30   0.802   1.231   0.987
   10SOL     OW   31   0.850   0.798   1.823
   10SOL    HW1   32   0.846   0.874   1.888
   10SOL    HW2   33   0.872   0.834   1.732
   11SOL     OW   34   0.685   1.012   0.665
   11SOL    HW1   35   0.754   0.996   0.735
   11SOL    HW2   36   0.612   1.069   0.703
   12SOL     OW   37   0.686   1.161   1.803
   12SOL    HW1   38   0.746   1.240   1.817
   12SOL    HW2   39   0.600   1.192   1.762
   13SOL     OW   40   0.335   1.435   1.061
   13SOL    HW1   41   0.257   1.404   1.008
   13SOL    HW2   42   0.393   1.493   1.004
   14SOL     OW   43   1.460   1.505   1.339
   14SOL    HW1   44   1.484   1.599   1.365
   14SOL    HW2   45   1.444   1.451   1.421
   15SOL     OW   46   0.438   0.392   1.499
   15SOL    HW1   47   0.520   0.336   1.508
   15SOL    HW2   48   0.357   0.334   1.503
   16SOL     OW   49   1.603   0.447   0.737
   16SOL    HW1   50   1.529   0.493   0.687
   16SOL    HW2   51   1.654   0.515   0.790
   17SOL     OW   52   0.231   1.713   0.483
   17SOL    HW1   53   0.265   1.790   0.537
   17SOL    HW2   54   0.275   1.713   0.393
   18SOL     OW   55   1.127   1.341   1.690
   18SOL    HW1   56   1.174   1.341   1.778
   18SOL    HW2   57   1.079   1.254   1.679
   19SOL     OW   58   0.230   1.434   0.538
   19SOL    HW1   59   0.204   1.530   0.538
   19SOL    HW2   60   0.159   1.380   0.583
   20SOL     OW   61   0.240   1.091   0.886
   20SOL    HW1   62   0.254   1.007   0.938
   20SOL    HW2   63   0.185   1.155   0.941
   21SOL     OW   64   0.620   1.786   1.439
   21SOL    HW1   65   0.528   1.769   1.474
   21SOL    HW2   66   0.648   1.878   1.465
   22SOL     OW   67   0.606   0.964   0.123
   22SOL    HW1   68   0.613   1.048   0.069
   22SOL    HW2   69   0.652   0.977   0.211
   23SOL     OW   70   1.594   0.114   1.480
   23SOL    HW1   71   1.576   0.181   1.408
   23SOL    HW2   72   1.591   0.160   1.569
   24SOL     OW   73   0.122   0.643   0.563
   24SOL    HW1   74   0.077   0.555   0.580
   24SOL    HW2   75   0.121   0.697   0.647
   25SOL     OW   76   1.842   1.767   0.359
   25SOL    HW1   77   1.896   1.738   0.439
   25SOL    HW2   78   1.872   1.857   0.330
   26SOL     OW   79   0.027   1.596   0.117
   26SOL    HW1   80   0.008   1.500   0.138
   26SOL    HW2   81  -0.006   1.654   0.192
   27SOL     OW   82   1.689   0.922   0.612
   27SOL    HW1   83   1.784   0.893   0.620
   27SOL    HW2   84   1.681   0.987   0.537
   28SOL     OW   85   1.641   1.108   0.432
   28SOL    HW1   86   1.727   1.110   0.380
   28SOL    HW2   87   1.655   1.155   0.520
   29SOL     OW   88   0.113   0.737   1.597
   29SOL    HW1   89   0.201   0.724   1.642
   29SOL    HW2   90   0.100   0.834   1.575
   30SOL     OW   91   0.613   1.365   0.726
   30SOL    HW1   92   0.564   1.278   0.735
   30SOL    HW2   93   0.590   1.408   0.639
   31SOL     OW   94   1.293   1.228   1.423
   31SOL    HW1   95   1.330   1.155   1.365
   31SOL    HW2   96   1.345   1.233   1.508
   32SOL     OW   97   0.809   0.004   0.502
   32SOL    HW1   98   0.849   0.095   0.493
   32SOL    HW2   99   0.709   0.012   0.508
   33SOL     OW  100   0.197   0.976   1.264
   33SOL    HW1  101   0.286   0.931   1.250
   33SOL    HW2  102   0.124   0.911   1.245
   34SOL     OW  103   1.525   0.999   0.190
   34SOL    HW1  104   1.462   0.923   0.203
   34SOL    HW2  105   1.573   1.017   0.276
   35SOL     OW  106   1.187   1.792   1.616
   35SOL    HW1  107   1.211   1.852   1.540
   35SOL    HW2  108   1.194   1.697   1.586
   36SOL     OW  109   0.317   0.251   1.801
   36SOL    HW1  110   0.388   0.322   1.807
   36SOL    HW2  111   0.229   0.290   1.829
   37SOL     OW  112   1.466   1.417   0.953
   37SOL    HW1  113   1.407   1.423   1.033
   37SOL    HW2  114   1.451   1.329   0.907
   38SOL     OW  115   1.667   1.714   0.572
   38SOL    HW1  116   1.626   1.691   0.484
   38SOL    HW2  117   1.649   1.640   0.637
   39SOL     OW  118   0.598   0.729   0.270
   39SOL    HW1  119   0.622   0.798   0.202
   39SOL    HW2  120   0.520   0.762   0.324
   40SOL     OW  121   1.281   0.345   0.944
   40SOL    HW1  122   1.195   0.295   0.931
   40SOL    HW2  123   1.343   0.291   1.000
   41SOL     OW  124   1.576   1.662   0.307
   41SOL    HW1  125   1.665   1.708   0.310
   41SOL    HW2  126   1.555   1.638   0.212
   42SOL     OW  127   0.807   0.605   1.465
   42SOL    HW1  128   0.760   0.602   1.554
   42SOL    HW2  129   0.756   0.550   1.399
   43SOL     OW  130   1.394   0.469   1.674
   43SOL    HW1  131   1.374   0.512   1.762
   43SOL    HW2  132   1.472   0.407   1.683
   44SOL     OW  133   0.973   0.890   1.572
   44SOL    HW1  134   1.019   0.806   1.543
   44SOL    HW2  135   0.917   0.924   1.497
   45SOL     OW  136   0.991   0.410   1.242
   45SOL    HW1  137   0.914   0.444   1.296
   45SOL    HW2  138   0.957   0.359   1.163
   46SOL     OW  139   1.041   0.701   0.429
   46SOL    HW1  140   1.067   0.697   0.525
   46SOL    HW2  141   0.956   0.650   0.415
   47SOL     OW  142   0.076   0.811   0.789
   47SOL    HW1  143   0.175   0.799   0.798
   47SOL    HW2  144   0.052   0.906   0.810
   48SOL     OW  145   0.130   1.821   1.571
   48SOL    HW1  146   0.120   1.806   1.670
   48SOL    HW2  147   0.044   1.857   1.535
   49SOL     OW  148   0.865   0.348   0.195
   49SOL    HW1  149   0.924   0.411   0.146
   49SOL    HW2  150   0.884   0.254   0.166
   50SOL     OW  151   1.719   0.585   1.831
   50SOL    HW1  152   1.693   0.674   1.795
   50SOL    HW2  153   1.717   0.517   1.758
   51SOL     OW  154   1.362   1.144   0.545
   51SOL    HW1  155   1.445   1.115   0.497
   51SOL    HW2  156   1.313   1.211   0.489
   52SOL     OW  157   0.550   0.196   0.885
   52SOL    HW1  158   0.545   0.191   0.985
   52SOL    HW2  159   0.552   0.292   0.856
   53SOL     OW  160   1.008   1.456   0.477
   53SOL    HW1  161   0.962   1.528   0.425
   53SOL    HW2  162   1.004   1.476   0.575
   54SOL     OW  163   0.351   1.801   0.853
   54SOL    HW1  164   0.401   1.715   0.859
   54SOL    HW2  165   0.416   1.878   0.850
   55SOL     OW  166   1.795   1.066   0.873
   55SOL    HW1  167   1.733   1.051   0.797
   55SOL    HW2  168   1.743   1.077   0.958
   56SOL     OW  169   1.227   1.550   1.506
   56SOL    HW1  170   1.233   1.473   1.570
   56SOL    HW2  171   1.175   1.524   1.426
   57SOL     OW  172   0.321   0.943   0.242
   57SOL    HW1  173   0.403   0.982   0.200
   57SOL    HW2  174   0.294   0.861   0.193
   58SOL     OW  175   1.458   0.735   0.728
   58SOL    HW1  176   1.453   0.670   0.803
   58SOL    HW2  177   1.538   0.794   0.741
   59SOL     OW  178   0.461   1.266   1.727
   59SOL    HW1  179   0.411   1.267   1.641
   59SOL    HW2  180   0.398   1.248   1.803
   60SOL     OW  181   1.111   1.776   0.237
   60SOL    HW1  182   1.051   1.714   0.287
   60SOL    HW2  183   1.142   1.732   0.152
   61SOL     OW  184   0.202   0.285   1.498
   61SOL    HW1  185   0.122   0.345   1.485
   61SOL    HW2  186   0.192   0.236   1.584
   62SOL     OW  187   1.632   1.377   0.081
   62SOL    HW1  188   1.600   1.471   0.071
   62SOL    HW2  189   1.556   1.314   0.069
   63SOL     OW  190   0.464   1.743   0.323
   63SOL    HW1  191   0.497   1.782   0.409
   63SOL    HW2  192   0.540   1.736   0.258
   64SOL     OW  193   1.400   0.107   0.426
   64SOL    HW1  194   1.376   0.070   0.336
   64SOL    HW2  195   1.499   0.123   0.430
   65SOL     OW  196   0.249   1.785   1.241
   65SOL    HW1  197   0.306   1.720   1.291
   65SOL    HW2  198   0.233   1.752   1.148
   66SOL     OW  199   0.940   1.698   0.904
   66SOL    HW1  200   1.020   1.641   0.925
   66SOL    HW2  201   0.891   1.658   0.827
   67SOL     OW  202   0.382   0.700   0.480
   67SOL    HW1  203   0.427   0.610   0.477
   67SOL    HW2  204   0.288   0.689   0.513
   68SOL     OW  205   1.547   0.222   1.729
   68SOL    HW1  206   1.542   0.259   1.821
   68SOL    HW2  207   1.475   0.153   1.717
   69SOL     OW  208   0.614   0.122   0.117
   69SOL    HW1  209   0.712   0.100   0.124
   69SOL    HW2  210   0.583   0.105   0.024
   70SOL     OW  211   0.781   0.264   1.749
   70SOL    HW1  212   0.848   0.203   1.792
   70SOL    HW2  213   0.708   0.283   1.814
   71SOL     OW  214   0.888   1.514   1.195
   71SOL    HW1  215   0.865   1.489   1.101
   71SOL    HW2  216   0.949   1.445   1.234
   72SOL     OW  217   1.351   0.590   1.433
   72SOL    HW1  218   1.379   0.547   1.518
   72SOL    HW2  219   1.376   0.686   1.434
   73SOL     OW  220   0.803   1.402   0.924
   73SOL    HW1  221   0.893   1.416   0.882
   73SOL    HW2  222   0.732   1.404   0.853
   74SOL     OW  223   0.922   0.503   0.899
   74SOL    HW1  224   0.897   0.494   0.803
   74SOL    HW2  225   0.970   0.421   0.930
   75SOL     OW  226   0.539   0.064   0.512
   75SOL    HW1  227   0.458   0.065   0.570
   75SOL    HW2  228   0.542   0.147   0.457
   76SOL     OW  229   1.434   1.188   0.041
   76SOL    HW1  230   1.466   1.112   0.098
   76SOL    HW2  231   1.342   1.215   0.071
   77SOL     OW  232   0.297   0.035   0.171
   77SOL    HW1  233   0.346   0.119   0.150
   77SOL    HW2  234   0.359  -0.030   0.216
   78SOL     OW  235   0.935   0.236   0.480
   78SOL    HW1  236   0.887   0.277   0.402
   78SOL    HW2  237   1.034   0.234   0.461
   79SOL     OW  238   1.076   0.683   1.464
   79SOL    HW1  239   0.996   0.622   1.467
   79SOL    HW2  240   1.157   0.630   1.440
   80SOL     OW  241   1.227   1.570   0.793
   80SOL    HW1  242   1.248   1.644   0.728
   80SOL    HW2  243   1.295   1.570   0.866
   81SOL     OW  244   0.459   1.152   0.741
   81SOL    HW1  245   0.388   1.125   0.806
   81SOL    HW2  246   0.433   1.124   0.648
   82SOL     OW  247   1.271   1.797   0.591
   82SOL    HW1  248   1.315   1.861   0.527
   82SOL    HW2  249   1.221   1.849   0.661
   83SOL     OW  250   1.032   0.549   0.016
   83SOL    HW1  251   0.991   0.631  -0.023
   83SOL    HW2  252   1.096   0.575   0.089
   84SOL     OW  253   0.078   0.556   1.386
   84SOL    HW1  254   0.170   0.555   1.345
   84SOL    HW2  255   0.072   0.630   1.453
   85SOL     OW  256   0.561   0.222   1.147
   85SOL    HW1  257   0.599   0.138   1.184
   85SOL    HW2  258   0.473   0.241   1.191
   86SOL     OW  259   0.866   0.454   0.642
   86SOL    HW1  260   0.834   0.526   0.580
   86SOL    HW2  261   0.890   0.373   0.589
   87SOL     OW  262   1.017   0.039   0.753
   87SOL    HW1  263   0.945   0.044   0.684
   87SOL    HW2  264   0.993  -0.030   0.822
   88SOL     OW  265   1.429   1.173   0.867
   88SOL    HW1  266   1.374   1.089   0.860
   88SOL    HW2  267   1.455   1.202   0.775
   89SOL     OW  268   1.466   0.590   0.992
   89SOL    HW1  269   1.436   0.495   0.999
   89SOL    HW2  270   1.539   0.606   1.058
   90SOL     OW  271   1.857   0.833   0.377
   90SOL    HW1  272   1.899   0.769   0.441
   90SOL    HW2  273   1.819   0.782   0.299
   91SOL     OW  274   0.488   1.385   0.174
   91SOL    HW1  275   0.401   1.370   0.221
   91SOL    HW2  276   0.471   1.411   0.079
   92SOL     OW  277   1.664   1.280   0.657
   92SOL    HW1  278   1.763   1.288   0.671
   92SOL    HW2  279   1.619   1.364   0.688
   93SOL     OW  280   1.390   0.575   0.078
   93SOL    HW1  281   1.336   0.554   0.159
   93SOL    HW2  282   1.481   0.534   0.087
   94SOL     OW  283   0.527   0.256   0.328
   94SOL    HW1  284   0.554   0.197   0.253
   94SOL    HW2  285   0.527   0.351   0.297
   95SOL     OW  286   1.754   1.223   1.588
   95SOL    HW1  287   1.845   1.184   1.575
   95SOL    HW2  288   1.762   1.319   1.612
   96SOL     OW  289   1.064   1.347   1.340
   96SOL    HW1  290   0.984   1.324   1.395
   96SOL    HW2  291   1.147   1.321   1.389
   97SOL     OW  292   1.592   1.629   1.625
   97SOL    HW1  293   1.619   1.663   1.535
   97SOL    HW2  294   1.671   1.591   1.671
   98SOL     OW  295   1.111   1.195   1.100
   98SOL    HW1  296   1.071   1.239   1.181
   98SOL    HW2  297   1.070   1.232   1.017
   99SOL     OW  298   1.638   1.099   1.079
   99SOL    HW1  299   1.643   1.180   1.138
   99SOL    HW2  300   1.552   1.101   1.028
  100SOL     OW  301   0.915   0.089   1.402
  100SOL    HW1  302   0.940   0.069   1.307
  100SOL    HW2  303   0.987   0.145   1.444
  101SOL     OW  304   0.980   1.116   1.719
  101SOL    HW1  305   0.881   1.122   1.729
  101SOL    HW2  306   1.003   1.036   1.663
  102SOL     OW  307   0.705   1.050   0.368
  102SOL    HW1  308   0.691   1.057   0.467
  102SOL    HW2  309   0.789   0.999   0.350
  103SOL     OW  310   0.410   0.813   1.251
  103SOL    HW1  311   0.496   0.825   1.301
  103SOL    HW2  312   0.368   0.726   1.278
  104SOL     OW  313   1.274   0.386   1.262
  104SOL    HW1  314   1.295   0.460   1.326
  104SOL    HW2  315   1.185   0.403   1.219
  105SOL     OW  316   0.064   1.564   1.331
  105SOL    HW1  317   0.018   1.646   1.297
  105SOL    HW2  318   0.162   1.583   1.340
  106SOL     OW  319   0.367   1.100   0.501
  106SOL    HW1  320   0.360   1.183   0.445
  106SOL    HW2  321   0.371   1.020   0.441
  107SOL     OW  322   0.566   0.537   0.865
  107SOL    HW1  323   0.578   0.603   0.791
  107SOL    HW2  324   0.612   0.571   0.948
  108SOL     OW  325   1.252   1.348   0.388
  108SOL    HW1  326   1.302   1.425   0.428
  108SOL    HW2  327   1.157   1.350   0.420
  109SOL     OW  328   1.272   1.445   1.142
  109SOL    HW1  329   1.319   1.458   1.229
  109SOL    HW2  330   1.206   1.371   1.151
  110SOL     OW  331   1.582   0.639   0.472
  110SOL    HW1  332   1.551   0.700   0.545
  110SOL    HW2  333   1.632   0.691   0.403
  111SOL     OW  334   0.354   1.510   1.329
  111SOL    HW1  335   0.333   1.466   1.242
  111SOL    HW2  336   0.451   1.536   1.332
  112SOL     OW  337   0.402   0.751   1.598
  112SOL    HW1  338   0.470   0.806   1.551
  112SOL    HW2  339   0.442   0.663   1.625
  113SOL     OW  340   1.587   0.779   1.670
  113SOL    HW1  341   1.495   0.817   1.665
  113SOL    HW2  342   1.647   0.826   1.605
  114SOL     OW  343   1.013   0.105   1.770
  114SOL    HW1  344   1.019   0.190   1.718
  114SOL    HW2  345   1.045   0.029   1.713
  115SOL     OW  346   0.504   0.050   1.740
  115SOL    HW1  347   0.462  -0.007   1.670
  115SOL    HW2  348   0.438   0.119   1.772
  116SOL     OW  349   0.573   0.870   1.029
  116SOL    HW1  350   0.617   0.959   1.020
  116SOL    HW2  351   0.510   0.870   1.106
  117SOL     OW  352   1.360   0.862   1.045
  117SOL    HW1  353   1.285   0.862   0.979
  117SOL    HW2  354   1.397   0.770   1.054
  118SOL     OW  355   1.209   0.525   0.275
  118SOL    HW1  356   1.222   0.441   0.329
  118SOL    HW2  357   1.180   0.599   0.335
  119SOL     OW  358   0.307   0.213   1.231
  119SOL    HW1  359   0.284   0.250   1.321
  119SOL    HW2  360   0.277   0.118   1.225
  120SOL     OW  361   0.037   1.310   1.282
  120SOL    HW1  362   0.090   1.261   1.350
  120SOL    HW2  363   0.059   1.408   1.287
  121SOL     OW  364   0.732   0.634   1.064
  121SOL    HW1  365   0.791   0.608   0.988
  121SOL    HW2  366   0.704   0.730   1.053
  122SOL     OW  367   1.728   0.935   1.854
  122SOL    HW1  368   1.682   0.928   1.765
  122SOL    HW2  369   1.666   0.979   1.920
  123SOL     OW  370   0.307   0.063   0.618
  123SOL    HW1  371   0.296   0.157   0.651
  123SOL    HW2  372   0.302   0.000   0.695
  124SOL     OW  373   1.622   0.367   0.374
  124SOL    HW1  374   1.624   0.291   0.438
  124SOL    HW2  375   1.574   0.444   0.414
  125SOL     OW  376   1.023   0.766   0.966
  125SOL    HW1  377   1.038   0.787   1.062
  125SOL    HW2  378   0.993   0.671   0.957
  126SOL     OW  379   0.980   1.573   1.700
  126SOL    HW1  380   0.960   1.617   1.612
  126SOL    HW2  381   1.019   1.482   1.684
  127SOL     OW  382   1.859   1.518   1.605
  127SOL    HW1  383   1.873   1.545   1.510
  127SOL    HW2  384   1.942   1.540   1.658
  128SOL     OW  385   0.350   0.898   1.804
  128SOL    HW1  386   0.426   0.942   1.852
  128SOL    HW2  387   0.385   0.851   1.722
  129SOL     OW  388   1.540   0.274   0.125
  129SOL    HW1  389   1.479   0.199   0.148
  129SOL    HW2  390   1.562   0.326   0.208
  130SOL     OW  391   1.303   0.838   0.042
  130SOL    HW1  392   1.337   0.745   0.057
  130SOL    HW2  393   1.321   0.865  -0.053
  131SOL     OW  394   1.068   1.333   0.849
  131SOL    HW1  395   1.075   1.249   0.794
  131SOL    HW2  396   1.130   1.402   0.813
  132SOL     OW  397   0.319   0.810   0.949
  132SOL    HW1  398   0.412   0.846   0.954
  132SOL    HW2  399   0.313   0.725   1.001
  133SOL     OW  400   0.339   0.509   1.006
  133SOL    HW1  401   0.287   0.426   0.989
  133SOL    HW2  402   0.416   0.514   0.942
  134SOL     OW  403   1.138   0.380   1.678
  134SOL    HW1  404   1.093   0.443   1.742
  134SOL    HW2  405   1.231   0.411   1.661
  135SOL     OW  406   1.160   0.207   1.477
  135SOL    HW1  407   1.160   0.271   1.554
  135SOL    HW2  408   1.188   0.255   1.394
  136SOL     OW  409   0.008   1.326   0.200
  136SOL    HW1  410  -0.085   1.347   0.169
  136SOL    HW2  411   0.018   1.227   0.213
  137SOL     OW  412   0.088   1.801   0.927
  137SOL    HW1  413   0.046   1.715   0.900
  137SOL    HW2  414   0.182   1.804   0.893
  138SOL     OW  415   0.504   1.568   0.910
  138SOL    HW1  416   0.570   1.642   0.919
  138SOL    HW2  417   0.548   1.489   0.868
  139SOL     OW  418   1.002   0.796   1.238
  139SOL    HW1  419   1.043   0.764   1.324
  139SOL    HW2  420   0.906   0.769   1.235
  140SOL     OW  421   0.040   0.544   1.114
  140SOL    HW1  422   0.125   0.511   1.073
  140SOL    HW2  423   0.053   0.559   1.212
  141SOL     OW  424   0.189   0.520   1.722
  141SOL    HW1  425   0.248   0.480   1.652
  141SOL    HW2  426   0.131   0.591   1.681
  142SOL     OW  427   1.369   0.950   1.660
  142SOL    HW1  428   1.408   1.039   1.680
  142SOL    HW2  429   1.379   0.930   1.563
  143SOL     OW  430   0.815   0.572   0.325
  143SOL    HW1  431   0.822   0.483   0.279
  143SOL    HW2  432   0.721   0.606   0.317
  144SOL     OW  433   1.657   0.604   1.206
  144SOL    HW1  434   1.619   0.535   1.268
  144SOL    HW2  435   1.739   0.568   1.162
  145SOL     OW  436   0.252   1.564   1.744
  145SOL    HW1  437   0.222   1.621   1.820
  145SOL    HW2  438   0.245   1.467   1.770
  146SOL     OW  439   0.671   0.464   1.269
  146SOL    HW1  440   0.637   0.375   1.239
  146SOL    HW2  441   0.697   0.518   1.189
  147SOL     OW  442   0.930   1.678   1.465
  147SOL    HW1  443   0.906   1.660   1.370
  147SOL    HW2  444   0.960   1.772   1.475
  148SOL     OW  445   0.473   0.500   0.191
  148SOL    HW1  446   0.534   0.580   0.195
  148SOL    HW2  447   0.378   0.531   0.198
  149SOL     OW  448   0.159   1.137   1.466
  149SOL    HW1  449   0.181   1.076   1.542
  149SOL    HW2  450   0.169   1.088   1.380
  150SOL     OW  451   1.347   1.059   1.234
  150SOL    HW1  452   1.371   0.996   1.160
  150SOL    HW2  453   1.257   1.099   1.216
  151SOL     OW  454   1.302   0.855   0.309
  151SOL    HW1  455   1.216   0.824   0.351
  151SOL    HW2  456   1.298   0.841   0.210
  152SOL     OW  457   1.759   1.747   1.154
  152SOL    HW1  458   1.820   1.777   1.081
  152SOL    HW2  459   1.721   1.658   1.132
  153SOL     OW  460   1.252   1.731   1.128
  153SOL    HW1  461   1.336   1.736   1.074
  153SOL    HW2  462   1.229   1.635   1.146
  154SOL     OW  463   0.083   1.258   1.022
  154SOL    HW1  464   0.078   1.257   1.122
  154SOL    HW2  465   0.000   1.217   0.984
  155SOL     OW  466   0.688   1.662   1.716
  155SOL    HW1  467   0.632   1.743   1.725
  155SOL    HW2  468   0.740   1.666   1.630
  156SOL     OW  469   0.903   0.086   0.133
  156SOL    HW1  470   0.954   0.087   0.047
  156SOL    HW2  471   0.959   0.044   0.204
  157SOL     OW  472   1.726   0.135   0.523
  157SOL    HW1  473   1.799   0.118   0.456
  157SOL    HW2  474   1.695   0.048   0.561
  158SOL     OW  475   1.388   1.573   0.477
  158SOL    HW1  476   1.455   1.585   0.403
  158SOL    HW2  477   1.348   1.662   0.500
  159SOL     OW  478   0.130   1.794   1.851
  159SOL    HW1  479   0.089   1.720   1.904
  159SOL    HW2  480   0.194   1.845   1.909
  160SOL     OW  481   1.280   0.927   0.672
  160SOL    HW1  482   1.340   0.846   0.674
  160SOL    HW2  483   1.320   0.996   0.612
  161SOL     OW  484   0.830   1.273   1.422
  161SOL    HW1  485   0.825   1.306   1.517
  161SOL    HW2  486   0.744   1.292   1.376
  162SOL     OW  487   0.672   1.616   0.154
  162SOL    HW1  488   0.681   1.626   0.055
  162SOL    HW2  489   0.632   1.527   0.175
  163SOL     OW  490   1.650   1.720   1.394
  163SOL    HW1  491   1.703   1.730   1.310
  163SOL    HW2  492   1.623   1.810   1.428
  164SOL     OW  493   1.841   0.175   0.963
  164SOL    HW1  494   1.880   0.090   0.927
  164SOL    HW2  495   1.743   0.177   0.944
  165SOL     OW  496   0.263   0.326   0.720
  165SOL    HW1  497   0.184   0.377   0.686
  165SOL    HW2  498   0.254   0.311   0.818
  166SOL     OW  499   1.194   1.612   0.031
  166SOL    HW1  500   1.200   1.519   0.068
  166SOL    HW2  501   1.135   1.612  -0.049
  167SOL     OW  502   0.822   1.002   1.372
  167SOL    HW1  503   0.862   1.001   1.280
  167SOL    HW2  504   0.832   1.094   1.412
  168SOL     OW  505   0.916   0.910   0.291
  168SOL    HW1  506   0.979   0.948   0.223
  168SOL    HW2  507   0.956   0.827   0.330
  169SOL     OW  508   1.504   1.607   0.044
  169SOL    HW1  509   1.412   1.644   0.051
  169SOL    HW2  510   1.542   1.627  -0.046
  170SOL     OW  511   0.372   1.288   1.490
  170SOL    HW1  512   0.359   1.381   1.456
  170SOL    HW2  513   0.288   1.236   1.477
  171SOL     OW  514   1.614   1.292   1.289
  171SOL    HW1  515   1.674   1.295   1.369
  171SOL    HW2  516   1.539   1.356   1.302
  172SOL     OW  517   1.039   1.098   0.696
  172SOL    HW1  518   0.969   1.051   0.750
  172SOL    HW2  519   1.098   1.030   0.653
  173SOL     OW  520   1.014   0.236   0.971
  173SOL    HW1  521   1.006   0.200   0.878
  173SOL    HW2  522   1.012   0.160   1.036
  174SOL     OW  523   0.590   1.487   0.491
  174SOL    HW1  524   0.632   1.429   0.421
  174SOL    HW2  525   0.546   1.566   0.447
  175SOL     OW  526   1.709   0.385   1.381
  175SOL    HW1  527   1.782   0.454   1.385
  175SOL    HW2  528   1.737   0.310   1.322
  176SOL     OW  529   0.255   1.348   0.290
  176SOL    HW1  530   0.159   1.349   0.263
  176SOL    HW2  531   0.267   1.401   0.374
  177SOL     OW  532   0.105   1.013   1.726
  177SOL    HW1  533   0.028   0.980   1.780
  177SOL    HW2  534   0.190   0.983   1.768
  178SOL     OW  535   0.672   0.203   1.489
  178SOL    HW1  536   0.762   0.187   1.449
  178SOL    HW2  537   0.680   0.208   1.588
  179SOL     OW  538   0.075   0.345   0.033
  179SOL    HW1  539  -0.017   0.317   0.004
  179SOL    HW2  540   0.106   0.422  -0.023
  180SOL     OW  541   1.440   0.856   1.398
  180SOL    HW1  542   1.383   0.908   1.335
  180SOL    HW2  543   1.536   0.868   1.374
  181SOL     OW  544   0.072   0.166   0.318
  181SOL    HW1  545   0.055   0.249   0.264
  181SOL    HW2  546   0.162   0.129   0.296
  182SOL     OW  547   1.183   1.335   0.119
  182SOL    HW1  548   1.084   1.324   0.121
  182SOL    HW2  549   1.217   1.350   0.212
  183SOL     OW  550   0.613   0.842   1.431
  183SOL    HW1  551   0.669   0.923   1.414
  183SOL    HW2  552   0.672   0.762   1.434
  184SOL     OW  553   1.493   1.767   0.959
  184SOL    HW1  554   1.526   1.831   0.890
  184SOL    HW2  555   1.559   1.761   1.034
  185SOL     OW  556   0.716   0.565   1.708
  185SOL    HW1  557   0.735   0.630   1.782
  185SOL    HW2  558   0.776   0.485   1.717
  186SOL     OW  559   1.450   1.220   1.633
  186SOL    HW1  560   1.441   1.210   1.732
  186SOL    HW2  561   1.546   1.213   1.607
  187SOL     OW  562   0.390   1.741   1.560
  187SOL    HW1  563   0.299   1.782   1.558
  187SOL    HW2  564   0.383   1.647   1.592
  188SOL     OW  565   1.674   0.883   1.254
  188SOL    HW1  566   1.647   0.794   1.217
  188SOL    HW2  567   1.675   0.951   1.181
  189SOL     OW  568   1.225   0.325   0.449
  189SOL    HW1  569   1.290   0.251   0.438
  189SOL    HW2  570   1.245   0.375   0.533
  190SOL     OW  571   0.594   0.745   0.652
  190SOL    HW1  572   0.644   0.830   0.633
  190SOL    HW2  573   0.506   0.747   0.604
  191SOL     OW  574   1.777   0.342   1.642
  191SOL    HW1  575   1.760   0.373   1.548
  191SOL    HW2  576   1.693   0.305   1.680
  192SOL     OW  577   1.730   0.934   1.517
  192SOL    HW1  578   1.768   1.025   1.532
  192SOL    HW2  579   1.722   0.917   1.418
  193SOL     OW  580   0.859   1.374   0.016
  193SOL    HW1  581   0.813   1.389   0.104
  193SOL    HW2  582   0.903   1.459  -0.014
  194SOL     OW  583   0.661   1.790   0.953
  194SOL    HW1  584   0.615   1.878   0.940
  194SOL    HW2  585   0.760   1.802   0.946
  195SOL     OW  586   0.859   0.956   0.861
  195SOL    HW1  587   0.913   0.887   0.909
  195SOL    HW2  588   0.827   1.025   0.927
  196SOL     OW  589   1.083   0.984   0.087
  196SOL    HW1  590   1.060   1.037   0.005
  196SOL    HW2  591   1.164   0.928   0.068
  197SOL     OW  592   1.861   1.569   0.851
  197SOL    HW1  593   1.790   1.557   0.781
  197SOL    HW2  594   1.862   1.490   0.911
  198SOL     OW  595   0.221   1.314   1.844
  198SOL    HW1  596   0.156   1.241   1.823
  198SOL    HW2  597   0.225   1.328   1.942
  199SOL     OW  598   0.079   1.240   0.653
  199SOL    HW1  599   0.078   1.193   0.741
  199SOL    HW2  600   0.161   1.212   0.602
  200SOL     OW  601   0.672   1.391   1.624
  200SOL    HW1  602   0.594   1.341   1.662
  200SOL    HW2  603   0.669   1.486   1.655
  201SOL     OW  604   1.824   0.192   1.227
  201SOL    HW1  605   1.820   0.102   1.271
  201SOL    HW2  606   1.827   0.181   1.128
  202SOL     OW  607   0.428   0.424   0.520
  202SOL    HW1  608   0.458   0.352   0.458
  202SOL    HW2  609   0.389   0.384   0.603
  203SOL     OW  610   1.705   1.487   1.104
  203SOL    HW1  611   1.612   1.462   1.077
  203SOL    HW2  612   1.731   1.437   1.186
  204SOL     OW  613   0.317   0.547   1.280
  204SOL    HW1  614   0.355   0.488   1.352
  204SOL    HW2  615   0.357   0.521   1.192
  205SOL     OW  616   0.812   1.586   0.687
  205SOL    HW1  617   0.844   1.596   0.593
  205SOL    HW2  618   0.733   1.524   0.689
  206SOL     OW  619   1.424   0.214   1.112
  206SOL    HW1  620   1.476   0.149   1.167
  206SOL    HW2  621   1.375   0.277   1.173
  207SOL     OW  622   1.001   0.034   1.154
  207SOL    HW1  623   0.938  -0.038   1.123
  207SOL    HW2  624   1.094  -0.002   1.154
  208SOL     OW  625   0.770   1.330   0.301
  208SOL    HW1  626   0.724   1.243   0.318
  208SOL    HW2  627   0.861   1.327   0.342
  209SOL     OW  628   0.618   1.567   1.284
  209SOL    HW1  629   0.613   1.649   1.341
  209SOL    HW2  630   0.707   1.564   1.239
  210SOL     OW  631   1.352   0.052   0.168
  210SOL    HW1  632   1.387   0.011   0.084
  210SOL    HW2  633   1.262   0.014   0.188
  211SOL     OW  634   1.300   0.453   0.691
  211SOL    HW1  635   1.241   0.533   0.695
  211SOL    HW2  636   1.315   0.418   0.784
  212SOL     OW  637   1.593   0.221   0.882
  212SOL    HW1  638   1.509   0.220   0.936
  212SOL    HW2  639   1.595   0.304   0.826
  213SOL     OW  640   0.039   1.077   0.300
  213SOL    HW1  641   0.138   1.066   0.291
  213SOL    HW2  642  -0.001   0.991   0.332
  214SOL     OW  643   0.875   1.646   0.337
  214SOL    HW1  644   0.798   1.611   0.283
  214SOL    HW2  645   0.843   1.717   0.399
  215SOL     OW  646   0.230   0.628   1.975
  215SOL    HW1  647   0.137   0.626   2.012
  215SOL    HW2  648   0.231   0.589   1.883
  216SOL     OW  649   0.225   0.275   2.858
  216SOL    HW1  650   0.260   0.258   2.950
  216SOL    HW2  651   0.137   0.230   2.846
  217SOL     OW  652   0.019   0.368   2.509
  217SOL    HW1  653  -0.063   0.411   2.548
  217SOL    HW2  654  -0.009   0.295   2.446
  218SOL     OW  655   0.569   1.275   3.027
  218SOL    HW1  656   0.476   1.268   2.990
  218SOL    HW2  657   0.580   1.364   3.071
  219SOL     OW  658   1.555   1.511   2.565
  219SOL    HW1  659   1.498   1.495   2.646
  219SOL    HW2  660   1.496   1.521   2.485
  220SOL     OW  661   1.135   0.703   2.579
  220SOL    HW1  662   1.192   0.781   2.554
  220SOL    HW2  663   1.075   0.729   2.655
  221SOL     OW  664   1.755   0.607   2.093
  221SOL    HW1  665   1.743   0.594   1.994
  221SOL    HW2  666   1.725   0.526   2.142
  222SOL     OW  667   0.768   1.144   2.885
  222SOL    HW1  668   0.690   1.161   2.945
  222SOL    HW2  669   0.802   1.231   2.849
  223SOL     OW  670   0.850   0.798   3.685
  223SOL    HW1  671   0.846   0.874   3.750
  223SOL    HW2  672   0.872   0.834   3.594
  224SOL     OW  673   0.685   1.012   2.527
  224SOL    HW1  674   0.754   0.996   2.597
  224SOL    HW2  675   0.612   1.069   2.565
  225SOL     OW  676   0.686   1.161   3.665
  225SOL    HW1  677   0.746   1.240   3.679
  225SOL    HW2  678   0.600   1.192   3.624
  226SOL     OW  679   0.335   1.435   2.923
  226SOL    HW1  680   0.257   1.404   2.870
  226SOL    HW2  681   0.393   1.493   2.866
  227SOL     OW  682   1.460   1.505   3.201
  227SOL    HW1  683   1.484   1.599   3.227
  227SOL    HW2  684   1.444   1.451   3.283
  228SOL     OW  685   0.438   0.392   3.361
  228SOL    HW1  686   0.520   0.336   3.370
  228SOL    HW2  687   0.357   0.334   3.365
  229SOL     OW  688   1.603   0.447   2.599
  229SOL    HW1  689   1.529   0.493   2.549
  229SOL    HW2  690   1.654   0.515   2.652
  230SOL     OW  691   0.231   1.713   2.345
  230SOL    HW1  692   0.265   1.790   2.399
  230SOL    HW2  693   0.275   1.713   2.255
  231SOL     OW  694   1.127   1.341   3.552
  231SOL    HW1  695   1.174   1.341   3.640
  231SOL    HW2  696   1.079   1.254   3.541
  232SOL     OW  697   0.230   1.434   2.400
  232SOL    HW1  698   0.204   1.530   2.400
  232SOL    HW2  699   0.159   1.380   2.445
  233SOL     OW  700   0.240   1.091   2.748
  233SOL    HW1  701   0.254   1.007   2.800
  233SOL    HW2  702   0.185   1.155   2.803
  234SOL     OW  703   0.620   1.786   3.301
  234SOL    HW1  704   0.528   1.769   3.336
  234SOL    HW2  705   0.648   1.878   3.327
  235SOL     OW  706   0.606   0.964   1.985
  235SOL    HW1  707   0.613   1.048   1.931
  235SOL    HW2  708   0.652   0.977   2.073
  236SOL     OW  709   1.594   0.114   3.342
  236SOL    HW1  710   1.576   0.181   3.270
  236SOL    HW2  711   1.591   0.160   3.431
  237SOL     OW  712   0.122   0.643   2.425
  237SOL    HW1  713   0.077   0.555   2.442
  237SOL    HW2  714   0.121   0.697   2.509
  238SOL     OW  715   1.842   1.767   2.221
  238SOL    HW1  716   1.896   1.738   2.301
  238SOL    HW2  717   1.872   1.857   2.192
  239SOL     OW  718   0.027   1.596   1.979
  239SOL    HW1  719   0.008   1.500   2.000
  239SOL    HW2  720  -0.006   1.654   2.054
  240SOL     OW  721   1.689   0.922   2.474
  240SOL    HW1  722   1.784   0.893   2.482
  240SOL    HW2  723   1.681   0.987   2.399
  241SOL     OW  724   1.641   1.108   2.294
  241SOL    HW1  725   1.727   1.110   2.242
  241SOL    HW2  726   1.655   1.155   2.382
  242SOL     OW  727   0.113   0.737   3.459
  242SOL    HW1  728   0.201   0.724   3.504
  242SOL    HW2  729   0.100   0.834   3.437
  243SOL     OW  730   0.613   1.365   2.588
  243SOL    HW1  731   0.564   1.278   2.597
  243SOL    HW2  732   0.590   1.408   2.501
  244SOL     OW  733   1.293   1.228   3.285
  244SOL    HW1  734   1.330   1.155   3.227
  244SOL    HW2  735   1.345   1.233   3.370
  245SOL     OW  736   0.809   0.004   2.364
  245SOL    HW1  737   0.849   0.095   2.355
  245SOL    HW2  738   0.709   0.012   2.370
  246SOL     OW  739   0.197   0.976   3.126
  246SOL    HW1  740   0.286   0.931   3.112
  246SOL    HW2  741   0.124   0.911   3.107
  247SOL     OW  742   1.525   0.999   2.052
  247SOL    HW1  743   1.462   0.923   2.065
  247SOL    HW2  744   1.573   1.017   2.138
  248SOL     OW  745   1.187   1.792   3.478
  248SOL    HW1  746   1.211   1.852   3.402
  248SOL    HW2  747   1.194   1.697   3.448
  249SOL     OW  748   0.317   0.251   3.663
  249SOL    HW1  749   0.388   0.322   3.669
  249SOL    HW2  750   0.229   0.290   3.691
  250SOL     OW  751   1.466   1.417   2.815
  250SOL    HW1  752   1.407   1.423   2.895
  250SOL    HW2  753   1.451   1.329   2.769
  251SOL     OW  754   1.667   1.714   2.434
  251SOL    HW1  755   1.626   1.691   2.346
  251SOL    HW2  756   1.649   1.640   2.499
  252SOL     OW  757   0.598   0.729   2.132
  252SOL    HW1  758   0.622   0.798   2.064
  252SOL    HW2  759   0.520   0.762   2.186
  253SOL     OW  760   1.281   0.345   2.806
  253SOL    HW1  761   1.195   0.295   2.793
  253SOL    HW2  762   1.343   0.291   2.862
  254SOL     OW  763   1.576   1.662   2.169
  254SOL    HW1  764   1.665   1.708   2.172
  254SOL    HW2  765   1.555   1.638   2.074
  255SOL     OW  766   0.807   0.605   3.327
  255SOL    HW1  767   0.760   0.602   3.416
  255SOL    HW2  768   0.756   0.550   3.261
  256SOL     OW  769   1.394   0.469   3.536
  256SOL    HW1  770   1.374   0.512   3.624
  256SOL    HW2  771   1.472   0.407   3.545
  257SOL     OW  772   0.973   0.890   3.434
  257SOL    HW1  773   1.019   0.806   3.405
  257SOL    HW2  774   0.917   0.924   3.359
  258SOL     OW  775   0.991   0.410   3.104
  258SOL    HW1  776   0.914   0.444   3.158
  258SOL    HW2  777   0.957   0.359   3.025
  259SOL     OW  778   1.041   0.701   2.291
  259SOL    HW1  779   1.067   0.697   2.387
  259SOL    HW2  780   0.956   0.650   2.277
  260SOL     OW  781   0.076   0.811   2.651
  260SOL    HW1  782   0.175   0.799   2.660
  260SOL    HW2  783   0.052   0.906   2.672
  261SOL     OW  784   0.130   1.821   3.433
  261SOL    HW1  785   0.120   1.806   3.532
  261SOL    HW2  786   0.044   1.857   3.397
  262SOL     OW  787   0.865   0.348   2.057
  262SOL    HW1  788   0.924   0.411   2.008
  262SOL    HW2  789   0.884   0.254   2.028
  263SOL     OW  790   1.719   0.585   3.693
  263SOL    HW1  791   1.693   0.674   3.657
  263SOL    HW2  792   1.717   0.517   3.620
  264SOL     OW  793   1.362   1.144   2.407
  264SOL    HW1  794   1.445   1.115   2.359
  264SOL    HW2  795   1.313   1.211   2.351
  265SOL     OW  796   0.550   0.196   2.747
  265SOL    HW1  797   0.545   0.191   2.847
  265SOL    HW2  798   0.552   0.292   2.718
  266SOL     OW  799   1.008   1.456   2.339
  266SOL    HW1  800   0.962   1.528   2.287
  266SOL    HW2  801   1.004   1.476   2.437
  267SOL     OW  802   0.351   1.801   2.715
  267SOL    HW1  803   0.401   1.715   2.721
  267SOL    HW2  804   0.416   1.878   2.712
  268SOL     OW  805   1.795   1.066   2.735
  268SOL    HW1  806   1.733   1.051   2.659
  268SOL    HW2  807   1.743   1.077   2.820
  269SOL     OW  808   1.227   1.550   3.368
  269SOL    HW1  809   1.233   1.473   3.432
  269SOL    HW2  810   1.175   1.524   3.288
  270SOL     OW  811   0.321   0.943   2.104
  270SOL    HW1  812   0.403   0.982   2.062
  270SOL    HW2  813   0.294   0.861   2.055
  271SOL     OW  814   1.458   0.735   2.590
  271SOL    HW1  815   1.453   0.670   2.665
  271SOL    HW2  816   1.538   0.794   2.603
  272SOL     OW  817   0.461   1.266   3.589
  272SOL    HW1  818   0.411   1.267   3.503
  272SOL    HW2  819   0.398   1.248   3.665
  273SOL     OW  820   1.111   1.776   2.099
  273SOL    HW1  821   1.051   1.714   2.149
  273SOL    HW2  822   1.142   1.732   2.014
  274SOL     OW  823   0.202   0.285   3.360
  274SOL    HW1  824   0.122   0.345   3.347
  274SOL    HW2  825   0.192   0.236   3.446
  275SOL     OW  826   1.632   1.377   1.943
  275SOL    HW1  827   1.600   1.471   1.933
  275SOL    HW2  828   1.556   1.314   1.931
  276SOL     OW  829   0.464   1.743   2.185
  276SOL    HW1  830   0.497   1.782   2.271
  276SOL    HW2  831   0.540   1.736   2.120
  277SOL     OW  832   1.400   0.107   2.288
  277SOL    HW1  833   1.376   0.070   2.198
  277SOL    HW2  834   1.499   0.123   2.292
  278SOL     OW  835   0.249   1.785   3.103
  278SOL    HW1  836   0.306   1.720   3.153
  278SOL    HW2  837   0.233   1.752   3.010
  279SOL     OW  838   0.940   1.698   2.766
  279SOL    HW1  839   1.020   1.641   2.787
  279SOL    HW2  840   0.891   1.658   2.689
  280SOL     OW  841   0.382   0.700   2.342
  280SOL    HW1  842   0.427   0.610   2.339
  280SOL    HW2  843   0.288   0.689   2.375
  281SOL     OW  844   1.547   0.222   3.591
  281SOL    HW1  845   1.542   0.259   3.683
  281SOL    HW2  846   1.475   0.153   3.579
  282SOL     OW  847   0.614   0.122   1.979
  282SOL    HW1  848   0.712   0.100   1.986
  282SOL    HW2  849   0.583   0.105   1.886
  283SOL     OW  850   0.781   0.264   3.611
  283SOL    HW1  851   0.848   0.203   3.654
  283SOL    HW2  852   0.708   0.283   3.676
  284SOL     OW  853   0.888   1.514   3.057
  284SOL    HW1  854   0.865   1.489   2.963
  284SOL    HW2  855   0.949   1.445   3.096
  285SOL     OW  856   1.351   0.590   3.295
  285SOL    HW1  857   1.379   0.547   3.380
  285SOL    HW2  858   1.376   0.686   3.296
  286SOL     OW  859   0.803   1.402   2.786
  286SOL    HW1  860   0.893   1.416   2.744
  286SOL    HW2  861   0.732   1.404   2.715
  287SOL     OW  862   0.922   0.503   2.761
  287SOL    HW1  863   0.897   0.494   2.665
  287SOL    HW2  864   0.970   0.421   2.792
  288SOL     OW  865   0.539   0.064   2.374
  288SOL    HW1  866   0.458   0.065   2.432
  288SOL    HW2  867   0.542   0.147   2.319
  289SOL     OW  868   1.434   1.188   1.903
  289SOL    HW1  869   1.466   1.112   1.960
  289SOL    HW2  870   1.342   1.215   1.933
  290SOL     OW  871   0.297   0.035   2.033
  290SOL    HW1  872   0.346   0.119   2.012
  290SOL    HW2  873   0.359  -0.030   2.078
  291SOL     OW  874   0.935   0.236   2.342
  291SOL    HW1  875   0.887   0.277   2.264
  291SOL    HW2  876   1.034   0.234   2.323
  292SOL     OW  877   1.076   0.683   3.326
  292SOL    HW1  878   0.996   0.622   3.329
  292SOL    HW2  879   1.157   0.630   3.302
  293SOL     OW  880   1.227   1.570   2.655
  293SOL    HW1  881   1.248   1.644   2.590
  293SOL    HW2  882   1.295   1.570   2.728
  294SOL     OW  883   0.459   1.152   2.603
  294SOL    HW1  884   0.388   1.125   2.668
  294SOL    HW2  885   0.433   1.124   2.510
  295SOL     OW  886   1.271   1.797   2.453
  295SOL    HW1  887   1.315   1.861   2.389
  295SOL    HW2  888   1.221   1.849   2.523
  296SOL     OW  889   1.032   0.549   1.878
  296SOL    HW1  890   0.991   0.631   1.839
  296SOL    HW2  891   1.096   0.575   1.951
  297SOL     OW  892   0.078   0.556   3.248
  297SOL    HW1  893   0.170   0.555   3.207
  297SOL    HW2  894   0.072   0.630   3.315
  298SOL     OW  895   0.561   0.222   3.009
  298SOL    HW1  896   0.599   0.138   3.046
  298SOL    HW2  897   0.473   0.241   3.053
  299SOL     OW  898   0.866   0.454   2.504
  299SOL    HW1  899   0.834   0.526   2.442
  299SOL    HW2  900   0.890   0.373   2.451
  300SOL     OW  901   1.017   0.039   2.615
  300SOL    HW1  902   0.945   0.044   2.546
  300SOL    HW2  903   0.993  -0.030   2.684
  301SOL     OW  904   1.429   1.173   2.729
  301SOL    HW1  905   1.374   1.089   2.722
  301SOL    HW2  906   1.455   1.202   2.637
  302SOL     OW  907   1.466   0.590   2.854
  302SOL    HW1  908   1.436   0.495   2.861
  302SOL    HW2  909   1.539   0.606   2.920
  303SOL     OW  910   1.857   0.833   2.239
  303SOL    HW1  911   1.899   0.769   2.303
  303SOL    HW2  912   1.819   0.782   2.161
  304SOL     OW  913   0.488   1.385   2.036
  304SOL    HW1  914   0.401   1.370   2.083
  304SOL    HW2  915   0.471   1.411   1.941
  305SOL     OW  916   1.664   1.280   2.519
  305SOL    HW1  917   1.763   1.288   2.533
  305SOL    HW2  918   1.619   1.364   2.550
  306SOL     OW  919   1.390   0.575   1.940
  306SOL    HW1  920   1.336   0.554   2.021
  306SOL    HW2  921   1.481   0.534   1.949
  307SOL     OW  922   0.527   0.256   2.190
  307SOL    HW1  923   0.554   0.197   2.115
  307SOL    HW2  924   0.527   0.351   2.159
  308SOL     OW  925   1.754   1.223   3.450
  308SOL    HW1  926   1.845   1.184   3.437
  308SOL    HW2  927   1.762   1.319   3.474
  309SOL     OW  928   1.064   1.347   3.202
  309SOL    HW1  929   0.984   1.324   3.257
  309SOL    HW2  930   1.147   1.321   3.251
  310SOL     OW  931   1.592   1.629   3.487
  310SOL    HW1  932   1.619   1.663   3.397
  310SOL    HW2  933   1.671   1.591   3.533
  311SOL     OW  934   1.111   1.195   2.962
  311SOL    HW1  935   1.071   1.239   3.043
  311SOL    HW2  936   1.070   1.232   2.879
  312SOL     OW  937   1.638   1.099   2.941
  312SOL    HW1  938   1.643   1.180   3.000
  312SOL    HW2  939   1.552   1.101   2.890
  313SOL     OW  940   0.915   0.089   3.264
  313SOL    HW1  941   0.940   0.069   3.169
  313SOL    HW2  942   0.987   0.145   3.306
  314SOL     OW  943   0.980   1.116   3.581
  314SOL    HW1  944   0.881   1.122   3.591
  314SOL    HW2  945   1.003   1.036   3.525
  315SOL     OW  946   0.705   1.050   2.230
  315SOL    HW1  947   0.691   1.057   2.329
  315SOL    HW2  948   0.789   0.999   2.212
  316SOL     OW  949   0.410   0.813   3.113
  316SOL    HW1  950   0.496   0.825   3.163
  316SOL    HW2  951   0.368   0.726   3.140
  317SOL     OW  952   1.274   0.386   3.124
  317SOL    HW1  953   1.295   0.460   3.188
  317SOL    HW2  954   1.185   0.403   3.081
  318SOL     OW  955   0.064   1.564   3.193
  318SOL    HW1  956   0.018   1.646   3.159
  318SOL    HW2  957   0.162   1.583   3.202
  319SOL     OW  958   0.367   1.100   2.363
  319SOL    HW1  959   0.360   1.183   2.307
  319SOL    HW2  960   0.371   1.020   2.303
  320SOL     OW  961   0.566   0.537   2.727
  320SOL    HW1  962   0.578   0.603   2.653
  320SOL    HW2  963   0.612   0.571   2.810
  321SOL     OW  964   1.252   1.348   2.250
  321SOL    HW1  965   1.302   1.425   2.290
  321SOL    HW2  966   1.157   1.350   2.282
  322SOL     OW  967   1.272   1.445   3.004
  322SOL    HW1  968   1.319   1.458   3.091
  322SOL    HW2  969   1.206   1.371   3.013
  323SOL     OW  970   1.582   0.639   2.334
  323SOL    HW1  971   1.551   0.700   2.407
  323SOL    HW2  972   1.632   0.691   2.265
  324SOL     OW  973   0.354   1.510   3.191
  324SOL    HW1  974   0.333   1.466   3.104
  324SOL    HW2  975   0.451   1.536   3.194
  325SOL     OW  976   0.402   0.751   3.460
  325SOL    HW1  977   0.470   0.806   3.413
  325SOL    HW2  978   0.442   0.663   3.487
  326SOL     OW  979   1.587   0.779   3.532
  326SOL    HW1  980   1.495   0.817   3.527
  326SOL    HW2  981   1.647   0.826   3.467
  327SOL     OW  982   1.013   0.105   3.632
  327SOL    HW1  983   1.019   0.190   3.580
  327SOL    HW2  984   1.045   0.029   3.575
  328SOL     OW  985   0.504   0.050   3.602
  328SOL    HW1  986   0.462  -0.007   3.532
  328SOL    HW2  987   0.438   0.119   3.634
  329SOL     OW  988   0.573   0.870   2.891
  329SOL    HW1  989   0.617   0.959   2.882
  329SOL    HW2  990   0.510   0.870   2.968
  330SOL     OW  991   1.360   0.862   2.907
  330SOL    HW1  992   1.285   0.862   2.841
  330SOL    HW2  993   1.397   0.770   2.916
  331SOL     OW  994   1.209   0.525   2.137
  331SOL    HW1  995   1.222   0.441   2.191
  331SOL    HW2  996   1.180   0.599   2.197
  332SOL     OW  997   0.307   0.213   3.093
  332SOL    HW1  998   0.284   0.250   3.183
  332SOL    HW2  999   0.277   0.118   3.087
  333SOL     OW 1000   0.037   1.310   3.144
  333SOL    HW1 1001   0.090   1.261   3.212
  333SOL    HW2 1002   0.059   1.408   3.149
  334SOL     OW 1003   0.732   0.634   2.926
  334SOL    HW1 1004   0.791   0.608   2.850
  334SOL    HW2 1005   0.704   0.730   2.915
  335SOL     OW 1006   1.728   0.935   3.716
  335SOL    HW1 1007   1.682   0.928   3.627
  335SOL    HW2 1008   1.666   0.979   3.782
  336SOL     OW 1009   0.307   0.063   2.480
  336SOL    HW1 1010   0.296   0.157   2.513
  336SOL    HW2 1011   0.302   0.000   2.557
  337SOL     OW 1012   1.622   0.367   2.236
  337SOL    HW1 1013   1.624   0.291   2.300
  337SOL    HW2 1014   1.574   0.444   2.276
  338SOL     OW 1015   1.023   0.766   2.828
  338SOL    HW1 1016   1.038   0.787   2.924
  338SOL    HW2 1017   0.993   0.671   2.819
  339SOL     OW 1018   0.980   1.573   3.562
  339SOL    HW1 1019   0.960   1.617   3.474
  339SOL    HW2 1020   1.019   1.482   3.546
  340SOL     OW 1021   1.859   1.518   3.467
  340SOL    HW1 1022   1.873   1.545   3.372
  340SOL    HW2 1023   1.942   1.540   3.520
  341SOL     OW 1024   0.350   0.898   3.666
  341SOL    HW1 1025   0.426   0.942   3.714
  341SOL    HW2 1026   0.385   0.851   3.584
  342SOL     OW 1027   1.540   0.274   1.987
  342SOL    HW1 1028   1.479   0.199   2.010
  342SOL    HW2 1029   1.562   0.326   2.070
  343SOL     OW 1030   1.303   0.838   1.904
  343SOL    HW1 1031   1.337   0.745   1.919
  343SOL    HW2 1032   1.321   0.865   1.809
  344SOL     OW 1033   1.068   1.333   2.711
  344SOL    HW1 1034   1.075   1.249   2.656
  344SOL    HW2 1035   1.130   1.402   2.675
  345SOL     OW 1036   0.319   0.810   2.811
  345SOL    HW1 1037   0.412   0.846   2.816
  345SOL    HW2 1038   0.313   0.725   2.863
  346SOL     OW 1039   0.339   0.509   2.868
  346SOL    HW1 1040   0.287   0.426   2.851
  346SOL    HW2 1041   0.416   0.514   2.804
  347SOL     OW 1042   1.138   0.380   3.540
  347SOL    HW1 1043   1.093   0.443   3.604
  347SOL    HW2 1044   1.231   0.411   3.523
  348SOL     OW 1045   1.160   0.207   3.339
  348SOL    HW1 1046   1.160   0.271   3.416
  348SOL    HW2 1047   1.188   0.255   3.256
  349SOL     OW 1048   0.008   1.326   2.062
  349SOL    HW1 1049  -0.085   1.347   2.031
  349SOL    HW2 1050   0.018   1.227   2.075
  350SOL     OW 1051   0.088   1.801   2.789
  350SOL    HW1 1052   0.046   1.715   2.762
  350SOL    HW2 1053   0.182   1.804   2.755
  351SOL     OW 1054   0.504   1.568   2.772
  351SOL    HW1 1055   0.570   1.642   2.781
  351SOL    HW2 1056   0.548   1.489   2.730
  352SOL     OW 1057   1.002   0.796   3.100
  352SOL    HW1 1058   1.043   0.764   3.186
  352SOL    HW2 1059   0.906   0.769   3.097
  353SOL     OW 1060   0.040   0.544   2.976
  353SOL    HW1 1061   0.125   0.511   2.935
  353SOL    HW2 1062   0.053   0.559   3.074
  354SOL     OW 1063   0.189   0.520   3.584
  354SOL    HW1 1064   0.248   0.480   3.514
  354SOL    HW2 1065   0.131   0.591   3.543
  355SOL     OW 1066   1.369   0.950   3.522
  355SOL    HW1 1067   1.408   1.039   3.542
  355SOL    HW2 1068   1.379   0.930   3.425
  356SOL     OW 1069   0.815   0.572   2.187
  356SOL    HW1 1070   0.822   0.483   2.141
  356SOL    HW2 1071   0.721   0.606   2.179
  357SOL     OW 1072   1.657   0.604   3.068
  357SOL    HW1 1073   1.619   0.535   3.130
  357SOL    HW2 1074   1.739   0.568   3.024
  358SOL     OW 1075   0.252   1.564   3.606
  358SOL    HW1 1076   0.222   1.621   3.682
  358SOL    HW2 1077   0.245   1.467   3.632
  359SOL     OW 1078   0.671   0.464   3.131
  359SOL    HW1 1079   0.637   0.375   3.101
  359SOL    HW2 1080   0.697   0.518   3.051
  360SOL     OW 1081   0.930   1.678   3.327
  360SOL    HW1 1082   0.906   1.660   3.232
  360SOL    HW2 1083   0.960   1.772   3.337
  361SOL     OW 1084   0.473   0.500   2.053
  361SOL    HW1 1085   0.534   0.580   2.057
  361SOL    HW2 1086   0.378   0.531   2.060
  362SOL     OW 1087   0.159   1.137   3.328
  362SOL    HW1 1088   0.181   1.076   3.404
  362SOL    HW2 1089   0.169   1.088   3.242
  363SOL     OW 1090   1.347   1.059   3.096
  363SOL    HW1 1091   1.371   0.996   3.022
  363SOL    HW2 1092   1.257   1.099   3.078
  364SOL     OW 1093   1.302   0.855   2.171
  364SOL    HW1 1094   1.216   0.824   2.213
  364SOL    HW2 1095   1.298   0.841   2.072
  365SOL     OW 1096   1.759   1.747   3.016
  365SOL    HW1 1097   1.820   1.777   2.943
  365SOL    HW2 1098   1.721   1.658   2.994
  366SOL     OW 1099   1.252   1.731   2.990
  366SOL    HW1 1100   1.336   1.736   2.936
  366SOL    HW2 1101   1.229   1.635   3.008
  367SOL     OW 1102   0.083   1.258   2.884
  367SOL    HW1 1103   0.078   1.257   2.984
  367SOL    HW2 1104   0.000   1.217   2.846
  368SOL     OW 1105   0.688   1.662   3.578
  368SOL    HW1 1106   0.632   1.743   3.587
  368SOL    HW2 1107   0.740   1.666   3.492
  369SOL     OW 1108   1.726   0.135   2.385
  369SOL    HW1 1109   1.799   0.118   2.318
  369SOL    HW2 1110   1.695   0.048   2.423
  370SOL     OW 1111   1.388   1.573   2.339
  370SOL    HW1 1112   1.455   1.585   2.265
  370SOL    HW2 1113   1.348   1.662   2.362
  371SOL     OW 1114   0.130   1.794   3.713
  371SOL    HW1 1115   0.089   1.720   3.766
  371SOL    HW2 1116   0.194   1.845   3.771
  372SOL     OW 1117   1.280   0.927   2.534
  372SOL    HW1 1118   1.340   0.846   2.536
  372SOL    HW2 1119   1.320   0.996   2.474
  373SOL     OW 1120   0.830   1.273   3.284
  373SOL    HW1 1121   0.825   1.306   3.379
  373SOL    HW2 1122   0.744   1.292   3.238
  374SOL     OW 1123   0.672   1.616   2.016
  374SOL    HW1 1124   0.681   1.626   1.917
  374SOL    HW2 1125   0.632   1.527   2.037
  375SOL     OW 1126   1.650   1.720   3.256
  375SOL    HW1 1127   1.703   1.730   3.172
  375SOL    HW2 1128   1.623   1.810   3.290
  376SOL     OW 1129   1.841   0.175   2.825
  376SOL    HW1 1130   1.880   0.090   2.789
  376SOL    HW2 1131   1.743   0.177   2.806
  377SOL     OW 1132   0.263   0.326   2.582
  377SOL    HW1 1133   0.184   0.377   2.548
  377SOL    HW2 1134   0.254   0.311   2.680
  378SOL     OW 1135   1.194   1.612   1.893
  378SOL    HW1 1136   1.200   1.519   1.930
  378SOL    HW2 1137   1.135   1.612   1.813
  379SOL     OW 1138   0.822   1.002   3.234
  379SOL    HW1 1139   0.862   1.001   3.142
  379SOL    HW2 1140   0.832   1.094   3.274
  380SOL     OW 1141   0.916   0.910   2.153
  380SOL    HW1 1142   0.979   0.948   2.085
  380SOL    HW2 1143   0.956   0.827   2.192
  381SOL     OW 1144   1.504   1.607   1.906
  381SOL    HW1 1145   1.412   1.644   1.913
  381SOL    HW2 1146   1.542   1.627   1.816
  382SOL     OW 1147   0.372   1.288   3.352
  382SOL    HW1 1148   0.359   1.381   3.318
  382SOL    HW2 1149   0.288   1.236   3.339
  383SOL     OW 1150   1.614   1.292   3.151
  383SOL    HW1 1151   1.674   1.295   3.231
  383SOL    HW2 1152   1.539   1.356   3.164
  384SOL     OW 1153   1.039   1.098   2.558
  384SOL    HW1 1154   0.969   1.051   2.612
  384SOL    HW2 1155   1.098   1.030   2.515
  385SOL     OW 1156   1.014   0.236   2.833
  385SOL    HW1 1157   1.006   0.200   2.740
  385SOL    HW2 1158   1.012   0.160   2.898
  386SOL     OW 1159   0.590   1.487   2.353
  386SOL    HW1 1160   0.632   1.429   2.283
  386SOL    HW2 1161   0.546   1.566   2.309
  387SOL     OW 1162   1.709   0.385   3.243
  387SOL    HW1 1163   1.782   0.454   3.247
  387SOL    HW2 1164   1.737   0.310   3.184
  388SOL     OW 1165   0.255   1.348   2.152
  388SOL    HW1 1166   0.159   1.349   2.125
  388SOL    HW2 1167   0.267   1.401   2.236
  389SOL     OW 1168   0.105   1.013   3.588
  389SOL    HW1 1169   0.028   0.980   3.642
  389SOL    HW2 1170   0.190   0.983   3.630
  390SOL     OW 1171   0.672   0.203   3.351
  390SOL    HW1 1172   0.762   0.187   3.311
  390SOL    HW2 1173   0.680   0.208   3.450
  391SOL     OW 1174   0.075   0.345   1.895
  391SOL    HW1 1175  -0.017   0.317   1.866
  391SOL    HW2 1176   0.106   0.422   1.839
  392SOL     OW 1177   1.440   0.856   3.260
  392SOL    HW1 1178   1.383   0.908   3.197
  392SOL    HW2 1179   1.536   0.868   3.236
  393SOL     OW 1180   0.072   0.166   2.180
  393SOL    HW1 1181   0.055   0.249   2.126
  393SOL    HW2 1182   0.162   0.129   2.158
  394SOL     OW 1183   1.183   1.335   1.981
  394SOL    HW1 1184   1.084   1.324   1.983
  394SOL    HW2 1185   1.217   1.350   2.074
  395SOL     OW 1186   0.613   0.842   3.293
  395SOL    HW1 1187   0.669   0.923   3.276
  395SOL    HW2 1188   0.672   0.762   3.296
  396SOL     OW 1189   1.493   1.767   2.821
  396SOL    HW1 1190   1.526   1.831   2.752
  396SOL    HW2 1191   1.559   1.761   2.896
  397SOL     OW 1192   0.716   0.565   3.570
  397SOL    HW1 1193   0.735   0.630   3.644
  397SOL    HW2 1194   0.776   0.485   3.579
  398SOL     OW 1195   1.450   1.220   3.495
  398SOL    HW1 1196   1.441   1.210   3.594
  398SOL    HW2 1197   1.546   1.213   3.469
  399SOL     OW 1198   0.390   1.741   3.422
  399SOL    HW1 1199   0.299   1.782   3.420
  399SOL    HW2 1200   0.383   1.647   3.454
  400SOL     OW 1201   1.674   0.883   3.116
  400SOL    HW1 1202   1.647   0.794   3.079
  400SOL    HW2 1203   1.675   0.951   3.043
  401SOL     OW 1204   1.225   0.325   2.311
  401SOL    HW1 1205   1.290   0.251   2.300
  401SOL    HW2 1206   1.245   0.375   2.395
  402SOL     OW 1207   0.594   0.745   2.514
  402SOL    HW1 1208   0.644   0.830   2.495
  402SOL    HW2 1209   0.506   0.747   2.466
  403SOL     OW 1210   1.777   0.342   3.504
  403SOL    HW1 1211   1.760   0.373   3.410
  403SOL    HW2 1212   1.693   0.305   3.542
  404SOL     OW 1213   1.730   0.934   3.379
  404SOL    HW1 1214   1.768   1.025   3.394
  404SOL    HW2 1215   1.722   0.917   3.280
  405SOL     OW 1216   0.859   1.374   1.878
  405SOL    HW1 1217   0.813   1.389   1.966
  405SOL    HW2 1218   0.903   1.459   1.848
  406SOL     OW 1219   0.661   1.790   2.815
  406SOL    HW1 1220   0.615   1.878   2.802
  406SOL    HW2 1221   0.760   1.802   2.808
  407SOL     OW 1222   0.859   0.956   2.723
  407SOL    HW1 1223   0.913   0.887   2.771
  407SOL    HW2 1224   0.827   1.025   2.789
  408SOL     OW 1225   1.083   0.984   1.949
  408SOL    HW1 1226   1.060   1.037   1.867
  408SOL    HW2 1227   1.164   0.928   1.930
  409SOL     OW 1228   1.861   1.569   2.713
  409SOL    HW1 1229   1.790   1.557   2.643
  409SOL    HW2 1230   1.862   1.490   2.773
  410SOL     OW 1231   0.221   1.314   3.706
  410SOL    HW1 1232   0.156   1.241   3.685
  410SOL    HW2 1233   0.225   1.328   3.804
  411SOL     OW 1234   0.079   1.240   2.515
  411SOL    HW1 1235   0.078   1.193   2.603
  411SOL    HW2 1236   0.161   1.212   2.464
  412SOL     OW 1237   0.672   1.391   3.486
  412SOL    HW1 1238   0.594   1.341   3.524
  412SOL    HW2 1239   0.669   1.486   3.517
  413SOL     OW 1240   1.824   0.192   3.089
  413SOL    HW1 1241   1.820   0.102   3.133
  413SOL    HW2 1242   1.827   0.181   2.990
  414SOL     OW 1243   0.428   0.424   2.382
  414SOL    HW1 1244   0.458   0.352   2.320
  414SOL    HW2 1245   0.389   0.384   2.465
  415SOL     OW 1246   1.705   1.487   2.966
  415SOL    HW1 1247   1.612   1.462   2.939
  415SOL    HW2 1248   1.731   1.437   3.048
  416SOL     OW 1249   0.317   0.547   3.142
  416SOL    HW1 1250   0.355   0.488   3.214
  416SOL    HW2 1251   0.357   0.521   3.054
  417SOL     OW 1252   0.812   1.586   2.549
  417SOL    HW1 1253   0.844   1.596   2.455
  417SOL    HW2 1254   0.733   1.524   2.551
  418SOL     OW 1255   1.424   0.214   2.974
  418SOL    HW1 1256   1.476   0.149   3.029
  418SOL    HW2 1257   1.375   0.277   3.035
  419SOL     OW 1258   1.001   0.034   3.016
  419SOL    HW1 1259   0.938  -0.038   2.985
  419SOL    HW2 1260   1.094  -0.002   3.016
  420SOL     OW 1261   0.770   1.330   2.163
  420SOL    HW1 1262   0.724   1.243   2.180
  420SOL    HW2 1263   0.861   1.327   2.204
  421SOL     OW 1264   0.618   1.567   3.146
  421SOL    HW1 1265   0.613   1.649   3.203
  421SOL    HW2 1266   0.707   1.564   3.101
  422SOL     OW 1267   1.352   0.052   2.030
  422SOL    HW1 1268   1.387   0.011   1.946
  422SOL    HW2 1269   1.262   0.014   2.050
  423SOL     OW 1270   1.300   0.453   2.553
  423SOL    HW1 1271   1.241   0.533   2.557
  423SOL    HW2 1272   1.315   0.418   2.646
  424SOL     OW 1273   1.593   0.221   2.744
  424SOL    HW1 1274   1.509   0.220   2.798
  424SOL    HW2 1275   1.595   0.304   2.688
  425SOL     OW 1276   0.039   1.077   2.162
  425SOL    HW1 1277   0.138   1.066   2.153
  425SOL    HW2 1278  -0.001   0.991   2.194
  426SOL     OW 1279   0.875   1.646   2.199
  426SOL    HW1 1280   0.798   1.611   2.145
  426SOL    HW2 1281   0.843   1.717   2.261
  427SOL     OW 1282   0.230   0.628   3.837
  427SOL    HW1 1283   0.137   0.626   3.874
  427SOL    HW2 1284   0.231   0.589   3.745
  428SOL     OW 1285   1.755   0.607   3.955
  428SOL    HW1 1286   1.743   0.594   3.856
  428SOL    HW2 1287   1.725   0.526   4.004
  429SOL     OW 1288   0.231   1.713   4.207
  429SOL    HW1 1289   0.265   1.790   4.261
  429SOL    HW2 1290   0.275   1.713   4.117
  430SOL     OW 1291   0.230   1.434   4.262
  430SOL    HW1 1292   0.204   1.530   4.262
  430SOL    HW2 1293   0.159   1.380   4.307
  431SOL     OW 1294   0.606   0.964   3.847
  431SOL    HW1 1295   0.613   1.048   3.793
  431SOL    HW2 1296   0.652   0.977   3.935
  432SOL     OW 1297   0.122   0.643   4.287
  432SOL    HW1 1298   0.077   0.555   4.304
  432SOL    HW2 1299   0.121   0.697   4.371
  433SOL     OW 1300   1.842   1.767   4.083
  433SOL    HW1 1301   1.896   1.738   4.163
  433SOL    HW2 1302   1.872   1.857   4.054
  434SOL     OW 1303   0.027   1.596   3.841
  434SOL    HW1 1304   0.008   1.500   3.862
  434SOL    HW2 1305  -0.006   1.654   3.916
  435SOL     OW 1306   1.689   0.922   4.336
  435SOL    HW1 1307   1.784   0.893   4.344
  435SOL    HW2 1308   1.681   0.987   4.261
  436SOL     OW 1309   1.641   1.108   4.156
  436SOL    HW1 1310   1.727   1.110   4.104
  436SOL    HW2 1311   1.655   1.155   4.244
  437SOL     OW 1312   0.809   0.004   4.226
  437SOL    HW1 1313   0.849   0.095   4.217
  437SOL    HW2 1314   0.709   0.012   4.232
  438SOL     OW 1315   1.525   0.999   3.914
  438SOL    HW1 1316   1.462   0.923   3.927
  438SOL    HW2 1317   1.573   1.017   4.000
  439SOL     OW 1318   0.598   0.729   3.994
  439SOL    HW1 1319   0.622   0.798   3.926
  439SOL    HW2 1320   0.520   0.762   4.048
  440SOL     OW 1321   1.576   1.662   4.031
  440SOL    HW1 1322   1.665   1.708   4.034
  440SOL    HW2 1323   1.555   1.638   3.936
  441SOL     OW 1324   1.041   0.701   4.153
  441SOL    HW1 1325   1.067   0.697   4.249
  441SOL    HW2 1326   0.956   0.650   4.139
  442SOL     OW 1327   0.076   0.811   4.513
  442SOL    HW1 1328   0.175   0.799   4.522
  442SOL    HW2 1329   0.052   0.906   4.534
  443SOL     OW 1330   0.865   0.348   3.919
  443SOL    HW1 1331   0.924   0.411   3.870
  443SOL    HW2 1332   0.884   0.254   3.890
  444SOL     OW 1333   0.321   0.943   3.966
  444SOL    HW1 1334   0.403   0.982   3.924
  444SOL    HW2 1335   0.294   0.861   3.917
  445SOL     OW 1336   1.111   1.776   3.961
  445SOL    HW1 1337   1.051   1.714   4.011
  445SOL    HW2 1338   1.142   1.732   3.876
  446SOL     OW 1339   1.632   1.377   3.805
  446SOL    HW1 1340   1.600   1.471   3.795
  446SOL    HW2 1341   1.556   1.314   3.793
  447SOL     OW 1342   0.464   1.743   4.047
  447SOL    HW1 1343   0.497   1.782   4.133
  447SOL    HW2 1344   0.540   1.736   3.982
  448SOL     OW 1345   1.400   0.107   4.150
  448SOL    HW1 1346   1.376   0.070   4.060
  448SOL    HW2 1347   1.499   0.123   4.154
  449SOL     OW 1348   0.382   0.700   4.204
  449SOL    HW1 1349   0.427   0.610   4.201
  449SOL    HW2 1350   0.288   0.689   4.237
  450SOL     OW 1351   0.614   0.122   3.841
  450SOL    HW1 1352   0.712   0.100   3.848
  450SOL    HW2 1353   0.583   0.105   3.748
  451SOL     OW 1354   0.539   0.064   4.236
  451SOL    HW1 1355   0.458   0.065   4.294
  451SOL    HW2 1356   0.542   0.147   4.181
  452SOL     OW 1357   1.434   1.188   3.765
  452SOL    HW1 1358   1.466   1.112   3.822
  452SOL    HW2 1359   1.342   1.215   3.795
  453SOL     OW 1360   0.297   0.035   3.895
  453SOL    HW1 1361   0.346   0.119   3.874
  453SOL    HW2 1362   0.359  -0.030   3.940
  454SOL     OW 1363   0.935   0.236   4.204
  454SOL    HW1 1364   0.887   0.277   4.126
  454SOL    HW2 1365   1.034   0.234   4.185
  455SOL     OW 1366   0.459   1.152   4.465
  455SOL    HW1 1367   0.388   1.125   4.530
  455SOL    HW2 1368   0.433   1.124   4.372
  456SOL     OW 1369   1.271   1.797   4.315
  456SOL    HW1 1370   1.315   1.861   4.251
  456SOL    HW2 1371   1.221   1.849   4.385
  457SOL     OW 1372   1.032   0.549   3.740
  457SOL    HW1 1373   0.991   0.631   3.701
  457SOL    HW2 1374   1.096   0.575   3.813
  458SOL     OW 1375   0.866   0.454   4.366
  458SOL    HW1 1376   0.834   0.526   4.304
  458SOL    HW2 1377   0.890   0.373   4.313
  459SOL     OW 1378   1.857   0.833   4.101
  459SOL    HW1 1379   1.899   0.769   4.165
  459SOL    HW2 1380   1.819   0.782   4.023
  460SOL     OW 1381   0.488   1.385   3.898
  460SOL    HW1 1382   0.401   1.370   3.945
  460SOL    HW2 1383   0.471   1.411   3.803
  461SOL     OW 1384   1.390   0.575   3.802
  461SOL    HW1 1385   1.336   0.554   3.883
  461SOL    HW2 1386   1.481   0.534   3.811
  462SOL     OW 1387   0.527   0.256   4.052
  462SOL    HW1 1388   0.554   0.197   3.977
  462SOL    HW2 1389   0.527   0.351   4.021
  463SOL     OW 1390   0.705   1.050   4.092
  463SOL    HW1 1391   0.691   1.057   4.191
  463SOL    HW2 1392   0.789   0.999   4.074
  464SOL     OW 1393   0.367   1.100   4.225
  464SOL    HW1 1394   0.360   1.183   4.169
  464SOL    HW2 1395   0.371   1.020   4.165
  465SOL     OW 1396   1.252   1.348   4.112
  465SOL    HW1 1397   1.302   1.425   4.152
  465SOL    HW2 1398   1.157   1.350   4.144
  466SOL     OW 1399   1.582   0.639   4.196
  466SOL    HW1 1400   1.551   0.700   4.269
  466SOL    HW2 1401   1.632   0.691   4.127
  467SOL     OW 1402   1.209   0.525   3.999
  467SOL    HW1 1403   1.222   0.441   4.053
  467SOL    HW2 1404   1.180   0.599   4.059
  468SOL     OW 1405   1.622   0.367   4.098
  468SOL    HW1 1406   1.624   0.291   4.162
  468SOL    HW2 1407   1.574   0.444   4.138
  469SOL     OW 1408   1.540   0.274   3.849
  469SOL    HW1 1409   1.479   0.199   3.872
  469SOL    HW2 1410   1.562   0.326   3.932
  470SOL     OW 1411   1.303   0.838   3.766
  470SOL    HW1 1412   1.337   0.745   3.781
  470SOL    HW2 1413   1.321   0.865   3.671
  471SOL     OW 1414   0.008   1.326   3.924
  471SOL    HW1 1415  -0.085   1.347   3.893
  471SOL    HW2 1416   0.018   1.227   3.937
  472SOL     OW 1417   0.815   0.572   4.049
  472SOL    HW1 1418   0.822   0.483   4.003
  472SOL    HW2 1419   0.721   0.606   4.041
  473SOL     OW 1420   0.473   0.500   3.915
  473SOL    HW1 1421   0.534   0.580   3.919
  473SOL    HW2 1422   0.378   0.531   3.922
  474SOL     OW 1423   1.302   0.855   4.033
  474SOL    HW1 1424   1.216   0.824   4.075
  474SOL    HW2 1425   1.298   0.841   3.934
  475SOL     OW 1426   1.726   0.135   4.247
  475SOL    HW1 1427   1.799   0.118   4.180
  475SOL    HW2 1428   1.695   0.048   4.285
  476SOL     OW 1429   1.388   1.573   4.201
  476SOL    HW1 1430   1.455   1.585   4.127
  476SOL    HW2 1431   1.348   1.662   4.224
  477SOL     OW 1432   0.672   1.616   3.878
  477SOL    HW1 1433   0.681   1.626   3.779
  477SOL    HW2 1434   0.632   1.527   3.899
  478SOL     OW 1435   1.194   1.612   3.755
  478SOL    HW1 1436   1.200   1.519   3.792
  478SOL    HW2 1437   1.135   1.612   3.675
  479SOL     OW 1438   0.916   0.910   4.015
  479SOL    HW1 1439   0.979   0.948   3.947
  479SOL    HW2 1440   0.956   0.827   4.054
  480SOL     OW 1441   1.504   1.607   3.768
  480SOL    HW1 1442   1.412   1.644   3.775
  480SOL    HW2 1443   1.542   1.627   3.678
  481SOL     OW 1444   0.590   1.487   4.215
  481SOL    HW1 1445   0.632   1.429   4.145
  481SOL    HW2 1446   0.546   1.566   4.171
  482SOL     OW 1447   0.255   1.348   4.014
  482SOL    HW1 1448   0.159   1.349   3.987
  482SOL    HW2 1449   0.267   1.401   4.098
  483SOL     OW 1450   0.075   0.345   3.757
  483SOL    HW1 1451  -0.017   0.317   3.728
  483SOL    HW2 1452   0.106   0.422   3.701
  484SOL     OW 1453   0.072   0.166   4.042
  484SOL    HW1 1454   0.055   0.249   3.988
  484SOL    HW2 1455   0.162   0.129   4.020
  485SOL     OW 1456   1.183   1.335   3.843
  485SOL    HW1 1457   1.084   1.324   3.845
  485SOL    HW2 1458   1.217   1.350   3.936
  486SOL     OW 1459   1.225   0.325   4.173
  486SOL    HW1 1460   1.290   0.251   4.162
  486SOL    HW2 1461   1.245   0.375   4.257
  487SOL     OW 1462   0.594   0.745   4.376
  487SOL    HW1 1463   0.644   0.830   4.357
  487SOL    HW2 1464   0.506   0.747   4.328
  488SOL     OW 1465   0.859   1.374   3.740
  488SOL    HW1 1466   0.813   1.389   3.828
  488SOL    HW2 1467   0.903   1.459   3.710
  489SOL     OW 1468   1.083   0.984   3.811
  489SOL    HW1 1469   1.060   1.037   3.729
  489SOL    HW2 1470   1.164   0.928   3.792
  490SOL     OW 1471   0.428   0.424   4.244
  490SOL    HW1 1472   0.458   0.352   4.182
  490SOL    HW2 1473   0.389   0.384   4.327
  491SOL     OW 1474   0.770   1.330   4.025
  491SOL    HW1 1475   0.724   1.243   4.042
  491SOL    HW2 1476   0.861   1.327   4.066
  492SOL     OW 1477   1.352   0.052   3.892
  492SOL    HW1 1478   1.387   0.011   3.808
  492SOL    HW2 1479   1.262   0.014   3.912
  493SOL     OW 1480   0.039   1.077   4.024
  493SOL    HW1 1481   0.138   1.066   4.015
  493SOL    HW2 1482  -0.001   0.991   4.056
  494SOL     OW 1483   0.875   1.646   4.061
  494SOL    HW1 1484   0.798   1.611   4.007
  494SOL    HW2 1485   0.843   1.717   4.123
  495SOL     OW 1486   0.230   2.490   0.113
  495SOL    HW1 1487   0.137   2.488   0.150
  495SOL    HW2 1488   0.231   2.451   0.021
  496SOL     OW 1489   0.225   2.137   0.996
  496SOL    HW1 1490   0.260   2.120   1.088
  496SOL    HW2 1491   0.137   2.092   0.984
  497SOL     OW 1492   0.019   2.230   0.647
  497SOL    HW1 1493  -0.063   2.273   0.686
  497SOL    HW2 1494  -0.009   2.157   0.584
  498SOL     OW 1495   0.569   3.137   1.165
  498SOL    HW1 1496   0.476   3.130   1.128
  498SOL    HW2 1497   0.580   3.226   1.209
  499SOL     OW 1498   1.555   3.373   0.703
  499SOL    HW1 1499   1.498   3.357   0.784
  499SOL    HW2 1500   1.496   3.383   0.623
  500SOL     OW 1501   1.135   2.565   0.717
  500SOL    HW1 1502   1.192   2.643   0.692
  500SOL    HW2 1503   1.075   2.591   0.793
  501SOL     OW 1504   1.755   2.469   0.231
  501SOL    HW1 1505   1.743   2.456   0.132
  501SOL    HW2 1506   1.725   2.388   0.280
  502SOL     OW 1507   0.768   3.006   1.023
  502SOL    HW1 1508   0.690   3.023   1.083
  502SOL    HW2 1509   0.802   3.093   0.987
  503SOL     OW 1510   0.850   2.660   1.823
  503SOL    HW1 1511   0.846   2.736   1.888
  503SOL    HW2 1512   0.872   2.696   1.732
  504SOL     OW 1513   0.685   2.874   0.665
  504SOL    HW1 1514   0.754   2.858   0.735
  504SOL    HW2 1515   0.612   2.931   0.703
  505SOL     OW 1516   0.686   3.023   1.803
  505SOL    HW1 1517   0.746   3.102   1.817
  505SOL    HW2 1518   0.600   3.054   1.762
  506SOL     OW 1519   0.335   3.297   1.061
  506SOL    HW1 1520   0.257   3.266   1.008
  506SOL    HW2 1521   0.393   3.355   1.004
  507SOL     OW 1522   1.460   3.367   1.339
  507SOL    HW1 1523   1.484   3.461   1.365
  507SOL    HW2 1524   1.444   3.313   1.421
  508SOL     OW 1525   0.438   2.254   1.499
  508SOL    HW1 1526   0.520   2.198   1.508
  508SOL    HW2 1527   0.357   2.196   1.503
  509SOL     OW 1528   1.603   2.309   0.737
  509SOL    HW1 1529   1.529   2.355   0.687
  509SOL    HW2 1530   1.654   2.377   0.790
  510SOL     OW 1531   0.231   3.575   0.483
  510SOL    HW1 1532   0.265   3.652   0.537
  510SOL    HW2 1533   0.275   3.575   0.393
  511SOL     OW 1534   1.127   3.203   1.690
  511SOL    HW1 1535   1.174   3.203   1.778
  511SOL    HW2 1536   1.079   3.116   1.679
  512SOL     OW 1537   0.230   3.296   0.538
  512SOL    HW1 1538   0.204   3.392   0.538
  512SOL    HW2 1539   0.159   3.242   0.583
  513SOL     OW 1540   0.240   2.953   0.886
  513SOL    HW1 1541   0.254   2.869   0.938
  513SOL    HW2 1542   0.185   3.017   0.941
  514SOL     OW 1543   0.620   3.648   1.439
  514SOL    HW1 1544   0.528   3.631   1.474
  514SOL    HW2 1545   0.648   3.740   1.465
  515SOL     OW 1546   0.606   2.826   0.123
  515SOL    HW1 1547   0.613   2.910   0.069
  515SOL    HW2 1548   0.652   2.839   0.211
  516SOL     OW 1549   1.594   1.976   1.480
  516SOL    HW1 1550   1.576   2.043   1.408
  516SOL    HW2 1551   1.591   2.022   1.569
  517SOL     OW 1552   0.122   2.505   0.563
  517SOL    HW1 1553   0.077   2.417   0.580
  517SOL    HW2 1554   0.121   2.559   0.647
  518SOL     OW 1555   1.842   3.629   0.359
  518SOL    HW1 1556   1.896   3.600   0.439
  518SOL    HW2 1557   1.872   3.719   0.330
  519SOL     OW 1558   0.027   3.458   0.117
  519SOL    HW1 1559   0.008   3.362   0.138
  519SOL    HW2 1560  -0.006   3.516   0.192
  520SOL     OW 1561   1.689   2.784   0.612
  520SOL    HW1 1562   1.784   2.755   0.620
  520SOL    HW2 1563   1.681   2.849   0.537
  521SOL     OW 1564   1.641   2.970   0.432
  521SOL    HW1 1565   1.727   2.972   0.380
  521SOL    HW2 1566   1.655   3.017   0.520
  522SOL     OW 1567   0.113   2.599   1.597
  522SOL    HW1 1568   0.201   2.586   1.642
  522SOL    HW2 1569   0.100   2.696   1.575
  523SOL     OW 1570   0.613   3.227   0.726
  523SOL    HW1 1571   0.564   3.140   0.735
  523SOL    HW2 1572   0.590   3.270   0.639
  524SOL     OW 1573   1.293   3.090   1.423
  524SOL    HW1 1574   1.330   3.017   1.365
  524SOL    HW2 1575   1.345   3.095   1.508
  525SOL     OW 1576   0.809   1.866   0.502
  525SOL    HW1 1577   0.849   1.957   0.493
  525SOL    HW2 1578   0.709   1.874   0.508
  526SOL     OW 1579   0.197   2.838   1.264
  526SOL    HW1 1580   0.286   2.793   1.250
  526SOL    HW2 1581   0.124   2.773   1.245
  527SOL     OW 1582   1.525   2.861   0.190
  527SOL    HW1 1583   1.462   2.785   0.203
  527SOL    HW2 1584   1.573   2.879   0.276
  528SOL     OW 1585   1.187   3.654   1.616
  528SOL    HW1 1586   1.211   3.714   1.540
  528SOL    HW2 1587   1.194   3.559   1.586
  529SOL     OW 1588   0.317   2.113   1.801
  529SOL    HW1 1589   0.388   2.184   1.807
  529SOL    HW2 1590   0.229   2.152   1.829
  530SOL     OW 1591   1.466   3.279   0.953
  530SOL    HW1 1592   1.407   3.285   1.033
  530SOL    HW2 1593   1.451   3.191   0.907
  531SOL     OW 1594   1.667   3.576   0.572
  531SOL    HW1 1595   1.626   3.553   0.484
  531SOL    HW2 1596   1.649   3.502   0.637
  532SOL     OW 1597   0.598   2.591   0.270
  532SOL    HW1 1598   0.622   2.660   0.202
  532SOL    HW2 1599   0.520   2.624   0.324
  533SOL     OW 1600   1.281   2.207   0.944
  533SOL    HW1 1601   1.195   2.157   0.931
  533SOL    HW2 1602   1.343   2.153   1.000
  534SOL     OW 1603   1.576   3.524   0.307
  534SOL    HW1 1604   1.665   3.570   0.310
  534SOL    HW2 1605   1.555   3.500   0.212
  535SOL     OW 1606   0.807   2.467   1.465
  535SOL    HW1 1607   0.760   2.464   1.554
  535SOL    HW2 1608   0.756   2.412   1.399
  536SOL     OW 1609   1.394   2.331   1.674
  536SOL    HW1 1610   1.374   2.374   1.762
  536SOL    HW2 1611   1.472   2.269   1.683
  537SOL     OW 1612   0.973   2.752   1.572
  537SOL    HW1 1613   1.019   2.668   1.543
  537SOL    HW2 1614   0.917   2.786   1.497
  538SOL     OW 1615   0.991   2.272   1.242
  538SOL    HW1 1616   0.914   2.306   1.296
  538SOL    HW2 1617   0.957   2.221   1.163
  539SOL     OW 1618   1.041   2.563   0.429
  539SOL    HW1 1619   1.067   2.559   0.525
  539SOL    HW2 1620   0.956   2.512   0.415
  540SOL     OW 1621   0.076   2.673   0.789
  540SOL    HW1 1622   0.175   2.661   0.798
  540SOL    HW2 1623   0.052   2.768   0.810
  541SOL     OW 1624   0.130   3.683   1.571
  541SOL    HW1 1625   0.120   3.668   1.670
  541SOL    HW2 1626   0.044   3.719   1.535
  542SOL     OW 1627   0.865   2.210   0.195
  542SOL    HW1 1628   0.924   2.273   0.146
  542SOL    HW2 1629   0.884   2.116   0.166
  543SOL     OW 1630   1.719   2.447   1.831
  543SOL    HW1 1631   1.693   2.536   1.795
  543SOL    HW2 1632   1.717   2.379   1.758
  544SOL     OW 1633   1.362   3.006   0.545
  544SOL    HW1 1634   1.445   2.977   0.497
  544SOL    HW2 1635   1.313   3.073   0.489
  545SOL     OW 1636   0.550   2.058   0.885
  545SOL    HW1 1637   0.545   2.053   0.985
  545SOL    HW2 1638   0.552   2.154   0.856
  546SOL     OW 1639   1.008   3.318   0.477
  546SOL    HW1 1640   0.962   3.390   0.425
  546SOL    HW2 1641   1.004   3.338   0.575
  547SOL     OW 1642   0.351   3.663   0.853
  547SOL    HW1 1643   0.401   3.577   0.859
  547SOL    HW2 1644   0.416   3.740   0.850
  548SOL     OW 1645   1.795   2.928   0.873
  548SOL    HW1 1646   1.733   2.913   0.797
  548SOL    HW2 1647   1.743   2.939   0.958
  549SOL     OW 1648   1.227   3.412   1.506
  549SOL    HW1 1649   1.233   3.335   1.570
  549SOL    HW2 1650   1.175   3.386   1.426
  550SOL     OW 1651   0.321   2.805   0.242
  550SOL    HW1 1652   0.403   2.844   0.200
  550SOL    HW2 1653   0.294   2.723   0.193
  551SOL     OW 1654   1.458   2.597   0.728
  551SOL    HW1 1655   1.453   2.532   0.803
  551SOL    HW2 1656   1.538   2.656   0.741
  552SOL     OW 1657   0.461   3.128   1.727
  552SOL    HW1 1658   0.411   3.129   1.641
  552SOL    HW2 1659   0.398   3.110   1.803
  553SOL     OW 1660   1.111   3.638   0.237
  553SOL    HW1 1661   1.051   3.576   0.287
  553SOL    HW2 1662   1.142   3.594   0.152
  554SOL     OW 1663   0.202   2.147   1.498
  554SOL    HW1 1664   0.122   2.207   1.485
  554SOL    HW2 1665   0.192   2.098   1.584
  555SOL     OW 1666   1.632   3.239   0.081
  555SOL    HW1 1667   1.600   3.333   0.071
  555SOL    HW2 1668   1.556   3.176   0.069
  556SOL     OW 1669   0.464   3.605   0.323
  556SOL    HW1 1670   0.497   3.644   0.409
  556SOL    HW2 1671   0.540   3.598   0.258
  557SOL     OW 1672   1.400   1.969   0.426
  557SOL    HW1 1673   1.376   1.932   0.336
  557SOL    HW2 1674   1.499   1.985   0.430
  558SOL     OW 1675   0.249   3.647   1.241
  558SOL    HW1 1676   0.306   3.582   1.291
  558SOL    HW2 1677   0.233   3.614   1.148
  559SOL     OW 1678   0.940   3.560   0.904
  559SOL    HW1 1679   1.020   3.503   0.925
  559SOL    HW2 1680   0.891   3.520   0.827
  560SOL     OW 1681   0.382   2.562   0.480
  560SOL    HW1 1682   0.427   2.472   0.477
  560SOL    HW2 1683   0.288   2.551   0.513
  561SOL     OW 1684   1.547   2.084   1.729
  561SOL    HW1 1685   1.542   2.121   1.821
  561SOL    HW2 1686   1.475   2.015   1.717
  562SOL     OW 1687   0.614   1.984   0.117
  562SOL    HW1 1688   0.712   1.962   0.124
  562SOL    HW2 1689   0.583   1.967   0.024
  563SOL     OW 1690   0.781   2.126   1.749
  563SOL    HW1 1691   0.848   2.065   1.792
  563SOL    HW2 1692   0.708   2.145   1.814
  564SOL     OW 1693   0.888   3.376   1.195
  564SOL    HW1 1694   0.865   3.351   1.101
  564SOL    HW2 1695   0.949   3.307   1.234
  565SOL     OW 1696   1.351   2.452   1.433
  565SOL    HW1 1697   1.379   2.409   1.518
  565SOL    HW2 1698   1.376   2.548   1.434
  566SOL     OW 1699   0.803   3.264   0.924
  566SOL    HW1 1700   0.893   3.278   0.882
  566SOL    HW2 1701   0.732   3.266   0.853
  567SOL     OW 1702   0.922   2.365   0.899
  567SOL    HW1 1703   0.897   2.356   0.803
  567SOL    HW2 1704   0.970   2.283   0.930
  568SOL     OW 1705   0.539   1.926   0.512
  568SOL    HW1 1706   0.458   1.927   0.570
  568SOL    HW2 1707   0.542   2.009   0.457
  569SOL     OW 1708   1.434   3.050   0.041
  569SOL    HW1 1709   1.466   2.974   0.098
  569SOL    HW2 1710   1.342   3.077   0.071
  570SOL     OW 1711   0.297   1.897   0.171
  570SOL    HW1 1712   0.346   1.981   0.150
  570SOL    HW2 1713   0.359   1.832   0.216
  571SOL     OW 1714   0.935   2.098   0.480
  571SOL    HW1 1715   0.887   2.139   0.402
  571SOL    HW2 1716   1.034   2.096   0.461
  572SOL     OW 1717   1.076   2.545   1.464
  572SOL    HW1 1718   0.996   2.484   1.467
  572SOL    HW2 1719   1.157   2.492   1.440
  573SOL     OW 1720   1.227   3.432   0.793
  573SOL    HW1 1721   1.248   3.506   0.728
  573SOL    HW2 1722   1.295   3.432   0.866
  574SOL     OW 1723   0.459   3.014   0.741
  574SOL    HW1 1724   0.388   2.987   0.806
  574SOL    HW2 1725   0.433   2.986   0.648
  575SOL     OW 1726   1.271   3.659   0.591
  575SOL    HW1 1727   1.315   3.723   0.527
  575SOL    HW2 1728   1.221   3.711   0.661
  576SOL     OW 1729   1.032   2.411   0.016
  576SOL    HW1 1730   0.991   2.493  -0.023
  576SOL    HW2 1731   1.096   2.437   0.089
  577SOL     OW 1732   0.078   2.418   1.386
  577SOL    HW1 1733   0.170   2.417   1.345
  577SOL    HW2 1734   0.072   2.492   1.453
  578SOL     OW 1735   0.561   2.084   1.147
  578SOL    HW1 1736   0.599   2.000   1.184
  578SOL    HW2 1737   0.473   2.103   1.191
  579SOL     OW 1738   0.866   2.316   0.642
  579SOL    HW1 1739   0.834   2.388   0.580
  579SOL    HW2 1740   0.890   2.235   0.589
  580SOL     OW 1741   1.017   1.901   0.753
  580SOL    HW1 1742   0.945   1.906   0.684
  580SOL    HW2 1743   0.993   1.832   0.822
  581SOL     OW 1744   1.429   3.035   0.867
  581SOL    HW1 1745   1.374   2.951   0.860
  581SOL    HW2 1746   1.455   3.064   0.775
  582SOL     OW 1747   1.466   2.452   0.992
  582SOL    HW1 1748   1.436   2.357   0.999
  582SOL    HW2 1749   1.539   2.468   1.058
  583SOL     OW 1750   1.857   2.695   0.377
  583SOL    HW1 1751   1.899   2.631   0.441
  583SOL    HW2 1752   1.819   2.644   0.299
  584SOL     OW 1753   0.488   3.247   0.174
  584SOL    HW1 1754   0.401   3.232   0.221
  584SOL    HW2 1755   0.471   3.273   0.079
  585SOL     OW 1756   1.664   3.142   0.657
  585SOL    HW1 1757   1.763   3.150   0.671
  585SOL    HW2 1758   1.619   3.226   0.688
  586SOL     OW 1759   1.390   2.437   0.078
  586SOL    HW1 1760   1.336   2.416   0.159
  586SOL    HW2 1761   1.481   2.396   0.087
  587SOL     OW 1762   0.527   2.118   0.328
  587SOL    HW1 1763   0.554   2.059   0.253
  587SOL    HW2 1764   0.527   2.213   0.297
  588SOL     OW 1765   1.754   3.085   1.588
  588SOL    HW1 1766   1.845   3.046   1.575
  588SOL    HW2 1767   1.762   3.181   1.612
  589SOL     OW 1768   1.064   3.209   1.340
  589SOL    HW1 1769   0.984   3.186   1.395
  589SOL    HW2 1770   1.147   3.183   1.389
  590SOL     OW 1771   1.592   3.491   1.625
  590SOL    HW1 1772   1.619   3.525   1.535
  590SOL    HW2 1773   1.671   3.453   1.671
  591SOL     OW 1774   1.111   3.057   1.100
  591SOL    HW1 1775   1.071   3.101   1.181
  591SOL    HW2 1776   1.070   3.094   1.017
  592SOL     OW 1777   1.638   2.961   1.079
  592SOL    HW1 1778   1.643   3.042   1.138
  592SOL    HW2 1779   1.552   2.963   1.028
  593SOL     OW 1780   0.915   1.951   1.402
  593SOL    HW1 1781   0.940   1.931   1.307
  593SOL    HW2 1782   0.987   2.007   1.444
  594SOL     OW 1783   0.980   2.978   1.719
  594SOL    HW1 1784   0.881   2.984   1.729
  594SOL    HW2 1785   1.003   2.898   1.663
  595SOL     OW 1786   0.705   2.912   0.368
  595SOL    HW1 1787   0.691   2.919   0.467
  595SOL    HW2 1788   0.789   2.861   0.350
  596SOL     OW 1789   0.410   2.675   1.251
  596SOL    HW1 1790   0.496   2.687   1.301
  596SOL    HW2 1791   0.368   2.588   1.278
  597SOL     OW 1792   1.274   2.248   1.262
  597SOL    HW1 1793   1.295   2.322   1.326
  597SOL    HW2 1794   1.185   2.265   1.219
  598SOL     OW 1795   0.064   3.426   1.331
  598SOL    HW1 1796   0.018   3.508   1.297
  598SOL    HW2 1797   0.162   3.445   1.340
  599SOL     OW 1798   0.367   2.962   0.501
  599SOL    HW1 1799   0.360   3.045   0.445
  599SOL    HW2 1800   0.371   2.882   0.441
  600SOL     OW 1801   0.566   2.399   0.865
  600SOL    HW1 1802   0.578   2.465   0.791
  600SOL    HW2 1803   0.612   2.433   0.948
  601SOL     OW 1804   1.252   3.210   0.388
  601SOL    HW1 1805   1.302   3.287   0.428
  601SOL    HW2 1806   1.157   3.212   0.420
  602SOL     OW 1807   1.272   3.307   1.142
  602SOL    HW1 1808   1.319   3.320   1.229
  602SOL    HW2 1809   1.206   3.233   1.151
  603SOL     OW 1810   1.582   2.501   0.472
  603SOL    HW1 1811   1.551   2.562   0.545
  603SOL    HW2 1812   1.632   2.553   0.403
  604SOL     OW 1813   0.354   3.372   1.329
  604SOL    HW1 1814   0.333   3.328   1.242
  604SOL    HW2 1815   0.451   3.398   1.332
  605SOL     OW 1816   0.402   2.613   1.598
  605SOL    HW1 1817   0.470   2.668   1.551
  605SOL    HW2 1818   0.442   2.525   1.625
  606SOL     OW 1819   1.587   2.641   1.670
  606SOL    HW1 1820   1.495   2.679   1.665
  606SOL    HW2 1821   1.647   2.688   1.605
  607SOL     OW 1822   1.013   1.967   1.770
  607SOL    HW1 1823   1.019   2.052   1.718
  607SOL    HW2 1824   1.045   1.891   1.713
  608SOL     OW 1825   0.504   1.912   1.740
  608SOL    HW1 1826   0.462   1.855   1.670
  608SOL    HW2 1827   0.438   1.981   1.772
  609SOL     OW 1828   0.573   2.732   1.029
  609SOL    HW1 1829   0.617   2.821   1.020
  609SOL    HW2 1830   0.510   2.732   1.106
  610SOL     OW 1831   1.360   2.724   1.045
  610SOL    HW1 1832   1.285   2.724   0.979
  610SOL    HW2 1833   1.397   2.632   1.054
  611SOL     OW 1834   1.209   2.387   0.275
  611SOL    HW1 1835   1.222   2.303   0.329
  611SOL    HW2 1836   1.180   2.461   0.335
  612SOL     OW 1837   0.307   2.075   1.231
  612SOL    HW1 1838   0.284   2.112   1.321
  612SOL    HW2 1839   0.277   1.980   1.225
  613SOL     OW 1840   0.037   3.172   1.282
  613SOL    HW1 1841   0.090   3.123   1.350
  613SOL    HW2 1842   0.059   3.270   1.287
  614SOL     OW 1843   0.732   2.496   1.064
  614SOL    HW1 1844   0.791   2.470   0.988
  614SOL    HW2 1845   0.704   2.592   1.053
  615SOL     OW 1846   1.728   2.797   1.854
  615SOL    HW1 1847   1.682   2.790   1.765
  615SOL    HW2 1848   1.666   2.841   1.920
  616SOL     OW 1849   0.307   1.925   0.618
  616SOL    HW1 1850   0.296   2.019   0.651
  616SOL    HW2 1851   0.302   1.862   0.695
  617SOL     OW 1852   1.622   2.229   0.374
  617SOL    HW1 1853   1.624   2.153   0.438
  617SOL    HW2 1854   1.574   2.306   0.414
  618SOL     OW 1855   1.023   2.628   0.966
  618SOL    HW1 1856   1.038   2.649   1.062
  618SOL    HW2 1857   0.993   2.533   0.957
  619SOL     OW 1858   0.980   3.435   1.700
  619SOL    HW1 1859   0.960   3.479   1.612
  619SOL    HW2 1860   1.019   3.344   1.684
  620SOL     OW 1861   1.859   3.380   1.605
  620SOL    HW1 1862   1.873   3.407   1.510
  620SOL    HW2 1863   1.942   3.402   1.658
  621SOL     OW 1864   0.350   2.760   1.804
  621SOL    HW1 1865   0.426   2.804   1.852
  621SOL    HW2 1866   0.385   2.713   1.722
  622SOL     OW 1867   1.540   2.136   0.125
  622SOL    HW1 1868   1.479   2.061   0.148
  622SOL    HW2 1869   1.562   2.188   0.208
  623SOL     OW 1870   1.303   2.700   0.042
  623SOL    HW1 1871   1.337   2.607   0.057
  623SOL    HW2 1872   1.321   2.727  -0.053
  624SOL     OW 1873   1.068   3.195   0.849
  624SOL    HW1 1874   1.075   3.111   0.794
  624SOL    HW2 1875   1.130   3.264   0.813
  625SOL     OW 1876   0.319   2.672   0.949
  625SOL    HW1 1877   0.412   2.708   0.954
  625SOL    HW2 1878   0.313   2.587   1.001
  626SOL     OW 1879   0.339   2.371   1.006
  626SOL    HW1 1880   0.287   2.288   0.989
  626SOL    HW2 1881   0.416   2.376   0.942
  627SOL     OW 1882   1.138   2.242   1.678
  627SOL    HW1 1883   1.093   2.305   1.742
  627SOL    HW2 1884   1.231   2.273   1.661
  628SOL     OW 1885   1.160   2.069   1.477
  628SOL    HW1 1886   1.160   2.133   1.554
  628SOL    HW2 1887   1.188   2.117   1.394
  629SOL     OW 1888   0.008   3.188   0.200
  629SOL    HW1 1889  -0.085   3.209   0.169
  629SOL    HW2 1890   0.018   3.089   0.213
  630SOL     OW 1891   0.088   3.663   0.927
  630SOL    HW1 1892   0.046   3.577   0.900
  630SOL    HW2 1893   0.182   3.666   0.893
  631SOL     OW 1894   0.504   3.430   0.910
  631SOL    HW1 1895   0.570   3.504   0.919
  631SOL    HW2 1896   0.548   3.351   0.868
  632SOL     OW 1897   1.002   2.658   1.238
  632SOL    HW1 1898   1.043   2.626   1.324
  632SOL    HW2 1899   0.906   2.631   1.235
  633SOL     OW 1900   0.040   2.406   1.114
  633SOL    HW1 1901   0.125   2.373   1.073
  633SOL    HW2 1902   0.053   2.421   1.212
  634SOL     OW 1903   0.189   2.382   1.722
  634SOL    HW1 1904   0.248   2.342   1.652
  634SOL    HW2 1905   0.131   2.453   1.681
  635SOL     OW 1906   1.369   2.812   1.660
  635SOL    HW1 1907   1.408   2.901   1.680
  635SOL    HW2 1908   1.379   2.792   1.563
  636SOL     OW 1909   0.815   2.434   0.325
  636SOL    HW1 1910   0.822   2.345   0.279
  636SOL    HW2 1911   0.721   2.468   0.317
  637SOL     OW 1912   1.657   2.466   1.206
  637SOL    HW1 1913   1.619   2.397   1.268
  637SOL    HW2 1914   1.739   2.430   1.162
  638SOL     OW 1915   0.252   3.426   1.744
  638SOL    HW1 1916   0.222   3.483   1.820
  638SOL    HW2 1917   0.245   3.329   1.770
  639SOL     OW 1918   0.671   2.326   1.269
  639SOL    HW1 1919   0.637   2.237   1.239
  639SOL    HW2 1920   0.697   2.380   1.189
  640SOL     OW 1921   0.930   3.540   1.465
  640SOL    HW1 1922   0.906   3.522   1.370
  640SOL    HW2 1923   0.960   3.634   1.475
  641SOL     OW 1924   0.473   2.362   0.191
  641SOL    HW1 1925   0.534   2.442   0.195
  641SOL    HW2 1926   0.378   2.393   0.198
  642SOL     OW 1927   0.159   2.999   1.466
  642SOL    HW1 1928   0.181   2.938   1.542
  642SOL    HW2 1929   0.169   2.950   1.380
  643SOL     OW 1930   1.347   2.921   1.234
  643SOL    HW1 1931   1.371   2.858   1.160
  643SOL    HW2 1932   1.257   2.961   1.216
  644SOL     OW 1933   1.302   2.717   0.309
  644SOL    HW1 1934   1.216   2.686   0.351
  644SOL    HW2 1935   1.298   2.703   0.210
  645SOL     OW 1936   1.759   3.609   1.154
  645SOL    HW1 1937   1.820   3.639   1.081
  645SOL    HW2 1938   1.721   3.520   1.132
  646SOL     OW 1939   1.252   3.593   1.128
  646SOL    HW1 1940   1.336   3.598   1.074
  646SOL    HW2 1941   1.229   3.497   1.146
  647SOL     OW 1942   0.083   3.120   1.022
  647SOL    HW1 1943   0.078   3.119   1.122
  647SOL    HW2 1944   0.000   3.079   0.984
  648SOL     OW 1945   0.688   3.524   1.716
  648SOL    HW1 1946   0.632   3.605   1.725
  648SOL    HW2 1947   0.740   3.528   1.630
  649SOL     OW 1948   0.903   1.948   0.133
  649SOL    HW1 1949   0.954   1.949   0.047
  649SOL    HW2 1950   0.959   1.906   0.204
  650SOL     OW 1951   1.726   1.997   0.523
  650SOL    HW1 1952   1.799   1.980   0.456
  650SOL    HW2 1953   1.695   1.910   0.561
  651SOL     OW 1954   1.388   3.435   0.477
  651SOL    HW1 1955   1.455   3.447   0.403
  651SOL    HW2 1956   1.348   3.524   0.500
  652SOL     OW 1957   0.130   3.656   1.851
  652SOL    HW1 1958   0.089   3.582   1.904
  652SOL    HW2 1959   0.194   3.707   1.909
  653SOL     OW 1960   1.280   2.789   0.672
  653SOL    HW1 1961   1.340   2.708   0.674
  653SOL    HW2 1962   1.320   2.858   0.612
  654SOL     OW 1963   0.830   3.135   1.422
  654SOL    HW1 1964   0.825   3.168   1.517
  654SOL    HW2 1965   0.744   3.154   1.376
  655SOL     OW 1966   0.672   3.478   0.154
  655SOL    HW1 1967   0.681   3.488   0.055
  655SOL    HW2 1968   0.632   3.389   0.175
  656SOL     OW 1969   1.650   3.582   1.394
  656SOL    HW1 1970   1.703   3.592   1.310
  656SOL    HW2 1971   1.623   3.672   1.428
  657SOL     OW 1972   1.841   2.037   0.963
  657SOL    HW1 1973   1.880   1.952   0.927
  657SOL    HW2 1974   1.743   2.039   0.944
  658SOL     OW 1975   0.263   2.188   0.720
  658SOL    HW1 1976   0.184   2.239   0.686
  658SOL    HW2 1977   0.254   2.173   0.818
  659SOL     OW 1978   1.194   3.474   0.031
  659SOL    HW1 1979   1.200   3.381   0.068
  659SOL    HW2 1980   1.135   3.474  -0.049
  660SOL     OW 1981   0.822   2.864   1.372
  660SOL    HW1 1982   0.862   2.863   1.280
  660SOL    HW2 1983   0.832   2.956   1.412
  661SOL     OW 1984   0.916   2.772   0.291
  661SOL    HW1 1985   0.979   2.810   0.223
  661SOL    HW2 1986   0.956   2.689   0.330
  662SOL     OW 1987   1.504   3.469   0.044
  662SOL    HW1 1988   1.412   3.506   0.051
  662SOL    HW2 1989   1.542   3.489  -0.046
  663SOL     OW 1990   0.372   3.150   1.490
  663SOL    HW1 1991   0.359   3.243   1.456
  663SOL    HW2 1992   0.288   3.098   1.477
  664SOL     OW 1993   1.614   3.154   1.289
  664SOL    HW1 1994   1.674   3.157   1.369
  664SOL    HW2 1995   1.539   3.218   1.302
  665SOL     OW 1996   1.039   2.960   0.696
  665SOL    HW1 1997   0.969   2.913   0.750
  665SOL    HW2 1998   1.098   2.892   0.653
  666SOL     OW 1999   1.014   2.098   0.971
  666SOL    HW1 2000   1.006   2.062   0.878
  666SOL    HW2 2001   1.012   2.022   1.036
  667SOL     OW 2002   0.590   3.349   0.491
  667SOL    HW1 2003   0.632   3.291   0.421
  667SOL    HW2 2004   0.546   3.428   0.447
  668SOL     OW 2005   1.709   2.247   1.381
  668SOL    HW1 2006   1.782   2.316   1.385
  668SOL    HW2 2007   1.737   2.172   1.322
  669SOL     OW 2008   0.255   3.210   0.290
  669SOL    HW1 2009   0.159   3.211   0.263
  669SOL    HW2 2010   0.267   3.263   0.374
  670SOL     OW 2011   0.105   2.875   1.726
  670SOL    HW1 2012   0.028   2.842   1.780
  670SOL    HW2 2013   0.190   2.845   1.768
  671SOL     OW 2014   0.672   2.065   1.489
  671SOL    HW1 2015   0.762   2.049   1.449
  671SOL    HW2 2016   0.680   2.070   1.588
  672SOL     OW 2017   0.075   2.207   0.033
  672SOL    HW1 2018  -0.017   2.179   0.004
  672SOL    HW2 2019   0.106   2.284  -0.023
  673SOL     OW 2020   1.440   2.718   1.398
  673SOL    HW1 2021   1.383   2.770   1.335
  673SOL    HW2 2022   1.536   2.730   1.374
  674SOL     OW 2023   0.072   2.028   0.318
  674SOL    HW1 2024   0.055   2.111   0.264
  674SOL    HW2 2025   0.162   1.991   0.296
  675SOL     OW 2026   1.183   3.197   0.119
  675SOL    HW1 2027   1.084   3.186   0.121
  675SOL    HW2 2028   1.217   3.212   0.212
  676SOL     OW 2029   0.613   2.704   1.431
  676SOL    HW1 2030   0.669   2.785   1.414
  676SOL    HW2 2031   0.672   2.624   1.434
  677SOL     OW 2032   1.493   3.629   0.959
  677SOL    HW1 2033   1.526   3.693   0.890
  677SOL    HW2 2034   1.559   3.623   1.034
  678SOL     OW 2035   0.716   2.427   1.708
  678SOL    HW1 2036   0.735   2.492   1.782
  678SOL    HW2 2037   0.776   2.347   1.717
  679SOL     OW 2038   1.450   3.082   1.633
  679SOL    HW1 2039   1.441   3.072   1.732
  679SOL    HW2 2040   1.546   3.075   1.607
  680SOL     OW 2041   0.390   3.603   1.560
  680SOL    HW1 2042   0.299   3.644   1.558
  680SOL    HW2 2043   0.383   3.509   1.592
  681SOL     OW 2044   1.674   2.745   1.254
  681SOL    HW1 2045   1.647   2.656   1.217
  681SOL    HW2 2046   1.675   2.813   1.181
  682SOL     OW 2047   1.225   2.187   0.449
  682SOL    HW1 2048   1.290   2.113   0.438
  682SOL    HW2 2049   1.245   2.237   0.533
  683SOL     OW 2050   0.594   2.607   0.652
  683SOL    HW1 2051   0.644   2.692   0.633
  683SOL    HW2 2052   0.506   2.609   0.604
  684SOL     OW 2053   1.777   2.204   1.642
  684SOL    HW1 2054   1.760   2.235   1.548
  684SOL    HW2 2055   1.693   2.167   1.680
  685SOL     OW 2056   1.730   2.796   1.517
  685SOL    HW1 2057   1.768   2.887   1.532
  685SOL    HW2 2058   1.722   2.779   1.418
  686SOL     OW 2059   0.859   3.236   0.016
  686SOL    HW1 2060   0.813   3.251   0.104
  686SOL    HW2 2061   0.903   3.321  -0.014
  687SOL     OW 2062   0.661   3.652   0.953
  687SOL    HW1 2063   0.615   3.740   0.940
  687SOL    HW2 2064   0.760   3.664   0.946
  688SOL     OW 2065   0.859   2.818   0.861
  688SOL    HW1 2066   0.913   2.749   0.909
  688SOL    HW2 2067   0.827   2.887   0.927
  689SOL     OW 2068   1.083   2.846   0.087
  689SOL    HW1 2069   1.060   2.899   0.005
  689SOL    HW2 2070   1.164   2.790   0.068
  690SOL     OW 2071   1.861   3.431   0.851
  690SOL    HW1 2072   1.790   3.419   0.781
  690SOL    HW2 2073   1.862   3.352   0.911
  691SOL     OW 2074   0.221   3.176   1.844
  691SOL    HW1 2075   0.156   3.103   1.823
  691SOL    HW2 2076   0.225   3.190   1.942
  692SOL     OW 2077   0.079   3.102   0.653
  692SOL    HW1 2078   0.078   3.055   0.741
  692SOL    HW2 2079   0.161   3.074   0.602
  693SOL     OW 2080   0.672   3.253   1.624
  693SOL    HW1 2081   0.594   3.203   1.662
  693SOL    HW2 2082   0.669   3.348   1.655
  694SOL     OW 2083   1.824   2.054   1.227
  694SOL    HW1 2084   1.820   1.964   1.271
  694SOL    HW2 2085   1.827   2.043   1.128
  695SOL     OW 2086   0.428   2.286   0.520
  695SOL    HW1 2087   0.458   2.214   0.458
  695SOL    HW2 2088   0.389   2.246   0.603
  696SOL     OW 2089   1.705   3.349   1.104
  696SOL    HW1 2090   1.612   3.324   1.077
  696SOL    HW2 2091   1.731   3.299   1.186
  697SOL     OW 2092   0.317   2.409   1.280
  697SOL    HW1 2093   0.355   2.350   1.352
  697SOL    HW2 2094   0.357   2.383   1.192
  698SOL     OW 2095   0.812   3.448   0.687
  698SOL    HW1 2096   0.844   3.458   0.593
  698SOL    HW2 2097   0.733   3.386   0.689
  699SOL     OW 2098   1.424   2.076   1.112
  699SOL    HW1 2099   1.476   2.011   1.167
  699SOL    HW2 2100   1.375   2.139   1.173
  700SOL     OW 2101   1.001   1.896   1.154
  700SOL    HW1 2102   0.938   1.824   1.123
  700SOL    HW2 2103   1.094   1.860   1.154
  701SOL     OW 2104   0.770   3.192   0.301
  701SOL    HW1 2105   0.724   3.105   0.318
  701SOL    HW2 2106   0.861   3.189   0.342
  702SOL     OW 2107   0.618   3.429   1.284
  702SOL    HW1 2108   0.613   3.511   1.341
  702SOL    HW2 2109   0.707   3.426   1.239
  703SOL     OW 2110   1.352   1.914   0.168
  703SOL    HW1 2111   1.387   1.873   0.084
  703SOL    HW2 2112   1.262   1.876   0.188
  704SOL     OW 2113   1.300   2.315   0.691
  704SOL    HW1 2114   1.241   2.395   0.695
  704SOL    HW2 2115   1.315   2.280   0.784
  705SOL     OW 2116   1.593   2.083   0.882
  705SOL    HW1 2117   1.509   2.082   0.936
  705SOL    HW2 2118   1.595   2.166   0.826
  706SOL     OW 2119   0.039   2.939   0.300
  706SOL    HW1 2120   0.138   2.928   0.291
  706SOL    HW2 2121  -0.001   2.853   0.332
  707SOL     OW 2122   0.875   3.508   0.337
  707SOL    HW1 2123   0.798   3.473   0.283
  707SOL    HW2 2124   0.843   3.579   0.399
  708SOL     OW 2125   0.230   2.490   1.975
  708SOL    HW1 2126   0.137   2.488   2.012
  708SOL    HW2 2127   0.231   2.451   1.883
  709SOL     OW 2128   0.225   2.137   2.858
  709SOL    HW1 2129   0.260   2.120   2.950
  709SOL    HW2 2130   0.137   2.092   2.846
  710SOL     OW 2131   0.019   2.230   2.509
  710SOL    HW1 2132  -0.063   2.273   2.548
  710SOL    HW2 2133  -0.009   2.157   2.446
  711SOL     OW 2134   0.569   3.137   3.027
  711SOL    HW1 2135   0.476   3.130   2.990
  711SOL    HW2 2136   0.580   3.226   3.071
  712SOL     OW 2137   1.555   3.373   2.565
  712SOL    HW1 2138   1.498   3.357   2.646
  712SOL    HW2 2139   1.496   3.383   2.485
  713SOL     OW 2140   1.135   2.565   2.579
  713SOL    HW1 2141   1.192   2.643   2.554
  713SOL    HW2 2142   1.075   2.591   2.655
  714SOL     OW 2143   1.755   2.469   2.093
  714SOL    HW1 2144   1.743   2.456   1.994
  714SOL    HW2 2145   1.725   2.388   2.142
  715SOL     OW 2146   0.768   3.006   2.885
  715SOL    HW1 2147   0.690   3.023   2.945
  715SOL    HW2 2148   0.802   3.093   2.849
  716SOL     OW 2149   0.850   2.660   3.685
  716SOL    HW1 2150   0.846   2.736   3.750
  716SOL    HW2 2151   0.872   2.696   3.594
  717SOL     OW 2152   0.685   2.874   2.527
  717SOL    HW1 2153   0.754   2.858   2.597
  717SOL    HW2 2154   0.612   2.931   2.565
  718SOL     OW 2155   0.686   3.023   3.665
  718SOL    HW1 2156   0.746   3.102   3.679
  718SOL    HW2 2157   0.600   3.054   3.624
  719SOL     OW 2158   0.335   3.297   2.923
  719SOL    HW1 2159   0.257   3.266   2.870
  719SOL    HW2 2160   0.393   3.355   2.866
  720SOL     OW 2161   1.460   3.367   3.201
  720SOL    HW1 2162   1.484   3.461   3.227
  720SOL    HW2 2163   1.444   3.313   3.283
  721SOL     OW 2164   0.438   2.254   3.361
  721SOL    HW1 2165   0.520   2.198   3.370
  721SOL    HW2 2166   0.357   2.196   3.365
  722SOL     OW 2167   1.603   2.309   2.599
  722SOL    HW1 2168   1.529   2.355   2.549
  722SOL    HW2 2169   1.654   2.377   2.652
  723SOL     OW 2170   0.231   3.575   2.345
  723SOL    HW1 2171   0.265   3.652   2.399
  723SOL    HW2 2172   0.275   3.575   2.255
  724SOL     OW 2173   1.127   3.203   3.552
  724SOL    HW1 2174   1.174   3.203   3.640
  724SOL    HW2 2175   1.079   3.116   3.541
  725SOL     OW 2176   0.230   3.296   2.400
  725SOL    HW1 2177   0.204   3.392   2.400
  725SOL    HW2 2178   0.159   3.242   2.445
  726SOL     OW 2179   0.240   2.953   2.748
  726SOL    HW1 2180   0.254   2.869   2.800
  726SOL    HW2 2181   0.185   3.017   2.803
  727SOL     OW 2182   0.620   3.648   3.301
  727SOL    HW1 2183   0.528   3.631   3.336
  727SOL    HW2 2184   0.648   3.740   3.327
  728SOL     OW 2185   0.606   2.826   1.985
  728SOL    HW1 2186   0.613   2.910   1.931
  728SOL    HW2 2187   0.652   2.839   2.073
  729SOL     OW 2188   1.594   1.976   3.342
  729SOL    HW1 2189   1.576   2.043   3.270
  729SOL    HW2 2190   1.591   2.022   3.431
  730SOL     OW 2191   0.122   2.505   2.425
  730SOL    HW1 2192   0.077   2.417   2.442
  730SOL    HW2 2193   0.121   2.559   2.509
  731SOL     OW 2194   1.842   3.629   2.221
  731SOL    HW1 2195   1.896   3.600   2.301
  731SOL    HW2 2196   1.872   3.719   2.192
  732SOL     OW 2197   0.027   3.458   1.979
  732SOL    HW1 2198   0.008   3.362   2.000
  732SOL    HW2 2199  -0.006   3.516   2.054
  733SOL     OW 2200   1.689   2.784   2.474
  733SOL    HW1 2201   1.784   2.755   2.482
  733SOL    HW2 2202   1.681   2.849   2.399
  734SOL     OW 2203   1.641   2.970   2.294
  734SOL    HW1 2204   1.727   2.972   2.242
  734SOL    HW2 2205   1.655   3.017   2.382
  735SOL     OW 2206   0.113   2.599   3.459
  735SOL    HW1 2207   0.201   2.586   3.504
  735SOL    HW2 2208   0.100   2.696   3.437
  736SOL     OW 2209   0.613   3.227   2.588
  736SOL    HW1 2210   0.564   3.140   2.597
  736SOL    HW2 2211   0.590   3.270   2.501
  737SOL     OW 2212   1.293   3.090   3.285
  737SOL    HW1 2213   1.330   3.017   3.227
  737SOL    HW2 2214   1.345   3.095   3.370
  738SOL     OW 2215   0.809   1.866   2.364
  738SOL    HW1 2216   0.849   1.957   2.355
  738SOL    HW2 2217   0.709   1.874   2.370
  739SOL     OW 2218   0.197   2.838   3.126
  739SOL    HW1 2219   0.286   2.793   3.112
  739SOL    HW2 2220   0.124   2.773   3.107
  740SOL     OW 2221   1.525   2.861   2.052
  740SOL    HW1 2222   1.462   2.785   2.065
  740SOL    HW2 2223   1.573   2.879   2.138
  741SOL     OW 2224   1.187   3.654   3.478
  741SOL    HW1 2225   1.211   3.714   3.402
  741SOL    HW2 2226   1.194   3.559   3.448
  742SOL     OW 2227   0.317   2.113   3.663
  742SOL    HW1 2228   0.388   2.184   3.669
  742SOL    HW2 2229   0.229   2.152   3.691
  743SOL     OW 2230   1.466   3.279   2.815
  743SOL    HW1 2231   1.407   3.285   2.895
  743SOL    HW2 2232   1.451   3.191   2.769
  744SOL     OW 2233   1.667   3.576   2.434
  744SOL    HW1 2234   1.626   3.553   2.346
  744SOL    HW2 2235   1.649   3.502   2.499
  745SOL     OW 2236   0.598   2.591   2.132
  745SOL    HW1 2237   0.622   2.660   2.064
  745SOL    HW2 2238   0.520   2.624   2.186
  746SOL     OW 2239   1.281   2.207   2.806
  746SOL    HW1 2240   1.195   2.157   2.793
  746SOL    HW2 2241   1.343   2.153   2.862
  747SOL     OW 2242   1.576   3.524   2.169
  747SOL    HW1 2243   1.665   3.570   2.172
  747SOL    HW2 2244   1.555   3.500   2.074
  748SOL     OW 2245   0.807   2.467   3.327
  748SOL    HW1 2246   0.760   2.464   3.416
  748SOL    HW2 2247   0.756   2.412   3.261
  749SOL     OW 2248   1.394   2.331   3.536
  749SOL    HW1 2249   1.374   2.374   3.624
  749SOL    HW2 2250   1.472   2.269   3.545
  750SOL     OW 2251   0.973   2.752   3.434
  750SOL    HW1 2252   1.019   2.668   3.405
  750SOL    HW2 2253   0.917   2.786   3.359
  751SOL     OW 2254   0.991   2.272   3.104
  751SOL    HW1 2255   0.914   2.306   3.158
  751SOL    HW2 2256   0.957   2.221   3.025
  752SOL     OW 2257   1.041   2.563   2.291
  752SOL    HW1 2258   1.067   2.559   2.387
  752SOL    HW2 2259   0.956   2.512   2.277
  753SOL     OW 2260   0.076   2.673   2.651
  753SOL    HW1 2261   0.175   2.661   2.660
  753SOL    HW2 2262   0.052   2.768   2.672
  754SOL     OW 2263   0.130   3.683   3.433
  754SOL    HW1 2264   0.120   3.668   3.532
  754SOL    HW2 2265   0.044   3.719   3.397
  755SOL     OW 2266   0.865   2.210   2.057
  755SOL    HW1 2267   0.924   2.273   2.008
  755SOL    HW2 2268   0.884   2.116   2.028
  756SOL     OW 2269   1.719   2.447   3.693
  756SOL    HW1 2270   1.693   2.536   3.657
  756SOL    HW2 2271   1.717   2.379   3.620
  757SOL     OW 2272   1.362   3.006   2.407
  757SOL    HW1 2273   1.445   2.977   2.359
  757SOL    HW2 2274   1.313   3.073   2.351
  758SOL     OW 2275   0.550   2.058   2.747
  758SOL    HW1 2276   0.545   2.053   2.847
  758SOL    HW2 2277   0.552   2.154   2.718
  759SOL     OW 2278   1.008   3.318   2.339
  759SOL    HW1 2279   0.962   3.390   2.287
  759SOL    HW2 2280   1.004   3.338   2.437
  760SOL     OW 2281   0.351   3.663   2.715
  760SOL    HW1 2282   0.401   3.577   2.721
  760SOL    HW2 2283   0.416   3.740   2.712
  761SOL     OW 2284   1.795   2.928   2.735
  761SOL    HW1 2285   1.733   2.913   2.659
  761SOL    HW2 2286   1.743   2.939   2.820
  762SOL     OW 2287   1.227   3.412   3.368
  762SOL    HW1 2288   1.233   3.335   3.432
  762SOL    HW2 2289   1.175   3.386   3.288
  763SOL     OW 2290   0.321   2.805   2.104
  763SOL    HW1 2291   0.403   2.844   2.062
  763SOL    HW2 2292   0.294   2.723   2.055
  764SOL     OW 2293   1.458   2.597   2.590
  764SOL    HW1 2294   1.453   2.532   2.665
  764SOL    HW2 2295   1.538   2.656   2.603
  765SOL     OW 2296   0.461   3.128   3.589
  765SOL    HW1 2297   0.411   3.129   3.503
  765SOL    HW2 2298   0.398   3.110   3.665
  766SOL     OW 2299   1.111   3.638   2.099
  766SOL    HW1 2300   1.051   3.576   2.149
  766SOL    HW2 2301   1.142   3.594   2.014
  767SOL     OW 2302   0.202   2.147   3.360
  767SOL    HW1 2303   0.122   2.207   3.347
  767SOL    HW2 2304   0.192   2.098   3.446
  768SOL     OW 2305   1.632   3.239   1.943
  768SOL    HW1 2306   1.600   3.333   1.933
  768SOL    HW2 2307   1.556   3.176   1.931
  769SOL     OW 2308   0.464   3.605   2.185
  769SOL    HW1 2309   0.497   3.644   2.271
  769SOL    HW2 2310   0.540   3.598   2.120
  770SOL     OW 2311   1.400   1.969   2.288
  770SOL    HW1 2312   1.376   1.932   2.198
  770SOL    HW2 2313   1.499   1.985   2.292
  771SOL     OW 2314   0.249   3.647   3.103
  771SOL    HW1 2315   0.306   3.582   3.153
  771SOL    HW2 2316   0.233   3.614   3.010
  772SOL     OW 2317   0.940   3.560   2.766
  772SOL    HW1 2318   1.020   3.503   2.787
  772SOL    HW2 2319   0.891   3.520   2.689
  773SOL     OW 2320   0.382   2.562   2.342
  773SOL    HW1 2321   0.427   2.472   2.339
  773SOL    HW2 2322   0.288   2.551   2.375
  774SOL     OW 2323   1.547   2.084   3.591
  774SOL    HW1 2324   1.542   2.121   3.683
  774SOL    HW2 2325   1.475   2.015   3.579
  775SOL     OW 2326   0.614   1.984   1.979
  775SOL    HW1 2327   0.712   1.962   1.986
  775SOL    HW2 2328   0.583   1.967   1.886
  776SOL     OW 2329   0.781   2.126   3.611
  776SOL    HW1 2330   0.848   2.065   3.654
  776SOL    HW2 2331   0.708   2.145   3.676
  777SOL     OW 2332   0.888   3.376   3.057
  777SOL    HW1 2333   0.865   3.351   2.963
  777SOL    HW2 2334   0.949   3.307   3.096
  778SOL     OW 2335   1.351   2.452   3.295
  778SOL    HW1 2336   1.379   2.409   3.380
  778SOL    HW2 2337   1.376   2.548   3.296
  779SOL     OW 2338   0.803   3.264   2.786
  779SOL    HW1 2339   0.893   3.278   2.744
  779SOL    HW2 2340   0.732   3.266   2.715
  780SOL     OW 2341   0.922   2.365   2.761
  780SOL    HW1 2342   0.897   2.356   2.665
  780SOL    HW2 2343   0.970   2.283   2.792
  781SOL     OW 2344   0.539   1.926   2.374
  781SOL    HW1 2345   0.458   1.927   2.432
  781SOL    HW2 2346   0.542   2.009   2.319
  782SOL     OW 2347   1.434   3.050   1.903
  782SOL    HW1 2348   1.466   2.974   1.960
  782SOL    HW2 2349   1.342   3.077   1.933
  783SOL     OW 2350   0.297   1.897   2.033
  783SOL    HW1 2351   0.346   1.981   2.012
  783SOL    HW2 2352   0.359   1.832   2.078
  784SOL     OW 2353   0.935   2.098   2.342
  784SOL    HW1 2354   0.887   2.139   2.264
  784SOL    HW2 2355   1.034   2.096   2.323
  785SOL     OW 2356   1.076   2.545   3.326
  785SOL    HW1 2357   0.996   2.484   3.329
  785SOL    HW2 2358   1.157   2.492   3.302
  786SOL     OW 2359   1.227   3.432   2.655
  786SOL    HW1 2360   1.248   3.506   2.590
  786SOL    HW2 2361   1.295   3.432   2.728
  787SOL     OW 2362   0.459   3.014   2.603
  787SOL    HW1 2363   0.388   2.987   2.668
  787SOL    HW2 2364   0.433   2.986   2.510
  788SOL     OW 2365   1.271   3.659   2.453
  788SOL    HW1 2366   1.315   3.723   2.389
  788SOL    HW2 2367   1.221   3.711   2.523
  789SOL     OW 2368   1.032   2.411   1.878
  789SOL    HW1 2369   0.991   2.493   1.839
  789SOL    HW2 2370   1.096   2.437   1.951
  790SOL     OW 2371   0.078   2.418   3.248
  790SOL    HW1 2372   0.170   2.417   3.207
  790SOL    HW2 2373   0.072   2.492   3.315
  791SOL     OW 2374   0.561   2.084   3.009
  791SOL    HW1 2375   0.599   2.000   3.046
  791SOL    HW2 2376   0.473   2.103   3.053
  792SOL     OW 2377   0.866   2.316   2.504
  792SOL    HW1 2378   0.834   2.388   2.442
  792SOL    HW2 2379   0.890   2.235   2.451
  793SOL     OW 2380   1.017   1.901   2.615
  793SOL    HW1 2381   0.945   1.906   2.546
  793SOL    HW2 2382   0.993   1.832   2.684
  794SOL     OW 2383   1.429   3.035   2.729
  794SOL    HW1 2384   1.374   2.951   2.722
  794SOL    HW2 2385   1.455   3.064   2.637
  795SOL     OW 2386   1.466   2.452   2.854
  795SOL    HW1 2387   1.436   2.357   2.861
  795SOL    HW2 2388   1.539   2.468   2.920
  796SOL     OW 2389   1.857   2.695   2.239
  796SOL    HW1 2390   1.899   2.631   2.303
  796SOL    HW2 2391   1.819   2.644   2.161
  797SOL     OW 2392   0.488   3.247   2.036
  797SOL    HW1 2393   0.401   3.232   2.083
  797SOL    HW2 2394   0.471   3.273   1.941
  798SOL     OW 2395   1.664   3.142   2.519
  798SOL    HW1 2396   1.763   3.150   2.533
  798SOL    HW2 2397   1.619   3.226   2.550
  799SOL     OW 2398   1.390   2.437   1.940
  799SOL    HW1 2399   1.336   2.416   2.021
  799SOL    HW2 2400   1.481   2.396   1.949
  800SOL     OW 2401   0.527   2.118   2.190
  800SOL    HW1 2402   0.554   2.059   2.115
  800SOL    HW2 2403   0.527   2.213   2.159
  801SOL     OW 2404   1.754   3.085   3.450
  801SOL    HW1 2405   1.845   3.046   3.437
  801SOL    HW2 2406   1.762   3.181   3.474
  802SOL     OW 2407   1.064   3.209   3.202
  802SOL    HW1 2408   0.984   3.186   3.257
  802SOL    HW2 2409   1.147   3.183   3.251
  803SOL     OW 2410   1.592   3.491   3.487
  803SOL    HW1 2411   1.619   3.525   3.397
  803SOL    HW2 2412   1.671   3.453   3.533
  804SOL     OW 2413   1.111   3.057   2.962
  804SOL    HW1 2414   1.071   3.101   3.043
  804SOL    HW2 2415   1.070   3.094   2.879
  805SOL     OW 2416   1.638   2.961   2.941
  805SOL    HW1 2417   1.643   3.042   3.000
  805SOL    HW2 2418   1.552   2.963   2.890
  806SOL     OW 2419   0.915   1.951   3.264
  806SOL    HW1 2420   0.940   1.931   3.169
  806SOL    HW2 2421   0.987   2.007   3.306
  807SOL     OW 2422   0.980   2.978   3.581
  807SOL    HW1 2423   0.881   2.984   3.591
  807SOL    HW2 2424   1.003   2.898   3.525
  808SOL     OW 2425   0.705   2.912   2.230
  808SOL    HW1 2426   0.691   2.919   2.329
  808SOL    HW2 2427   0.789   2.861   2.212
  809SOL     OW 2428   0.410   2.675   3.113
  809SOL    HW1 2429   0.496   2.687   3.163
  809SOL    HW2 2430   0.368   2.588   3.140
  810SOL     OW 2431   1.274   2.248   3.124
  810SOL    HW1 2432   1.295   2.322   3.188
  810SOL    HW2 2433   1.185   2.265   3.081
  811SOL     OW 2434   0.064   3.426   3.193
  811SOL    HW1 2435   0.018   3.508   3.159
  811SOL    HW2 2436   0.162   3.445   3.202
  812SOL     OW 2437   0.367   2.962   2.363
  812SOL    HW1 2438   0.360   3.045   2.307
  812SOL    HW2 2439   0.371   2.882   2.303
  813SOL     OW 2440   0.566   2.399   2.727
  813SOL    HW1 2441   0.578   2.465   2.653
  813SOL    HW2 2442   0.612   2.433   2.810
  814SOL     OW 2443   1.252   3.210   2.250
  814SOL    HW1 2444   1.302   3.287   2.290
  814SOL    HW2 2445   1.157   3.212   2.282
  815SOL     OW 2446   1.272   3.307   3.004
  815SOL    HW1 2447   1.319   3.320   3.091
  815SOL    HW2 2448   1.206   3.233   3.013
  816SOL     OW 2449   1.582   2.501   2.334
  816SOL    HW1 2450   1.551   2.562   2.407
  816SOL    HW2 2451   1.632   2.553   2.265
  817SOL     OW 2452   0.354   3.372   3.191
  817SOL    HW1 2453   0.333   3.328   3.104
  817SOL    HW2 2454   0.451   3.398   3.194
  818SOL     OW 2455   0.402   2.613   3.460
  818SOL    HW1 2456   0.470   2.668   3.413
  818SOL    HW2 2457   0.442   2.525   3.487
  819SOL     OW 2458   1.587   2.641   3.532
  819SOL    HW1 2459   1.495   2.679   3.527
  819SOL    HW2 2460   1.647   2.688   3.467
  820SOL     OW 2461   1.013   1.967   3.632
  820SOL    HW1 2462   1.019   2.052   3.580
  820SOL    HW2 2463   1.045   1.891   3.575
  821SOL     OW 2464   0.504   1.912   3.602
  821SOL    HW1 2465   0.462   1.855   3.532
  821SOL    HW2 2466   0.438   1.981   3.634
  822SOL     OW 2467   0.573   2.732   2.891
  822SOL    HW1 2468   0.617   2.821   2.882
  822SOL    HW2 2469   0.510   2.732   2.968
  823SOL     OW 2470   1.360   2.724   2.907
  823SOL    HW1 2471   1.285   2.724   2.841
  823SOL    HW2 2472   1.397   2.632   2.916
  824SOL     OW 2473   1.209   2.387   2.137
  824SOL    HW1 2474   1.222   2.303   2.191
  824SOL    HW2 2475   1.180   2.461   2.197
  825SOL     OW 2476   0.307   2.075   3.093
  825SOL    HW1 2477   0.284   2.112   3.183
  825SOL    HW2 2478   0.277   1.980   3.087
  826SOL     OW 2479   0.037   3.172   3.144
  826SOL    HW1 2480   0.090   3.123   3.212
  826SOL    HW2 2481   0.059   3.270   3.149
  827SOL     OW 2482   0.732   2.496   2.926
  827SOL    HW1 2483   0.791   2.470   2.850
  827SOL    HW2 2484   0.704   2.592   2.915
  828SOL     OW 2485   1.728   2.797   3.716
  828SOL    HW1 2486   1.682   2.790   3.627
  828SOL    HW2 2487   1.666   2.841   3.782
  829SOL     OW 2488   0.307   1.925   2.480
  829SOL    HW1 2489   0.296   2.019   2.513
  829SOL    HW2 2490   0.302   1.862   2.557
  830SOL     OW 2491   1.622   2.229   2.236
  830SOL    HW1 2492   1.624   2.153   2.300
  830SOL    HW2 2493   1.574   2.306   2.276
  831SOL     OW 2494   1.023   2.628   2.828
  831SOL    HW1 2495   1.038   2.649   2.924
  831SOL    HW2 2496   0.993   2.533   2.819
  832SOL     OW 2497   0.980   3.435   3.562
  832SOL    HW1 2498   0.960   3.479   3.474
  832SOL    HW2 2499   1.019   3.344   3.546
  833SOL     OW 2500   1.859   3.380   3.467
  833SOL    HW1 2501   1.873   3.407   3.372
  833SOL    HW2 2502   1.942   3.402   3.520
  834SOL     OW 2503   0.350   2.760   3.666
  834SOL    HW1 2504   0.426   2.804   3.714
  834SOL    HW2 2505   0.385   2.713   3.584
  835SOL     OW 2506   1.540   2.136   1.987
  835SOL    HW1 2507   1.479   2.061   2.010
  835SOL    HW2 2508   1.562   2.188   2.070
  836SOL     OW 2509   1.303   2.700   1.904
  836SOL    HW1 2510   1.337   2.607   1.919
  836SOL    HW2 2511   1.321   2.727   1.809
  837SOL     OW 2512   1.068   3.195   2.711
  837SOL    HW1 2513   1.075   3.111   2.656
  837SOL    HW2 2514   1.130   3.264   2.675
  838SOL     OW 2515   0.319   2.672   2.811
  838SOL    HW1 2516   0.412   2.708   2.816
  838SOL    HW2 2517   0.313   2.587   2.863
  839SOL     OW 2518   0.339   2.371   2.868
  839SOL    HW1 2519   0.287   2.288   2.851
  839SOL    HW2 2520   0.416   2.376   2.804
  840SOL     OW 2521   1.138   2.242   3.540
  840SOL    HW1 2522   1.093   2.305   3.604
  840SOL    HW2 2523   1.231   2.273   3.523
  841SOL     OW 2524   1.160   2.069   3.339
  841SOL    HW1 2525   1.160   2.133   3.416
  841SOL    HW2 2526   1.188   2.117   3.256
  842SOL     OW 2527   0.008   3.188   2.062
  842SOL    HW1 2528  -0.085   3.209   2.031
  842SOL    HW2 2529   0.018   3.089   2.075
  843SOL     OW 2530   0.088   3.663   2.789
  843SOL    HW1 2531   0.046   3.577   2.762
  843SOL    HW2 2532   0.182   3.666   2.755
  844SOL     OW 2533   0.504   3.430   2.772
  844SOL    HW1 2534   0.570   3.504   2.781
  844SOL    HW2 2535   0.548   3.351   2.730
  845SOL     OW 2536   1.002   2.658   3.100
  845SOL    HW1 2537   1.043   2.626   3.186
  845SOL    HW2 2538   0.906   2.631   3.097
  846SOL     OW 2539   0.040   2.406   2.976
  846SOL    HW1 2540   0.125   2.373   2.935
  846SOL    HW2 2541   0.053   2.421   3.074
  847SOL     OW 2542   0.189   2.382   3.584
  847SOL    HW1 2543   0.248   2.342   3.514
  847SOL    HW2 2544   0.131   2.453   3.543
  848SOL     OW 2545   1.369   2.812   3.522
  848SOL    HW1 2546   1.408   2.901   3.542
  848SOL    HW2 2547   1.379   2.792   3.425
  849SOL     OW 2548   0.815   2.434   2.187
  849SOL    HW1 2549   0.822   2.345   2.141
  849SOL    HW2 2550   0.721   2.468   2.179
  850SOL     OW 2551   1.657   2.466   3.068
  850SOL    HW1 2552   1.619   2.397   3.130
  850SOL    HW2 2553   1.739   2.430   3.024
  851SOL     OW 2554   0.252   3.426   3.606
  851SOL    HW1 2555   0.222   3.483   3.682
  851SOL    HW2 2556   0.245   3.329   3.632
  852SOL     OW 2557   0.671   2.326   3.131
  852SOL    HW1 2558   0.637   2.237   3.101
  852SOL    HW2 2559   0.697   2.380   3.051
  853SOL     OW 2560   0.930   3.540   3.327
  853SOL    HW1 2561   0.906   3.522   3.232
  853SOL    HW2 2562   0.960   3.634   3.337
  854SOL     OW 2563   0.473   2.362   2.053
  854SOL    HW1 2564   0.534   2.442   2.057
  854SOL    HW2 2565   0.378   2.393   2.060
  855SOL     OW 2566   0.159   2.999   3.328
  855SOL    HW1 2567   0.181   2.938   3.404
  855SOL    HW2 2568   0.169   2.950   3.242
  856SOL     OW 2569   1.347   2.921   3.096
  856SOL    HW1 2570   1.371   2.858   3.022
  856SOL    HW2 2571   1.257   2.961   3.078
  857SOL     OW 2572   1.302   2.717   2.171
  857SOL    HW1 2573   1.216   2.686   2.213
  857SOL    HW2 2574   1.298   2.703   2.072
  858SOL     OW 2575   1.759   3.609   3.016
  858SOL    HW1 2576   1.820   3.639   2.943
  858SOL    HW2 2577   1.721   3.520   2.994
  859SOL     OW 2578   1.252   3.593   2.990
  859SOL    HW1 2579   1.336   3.598   2.936
  859SOL    HW2 2580   1.229   3.497   3.008
  860SOL     OW 2581   0.083   3.120   2.884
  860SOL    HW1 2582   0.078   3.119   2.984
  860SOL    HW2 2583   0.000   3.079   2.846
  861SOL     OW 2584   0.688   3.524   3.578
  861SOL    HW1 2585   0.632   3.605   3.587
  861SOL    HW2 2586   0.740   3.528   3.492
  862SOL     OW 2587   1.726   1.997   2.385
  862SOL    HW1 2588   1.799   1.980   2.318
  862SOL    HW2 2589   1.695   1.910   2.423
  863SOL     OW 2590   1.388   3.435   2.339
  863SOL    HW1 2591   1.455   3.447   2.265
  863SOL    HW2 2592   1.348   3.524   2.362
  864SOL     OW 2593   0.130   3.656   3.713
  864SOL    HW1 2594   0.089   3.582   3.766
  864SOL    HW2 2595   0.194   3.707   3.771
  865SOL     OW 2596   1.280   2.789   2.534
  865SOL    HW1 2597   1.340   2.708   2.536
  865SOL    HW2 2598   1.320   2.858   2.474
  866SOL     OW 2599   0.830   3.135   3.284
  866SOL    HW1 2600   0.825   3.168   3.379
  866SOL    HW2 2601   0.744   3.154   3.238
  867SOL     OW 2602   0.672   3.478   2.016
  867SOL    HW1 2603   0.681   3.488   1.917
  867SOL    HW2 2604   0.632   3.389   2.037
  868SOL     OW 2605   1.650   3.582   3.256
  868SOL    HW1 2606   1.703   3.592   3.172
  868SOL    HW2 2607   1.623   3.672   3.290
  869SOL     OW 2608   1.841   2.037   2.825
  869SOL    HW1 2609   1.880   1.952   2.789
  869SOL    HW2 2610   1.743   2.039   2.806
  870SOL     OW 2611   0.263   2.188   2.582
  870SOL    HW1 2612   0.184   2.239   2.548
  870SOL    HW2 2613   0.254   2.173   2.680
  871SOL     OW 2614   1.194   3.474   1.893
  871SOL    HW1 2615   1.200   3.381   1.930
  871SOL    HW2 2616   1.135   3.474   1.813
  872SOL     OW 2617   0.822   2.864   3.234
  872SOL    HW1 2618   0.862   2.863   3.142
  872SOL    HW2 2619   0.832   2.956   3.274
  873SOL     OW 2620   0.916   2.772   2.153
  873SOL    HW1 2621   0.979   2.810   2.085
  873SOL    HW2 2622   0.956   2.689   2.192
  874SOL     OW 2623   1.504   3.469   1.906
  874SOL    HW1 2624   1.412   3.506   1.913
  874SOL    HW2 2625   1.542   3.489   1.816
  875SOL     OW 2626   0.372   3.150   3.352
  875SOL    HW1 2627   0.359   3.243   3.318
  875SOL    HW2 2628   0.288   3.098   3.339
  876SOL     OW 2629   1.614   3.154   3.151
  876SOL    HW1 2630   1.674   3.157   3.231
  876SOL    HW2 2631   1.539   3.218   3.164
  877SOL     OW 2632   1.039   2.960   2.558
  877SOL    HW1 2633   0.969   2.913   2.612
  877SOL    HW2 2634   1.098   2.892   2.515
  878SOL     OW 2635   1.014   2.098   2.833
  878SOL    HW1 2636   1.006   2.062   2.740
  878SOL    HW2 2637   1.012   2.022   2.898
  879SOL     OW 2638   0.590   3.349   2.353
  879SOL    HW1 2639   0.632   3.291   2.283
  879SOL    HW2 2640   0.546   3.428   2.309
  880SOL     OW 2641   1.709   2.247   3.243
  880SOL    HW1 2642   1.782   2.316   3.247
  880SOL    HW2 2643   1.737   2.172   3.184
  881SOL     OW 2644   0.255   3.210   2.152
  881SOL    HW1 2645   0.159   3.211   2.125
  881SOL    HW2 2646   0.267   3.263   2.236
  882SOL     OW 2647   0.105   2.875   3.588
  882SOL    HW1 2648   0.028   2.842   3.642
  882SOL    HW2 2649   0.190   2.845   3.630
  883SOL     OW 2650   0.672   2.065   3.351
  883SOL    HW1 2651   0.762   2.049   3.311
  883SOL    HW2 2652   0.680   2.070   3.450
  884SOL     OW 2653   0.075   2.207   1.895
  884SOL    HW1 2654  -0.017   2.179   1.866
  884SOL    HW2 2655   0.106   2.284   1.839
  885SOL     OW 2656   1.440   2.718   3.260
  885SOL    HW1 2657   1.383   2.770   3.197
  885SOL    HW2 2658   1.536   2.730   3.236
  886SOL     OW 2659   0.072   2.028   2.180
  886SOL    HW1 2660   0.055   2.111   2.126
  886SOL    HW2 2661   0.162   1.991   2.158
  887SOL     OW 2662   1.183   3.197   1.981
  887SOL    HW1 2663   1.084   3.186   1.983
  887SOL    HW2 2664   1.217   3.212   2.074
  888SOL     OW 2665   0.613   2.704   3.293
  888SOL    HW1 2666   0.669   2.785   3.276
  888SOL    HW2 2667   0.672   2.624   3.296
  889SOL     OW 2668   1.493   3.629   2.821
  889SOL    HW1 2669   1.526   3.693   2.752
  889SOL    HW2 2670   1.559   3.623   2.896
  890SOL     OW 2671   0.716   2.427   3.570
  890SOL    HW1 2672   0.735   2.492   3.644
  890SOL    HW2 2673   0.776   2.347   3.579
  891SOL     OW 2674   1.450   3.082   3.495
  891SOL    HW1 2675   1.441   3.072   3.594
  891SOL    HW2 2676   1.546   3.075   3.469
  892SOL     OW 2677   0.390   3.603   3.422
  892SOL    HW1 2678   0.299   3.644   3.420
  892SOL    HW2 2679   0.383   3.509   3.454
  893SOL     OW 2680   1.674   2.745   3.116
  893SOL    HW1 2681   1.647   2.656   3.079
  893SOL    HW2 2682   1.675   2.813   3.043
  894SOL     OW 2683   1.225   2.187   2.311
  894SOL    HW1 2684   1.290   2.113   2.300
  894SOL    HW2 2685   1.245   2.237   2.395
  895SOL     OW 2686   0.594   2.607   2.514
  895SOL    HW1 2687   0.644   2.692   2.495
  895SOL    HW2 2688   0.506   2.609   2.466
  896SOL     OW 2689   1.777   2.204   3.504
  896SOL    HW1 2690   1.760   2.235   3.410
  896SOL    HW2 2691   1.693   2.167   3.542
  897SOL     OW 2692   1.730   2.796   3.379
  897SOL    HW1 2693   1.768   2.887   3.394
  897SOL    HW2 2694   1.722   2.779   3.280
  898SOL     OW 2695   0.859   3.236   1.878
  898SOL    HW1 2696   0.813   3.251   1.966
  898SOL    HW2 2697   0.903   3.321   1.848
  899SOL     OW 2698   0.661   3.652   2.815
  899SOL    HW1 2699   0.615   3.740   2.802
  899SOL    HW2 2700   0.760   3.664   2.808
  900SOL     OW 2701   0.859   2.818   2.723
  900SOL    HW1 2702   0.913   2.749   2.771
  900SOL    HW2 2703   0.827   2.887   2.789
  901SOL     OW 2704   1.083   2.846   1.949
  901SOL    HW1 2705   1.060   2.899   1.867
  901SOL    HW2 2706   1.164   2.790   1.930
  902SOL     OW 2707   1.861   3.431   2.713
  902SOL    HW1 2708   1.790   3.419   2.643
  902SOL    HW2 2709   1.862   3.352   2.773
  903SOL     OW 2710   0.221   3.176   3.706
  903SOL    HW1 2711   0.156   3.103   3.685
  903SOL    HW2 2712   0.225   3.190   3.804
  904SOL     OW 2713   0.079   3.102   2.515
  904SOL    HW1 2714   0.078   3.055   2.603
  904SOL    HW2 2715   0.161   3.074   2.464
  905SOL     OW 2716   0.672   3.253   3.486
  905SOL    HW1 2717   0.594   3.203   3.524
  905SOL    HW2 2718   0.669   3.348   3.517
  906SOL     OW 2719   1.824   2.054   3.089
  906SOL    HW1 2720   1.820   1.964   3.133
  906SOL    HW2 2721   1.827   2.043   2.990
  907SOL     OW 2722   0.428   2.286   2.382
  907SOL    HW1 2723   0.458   2.214   2.320
  907SOL    HW2 2724   0.389   2.246   2.465
  908SOL     OW 2725   1.705   3.349   2.966
  908SOL    HW1 2726   1.612   3.324   2.939
  908SOL    HW2 2727   1.731   3.299   3.048
  909SOL     OW 2728   0.317   2.409   3.142
  909SOL    HW1 2729   0.355   2.350   3.214
  909SOL    HW2 2730   0.357   2.383   3.054
  910SOL     OW 2731   0.812   3.448   2.549
  910SOL    HW1 2732   0.844   3.458   2.455
  910SOL    HW2 2733   0.733   3.386   2.551
  911SOL     OW 2734   1.424   2.076   2.974
  911SOL    HW1 2735   1.476   2.011   3.029
  911SOL    HW2 2736   1.375   2.139   3.035
  912SOL     OW 2737   1.001   1.896   3.016
  912SOL    HW1 2738   0.938   1.824   2.985
  912SOL    HW2 2739   1.094   1.860   3.016
  913SOL     OW 2740   0.770   3.192   2.163
  913SOL    HW1 2741   0.724   3.105   2.180
  913SOL    HW2 2742   0.861   3.189   2.204
  914SOL     OW 2743   0.618   3.429   3.146
  914SOL    HW1 2744   0.613   3.511   3.203
  914SOL    HW2 2745   0.707   3.426   3.101
  915SOL     OW 2746   1.352   1.914   2.030
  915SOL    HW1 2747   1.387   1.873   1.946
  915SOL    HW2 2748   1.262   1.876   2.050
  916SOL     OW 2749   1.300   2.315   2.553
  916SOL    HW1 2750   1.241   2.395   2.557
  916SOL    HW2 2751   1.315   2.280   2.646
  917SOL     OW 2752   1.593   2.083   2.744
  917SOL    HW1 2753   1.509   2.082   2.798
  917SOL    HW2 2754   1.595   2.166   2.688
  918SOL     OW 2755   0.039   2.939   2.162
  918SOL    HW1 2756   0.138   2.928   2.153
  918SOL    HW2 2757  -0.001   2.853   2.194
  919SOL     OW 2758   0.875   3.508   2.199
  919SOL    HW1 2759   0.798   3.473   2.145
  919SOL    HW2 2760   0.843   3.579   2.261
  920SOL     OW 2761   0.230   2.490   3.837
  920SOL    HW1 2762   0.137   2.488   3.874
  920SOL    HW2 2763   0.231   2.451   3.745
  921SOL     OW 2764   1.755   2.469   3.955
  921SOL    HW1 2765   1.743   2.456   3.856
  921SOL    HW2 2766   1.725   2.388   4.004
  922SOL     OW 2767   0.231   3.575   4.207
  922SOL    HW1 2768   0.265   3.652   4.261
  922SOL    HW2 2769   0.275   3.575   4.117
  923SOL     OW 2770   0.230   3.296   4.262
  923SOL    HW1 2771   0.204   3.392   4.262
  923SOL    HW2 2772   0.159   3.242   4.307
  924SOL     OW 2773   0.606   2.826   3.847
  924SOL    HW1 2774   0.613   2.910   3.793
  924SOL    HW2 2775   0.652   2.839   3.935
  925SOL     OW 2776   0.122   2.505   4.287
  925SOL    HW1 2777   0.077   2.417   4.304
  925SOL    HW2 2778   0.121   2.559   4.371
  926SOL     OW 2779   1.842   3.629   4.083
  926SOL    HW1 2780   1.896   3.600   4.163
  926SOL    HW2 2781   1.872   3.719   4.054
  927SOL     OW 2782   0.027   3.458   3.841
  927SOL    HW1 2783   0.008   3.362   3.862
  927SOL    HW2 2784  -0.006   3.516   3.916
  928SOL     OW 2785   1.689   2.784   4.336
  928SOL    HW1 2786   1.784   2.755   4.344
  928SOL    HW2 2787   1.681   2.849   4.261
  929SOL     OW 2788   1.641   2.970   4.156
  929SOL    HW1 2789   1.727   2.972   4.104
  929SOL    HW2 2790   1.655   3.017   4.244
  930SOL     OW 2791   0.809   1.866   4.226
  930SOL    HW1 2792   0.849   1.957   4.217
  930SOL    HW2 2793   0.709   1.874   4.232
  931SOL     OW 2794   1.525   2.861   3.914
  931SOL    HW1 2795   1.462   2.785   3.927
  931SOL    HW2 2796   1.573   2.879   4.000
  932SOL     OW 2797   0.598   2.591   3.994
  932SOL    HW1 2798   0.622   2.660   3.926
  932SOL    HW2 2799   0.520   2.624   4.048
  933SOL     OW 2800   1.576   3.524   4.031
  933SOL    HW1 2801   1.665   3.570   4.034
  933SOL    HW2 2802   1.555   3.500   3.936
  934SOL     OW 2803   1.041   2.563   4.153
  934SOL    HW1 2804   1.067   2.559   4.249
  934SOL    HW2 2805   0.956   2.512   4.139
  935SOL     OW 2806   0.076   2.673   4.513
  935SOL    HW1 2807   0.175   2.661   4.522
  935SOL    HW2 2808   0.052   2.768   4.534
  936SOL     OW 2809   0.865   2.210   3.919
  936SOL    HW1 2810   0.924   2.273   3.870
  936SOL    HW2 2811   0.884   2.116   3.890
  937SOL     OW 2812   0.321   2.805   3.966
  937SOL    HW1 2813   0.403   2.844   3.924
  937SOL    HW2 2814   0.294   2.723   3.917
  938SOL     OW 2815   1.111   3.638   3.961
  938SOL    HW1 2816   1.051   3.576   4.011
  938SOL    HW2 2817   1.142   3.594   3.876
  939SOL     OW 2818   1.632   3.239   3.805
  939SOL    HW1 2819   1.600   3.333   3.795
  939SOL    HW2 2820   1.556   3.176   3.793
  940SOL     OW 2821   0.464   3.605   4.047
  940SOL    HW1 2822   0.497   3.644   4.133
  940SOL    HW2 2823   0.540   3.598   3.982
  941SOL     OW 2824   1.400   1.969   4.150
  941SOL    HW1 2825   1.376   1.932   4.060
  941SOL    HW2 2826   1.499   1.985   4.154
  942SOL     OW 2827   0.382   2.562   4.204
  942SOL    HW1 2828   0.427   2.472   4.201
  942SOL    HW2 2829   0.288   2.551   4.237
  943SOL     OW 2830   0.614   1.984   3.841
  943SOL    HW1 2831   0.712   1.962   3.848
  943SOL    HW2 2832   0.583   1.967   3.748
  944SOL     OW 2833   0.539   1.926   4.236
  944SOL    HW1 2834   0.458   1.927   4.294
  944SOL    HW2 2835   0.542   2.009   4.181
  945SOL     OW 2836   1.434   3.050   3.765
  945SOL    HW1 2837   1.466   2.974   3.822
  945SOL    HW2 2838   1.342   3.077   3.795
  946SOL     OW 2839   0.297   1.897   3.895
  946SOL    HW1 2840   0.346   1.981   3.874
  946SOL    HW2 2841   0.359   1.832   3.940
  947SOL     OW 2842   0.935   2.098   4.204
  947SOL    HW1 2843   0.887   2.139   4.126
  947SOL    HW2 2844   1.034   2.096   4.185
  948SOL     OW 2845   0.459   3.014   4.465
  948SOL    HW1 2846   0.388   2.987   4.530
  948SOL    HW2 2847   0.433   2.986   4.372
  949SOL     OW 2848   1.271   3.659   4.315
  949SOL    HW1 2849   1.315   3.723   4.251
  949SOL    HW2 2850   1.221   3.711   4.385
  950SOL     OW 2851   1.032   2.411   3.740
  950SOL    HW1 2852   0.991   2.493   3.701
  950SOL    HW2 2853   1.096   2.437   3.813
  951SOL     OW 2854   0.866   2.316   4.366
  951SOL    HW1 2855   0.834   2.388   4.304
  951SOL    HW2 2856   0.890   2.235   4.313
  952SOL     OW 2857   1.857   2.695   4.101
  952SOL    HW1 2858   1.899   2.631   4.165
  952SOL    HW2 2859   1.819   2.644   4.023
  953SOL     OW 2860   0.488   3.247   3.898
  953SOL    HW1 2861   0.401   3.232   3.945
  953SOL    HW2 2862   0.471   3.273   3.803
  954SOL     OW 2863   1.390   2.437   3.802
  954SOL    HW1 2864   1.336   2.416   3.883
  954SOL    HW2 2865   1.481   2.396   3.811
  955SOL     OW 2866   0.527   2.118   4.052
  955SOL    HW1 2867   0.554   2.059   3.977
  955SOL    HW2 2868   0.527   2.213   4.021
  956SOL     OW 2869   0.705   2.912   4.092
  956SOL    HW1 2870   0.691   2.919   4.191
  956SOL    HW2 2871   0.789   2.861   4.074
  957SOL     OW 2872   0.367   2.962   4.225
  957SOL    HW1 2873   0.360   3.045   4.169
  957SOL    HW2 2874   0.371   2.882   4.165
  958SOL     OW 2875   1.252   3.210   4.112
  958SOL    HW1 2876   1.302   3.287   4.152
  958SOL    HW2 2877   1.157   3.212   4.144
  959SOL     OW 2878   1.582   2.501   4.196
  959SOL    HW1 2879   1.551   2.562   4.269
  959SOL    HW2 2880   1.632   2.553   4.127
  960SOL     OW 2881   1.209   2.387   3.999
  960SOL    HW1 2882   1.222   2.303   4.053
  960SOL    HW2 2883   1.180   2.461   4.059
  961SOL     OW 2884   1.622   2.229   4.098
  961SOL    HW1 2885   1.624   2.153   4.162
  961SOL    HW2 2886   1.574   2.306   4.138
  962SOL     OW 2887   1.540   2.136   3.849
  962SOL    HW1 2888   1.479   2.061   3.872
  962SOL    HW2 2889   1.562   2.188   3.932
  963SOL     OW 2890   1.303   2.700   3.766
  963SOL    HW1 2891   1.337   2.607   3.781
  963SOL    HW2 2892   1.321   2.727   3.671
  964SOL     OW 2893   0.008   3.188   3.924
  964SOL    HW1 2894  -0.085   3.209   3.893
  964SOL    HW2 2895   0.018   3.089   3.937
  965SOL     OW 2896   0.815   2.434   4.049
  965SOL    HW1 2897   0.822   2.345   4.003
  965SOL    HW2 2898   0.721   2.468   4.041
  966SOL     OW 2899   0.473   2.362   3.915
  966SOL    HW1 2900   0.534   2.442   3.919
  966SOL    HW2 2901   0.378   2.393   3.922
  967SOL     OW 2902   1.302   2.717   4.033
  967SOL    HW1 2903   1.216   2.686   4.075
  967SOL    HW2 2904   1.298   2.703   3.934
  968SOL     OW 2905   1.726   1.997   4.247
  968SOL    HW1 2906   1.799   1.980   4.180
  968SOL    HW2 2907   1.695   1.910   4.285
  969SOL     OW 2908   1.388   3.435   4.201
  969SOL    HW1 2909   1.455   3.447   4.127
  969SOL    HW2 2910   1.348   3.524   4.224
  970SOL     OW 2911   0.672   3.478   3.878
  970SOL    HW1 2912   0.681   3.488   3.779
  970SOL    HW2 2913   0.632   3.389   3.899
  971SOL     OW 2914   1.194   3.474   3.755
  971SOL    HW1 2915   1.200   3.381   3.792
  971SOL    HW2 2916   1.135   3.474   3.675
  972SOL     OW 2917   0.916   2.772   4.015
  972SOL    HW1 2918   0.979   2.810   3.947
  972SOL    HW2 2919   0.956   2.689   4.054
  973SOL     OW 2920   1.504   3.469   3.768
  973SOL    HW1 2921   1.412   3.506   3.775
  973SOL    HW2 2922   1.542   3.489   3.678
  974SOL     OW 2923   0.590   3.349   4.215
  974SOL    HW1 2924   0.632   3.291   4.145
  974SOL    HW2 2925   0.546   3.428   4.171
  975SOL     OW 2926   0.255   3.210   4.014
  975SOL    HW1 2927   0.159   3.211   3.987
  975SOL    HW2 2928   0.267   3.263   4.098
  976SOL     OW 2929   0.075   2.207   3.757
  976SOL    HW1 2930  -0.017   2.179   3.728
  976SOL    HW2 2931   0.106   2.284   3.701
  977SOL     OW 2932   0.072   2.028   4.042
  977SOL    HW1 2933   0.055   2.111   3.988
  977SOL    HW2 2934   0.162   1.991   4.020
  978SOL     OW 2935   1.183   3.197   3.843
  978SOL    HW1 2936   1.084   3.186   3.845
  978SOL    HW2 2937   1.217   3.212   3.936
  979SOL     OW 2938   1.225   2.187   4.173
  979SOL    HW1 2939   1.290   2.113   4.162
  979SOL    HW2 2940   1.245   2.237   4.257
  980SOL     OW 2941   0.594   2.607   4.376
  980SOL    HW1 2942   0.644   2.692   4.357
  980SOL    HW2 2943   0.506   2.609   4.328
  981SOL     OW 2944   0.859   3.236   3.740
  981SOL    HW1 2945   0.813   3.251   3.828
  981SOL    HW2 2946   0.903   3.321   3.710
  982SOL     OW 2947   1.083   2.846   3.811
  982SOL    HW1 2948   1.060   2.899   3.729
  982SOL    HW2 2949   1.164   2.790   3.792
  983SOL     OW 2950   0.428   2.286   4.244
  983SOL    HW1 2951   0.458   2.214   4.182
  983SOL    HW2 2952   0.389   2.246   4.327
  984SOL     OW 2953   0.770   3.192   4.025
  984SOL    HW1 2954   0.724   3.105   4.042
  984SOL    HW2 2955   0.861   3.189   4.066
  985SOL     OW 2956   1.352   1.914   3.892
  985SOL    HW1 2957   1.387   1.873   3.808
  985SOL    HW2 2958   1.262   1.876   3.912
  986SOL     OW 2959   0.039   2.939   4.024
  986SOL    HW1 2960   0.138   2.928   4.015
  986SOL    HW2 2961  -0.001   2.853   4.056
  987SOL     OW 2962   0.875   3.508   4.061
  987SOL    HW1 2963   0.798   3.473   4.007
  987SOL    HW2 2964   0.843   3.579   4.123
  988SOL     OW 2965   0.225   3.999   0.996
  988SOL    HW1 2966   0.260   3.982   1.088
  988SOL    HW2 2967   0.137   3.954   0.984
  989SOL     OW 2968   0.019   4.092   0.647
  989SOL    HW1 2969  -0.063   4.135   0.686
  989SOL    HW2 2970  -0.009   4.019   0.584
  990SOL     OW 2971   1.755   4.331   0.231
  990SOL    HW1 2972   1.743   4.318   0.132
  990SOL    HW2 2973   1.725   4.250   0.280
  991SOL     OW 2974   0.438   4.116   1.499
  991SOL    HW1 2975   0.520   4.060   1.508
  991SOL    HW2 2976   0.357   4.058   1.503
  992SOL     OW 2977   1.603   4.171   0.737
  992SOL    HW1 2978   1.529   4.217   0.687
  992SOL    HW2 2979   1.654   4.239   0.790
  993SOL     OW 2980   1.594   3.838   1.480
  993SOL    HW1 2981   1.576   3.905   1.408
  993SOL    HW2 2982   1.591   3.884   1.569
  994SOL     OW 2983   0.122   4.367   0.563
  994SOL    HW1 2984   0.077   4.279   0.580
  994SOL    HW2 2985   0.121   4.421   0.647
  995SOL     OW 2986   0.809   3.728   0.502
  995SOL    HW1 2987   0.849   3.819   0.493
  995SOL    HW2 2988   0.709   3.736   0.508
  996SOL     OW 2989   0.317   3.975   1.801
  996SOL    HW1 2990   0.388   4.046   1.807
  996SOL    HW2 2991   0.229   4.014   1.829
  997SOL     OW 2992   1.281   4.069   0.944
  997SOL    HW1 2993   1.195   4.019   0.931
  997SOL    HW2 2994   1.343   4.015   1.000
  998SOL     OW 2995   0.807   4.329   1.465
  998SOL    HW1 2996   0.760   4.326   1.554
  998SOL    HW2 2997   0.756   4.274   1.399
  999SOL     OW 2998   1.394   4.193   1.674
  999SOL    HW1 2999   1.374   4.236   1.762
  999SOL    HW2 3000   1.472   4.131   1.683
 1000SOL     OW 3001   0.991   4.134   1.242
 1000SOL    HW1 3002   0.914   4.168   1.296
 1000SOL    HW2 3003   0.957   4.083   1.163
 1001SOL     OW 3004   1.041   4.425   0.429
 1001SOL    HW1 3005   1.067   4.421   0.525
 1001SOL    HW2 3006   0.956   4.374   0.415
 1002SOL     OW 3007   0.076   4.535   0.789
 1002SOL    HW1 3008   0.175   4.523   0.798
 1002SOL    HW2 3009   0.052   4.630   0.810
 1003SOL     OW 3010   0.865   4.072   0.195
 1003SOL    HW1 3011   0.924   4.135   0.146
 1003SOL    HW2 3012   0.884   3.978   0.166
 1004SOL     OW 3013   1.719   4.309   1.831
 1004SOL    HW1 3014   1.693   4.398   1.795
 1004SOL    HW2 3015   1.717   4.241   1.758
 1005SOL     OW 3016   0.550   3.920   0.885
 1005SOL    HW1 3017   0.545   3.915   0.985
 1005SOL    HW2 3018   0.552   4.016   0.856
 1006SOL     OW 3019   1.458   4.459   0.728
 1006SOL    HW1 3020   1.453   4.394   0.803
 1006SOL    HW2 3021   1.538   4.518   0.741
 1007SOL     OW 3022   0.202   4.009   1.498
 1007SOL    HW1 3023   0.122   4.069   1.485
 1007SOL    HW2 3024   0.192   3.960   1.584
 1008SOL     OW 3025   1.400   3.831   0.426
 1008SOL    HW1 3026   1.376   3.794   0.336
 1008SOL    HW2 3027   1.499   3.847   0.430
 1009SOL     OW 3028   1.547   3.946   1.729
 1009SOL    HW1 3029   1.542   3.983   1.821
 1009SOL    HW2 3030   1.475   3.877   1.717
 1010SOL     OW 3031   0.614   3.846   0.117
 1010SOL    HW1 3032   0.712   3.824   0.124
 1010SOL    HW2 3033   0.583   3.829   0.024
 1011SOL     OW 3034   0.781   3.988   1.749
 1011SOL    HW1 3035   0.848   3.927   1.792
 1011SOL    HW2 3036   0.708   4.007   1.814
 1012SOL     OW 3037   1.351   4.314   1.433
 1012SOL    HW1 3038   1.379   4.271   1.518
 1012SOL    HW2 3039   1.376   4.410   1.434
 1013SOL     OW 3040   0.539   3.788   0.512
 1013SOL    HW1 3041   0.458   3.789   0.570
 1013SOL    HW2 3042   0.542   3.871   0.457
 1014SOL     OW 3043   0.297   3.759   0.171
 1014SOL    HW1 3044   0.346   3.843   0.150
 1014SOL    HW2 3045   0.359   3.694   0.216
 1015SOL     OW 3046   0.935   3.960   0.480
 1015SOL    HW1 3047   0.887   4.001   0.402
 1015SOL    HW2 3048   1.034   3.958   0.461
 1016SOL     OW 3049   0.078   4.280   1.386
 1016SOL    HW1 3050   0.170   4.279   1.345
 1016SOL    HW2 3051   0.072   4.354   1.453
 1017SOL     OW 3052   0.561   3.946   1.147
 1017SOL    HW1 3053   0.599   3.862   1.184
 1017SOL    HW2 3054   0.473   3.965   1.191
 1018SOL     OW 3055   1.017   3.763   0.753
 1018SOL    HW1 3056   0.945   3.768   0.684
 1018SOL    HW2 3057   0.993   3.694   0.822
 1019SOL     OW 3058   1.466   4.314   0.992
 1019SOL    HW1 3059   1.436   4.219   0.999
 1019SOL    HW2 3060   1.539   4.330   1.058
 1020SOL     OW 3061   0.527   3.980   0.328
 1020SOL    HW1 3062   0.554   3.921   0.253
 1020SOL    HW2 3063   0.527   4.075   0.297
 1021SOL     OW 3064   0.915   3.813   1.402
 1021SOL    HW1 3065   0.940   3.793   1.307
 1021SOL    HW2 3066   0.987   3.869   1.444
 1022SOL     OW 3067   1.274   4.110   1.262
 1022SOL    HW1 3068   1.295   4.184   1.326
 1022SOL    HW2 3069   1.185   4.127   1.219
 1023SOL     OW 3070   0.566   4.261   0.865
 1023SOL    HW1 3071   0.578   4.327   0.791
 1023SOL    HW2 3072   0.612   4.295   0.948
 1024SOL     OW 3073   1.013   3.829   1.770
 1024SOL    HW1 3074   1.019   3.914   1.718
 1024SOL    HW2 3075   1.045   3.753   1.713
 1025SOL     OW 3076   0.504   3.774   1.740
 1025SOL    HW1 3077   0.462   3.717   1.670
 1025SOL    HW2 3078   0.438   3.843   1.772
 1026SOL     OW 3079   1.209   4.249   0.275
 1026SOL    HW1 3080   1.222   4.165   0.329
 1026SOL    HW2 3081   1.180   4.323   0.335
 1027SOL     OW 3082   0.307   3.937   1.231
 1027SOL    HW1 3083   0.284   3.974   1.321
 1027SOL    HW2 3084   0.277   3.842   1.225
 1028SOL     OW 3085   0.732   4.358   1.064
 1028SOL    HW1 3086   0.791   4.332   0.988
 1028SOL    HW2 3087   0.704   4.454   1.053
 1029SOL     OW 3088   0.307   3.787   0.618
 1029SOL    HW1 3089   0.296   3.881   0.651
 1029SOL    HW2 3090   0.302   3.724   0.695
 1030SOL     OW 3091   1.622   4.091   0.374
 1030SOL    HW1 3092   1.624   4.015   0.438
 1030SOL    HW2 3093   1.574   4.168   0.414
 1031SOL     OW 3094   1.540   3.998   0.125
 1031SOL    HW1 3095   1.479   3.923   0.148
 1031SOL    HW2 3096   1.562   4.050   0.208
 1032SOL     OW 3097   0.339   4.233   1.006
 1032SOL    HW1 3098   0.287   4.150   0.989
 1032SOL    HW2 3099   0.416   4.238   0.942
 1033SOL     OW 3100   1.138   4.104   1.678
 1033SOL    HW1 3101   1.093   4.167   1.742
 1033SOL    HW2 3102   1.231   4.135   1.661
 1034SOL     OW 3103   1.160   3.931   1.477
 1034SOL    HW1 3104   1.160   3.995   1.554
 1034SOL    HW2 3105   1.188   3.979   1.394
 1035SOL     OW 3106   0.040   4.268   1.114
 1035SOL    HW1 3107   0.125   4.235   1.073
 1035SOL    HW2 3108   0.053   4.283   1.212
 1036SOL     OW 3109   0.189   4.244   1.722
 1036SOL    HW1 3110   0.248   4.204   1.652
 1036SOL    HW2 3111   0.131   4.315   1.681
 1037SOL     OW 3112   0.815   4.296   0.325
 1037SOL    HW1 3113   0.822   4.207   0.279
 1037SOL    HW2 3114   0.721   4.330   0.317
 1038SOL     OW 3115   1.657   4.328   1.206
 1038SOL    HW1 3116   1.619   4.259   1.268
 1038SOL    HW2 3117   1.739   4.292   1.162
 1039SOL     OW 3118   0.671   4.188   1.269
 1039SOL    HW1 3119   0.637   4.099   1.239
 1039SOL    HW2 3120   0.697   4.242   1.189
 1040SOL     OW 3121   0.903   3.810   0.133
 1040SOL    HW1 3122   0.954   3.811   0.047
 1040SOL    HW2 3123   0.959   3.768   0.204
 1041SOL     OW 3124   1.726   3.859   0.523
 1041SOL    HW1 3125   1.799   3.842   0.456
 1041SOL    HW2 3126   1.695   3.772   0.561
 1042SOL     OW 3127   1.841   3.899   0.963
 1042SOL    HW1 3128   1.880   3.814   0.927
 1042SOL    HW2 3129   1.743   3.901   0.944
 1043SOL     OW 3130   0.263   4.050   0.720
 1043SOL    HW1 3131   0.184   4.101   0.686
 1043SOL    HW2 3132   0.254   4.035   0.818
 1044SOL     OW 3133   1.014   3.960   0.971
 1044SOL    HW1 3134   1.006   3.924   0.878
 1044SOL    HW2 3135   1.012   3.884   1.036
 1045SOL     OW 3136   1.709   4.109   1.381
 1045SOL    HW1 3137   1.782   4.178   1.385
 1045SOL    HW2 3138   1.737   4.034   1.322
 1046SOL     OW 3139   0.672   3.927   1.489
 1046SOL    HW1 3140   0.762   3.911   1.449
 1046SOL    HW2 3141   0.680   3.932   1.588
 1047SOL     OW 3142   0.075   4.069   0.033
 1047SOL    HW1 3143  -0.017   4.041   0.004
 1047SOL    HW2 3144   0.106   4.146  -0.023
 1048SOL     OW 3145   0.072   3.890   0.318
 1048SOL    HW1 3146   0.055   3.973   0.264
 1048SOL    HW2 3147   0.162   3.853   0.296
 1049SOL     OW 3148   0.716   4.289   1.708
 1049SOL    HW1 3149   0.735   4.354   1.782
 1049SOL    HW2 3150   0.776   4.209   1.717
 1050SOL     OW 3151   1.225   4.049   0.449
 1050SOL    HW1 3152   1.290   3.975   0.438
 1050SOL    HW2 3153   1.245   4.099   0.533
 1051SOL     OW 3154   1.777   4.066   1.642
 1051SOL    HW1 3155   1.760   4.097   1.548
 1051SOL    HW2 3156   1.693   4.029   1.680
 1052SOL     OW 3157   1.824   3.916   1.227
 1052SOL    HW1 3158   1.820   3.826   1.271
 1052SOL    HW2 3159   1.827   3.905   1.128
 1053SOL     OW 3160   0.428   4.148   0.520
 1053SOL    HW1 3161   0.458   4.076   0.458
 1053SOL    HW2 3162   0.389   4.108   0.603
 1054SOL     OW 3163   0.317   4.271   1.280
 1054SOL    HW1 3164   0.355   4.212   1.352
 1054SOL    HW2 3165   0.357   4.245   1.192
 1055SOL     OW 3166   1.424   3.938   1.112
 1055SOL    HW1 3167   1.476   3.873   1.167
 1055SOL    HW2 3168   1.375   4.001   1.173
 1056SOL     OW 3169   1.001   3.758   1.154
 1056SOL    HW1 3170   0.938   3.686   1.123
 1056SOL    HW2 3171   1.094   3.722   1.154
 1057SOL     OW 3172   1.352   3.776   0.168
 1057SOL    HW1 3173   1.387   3.735   0.084
 1057SOL    HW2 3174   1.262   3.738   0.188
 1058SOL     OW 3175   1.300   4.177   0.691
 1058SOL    HW1 3176   1.241   4.257   0.695
 1058SOL    HW2 3177   1.315   4.142   0.784
 1059SOL     OW 3178   1.593   3.945   0.882
 1059SOL    HW1 3179   1.509   3.944   0.936
 1059SOL    HW2 3180   1.595   4.028   0.826
 1060SOL     OW 3181   0.225   3.999   2.858
 1060SOL    HW1 3182   0.260   3.982   2.950
 1060SOL    HW2 3183   0.137   3.954   2.846
 1061SOL     OW 3184   0.019   4.092   2.509
 1061SOL    HW1 3185  -0.063   4.135   2.548
 1061SOL    HW2 3186  -0.009   4.019   2.446
 1062SOL     OW 3187   1.755   4.331   2.093
 1062SOL    HW1 3188   1.743   4.318   1.994
 1062SOL    HW2 3189   1.725   4.250   2.142
 1063SOL     OW 3190   0.438   4.116   3.361
 1063SOL    HW1 3191   0.520   4.060   3.370
 1063SOL    HW2 3192   0.357   4.058   3.365
 1064SOL     OW 3193   1.603   4.171   2.599
 1064SOL    HW1 3194   1.529   4.217   2.549
 1064SOL    HW2 3195   1.654   4.239   2.652
 1065SOL     OW 3196   1.594   3.838   3.342
 1065SOL    HW1 3197   1.576   3.905   3.270
 1065SOL    HW2 3198   1.591   3.884   3.431
 1066SOL     OW 3199   0.122   4.367   2.425
 1066SOL    HW1 3200   0.077   4.279   2.442
 1066SOL    HW2 3201   0.121   4.421   2.509
 1067SOL     OW 3202   0.809   3.728   2.364
 1067SOL    HW1 3203   0.849   3.819   2.355
 1067SOL    HW2 3204   0.709   3.736   2.370
 1068SOL     OW 3205   0.317   3.975   3.663
 1068SOL    HW1 3206   0.388   4.046   3.669
 1068SOL    HW2 3207   0.229   4.014   3.691
 1069SOL     OW 3208   1.281   4.069   2.806
 1069SOL    HW1 3209   1.195   4.019   2.793
 1069SOL    HW2 3210   1.343   4.015   2.862
 1070SOL     OW 3211   0.807   4.329   3.327
 1070SOL    HW1 3212   0.760   4.326   3.416
 1070SOL    HW2 3213   0.756   4.274   3.261
 1071SOL     OW 3214   1.394   4.193   3.536
 1071SOL    HW1 3215   1.374   4.236   3.624
 1071SOL    HW2 3216   1.472   4.131   3.545
 1072SOL     OW 3217   0.991   4.134   3.104
 1072SOL    HW1 3218   0.914   4.168   3.158
 1072SOL    HW2 3219   0.957   4.083   3.025
 1073SOL     OW 3220   1.041   4.425   2.291
 1073SOL    HW1 3221   1.067   4.421   2.387
 1073SOL    HW2 3222   0.956   4.374   2.277
 1074SOL     OW 3223   0.076   4.535   2.651
 1074SOL    HW1 3224   0.175   4.523   2.660
 1074SOL    HW2 3225   0.052   4.630   2.672
 1075SOL     OW 3226   0.865   4.072   2.057
 1075SOL    HW1 3227   0.924   4.135   2.008
 1075SOL    HW2 3228   0.884   3.978   2.028
 1076SOL     OW 3229   1.719   4.309   3.693
 1076SOL    HW1 3230   1.693   4.398   3.657
 1076SOL    HW2 3231   1.717   4.241   3.620
 1077SOL     OW 3232   0.550   3.920   2.747
 1077SOL    HW1 3233   0.545   3.915   2.847
 1077SOL    HW2 3234   0.552   4.016   2.718
 1078SOL     OW 3235   1.458   4.459   2.590
 1078SOL    HW1 3236   1.453   4.394   2.665
 1078SOL    HW2 3237   1.538   4.518   2.603
 1079SOL     OW 3238   0.202   4.009   3.360
 1079SOL    HW1 3239   0.122   4.069   3.347
 1079SOL    HW2 3240   0.192   3.960   3.446
 1080SOL     OW 3241   1.400   3.831   2.288
 1080SOL    HW1 3242   1.376   3.794   2.198
 1080SOL    HW2 3243   1.499   3.847   2.292
 1081SOL     OW 3244   1.547   3.946   3.591
 1081SOL    HW1 3245   1.542   3.983   3.683
 1081SOL    HW2 3246   1.475   3.877   3.579
 1082SOL     OW 3247   0.614   3.846   1.979
 1082SOL    HW1 3248   0.712   3.824   1.986
 1082SOL    HW2 3249   0.583   3.829   1.886
 1083SOL     OW 3250   0.781   3.988   3.611
 1083SOL    HW1 3251   0.848   3.927   3.654
 1083SOL    HW2 3252   0.708   4.007   3.676
 1084SOL     OW 3253   1.351   4.314   3.295
 1084SOL    HW1 3254   1.379   4.271   3.380
 1084SOL    HW2 3255   1.376   4.410   3.296
 1085SOL     OW 3256   0.539   3.788   2.374
 1085SOL    HW1 3257   0.458   3.789   2.432
 1085SOL    HW2 3258   0.542   3.871   2.319
 1086SOL     OW 3259   0.297   3.759   2.033
 1086SOL    HW1 3260   0.346   3.843   2.012
 1086SOL    HW2 3261   0.359   3.694   2.078
 1087SOL     OW 3262   0.935   3.960   2.342
 1087SOL    HW1 3263   0.887   4.001   2.264
 1087SOL    HW2 3264   1.034   3.958   2.323
 1088SOL     OW 3265   0.078   4.280   3.248
 1088SOL    HW1 3266   0.170   4.279   3.207
 1088SOL    HW2 3267   0.072   4.354   3.315
 1089SOL     OW 3268   0.561   3.946   3.009
 1089SOL    HW1 3269   0.599   3.862   3.046
 1089SOL    HW2 3270   0.473   3.965   3.053
 1090SOL     OW 3271   1.017   3.763   2.615
 1090SOL    HW1 3272   0.945   3.768   2.546
 1090SOL    HW2 3273   0.993   3.694   2.684
 1091SOL     OW 3274   1.466   4.314   2.854
 1091SOL    HW1 3275   1.436   4.219   2.861
 1091SOL    HW2 3276   1.539   4.330   2.920
 1092SOL     OW 3277   0.527   3.980   2.190
 1092SOL    HW1 3278   0.554   3.921   2.115
 1092SOL    HW2 3279   0.527   4.075   2.159
 1093SOL     OW 3280   0.915   3.813   3.264
 1093SOL    HW1 3281   0.940   3.793   3.169
 1093SOL    HW2 3282   0.987   3.869   3.306
 1094SOL     OW 3283   1.274   4.110   3.124
 1094SOL    HW1 3284   1.295   4.184   3.188
 1094SOL    HW2 3285   1.185   4.127   3.081
 1095SOL     OW 3286   0.566   4.261   2.727
 1095SOL    HW1 3287   0.578   4.327   2.653
 1095SOL    HW2 3288   0.612   4.295   2.810
 1096SOL     OW 3289   1.013   3.829   3.632
 1096SOL    HW1 3290   1.019   3.914   3.580
 1096SOL    HW2 3291   1.045   3.753   3.575
 1097SOL     OW 3292   0.504   3.774   3.602
 1097SOL    HW1 3293   0.462   3.717   3.532
 1097SOL    HW2 3294   0.438   3.843   3.634
 1098SOL     OW 3295   1.209   4.249   2.137
 1098SOL    HW1 3296   1.222   4.165   2.191
 1098SOL    HW2 3297   1.180   4.323   2.197
 1099SOL     OW 3298   0.307   3.937   3.093
 1099SOL    HW1 3299   0.284   3.974   3.183
 1099SOL    HW2 3300   0.277   3.842   3.087
 1100SOL     OW 3301   0.732   4.358   2.926
 1100SOL    HW1 3302   0.791   4.332   2.850
 1100SOL    HW2 3303   0.704   4.454   2.915
 1101SOL     OW 3304   0.307   3.787   2.480
 1101SOL    HW1 3305   0.296   3.881   2.513
 1101SOL    HW2 3306   0.302   3.724   2.557
 1102SOL     OW 3307   1.622   4.091   2.236
 1102SOL    HW1 3308   1.624   4.015   2.300
 1102SOL    HW2 3309   1.574   4.168   2.276
 1103SOL     OW 3310   1.540   3.998   1.987
 1103SOL    HW1 3311   1.479   3.923   2.010
 1103SOL    HW2 3312   1.562   4.050   2.070
 1104SOL     OW 3313   0.339   4.233   2.868
 1104SOL    HW1 3314   0.287   4.150   2.851
 1104SOL    HW2 3315   0.416   4.238   2.804
 1105SOL     OW 3316   1.138   4.104   3.540
 1105SOL    HW1 3317   1.093   4.167   3.604
 1105SOL    HW2 3318   1.231   4.135   3.523
 1106SOL     OW 3319   1.160   3.931   3.339
 1106SOL    HW1 3320   1.160   3.995   3.416
 1106SOL    HW2 3321   1.188   3.979   3.256
 1107SOL     OW 3322   0.040   4.268   2.976
 1107SOL    HW1 3323   0.125   4.235   2.935
 1107SOL    HW2 3324   0.053   4.283   3.074
 1108SOL     OW 3325   0.189   4.244   3.584
 1108SOL    HW1 3326   0.248   4.204   3.514
 1108SOL    HW2 3327   0.131   4.315   3.543
 1109SOL     OW 3328   0.815   4.296   2.187
 1109SOL    HW1 3329   0.822   4.207   2.141
 1109SOL    HW2 3330   0.721   4.330   2.179
 1110SOL     OW 3331   1.657   4.328   3.068
 1110SOL    HW1 3332   1.619   4.259   3.130
 1110SOL    HW2 3333   1.739   4.292   3.024
 1111SOL     OW 3334   0.671   4.188   3.131
 1111SOL    HW1 3335   0.637   4.099   3.101
 1111SOL    HW2 3336   0.697   4.242   3.051
 1112SOL     OW 3337   1.726   3.859   2.385
 1112SOL    HW1 3338   1.799   3.842   2.318
 1112SOL    HW2 3339   1.695   3.772   2.423
 1113SOL     OW 3340   1.841   3.899   2.825
 1113SOL    HW1 3341   1.880   3.814   2.789
 1113SOL    HW2 3342   1.743   3.901   2.806
 1114SOL     OW 3343   0.263   4.050   2.582
 1114SOL    HW1 3344   0.184   4.101   2.548
 1114SOL    HW2 3345   0.254   4.035   2.680
 1115SOL     OW 3346   1.014   3.960   2.833
 1115SOL    HW1 3347   1.006   3.924   2.740
 1115SOL    HW2 3348   1.012   3.884   2.898
 1116SOL     OW 3349   1.709   4.109   3.243
 1116SOL    HW1 3350   1.782   4.178   3.247
 1116SOL    HW2 3351   1.737   4.034   3.184
 1117SOL     OW 3352   0.672   3.927   3.351
 1117SOL    HW1 3353   0.762   3.911   3.311
 1117SOL    HW2 3354   0.680   3.932   3.450
 1118SOL     OW 3355   0.075   4.069   1.895
 1118SOL    HW1 3356  -0.017   4.041   1.866
 1118SOL    HW2 3357   0.106   4.146   1.839
 1119SOL     OW 3358   0.072   3.890   2.180
 1119SOL    HW1 3359   0.055   3.973   2.126
 1119SOL    HW2 3360   0.162   3.853   2.158
 1120SOL     OW 3361   0.716   4.289   3.570
 1120SOL    HW1 3362   0.735   4.354   3.644
 1120SOL    HW2 3363   0.776   4.209   3.579
 1121SOL     OW 3364   1.225   4.049   2.311
 1121SOL    HW1 3365   1.290   3.975   2.300
 1121SOL    HW2 3366   1.245   4.099   2.395
 1122SOL     OW 3367   1.777   4.066   3.504
 1122SOL    HW1 3368   1.760   4.097   3.410
 1122SOL    HW2 3369   1.693   4.029   3.542
 1123SOL     OW 3370   1.824   3.916   3.089
 1123SOL    HW1 3371   1.820   3.826   3.133
 1123SOL    HW2 3372   1.827   3.905   2.990
 1124SOL     OW 3373   0.428   4.148   2.382
 1124SOL    HW1 3374   0.458   4.076   2.320
 1124SOL    HW2 3375   0.389   4.108   2.465
 1125SOL     OW 3376   0.317   4.271   3.142
 1125SOL    HW1 3377   0.355   4.212   3.214
 1125SOL    HW2 3378   0.357   4.245   3.054
 1126SOL     OW 3379   1.424   3.938   2.974
 1126SOL    HW1 3380   1.476   3.873   3.029
 1126SOL    HW2 3381   1.375   4.001   3.035
 1127SOL     OW 3382   1.001   3.758   3.016
 1127SOL    HW1 3383   0.938   3.686   2.985
 1127SOL    HW2 3384   1.094   3.722   3.016
 1128SOL     OW 3385   1.352   3.776   2.030
 1128SOL    HW1 3386   1.387   3.735   1.946
 1128SOL    HW2 3387   1.262   3.738   2.050
 1129SOL     OW 3388   1.300   4.177   2.553
 1129SOL    HW1 3389   1.241   4.257   2.557
 1129SOL    HW2 3390   1.315   4.142   2.646
 1130SOL     OW 3391   1.593   3.945   2.744
 1130SOL    HW1 3392   1.509   3.944   2.798
 1130SOL    HW2 3393   1.595   4.028   2.688
 1131SOL     OW 3394   1.755   4.331   3.955
 1131SOL    HW1 3395   1.743   4.318   3.856
 1131SOL    HW2 3396   1.725   4.250   4.004
 1132SOL     OW 3397   0.122   4.367   4.287
 1132SOL    HW1 3398   0.077   4.279   4.304
 1132SOL    HW2 3399   0.121   4.421   4.371
 1133SOL     OW 3400   0.809   3.728   4.226
 1133SOL    HW1 3401   0.849   3.819   4.217
 1133SOL    HW2 3402   0.709   3.736   4.232
 1134SOL     OW 3403   1.041   4.425   4.153
 1134SOL    HW1 3404   1.067   4.421   4.249
 1134SOL    HW2 3405   0.956   4.374   4.139
 1135SOL     OW 3406   0.865   4.072   3.919
 1135SOL    HW1 3407   0.924   4.135   3.870
 1135SOL    HW2 3408   0.884   3.978   3.890
 1136SOL     OW 3409   1.400   3.831   4.150
 1136SOL    HW1 3410   1.376   3.794   4.060
 1136SOL    HW2 3411   1.499   3.847   4.154
 1137SOL     OW 3412   0.614   3.846   3.841
 1137SOL    HW1 3413   0.712   3.824   3.848
 1137SOL    HW2 3414   0.583   3.829   3.748
 1138SOL     OW 3415   0.539   3.788   4.236
 1138SOL    HW1 3416   0.458   3.789   4.294
 1138SOL    HW2 3417   0.542   3.871   4.181
 1139SOL     OW 3418   0.297   3.759   3.895
 1139SOL    HW1 3419   0.346   3.843   3.874
 1139SOL    HW2 3420   0.359   3.694   3.940
 1140SOL     OW 3421   0.935   3.960   4.204
 1140SOL    HW1 3422   0.887   4.001   4.126
 1140SOL    HW2 3423   1.034   3.958   4.185
 1141SOL     OW 3424   0.527   3.980   4.052
 1141SOL    HW1 3425   0.554   3.921   3.977
 1141SOL    HW2 3426   0.527   4.075   4.021
 1142SOL     OW 3427   1.209   4.249   3.999
 1142SOL    HW1 3428   1.222   4.165   4.053
 1142SOL    HW2 3429   1.180   4.323   4.059
 1143SOL     OW 3430   1.622   4.091   4.098
 1143SOL    HW1 3431   1.624   4.015   4.162
 1143SOL    HW2 3432   1.574   4.168   4.138
 1144SOL     OW 3433   1.540   3.998   3.849
 1144SOL    HW1 3434   1.479   3.923   3.872
 1144SOL    HW2 3435   1.562   4.050   3.932
 1145SOL     OW 3436   0.815   4.296   4.049
 1145SOL    HW1 3437   0.822   4.207   4.003
 1145SOL    HW2 3438   0.721   4.330   4.041
 1146SOL     OW 3439   1.726   3.859   4.247
 1146SOL    HW1 3440   1.799   3.842   4.180
 1146SOL    HW2 3441   1.695   3.772   4.285
 1147SOL     OW 3442   0.075   4.069   3.757
 1147SOL    HW1 3443  -0.017   4.041   3.728
 1147SOL    HW2 3444   0.106   4.146   3.701
 1148SOL     OW 3445   0.072   3.890   4.042
 1148SOL    HW1 3446   0.055   3.973   3.988
 1148SOL    HW2 3447   0.162   3.853   4.020
 1149SOL     OW 3448   1.225   4.049   4.173
 1149SOL    HW1 3449   1.290   3.975   4.162
 1149SOL    HW2 3450   1.245   4.099   4.257
 1150SOL     OW 3451   0.428   4.148   4.244
 1150SOL    HW1 3452   0.458   4.076   4.182
 1150SOL    HW2 3453   0.389   4.108   4.327
 1151SOL     OW 3454   1.352   3.776   3.892
 1151SOL    HW1 3455   1.387   3.735   3.808
 1151SOL    HW2 3456   1.262   3.738   3.912
 1152SOL     OW 3457   1.300   4.177   4.415
 1152SOL    HW1 3458   1.241   4.257   4.419
 1152SOL    HW2 3459   1.315   4.142   4.508
 1153SOL     OW 3460   2.092   0.628   0.113
 1153SOL    HW1 3461   1.999   0.626   0.150
 1153SOL    HW2 3462   2.093   0.589   0.021
 1154SOL     OW 3463   2.087   0.275   0.996
 1154SOL    HW1 3464   2.122   0.258   1.088
 1154SOL    HW2 3465   1.999   0.230   0.984
 1155SOL     OW 3466   1.881   0.368   0.647
 1155SOL    HW1 3467   1.799   0.411   0.686
 1155SOL    HW2 3468   1.853   0.295   0.584
 1156SOL     OW 3469   2.431   1.275   1.165
 1156SOL    HW1 3470   2.338   1.268   1.128
 1156SOL    HW2 3471   2.442   1.364   1.209
 1157SOL     OW 3472   3.417   1.511   0.703
 1157SOL    HW1 3473   3.360   1.495   0.784
 1157SOL    HW2 3474   3.358   1.521   0.623
 1158SOL     OW 3475   2.997   0.703   0.717
 1158SOL    HW1 3476   3.054   0.781   0.692
 1158SOL    HW2 3477   2.937   0.729   0.793
 1159SOL     OW 3478   3.617   0.607   0.231
 1159SOL    HW1 3479   3.605   0.594   0.132
 1159SOL    HW2 3480   3.587   0.526   0.280
 1160SOL     OW 3481   2.630   1.144   1.023
 1160SOL    HW1 3482   2.552   1.161   1.083
 1160SOL    HW2 3483   2.664   1.231   0.987
 1161SOL     OW 3484   2.712   0.798   1.823
 1161SOL    HW1 3485   2.708   0.874   1.888
 1161SOL    HW2 3486   2.734   0.834   1.732
 1162SOL     OW 3487   2.547   1.012   0.665
 1162SOL    HW1 3488   2.616   0.996   0.735
 1162SOL    HW2 3489   2.474   1.069   0.703
 1163SOL     OW 3490   2.548   1.161   1.803
 1163SOL    HW1 3491   2.608   1.240   1.817
 1163SOL    HW2 3492   2.462   1.192   1.762
 1164SOL     OW 3493   2.197   1.435   1.061
 1164SOL    HW1 3494   2.119   1.404   1.008
 1164SOL    HW2 3495   2.255   1.493   1.004
 1165SOL     OW 3496   3.322   1.505   1.339
 1165SOL    HW1 3497   3.346   1.599   1.365
 1165SOL    HW2 3498   3.306   1.451   1.421
 1166SOL     OW 3499   2.300   0.392   1.499
 1166SOL    HW1 3500   2.382   0.336   1.508
 1166SOL    HW2 3501   2.219   0.334   1.503
 1167SOL     OW 3502   3.465   0.447   0.737
 1167SOL    HW1 3503   3.391   0.493   0.687
 1167SOL    HW2 3504   3.516   0.515   0.790
 1168SOL     OW 3505   2.093   1.713   0.483
 1168SOL    HW1 3506   2.127   1.790   0.537
 1168SOL    HW2 3507   2.137   1.713   0.393
 1169SOL     OW 3508   2.989   1.341   1.690
 1169SOL    HW1 3509   3.036   1.341   1.778
 1169SOL    HW2 3510   2.941   1.254   1.679
 1170SOL     OW 3511   2.092   1.434   0.538
 1170SOL    HW1 3512   2.066   1.530   0.538
 1170SOL    HW2 3513   2.021   1.380   0.583
 1171SOL     OW 3514   2.102   1.091   0.886
 1171SOL    HW1 3515   2.116   1.007   0.938
 1171SOL    HW2 3516   2.047   1.155   0.941
 1172SOL     OW 3517   2.482   1.786   1.439
 1172SOL    HW1 3518   2.390   1.769   1.474
 1172SOL    HW2 3519   2.510   1.878   1.465
 1173SOL     OW 3520   2.468   0.964   0.123
 1173SOL    HW1 3521   2.475   1.048   0.069
 1173SOL    HW2 3522   2.514   0.977   0.211
 1174SOL     OW 3523   3.456   0.114   1.480
 1174SOL    HW1 3524   3.438   0.181   1.408
 1174SOL    HW2 3525   3.453   0.160   1.569
 1175SOL     OW 3526   1.984   0.643   0.563
 1175SOL    HW1 3527   1.939   0.555   0.580
 1175SOL    HW2 3528   1.983   0.697   0.647
 1176SOL     OW 3529   3.704   1.767   0.359
 1176SOL    HW1 3530   3.758   1.738   0.439
 1176SOL    HW2 3531   3.734   1.857   0.330
 1177SOL     OW 3532   1.889   1.596   0.117
 1177SOL    HW1 3533   1.870   1.500   0.138
 1177SOL    HW2 3534   1.856   1.654   0.192
 1178SOL     OW 3535   3.551   0.922   0.612
 1178SOL    HW1 3536   3.646   0.893   0.620
 1178SOL    HW2 3537   3.543   0.987   0.537
 1179SOL     OW 3538   3.503   1.108   0.432
 1179SOL    HW1 3539   3.589   1.110   0.380
 1179SOL    HW2 3540   3.517   1.155   0.520
 1180SOL     OW 3541   1.975   0.737   1.597
 1180SOL    HW1 3542   2.063   0.724   1.642
 1180SOL    HW2 3543   1.962   0.834   1.575
 1181SOL     OW 3544   2.475   1.365   0.726
 1181SOL    HW1 3545   2.426   1.278   0.735
 1181SOL    HW2 3546   2.452   1.408   0.639
 1182SOL     OW 3547   3.155   1.228   1.423
 1182SOL    HW1 3548   3.192   1.155   1.365
 1182SOL    HW2 3549   3.207   1.233   1.508
 1183SOL     OW 3550   2.671   0.004   0.502
 1183SOL    HW1 3551   2.711   0.095   0.493
 1183SOL    HW2 3552   2.571   0.012   0.508
 1184SOL     OW 3553   2.059   0.976   1.264
 1184SOL    HW1 3554   2.148   0.931   1.250
 1184SOL    HW2 3555   1.986   0.911   1.245
 1185SOL     OW 3556   3.387   0.999   0.190
 1185SOL    HW1 3557   3.324   0.923   0.203
 1185SOL    HW2 3558   3.435   1.017   0.276
 1186SOL     OW 3559   3.049   1.792   1.616
 1186SOL    HW1 3560   3.073   1.852   1.540
 1186SOL    HW2 3561   3.056   1.697   1.586
 1187SOL     OW 3562   2.179   0.251   1.801
 1187SOL    HW1 3563   2.250   0.322   1.807
 1187SOL    HW2 3564   2.091   0.290   1.829
 1188SOL     OW 3565   3.328   1.417   0.953
 1188SOL    HW1 3566   3.269   1.423   1.033
 1188SOL    HW2 3567   3.313   1.329   0.907
 1189SOL     OW 3568   3.529   1.714   0.572
 1189SOL    HW1 3569   3.488   1.691   0.484
 1189SOL    HW2 3570   3.511   1.640   0.637
 1190SOL     OW 3571   2.460   0.729   0.270
 1190SOL    HW1 3572   2.484   0.798   0.202
 1190SOL    HW2 3573   2.382   0.762   0.324
 1191SOL     OW 3574   3.143   0.345   0.944
 1191SOL    HW1 3575   3.057   0.295   0.931
 1191SOL    HW2 3576   3.205   0.291   1.000
 1192SOL     OW 3577   3.438   1.662   0.307
 1192SOL    HW1 3578   3.527   1.708   0.310
 1192SOL    HW2 3579   3.417   1.638   0.212
 1193SOL     OW 3580   2.669   0.605   1.465
 1193SOL    HW1 3581   2.622   0.602   1.554
 1193SOL    HW2 3582   2.618   0.550   1.399
 1194SOL     OW 3583   3.256   0.469   1.674
 1194SOL    HW1 3584   3.236   0.512   1.762
 1194SOL    HW2 3585   3.334   0.407   1.683
 1195SOL     OW 3586   2.835   0.890   1.572
 1195SOL    HW1 3587   2.881   0.806   1.543
 1195SOL    HW2 3588   2.779   0.924   1.497
 1196SOL     OW 3589   2.853   0.410   1.242
 1196SOL    HW1 3590   2.776   0.444   1.296
 1196SOL    HW2 3591   2.819   0.359   1.163
 1197SOL     OW 3592   2.903   0.701   0.429
 1197SOL    HW1 3593   2.929   0.697   0.525
 1197SOL    HW2 3594   2.818   0.650   0.415
 1198SOL     OW 3595   1.938   0.811   0.789
 1198SOL    HW1 3596   2.037   0.799   0.798
 1198SOL    HW2 3597   1.914   0.906   0.810
 1199SOL     OW 3598   1.992   1.821   1.571
 1199SOL    HW1 3599   1.982   1.806   1.670
 1199SOL    HW2 3600   1.906   1.857   1.535
 1200SOL     OW 3601   2.727   0.348   0.195
 1200SOL    HW1 3602   2.786   0.411   0.146
 1200SOL    HW2 3603   2.746   0.254   0.166
 1201SOL     OW 3604   3.581   0.585   1.831
 1201SOL    HW1 3605   3.555   0.674   1.795
 1201SOL    HW2 3606   3.579   0.517   1.758
 1202SOL     OW 3607   3.224   1.144   0.545
 1202SOL    HW1 3608   3.307   1.115   0.497
 1202SOL    HW2 3609   3.175   1.211   0.489
 1203SOL     OW 3610   2.412   0.196   0.885
 1203SOL    HW1 3611   2.407   0.191   0.985
 1203SOL    HW2 3612   2.414   0.292   0.856
 1204SOL     OW 3613   2.870   1.456   0.477
 1204SOL    HW1 3614   2.824   1.528   0.425
 1204SOL    HW2 3615   2.866   1.476   0.575
 1205SOL     OW 3616   2.213   1.801   0.853
 1205SOL    HW1 3617   2.263   1.715   0.859
 1205SOL    HW2 3618   2.278   1.878   0.850
 1206SOL     OW 3619   3.657   1.066   0.873
 1206SOL    HW1 3620   3.595   1.051   0.797
 1206SOL    HW2 3621   3.605   1.077   0.958
 1207SOL     OW 3622   3.089   1.550   1.506
 1207SOL    HW1 3623   3.095   1.473   1.570
 1207SOL    HW2 3624   3.037   1.524   1.426
 1208SOL     OW 3625   2.183   0.943   0.242
 1208SOL    HW1 3626   2.265   0.982   0.200
 1208SOL    HW2 3627   2.156   0.861   0.193
 1209SOL     OW 3628   3.320   0.735   0.728
 1209SOL    HW1 3629   3.315   0.670   0.803
 1209SOL    HW2 3630   3.400   0.794   0.741
 1210SOL     OW 3631   2.323   1.266   1.727
 1210SOL    HW1 3632   2.273   1.267   1.641
 1210SOL    HW2 3633   2.260   1.248   1.803
 1211SOL     OW 3634   2.973   1.776   0.237
 1211SOL    HW1 3635   2.913   1.714   0.287
 1211SOL    HW2 3636   3.004   1.732   0.152
 1212SOL     OW 3637   2.064   0.285   1.498
 1212SOL    HW1 3638   1.984   0.345   1.485
 1212SOL    HW2 3639   2.054   0.236   1.584
 1213SOL     OW 3640   3.494   1.377   0.081
 1213SOL    HW1 3641   3.462   1.471   0.071
 1213SOL    HW2 3642   3.418   1.314   0.069
 1214SOL     OW 3643   2.326   1.743   0.323
 1214SOL    HW1 3644   2.359   1.782   0.409
 1214SOL    HW2 3645   2.402   1.736   0.258
 1215SOL     OW 3646   3.262   0.107   0.426
 1215SOL    HW1 3647   3.238   0.070   0.336
 1215SOL    HW2 3648   3.361   0.123   0.430
 1216SOL     OW 3649   2.111   1.785   1.241
 1216SOL    HW1 3650   2.168   1.720   1.291
 1216SOL    HW2 3651   2.095   1.752   1.148
 1217SOL     OW 3652   2.802   1.698   0.904
 1217SOL    HW1 3653   2.882   1.641   0.925
 1217SOL    HW2 3654   2.753   1.658   0.827
 1218SOL     OW 3655   2.244   0.700   0.480
 1218SOL    HW1 3656   2.289   0.610   0.477
 1218SOL    HW2 3657   2.150   0.689   0.513
 1219SOL     OW 3658   3.409   0.222   1.729
 1219SOL    HW1 3659   3.404   0.259   1.821
 1219SOL    HW2 3660   3.337   0.153   1.717
 1220SOL     OW 3661   2.476   0.122   0.117
 1220SOL    HW1 3662   2.574   0.100   0.124
 1220SOL    HW2 3663   2.445   0.105   0.024
 1221SOL     OW 3664   2.643   0.264   1.749
 1221SOL    HW1 3665   2.710   0.203   1.792
 1221SOL    HW2 3666   2.570   0.283   1.814
 1222SOL     OW 3667   2.750   1.514   1.195
 1222SOL    HW1 3668   2.727   1.489   1.101
 1222SOL    HW2 3669   2.811   1.445   1.234
 1223SOL     OW 3670   3.213   0.590   1.433
 1223SOL    HW1 3671   3.241   0.547   1.518
 1223SOL    HW2 3672   3.238   0.686   1.434
 1224SOL     OW 3673   2.665   1.402   0.924
 1224SOL    HW1 3674   2.755   1.416   0.882
 1224SOL    HW2 3675   2.594   1.404   0.853
 1225SOL     OW 3676   2.784   0.503   0.899
 1225SOL    HW1 3677   2.759   0.494   0.803
 1225SOL    HW2 3678   2.832   0.421   0.930
 1226SOL     OW 3679   2.401   0.064   0.512
 1226SOL    HW1 3680   2.320   0.065   0.570
 1226SOL    HW2 3681   2.404   0.147   0.457
 1227SOL     OW 3682   3.296   1.188   0.041
 1227SOL    HW1 3683   3.328   1.112   0.098
 1227SOL    HW2 3684   3.204   1.215   0.071
 1228SOL     OW 3685   2.159   0.035   0.171
 1228SOL    HW1 3686   2.208   0.119   0.150
 1228SOL    HW2 3687   2.221  -0.030   0.216
 1229SOL     OW 3688   2.797   0.236   0.480
 1229SOL    HW1 3689   2.749   0.277   0.402
 1229SOL    HW2 3690   2.896   0.234   0.461
 1230SOL     OW 3691   2.938   0.683   1.464
 1230SOL    HW1 3692   2.858   0.622   1.467
 1230SOL    HW2 3693   3.019   0.630   1.440
 1231SOL     OW 3694   3.089   1.570   0.793
 1231SOL    HW1 3695   3.110   1.644   0.728
 1231SOL    HW2 3696   3.157   1.570   0.866
 1232SOL     OW 3697   2.321   1.152   0.741
 1232SOL    HW1 3698   2.250   1.125   0.806
 1232SOL    HW2 3699   2.295   1.124   0.648
 1233SOL     OW 3700   3.133   1.797   0.591
 1233SOL    HW1 3701   3.177   1.861   0.527
 1233SOL    HW2 3702   3.083   1.849   0.661
 1234SOL     OW 3703   2.894   0.549   0.016
 1234SOL    HW1 3704   2.853   0.631  -0.023
 1234SOL    HW2 3705   2.958   0.575   0.089
 1235SOL     OW 3706   1.940   0.556   1.386
 1235SOL    HW1 3707   2.032   0.555   1.345
 1235SOL    HW2 3708   1.934   0.630   1.453
 1236SOL     OW 3709   2.423   0.222   1.147
 1236SOL    HW1 3710   2.461   0.138   1.184
 1236SOL    HW2 3711   2.335   0.241   1.191
 1237SOL     OW 3712   2.728   0.454   0.642
 1237SOL    HW1 3713   2.696   0.526   0.580
 1237SOL    HW2 3714   2.752   0.373   0.589
 1238SOL     OW 3715   2.879   0.039   0.753
 1238SOL    HW1 3716   2.807   0.044   0.684
 1238SOL    HW2 3717   2.855  -0.030   0.822
 1239SOL     OW 3718   3.291   1.173   0.867
 1239SOL    HW1 3719   3.236   1.089   0.860
 1239SOL    HW2 3720   3.317   1.202   0.775
 1240SOL     OW 3721   3.328   0.590   0.992
 1240SOL    HW1 3722   3.298   0.495   0.999
 1240SOL    HW2 3723   3.401   0.606   1.058
 1241SOL     OW 3724   3.719   0.833   0.377
 1241SOL    HW1 3725   3.761   0.769   0.441
 1241SOL    HW2 3726   3.681   0.782   0.299
 1242SOL     OW 3727   2.350   1.385   0.174
 1242SOL    HW1 3728   2.263   1.370   0.221
 1242SOL    HW2 3729   2.333   1.411   0.079
 1243SOL     OW 3730   3.526   1.280   0.657
 1243SOL    HW1 3731   3.625   1.288   0.671
 1243SOL    HW2 3732   3.481   1.364   0.688
 1244SOL     OW 3733   3.252   0.575   0.078
 1244SOL    HW1 3734   3.198   0.554   0.159
 1244SOL    HW2 3735   3.343   0.534   0.087
 1245SOL     OW 3736   2.389   0.256   0.328
 1245SOL    HW1 3737   2.416   0.197   0.253
 1245SOL    HW2 3738   2.389   0.351   0.297
 1246SOL     OW 3739   3.616   1.223   1.588
 1246SOL    HW1 3740   3.707   1.184   1.575
 1246SOL    HW2 3741   3.624   1.319   1.612
 1247SOL     OW 3742   2.926   1.347   1.340
 1247SOL    HW1 3743   2.846   1.324   1.395
 1247SOL    HW2 3744   3.009   1.321   1.389
 1248SOL     OW 3745   3.454   1.629   1.625
 1248SOL    HW1 3746   3.481   1.663   1.535
 1248SOL    HW2 3747   3.533   1.591   1.671
 1249SOL     OW 3748   2.973   1.195   1.100
 1249SOL    HW1 3749   2.933   1.239   1.181
 1249SOL    HW2 3750   2.932   1.232   1.017
 1250SOL     OW 3751   3.500   1.099   1.079
 1250SOL    HW1 3752   3.505   1.180   1.138
 1250SOL    HW2 3753   3.414   1.101   1.028
 1251SOL     OW 3754   2.777   0.089   1.402
 1251SOL    HW1 3755   2.802   0.069   1.307
 1251SOL    HW2 3756   2.849   0.145   1.444
 1252SOL     OW 3757   2.842   1.116   1.719
 1252SOL    HW1 3758   2.743   1.122   1.729
 1252SOL    HW2 3759   2.865   1.036   1.663
 1253SOL     OW 3760   2.567   1.050   0.368
 1253SOL    HW1 3761   2.553   1.057   0.467
 1253SOL    HW2 3762   2.651   0.999   0.350
 1254SOL     OW 3763   2.272   0.813   1.251
 1254SOL    HW1 3764   2.358   0.825   1.301
 1254SOL    HW2 3765   2.230   0.726   1.278
 1255SOL     OW 3766   3.136   0.386   1.262
 1255SOL    HW1 3767   3.157   0.460   1.326
 1255SOL    HW2 3768   3.047   0.403   1.219
 1256SOL     OW 3769   1.926   1.564   1.331
 1256SOL    HW1 3770   1.880   1.646   1.297
 1256SOL    HW2 3771   2.024   1.583   1.340
 1257SOL     OW 3772   2.229   1.100   0.501
 1257SOL    HW1 3773   2.222   1.183   0.445
 1257SOL    HW2 3774   2.233   1.020   0.441
 1258SOL     OW 3775   2.428   0.537   0.865
 1258SOL    HW1 3776   2.440   0.603   0.791
 1258SOL    HW2 3777   2.474   0.571   0.948
 1259SOL     OW 3778   3.114   1.348   0.388
 1259SOL    HW1 3779   3.164   1.425   0.428
 1259SOL    HW2 3780   3.019   1.350   0.420
 1260SOL     OW 3781   3.134   1.445   1.142
 1260SOL    HW1 3782   3.181   1.458   1.229
 1260SOL    HW2 3783   3.068   1.371   1.151
 1261SOL     OW 3784   3.444   0.639   0.472
 1261SOL    HW1 3785   3.413   0.700   0.545
 1261SOL    HW2 3786   3.494   0.691   0.403
 1262SOL     OW 3787   2.216   1.510   1.329
 1262SOL    HW1 3788   2.195   1.466   1.242
 1262SOL    HW2 3789   2.313   1.536   1.332
 1263SOL     OW 3790   2.264   0.751   1.598
 1263SOL    HW1 3791   2.332   0.806   1.551
 1263SOL    HW2 3792   2.304   0.663   1.625
 1264SOL     OW 3793   3.449   0.779   1.670
 1264SOL    HW1 3794   3.357   0.817   1.665
 1264SOL    HW2 3795   3.509   0.826   1.605
 1265SOL     OW 3796   2.875   0.105   1.770
 1265SOL    HW1 3797   2.881   0.190   1.718
 1265SOL    HW2 3798   2.907   0.029   1.713
 1266SOL     OW 3799   2.366   0.050   1.740
 1266SOL    HW1 3800   2.324  -0.007   1.670
 1266SOL    HW2 3801   2.300   0.119   1.772
 1267SOL     OW 3802   2.435   0.870   1.029
 1267SOL    HW1 3803   2.479   0.959   1.020
 1267SOL    HW2 3804   2.372   0.870   1.106
 1268SOL     OW 3805   3.222   0.862   1.045
 1268SOL    HW1 3806   3.147   0.862   0.979
 1268SOL    HW2 3807   3.259   0.770   1.054
 1269SOL     OW 3808   3.071   0.525   0.275
 1269SOL    HW1 3809   3.084   0.441   0.329
 1269SOL    HW2 3810   3.042   0.599   0.335
 1270SOL     OW 3811   2.169   0.213   1.231
 1270SOL    HW1 3812   2.146   0.250   1.321
 1270SOL    HW2 3813   2.139   0.118   1.225
 1271SOL     OW 3814   1.899   1.310   1.282
 1271SOL    HW1 3815   1.952   1.261   1.350
 1271SOL    HW2 3816   1.921   1.408   1.287
 1272SOL     OW 3817   2.594   0.634   1.064
 1272SOL    HW1 3818   2.653   0.608   0.988
 1272SOL    HW2 3819   2.566   0.730   1.053
 1273SOL     OW 3820   3.590   0.935   1.854
 1273SOL    HW1 3821   3.544   0.928   1.765
 1273SOL    HW2 3822   3.528   0.979   1.920
 1274SOL     OW 3823   2.169   0.063   0.618
 1274SOL    HW1 3824   2.158   0.157   0.651
 1274SOL    HW2 3825   2.164   0.000   0.695
 1275SOL     OW 3826   3.484   0.367   0.374
 1275SOL    HW1 3827   3.486   0.291   0.438
 1275SOL    HW2 3828   3.436   0.444   0.414
 1276SOL     OW 3829   2.885   0.766   0.966
 1276SOL    HW1 3830   2.900   0.787   1.062
 1276SOL    HW2 3831   2.855   0.671   0.957
 1277SOL     OW 3832   2.842   1.573   1.700
 1277SOL    HW1 3833   2.822   1.617   1.612
 1277SOL    HW2 3834   2.881   1.482   1.684
 1278SOL     OW 3835   3.721   1.518   1.605
 1278SOL    HW1 3836   3.735   1.545   1.510
 1278SOL    HW2 3837   3.804   1.540   1.658
 1279SOL     OW 3838   2.212   0.898   1.804
 1279SOL    HW1 3839   2.288   0.942   1.852
 1279SOL    HW2 3840   2.247   0.851   1.722
 1280SOL     OW 3841   3.402   0.274   0.125
 1280SOL    HW1 3842   3.341   0.199   0.148
 1280SOL    HW2 3843   3.424   0.326   0.208
 1281SOL     OW 3844   3.165   0.838   0.042
 1281SOL    HW1 3845   3.199   0.745   0.057
 1281SOL    HW2 3846   3.183   0.865  -0.053
 1282SOL     OW 3847   2.930   1.333   0.849
 1282SOL    HW1 3848   2.937   1.249   0.794
 1282SOL    HW2 3849   2.992   1.402   0.813
 1283SOL     OW 3850   2.181   0.810   0.949
 1283SOL    HW1 3851   2.274   0.846   0.954
 1283SOL    HW2 3852   2.175   0.725   1.001
 1284SOL     OW 3853   2.201   0.509   1.006
 1284SOL    HW1 3854   2.149   0.426   0.989
 1284SOL    HW2 3855   2.278   0.514   0.942
 1285SOL     OW 3856   3.000   0.380   1.678
 1285SOL    HW1 3857   2.955   0.443   1.742
 1285SOL    HW2 3858   3.093   0.411   1.661
 1286SOL     OW 3859   3.022   0.207   1.477
 1286SOL    HW1 3860   3.022   0.271   1.554
 1286SOL    HW2 3861   3.050   0.255   1.394
 1287SOL     OW 3862   1.870   1.326   0.200
 1287SOL    HW1 3863   1.777   1.347   0.169
 1287SOL    HW2 3864   1.880   1.227   0.213
 1288SOL     OW 3865   1.950   1.801   0.927
 1288SOL    HW1 3866   1.908   1.715   0.900
 1288SOL    HW2 3867   2.044   1.804   0.893
 1289SOL     OW 3868   2.366   1.568   0.910
 1289SOL    HW1 3869   2.432   1.642   0.919
 1289SOL    HW2 3870   2.410   1.489   0.868
 1290SOL     OW 3871   2.864   0.796   1.238
 1290SOL    HW1 3872   2.905   0.764   1.324
 1290SOL    HW2 3873   2.768   0.769   1.235
 1291SOL     OW 3874   1.902   0.544   1.114
 1291SOL    HW1 3875   1.987   0.511   1.073
 1291SOL    HW2 3876   1.915   0.559   1.212
 1292SOL     OW 3877   2.051   0.520   1.722
 1292SOL    HW1 3878   2.110   0.480   1.652
 1292SOL    HW2 3879   1.993   0.591   1.681
 1293SOL     OW 3880   3.231   0.950   1.660
 1293SOL    HW1 3881   3.270   1.039   1.680
 1293SOL    HW2 3882   3.241   0.930   1.563
 1294SOL     OW 3883   2.677   0.572   0.325
 1294SOL    HW1 3884   2.684   0.483   0.279
 1294SOL    HW2 3885   2.583   0.606   0.317
 1295SOL     OW 3886   3.519   0.604   1.206
 1295SOL    HW1 3887   3.481   0.535   1.268
 1295SOL    HW2 3888   3.601   0.568   1.162
 1296SOL     OW 3889   2.114   1.564   1.744
 1296SOL    HW1 3890   2.084   1.621   1.820
 1296SOL    HW2 3891   2.107   1.467   1.770
 1297SOL     OW 3892   2.533   0.464   1.269
 1297SOL    HW1 3893   2.499   0.375   1.239
 1297SOL    HW2 3894   2.559   0.518   1.189
 1298SOL     OW 3895   2.792   1.678   1.465
 1298SOL    HW1 3896   2.768   1.660   1.370
 1298SOL    HW2 3897   2.822   1.772   1.475
 1299SOL     OW 3898   2.335   0.500   0.191
 1299SOL    HW1 3899   2.396   0.580   0.195
 1299SOL    HW2 3900   2.240   0.531   0.198
 1300SOL     OW 3901   2.021   1.137   1.466
 1300SOL    HW1 3902   2.043   1.076   1.542
 1300SOL    HW2 3903   2.031   1.088   1.380
 1301SOL     OW 3904   3.209   1.059   1.234
 1301SOL    HW1 3905   3.233   0.996   1.160
 1301SOL    HW2 3906   3.119   1.099   1.216
 1302SOL     OW 3907   3.164   0.855   0.309
 1302SOL    HW1 3908   3.078   0.824   0.351
 1302SOL    HW2 3909   3.160   0.841   0.210
 1303SOL     OW 3910   3.621   1.747   1.154
 1303SOL    HW1 3911   3.682   1.777   1.081
 1303SOL    HW2 3912   3.583   1.658   1.132
 1304SOL     OW 3913   3.114   1.731   1.128
 1304SOL    HW1 3914   3.198   1.736   1.074
 1304SOL    HW2 3915   3.091   1.635   1.146
 1305SOL     OW 3916   1.945   1.258   1.022
 1305SOL    HW1 3917   1.940   1.257   1.122
 1305SOL    HW2 3918   1.862   1.217   0.984
 1306SOL     OW 3919   2.550   1.662   1.716
 1306SOL    HW1 3920   2.494   1.743   1.725
 1306SOL    HW2 3921   2.602   1.666   1.630
 1307SOL     OW 3922   2.765   0.086   0.133
 1307SOL    HW1 3923   2.816   0.087   0.047
 1307SOL    HW2 3924   2.821   0.044   0.204
 1308SOL     OW 3925   3.588   0.135   0.523
 1308SOL    HW1 3926   3.661   0.118   0.456
 1308SOL    HW2 3927   3.557   0.048   0.561
 1309SOL     OW 3928   3.250   1.573   0.477
 1309SOL    HW1 3929   3.317   1.585   0.403
 1309SOL    HW2 3930   3.210   1.662   0.500
 1310SOL     OW 3931   1.992   1.794   1.851
 1310SOL    HW1 3932   1.951   1.720   1.904
 1310SOL    HW2 3933   2.056   1.845   1.909
 1311SOL     OW 3934   3.142   0.927   0.672
 1311SOL    HW1 3935   3.202   0.846   0.674
 1311SOL    HW2 3936   3.182   0.996   0.612
 1312SOL     OW 3937   2.692   1.273   1.422
 1312SOL    HW1 3938   2.687   1.306   1.517
 1312SOL    HW2 3939   2.606   1.292   1.376
 1313SOL     OW 3940   2.534   1.616   0.154
 1313SOL    HW1 3941   2.543   1.626   0.055
 1313SOL    HW2 3942   2.494   1.527   0.175
 1314SOL     OW 3943   3.512   1.720   1.394
 1314SOL    HW1 3944   3.565   1.730   1.310
 1314SOL    HW2 3945   3.485   1.810   1.428
 1315SOL     OW 3946   3.703   0.175   0.963
 1315SOL    HW1 3947   3.742   0.090   0.927
 1315SOL    HW2 3948   3.605   0.177   0.944
 1316SOL     OW 3949   2.125   0.326   0.720
 1316SOL    HW1 3950   2.046   0.377   0.686
 1316SOL    HW2 3951   2.116   0.311   0.818
 1317SOL     OW 3952   3.056   1.612   0.031
 1317SOL    HW1 3953   3.062   1.519   0.068
 1317SOL    HW2 3954   2.997   1.612  -0.049
 1318SOL     OW 3955   2.684   1.002   1.372
 1318SOL    HW1 3956   2.724   1.001   1.280
 1318SOL    HW2 3957   2.694   1.094   1.412
 1319SOL     OW 3958   2.778   0.910   0.291
 1319SOL    HW1 3959   2.841   0.948   0.223
 1319SOL    HW2 3960   2.818   0.827   0.330
 1320SOL     OW 3961   3.366   1.607   0.044
 1320SOL    HW1 3962   3.274   1.644   0.051
 1320SOL    HW2 3963   3.404   1.627  -0.046
 1321SOL     OW 3964   2.234   1.288   1.490
 1321SOL    HW1 3965   2.221   1.381   1.456
 1321SOL    HW2 3966   2.150   1.236   1.477
 1322SOL     OW 3967   3.476   1.292   1.289
 1322SOL    HW1 3968   3.536   1.295   1.369
 1322SOL    HW2 3969   3.401   1.356   1.302
 1323SOL     OW 3970   2.901   1.098   0.696
 1323SOL    HW1 3971   2.831   1.051   0.750
 1323SOL    HW2 3972   2.960   1.030   0.653
 1324SOL     OW 3973   2.876   0.236   0.971
 1324SOL    HW1 3974   2.868   0.200   0.878
 1324SOL    HW2 3975   2.874   0.160   1.036
 1325SOL     OW 3976   2.452   1.487   0.491
 1325SOL    HW1 3977   2.494   1.429   0.421
 1325SOL    HW2 3978   2.408   1.566   0.447
 1326SOL     OW 3979   3.571   0.385   1.381
 1326SOL    HW1 3980   3.644   0.454   1.385
 1326SOL    HW2 3981   3.599   0.310   1.322
 1327SOL     OW 3982   2.117   1.348   0.290
 1327SOL    HW1 3983   2.021   1.349   0.263
 1327SOL    HW2 3984   2.129   1.401   0.374
 1328SOL     OW 3985   1.967   1.013   1.726
 1328SOL    HW1 3986   1.890   0.980   1.780
 1328SOL    HW2 3987   2.052   0.983   1.768
 1329SOL     OW 3988   2.534   0.203   1.489
 1329SOL    HW1 3989   2.624   0.187   1.449
 1329SOL    HW2 3990   2.542   0.208   1.588
 1330SOL     OW 3991   1.937   0.345   0.033
 1330SOL    HW1 3992   1.845   0.317   0.004
 1330SOL    HW2 3993   1.968   0.422  -0.023
 1331SOL     OW 3994   3.302   0.856   1.398
 1331SOL    HW1 3995   3.245   0.908   1.335
 1331SOL    HW2 3996   3.398   0.868   1.374
 1332SOL     OW 3997   1.934   0.166   0.318
 1332SOL    HW1 3998   1.917   0.249   0.264
 1332SOL    HW2 3999   2.024   0.129   0.296
 1333SOL     OW 4000   3.045   1.335   0.119
 1333SOL    HW1 4001   2.946   1.324   0.121
 1333SOL    HW2 4002   3.079   1.350   0.212
 1334SOL     OW 4003   2.475   0.842   1.431
 1334SOL    HW1 4004   2.531   0.923   1.414
 1334SOL    HW2 4005   2.534   0.762   1.434
 1335SOL     OW 4006   3.355   1.767   0.959
 1335SOL    HW1 4007   3.388   1.831   0.890
 1335SOL    HW2 4008   3.421   1.761   1.034
 1336SOL     OW 4009   2.578   0.565   1.708
 1336SOL    HW1 4010   2.597   0.630   1.782
 1336SOL    HW2 4011   2.638   0.485   1.717
 1337SOL     OW 4012   3.312   1.220   1.633
 1337SOL    HW1 4013   3.303   1.210   1.732
 1337SOL    HW2 4014   3.408   1.213   1.607
 1338SOL     OW 4015   2.252   1.741   1.560
 1338SOL    HW1 4016   2.161   1.782   1.558
 1338SOL    HW2 4017   2.245   1.647   1.592
 1339SOL     OW 4018   3.536   0.883   1.254
 1339SOL    HW1 4019   3.509   0.794   1.217
 1339SOL    HW2 4020   3.537   0.951   1.181
 1340SOL     OW 4021   3.087   0.325   0.449
 1340SOL    HW1 4022   3.152   0.251   0.438
 1340SOL    HW2 4023   3.107   0.375   0.533
 1341SOL     OW 4024   2.456   0.745   0.652
 1341SOL    HW1 4025   2.506   0.830   0.633
 1341SOL    HW2 4026   2.368   0.747   0.604
 1342SOL     OW 4027   3.639   0.342   1.642
 1342SOL    HW1 4028   3.622   0.373   1.548
 1342SOL    HW2 4029   3.555   0.305   1.680
 1343SOL     OW 4030   3.592   0.934   1.517
 1343SOL    HW1 4031   3.630   1.025   1.532
 1343SOL    HW2 4032   3.584   0.917   1.418
 1344SOL     OW 4033   2.721   1.374   0.016
 1344SOL    HW1 4034   2.675   1.389   0.104
 1344SOL    HW2 4035   2.765   1.459  -0.014
 1345SOL     OW 4036   2.523   1.790   0.953
 1345SOL    HW1 4037   2.477   1.878   0.940
 1345SOL    HW2 4038   2.622   1.802   0.946
 1346SOL     OW 4039   2.721   0.956   0.861
 1346SOL    HW1 4040   2.775   0.887   0.909
 1346SOL    HW2 4041   2.689   1.025   0.927
 1347SOL     OW 4042   2.945   0.984   0.087
 1347SOL    HW1 4043   2.922   1.037   0.005
 1347SOL    HW2 4044   3.026   0.928   0.068
 1348SOL     OW 4045   3.723   1.569   0.851
 1348SOL    HW1 4046   3.652   1.557   0.781
 1348SOL    HW2 4047   3.724   1.490   0.911
 1349SOL     OW 4048   2.083   1.314   1.844
 1349SOL    HW1 4049   2.018   1.241   1.823
 1349SOL    HW2 4050   2.087   1.328   1.942
 1350SOL     OW 4051   1.941   1.240   0.653
 1350SOL    HW1 4052   1.940   1.193   0.741
 1350SOL    HW2 4053   2.023   1.212   0.602
 1351SOL     OW 4054   2.534   1.391   1.624
 1351SOL    HW1 4055   2.456   1.341   1.662
 1351SOL    HW2 4056   2.531   1.486   1.655
 1352SOL     OW 4057   3.686   0.192   1.227
 1352SOL    HW1 4058   3.682   0.102   1.271
 1352SOL    HW2 4059   3.689   0.181   1.128
 1353SOL     OW 4060   2.290   0.424   0.520
 1353SOL    HW1 4061   2.320   0.352   0.458
 1353SOL    HW2 4062   2.251   0.384   0.603
 1354SOL     OW 4063   3.567   1.487   1.104
 1354SOL    HW1 4064   3.474   1.462   1.077
 1354SOL    HW2 4065   3.593   1.437   1.186
 1355SOL     OW 4066   2.179   0.547   1.280
 1355SOL    HW1 4067   2.217   0.488   1.352
 1355SOL    HW2 4068   2.219   0.521   1.192
 1356SOL     OW 4069   2.674   1.586   0.687
 1356SOL    HW1 4070   2.706   1.596   0.593
 1356SOL    HW2 4071   2.595   1.524   0.689
 1357SOL     OW 4072   3.286   0.214   1.112
 1357SOL    HW1 4073   3.338   0.149   1.167
 1357SOL    HW2 4074   3.237   0.277   1.173
 1358SOL     OW 4075   2.863   0.034   1.154
 1358SOL    HW1 4076   2.800  -0.038   1.123
 1358SOL    HW2 4077   2.956  -0.002   1.154
 1359SOL     OW 4078   2.632   1.330   0.301
 1359SOL    HW1 4079   2.586   1.243   0.318
 1359SOL    HW2 4080   2.723   1.327   0.342
 1360SOL     OW 4081   2.480   1.567   1.284
 1360SOL    HW1 4082   2.475   1.649   1.341
 1360SOL    HW2 4083   2.569   1.564   1.239
 1361SOL     OW 4084   3.214   0.052   0.168
 1361SOL    HW1 4085   3.249   0.011   0.084
 1361SOL    HW2 4086   3.124   0.014   0.188
 1362SOL     OW 4087   3.162   0.453   0.691
 1362SOL    HW1 4088   3.103   0.533   0.695
 1362SOL    HW2 4089   3.177   0.418   0.784
 1363SOL     OW 4090   3.455   0.221   0.882
 1363SOL    HW1 4091   3.371   0.220   0.936
 1363SOL    HW2 4092   3.457   0.304   0.826
 1364SOL     OW 4093   1.901   1.077   0.300
 1364SOL    HW1 4094   2.000   1.066   0.291
 1364SOL    HW2 4095   1.861   0.991   0.332
 1365SOL     OW 4096   2.737   1.646   0.337
 1365SOL    HW1 4097   2.660   1.611   0.283
 1365SOL    HW2 4098   2.705   1.717   0.399
 1366SOL     OW 4099   2.092   0.628   1.975
 1366SOL    HW1 4100   1.999   0.626   2.012
 1366SOL    HW2 4101   2.093   0.589   1.883
 1367SOL     OW 4102   2.087   0.275   2.858
 1367SOL    HW1 4103   2.122   0.258   2.950
 1367SOL    HW2 4104   1.999   0.230   2.846
 1368SOL     OW 4105   1.881   0.368   2.509
 1368SOL    HW1 4106   1.799   0.411   2.548
 1368SOL    HW2 4107   1.853   0.295   2.446
 1369SOL     OW 4108   2.431   1.275   3.027
 1369SOL    HW1 4109   2.338   1.268   2.990
 1369SOL    HW2 4110   2.442   1.364   3.071
 1370SOL     OW 4111   3.417   1.511   2.565
 1370SOL    HW1 4112   3.360   1.495   2.646
 1370SOL    HW2 4113   3.358   1.521   2.485
 1371SOL     OW 4114   2.997   0.703   2.579
 1371SOL    HW1 4115   3.054   0.781   2.554
 1371SOL    HW2 4116   2.937   0.729   2.655
 1372SOL     OW 4117   3.617   0.607   2.093
 1372SOL    HW1 4118   3.605   0.594   1.994
 1372SOL    HW2 4119   3.587   0.526   2.142
 1373SOL     OW 4120   2.630   1.144   2.885
 1373SOL    HW1 4121   2.552   1.161   2.945
 1373SOL    HW2 4122   2.664   1.231   2.849
 1374SOL     OW 4123   2.712   0.798   3.685
 1374SOL    HW1 4124   2.708   0.874   3.750
 1374SOL    HW2 4125   2.734   0.834   3.594
 1375SOL     OW 4126   2.547   1.012   2.527
 1375SOL    HW1 4127   2.616   0.996   2.597
 1375SOL    HW2 4128   2.474   1.069   2.565
 1376SOL     OW 4129   2.548   1.161   3.665
 1376SOL    HW1 4130   2.608   1.240   3.679
 1376SOL    HW2 4131   2.462   1.192   3.624
 1377SOL     OW 4132   2.197   1.435   2.923
 1377SOL    HW1 4133   2.119   1.404   2.870
 1377SOL    HW2 4134   2.255   1.493   2.866
 1378SOL     OW 4135   3.322   1.505   3.201
 1378SOL    HW1 4136   3.346   1.599   3.227
 1378SOL    HW2 4137   3.306   1.451   3.283
 1379SOL     OW 4138   2.300   0.392   3.361
 1379SOL    HW1 4139   2.382   0.336   3.370
 1379SOL    HW2 4140   2.219   0.334   3.365
 1380SOL     OW 4141   3.465   0.447   2.599
 1380SOL    HW1 4142   3.391   0.493   2.549
 1380SOL    HW2 4143   3.516   0.515   2.652
 1381SOL     OW 4144   2.093   1.713   2.345
 1381SOL    HW1 4145   2.127   1.790   2.399
 1381SOL    HW2 4146   2.137   1.713   2.255
 1382SOL     OW 4147   2.989   1.341   3.552
 1382SOL    HW1 4148   3.036   1.341   3.640
 1382SOL    HW2 4149   2.941   1.254   3.541
 1383SOL     OW 4150   2.092   1.434   2.400
 1383SOL    HW1 4151   2.066   1.530   2.400
 1383SOL    HW2 4152   2.021   1.380   2.445
 1384SOL     OW 4153   2.102   1.091   2.748
 1384SOL    HW1 4154   2.116   1.007   2.800
 1384SOL    HW2 4155   2.047   1.155   2.803
 1385SOL     OW 4156   2.482   1.786   3.301
 1385SOL    HW1 4157   2.390   1.769   3.336
 1385SOL    HW2 4158   2.510   1.878   3.327
 1386SOL     OW 4159   2.468   0.964   1.985
 1386SOL    HW1 4160   2.475   1.048   1.931
 1386SOL    HW2 4161   2.514   0.977   2.073
 1387SOL     OW 4162   3.456   0.114   3.342
 1387SOL    HW1 4163   3.438   0.181   3.270
 1387SOL    HW2 4164   3.453   0.160   3.431
 1388SOL     OW 4165   1.984   0.643   2.425
 1388SOL    HW1 4166   1.939   0.555   2.442
 1388SOL    HW2 4167   1.983   0.697   2.509
 1389SOL     OW 4168   3.704   1.767   2.221
 1389SOL    HW1 4169   3.758   1.738   2.301
 1389SOL    HW2 4170   3.734   1.857   2.192
 1390SOL     OW 4171   1.889   1.596   1.979
 1390SOL    HW1 4172   1.870   1.500   2.000
 1390SOL    HW2 4173   1.856   1.654   2.054
 1391SOL     OW 4174   3.551   0.922   2.474
 1391SOL    HW1 4175   3.646   0.893   2.482
 1391SOL    HW2 4176   3.543   0.987   2.399
 1392SOL     OW 4177   3.503   1.108   2.294
 1392SOL    HW1 4178   3.589   1.110   2.242
 1392SOL    HW2 4179   3.517   1.155   2.382
 1393SOL     OW 4180   1.975   0.737   3.459
 1393SOL    HW1 4181   2.063   0.724   3.504
 1393SOL    HW2 4182   1.962   0.834   3.437
 1394SOL     OW 4183   2.475   1.365   2.588
 1394SOL    HW1 4184   2.426   1.278   2.597
 1394SOL    HW2 4185   2.452   1.408   2.501
 1395SOL     OW 4186   3.155   1.228   3.285
 1395SOL    HW1 4187   3.192   1.155   3.227
 1395SOL    HW2 4188   3.207   1.233   3.370
 1396SOL     OW 4189   2.671   0.004   2.364
 1396SOL    HW1 4190   2.711   0.095   2.355
 1396SOL    HW2 4191   2.571   0.012   2.370
 1397SOL     OW 4192   2.059   0.976   3.126
 1397SOL    HW1 4193   2.148   0.931   3.112
 1397SOL    HW2 4194   1.986   0.911   3.107
 1398SOL     OW 4195   3.387   0.999   2.052
 1398SOL    HW1 4196   3.324   0.923   2.065
 1398SOL    HW2 4197   3.435   1.017   2.138
 1399SOL     OW 4198   3.049   1.792   3.478
 1399SOL    HW1 4199   3.073   1.852   3.402
 1399SOL    HW2 4200   3.056   1.697   3.448
 1400SOL     OW 4201   2.179   0.251   3.663
 1400SOL    HW1 4202   2.250   0.322   3.669
 1400SOL    HW2 4203   2.091   0.290   3.691
 1401SOL     OW 4204   3.328   1.417   2.815
 1401SOL    HW1 4205   3.269   1.423   2.895
 1401SOL    HW2 4206   3.313   1.329   2.769
 1402SOL     OW 4207   3.529   1.714   2.434
 1402SOL    HW1 4208   3.488   1.691   2.346
 1402SOL    HW2 4209   3.511   1.640   2.499
 1403SOL     OW 4210   2.460   0.729   2.132
 1403SOL    HW1 4211   2.484   0.798   2.064
 1403SOL    HW2 4212   2.382   0.762   2.186
 1404SOL     OW 4213   3.143   0.345   2.806
 1404SOL    HW1 4214   3.057   0.295   2.793
 1404SOL    HW2 4215   3.205   0.291   2.862
 1405SOL     OW 4216   3.438   1.662   2.169
 1405SOL    HW1 4217   3.527   1.708   2.172
 1405SOL    HW2 4218   3.417   1.638   2.074
 1406SOL     OW 4219   2.669   0.605   3.327
 1406SOL    HW1 4220   2.622   0.602   3.416
 1406SOL    HW2 4221   2.618   0.550   3.261
 1407SOL     OW 4222   3.256   0.469   3.536
 1407SOL    HW1 4223   3.236   0.512   3.624
 1407SOL    HW2 4224   3.334   0.407   3.545
 1408SOL     OW 4225   2.835   0.890   3.434
 1408SOL    HW1 4226   2.881   0.806   3.405
 1408SOL    HW2 4227   2.779   0.924   3.359
 1409SOL     OW 4228   2.853   0.410   3.104
 1409SOL    HW1 4229   2.776   0.444   3.158
 1409SOL    HW2 4230   2.819   0.359   3.025
 1410SOL     OW 4231   2.903   0.701   2.291
 1410SOL    HW1 4232   2.929   0.697   2.387
 1410SOL    HW2 4233   2.818   0.650   2.277
 1411SOL     OW 4234   1.938   0.811   2.651
 1411SOL    HW1 4235   2.037   0.799   2.660
 1411SOL    HW2 4236   1.914   0.906   2.672
 1412SOL     OW 4237   1.992   1.821   3.433
 1412SOL    HW1 4238   1.982   1.806   3.532
 1412SOL    HW2 4239   1.906   1.857   3.397
 1413SOL     OW 4240   2.727   0.348   2.057
 1413SOL    HW1 4241   2.786   0.411   2.008
 1413SOL    HW2 4242   2.746   0.254   2.028
 1414SOL     OW 4243   3.581   0.585   3.693
 1414SOL    HW1 4244   3.555   0.674   3.657
 1414SOL    HW2 4245   3.579   0.517   3.620
 1415SOL     OW 4246   3.224   1.144   2.407
 1415SOL    HW1 4247   3.307   1.115   2.359
 1415SOL    HW2 4248   3.175   1.211   2.351
 1416SOL     OW 4249   2.412   0.196   2.747
 1416SOL    HW1 4250   2.407   0.191   2.847
 1416SOL    HW2 4251   2.414   0.292   2.718
 1417SOL     OW 4252   2.870   1.456   2.339
 1417SOL    HW1 4253   2.824   1.528   2.287
 1417SOL    HW2 4254   2.866   1.476   2.437
 1418SOL     OW 4255   2.213   1.801   2.715
 1418SOL    HW1 4256   2.263   1.715   2.721
 1418SOL    HW2 4257   2.278   1.878   2.712
 1419SOL     OW 4258   3.657   1.066   2.735
 1419SOL    HW1 4259   3.595   1.051   2.659
 1419SOL    HW2 4260   3.605   1.077   2.820
 1420SOL     OW 4261   3.089   1.550   3.368
 1420SOL    HW1 4262   3.095   1.473   3.432
 1420SOL    HW2 4263   3.037   1.524   3.288
 1421SOL     OW 4264   2.183   0.943   2.104
 1421SOL    HW1 4265   2.265   0.982   2.062
 1421SOL    HW2 4266   2.156   0.861   2.055
 1422SOL     OW 4267   3.320   0.735   2.590
 1422SOL    HW1 4268   3.315   0.670   2.665
 1422SOL    HW2 4269   3.400   0.794   2.603
 1423SOL     OW 4270   2.323   1.266   3.589
 1423SOL    HW1 4271   2.273   1.267   3.503
 1423SOL    HW2 4272   2.260   1.248   3.665
 1424SOL     OW 4273   2.973   1.776   2.099
 1424SOL    HW1 4274   2.913   1.714   2.149
 1424SOL    HW2 4275   3.004   1.732   2.014
 1425SOL     OW 4276   2.064   0.285   3.360
 1425SOL    HW1 4277   1.984   0.345   3.347
 1425SOL    HW2 4278   2.054   0.236   3.446
 1426SOL     OW 4279   3.494   1.377   1.943
 1426SOL    HW1 4280   3.462   1.471   1.933
 1426SOL    HW2 4281   3.418   1.314   1.931
 1427SOL     OW 4282   2.326   1.743   2.185
 1427SOL    HW1 4283   2.359   1.782   2.271
 1427SOL    HW2 4284   2.402   1.736   2.120
 1428SOL     OW 4285   3.262   0.107   2.288
 1428SOL    HW1 4286   3.238   0.070   2.198
 1428SOL    HW2 4287   3.361   0.123   2.292
 1429SOL     OW 4288   2.111   1.785   3.103
 1429SOL    HW1 4289   2.168   1.720   3.153
 1429SOL    HW2 4290   2.095   1.752   3.010
 1430SOL     OW 4291   2.802   1.698   2.766
 1430SOL    HW1 4292   2.882   1.641   2.787
 1430SOL    HW2 4293   2.753   1.658   2.689
 1431SOL     OW 4294   2.244   0.700   2.342
 1431SOL    HW1 4295   2.289   0.610   2.339
 1431SOL    HW2 4296   2.150   0.689   2.375
 1432SOL     OW 4297   3.409   0.222   3.591
 1432SOL    HW1 4298   3.404   0.259   3.683
 1432SOL    HW2 4299   3.337   0.153   3.579
 1433SOL     OW 4300   2.476   0.122   1.979
 1433SOL    HW1 4301   2.574   0.100   1.986
 1433SOL    HW2 4302   2.445   0.105   1.886
 1434SOL     OW 4303   2.643   0.264   3.611
 1434SOL    HW1 4304   2.710   0.203   3.654
 1434SOL    HW2 4305   2.570   0.283   3.676
 1435SOL     OW 4306   2.750   1.514   3.057
 1435SOL    HW1 4307   2.727   1.489   2.963
 1435SOL    HW2 4308   2.811   1.445   3.096
 1436SOL     OW 4309   3.213   0.590   3.295
 1436SOL    HW1 4310   3.241   0.547   3.380
 1436SOL    HW2 4311   3.238   0.686   3.296
 1437SOL     OW 4312   2.665   1.402   2.786
 1437SOL    HW1 4313   2.755   1.416   2.744
 1437SOL    HW2 4314   2.594   1.404   2.715
 1438SOL     OW 4315   2.784   0.503   2.761
 1438SOL    HW1 4316   2.759   0.494   2.665
 1438SOL    HW2 4317   2.832   0.421   2.792
 1439SOL     OW 4318   2.401   0.064   2.374
 1439SOL    HW1 4319   2.320   0.065   2.432
 1439SOL    HW2 4320   2.404   0.147   2.319
 1440SOL     OW 4321   3.296   1.188   1.903
 1440SOL    HW1 4322   3.328   1.112   1.960
 1440SOL    HW2 4323   3.204   1.215   1.933
 1441SOL     OW 4324   2.159   0.035   2.033
 1441SOL    HW1 4325   2.208   0.119   2.012
 1441SOL    HW2 4326   2.221  -0.030   2.078
 1442SOL     OW 4327   2.797   0.236   2.342
 1442SOL    HW1 4328   2.749   0.277   2.264
 1442SOL    HW2 4329   2.896   0.234   2.323
 1443SOL     OW 4330   2.938   0.683   3.326
 1443SOL    HW1 4331   2.858   0.622   3.329
 1443SOL    HW2 4332   3.019   0.630   3.302
 1444SOL     OW 4333   3.089   1.570   2.655
 1444SOL    HW1 4334   3.110   1.644   2.590
 1444SOL    HW2 4335   3.157   1.570   2.728
 1445SOL     OW 4336   2.321   1.152   2.603
 1445SOL    HW1 4337   2.250   1.125   2.668
 1445SOL    HW2 4338   2.295   1.124   2.510
 1446SOL     OW 4339   3.133   1.797   2.453
 1446SOL    HW1 4340   3.177   1.861   2.389
 1446SOL    HW2 4341   3.083   1.849   2.523
 1447SOL     OW 4342   2.894   0.549   1.878
 1447SOL    HW1 4343   2.853   0.631   1.839
 1447SOL    HW2 4344   2.958   0.575   1.951
 1448SOL     OW 4345   1.940   0.556   3.248
 1448SOL    HW1 4346   2.032   0.555   3.207
 1448SOL    HW2 4347   1.934   0.630   3.315
 1449SOL     OW 4348   2.423   0.222   3.009
 1449SOL    HW1 4349   2.461   0.138   3.046
 1449SOL    HW2 4350   2.335   0.241   3.053
 1450SOL     OW 4351   2.728   0.454   2.504
 1450SOL    HW1 4352   2.696   0.526   2.442
 1450SOL    HW2 4353   2.752   0.373   2.451
 1451SOL     OW 4354   2.879   0.039   2.615
 1451SOL    HW1 4355   2.807   0.044   2.546
 1451SOL    HW2 4356   2.855  -0.030   2.684
 1452SOL     OW 4357   3.291   1.173   2.729
 1452SOL    HW1 4358   3.236   1.089   2.722
 1452SOL    HW2 4359   3.317   1.202   2.637
 1453SOL     OW 4360   3.328   0.590   2.854
 1453SOL    HW1 4361   3.298   0.495   2.861
 1453SOL    HW2 4362   3.401   0.606   2.920
 1454SOL     OW 4363   3.719   0.833   2.239
 1454SOL    HW1 4364   3.761   0.769   2.303
 1454SOL    HW2 4365   3.681   0.782   2.161
 1455SOL     OW 4366   2.350   1.385   2.036
 1455SOL    HW1 4367   2.263   1.370   2.083
 1455SOL    HW2 4368   2.333   1.411   1.941
 1456SOL     OW 4369   3.526   1.280   2.519
 1456SOL    HW1 4370   3.625   1.288   2.533
 1456SOL    HW2 4371   3.481   1.364   2.550
 1457SOL     OW 4372   3.252   0.575   1.940
 1457SOL    HW1 4373   3.198   0.554   2.021
 1457SOL    HW2 4374   3.343   0.534   1.949
 1458SOL     OW 4375   2.389   0.256   2.190
 1458SOL    HW1 4376   2.416   0.197   2.115
 1458SOL    HW2 4377   2.389   0.351   2.159
 1459SOL     OW 4378   3.616   1.223   3.450
 1459SOL    HW1 4379   3.707   1.184   3.437
 1459SOL    HW2 4380   3.624   1.319   3.474
 1460SOL     OW 4381   2.926   1.347   3.202
 1460SOL    HW1 4382   2.846   1.324   3.257
 1460SOL    HW2 4383   3.009   1.321   3.251
 1461SOL     OW 4384   3.454   1.629   3.487
 1461SOL    HW1 4385   3.481   1.663   3.397
 1461SOL    HW2 4386   3.533   1.591   3.533
 1462SOL     OW 4387   2.973   1.195   2.962
 1462SOL    HW1 4388   2.933   1.239   3.043
 1462SOL    HW2 4389   2.932   1.232   2.879
 1463SOL     OW 4390   3.500   1.099   2.941
 1463SOL    HW1 4391   3.505   1.180   3.000
 1463SOL    HW2 4392   3.414   1.101   2.890
 1464SOL     OW 4393   2.777   0.089   3.264
 1464SOL    HW1 4394   2.802   0.069   3.169
 1464SOL    HW2 4395   2.849   0.145   3.306
 1465SOL     OW 4396   2.842   1.116   3.581
 1465SOL    HW1 4397   2.743   1.122   3.591
 1465SOL    HW2 4398   2.865   1.036   3.525
 1466SOL     OW 4399   2.567   1.050   2.230
 1466SOL    HW1 4400   2.553   1.057   2.329
 1466SOL    HW2 4401   2.651   0.999   2.212
 1467SOL     OW 4402   2.272   0.813   3.113
 1467SOL    HW1 4403   2.358   0.825   3.163
 1467SOL    HW2 4404   2.230   0.726   3.140
 1468SOL     OW 4405   3.136   0.386   3.124
 1468SOL    HW1 4406   3.157   0.460   3.188
 1468SOL    HW2 4407   3.047   0.403   3.081
 1469SOL     OW 4408   1.926   1.564   3.193
 1469SOL    HW1 4409   1.880   1.646   3.159
 1469SOL    HW2 4410   2.024   1.583   3.202
 1470SOL     OW 4411   2.229   1.100   2.363
 1470SOL    HW1 4412   2.222   1.183   2.307
 1470SOL    HW2 4413   2.233   1.020   2.303
 1471SOL     OW 4414   2.428   0.537   2.727
 1471SOL    HW1 4415   2.440   0.603   2.653
 1471SOL    HW2 4416   2.474   0.571   2.810
 1472SOL     OW 4417   3.114   1.348   2.250
 1472SOL    HW1 4418   3.164   1.425   2.290
 1472SOL    HW2 4419   3.019   1.350   2.282
 1473SOL     OW 4420   3.134   1.445   3.004
 1473SOL    HW1 4421   3.181   1.458   3.091
 1473SOL    HW2 4422   3.068   1.371   3.013
 1474SOL     OW 4423   3.444   0.639   2.334
 1474SOL    HW1 4424   3.413   0.700   2.407
 1474SOL    HW2 4425   3.494   0.691   2.265
 1475SOL     OW 4426   2.216   1.510   3.191
 1475SOL    HW1 4427   2.195   1.466   3.104
 1475SOL    HW2 4428   2.313   1.536   3.194
 1476SOL     OW 4429   2.264   0.751   3.460
 1476SOL    HW1 4430   2.332   0.806   3.413
 1476SOL    HW2 4431   2.304   0.663   3.487
 1477SOL     OW 4432   3.449   0.779   3.532
 1477SOL    HW1 4433   3.357   0.817   3.527
 1477SOL    HW2 4434   3.509   0.826   3.467
 1478SOL     OW 4435   2.875   0.105   3.632
 1478SOL    HW1 4436   2.881   0.190   3.580
 1478SOL    HW2 4437   2.907   0.029   3.575
 1479SOL     OW 4438   2.366   0.050   3.602
 1479SOL    HW1 4439   2.324  -0.007   3.532
 1479SOL    HW2 4440   2.300   0.119   3.634
 1480SOL     OW 4441   2.435   0.870   2.891
 1480SOL    HW1 4442   2.479   0.959   2.882
 1480SOL    HW2 4443   2.372   0.870   2.968
 1481SOL     OW 4444   3.222   0.862   2.907
 1481SOL    HW1 4445   3.147   0.862   2.841
 1481SOL    HW2 4446   3.259   0.770   2.916
 1482SOL     OW 4447   3.071   0.525   2.137
 1482SOL    HW1 4448   3.084   0.441   2.191
 1482SOL    HW2 4449   3.042   0.599   2.197
 1483SOL     OW 4450   2.169   0.213   3.093
 1483SOL    HW1 4451   2.146   0.250   3.183
 1483SOL    HW2 4452   2.139   0.118   3.087
 1484SOL     OW 4453   1.899   1.310   3.144
 1484SOL    HW1 4454   1.952   1.261   3.212
 1484SOL    HW2 4455   1.921   1.408   3.149
 1485SOL     OW 4456   2.594   0.634   2.926
 1485SOL    HW1 4457   2.653   0.608   2.850
 1485SOL    HW2 4458   2.566   0.730   2.915
 1486SOL     OW 4459   3.590   0.935   3.716
 1486SOL    HW1 4460   3.544   0.928   3.627
 1486SOL    HW2 4461   3.528   0.979   3.782
 1487SOL     OW 4462   2.169   0.063   2.480
 1487SOL    HW1 4463   2.158   0.157   2.513
 1487SOL    HW2 4464   2.164   0.000   2.557
 1488SOL     OW 4465   3.484   0.367   2.236
 1488SOL    HW1 4466   3.486   0.291   2.300
 1488SOL    HW2 4467   3.436   0.444   2.276
 1489SOL     OW 4468   2.885   0.766   2.828
 1489SOL    HW1 4469   2.900   0.787   2.924
 1489SOL    HW2 4470   2.855   0.671   2.819
 1490SOL     OW 4471   2.842   1.573   3.562
 1490SOL    HW1 4472   2.822   1.617   3.474
 1490SOL    HW2 4473   2.881   1.482   3.546
 1491SOL     OW 4474   3.721   1.518   3.467
 1491SOL    HW1 4475   3.735   1.545   3.372
 1491SOL    HW2 4476   3.804   1.540   3.520
 1492SOL     OW 4477   2.212   0.898   3.666
 1492SOL    HW1 4478   2.288   0.942   3.714
 1492SOL    HW2 4479   2.247   0.851   3.584
 1493SOL     OW 4480   3.402   0.274   1.987
 1493SOL    HW1 4481   3.341   0.199   2.010
 1493SOL    HW2 4482   3.424   0.326   2.070
 1494SOL     OW 4483   3.165   0.838   1.904
 1494SOL    HW1 4484   3.199   0.745   1.919
 1494SOL    HW2 4485   3.183   0.865   1.809
 1495SOL     OW 4486   2.930   1.333   2.711
 1495SOL    HW1 4487   2.937   1.249   2.656
 1495SOL    HW2 4488   2.992   1.402   2.675
 1496SOL     OW 4489   2.181   0.810   2.811
 1496SOL    HW1 4490   2.274   0.846   2.816
 1496SOL    HW2 4491   2.175   0.725   2.863
 1497SOL     OW 4492   2.201   0.509   2.868
 1497SOL    HW1 4493   2.149   0.426   2.851
 1497SOL    HW2 4494   2.278   0.514   2.804
 1498SOL     OW 4495   3.000   0.380   3.540
 1498SOL    HW1 4496   2.955   0.443   3.604
 1498SOL    HW2 4497   3.093   0.411   3.523
 1499SOL     OW 4498   3.022   0.207   3.339
 1499SOL    HW1 4499   3.022   0.271   3.416
 1499SOL    HW2 4500   3.050   0.255   3.256
 1500SOL     OW 4501   1.870   1.326   2.062
 1500SOL    HW1 4502   1.777   1.347   2.031
 1500SOL    HW2 4503   1.880   1.227   2.075
 1501SOL     OW 4504   1.950   1.801   2.789
 1501SOL    HW1 4505   1.908   1.715   2.762
 1501SOL    HW2 4506   2.044   1.804   2.755
 1502SOL     OW 4507   2.366   1.568   2.772
 1502SOL    HW1 4508   2.432   1.642   2.781
 1502SOL    HW2 4509   2.410   1.489   2.730
 1503SOL     OW 4510   2.864   0.796   3.100
 1503SOL    HW1 4511   2.905   0.764   3.186
 1503SOL    HW2 4512   2.768   0.769   3.097
 1504SOL     OW 4513   1.902   0.544   2.976
 1504SOL    HW1 4514   1.987   0.511   2.935
 1504SOL    HW2 4515   1.915   0.559   3.074
 1505SOL     OW 4516   2.051   0.520   3.584
 1505SOL    HW1 4517   2.110   0.480   3.514
 1505SOL    HW2 4518   1.993   0.591   3.543
 1506SOL     OW 4519   3.231   0.950   3.522
 1506SOL    HW1 4520   3.270   1.039   3.542
 1506SOL    HW2 4521   3.241   0.930   3.425
 1507SOL     OW 4522   2.677   0.572   2.187
 1507SOL    HW1 4523   2.684   0.483   2.141
 1507SOL    HW2 4524   2.583   0.606   2.179
 1508SOL     OW 4525   3.519   0.604   3.068
 1508SOL    HW1 4526   3.481   0.535   3.130
 1508SOL    HW2 4527   3.601   0.568   3.024
 1509SOL     OW 4528   2.114   1.564   3.606
 1509SOL    HW1 4529   2.084   1.621   3.682
 1509SOL    HW2 4530   2.107   1.467   3.632
 1510SOL     OW 4531   2.533   0.464   3.131
 1510SOL    HW1 4532   2.499   0.375   3.101
 1510SOL    HW2 4533   2.559   0.518   3.051
 1511SOL     OW 4534   2.792   1.678   3.327
 1511SOL    HW1 4535   2.768   1.660   3.232
 1511SOL    HW2 4536   2.822   1.772   3.337
 1512SOL     OW 4537   2.335   0.500   2.053
 1512SOL    HW1 4538   2.396   0.580   2.057
 1512SOL    HW2 4539   2.240   0.531   2.060
 1513SOL     OW 4540   2.021   1.137   3.328
 1513SOL    HW1 4541   2.043   1.076   3.404
 1513SOL    HW2 4542   2.031   1.088   3.242
 1514SOL     OW 4543   3.209   1.059   3.096
 1514SOL    HW1 4544   3.233   0.996   3.022
 1514SOL    HW2 4545   3.119   1.099   3.078
 1515SOL     OW 4546   3.164   0.855   2.171
 1515SOL    HW1 4547   3.078   0.824   2.213
 1515SOL    HW2 4548   3.160   0.841   2.072
 1516SOL     OW 4549   3.621   1.747   3.016
 1516SOL    HW1 4550   3.682   1.777   2.943
 1516SOL    HW2 4551   3.583   1.658   2.994
 1517SOL     OW 4552   3.114   1.731   2.990
 1517SOL    HW1 4553   3.198   1.736   2.936
 1517SOL    HW2 4554   3.091   1.635   3.008
 1518SOL     OW 4555   1.945   1.258   2.884
 1518SOL    HW1 4556   1.940   1.257   2.984
 1518SOL    HW2 4557   1.862   1.217   2.846
 1519SOL     OW 4558   2.550   1.662   3.578
 1519SOL    HW1 4559   2.494   1.743   3.587
 1519SOL    HW2 4560   2.602   1.666   3.492
 1520SOL     OW 4561   3.588   0.135   2.385
 1520SOL    HW1 4562   3.661   0.118   2.318
 1520SOL    HW2 4563   3.557   0.048   2.423
 1521SOL     OW 4564   3.250   1.573   2.339
 1521SOL    HW1 4565   3.317   1.585   2.265
 1521SOL    HW2 4566   3.210   1.662   2.362
 1522SOL     OW 4567   1.992   1.794   3.713
 1522SOL    HW1 4568   1.951   1.720   3.766
 1522SOL    HW2 4569   2.056   1.845   3.771
 1523SOL     OW 4570   3.142   0.927   2.534
 1523SOL    HW1 4571   3.202   0.846   2.536
 1523SOL    HW2 4572   3.182   0.996   2.474
 1524SOL     OW 4573   2.692   1.273   3.284
 1524SOL    HW1 4574   2.687   1.306   3.379
 1524SOL    HW2 4575   2.606   1.292   3.238
 1525SOL     OW 4576   2.534   1.616   2.016
 1525SOL    HW1 4577   2.543   1.626   1.917
 1525SOL    HW2 4578   2.494   1.527   2.037
 1526SOL     OW 4579   3.512   1.720   3.256
 1526SOL    HW1 4580   3.565   1.730   3.172
 1526SOL    HW2 4581   3.485   1.810   3.290
 1527SOL     OW 4582   3.703   0.175   2.825
 1527SOL    HW1 4583   3.742   0.090   2.789
 1527SOL    HW2 4584   3.605   0.177   2.806
 1528SOL     OW 4585   2.125   0.326   2.582
 1528SOL    HW1 4586   2.046   0.377   2.548
 1528SOL    HW2 4587   2.116   0.311   2.680
 1529SOL     OW 4588   3.056   1.612   1.893
 1529SOL    HW1 4589   3.062   1.519   1.930
 1529SOL    HW2 4590   2.997   1.612   1.813
 1530SOL     OW 4591   2.684   1.002   3.234
 1530SOL    HW1 4592   2.724   1.001   3.142
 1530SOL    HW2 4593   2.694   1.094   3.274
 1531SOL     OW 4594   2.778   0.910   2.153
 1531SOL    HW1 4595   2.841   0.948   2.085
 1531SOL    HW2 4596   2.818   0.827   2.192
 1532SOL     OW 4597   3.366   1.607   1.906
 1532SOL    HW1 4598   3.274   1.644   1.913
 1532SOL    HW2 4599   3.404   1.627   1.816
 1533SOL     OW 4600   2.234   1.288   3.352
 1533SOL    HW1 4601   2.221   1.381   3.318
 1533SOL    HW2 4602   2.150   1.236   3.339
 1534SOL     OW 4603   3.476   1.292   3.151
 1534SOL    HW1 4604   3.536   1.295   3.231
 1534SOL    HW2 4605   3.401   1.356   3.164
 1535SOL     OW 4606   2.901   1.098   2.558
 1535SOL    HW1 4607   2.831   1.051   2.612
 1535SOL    HW2 4608   2.960   1.030   2.515
 1536SOL     OW 4609   2.876   0.236   2.833
 1536SOL    HW1 4610   2.868   0.200   2.740
 1536SOL    HW2 4611   2.874   0.160   2.898
 1537SOL     OW 4612   2.452   1.487   2.353
 1537SOL    HW1 4613   2.494   1.429   2.283
 1537SOL    HW2 4614   2.408   1.566   2.309
 1538SOL     OW 4615   3.571   0.385   3.243
 1538SOL    HW1 4616   3.644   0.454   3.247
 1538SOL    HW2 4617   3.599   0.310   3.184
 1539SOL     OW 4618   2.117   1.348   2.152
 1539SOL    HW1 4619   2.021   1.349   2.125
 1539SOL    HW2 4620   2.129   1.401   2.236
 1540SOL     OW 4621   1.967   1.013   3.588
 1540SOL    HW1 4622   1.890   0.980   3.642
 1540SOL    HW2 4623   2.052   0.983   3.630
 1541SOL     OW 4624   2.534   0.203   3.351
 1541SOL    HW1 4625   2.624   0.187   3.311
 1541SOL    HW2 4626   2.542   0.208   3.450
 1542SOL     OW 4627   1.937   0.345   1.895
 1542SOL    HW1 4628   1.845   0.317   1.866
 1542SOL    HW2 4629   1.968   0.422   1.839
 1543SOL     OW 4630   3.302   0.856   3.260
 1543SOL    HW1 4631   3.245   0.908   3.197
 1543SOL    HW2 4632   3.398   0.868   3.236
 1544SOL     OW 4633   1.934   0.166   2.180
 1544SOL    HW1 4634   1.917   0.249   2.126
 1544SOL    HW2 4635   2.024   0.129   2.158
 1545SOL     OW 4636   3.045   1.335   1.981
 1545SOL    HW1 4637   2.946   1.324   1.983
 1545SOL    HW2 4638   3.079   1.350   2.074
 1546SOL     OW 4639   2.475   0.842   3.293
 1546SOL    HW1 4640   2.531   0.923   3.276
 1546SOL    HW2 4641   2.534   0.762   3.296
 1547SOL     OW 4642   3.355   1.767   2.821
 1547SOL    HW1 4643   3.388   1.831   2.752
 1547SOL    HW2 4644   3.421   1.761   2.896
 1548SOL     OW 4645   2.578   0.565   3.570
 1548SOL    HW1 4646   2.597   0.630   3.644
 1548SOL    HW2 4647   2.638   0.485   3.579
 1549SOL     OW 4648   3.312   1.220   3.495
 1549SOL    HW1 4649   3.303   1.210   3.594
 1549SOL    HW2 4650   3.408   1.213   3.469
 1550SOL     OW 4651   2.252   1.741   3.422
 1550SOL    HW1 4652   2.161   1.782   3.420
 1550SOL    HW2 4653   2.245   1.647   3.454
 1551SOL     OW 4654   3.536   0.883   3.116
 1551SOL    HW1 4655   3.509   0.794   3.079
 1551SOL    HW2 4656   3.537   0.951   3.043
 1552SOL     OW 4657   3.087   0.325   2.311
 1552SOL    HW1 4658   3.152   0.251   2.300
 1552SOL    HW2 4659   3.107   0.375   2.395
 1553SOL     OW 4660   2.456   0.745   2.514
 1553SOL    HW1 4661   2.506   0.830   2.495
 1553SOL    HW2 4662   2.368   0.747   2.466
 1554SOL     OW 4663   3.639   0.342   3.504
 1554SOL    HW1 4664   3.622   0.373   3.410
 1554SOL    HW2 4665   3.555   0.305   3.542
 1555SOL     OW 4666   3.592   0.934   3.379
 1555SOL    HW1 4667   3.630   1.025   3.394
 1555SOL    HW2 4668   3.584   0.917   3.280
 1556SOL     OW 4669   2.721   1.374   1.878
 1556SOL    HW1 4670   2.675   1.389   1.966
 1556SOL    HW2 4671   2.765   1.459   1.848
 1557SOL     OW 4672   2.523   1.790   2.815
 1557SOL    HW1 4673   2.477   1.878   2.802
 1557SOL    HW2 4674   2.622   1.802   2.808
 1558SOL     OW 4675   2.721   0.956   2.723
 1558SOL    HW1 4676   2.775   0.887   2.771
 1558SOL    HW2 4677   2.689   1.025   2.789
 1559SOL     OW 4678   2.945   0.984   1.949
 1559SOL    HW1 4679   2.922   1.037   1.867
 1559SOL    HW2 4680   3.026   0.928   1.930
 1560SOL     OW 4681   3.723   1.569   2.713
 1560SOL    HW1 4682   3.652   1.557   2.643
 1560SOL    HW2 4683   3.724   1.490   2.773
 1561SOL     OW 4684   2.083   1.314   3.706
 1561SOL    HW1 4685   2.018   1.241   3.685
 1561SOL    HW2 4686   2.087   1.328   3.804
 1562SOL     OW 4687   1.941   1.240   2.515
 1562SOL    HW1 4688   1.940   1.193   2.603
 1562SOL    HW2 4689   2.023   1.212   2.464
 1563SOL     OW 4690   2.534   1.391   3.486
 1563SOL    HW1 4691   2.456   1.341   3.524
 1563SOL    HW2 4692   2.531   1.486   3.517
 1564SOL     OW 4693   3.686   0.192   3.089
 1564SOL    HW1 4694   3.682   0.102   3.133
 1564SOL    HW2 4695   3.689   0.181   2.990
 1565SOL     OW 4696   2.290   0.424   2.382
 1565SOL    HW1 4697   2.320   0.352   2.320
 1565SOL    HW2 4698   2.251   0.384   2.465
 1566SOL     OW 4699   3.567   1.487   2.966
 1566SOL    HW1 4700   3.474   1.462   2.939
 1566SOL    HW2 4701   3.593   1.437   3.048
 1567SOL     OW 4702   2.179   0.547   3.142
 1567SOL    HW1 4703   2.217   0.488   3.214
 1567SOL    HW2 4704   2.219   0.521   3.054
 1568SOL     OW 4705   2.674   1.586   2.549
 1568SOL    HW1 4706   2.706   1.596   2.455
 1568SOL    HW2 4707   2.595   1.524   2.551
 1569SOL     OW 4708   3.286   0.214   2.974
 1569SOL    HW1 4709   3.338   0.149   3.029
 1569SOL    HW2 4710   3.237   0.277   3.035
 1570SOL     OW 4711   2.863   0.034   3.016
 1570SOL    HW1 4712   2.800  -0.038   2.985
 1570SOL    HW2 4713   2.956  -0.002   3.016
 1571SOL     OW 4714   2.632   1.330   2.163
 1571SOL    HW1 4715   2.586   1.243   2.180
 1571SOL    HW2 4716   2.723   1.327   2.204
 1572SOL     OW 4717   2.480   1.567   3.146
 1572SOL    HW1 4718   2.475   1.649   3.203
 1572SOL    HW2 4719   2.569   1.564   3.101
 1573SOL     OW 4720   3.214   0.052   2.030
 1573SOL    HW1 4721   3.249   0.011   1.946
 1573SOL    HW2 4722   3.124   0.014   2.050
 1574SOL     OW 4723   3.162   0.453   2.553
 1574SOL    HW1 4724   3.103   0.533   2.557
 1574SOL    HW2 4725   3.177   0.418   2.646
 1575SOL     OW 4726   3.455   0.221   2.744
 1575SOL    HW1 4727   3.371   0.220   2.798
 1575SOL    HW2 4728   3.457   0.304   2.688
 1576SOL     OW 4729   1.901   1.077   2.162
 1576SOL    HW1 4730   2.000   1.066   2.153
 1576SOL    HW2 4731   1.861   0.991   2.194
 1577SOL     OW 4732   2.737   1.646   2.199
 1577SOL    HW1 4733   2.660   1.611   2.145
 1577SOL    HW2 4734   2.705   1.717   2.261
 1578SOL     OW 4735   2.092   0.628   3.837
 1578SOL    HW1 4736   1.999   0.626   3.874
 1578SOL    HW2 4737   2.093   0.589   3.745
 1579SOL     OW 4738   3.617   0.607   3.955
 1579SOL    HW1 4739   3.605   0.594   3.856
 1579SOL    HW2 4740   3.587   0.526   4.004
 1580SOL     OW 4741   2.093   1.713   4.207
 1580SOL    HW1 4742   2.127   1.790   4.261
 1580SOL    HW2 4743   2.137   1.713   4.117
 1581SOL     OW 4744   2.092   1.434   4.262
 1581SOL    HW1 4745   2.066   1.530   4.262
 1581SOL    HW2 4746   2.021   1.380   4.307
 1582SOL     OW 4747   2.468   0.964   3.847
 1582SOL    HW1 4748   2.475   1.048   3.793
 1582SOL    HW2 4749   2.514   0.977   3.935
 1583SOL     OW 4750   1.984   0.643   4.287
 1583SOL    HW1 4751   1.939   0.555   4.304
 1583SOL    HW2 4752   1.983   0.697   4.371
 1584SOL     OW 4753   3.704   1.767   4.083
 1584SOL    HW1 4754   3.758   1.738   4.163
 1584SOL    HW2 4755   3.734   1.857   4.054
 1585SOL     OW 4756   1.889   1.596   3.841
 1585SOL    HW1 4757   1.870   1.500   3.862
 1585SOL    HW2 4758   1.856   1.654   3.916
 1586SOL     OW 4759   3.551   0.922   4.336
 1586SOL    HW1 4760   3.646   0.893   4.344
 1586SOL    HW2 4761   3.543   0.987   4.261
 1587SOL     OW 4762   3.503   1.108   4.156
 1587SOL    HW1 4763   3.589   1.110   4.104
 1587SOL    HW2 4764   3.517   1.155   4.244
 1588SOL     OW 4765   2.671   0.004   4.226
 1588SOL    HW1 4766   2.711   0.095   4.217
 1588SOL    HW2 4767   2.571   0.012   4.232
 1589SOL     OW 4768   3.387   0.999   3.914
 1589SOL    HW1 4769   3.324   0.923   3.927
 1589SOL    HW2 4770   3.435   1.017   4.000
 1590SOL     OW 4771   2.460   0.729   3.994
 1590SOL    HW1 4772   2.484   0.798   3.926
 1590SOL    HW2 4773   2.382   0.762   4.048
 1591SOL     OW 4774   3.438   1.662   4.031
 1591SOL    HW1 4775   3.527   1.708   4.034
 1591SOL    HW2 4776   3.417   1.638   3.936
 1592SOL     OW 4777   2.903   0.701   4.153
 1592SOL    HW1 4778   2.929   0.697   4.249
 1592SOL    HW2 4779   2.818   0.650   4.139
 1593SOL     OW 4780   1.938   0.811   4.513
 1593SOL    HW1 4781   2.037   0.799   4.522
 1593SOL    HW2 4782   1.914   0.906   4.534
 1594SOL     OW 4783   2.727   0.348   3.919
 1594SOL    HW1 4784   2.786   0.411   3.870
 1594SOL    HW2 4785   2.746   0.254   3.890
 1595SOL     OW 4786   2.183   0.943   3.966
 1595SOL    HW1 4787   2.265   0.982   3.924
 1595SOL    HW2 4788   2.156   0.861   3.917
 1596SOL     OW 4789   2.973   1.776   3.961
 1596SOL    HW1 4790   2.913   1.714   4.011
 1596SOL    HW2 4791   3.004   1.732   3.876
 1597SOL     OW 4792   3.494   1.377   3.805
 1597SOL    HW1 4793   3.462   1.471   3.795
 1597SOL    HW2 4794   3.418   1.314   3.793
 1598SOL     OW 4795   2.326   1.743   4.047
 1598SOL    HW1 4796   2.359   1.782   4.133
 1598SOL    HW2 4797   2.402   1.736   3.982
 1599SOL     OW 4798   3.262   0.107   4.150
 1599SOL    HW1 4799   3.238   0.070   4.060
 1599SOL    HW2 4800   3.361   0.123   4.154
 1600SOL     OW 4801   2.244   0.700   4.204
 1600SOL    HW1 4802   2.289   0.610   4.201
 1600SOL    HW2 4803   2.150   0.689   4.237
 1601SOL     OW 4804   2.476   0.122   3.841
 1601SOL    HW1 4805   2.574   0.100   3.848
 1601SOL    HW2 4806   2.445   0.105   3.748
 1602SOL     OW 4807   2.401   0.064   4.236
 1602SOL    HW1 4808   2.320   0.065   4.294
 1602SOL    HW2 4809   2.404   0.147   4.181
 1603SOL     OW 4810   3.296   1.188   3.765
 1603SOL    HW1 4811   3.328   1.112   3.822
 1603SOL    HW2 4812   3.204   1.215   3.795
 1604SOL     OW 4813   2.159   0.035   3.895
 1604SOL    HW1 4814   2.208   0.119   3.874
 1604SOL    HW2 4815   2.221  -0.030   3.940
 1605SOL     OW 4816   2.797   0.236   4.204
 1605SOL    HW1 4817   2.749   0.277   4.126
 1605SOL    HW2 4818   2.896   0.234   4.185
 1606SOL     OW 4819   2.321   1.152   4.465
 1606SOL    HW1 4820   2.250   1.125   4.530
 1606SOL    HW2 4821   2.295   1.124   4.372
 1607SOL     OW 4822   3.133   1.797   4.315
 1607SOL    HW1 4823   3.177   1.861   4.251
 1607SOL    HW2 4824   3.083   1.849   4.385
 1608SOL     OW 4825   2.894   0.549   3.740
 1608SOL    HW1 4826   2.853   0.631   3.701
 1608SOL    HW2 4827   2.958   0.575   3.813
 1609SOL     OW 4828   2.728   0.454   4.366
 1609SOL    HW1 4829   2.696   0.526   4.304
 1609SOL    HW2 4830   2.752   0.373   4.313
 1610SOL     OW 4831   3.719   0.833   4.101
 1610SOL    HW1 4832   3.761   0.769   4.165
 1610SOL    HW2 4833   3.681   0.782   4.023
 1611SOL     OW 4834   2.350   1.385   3.898
 1611SOL    HW1 4835   2.263   1.370   3.945
 1611SOL    HW2 4836   2.333   1.411   3.803
 1612SOL     OW 4837   3.252   0.575   3.802
 1612SOL    HW1 4838   3.198   0.554   3.883
 1612SOL    HW2 4839   3.343   0.534   3.811
 1613SOL     OW 4840   2.389   0.256   4.052
 1613SOL    HW1 4841   2.416   0.197   3.977
 1613SOL    HW2 4842   2.389   0.351   4.021
 1614SOL     OW 4843   2.567   1.050   4.092
 1614SOL    HW1 4844   2.553   1.057   4.191
 1614SOL    HW2 4845   2.651   0.999   4.074
 1615SOL     OW 4846   2.229   1.100   4.225
 1615SOL    HW1 4847   2.222   1.183   4.169
 1615SOL    HW2 4848   2.233   1.020   4.165
 1616SOL     OW 4849   3.114   1.348   4.112
 1616SOL    HW1 4850   3.164   1.425   4.152
 1616SOL    HW2 4851   3.019   1.350   4.144
 1617SOL     OW 4852   3.444   0.639   4.196
 1617SOL    HW1 4853   3.413   0.700   4.269
 1617SOL    HW2 4854   3.494   0.691   4.127
 1618SOL     OW 4855   3.071   0.525   3.999
 1618SOL    HW1 4856   3.084   0.441   4.053
 1618SOL    HW2 4857   3.042   0.599   4.059
 1619SOL     OW 4858   3.484   0.367   4.098
 1619SOL    HW1 4859   3.486   0.291   4.162
 1619SOL    HW2 4860   3.436   0.444   4.138
 1620SOL     OW 4861   3.402   0.274   3.849
 1620SOL    HW1 4862   3.341   0.199   3.872
 1620SOL    HW2 4863   3.424   0.326   3.932
 1621SOL     OW 4864   3.165   0.838   3.766
 1621SOL    HW1 4865   3.199   0.745   3.781
 1621SOL    HW2 4866   3.183   0.865   3.671
 1622SOL     OW 4867   1.870   1.326   3.924
 1622SOL    HW1 4868   1.777   1.347   3.893
 1622SOL    HW2 4869   1.880   1.227   3.937
 1623SOL     OW 4870   2.677   0.572   4.049
 1623SOL    HW1 4871   2.684   0.483   4.003
 1623SOL    HW2 4872   2.583   0.606   4.041
 1624SOL     OW 4873   2.335   0.500   3.915
 1624SOL    HW1 4874   2.396   0.580   3.919
 1624SOL    HW2 4875   2.240   0.531   3.922
 1625SOL     OW 4876   3.164   0.855   4.033
 1625SOL    HW1 4877   3.078   0.824   4.075
 1625SOL    HW2 4878   3.160   0.841   3.934
 1626SOL     OW 4879   3.588   0.135   4.247
 1626SOL    HW1 4880   3.661   0.118   4.180
 1626SOL    HW2 4881   3.557   0.048   4.285
 1627SOL     OW 4882   3.250   1.573   4.201
 1627SOL    HW1 4883   3.317   1.585   4.127
 1627SOL    HW2 4884   3.210   1.662   4.224
 1628SOL     OW 4885   2.534   1.616   3.878
 1628SOL    HW1 4886   2.543   1.626   3.779
 1628SOL    HW2 4887   2.494   1.527   3.899
 1629SOL     OW 4888   3.056   1.612   3.755
 1629SOL    HW1 4889   3.062   1.519   3.792
 1629SOL    HW2 4890   2.997   1.612   3.675
 1630SOL     OW 4891   2.778   0.910   4.015
 1630SOL    HW1 4892   2.841   0.948   3.947
 1630SOL    HW2 4893   2.818   0.827   4.054
 1631SOL     OW 4894   3.366   1.607   3.768
 1631SOL    HW1 4895   3.274   1.644   3.775
 1631SOL    HW2 4896   3.404   1.627   3.678
 1632SOL     OW 4897   2.452   1.487   4.215
 1632SOL    HW1 4898   2.494   1.429   4.145
 1632SOL    HW2 4899   2.408   1.566   4.171
 1633SOL     OW 4900   2.117   1.348   4.014
 1633SOL    HW1 4901   2.021   1.349   3.987
 1633SOL    HW2 4902   2.129   1.401   4.098
 1634SOL     OW 4903   1.937   0.345   3.757
 1634SOL    HW1 4904   1.845   0.317   3.728
 1634SOL    HW2 4905   1.968   0.422   3.701
 1635SOL     OW 4906   1.934   0.166   4.042
 1635SOL    HW1 4907   1.917   0.249   3.988
 1635SOL    HW2 4908   2.024   0.129   4.020
 1636SOL     OW 4909   3.045   1.335   3.843
 1636SOL    HW1 4910   2.946   1.324   3.845
 1636SOL    HW2 4911   3.079   1.350   3.936
 1637SOL     OW 4912   3.087   0.325   4.173
 1637SOL    HW1 4913   3.152   0.251   4.162
 1637SOL    HW2 4914   3.107   0.375   4.257
 1638SOL     OW 4915   2.456   0.745   4.376
 1638SOL    HW1 4916   2.506   0.830   4.357
 1638SOL    HW2 4917   2.368   0.747   4.328
 1639SOL     OW 4918   2.721   1.374   3.740
 1639SOL    HW1 4919   2.675   1.389   3.828
 1639SOL    HW2 4920   2.765   1.459   3.710
 1640SOL     OW 4921   2.945   0.984   3.811
 1640SOL    HW1 4922   2.922   1.037   3.729
 1640SOL    HW2 4923   3.026   0.928   3.792
 1641SOL     OW 4924   2.290   0.424   4.244
 1641SOL    HW1 4925   2.320   0.352   4.182
 1641SOL    HW2 4926   2.251   0.384   4.327
 1642SOL     OW 4927   2.632   1.330   4.025
 1642SOL    HW1 4928   2.586   1.243   4.042
 1642SOL    HW2 4929   2.723   1.327   4.066
 1643SOL     OW 4930   3.214   0.052   3.892
 1643SOL    HW1 4931   3.249   0.011   3.808
 1643SOL    HW2 4932   3.124   0.014   3.912
 1644SOL     OW 4933   1.901   1.077   4.024
 1644SOL    HW1 4934   2.000   1.066   4.015
 1644SOL    HW2 4935   1.861   0.991   4.056
 1645SOL     OW 4936   2.737   1.646   4.061
 1645SOL    HW1 4937   2.660   1.611   4.007
 1645SOL    HW2 4938   2.705   1.717   4.123
 1646SOL     OW 4939   2.092   2.490   0.113
 1646SOL    HW1 4940   1.999   2.488   0.150
 1646SOL    HW2 4941   2.093   2.451   0.021
 1647SOL     OW 4942   2.087   2.137   0.996
 1647SOL    HW1 4943   2.122   2.120   1.088
 1647SOL    HW2 4944   1.999   2.092   0.984
 1648SOL     OW 4945   1.881   2.230   0.647
 1648SOL    HW1 4946   1.799   2.273   0.686
 1648SOL    HW2 4947   1.853   2.157   0.584
 1649SOL     OW 4948   2.431   3.137   1.165
 1649SOL    HW1 4949   2.338   3.130   1.128
 1649SOL    HW2 4950   2.442   3.226   1.209
 1650SOL     OW 4951   3.417   3.373   0.703
 1650SOL    HW1 4952   3.360   3.357   0.784
 1650SOL    HW2 4953   3.358   3.383   0.623
 1651SOL     OW 4954   2.997   2.565   0.717
 1651SOL    HW1 4955   3.054   2.643   0.692
 1651SOL    HW2 4956   2.937   2.591   0.793
 1652SOL     OW 4957   3.617   2.469   0.231
 1652SOL    HW1 4958   3.605   2.456   0.132
 1652SOL    HW2 4959   3.587   2.388   0.280
 1653SOL     OW 4960   2.630   3.006   1.023
 1653SOL    HW1 4961   2.552   3.023   1.083
 1653SOL    HW2 4962   2.664   3.093   0.987
 1654SOL     OW 4963   2.712   2.660   1.823
 1654SOL    HW1 4964   2.708   2.736   1.888
 1654SOL    HW2 4965   2.734   2.696   1.732
 1655SOL     OW 4966   2.547   2.874   0.665
 1655SOL    HW1 4967   2.616   2.858   0.735
 1655SOL    HW2 4968   2.474   2.931   0.703
 1656SOL     OW 4969   2.548   3.023   1.803
 1656SOL    HW1 4970   2.608   3.102   1.817
 1656SOL    HW2 4971   2.462   3.054   1.762
 1657SOL     OW 4972   2.197   3.297   1.061
 1657SOL    HW1 4973   2.119   3.266   1.008
 1657SOL    HW2 4974   2.255   3.355   1.004
 1658SOL     OW 4975   3.322   3.367   1.339
 1658SOL    HW1 4976   3.346   3.461   1.365
 1658SOL    HW2 4977   3.306   3.313   1.421
 1659SOL     OW 4978   2.300   2.254   1.499
 1659SOL    HW1 4979   2.382   2.198   1.508
 1659SOL    HW2 4980   2.219   2.196   1.503
 1660SOL     OW 4981   3.465   2.309   0.737
 1660SOL    HW1 4982   3.391   2.355   0.687
 1660SOL    HW2 4983   3.516   2.377   0.790
 1661SOL     OW 4984   2.093   3.575   0.483
 1661SOL    HW1 4985   2.127   3.652   0.537
 1661SOL    HW2 4986   2.137   3.575   0.393
 1662SOL     OW 4987   2.989   3.203   1.690
 1662SOL    HW1 4988   3.036   3.203   1.778
 1662SOL    HW2 4989   2.941   3.116   1.679
 1663SOL     OW 4990   2.092   3.296   0.538
 1663SOL    HW1 4991   2.066   3.392   0.538
 1663SOL    HW2 4992   2.021   3.242   0.583
 1664SOL     OW 4993   2.102   2.953   0.886
 1664SOL    HW1 4994   2.116   2.869   0.938
 1664SOL    HW2 4995   2.047   3.017   0.941
 1665SOL     OW 4996   2.482   3.648   1.439
 1665SOL    HW1 4997   2.390   3.631   1.474
 1665SOL    HW2 4998   2.510   3.740   1.465
 1666SOL     OW 4999   2.468   2.826   0.123
 1666SOL    HW1 5000   2.475   2.910   0.069
 1666SOL    HW2 5001   2.514   2.839   0.211
 1667SOL     OW 5002   3.456   1.976   1.480
 1667SOL    HW1 5003   3.438   2.043   1.408
 1667SOL    HW2 5004   3.453   2.022   1.569
 1668SOL     OW 5005   1.984   2.505   0.563
 1668SOL    HW1 5006   1.939   2.417   0.580
 1668SOL    HW2 5007   1.983   2.559   0.647
 1669SOL     OW 5008   3.704   3.629   0.359
 1669SOL    HW1 5009   3.758   3.600   0.439
 1669SOL    HW2 5010   3.734   3.719   0.330
 1670SOL     OW 5011   1.889   3.458   0.117
 1670SOL    HW1 5012   1.870   3.362   0.138
 1670SOL    HW2 5013   1.856   3.516   0.192
 1671SOL     OW 5014   3.551   2.784   0.612
 1671SOL    HW1 5015   3.646   2.755   0.620
 1671SOL    HW2 5016   3.543   2.849   0.537
 1672SOL     OW 5017   3.503   2.970   0.432
 1672SOL    HW1 5018   3.589   2.972   0.380
 1672SOL    HW2 5019   3.517   3.017   0.520
 1673SOL     OW 5020   1.975   2.599   1.597
 1673SOL    HW1 5021   2.063   2.586   1.642
 1673SOL    HW2 5022   1.962   2.696   1.575
 1674SOL     OW 5023   2.475   3.227   0.726
 1674SOL    HW1 5024   2.426   3.140   0.735
 1674SOL    HW2 5025   2.452   3.270   0.639
 1675SOL     OW 5026   3.155   3.090   1.423
 1675SOL    HW1 5027   3.192   3.017   1.365
 1675SOL    HW2 5028   3.207   3.095   1.508
 1676SOL     OW 5029   2.671   1.866   0.502
 1676SOL    HW1 5030   2.711   1.957   0.493
 1676SOL    HW2 5031   2.571   1.874   0.508
 1677SOL     OW 5032   2.059   2.838   1.264
 1677SOL    HW1 5033   2.148   2.793   1.250
 1677SOL    HW2 5034   1.986   2.773   1.245
 1678SOL     OW 5035   3.387   2.861   0.190
 1678SOL    HW1 5036   3.324   2.785   0.203
 1678SOL    HW2 5037   3.435   2.879   0.276
 1679SOL     OW 5038   3.049   3.654   1.616
 1679SOL    HW1 5039   3.073   3.714   1.540
 1679SOL    HW2 5040   3.056   3.559   1.586
 1680SOL     OW 5041   2.179   2.113   1.801
 1680SOL    HW1 5042   2.250   2.184   1.807
 1680SOL    HW2 5043   2.091   2.152   1.829
 1681SOL     OW 5044   3.328   3.279   0.953
 1681SOL    HW1 5045   3.269   3.285   1.033
 1681SOL    HW2 5046   3.313   3.191   0.907
 1682SOL     OW 5047   3.529   3.576   0.572
 1682SOL    HW1 5048   3.488   3.553   0.484
 1682SOL    HW2 5049   3.511   3.502   0.637
 1683SOL     OW 5050   2.460   2.591   0.270
 1683SOL    HW1 5051   2.484   2.660   0.202
 1683SOL    HW2 5052   2.382   2.624   0.324
 1684SOL     OW 5053   3.143   2.207   0.944
 1684SOL    HW1 5054   3.057   2.157   0.931
 1684SOL    HW2 5055   3.205   2.153   1.000
 1685SOL     OW 5056   3.438   3.524   0.307
 1685SOL    HW1 5057   3.527   3.570   0.310
 1685SOL    HW2 5058   3.417   3.500   0.212
 1686SOL     OW 5059   2.669   2.467   1.465
 1686SOL    HW1 5060   2.622   2.464   1.554
 1686SOL    HW2 5061   2.618   2.412   1.399
 1687SOL     OW 5062   3.256   2.331   1.674
 1687SOL    HW1 5063   3.236   2.374   1.762
 1687SOL    HW2 5064   3.334   2.269   1.683
 1688SOL     OW 5065   2.835   2.752   1.572
 1688SOL    HW1 5066   2.881   2.668   1.543
 1688SOL    HW2 5067   2.779   2.786   1.497
 1689SOL     OW 5068   2.853   2.272   1.242
 1689SOL    HW1 5069   2.776   2.306   1.296
 1689SOL    HW2 5070   2.819   2.221   1.163
 1690SOL     OW 5071   2.903   2.563   0.429
 1690SOL    HW1 5072   2.929   2.559   0.525
 1690SOL    HW2 5073   2.818   2.512   0.415
 1691SOL     OW 5074   1.938   2.673   0.789
 1691SOL    HW1 5075   2.037   2.661   0.798
 1691SOL    HW2 5076   1.914   2.768   0.810
 1692SOL     OW 5077   1.992   3.683   1.571
 1692SOL    HW1 5078   1.982   3.668   1.670
 1692SOL    HW2 5079   1.906   3.719   1.535
 1693SOL     OW 5080   2.727   2.210   0.195
 1693SOL    HW1 5081   2.786   2.273   0.146
 1693SOL    HW2 5082   2.746   2.116   0.166
 1694SOL     OW 5083   3.581   2.447   1.831
 1694SOL    HW1 5084   3.555   2.536   1.795
 1694SOL    HW2 5085   3.579   2.379   1.758
 1695SOL     OW 5086   3.224   3.006   0.545
 1695SOL    HW1 5087   3.307   2.977   0.497
 1695SOL    HW2 5088   3.175   3.073   0.489
 1696SOL     OW 5089   2.412   2.058   0.885
 1696SOL    HW1 5090   2.407   2.053   0.985
 1696SOL    HW2 5091   2.414   2.154   0.856
 1697SOL     OW 5092   2.870   3.318   0.477
 1697SOL    HW1 5093   2.824   3.390   0.425
 1697SOL    HW2 5094   2.866   3.338   0.575
 1698SOL     OW 5095   2.213   3.663   0.853
 1698SOL    HW1 5096   2.263   3.577   0.859
 1698SOL    HW2 5097   2.278   3.740   0.850
 1699SOL     OW 5098   3.657   2.928   0.873
 1699SOL    HW1 5099   3.595   2.913   0.797
 1699SOL    HW2 5100   3.605   2.939   0.958
 1700SOL     OW 5101   3.089   3.412   1.506
 1700SOL    HW1 5102   3.095   3.335   1.570
 1700SOL    HW2 5103   3.037   3.386   1.426
 1701SOL     OW 5104   2.183   2.805   0.242
 1701SOL    HW1 5105   2.265   2.844   0.200
 1701SOL    HW2 5106   2.156   2.723   0.193
 1702SOL     OW 5107   3.320   2.597   0.728
 1702SOL    HW1 5108   3.315   2.532   0.803
 1702SOL    HW2 5109   3.400   2.656   0.741
 1703SOL     OW 5110   2.323   3.128   1.727
 1703SOL    HW1 5111   2.273   3.129   1.641
 1703SOL    HW2 5112   2.260   3.110   1.803
 1704SOL     OW 5113   2.973   3.638   0.237
 1704SOL    HW1 5114   2.913   3.576   0.287
 1704SOL    HW2 5115   3.004   3.594   0.152
 1705SOL     OW 5116   2.064   2.147   1.498
 1705SOL    HW1 5117   1.984   2.207   1.485
 1705SOL    HW2 5118   2.054   2.098   1.584
 1706SOL     OW 5119   3.494   3.239   0.081
 1706SOL    HW1 5120   3.462   3.333   0.071
 1706SOL    HW2 5121   3.418   3.176   0.069
 1707SOL     OW 5122   2.326   3.605   0.323
 1707SOL    HW1 5123   2.359   3.644   0.409
 1707SOL    HW2 5124   2.402   3.598   0.258
 1708SOL     OW 5125   3.262   1.969   0.426
 1708SOL    HW1 5126   3.238   1.932   0.336
 1708SOL    HW2 5127   3.361   1.985   0.430
 1709SOL     OW 5128   2.111   3.647   1.241
 1709SOL    HW1 5129   2.168   3.582   1.291
 1709SOL    HW2 5130   2.095   3.614   1.148
 1710SOL     OW 5131   2.802   3.560   0.904
 1710SOL    HW1 5132   2.882   3.503   0.925
 1710SOL    HW2 5133   2.753   3.520   0.827
 1711SOL     OW 5134   2.244   2.562   0.480
 1711SOL    HW1 5135   2.289   2.472   0.477
 1711SOL    HW2 5136   2.150   2.551   0.513
 1712SOL     OW 5137   3.409   2.084   1.729
 1712SOL    HW1 5138   3.404   2.121   1.821
 1712SOL    HW2 5139   3.337   2.015   1.717
 1713SOL     OW 5140   2.476   1.984   0.117
 1713SOL    HW1 5141   2.574   1.962   0.124
 1713SOL    HW2 5142   2.445   1.967   0.024
 1714SOL     OW 5143   2.643   2.126   1.749
 1714SOL    HW1 5144   2.710   2.065   1.792
 1714SOL    HW2 5145   2.570   2.145   1.814
 1715SOL     OW 5146   2.750   3.376   1.195
 1715SOL    HW1 5147   2.727   3.351   1.101
 1715SOL    HW2 5148   2.811   3.307   1.234
 1716SOL     OW 5149   3.213   2.452   1.433
 1716SOL    HW1 5150   3.241   2.409   1.518
 1716SOL    HW2 5151   3.238   2.548   1.434
 1717SOL     OW 5152   2.665   3.264   0.924
 1717SOL    HW1 5153   2.755   3.278   0.882
 1717SOL    HW2 5154   2.594   3.266   0.853
 1718SOL     OW 5155   2.784   2.365   0.899
 1718SOL    HW1 5156   2.759   2.356   0.803
 1718SOL    HW2 5157   2.832   2.283   0.930
 1719SOL     OW 5158   2.401   1.926   0.512
 1719SOL    HW1 5159   2.320   1.927   0.570
 1719SOL    HW2 5160   2.404   2.009   0.457
 1720SOL     OW 5161   3.296   3.050   0.041
 1720SOL    HW1 5162   3.328   2.974   0.098
 1720SOL    HW2 5163   3.204   3.077   0.071
 1721SOL     OW 5164   2.159   1.897   0.171
 1721SOL    HW1 5165   2.208   1.981   0.150
 1721SOL    HW2 5166   2.221   1.832   0.216
 1722SOL     OW 5167   2.797   2.098   0.480
 1722SOL    HW1 5168   2.749   2.139   0.402
 1722SOL    HW2 5169   2.896   2.096   0.461
 1723SOL     OW 5170   2.938   2.545   1.464
 1723SOL    HW1 5171   2.858   2.484   1.467
 1723SOL    HW2 5172   3.019   2.492   1.440
 1724SOL     OW 5173   3.089   3.432   0.793
 1724SOL    HW1 5174   3.110   3.506   0.728
 1724SOL    HW2 5175   3.157   3.432   0.866
 1725SOL     OW 5176   2.321   3.014   0.741
 1725SOL    HW1 5177   2.250   2.987   0.806
 1725SOL    HW2 5178   2.295   2.986   0.648
 1726SOL     OW 5179   3.133   3.659   0.591
 1726SOL    HW1 5180   3.177   3.723   0.527
 1726SOL    HW2 5181   3.083   3.711   0.661
 1727SOL     OW 5182   2.894   2.411   0.016
 1727SOL    HW1 5183   2.853   2.493  -0.023
 1727SOL    HW2 5184   2.958   2.437   0.089
 1728SOL     OW 5185   1.940   2.418   1.386
 1728SOL    HW1 5186   2.032   2.417   1.345
 1728SOL    HW2 5187   1.934   2.492   1.453
 1729SOL     OW 5188   2.423   2.084   1.147
 1729SOL    HW1 5189   2.461   2.000   1.184
 1729SOL    HW2 5190   2.335   2.103   1.191
 1730SOL     OW 5191   2.728   2.316   0.642
 1730SOL    HW1 5192   2.696   2.388   0.580
 1730SOL    HW2 5193   2.752   2.235   0.589
 1731SOL     OW 5194   2.879   1.901   0.753
 1731SOL    HW1 5195   2.807   1.906   0.684
 1731SOL    HW2 5196   2.855   1.832   0.822
 1732SOL     OW 5197   3.291   3.035   0.867
 1732SOL    HW1 5198   3.236   2.951   0.860
 1732SOL    HW2 5199   3.317   3.064   0.775
 1733SOL     OW 5200   3.328   2.452   0.992
 1733SOL    HW1 5201   3.298   2.357   0.999
 1733SOL    HW2 5202   3.401   2.468   1.058
 1734SOL     OW 5203   3.719   2.695   0.377
 1734SOL    HW1 5204   3.761   2.631   0.441
 1734SOL    HW2 5205   3.681   2.644   0.299
 1735SOL     OW 5206   2.350   3.247   0.174
 1735SOL    HW1 5207   2.263   3.232   0.221
 1735SOL    HW2 5208   2.333   3.273   0.079
 1736SOL     OW 5209   3.526   3.142   0.657
 1736SOL    HW1 5210   3.625   3.150   0.671
 1736SOL    HW2 5211   3.481   3.226   0.688
 1737SOL     OW 5212   3.252   2.437   0.078
 1737SOL    HW1 5213   3.198   2.416   0.159
 1737SOL    HW2 5214   3.343   2.396   0.087
 1738SOL     OW 5215   2.389   2.118   0.328
 1738SOL    HW1 5216   2.416   2.059   0.253
 1738SOL    HW2 5217   2.389   2.213   0.297
 1739SOL     OW 5218   3.616   3.085   1.588
 1739SOL    HW1 5219   3.707   3.046   1.575
 1739SOL    HW2 5220   3.624   3.181   1.612
 1740SOL     OW 5221   2.926   3.209   1.340
 1740SOL    HW1 5222   2.846   3.186   1.395
 1740SOL    HW2 5223   3.009   3.183   1.389
 1741SOL     OW 5224   3.454   3.491   1.625
 1741SOL    HW1 5225   3.481   3.525   1.535
 1741SOL    HW2 5226   3.533   3.453   1.671
 1742SOL     OW 5227   2.973   3.057   1.100
 1742SOL    HW1 5228   2.933   3.101   1.181
 1742SOL    HW2 5229   2.932   3.094   1.017
 1743SOL     OW 5230   3.500   2.961   1.079
 1743SOL    HW1 5231   3.505   3.042   1.138
 1743SOL    HW2 5232   3.414   2.963   1.028
 1744SOL     OW 5233   2.777   1.951   1.402
 1744SOL    HW1 5234   2.802   1.931   1.307
 1744SOL    HW2 5235   2.849   2.007   1.444
 1745SOL     OW 5236   2.842   2.978   1.719
 1745SOL    HW1 5237   2.743   2.984   1.729
 1745SOL    HW2 5238   2.865   2.898   1.663
 1746SOL     OW 5239   2.567   2.912   0.368
 1746SOL    HW1 5240   2.553   2.919   0.467
 1746SOL    HW2 5241   2.651   2.861   0.350
 1747SOL     OW 5242   2.272   2.675   1.251
 1747SOL    HW1 5243   2.358   2.687   1.301
 1747SOL    HW2 5244   2.230   2.588   1.278
 1748SOL     OW 5245   3.136   2.248   1.262
 1748SOL    HW1 5246   3.157   2.322   1.326
 1748SOL    HW2 5247   3.047   2.265   1.219
 1749SOL     OW 5248   1.926   3.426   1.331
 1749SOL    HW1 5249   1.880   3.508   1.297
 1749SOL    HW2 5250   2.024   3.445   1.340
 1750SOL     OW 5251   2.229   2.962   0.501
 1750SOL    HW1 5252   2.222   3.045   0.445
 1750SOL    HW2 5253   2.233   2.882   0.441
 1751SOL     OW 5254   2.428   2.399   0.865
 1751SOL    HW1 5255   2.440   2.465   0.791
 1751SOL    HW2 5256   2.474   2.433   0.948
 1752SOL     OW 5257   3.114   3.210   0.388
 1752SOL    HW1 5258   3.164   3.287   0.428
 1752SOL    HW2 5259   3.019   3.212   0.420
 1753SOL     OW 5260   3.134   3.307   1.142
 1753SOL    HW1 5261   3.181   3.320   1.229
 1753SOL    HW2 5262   3.068   3.233   1.151
 1754SOL     OW 5263   3.444   2.501   0.472
 1754SOL    HW1 5264   3.413   2.562   0.545
 1754SOL    HW2 5265   3.494   2.553   0.403
 1755SOL     OW 5266   2.216   3.372   1.329
 1755SOL    HW1 5267   2.195   3.328   1.242
 1755SOL    HW2 5268   2.313   3.398   1.332
 1756SOL     OW 5269   2.264   2.613   1.598
 1756SOL    HW1 5270   2.332   2.668   1.551
 1756SOL    HW2 5271   2.304   2.525   1.625
 1757SOL     OW 5272   3.449   2.641   1.670
 1757SOL    HW1 5273   3.357   2.679   1.665
 1757SOL    HW2 5274   3.509   2.688   1.605
 1758SOL     OW 5275   2.875   1.967   1.770
 1758SOL    HW1 5276   2.881   2.052   1.718
 1758SOL    HW2 5277   2.907   1.891   1.713
 1759SOL     OW 5278   2.366   1.912   1.740
 1759SOL    HW1 5279   2.324   1.855   1.670
 1759SOL    HW2 5280   2.300   1.981   1.772
 1760SOL     OW 5281   2.435   2.732   1.029
 1760SOL    HW1 5282   2.479   2.821   1.020
 1760SOL    HW2 5283   2.372   2.732   1.106
 1761SOL     OW 5284   3.222   2.724   1.045
 1761SOL    HW1 5285   3.147   2.724   0.979
 1761SOL    HW2 5286   3.259   2.632   1.054
 1762SOL     OW 5287   3.071   2.387   0.275
 1762SOL    HW1 5288   3.084   2.303   0.329
 1762SOL    HW2 5289   3.042   2.461   0.335
 1763SOL     OW 5290   2.169   2.075   1.231
 1763SOL    HW1 5291   2.146   2.112   1.321
 1763SOL    HW2 5292   2.139   1.980   1.225
 1764SOL     OW 5293   1.899   3.172   1.282
 1764SOL    HW1 5294   1.952   3.123   1.350
 1764SOL    HW2 5295   1.921   3.270   1.287
 1765SOL     OW 5296   2.594   2.496   1.064
 1765SOL    HW1 5297   2.653   2.470   0.988
 1765SOL    HW2 5298   2.566   2.592   1.053
 1766SOL     OW 5299   3.590   2.797   1.854
 1766SOL    HW1 5300   3.544   2.790   1.765
 1766SOL    HW2 5301   3.528   2.841   1.920
 1767SOL     OW 5302   2.169   1.925   0.618
 1767SOL    HW1 5303   2.158   2.019   0.651
 1767SOL    HW2 5304   2.164   1.862   0.695
 1768SOL     OW 5305   3.484   2.229   0.374
 1768SOL    HW1 5306   3.486   2.153   0.438
 1768SOL    HW2 5307   3.436   2.306   0.414
 1769SOL     OW 5308   2.885   2.628   0.966
 1769SOL    HW1 5309   2.900   2.649   1.062
 1769SOL    HW2 5310   2.855   2.533   0.957
 1770SOL     OW 5311   2.842   3.435   1.700
 1770SOL    HW1 5312   2.822   3.479   1.612
 1770SOL    HW2 5313   2.881   3.344   1.684
 1771SOL     OW 5314   3.721   3.380   1.605
 1771SOL    HW1 5315   3.735   3.407   1.510
 1771SOL    HW2 5316   3.804   3.402   1.658
 1772SOL     OW 5317   2.212   2.760   1.804
 1772SOL    HW1 5318   2.288   2.804   1.852
 1772SOL    HW2 5319   2.247   2.713   1.722
 1773SOL     OW 5320   3.402   2.136   0.125
 1773SOL    HW1 5321   3.341   2.061   0.148
 1773SOL    HW2 5322   3.424   2.188   0.208
 1774SOL     OW 5323   3.165   2.700   0.042
 1774SOL    HW1 5324   3.199   2.607   0.057
 1774SOL    HW2 5325   3.183   2.727  -0.053
 1775SOL     OW 5326   2.930   3.195   0.849
 1775SOL    HW1 5327   2.937   3.111   0.794
 1775SOL    HW2 5328   2.992   3.264   0.813
 1776SOL     OW 5329   2.181   2.672   0.949
 1776SOL    HW1 5330   2.274   2.708   0.954
 1776SOL    HW2 5331   2.175   2.587   1.001
 1777SOL     OW 5332   2.201   2.371   1.006
 1777SOL    HW1 5333   2.149   2.288   0.989
 1777SOL    HW2 5334   2.278   2.376   0.942
 1778SOL     OW 5335   3.000   2.242   1.678
 1778SOL    HW1 5336   2.955   2.305   1.742
 1778SOL    HW2 5337   3.093   2.273   1.661
 1779SOL     OW 5338   3.022   2.069   1.477
 1779SOL    HW1 5339   3.022   2.133   1.554
 1779SOL    HW2 5340   3.050   2.117   1.394
 1780SOL     OW 5341   1.870   3.188   0.200
 1780SOL    HW1 5342   1.777   3.209   0.169
 1780SOL    HW2 5343   1.880   3.089   0.213
 1781SOL     OW 5344   1.950   3.663   0.927
 1781SOL    HW1 5345   1.908   3.577   0.900
 1781SOL    HW2 5346   2.044   3.666   0.893
 1782SOL     OW 5347   2.366   3.430   0.910
 1782SOL    HW1 5348   2.432   3.504   0.919
 1782SOL    HW2 5349   2.410   3.351   0.868
 1783SOL     OW 5350   2.864   2.658   1.238
 1783SOL    HW1 5351   2.905   2.626   1.324
 1783SOL    HW2 5352   2.768   2.631   1.235
 1784SOL     OW 5353   1.902   2.406   1.114
 1784SOL    HW1 5354   1.987   2.373   1.073
 1784SOL    HW2 5355   1.915   2.421   1.212
 1785SOL     OW 5356   2.051   2.382   1.722
 1785SOL    HW1 5357   2.110   2.342   1.652
 1785SOL    HW2 5358   1.993   2.453   1.681
 1786SOL     OW 5359   3.231   2.812   1.660
 1786SOL    HW1 5360   3.270   2.901   1.680
 1786SOL    HW2 5361   3.241   2.792   1.563
 1787SOL     OW 5362   2.677   2.434   0.325
 1787SOL    HW1 5363   2.684   2.345   0.279
 1787SOL    HW2 5364   2.583   2.468   0.317
 1788SOL     OW 5365   3.519   2.466   1.206
 1788SOL    HW1 5366   3.481   2.397   1.268
 1788SOL    HW2 5367   3.601   2.430   1.162
 1789SOL     OW 5368   2.114   3.426   1.744
 1789SOL    HW1 5369   2.084   3.483   1.820
 1789SOL    HW2 5370   2.107   3.329   1.770
 1790SOL     OW 5371   2.533   2.326   1.269
 1790SOL    HW1 5372   2.499   2.237   1.239
 1790SOL    HW2 5373   2.559   2.380   1.189
 1791SOL     OW 5374   2.792   3.540   1.465
 1791SOL    HW1 5375   2.768   3.522   1.370
 1791SOL    HW2 5376   2.822   3.634   1.475
 1792SOL     OW 5377   2.335   2.362   0.191
 1792SOL    HW1 5378   2.396   2.442   0.195
 1792SOL    HW2 5379   2.240   2.393   0.198
 1793SOL     OW 5380   2.021   2.999   1.466
 1793SOL    HW1 5381   2.043   2.938   1.542
 1793SOL    HW2 5382   2.031   2.950   1.380
 1794SOL     OW 5383   3.209   2.921   1.234
 1794SOL    HW1 5384   3.233   2.858   1.160
 1794SOL    HW2 5385   3.119   2.961   1.216
 1795SOL     OW 5386   3.164   2.717   0.309
 1795SOL    HW1 5387   3.078   2.686   0.351
 1795SOL    HW2 5388   3.160   2.703   0.210
 1796SOL     OW 5389   3.621   3.609   1.154
 1796SOL    HW1 5390   3.682   3.639   1.081
 1796SOL    HW2 5391   3.583   3.520   1.132
 1797SOL     OW 5392   3.114   3.593   1.128
 1797SOL    HW1 5393   3.198   3.598   1.074
 1797SOL    HW2 5394   3.091   3.497   1.146
 1798SOL     OW 5395   1.945   3.120   1.022
 1798SOL    HW1 5396   1.940   3.119   1.122
 1798SOL    HW2 5397   1.862   3.079   0.984
 1799SOL     OW 5398   2.550   3.524   1.716
 1799SOL    HW1 5399   2.494   3.605   1.725
 1799SOL    HW2 5400   2.602   3.528   1.630
 1800SOL     OW 5401   2.765   1.948   0.133
 1800SOL    HW1 5402   2.816   1.949   0.047
 1800SOL    HW2 5403   2.821   1.906   0.204
 1801SOL     OW 5404   3.588   1.997   0.523
 1801SOL    HW1 5405   3.661   1.980   0.456
 1801SOL    HW2 5406   3.557   1.910   0.561
 1802SOL     OW 5407   3.250   3.435   0.477
 1802SOL    HW1 5408   3.317   3.447   0.403
 1802SOL    HW2 5409   3.210   3.524   0.500
 1803SOL     OW 5410   1.992   3.656   1.851
 1803SOL    HW1 5411   1.951   3.582   1.904
 1803SOL    HW2 5412   2.056   3.707   1.909
 1804SOL     OW 5413   3.142   2.789   0.672
 1804SOL    HW1 5414   3.202   2.708   0.674
 1804SOL    HW2 5415   3.182   2.858   0.612
 1805SOL     OW 5416   2.692   3.135   1.422
 1805SOL    HW1 5417   2.687   3.168   1.517
 1805SOL    HW2 5418   2.606   3.154   1.376
 1806SOL     OW 5419   2.534   3.478   0.154
 1806SOL    HW1 5420   2.543   3.488   0.055
 1806SOL    HW2 5421   2.494   3.389   0.175
 1807SOL     OW 5422   3.512   3.582   1.394
 1807SOL    HW1 5423   3.565   3.592   1.310
 1807SOL    HW2 5424   3.485   3.672   1.428
 1808SOL     OW 5425   3.703   2.037   0.963
 1808SOL    HW1 5426   3.742   1.952   0.927
 1808SOL    HW2 5427   3.605   2.039   0.944
 1809SOL     OW 5428   2.125   2.188   0.720
 1809SOL    HW1 5429   2.046   2.239   0.686
 1809SOL    HW2 5430   2.116   2.173   0.818
 1810SOL     OW 5431   3.056   3.474   0.031
 1810SOL    HW1 5432   3.062   3.381   0.068
 1810SOL    HW2 5433   2.997   3.474  -0.049
 1811SOL     OW 5434   2.684   2.864   1.372
 1811SOL    HW1 5435   2.724   2.863   1.280
 1811SOL    HW2 5436   2.694   2.956   1.412
 1812SOL     OW 5437   2.778   2.772   0.291
 1812SOL    HW1 5438   2.841   2.810   0.223
 1812SOL    HW2 5439   2.818   2.689   0.330
 1813SOL     OW 5440   3.366   3.469   0.044
 1813SOL    HW1 5441   3.274   3.506   0.051
 1813SOL    HW2 5442   3.404   3.489  -0.046
 1814SOL     OW 5443   2.234   3.150   1.490
 1814SOL    HW1 5444   2.221   3.243   1.456
 1814SOL    HW2 5445   2.150   3.098   1.477
 1815SOL     OW 5446   3.476   3.154   1.289
 1815SOL    HW1 5447   3.536   3.157   1.369
 1815SOL    HW2 5448   3.401   3.218   1.302
 1816SOL     OW 5449   2.901   2.960   0.696
 1816SOL    HW1 5450   2.831   2.913   0.750
 1816SOL    HW2 5451   2.960   2.892   0.653
 1817SOL     OW 5452   2.876   2.098   0.971
 1817SOL    HW1 5453   2.868   2.062   0.878
 1817SOL    HW2 5454   2.874   2.022   1.036
 1818SOL     OW 5455   2.452   3.349   0.491
 1818SOL    HW1 5456   2.494   3.291   0.421
 1818SOL    HW2 5457   2.408   3.428   0.447
 1819SOL     OW 5458   3.571   2.247   1.381
 1819SOL    HW1 5459   3.644   2.316   1.385
 1819SOL    HW2 5460   3.599   2.172   1.322
 1820SOL     OW 5461   2.117   3.210   0.290
 1820SOL    HW1 5462   2.021   3.211   0.263
 1820SOL    HW2 5463   2.129   3.263   0.374
 1821SOL     OW 5464   1.967   2.875   1.726
 1821SOL    HW1 5465   1.890   2.842   1.780
 1821SOL    HW2 5466   2.052   2.845   1.768
 1822SOL     OW 5467   2.534   2.065   1.489
 1822SOL    HW1 5468   2.624   2.049   1.449
 1822SOL    HW2 5469   2.542   2.070   1.588
 1823SOL     OW 5470   1.937   2.207   0.033
 1823SOL    HW1 5471   1.845   2.179   0.004
 1823SOL    HW2 5472   1.968   2.284  -0.023
 1824SOL     OW 5473   3.302   2.718   1.398
 1824SOL    HW1 5474   3.245   2.770   1.335
 1824SOL    HW2 5475   3.398   2.730   1.374
 1825SOL     OW 5476   1.934   2.028   0.318
 1825SOL    HW1 5477   1.917   2.111   0.264
 1825SOL    HW2 5478   2.024   1.991   0.296
 1826SOL     OW 5479   3.045   3.197   0.119
 1826SOL    HW1 5480   2.946   3.186   0.121
 1826SOL    HW2 5481   3.079   3.212   0.212
 1827SOL     OW 5482   2.475   2.704   1.431
 1827SOL    HW1 5483   2.531   2.785   1.414
 1827SOL    HW2 5484   2.534   2.624   1.434
 1828SOL     OW 5485   3.355   3.629   0.959
 1828SOL    HW1 5486   3.388   3.693   0.890
 1828SOL    HW2 5487   3.421   3.623   1.034
 1829SOL     OW 5488   2.578   2.427   1.708
 1829SOL    HW1 5489   2.597   2.492   1.782
 1829SOL    HW2 5490   2.638   2.347   1.717
 1830SOL     OW 5491   3.312   3.082   1.633
 1830SOL    HW1 5492   3.303   3.072   1.732
 1830SOL    HW2 5493   3.408   3.075   1.607
 1831SOL     OW 5494   2.252   3.603   1.560
 1831SOL    HW1 5495   2.161   3.644   1.558
 1831SOL    HW2 5496   2.245   3.509   1.592
 1832SOL     OW 5497   3.536   2.745   1.254
 1832SOL    HW1 5498   3.509   2.656   1.217
 1832SOL    HW2 5499   3.537   2.813   1.181
 1833SOL     OW 5500   3.087   2.187   0.449
 1833SOL    HW1 5501   3.152   2.113   0.438
 1833SOL    HW2 5502   3.107   2.237   0.533
 1834SOL     OW 5503   2.456   2.607   0.652
 1834SOL    HW1 5504   2.506   2.692   0.633
 1834SOL    HW2 5505   2.368   2.609   0.604
 1835SOL     OW 5506   3.639   2.204   1.642
 1835SOL    HW1 5507   3.622   2.235   1.548
 1835SOL    HW2 5508   3.555   2.167   1.680
 1836SOL     OW 5509   3.592   2.796   1.517
 1836SOL    HW1 5510   3.630   2.887   1.532
 1836SOL    HW2 5511   3.584   2.779   1.418
 1837SOL     OW 5512   2.721   3.236   0.016
 1837SOL    HW1 5513   2.675   3.251   0.104
 1837SOL    HW2 5514   2.765   3.321  -0.014
 1838SOL     OW 5515   2.523   3.652   0.953
 1838SOL    HW1 5516   2.477   3.740   0.940
 1838SOL    HW2 5517   2.622   3.664   0.946
 1839SOL     OW 5518   2.721   2.818   0.861
 1839SOL    HW1 5519   2.775   2.749   0.909
 1839SOL    HW2 5520   2.689   2.887   0.927
 1840SOL     OW 5521   2.945   2.846   0.087
 1840SOL    HW1 5522   2.922   2.899   0.005
 1840SOL    HW2 5523   3.026   2.790   0.068
 1841SOL     OW 5524   3.723   3.431   0.851
 1841SOL    HW1 5525   3.652   3.419   0.781
 1841SOL    HW2 5526   3.724   3.352   0.911
 1842SOL     OW 5527   2.083   3.176   1.844
 1842SOL    HW1 5528   2.018   3.103   1.823
 1842SOL    HW2 5529   2.087   3.190   1.942
 1843SOL     OW 5530   1.941   3.102   0.653
 1843SOL    HW1 5531   1.940   3.055   0.741
 1843SOL    HW2 5532   2.023   3.074   0.602
 1844SOL     OW 5533   2.534   3.253   1.624
 1844SOL    HW1 5534   2.456   3.203   1.662
 1844SOL    HW2 5535   2.531   3.348   1.655
 1845SOL     OW 5536   3.686   2.054   1.227
 1845SOL    HW1 5537   3.682   1.964   1.271
 1845SOL    HW2 5538   3.689   2.043   1.128
 1846SOL     OW 5539   2.290   2.286   0.520
 1846SOL    HW1 5540   2.320   2.214   0.458
 1846SOL    HW2 5541   2.251   2.246   0.603
 1847SOL     OW 5542   3.567   3.349   1.104
 1847SOL    HW1 5543   3.474   3.324   1.077
 1847SOL    HW2 5544   3.593   3.299   1.186
 1848SOL     OW 5545   2.179   2.409   1.280
 1848SOL    HW1 5546   2.217   2.350   1.352
 1848SOL    HW2 5547   2.219   2.383   1.192
 1849SOL     OW 5548   2.674   3.448   0.687
 1849SOL    HW1 5549   2.706   3.458   0.593
 1849SOL    HW2 5550   2.595   3.386   0.689
 1850SOL     OW 5551   3.286   2.076   1.112
 1850SOL    HW1 5552   3.338   2.011   1.167
 1850SOL    HW2 5553   3.237   2.139   1.173
 1851SOL     OW 5554   2.863   1.896   1.154
 1851SOL    HW1 5555   2.800   1.824   1.123
 1851SOL    HW2 5556   2.956   1.860   1.154
 1852SOL     OW 5557   2.632   3.192   0.301
 1852SOL    HW1 5558   2.586   3.105   0.318
 1852SOL    HW2 5559   2.723   3.189   0.342
 1853SOL     OW 5560   2.480   3.429   1.284
 1853SOL    HW1 5561   2.475   3.511   1.341
 1853SOL    HW2 5562   2.569   3.426   1.239
 1854SOL     OW 5563   3.214   1.914   0.168
 1854SOL    HW1 5564   3.249   1.873   0.084
 1854SOL    HW2 5565   3.124   1.876   0.188
 1855SOL     OW 5566   3.162   2.315   0.691
 1855SOL    HW1 5567   3.103   2.395   0.695
 1855SOL    HW2 5568   3.177   2.280   0.784
 1856SOL     OW 5569   3.455   2.083   0.882
 1856SOL    HW1 5570   3.371   2.082   0.936
 1856SOL    HW2 5571   3.457   2.166   0.826
 1857SOL     OW 5572   1.901   2.939   0.300
 1857SOL    HW1 5573   2.000   2.928   0.291
 1857SOL    HW2 5574   1.861   2.853   0.332
 1858SOL     OW 5575   2.737   3.508   0.337
 1858SOL    HW1 5576   2.660   3.473   0.283
 1858SOL    HW2 5577   2.705   3.579   0.399
 1859SOL     OW 5578   2.092   2.490   1.975
 1859SOL    HW1 5579   1.999   2.488   2.012
 1859SOL    HW2 5580   2.093   2.451   1.883
 1860SOL     OW 5581   2.087   2.137   2.858
 1860SOL    HW1 5582   2.122   2.120   2.950
 1860SOL    HW2 5583   1.999   2.092   2.846
 1861SOL     OW 5584   1.881   2.230   2.509
 1861SOL    HW1 5585   1.799   2.273   2.548
 1861SOL    HW2 5586   1.853   2.157   2.446
 1862SOL     OW 5587   2.431   3.137   3.027
 1862SOL    HW1 5588   2.338   3.130   2.990
 1862SOL    HW2 5589   2.442   3.226   3.071
 1863SOL     OW 5590   3.417   3.373   2.565
 1863SOL    HW1 5591   3.360   3.357   2.646
 1863SOL    HW2 5592   3.358   3.383   2.485
 1864SOL     OW 5593   2.997   2.565   2.579
 1864SOL    HW1 5594   3.054   2.643   2.554
 1864SOL    HW2 5595   2.937   2.591   2.655
 1865SOL     OW 5596   3.617   2.469   2.093
 1865SOL    HW1 5597   3.605   2.456   1.994
 1865SOL    HW2 5598   3.587   2.388   2.142
 1866SOL     OW 5599   2.630   3.006   2.885
 1866SOL    HW1 5600   2.552   3.023   2.945
 1866SOL    HW2 5601   2.664   3.093   2.849
 1867SOL     OW 5602   2.712   2.660   3.685
 1867SOL    HW1 5603   2.708   2.736   3.750
 1867SOL    HW2 5604   2.734   2.696   3.594
 1868SOL     OW 5605   2.547   2.874   2.527
 1868SOL    HW1 5606   2.616   2.858   2.597
 1868SOL    HW2 5607   2.474   2.931   2.565
 1869SOL     OW 5608   2.548   3.023   3.665
 1869SOL    HW1 5609   2.608   3.102   3.679
 1869SOL    HW2 5610   2.462   3.054   3.624
 1870SOL     OW 5611   2.197   3.297   2.923
 1870SOL    HW1 5612   2.119   3.266   2.870
 1870SOL    HW2 5613   2.255   3.355   2.866
 1871SOL     OW 5614   3.322   3.367   3.201
 1871SOL    HW1 5615   3.346   3.461   3.227
 1871SOL    HW2 5616   3.306   3.313   3.283
 1872SOL     OW 5617   2.300   2.254   3.361
 1872SOL    HW1 5618   2.382   2.198   3.370
 1872SOL    HW2 5619   2.219   2.196   3.365
 1873SOL     OW 5620   3.465   2.309   2.599
 1873SOL    HW1 5621   3.391   2.355   2.549
 1873SOL    HW2 5622   3.516   2.377   2.652
 1874SOL     OW 5623   2.093   3.575   2.345
 1874SOL    HW1 5624   2.127   3.652   2.399
 1874SOL    HW2 5625   2.137   3.575   2.255
 1875SOL     OW 5626   2.989   3.203   3.552
 1875SOL    HW1 5627   3.036   3.203   3.640
 1875SOL    HW2 5628   2.941   3.116   3.541
 1876SOL     OW 5629   2.092   3.296   2.400
 1876SOL    HW1 5630   2.066   3.392   2.400
 1876SOL    HW2 5631   2.021   3.242   2.445
 1877SOL     OW 5632   2.102   2.953   2.748
 1877SOL    HW1 5633   2.116   2.869   2.800
 1877SOL    HW2 5634   2.047   3.017   2.803
 1878SOL     OW 5635   2.482   3.648   3.301
 1878SOL    HW1 5636   2.390   3.631   3.336
 1878SOL    HW2 5637   2.510   3.740   3.327
 1879SOL     OW 5638   2.468   2.826   1.985
 1879SOL    HW1 5639   2.475   2.910   1.931
 1879SOL    HW2 5640   2.514   2.839   2.073
 1880SOL     OW 5641   3.456   1.976   3.342
 1880SOL    HW1 5642   3.438   2.043   3.270
 1880SOL    HW2 5643   3.453   2.022   3.431
 1881SOL     OW 5644   1.984   2.505   2.425
 1881SOL    HW1 5645   1.939   2.417   2.442
 1881SOL    HW2 5646   1.983   2.559   2.509
 1882SOL     OW 5647   3.704   3.629   2.221
 1882SOL    HW1 5648   3.758   3.600   2.301
 1882SOL    HW2 5649   3.734   3.719   2.192
 1883SOL     OW 5650   1.889   3.458   1.979
 1883SOL    HW1 5651   1.870   3.362   2.000
 1883SOL    HW2 5652   1.856   3.516   2.054
 1884SOL     OW 5653   3.551   2.784   2.474
 1884SOL    HW1 5654   3.646   2.755   2.482
 1884SOL    HW2 5655   3.543   2.849   2.399
 1885SOL     OW 5656   3.503   2.970   2.294
 1885SOL    HW1 5657   3.589   2.972   2.242
 1885SOL    HW2 5658   3.517   3.017   2.382
 1886SOL     OW 5659   1.975   2.599   3.459
 1886SOL    HW1 5660   2.063   2.586   3.504
 1886SOL    HW2 5661   1.962   2.696   3.437
 1887SOL     OW 5662   2.475   3.227   2.588
 1887SOL    HW1 5663   2.426   3.140   2.597
 1887SOL    HW2 5664   2.452   3.270   2.501
 1888SOL     OW 5665   3.155   3.090   3.285
 1888SOL    HW1 5666   3.192   3.017   3.227
 1888SOL    HW2 5667   3.207   3.095   3.370
 1889SOL     OW 5668   2.671   1.866   2.364
 1889SOL    HW1 5669   2.711   1.957   2.355
 1889SOL    HW2 5670   2.571   1.874   2.370
 1890SOL     OW 5671   2.059   2.838   3.126
 1890SOL    HW1 5672   2.148   2.793   3.112
 1890SOL    HW2 5673   1.986   2.773   3.107
 1891SOL     OW 5674   3.387   2.861   2.052
 1891SOL    HW1 5675   3.324   2.785   2.065
 1891SOL    HW2 5676   3.435   2.879   2.138
 1892SOL     OW 5677   3.049   3.654   3.478
 1892SOL    HW1 5678   3.073   3.714   3.402
 1892SOL    HW2 5679   3.056   3.559   3.448
 1893SOL     OW 5680   2.179   2.113   3.663
 1893SOL    HW1 5681   2.250   2.184   3.669
 1893SOL    HW2 5682   2.091   2.152   3.691
 1894SOL     OW 5683   3.328   3.279   2.815
 1894SOL    HW1 5684   3.269   3.285   2.895
 1894SOL    HW2 5685   3.313   3.191   2.769
 1895SOL     OW 5686   3.529   3.576   2.434
 1895SOL    HW1 5687   3.488   3.553   2.346
 1895SOL    HW2 5688   3.511   3.502   2.499
 1896SOL     OW 5689   2.460   2.591   2.132
 1896SOL    HW1 5690   2.484   2.660   2.064
 1896SOL    HW2 5691   2.382   2.624   2.186
 1897SOL     OW 5692   3.143   2.207   2.806
 1897SOL    HW1 5693   3.057   2.157   2.793
 1897SOL    HW2 5694   3.205   2.153   2.862
 1898SOL     OW 5695   3.438   3.524   2.169
 1898SOL    HW1 5696   3.527   3.570   2.172
 1898SOL    HW2 5697   3.417   3.500   2.074
 1899SOL     OW 5698   2.669   2.467   3.327
 1899SOL    HW1 5699   2.622   2.464   3.416
 1899SOL    HW2 5700   2.618   2.412   3.261
 1900SOL     OW 5701   3.256   2.331   3.536
 1900SOL    HW1 5702   3.236   2.374   3.624
 1900SOL    HW2 5703   3.334   2.269   3.545
 1901SOL     OW 5704   2.835   2.752   3.434
 1901SOL    HW1 5705   2.881   2.668   3.405
 1901SOL    HW2 5706   2.779   2.786   3.359
 1902SOL     OW 5707   2.853   2.272   3.104
 1902SOL    HW1 5708   2.776   2.306   3.158
 1902SOL    HW2 5709   2.819   2.221   3.025
 1903SOL     OW 5710   2.903   2.563   2.291
 1903SOL    HW1 5711   2.929   2.559   2.387
 1903SOL    HW2 5712   2.818   2.512   2.277
 1904SOL     OW 5713   1.938   2.673   2.651
 1904SOL    HW1 5714   2.037   2.661   2.660
 1904SOL    HW2 5715   1.914   2.768   2.672
 1905SOL     OW 5716   1.992   3.683   3.433
 1905SOL    HW1 5717   1.982   3.668   3.532
 1905SOL    HW2 5718   1.906   3.719   3.397
 1906SOL     OW 5719   2.727   2.210   2.057
 1906SOL    HW1 5720   2.786   2.273   2.008
 1906SOL    HW2 5721   2.746   2.116   2.028
 1907SOL     OW 5722   3.581   2.447   3.693
 1907SOL    HW1 5723   3.555   2.536   3.657
 1907SOL    HW2 5724   3.579   2.379   3.620
 1908SOL     OW 5725   3.224   3.006   2.407
 1908SOL    HW1 5726   3.307   2.977   2.359
 1908SOL    HW2 5727   3.175   3.073   2.351
 1909SOL     OW 5728   2.412   2.058   2.747
 1909SOL    HW1 5729   2.407   2.053   2.847
 1909SOL    HW2 5730   2.414   2.154   2.718
 1910SOL     OW 5731   2.870   3.318   2.339
 1910SOL    HW1 5732   2.824   3.390   2.287
 1910SOL    HW2 5733   2.866   3.338   2.437
 1911SOL     OW 5734   2.213   3.663   2.715
 1911SOL    HW1 5735   2.263   3.577   2.721
 1911SOL    HW2 5736   2.278   3.740   2.712
 1912SOL     OW 5737   3.657   2.928   2.735
 1912SOL    HW1 5738   3.595   2.913   2.659
 1912SOL    HW2 5739   3.605   2.939   2.820
 1913SOL     OW 5740   3.089   3.412   3.368
 1913SOL    HW1 5741   3.095   3.335   3.432
 1913SOL    HW2 5742   3.037   3.386   3.288
 1914SOL     OW 5743   2.183   2.805   2.104
 1914SOL    HW1 5744   2.265   2.844   2.062
 1914SOL    HW2 5745   2.156   2.723   2.055
 1915SOL     OW 5746   3.320   2.597   2.590
 1915SOL    HW1 5747   3.315   2.532   2.665
 1915SOL    HW2 5748   3.400   2.656   2.603
 1916SOL     OW 5749   2.323   3.128   3.589
 1916SOL    HW1 5750   2.273   3.129   3.503
 1916SOL    HW2 5751   2.260   3.110   3.665
 1917SOL     OW 5752   2.973   3.638   2.099
 1917SOL    HW1 5753   2.913   3.576   2.149
 1917SOL    HW2 5754   3.004   3.594   2.014
 1918SOL     OW 5755   2.064   2.147   3.360
 1918SOL    HW1 5756   1.984   2.207   3.347
 1918SOL    HW2 5757   2.054   2.098   3.446
 1919SOL     OW 5758   3.494   3.239   1.943
 1919SOL    HW1 5759   3.462   3.333   1.933
 1919SOL    HW2 5760   3.418   3.176   1.931
 1920SOL     OW 5761   2.326   3.605   2.185
 1920SOL    HW1 5762   2.359   3.644   2.271
 1920SOL    HW2 5763   2.402   3.598   2.120
 1921SOL     OW 5764   3.262   1.969   2.288
 1921SOL    HW1 5765   3.238   1.932   2.198
 1921SOL    HW2 5766   3.361   1.985   2.292
 1922SOL     OW 5767   2.111   3.647   3.103
 1922SOL    HW1 5768   2.168   3.582   3.153
 1922SOL    HW2 5769   2.095   3.614   3.010
 1923SOL     OW 5770   2.802   3.560   2.766
 1923SOL    HW1 5771   2.882   3.503   2.787
 1923SOL    HW2 5772   2.753   3.520   2.689
 1924SOL     OW 5773   2.244   2.562   2.342
 1924SOL    HW1 5774   2.289   2.472   2.339
 1924SOL    HW2 5775   2.150   2.551   2.375
 1925SOL     OW 5776   3.409   2.084   3.591
 1925SOL    HW1 5777   3.404   2.121   3.683
 1925SOL    HW2 5778   3.337   2.015   3.579
 1926SOL     OW 5779   2.476   1.984   1.979
 1926SOL    HW1 5780   2.574   1.962   1.986
 1926SOL    HW2 5781   2.445   1.967   1.886
 1927SOL     OW 5782   2.643   2.126   3.611
 1927SOL    HW1 5783   2.710   2.065   3.654
 1927SOL    HW2 5784   2.570   2.145   3.676
 1928SOL     OW 5785   2.750   3.376   3.057
 1928SOL    HW1 5786   2.727   3.351   2.963
 1928SOL    HW2 5787   2.811   3.307   3.096
 1929SOL     OW 5788   3.213   2.452   3.295
 1929SOL    HW1 5789   3.241   2.409   3.380
 1929SOL    HW2 5790   3.238   2.548   3.296
 1930SOL     OW 5791   2.665   3.264   2.786
 1930SOL    HW1 5792   2.755   3.278   2.744
 1930SOL    HW2 5793   2.594   3.266   2.715
 1931SOL     OW 5794   2.784   2.365   2.761
 1931SOL    HW1 5795   2.759   2.356   2.665
 1931SOL    HW2 5796   2.832   2.283   2.792
 1932SOL     OW 5797   2.401   1.926   2.374
 1932SOL    HW1 5798   2.320   1.927   2.432
 1932SOL    HW2 5799   2.404   2.009   2.319
 1933SOL     OW 5800   3.296   3.050   1.903
 1933SOL    HW1 5801   3.328   2.974   1.960
 1933SOL    HW2 5802   3.204   3.077   1.933
 1934SOL     OW 5803   2.159   1.897   2.033
 1934SOL    HW1 5804   2.208   1.981   2.012
 1934SOL    HW2 5805   2.221   1.832   2.078
 1935SOL     OW 5806   2.797   2.098   2.342
 1935SOL    HW1 5807   2.749   2.139   2.264
 1935SOL    HW2 5808   2.896   2.096   2.323
 1936SOL     OW 5809   2.938   2.545   3.326
 1936SOL    HW1 5810   2.858   2.484   3.329
 1936SOL    HW2 5811   3.019   2.492   3.302
 1937SOL     OW 5812   3.089   3.432   2.655
 1937SOL    HW1 5813   3.110   3.506   2.590
 1937SOL    HW2 5814   3.157   3.432   2.728
 1938SOL     OW 5815   2.321   3.014   2.603
 1938SOL    HW1 5816   2.250   2.987   2.668
 1938SOL    HW2 5817   2.295   2.986   2.510
 1939SOL     OW 5818   3.133   3.659   2.453
 1939SOL    HW1 5819   3.177   3.723   2.389
 1939SOL    HW2 5820   3.083   3.711   2.523
 1940SOL     OW 5821   2.894   2.411   1.878
 1940SOL    HW1 5822   2.853   2.493   1.839
 1940SOL    HW2 5823   2.958   2.437   1.951
 1941SOL     OW 5824   1.940   2.418   3.248
 1941SOL    HW1 5825   2.032   2.417   3.207
 1941SOL    HW2 5826   1.934   2.492   3.315
 1942SOL     OW 5827   2.423   2.084   3.009
 1942SOL    HW1 5828   2.461   2.000   3.046
 1942SOL    HW2 5829   2.335   2.103   3.053
 1943SOL     OW 5830   2.728   2.316   2.504
 1943SOL    HW1 5831   2.696   2.388   2.442
 1943SOL    HW2 5832   2.752   2.235   2.451
 1944SOL     OW 5833   2.879   1.901   2.615
 1944SOL    HW1 5834   2.807   1.906   2.546
 1944SOL    HW2 5835   2.855   1.832   2.684
 1945SOL     OW 5836   3.291   3.035   2.729
 1945SOL    HW1 5837   3.236   2.951   2.722
 1945SOL    HW2 5838   3.317   3.064   2.637
 1946SOL     OW 5839   3.328   2.452   2.854
 1946SOL    HW1 5840   3.298   2.357   2.861
 1946SOL    HW2 5841   3.401   2.468   2.920
 1947SOL     OW 5842   3.719   2.695   2.239
 1947SOL    HW1 5843   3.761   2.631   2.303
 1947SOL    HW2 5844   3.681   2.644   2.161
 1948SOL     OW 5845   2.350   3.247   2.036
 1948SOL    HW1 5846   2.263   3.232   2.083
 1948SOL    HW2 5847   2.333   3.273   1.941
 1949SOL     OW 5848   3.526   3.142   2.519
 1949SOL    HW1 5849   3.625   3.150   2.533
 1949SOL    HW2 5850   3.481   3.226   2.550
 1950SOL     OW 5851   3.252   2.437   1.940
 1950SOL    HW1 5852   3.198   2.416   2.021
 1950SOL    HW2 5853   3.343   2.396   1.949
 1951SOL     OW 5854   2.389   2.118   2.190
 1951SOL    HW1 5855   2.416   2.059   2.115
 1951SOL    HW2 5856   2.389   2.213   2.159
 1952SOL     OW 5857   3.616   3.085   3.450
 1952SOL    HW1 5858   3.707   3.046   3.437
 1952SOL    HW2 5859   3.624   3.181   3.474
 1953SOL     OW 5860   2.926   3.209   3.202
 1953SOL    HW1 5861   2.846   3.186   3.257
 1953SOL    HW2 5862   3.009   3.183   3.251
 1954SOL     OW 5863   3.454   3.491   3.487
 1954SOL    HW1 5864   3.481   3.525   3.397
 1954SOL    HW2 5865   3.533   3.453   3.533
 1955SOL     OW 5866   2.973   3.057   2.962
 1955SOL    HW1 5867   2.933   3.101   3.043
 1955SOL    HW2 5868   2.932   3.094   2.879
 1956SOL     OW 5869   3.500   2.961   2.941
 1956SOL    HW1 5870   3.505   3.042   3.000
 1956SOL    HW2 5871   3.414   2.963   2.890
 1957SOL     OW 5872   2.777   1.951   3.264
 1957SOL    HW1 5873   2.802   1.931   3.169
 1957SOL    HW2 5874   2.849   2.007   3.306
 1958SOL     OW 5875   2.842   2.978   3.581
 1958SOL    HW1 5876   2.743   2.984   3.591
 1958SOL    HW2 5877   2.865   2.898   3.525
 1959SOL     OW 5878   2.567   2.912   2.230
 1959SOL    HW1 5879   2.553   2.919   2.329
 1959SOL    HW2 5880   2.651   2.861   2.212
 1960SOL     OW 5881   2.272   2.675   3.113
 1960SOL    HW1 5882   2.358   2.687   3.163
 1960SOL    HW2 5883   2.230   2.588   3.140
 1961SOL     OW 5884   3.136   2.248   3.124
 1961SOL    HW1 5885   3.157   2.322   3.188
 1961SOL    HW2 5886   3.047   2.265   3.081
 1962SOL     OW 5887   1.926   3.426   3.193
 1962SOL    HW1 5888   1.880   3.508   3.159
 1962SOL    HW2 5889   2.024   3.445   3.202
 1963SOL     OW 5890   2.229   2.962   2.363
 1963SOL    HW1 5891   2.222   3.045   2.307
 1963SOL    HW2 5892   2.233   2.882   2.303
 1964SOL     OW 5893   2.428   2.399   2.727
 1964SOL    HW1 5894   2.440   2.465   2.653
 1964SOL    HW2 5895   2.474   2.433   2.810
 1965SOL     OW 5896   3.114   3.210   2.250
 1965SOL    HW1 5897   3.164   3.287   2.290
 1965SOL    HW2 5898   3.019   3.212   2.282
 1966SOL     OW 5899   3.134   3.307   3.004
 1966SOL    HW1 5900   3.181   3.320   3.091
 1966SOL    HW2 5901   3.068   3.233   3.013
 1967SOL     OW 5902   3.444   2.501   2.334
 1967SOL    HW1 5903   3.413   2.562   2.407
 1967SOL    HW2 5904   3.494   2.553   2.265
 1968SOL     OW 5905   2.216   3.372   3.191
 1968SOL    HW1 5906   2.195   3.328   3.104
 1968SOL    HW2 5907   2.313   3.398   3.194
 1969SOL     OW 5908   2.264   2.613   3.460
 1969SOL    HW1 5909   2.332   2.668   3.413
 1969SOL    HW2 5910   2.304   2.525   3.487
 1970SOL     OW 5911   3.449   2.641   3.532
 1970SOL    HW1 5912   3.357   2.679   3.527
 1970SOL    HW2 5913   3.509   2.688   3.467
 1971SOL     OW 5914   2.875   1.967   3.632
 1971SOL    HW1 5915   2.881   2.052   3.580
 1971SOL    HW2 5916   2.907   1.891   3.575
 1972SOL     OW 5917   2.366   1.912   3.602
 1972SOL    HW1 5918   2.324   1.855   3.532
 1972SOL    HW2 5919   2.300   1.981   3.634
 1973SOL     OW 5920   2.435   2.732   2.891
 1973SOL    HW1 5921   2.479   2.821   2.882
 1973SOL    HW2 5922   2.372   2.732   2.968
 1974SOL     OW 5923   3.222   2.724   2.907
 1974SOL    HW1 5924   3.147   2.724   2.841
 1974SOL    HW2 5925   3.259   2.632   2.916
 1975SOL     OW 5926   3.071   2.387   2.137
 1975SOL    HW1 5927   3.084   2.303   2.191
 1975SOL    HW2 5928   3.042   2.461   2.197
 1976SOL     OW 5929   2.169   2.075   3.093
 1976SOL    HW1 5930   2.146   2.112   3.183
 1976SOL    HW2 5931   2.139   1.980   3.087
 1977SOL     OW 5932   1.899   3.172   3.144
 1977SOL    HW1 5933   1.952   3.123   3.212
 1977SOL    HW2 5934   1.921   3.270   3.149
 1978SOL     OW 5935   2.594   2.496   2.926
 1978SOL    HW1 5936   2.653   2.470   2.850
 1978SOL    HW2 5937   2.566   2.592   2.915
 1979SOL     OW 5938   3.590   2.797   3.716
 1979SOL    HW1 5939   3.544   2.790   3.627
 1979SOL    HW2 5940   3.528   2.841   3.782
 1980SOL     OW 5941   2.169   1.925   2.480
 1980SOL    HW1 5942   2.158   2.019   2.513
 1980SOL    HW2 5943   2.164   1.862   2.557
 1981SOL     OW 5944   3.484   2.229   2.236
 1981SOL    HW1 5945   3.486   2.153   2.300
 1981SOL    HW2 5946   3.436   2.306   2.276
 1982SOL     OW 5947   2.885   2.628   2.828
 1982SOL    HW1 5948   2.900   2.649   2.924
 1982SOL    HW2 5949   2.855   2.533   2.819
 1983SOL     OW 5950   2.842   3.435   3.562
 1983SOL    HW1 5951   2.822   3.479   3.474
 1983SOL    HW2 5952   2.881   3.344   3.546
 1984SOL     OW 5953   3.721   3.380   3.467
 1984SOL    HW1 5954   3.735   3.407   3.372
 1984SOL    HW2 5955   3.804   3.402   3.520
 1985SOL     OW 5956   2.212   2.760   3.666
 1985SOL    HW1 5957   2.288   2.804   3.714
 1985SOL    HW2 5958   2.247   2.713   3.584
 1986SOL     OW 5959   3.402   2.136   1.987
 1986SOL    HW1 5960   3.341   2.061   2.010
 1986SOL    HW2 5961   3.424   2.188   2.070
 1987SOL     OW 5962   3.165   2.700   1.904
 1987SOL    HW1 5963   3.199   2.607   1.919
 1987SOL    HW2 5964   3.183   2.727   1.809
 1988SOL     OW 5965   2.930   3.195   2.711
 1988SOL    HW1 5966   2.937   3.111   2.656
 1988SOL    HW2 5967   2.992   3.264   2.675
 1989SOL     OW 5968   2.181   2.672   2.811
 1989SOL    HW1 5969   2.274   2.708   2.816
 1989SOL    HW2 5970   2.175   2.587   2.863
 1990SOL     OW 5971   2.201   2.371   2.868
 1990SOL    HW1 5972   2.149   2.288   2.851
 1990SOL    HW2 5973   2.278   2.376   2.804
 1991SOL     OW 5974   3.000   2.242   3.540
 1991SOL    HW1 5975   2.955   2.305   3.604
 1991SOL    HW2 5976   3.093   2.273   3.523
 1992SOL     OW 5977   3.022   2.069   3.339
 1992SOL    HW1 5978   3.022   2.133   3.416
 1992SOL    HW2 5979   3.050   2.117   3.256
 1993SOL     OW 5980   1.870   3.188   2.062
 1993SOL    HW1 5981   1.777   3.209   2.031
 1993SOL    HW2 5982   1.880   3.089   2.075
 1994SOL     OW 5983   1.950   3.663   2.789
 1994SOL    HW1 5984   1.908   3.577   2.762
 1994SOL    HW2 5985   2.044   3.666   2.755
 1995SOL     OW 5986   2.366   3.430   2.772
 1995SOL    HW1 5987   2.432   3.504   2.781
 1995SOL    HW2 5988   2.410   3.351   2.730
 1996SOL     OW 5989   2.864   2.658   3.100
 1996SOL    HW1 5990   2.905   2.626   3.186
 1996SOL    HW2 5991   2.768   2.631   3.097
 1997SOL     OW 5992   1.902   2.406   2.976
 1997SOL    HW1 5993   1.987   2.373   2.935
 1997SOL    HW2 5994   1.915   2.421   3.074
 1998SOL     OW 5995   2.051   2.382   3.584
 1998SOL    HW1 5996   2.110   2.342   3.514
 1998SOL    HW2 5997   1.993   2.453   3.543
 1999SOL     OW 5998   3.231   2.812   3.522
 1999SOL    HW1 5999   3.270   2.901   3.542
 1999SOL    HW2 6000   3.241   2.792   3.425
 2000SOL     OW 6001   2.677   2.434   2.187
 2000SOL    HW1 6002   2.684   2.345   2.141
 2000SOL    HW2 6003   2.583   2.468   2.179
 2001SOL     OW 6004   3.519   2.466   3.068
 2001SOL    HW1 6005   3.481   2.397   3.130
 2001SOL    HW2 6006   3.601   2.430   3.024
 2002SOL     OW 6007   2.114   3.426   3.606
 2002SOL    HW1 6008   2.084   3.483   3.682
 2002SOL    HW2 6009   2.107   3.329   3.632
 2003SOL     OW 6010   2.533   2.326   3.131
 2003SOL    HW1 6011   2.499   2.237   3.101
 2003SOL    HW2 6012   2.559   2.380   3.051
 2004SOL     OW 6013   2.792   3.540   3.327
 2004SOL    HW1 6014   2.768   3.522   3.232
 2004SOL    HW2 6015   2.822   3.634   3.337
 2005SOL     OW 6016   2.021   2.999   3.328
 2005SOL    HW1 6017   2.043   2.938   3.404
 2005SOL    HW2 6018   2.031   2.950   3.242
 2006SOL     OW 6019   3.209   2.921   3.096
 2006SOL    HW1 6020   3.233   2.858   3.022
 2006SOL    HW2 6021   3.119   2.961   3.078
 2007SOL     OW 6022   3.164   2.717   2.171
 2007SOL    HW1 6023   3.078   2.686   2.213
 2007SOL    HW2 6024   3.160   2.703   2.072
 2008SOL     OW 6025   3.621   3.609   3.016
 2008SOL    HW1 6026   3.682   3.639   2.943
 2008SOL    HW2 6027   3.583   3.520   2.994
 2009SOL     OW 6028   3.114   3.593   2.990
 2009SOL    HW1 6029   3.198   3.598   2.936
 2009SOL    HW2 6030   3.091   3.497   3.008
 2010SOL     OW 6031   1.945   3.120   2.884
 2010SOL    HW1 6032   1.940   3.119   2.984
 2010SOL    HW2 6033   1.862   3.079   2.846
 2011SOL     OW 6034   2.550   3.524   3.578
 2011SOL    HW1 6035   2.494   3.605   3.587
 2011SOL    HW2 6036   2.602   3.528   3.492
 2012SOL     OW 6037   3.588   1.997   2.385
 2012SOL    HW1 6038   3.661   1.980   2.318
 2012SOL    HW2 6039   3.557   1.910   2.423
 2013SOL     OW 6040   3.250   3.435   2.339
 2013SOL    HW1 6041   3.317   3.447   2.265
 2013SOL    HW2 6042   3.210   3.524   2.362
 2014SOL     OW 6043   1.992   3.656   3.713
 2014SOL    HW1 6044   1.951   3.582   3.766
 2014SOL    HW2 6045   2.056   3.707   3.771
 2015SOL     OW 6046   3.142   2.789   2.534
 2015SOL    HW1 6047   3.202   2.708   2.536
 2015SOL    HW2 6048   3.182   2.858   2.474
 2016SOL     OW 6049   2.692   3.135   3.284
 2016SOL    HW1 6050   2.687   3.168   3.379
 2016SOL    HW2 6051   2.606   3.154   3.238
 2017SOL     OW 6052   2.534   3.478   2.016
 2017SOL    HW1 6053   2.543   3.488   1.917
 2017SOL    HW2 6054   2.494   3.389   2.037
 2018SOL     OW 6055   3.512   3.582   3.256
 2018SOL    HW1 6056   3.565   3.592   3.172
 2018SOL    HW2 6057   3.485   3.672   3.290
 2019SOL     OW 6058   3.703   2.037   2.825
 2019SOL    HW1 6059   3.742   1.952   2.789
 2019SOL    HW2 6060   3.605   2.039   2.806
 2020SOL     OW 6061   2.125   2.188   2.582
 2020SOL    HW1 6062   2.046   2.239   2.548
 2020SOL    HW2 6063   2.116   2.173   2.680
 2021SOL     OW 6064   3.056   3.474   1.893
 2021SOL    HW1 6065   3.062   3.381   1.930
 2021SOL    HW2 6066   2.997   3.474   1.813
 2022SOL     OW 6067   2.684   2.864   3.234
 2022SOL    HW1 6068   2.724   2.863   3.142
 2022SOL    HW2 6069   2.694   2.956   3.274
 2023SOL     OW 6070   2.778   2.772   2.153
 2023SOL    HW1 6071   2.841   2.810   2.085
 2023SOL    HW2 6072   2.818   2.689   2.192
 2024SOL     OW 6073   3.366   3.469   1.906
 2024SOL    HW1 6074   3.274   3.506   1.913
 2024SOL    HW2 6075   3.404   3.489   1.816
 2025SOL     OW 6076   2.234   3.150   3.352
 2025SOL    HW1 6077   2.221   3.243   3.318
 2025SOL    HW2 6078   2.150   3.098   3.339
 2026SOL     OW 6079   3.476   3.154   3.151
 2026SOL    HW1 6080   3.536   3.157   3.231
 2026SOL    HW2 6081   3.401   3.218   3.164
 2027SOL     OW 6082   2.901   2.960   2.558
 2027SOL    HW1 6083   2.831   2.913   2.612
 2027SOL    HW2 6084   2.960   2.892   2.515
 2028SOL     OW 6085   2.876   2.098   2.833
 2028SOL    HW1 6086   2.868   2.062   2.740
 2028SOL    HW2 6087   2.874   2.022   2.898
 2029SOL     OW 6088   2.452   3.349   2.353
 2029SOL    HW1 6089   2.494   3.291   2.283
 2029SOL    HW2 6090   2.408   3.428   2.309
 2030SOL     OW 6091   3.571   2.247   3.243
 2030SOL    HW1 6092   3.644   2.316   3.247
 2030SOL    HW2 6093   3.599   2.172   3.184
 2031SOL     OW 6094   2.117   3.210   2.152
 2031SOL    HW1 6095   2.021   3.211   2.125
 2031SOL    HW2 6096   2.129   3.263   2.236
 2032SOL     OW 6097   1.967   2.875   3.588
 2032SOL    HW1 6098   1.890   2.842   3.642
 2032SOL    HW2 6099   2.052   2.845   3.630
 2033SOL     OW 6100   2.534   2.065   3.351
 2033SOL    HW1 6101   2.624   2.049   3.311
 2033SOL    HW2 6102   2.542   2.070   3.450
 2034SOL     OW 6103   1.937   2.207   1.895
 2034SOL    HW1 6104   1.845   2.179   1.866
 2034SOL    HW2 6105   1.968   2.284   1.839
 2035SOL     OW 6106   3.302   2.718   3.260
 2035SOL    HW1 6107   3.245   2.770   3.197
 2035SOL    HW2 6108   3.398   2.730   3.236
 2036SOL     OW 6109   1.934   2.028   2.180
 2036SOL    HW1 6110   1.917   2.111   2.126
 2036SOL    HW2 6111   2.024   1.991   2.158
 2037SOL     OW 6112   3.045   3.197   1.981
 2037SOL    HW1 6113   2.946   3.186   1.983
 2037SOL    HW2 6114   3.079   3.212   2.074
 2038SOL     OW 6115   2.475   2.704   3.293
 2038SOL    HW1 6116   2.531   2.785   3.276
 2038SOL    HW2 6117   2.534   2.624   3.296
 2039SOL     OW 6118   3.355   3.629   2.821
 2039SOL    HW1 6119   3.388   3.693   2.752
 2039SOL    HW2 6120   3.421   3.623   2.896
 2040SOL     OW 6121   2.578   2.427   3.570
 2040SOL    HW1 6122   2.597   2.492   3.644
 2040SOL    HW2 6123   2.638   2.347   3.579
 2041SOL     OW 6124   3.312   3.082   3.495
 2041SOL    HW1 6125   3.303   3.072   3.594
 2041SOL    HW2 6126   3.408   3.075   3.469
 2042SOL     OW 6127   2.252   3.603   3.422
 2042SOL    HW1 6128   2.161   3.644   3.420
 2042SOL    HW2 6129   2.245   3.509   3.454
 2043SOL     OW 6130   3.536   2.745   3.116
 2043SOL    HW1 6131   3.509   2.656   3.079
 2043SOL    HW2 6132   3.537   2.813   3.043
 2044SOL     OW 6133   3.087   2.187   2.311
 2044SOL    HW1 6134   3.152   2.113   2.300
 2044SOL    HW2 6135   3.107   2.237   2.395
 2045SOL     OW 6136   2.456   2.607   2.514
 2045SOL    HW1 6137   2.506   2.692   2.495
 2045SOL    HW2 6138   2.368   2.609   2.466
 2046SOL     OW 6139   3.639   2.204   3.504
 2046SOL    HW1 6140   3.622   2.235   3.410
 2046SOL    HW2 6141   3.555   2.167   3.542
 2047SOL     OW 6142   3.592   2.796   3.379
 2047SOL    HW1 6143   3.630   2.887   3.394
 2047SOL    HW2 6144   3.584   2.779   3.280
 2048SOL     OW 6145   2.721   3.236   1.878
 2048SOL    HW1 6146   2.675   3.251   1.966
 2048SOL    HW2 6147   2.765   3.321   1.848
 2049SOL     OW 6148   2.523   3.652   2.815
 2049SOL    HW1 6149   2.477   3.740   2.802
 2049SOL    HW2 6150   2.622   3.664   2.808
 2050SOL     OW 6151   2.721   2.818   2.723
 2050SOL    HW1 6152   2.775   2.749   2.771
 2050SOL    HW2 6153   2.689   2.887   2.789
 2051SOL     OW 6154   2.945   2.846   1.949
 2051SOL    HW1 6155   2.922   2.899   1.867
 2051SOL    HW2 6156   3.026   2.790   1.930
 2052SOL     OW 6157   3.723   3.431   2.713
 2052SOL    HW1 6158   3.652   3.419   2.643
 2052SOL    HW2 6159   3.724   3.352   2.773
 2053SOL     OW 6160   2.083   3.176   3.706
 2053SOL    HW1 6161   2.018   3.103   3.685
 2053SOL    HW2 6162   2.087   3.190   3.804
 2054SOL     OW 6163   1.941   3.102   2.515
 2054SOL    HW1 6164   1.940   3.055   2.603
 2054SOL    HW2 6165   2.023   3.074   2.464
 2055SOL     OW 6166   2.534   3.253   3.486
 2055SOL    HW1 6167   2.456   3.203   3.524
 2055SOL    HW2 6168   2.531   3.348   3.517
 2056SOL     OW 6169   3.686   2.054   3.089
 2056SOL    HW1 6170   3.682   1.964   3.133
 2056SOL    HW2 6171   3.689   2.043   2.990
 2057SOL     OW 6172   3.567   3.349   2.966
 2057SOL    HW1 6173   3.474   3.324   2.939
 2057SOL    HW2 6174   3.593   3.299   3.048
 2058SOL     OW 6175   2.179   2.409   3.142
 2058SOL    HW1 6176   2.217   2.350   3.214
 2058SOL    HW2 6177   2.219   2.383   3.054
 2059SOL     OW 6178   2.674   3.448   2.549
 2059SOL    HW1 6179   2.706   3.458   2.455
 2059SOL    HW2 6180   2.595   3.386   2.551
 2060SOL     OW 6181   3.286   2.076   2.974
 2060SOL    HW1 6182   3.338   2.011   3.029
 2060SOL    HW2 6183   3.237   2.139   3.035
 2061SOL     OW 6184   2.863   1.896   3.016
 2061SOL    HW1 6185   2.800   1.824   2.985
 2061SOL    HW2 6186   2.956   1.860   3.016
 2062SOL     OW 6187   2.632   3.192   2.163
 2062SOL    HW1 6188   2.586   3.105   2.180
 2062SOL    HW2 6189   2.723   3.189   2.204
 2063SOL     OW 6190   2.480   3.429   3.146
 2063SOL    HW1 6191   2.475   3.511   3.203
 2063SOL    HW2 6192   2.569   3.426   3.101
 2064SOL     OW 6193   3.214   1.914   2.030
 2064SOL    HW1 6194   3.249   1.873   1.946
 2064SOL    HW2 6195   3.124   1.876   2.050
 2065SOL     OW 6196   3.162   2.315   2.553
 2065SOL    HW1 6197   3.103   2.395   2.557
 2065SOL    HW2 6198   3.177   2.280   2.646
 2066SOL     OW 6199   3.455   2.083   2.744
 2066SOL    HW1 6200   3.371   2.082   2.798
 2066SOL    HW2 6201   3.457   2.166   2.688
 2067SOL     OW 6202   1.901   2.939   2.162
 2067SOL    HW1 6203   2.000   2.928   2.153
 2067SOL    HW2 6204   1.861   2.853   2.194
 2068SOL     OW 6205   2.737   3.508   2.199
 2068SOL    HW1 6206   2.660   3.473   2.145
 2068SOL    HW2 6207   2.705   3.579   2.261
 2069SOL     OW 6208   2.092   2.490   3.837
 2069SOL    HW1 6209   1.999   2.488   3.874
 2069SOL    HW2 6210   2.093   2.451   3.745
 2070SOL     OW 6211   3.617   2.469   3.955
 2070SOL    HW1 6212   3.605   2.456   3.856
 2070SOL    HW2 6213   3.587   2.388   4.004
 2071SOL     OW 6214   2.093   3.575   4.207
 2071SOL    HW1 6215   2.127   3.652   4.261
 2071SOL    HW2 6216   2.137   3.575   4.117
 2072SOL     OW 6217   2.092   3.296   4.262
 2072SOL    HW1 6218   2.066   3.392   4.262
 2072SOL    HW2 6219   2.021   3.242   4.307
 2073SOL     OW 6220   2.468   2.826   3.847
 2073SOL    HW1 6221   2.475   2.910   3.793
 2073SOL    HW2 6222   2.514   2.839   3.935
 2074SOL     OW 6223   1.984   2.505   4.287
 2074SOL    HW1 6224   1.939   2.417   4.304
 2074SOL    HW2 6225   1.983   2.559   4.371
 2075SOL     OW 6226   3.704   3.629   4.083
 2075SOL    HW1 6227   3.758   3.600   4.163
 2075SOL    HW2 6228   3.734   3.719   4.054
 2076SOL     OW 6229   1.889   3.458   3.841
 2076SOL    HW1 6230   1.870   3.362   3.862
 2076SOL    HW2 6231   1.856   3.516   3.916
 2077SOL     OW 6232   3.551   2.784   4.336
 2077SOL    HW1 6233   3.646   2.755   4.344
 2077SOL    HW2 6234   3.543   2.849   4.261
 2078SOL     OW 6235   3.503   2.970   4.156
 2078SOL    HW1 6236   3.589   2.972   4.104
 2078SOL    HW2 6237   3.517   3.017   4.244
 2079SOL     OW 6238   2.671   1.866   4.226
 2079SOL    HW1 6239   2.711   1.957   4.217
 2079SOL    HW2 6240   2.571   1.874   4.232
 2080SOL     OW 6241   3.387   2.861   3.914
 2080SOL    HW1 6242   3.324   2.785   3.927
 2080SOL    HW2 6243   3.435   2.879   4.000
 2081SOL     OW 6244   2.460   2.591   3.994
 2081SOL    HW1 6245   2.484   2.660   3.926
 2081SOL    HW2 6246   2.382   2.624   4.048
 2082SOL     OW 6247   3.438   3.524   4.031
 2082SOL    HW1 6248   3.527   3.570   4.034
 2082SOL    HW2 6249   3.417   3.500   3.936
 2083SOL     OW 6250   2.903   2.563   4.153
 2083SOL    HW1 6251   2.929   2.559   4.249
 2083SOL    HW2 6252   2.818   2.512   4.139
 2084SOL     OW 6253   1.938   2.673   4.513
 2084SOL    HW1 6254   2.037   2.661   4.522
 2084SOL    HW2 6255   1.914   2.768   4.534
 2085SOL     OW 6256   2.727   2.210   3.919
 2085SOL    HW1 6257   2.786   2.273   3.870
 2085SOL    HW2 6258   2.746   2.116   3.890
 2086SOL     OW 6259   2.183   2.805   3.966
 2086SOL    HW1 6260   2.265   2.844   3.924
 2086SOL    HW2 6261   2.156   2.723   3.917
 2087SOL     OW 6262   2.973   3.638   3.961
 2087SOL    HW1 6263   2.913   3.576   4.011
 2087SOL    HW2 6264   3.004   3.594   3.876
 2088SOL     OW 6265   3.494   3.239   3.805
 2088SOL    HW1 6266   3.462   3.333   3.795
 2088SOL    HW2 6267   3.418   3.176   3.793
 2089SOL     OW 6268   2.326   3.605   4.047
 2089SOL    HW1 6269   2.359   3.644   4.133
 2089SOL    HW2 6270   2.402   3.598   3.982
 2090SOL     OW 6271   3.262   1.969   4.150
 2090SOL    HW1 6272   3.238   1.932   4.060
 2090SOL    HW2 6273   3.361   1.985   4.154
 2091SOL     OW 6274   2.244   2.562   4.204
 2091SOL    HW1 6275   2.289   2.472   4.201
 2091SOL    HW2 6276   2.150   2.551   4.237
 2092SOL     OW 6277   2.476   1.984   3.841
 2092SOL    HW1 6278   2.574   1.962   3.848
 2092SOL    HW2 6279   2.445   1.967   3.748
 2093SOL     OW 6280   2.401   1.926   4.236
 2093SOL    HW1 6281   2.320   1.927   4.294
 2093SOL    HW2 6282   2.404   2.009   4.181
 2094SOL     OW 6283   3.296   3.050   3.765
 2094SOL    HW1 6284   3.328   2.974   3.822
 2094SOL    HW2 6285   3.204   3.077   3.795
 2095SOL     OW 6286   2.159   1.897   3.895
 2095SOL    HW1 6287   2.208   1.981   3.874
 2095SOL    HW2 6288   2.221   1.832   3.940
 2096SOL     OW 6289   2.797   2.098   4.204
 2096SOL    HW1 6290   2.749   2.139   4.126
 2096SOL    HW2 6291   2.896   2.096   4.185
 2097SOL     OW 6292   2.321   3.014   4.465
 2097SOL    HW1 6293   2.250   2.987   4.530
 2097SOL    HW2 6294   2.295   2.986   4.372
 2098SOL     OW 6295   3.133   3.659   4.315
 2098SOL    HW1 6296   3.177   3.723   4.251
 2098SOL    HW2 6297   3.083   3.711   4.385
 2099SOL     OW 6298   2.894   2.411   3.740
 2099SOL    HW1 6299   2.853   2.493   3.701
 2099SOL    HW2 6300   2.958   2.437   3.813
 2100SOL     OW 6301   2.728   2.316   4.366
 2100SOL    HW1 6302   2.696   2.388   4.304
 2100SOL    HW2 6303   2.752   2.235   4.313
 2101SOL     OW 6304   3.719   2.695   4.101
 2101SOL    HW1 6305   3.761   2.631   4.165
 2101SOL    HW2 6306   3.681   2.644   4.023
 2102SOL     OW 6307   2.350   3.247   3.898
 2102SOL    HW1 6308   2.263   3.232   3.945
 2102SOL    HW2 6309   2.333   3.273   3.803
 2103SOL     OW 6310   3.252   2.437   3.802
 2103SOL    HW1 6311   3.198   2.416   3.883
 2103SOL    HW2 6312   3.343   2.396   3.811
 2104SOL     OW 6313   2.389   2.118   4.052
 2104SOL    HW1 6314   2.416   2.059   3.977
 2104SOL    HW2 6315   2.389   2.213   4.021
 2105SOL     OW 6316   2.567   2.912   4.092
 2105SOL    HW1 6317   2.553   2.919   4.191
 2105SOL    HW2 6318   2.651   2.861   4.074
 2106SOL     OW 6319   2.229   2.962   4.225
 2106SOL    HW1 6320   2.222   3.045   4.169
 2106SOL    HW2 6321   2.233   2.882   4.165
 2107SOL     OW 6322   3.114   3.210   4.112
 2107SOL    HW1 6323   3.164   3.287   4.152
 2107SOL    HW2 6324   3.019   3.212   4.144
 2108SOL     OW 6325   3.444   2.501   4.196
 2108SOL    HW1 6326   3.413   2.562   4.269
 2108SOL    HW2 6327   3.494   2.553   4.127
 2109SOL     OW 6328   3.071   2.387   3.999
 2109SOL    HW1 6329   3.084   2.303   4.053
 2109SOL    HW2 6330   3.042   2.461   4.059
 2110SOL     OW 6331   3.484   2.229   4.098
 2110SOL    HW1 6332   3.486   2.153   4.162
 2110SOL    HW2 6333   3.436   2.306   4.138
 2111SOL     OW 6334   3.402   2.136   3.849
 2111SOL    HW1 6335   3.341   2.061   3.872
 2111SOL    HW2 6336   3.424   2.188   3.932
 2112SOL     OW 6337   3.165   2.700   3.766
 2112SOL    HW1 6338   3.199   2.607   3.781
 2112SOL    HW2 6339   3.183   2.727   3.671
 2113SOL     OW 6340   1.870   3.188   3.924
 2113SOL    HW1 6341   1.777   3.209   3.893
 2113SOL    HW2 6342   1.880   3.089   3.937
 2114SOL     OW 6343   2.677   2.434   4.049
 2114SOL    HW1 6344   2.684   2.345   4.003
 2114SOL    HW2 6345   2.583   2.468   4.041
 2115SOL     OW 6346   2.335   2.362   3.915
 2115SOL    HW1 6347   2.396   2.442   3.919
 2115SOL    HW2 6348   2.240   2.393   3.922
 2116SOL     OW 6349   3.164   2.717   4.033
 2116SOL    HW1 6350   3.078   2.686   4.075
 2116SOL    HW2 6351   3.160   2.703   3.934
 2117SOL     OW 6352   3.588   1.997   4.247
 2117SOL    HW1 6353   3.661   1.980   4.180
 2117SOL    HW2 6354   3.557   1.910   4.285
 2118SOL     OW 6355   3.250   3.435   4.201
 2118SOL    HW1 6356   3.317   3.447   4.127
 2118SOL    HW2 6357   3.210   3.524   4.224
 2119SOL     OW 6358   2.534   3.478   3.878
 2119SOL    HW1 6359   2.543   3.488   3.779
 2119SOL    HW2 6360   2.494   3.389   3.899
 2120SOL     OW 6361   3.056   3.474   3.755
 2120SOL    HW1 6362   3.062   3.381   3.792
 2120SOL    HW2 6363   2.997   3.474   3.675
 2121SOL     OW 6364   2.778   2.772   4.015
 2121SOL    HW1 6365   2.841   2.810   3.947
 2121SOL    HW2 6366   2.818   2.689   4.054
 2122SOL     OW 6367   3.366   3.469   3.768
 2122SOL    HW1 6368   3.274   3.506   3.775
 2122SOL    HW2 6369   3.404   3.489   3.678
 2123SOL     OW 6370   2.452   3.349   4.215
 2123SOL    HW1 6371   2.494   3.291   4.145
 2123SOL    HW2 6372   2.408   3.428   4.171
 2124SOL     OW 6373   2.117   3.210   4.014
 2124SOL    HW1 6374   2.021   3.211   3.987
 2124SOL    HW2 6375   2.129   3.263   4.098
 2125SOL     OW 6376   1.937   2.207   3.757
 2125SOL    HW1 6377   1.845   2.179   3.728
 2125SOL    HW2 6378   1.968   2.284   3.701
 2126SOL     OW 6379   1.934   2.028   4.042
 2126SOL    HW1 6380   1.917   2.111   3.988
 2126SOL    HW2 6381   2.024   1.991   4.020
 2127SOL     OW 6382   3.045   3.197   3.843
 2127SOL    HW1 6383   2.946   3.186   3.845
 2127SOL    HW2 6384   3.079   3.212   3.936
 2128SOL     OW 6385   3.087   2.187   4.173
 2128SOL    HW1 6386   3.152   2.113   4.162
 2128SOL    HW2 6387   3.107   2.237   4.257
 2129SOL     OW 6388   2.456   2.607   4.376
 2129SOL    HW1 6389   2.506   2.692   4.357
 2129SOL    HW2 6390   2.368   2.609   4.328
 2130SOL     OW 6391   2.721   3.236   3.740
 2130SOL    HW1 6392   2.675   3.251   3.828
 2130SOL    HW2 6393   2.765   3.321   3.710
 2131SOL     OW 6394   2.945   2.846   3.811
 2131SOL    HW1 6395   2.922   2.899   3.729
 2131SOL    HW2 6396   3.026   2.790   3.792
 2132SOL     OW 6397   2.290   2.286   4.244
 2132SOL    HW1 6398   2.320   2.214   4.182
 2132SOL    HW2 6399   2.251   2.246   4.327
 2133SOL     OW 6400   2.632   3.192   4.025
 2133SOL    HW1 6401   2.586   3.105   4.042
 2133SOL    HW2 6402   2.723   3.189   4.066
 2134SOL     OW 6403   3.214   1.914   3.892
 2134SOL    HW1 6404   3.249   1.873   3.808
 2134SOL    HW2 6405   3.124   1.876   3.912
 2135SOL     OW 6406   1.901   2.939   4.024
 2135SOL    HW1 6407   2.000   2.928   4.015
 2135SOL    HW2 6408   1.861   2.853   4.056
 2136SOL     OW 6409   2.737   3.508   4.061
 2136SOL    HW1 6410   2.660   3.473   4.007
 2136SOL    HW2 6411   2.705   3.579   4.123
 2137SOL     OW 6412   2.087   3.999   0.996
 2137SOL    HW1 6413   2.122   3.982   1.088
 2137SOL    HW2 6414   1.999   3.954   0.984
 2138SOL     OW 6415   1.881   4.092   0.647
 2138SOL    HW1 6416   1.799   4.135   0.686
 2138SOL    HW2 6417   1.853   4.019   0.584
 2139SOL     OW 6418   3.617   4.331   0.231
 2139SOL    HW1 6419   3.605   4.318   0.132
 2139SOL    HW2 6420   3.587   4.250   0.280
 2140SOL     OW 6421   2.300   4.116   1.499
 2140SOL    HW1 6422   2.382   4.060   1.508
 2140SOL    HW2 6423   2.219   4.058   1.503
 2141SOL     OW 6424   3.465   4.171   0.737
 2141SOL    HW1 6425   3.391   4.217   0.687
 2141SOL    HW2 6426   3.516   4.239   0.790
 2142SOL     OW 6427   3.456   3.838   1.480
 2142SOL    HW1 6428   3.438   3.905   1.408
 2142SOL    HW2 6429   3.453   3.884   1.569
 2143SOL     OW 6430   1.984   4.367   0.563
 2143SOL    HW1 6431   1.939   4.279   0.580
 2143SOL    HW2 6432   1.983   4.421   0.647
 2144SOL     OW 6433   2.671   3.728   0.502
 2144SOL    HW1 6434   2.711   3.819   0.493
 2144SOL    HW2 6435   2.571   3.736   0.508
 2145SOL     OW 6436   2.179   3.975   1.801
 2145SOL    HW1 6437   2.250   4.046   1.807
 2145SOL    HW2 6438   2.091   4.014   1.829
 2146SOL     OW 6439   3.143   4.069   0.944
 2146SOL    HW1 6440   3.057   4.019   0.931
 2146SOL    HW2 6441   3.205   4.015   1.000
 2147SOL     OW 6442   2.669   4.329   1.465
 2147SOL    HW1 6443   2.622   4.326   1.554
 2147SOL    HW2 6444   2.618   4.274   1.399
 2148SOL     OW 6445   3.256   4.193   1.674
 2148SOL    HW1 6446   3.236   4.236   1.762
 2148SOL    HW2 6447   3.334   4.131   1.683
 2149SOL     OW 6448   2.853   4.134   1.242
 2149SOL    HW1 6449   2.776   4.168   1.296
 2149SOL    HW2 6450   2.819   4.083   1.163
 2150SOL     OW 6451   2.903   4.425   0.429
 2150SOL    HW1 6452   2.929   4.421   0.525
 2150SOL    HW2 6453   2.818   4.374   0.415
 2151SOL     OW 6454   1.938   4.535   0.789
 2151SOL    HW1 6455   2.037   4.523   0.798
 2151SOL    HW2 6456   1.914   4.630   0.810
 2152SOL     OW 6457   2.727   4.072   0.195
 2152SOL    HW1 6458   2.786   4.135   0.146
 2152SOL    HW2 6459   2.746   3.978   0.166
 2153SOL     OW 6460   3.581   4.309   1.831
 2153SOL    HW1 6461   3.555   4.398   1.795
 2153SOL    HW2 6462   3.579   4.241   1.758
 2154SOL     OW 6463   2.412   3.920   0.885
 2154SOL    HW1 6464   2.407   3.915   0.985
 2154SOL    HW2 6465   2.414   4.016   0.856
 2155SOL     OW 6466   3.320   4.459   0.728
 2155SOL    HW1 6467   3.315   4.394   0.803
 2155SOL    HW2 6468   3.400   4.518   0.741
 2156SOL     OW 6469   2.064   4.009   1.498
 2156SOL    HW1 6470   1.984   4.069   1.485
 2156SOL    HW2 6471   2.054   3.960   1.584
 2157SOL     OW 6472   3.262   3.831   0.426
 2157SOL    HW1 6473   3.238   3.794   0.336
 2157SOL    HW2 6474   3.361   3.847   0.430
 2158SOL     OW 6475   3.409   3.946   1.729
 2158SOL    HW1 6476   3.404   3.983   1.821
 2158SOL    HW2 6477   3.337   3.877   1.717
 2159SOL     OW 6478   2.476   3.846   0.117
 2159SOL    HW1 6479   2.574   3.824   0.124
 2159SOL    HW2 6480   2.445   3.829   0.024
 2160SOL     OW 6481   2.643   3.988   1.749
 2160SOL    HW1 6482   2.710   3.927   1.792
 2160SOL    HW2 6483   2.570   4.007   1.814
 2161SOL     OW 6484   3.213   4.314   1.433
 2161SOL    HW1 6485   3.241   4.271   1.518
 2161SOL    HW2 6486   3.238   4.410   1.434
 2162SOL     OW 6487   2.401   3.788   0.512
 2162SOL    HW1 6488   2.320   3.789   0.570
 2162SOL    HW2 6489   2.404   3.871   0.457
 2163SOL     OW 6490   2.159   3.759   0.171
 2163SOL    HW1 6491   2.208   3.843   0.150
 2163SOL    HW2 6492   2.221   3.694   0.216
 2164SOL     OW 6493   2.797   3.960   0.480
 2164SOL    HW1 6494   2.749   4.001   0.402
 2164SOL    HW2 6495   2.896   3.958   0.461
 2165SOL     OW 6496   1.940   4.280   1.386
 2165SOL    HW1 6497   2.032   4.279   1.345
 2165SOL    HW2 6498   1.934   4.354   1.453
 2166SOL     OW 6499   2.423   3.946   1.147
 2166SOL    HW1 6500   2.461   3.862   1.184
 2166SOL    HW2 6501   2.335   3.965   1.191
 2167SOL     OW 6502   2.879   3.763   0.753
 2167SOL    HW1 6503   2.807   3.768   0.684
 2167SOL    HW2 6504   2.855   3.694   0.822
 2168SOL     OW 6505   3.328   4.314   0.992
 2168SOL    HW1 6506   3.298   4.219   0.999
 2168SOL    HW2 6507   3.401   4.330   1.058
 2169SOL     OW 6508   2.389   3.980   0.328
 2169SOL    HW1 6509   2.416   3.921   0.253
 2169SOL    HW2 6510   2.389   4.075   0.297
 2170SOL     OW 6511   2.777   3.813   1.402
 2170SOL    HW1 6512   2.802   3.793   1.307
 2170SOL    HW2 6513   2.849   3.869   1.444
 2171SOL     OW 6514   3.136   4.110   1.262
 2171SOL    HW1 6515   3.157   4.184   1.326
 2171SOL    HW2 6516   3.047   4.127   1.219
 2172SOL     OW 6517   2.428   4.261   0.865
 2172SOL    HW1 6518   2.440   4.327   0.791
 2172SOL    HW2 6519   2.474   4.295   0.948
 2173SOL     OW 6520   2.875   3.829   1.770
 2173SOL    HW1 6521   2.881   3.914   1.718
 2173SOL    HW2 6522   2.907   3.753   1.713
 2174SOL     OW 6523   2.366   3.774   1.740
 2174SOL    HW1 6524   2.324   3.717   1.670
 2174SOL    HW2 6525   2.300   3.843   1.772
 2175SOL     OW 6526   3.071   4.249   0.275
 2175SOL    HW1 6527   3.084   4.165   0.329
 2175SOL    HW2 6528   3.042   4.323   0.335
 2176SOL     OW 6529   2.169   3.937   1.231
 2176SOL    HW1 6530   2.146   3.974   1.321
 2176SOL    HW2 6531   2.139   3.842   1.225
 2177SOL     OW 6532   2.594   4.358   1.064
 2177SOL    HW1 6533   2.653   4.332   0.988
 2177SOL    HW2 6534   2.566   4.454   1.053
 2178SOL     OW 6535   2.169   3.787   0.618
 2178SOL    HW1 6536   2.158   3.881   0.651
 2178SOL    HW2 6537   2.164   3.724   0.695
 2179SOL     OW 6538   3.484   4.091   0.374
 2179SOL    HW1 6539   3.486   4.015   0.438
 2179SOL    HW2 6540   3.436   4.168   0.414
 2180SOL     OW 6541   3.402   3.998   0.125
 2180SOL    HW1 6542   3.341   3.923   0.148
 2180SOL    HW2 6543   3.424   4.050   0.208
 2181SOL     OW 6544   2.201   4.233   1.006
 2181SOL    HW1 6545   2.149   4.150   0.989
 2181SOL    HW2 6546   2.278   4.238   0.942
 2182SOL     OW 6547   3.000   4.104   1.678
 2182SOL    HW1 6548   2.955   4.167   1.742
 2182SOL    HW2 6549   3.093   4.135   1.661
 2183SOL     OW 6550   3.022   3.931   1.477
 2183SOL    HW1 6551   3.022   3.995   1.554
 2183SOL    HW2 6552   3.050   3.979   1.394
 2184SOL     OW 6553   1.902   4.268   1.114
 2184SOL    HW1 6554   1.987   4.235   1.073
 2184SOL    HW2 6555   1.915   4.283   1.212
 2185SOL     OW 6556   2.051   4.244   1.722
 2185SOL    HW1 6557   2.110   4.204   1.652
 2185SOL    HW2 6558   1.993   4.315   1.681
 2186SOL     OW 6559   2.677   4.296   0.325
 2186SOL    HW1 6560   2.684   4.207   0.279
 2186SOL    HW2 6561   2.583   4.330   0.317
 2187SOL     OW 6562   3.519   4.328   1.206
 2187SOL    HW1 6563   3.481   4.259   1.268
 2187SOL    HW2 6564   3.601   4.292   1.162
 2188SOL     OW 6565   2.533   4.188   1.269
 2188SOL    HW1 6566   2.499   4.099   1.239
 2188SOL    HW2 6567   2.559   4.242   1.189
 2189SOL     OW 6568   2.765   3.810   0.133
 2189SOL    HW1 6569   2.816   3.811   0.047
 2189SOL    HW2 6570   2.821   3.768   0.204
 2190SOL     OW 6571   3.588   3.859   0.523
 2190SOL    HW1 6572   3.661   3.842   0.456
 2190SOL    HW2 6573   3.557   3.772   0.561
 2191SOL     OW 6574   3.703   3.899   0.963
 2191SOL    HW1 6575   3.742   3.814   0.927
 2191SOL    HW2 6576   3.605   3.901   0.944
 2192SOL     OW 6577   2.125   4.050   0.720
 2192SOL    HW1 6578   2.046   4.101   0.686
 2192SOL    HW2 6579   2.116   4.035   0.818
 2193SOL     OW 6580   2.876   3.960   0.971
 2193SOL    HW1 6581   2.868   3.924   0.878
 2193SOL    HW2 6582   2.874   3.884   1.036
 2194SOL     OW 6583   3.571   4.109   1.381
 2194SOL    HW1 6584   3.644   4.178   1.385
 2194SOL    HW2 6585   3.599   4.034   1.322
 2195SOL     OW 6586   2.534   3.927   1.489
 2195SOL    HW1 6587   2.624   3.911   1.449
 2195SOL    HW2 6588   2.542   3.932   1.588
 2196SOL     OW 6589   1.937   4.069   0.033
 2196SOL    HW1 6590   1.845   4.041   0.004
 2196SOL    HW2 6591   1.968   4.146  -0.023
 2197SOL     OW 6592   1.934   3.890   0.318
 2197SOL    HW1 6593   1.917   3.973   0.264
 2197SOL    HW2 6594   2.024   3.853   0.296
 2198SOL     OW 6595   2.578   4.289   1.708
 2198SOL    HW1 6596   2.597   4.354   1.782
 2198SOL    HW2 6597   2.638   4.209   1.717
 2199SOL     OW 6598   3.087   4.049   0.449
 2199SOL    HW1 6599   3.152   3.975   0.438
 2199SOL    HW2 6600   3.107   4.099   0.533
 2200SOL     OW 6601   3.639   4.066   1.642
 2200SOL    HW1 6602   3.622   4.097   1.548
 2200SOL    HW2 6603   3.555   4.029   1.680
 2201SOL     OW 6604   3.686   3.916   1.227
 2201SOL    HW1 6605   3.682   3.826   1.271
 2201SOL    HW2 6606   3.689   3.905   1.128
 2202SOL     OW 6607   2.290   4.148   0.520
 2202SOL    HW1 6608   2.320   4.076   0.458
 2202SOL    HW2 6609   2.251   4.108   0.603
 2203SOL     OW 6610   2.179   4.271   1.280
 2203SOL    HW1 6611   2.217   4.212   1.352
 2203SOL    HW2 6612   2.219   4.245   1.192
 2204SOL     OW 6613   3.286   3.938   1.112
 2204SOL    HW1 6614   3.338   3.873   1.167
 2204SOL    HW2 6615   3.237   4.001   1.173
 2205SOL     OW 6616   2.863   3.758   1.154
 2205SOL    HW1 6617   2.800   3.686   1.123
 2205SOL    HW2 6618   2.956   3.722   1.154
 2206SOL     OW 6619   3.214   3.776   0.168
 2206SOL    HW1 6620   3.249   3.735   0.084
 2206SOL    HW2 6621   3.124   3.738   0.188
 2207SOL     OW 6622   3.162   4.177   0.691
 2207SOL    HW1 6623   3.103   4.257   0.695
 2207SOL    HW2 6624   3.177   4.142   0.784
 2208SOL     OW 6625   3.455   3.945   0.882
 2208SOL    HW1 6626   3.371   3.944   0.936
 2208SOL    HW2 6627   3.457   4.028   0.826
 2209SOL     OW 6628   2.087   3.999   2.858
 2209SOL    HW1 6629   2.122   3.982   2.950
 2209SOL    HW2 6630   1.999   3.954   2.846
 2210SOL     OW 6631   1.881   4.092   2.509
 2210SOL    HW1 6632   1.799   4.135   2.548
 2210SOL    HW2 6633   1.853   4.019   2.446
 2211SOL     OW 6634   3.617   4.331   2.093
 2211SOL    HW1 6635   3.605   4.318   1.994
 2211SOL    HW2 6636   3.587   4.250   2.142
 2212SOL     OW 6637   2.300   4.116   3.361
 2212SOL    HW1 6638   2.382   4.060   3.370
 2212SOL    HW2 6639   2.219   4.058   3.365
 2213SOL     OW 6640   3.465   4.171   2.599
 2213SOL    HW1 6641   3.391   4.217   2.549
 2213SOL    HW2 6642   3.516   4.239   2.652
 2214SOL     OW 6643   3.456   3.838   3.342
 2214SOL    HW1 6644   3.438   3.905   3.270
 2214SOL    HW2 6645   3.453   3.884   3.431
 2215SOL     OW 6646   1.984   4.367   2.425
 2215SOL    HW1 6647   1.939   4.279   2.442
 2215SOL    HW2 6648   1.983   4.421   2.509
 2216SOL     OW 6649   2.671   3.728   2.364
 2216SOL    HW1 6650   2.711   3.819   2.355
 2216SOL    HW2 6651   2.571   3.736   2.370
 2217SOL     OW 6652   2.179   3.975   3.663
 2217SOL    HW1 6653   2.250   4.046   3.669
 2217SOL    HW2 6654   2.091   4.014   3.691
 2218SOL     OW 6655   3.143   4.069   2.806
 2218SOL    HW1 6656   3.057   4.019   2.793
 2218SOL    HW2 6657   3.205   4.015   2.862
 2219SOL     OW 6658   2.669   4.329   3.327
 2219SOL    HW1 6659   2.622   4.326   3.416
 2219SOL    HW2 6660   2.618   4.274   3.261
 2220SOL     OW 6661   3.256   4.193   3.536
 2220SOL    HW1 6662   3.236   4.236   3.624
 2220SOL    HW2 6663   3.334   4.131   3.545
 2221SOL     OW 6664   2.853   4.134   3.104
 2221SOL    HW1 6665   2.776   4.168   3.158
 2221SOL    HW2 6666   2.819   4.083   3.025
 2222SOL     OW 6667   2.903   4.425   2.291
 2222SOL    HW1 6668   2.929   4.421   2.387
 2222SOL    HW2 6669   2.818   4.374   2.277
 2223SOL     OW 6670   1.938   4.535   2.651
 2223SOL    HW1 6671   2.037   4.523   2.660
 2223SOL    HW2 6672   1.914   4.630   2.672
 2224SOL     OW 6673   2.727   4.072   2.057
 2224SOL    HW1 6674   2.786   4.135   2.008
 2224SOL    HW2 6675   2.746   3.978   2.028
 2225SOL     OW 6676   3.581   4.309   3.693
 2225SOL    HW1 6677   3.555   4.398   3.657
 2225SOL    HW2 6678   3.579   4.241   3.620
 2226SOL     OW 6679   2.412   3.920   2.747
 2226SOL    HW1 6680   2.407   3.915   2.847
 2226SOL    HW2 6681   2.414   4.016   2.718
 2227SOL     OW 6682   3.320   4.459   2.590
 2227SOL    HW1 6683   3.315   4.394   2.665
 2227SOL    HW2 6684   3.400   4.518   2.603
 2228SOL     OW 6685   2.064   4.009   3.360
 2228SOL    HW1 6686   1.984   4.069   3.347
 2228SOL    HW2 6687   2.054   3.960   3.446
 2229SOL     OW 6688   3.262   3.831   2.288
 2229SOL    HW1 6689   3.238   3.794   2.198
 2229SOL    HW2 6690   3.361   3.847   2.292
 2230SOL     OW 6691   3.409   3.946   3.591
 2230SOL    HW1 6692   3.404   3.983   3.683
 2230SOL    HW2 6693   3.337   3.877   3.579
 2231SOL     OW 6694   2.476   3.846   1.979
 2231SOL    HW1 6695   2.574   3.824   1.986
 2231SOL    HW2 6696   2.445   3.829   1.886
 2232SOL     OW 6697   2.643   3.988   3.611
 2232SOL    HW1 6698   2.710   3.927   3.654
 2232SOL    HW2 6699   2.570   4.007   3.676
 2233SOL     OW 6700   3.213   4.314   3.295
 2233SOL    HW1 6701   3.241   4.271   3.380
 2233SOL    HW2 6702   3.238   4.410   3.296
 2234SOL     OW 6703   2.401   3.788   2.374
 2234SOL    HW1 6704   2.320   3.789   2.432
 2234SOL    HW2 6705   2.404   3.871   2.319
 2235SOL     OW 6706   2.159   3.759   2.033
 2235SOL    HW1 6707   2.208   3.843   2.012
 2235SOL    HW2 6708   2.221   3.694   2.078
 2236SOL     OW 6709   2.797   3.960   2.342
 2236SOL    HW1 6710   2.749   4.001   2.264
 2236SOL    HW2 6711   2.896   3.958   2.323
 2237SOL     OW 6712   1.940   4.280   3.248
 2237SOL    HW1 6713   2.032   4.279   3.207
 2237SOL    HW2 6714   1.934   4.354   3.315
 2238SOL     OW 6715   2.423   3.946   3.009
 2238SOL    HW1 6716   2.461   3.862   3.046
 2238SOL    HW2 6717   2.335   3.965   3.053
 2239SOL     OW 6718   2.879   3.763   2.615
 2239SOL    HW1 6719   2.807   3.768   2.546
 2239SOL    HW2 6720   2.855   3.694   2.684
 2240SOL     OW 6721   3.328   4.314   2.854
 2240SOL    HW1 6722   3.298   4.219   2.861
 2240SOL    HW2 6723   3.401   4.330   2.920
 2241SOL     OW 6724   2.389   3.980   2.190
 2241SOL    HW1 6725   2.416   3.921   2.115
 2241SOL    HW2 6726   2.389   4.075   2.159
 2242SOL     OW 6727   2.777   3.813   3.264
 2242SOL    HW1 6728   2.802   3.793   3.169
 2242SOL    HW2 6729   2.849   3.869   3.306
 2243SOL     OW 6730   3.136   4.110   3.124
 2243SOL    HW1 6731   3.157   4.184   3.188
 2243SOL    HW2 6732   3.047   4.127   3.081
 2244SOL     OW 6733   2.428   4.261   2.727
 2244SOL    HW1 6734   2.440   4.327   2.653
 2244SOL    HW2 6735   2.474   4.295   2.810
 2245SOL     OW 6736   2.875   3.829   3.632
 2245SOL    HW1 6737   2.881   3.914   3.580
 2245SOL    HW2 6738   2.907   3.753   3.575
 2246SOL     OW 6739   2.366   3.774   3.602
 2246SOL    HW1 6740   2.324   3.717   3.532
 2246SOL    HW2 6741   2.300   3.843   3.634
 2247SOL     OW 6742   3.071   4.249   2.137
 2247SOL    HW1 6743   3.084   4.165   2.191
 2247SOL    HW2 6744   3.042   4.323   2.197
 2248SOL     OW 6745   2.169   3.937   3.093
 2248SOL    HW1 6746   2.146   3.974   3.183
 2248SOL    HW2 6747   2.139   3.842   3.087
 2249SOL     OW 6748   2.594   4.358   2.926
 2249SOL    HW1 6749   2.653   4.332   2.850
 2249SOL    HW2 6750   2.566   4.454   2.915
 2250SOL     OW 6751   2.169   3.787   2.480
 2250SOL    HW1 6752   2.158   3.881   2.513
 2250SOL    HW2 6753   2.164   3.724   2.557
 2251SOL     OW 6754   3.484   4.091   2.236
 2251SOL    HW1 6755   3.486   4.015   2.300
 2251SOL    HW2 6756   3.436   4.168   2.276
 2252SOL     OW 6757   3.402   3.998   1.987
 2252SOL    HW1 6758   3.341   3.923   2.010
 2252SOL    HW2 6759   3.424   4.050   2.070
 2253SOL     OW 6760   2.201   4.233   2.868
 2253SOL    HW1 6761   2.149   4.150   2.851
 2253SOL    HW2 6762   2.278   4.238   2.804
 2254SOL     OW 6763   3.000   4.104   3.540
 2254SOL    HW1 6764   2.955   4.167   3.604
 2254SOL    HW2 6765   3.093   4.135   3.523
 2255SOL     OW 6766   3.022   3.931   3.339
 2255SOL    HW1 6767   3.022   3.995   3.416
 2255SOL    HW2 6768   3.050   3.979   3.256
 2256SOL     OW 6769   1.902   4.268   2.976
 2256SOL    HW1 6770   1.987   4.235   2.935
 2256SOL    HW2 6771   1.915   4.283   3.074
 2257SOL     OW 6772   2.051   4.244   3.584
 2257SOL    HW1 6773   2.110   4.204   3.514
 2257SOL    HW2 6774   1.993   4.315   3.543
 2258SOL     OW 6775   2.677   4.296   2.187
 2258SOL    HW1 6776   2.684   4.207   2.141
 2258SOL    HW2 6777   2.583   4.330   2.179
 2259SOL     OW 6778   3.519   4.328   3.068
 2259SOL    HW1 6779   3.481   4.259   3.130
 2259SOL    HW2 6780   3.601   4.292   3.024
 2260SOL     OW 6781   2.533   4.188   3.131
 2260SOL    HW1 6782   2.499   4.099   3.101
 2260SOL    HW2 6783   2.559   4.242   3.051
 2261SOL     OW 6784   3.588   3.859   2.385
 2261SOL    HW1 6785   3.661   3.842   2.318
 2261SOL    HW2 6786   3.557   3.772   2.423
 2262SOL     OW 6787   3.703   3.899   2.825
 2262SOL    HW1 6788   3.742   3.814   2.789
 2262SOL    HW2 6789   3.605   3.901   2.806
 2263SOL     OW 6790   2.125   4.050   2.582
 2263SOL    HW1 6791   2.046   4.101   2.548
 2263SOL    HW2 6792   2.116   4.035   2.680
 2264SOL     OW 6793   2.876   3.960   2.833
 2264SOL    HW1 6794   2.868   3.924   2.740
 2264SOL    HW2 6795   2.874   3.884   2.898
 2265SOL     OW 6796   3.571   4.109   3.243
 2265SOL    HW1 6797   3.644   4.178   3.247
 2265SOL    HW2 6798   3.599   4.034   3.184
 2266SOL     OW 6799   2.534   3.927   3.351
 2266SOL    HW1 6800   2.624   3.911   3.311
 2266SOL    HW2 6801   2.542   3.932   3.450
 2267SOL     OW 6802   1.937   4.069   1.895
 2267SOL    HW1 6803   1.845   4.041   1.866
 2267SOL    HW2 6804   1.968   4.146   1.839
 2268SOL     OW 6805   1.934   3.890   2.180
 2268SOL    HW1 6806   1.917   3.973   2.126
 2268SOL    HW2 6807   2.024   3.853   2.158
 2269SOL     OW 6808   2.578   4.289   3.570
 2269SOL    HW1 6809   2.597   4.354   3.644
 2269SOL    HW2 6810   2.638   4.209   3.579
 2270SOL     OW 6811   3.087   4.049   2.311
 2270SOL    HW1 6812   3.152   3.975   2.300
 2270SOL    HW2 6813   3.107   4.099   2.395
 2271SOL     OW 6814   3.639   4.066   3.504
 2271SOL    HW1 6815   3.622   4.097   3.410
 2271SOL    HW2 6816   3.555   4.029   3.542
 2272SOL     OW 6817   3.686   3.916   3.089
 2272SOL    HW1 6818   3.682   3.826   3.133
 2272SOL    HW2 6819   3.689   3.905   2.990
 2273SOL     OW 6820   2.290   4.148   2.382
 2273SOL    HW1 6821   2.320   4.076   2.320
 2273SOL    HW2 6822   2.251   4.108   2.465
 2274SOL     OW 6823   2.179   4.271   3.142
 2274SOL    HW1 6824   2.217   4.212   3.214
 2274SOL    HW2 6825   2.219   4.245   3.054
 2275SOL     OW 6826   3.286   3.938   2.974
 2275SOL    HW1 6827   3.338   3.873   3.029
 2275SOL    HW2 6828   3.237   4.001   3.035
 2276SOL     OW 6829   2.863   3.758   3.016
 2276SOL    HW1 6830   2.800   3.686   2.985
 2276SOL    HW2 6831   2.956   3.722   3.016
 2277SOL     OW 6832   3.214   3.776   2.030
 2277SOL    HW1 6833   3.249   3.735   1.946
 2277SOL    HW2 6834   3.124   3.738   2.050
 2278SOL     OW 6835   3.162   4.177   2.553
 2278SOL    HW1 6836   3.103   4.257   2.557
 2278SOL    HW2 6837   3.177   4.142   2.646
 2279SOL     OW 6838   3.455   3.945   2.744
 2279SOL    HW1 6839   3.371   3.944   2.798
 2279SOL    HW2 6840   3.457   4.028   2.688
 2280SOL     OW 6841   3.617   4.331   3.955
 2280SOL    HW1 6842   3.605   4.318   3.856
 2280SOL    HW2 6843   3.587   4.250   4.004
 2281SOL     OW 6844   1.984   4.367   4.287
 2281SOL    HW1 6845   1.939   4.279   4.304
 2281SOL    HW2 6846   1.983   4.421   4.371
 2282SOL     OW 6847   2.671   3.728   4.226
 2282SOL    HW1 6848   2.711   3.819   4.217
 2282SOL    HW2 6849   2.571   3.736   4.232
 2283SOL     OW 6850   2.903   4.425   4.153
 2283SOL    HW1 6851   2.929   4.421   4.249
 2283SOL    HW2 6852   2.818   4.374   4.139
 2284SOL     OW 6853   2.727   4.072   3.919
 2284SOL    HW1 6854   2.786   4.135   3.870
 2284SOL    HW2 6855   2.746   3.978   3.890
 2285SOL     OW 6856   3.262   3.831   4.150
 2285SOL    HW1 6857   3.238   3.794   4.060
 2285SOL    HW2 6858   3.361   3.847   4.154
 2286SOL     OW 6859   2.476   3.846   3.841
 2286SOL    HW1 6860   2.574   3.824   3.848
 2286SOL    HW2 6861   2.445   3.829   3.748
 2287SOL     OW 6862   2.401   3.788   4.236
 2287SOL    HW1 6863   2.320   3.789   4.294
 2287SOL    HW2 6864   2.404   3.871   4.181
 2288SOL     OW 6865   2.159   3.759   3.895
 2288SOL    HW1 6866   2.208   3.843   3.874
 2288SOL    HW2 6867   2.221   3.694   3.940
 2289SOL     OW 6868   2.797   3.960   4.204
 2289SOL    HW1 6869   2.749   4.001   4.126
 2289SOL    HW2 6870   2.896   3.958   4.185
 2290SOL     OW 6871   2.389   3.980   4.052
 2290SOL    HW1 6872   2.416   3.921   3.977
 2290SOL    HW2 6873   2.389   4.075   4.021
 2291SOL     OW 6874   3.071   4.249   3.999
 2291SOL    HW1 6875   3.084   4.165   4.053
 2291SOL    HW2 6876   3.042   4.323   4.059
 2292SOL     OW 6877   3.484   4.091   4.098
 2292SOL    HW1 6878   3.486   4.015   4.162
 2292SOL    HW2 6879   3.436   4.168   4.138
 2293SOL     OW 6880   3.402   3.998   3.849
 2293SOL    HW1 6881   3.341   3.923   3.872
 2293SOL    HW2 6882   3.424   4.050   3.932
 2294SOL     OW 6883   2.677   4.296   4.049
 2294SOL    HW1 6884   2.684   4.207   4.003
 2294SOL    HW2 6885   2.583   4.330   4.041
 2295SOL     OW 6886   3.588   3.859   4.247
 2295SOL    HW1 6887   3.661   3.842   4.180
 2295SOL    HW2 6888   3.557   3.772   4.285
 2296SOL     OW 6889   1.937   4.069   3.757
 2296SOL    HW1 6890   1.845   4.041   3.728
 2296SOL    HW2 6891   1.968   4.146   3.701
 2297SOL     OW 6892   1.934   3.890   4.042
 2297SOL    HW1 6893   1.917   3.973   3.988
 2297SOL    HW2 6894   2.024   3.853   4.020
 2298SOL     OW 6895   3.087   4.049   4.173
 2298SOL    HW1 6896   3.152   3.975   4.162
 2298SOL    HW2 6897   3.107   4.099   4.257
 2299SOL     OW 6898   2.290   4.148   4.244
 2299SOL    HW1 6899   2.320   4.076   4.182
 2299SOL    HW2 6900   2.251   4.108   4.327
 2300SOL     OW 6901   3.214   3.776   3.892
 2300SOL    HW1 6902   3.249   3.735   3.808
 2300SOL    HW2 6903   3.124   3.738   3.912
 2301SOL     OW 6904   3.162   4.177   4.415
 2301SOL    HW1 6905   3.103   4.257   4.419
 2301SOL    HW2 6906   3.177   4.142   4.508
 2302SOL     OW 6907   3.954   0.628   0.113
 2302SOL    HW1 6908   3.861   0.626   0.150
 2302SOL    HW2 6909   3.955   0.589   0.021
 2303SOL     OW 6910   3.949   0.275   0.996
 2303SOL    HW1 6911   3.984   0.258   1.088
 2303SOL    HW2 6912   3.861   0.230   0.984
 2304SOL     OW 6913   3.743   0.368   0.647
 2304SOL    HW1 6914   3.661   0.411   0.686
 2304SOL    HW2 6915   3.715   0.295   0.584
 2305SOL     OW 6916   4.574   0.798   1.823
 2305SOL    HW1 6917   4.570   0.874   1.888
 2305SOL    HW2 6918   4.596   0.834   1.732
 2306SOL     OW 6919   4.059   1.435   1.061
 2306SOL    HW1 6920   3.981   1.404   1.008
 2306SOL    HW2 6921   4.117   1.493   1.004
 2307SOL     OW 6922   4.162   0.392   1.499
 2307SOL    HW1 6923   4.244   0.336   1.508
 2307SOL    HW2 6924   4.081   0.334   1.503
 2308SOL     OW 6925   3.955   1.713   0.483
 2308SOL    HW1 6926   3.989   1.790   0.537
 2308SOL    HW2 6927   3.999   1.713   0.393
 2309SOL     OW 6928   3.954   1.434   0.538
 2309SOL    HW1 6929   3.928   1.530   0.538
 2309SOL    HW2 6930   3.883   1.380   0.583
 2310SOL     OW 6931   3.964   1.091   0.886
 2310SOL    HW1 6932   3.978   1.007   0.938
 2310SOL    HW2 6933   3.909   1.155   0.941
 2311SOL     OW 6934   3.846   0.643   0.563
 2311SOL    HW1 6935   3.801   0.555   0.580
 2311SOL    HW2 6936   3.845   0.697   0.647
 2312SOL     OW 6937   3.751   1.596   0.117
 2312SOL    HW1 6938   3.732   1.500   0.138
 2312SOL    HW2 6939   3.718   1.654   0.192
 2313SOL     OW 6940   3.837   0.737   1.597
 2313SOL    HW1 6941   3.925   0.724   1.642
 2313SOL    HW2 6942   3.824   0.834   1.575
 2314SOL     OW 6943   4.337   1.365   0.726
 2314SOL    HW1 6944   4.288   1.278   0.735
 2314SOL    HW2 6945   4.314   1.408   0.639
 2315SOL     OW 6946   3.921   0.976   1.264
 2315SOL    HW1 6947   4.010   0.931   1.250
 2315SOL    HW2 6948   3.848   0.911   1.245
 2316SOL     OW 6949   4.041   0.251   1.801
 2316SOL    HW1 6950   4.112   0.322   1.807
 2316SOL    HW2 6951   3.953   0.290   1.829
 2317SOL     OW 6952   3.800   0.811   0.789
 2317SOL    HW1 6953   3.899   0.799   0.798
 2317SOL    HW2 6954   3.776   0.906   0.810
 2318SOL     OW 6955   3.854   1.821   1.571
 2318SOL    HW1 6956   3.844   1.806   1.670
 2318SOL    HW2 6957   3.768   1.857   1.535
 2319SOL     OW 6958   4.589   0.348   0.195
 2319SOL    HW1 6959   4.648   0.411   0.146
 2319SOL    HW2 6960   4.608   0.254   0.166
 2320SOL     OW 6961   4.274   0.196   0.885
 2320SOL    HW1 6962   4.269   0.191   0.985
 2320SOL    HW2 6963   4.276   0.292   0.856
 2321SOL     OW 6964   4.075   1.801   0.853
 2321SOL    HW1 6965   4.125   1.715   0.859
 2321SOL    HW2 6966   4.140   1.878   0.850
 2322SOL     OW 6967   4.045   0.943   0.242
 2322SOL    HW1 6968   4.127   0.982   0.200
 2322SOL    HW2 6969   4.018   0.861   0.193
 2323SOL     OW 6970   4.185   1.266   1.727
 2323SOL    HW1 6971   4.135   1.267   1.641
 2323SOL    HW2 6972   4.122   1.248   1.803
 2324SOL     OW 6973   3.926   0.285   1.498
 2324SOL    HW1 6974   3.846   0.345   1.485
 2324SOL    HW2 6975   3.916   0.236   1.584
 2325SOL     OW 6976   4.188   1.743   0.323
 2325SOL    HW1 6977   4.221   1.782   0.409
 2325SOL    HW2 6978   4.264   1.736   0.258
 2326SOL     OW 6979   3.973   1.785   1.241
 2326SOL    HW1 6980   4.030   1.720   1.291
 2326SOL    HW2 6981   3.957   1.752   1.148
 2327SOL     OW 6982   4.106   0.700   0.480
 2327SOL    HW1 6983   4.151   0.610   0.477
 2327SOL    HW2 6984   4.012   0.689   0.513
 2328SOL     OW 6985   4.338   0.122   0.117
 2328SOL    HW1 6986   4.436   0.100   0.124
 2328SOL    HW2 6987   4.307   0.105   0.024
 2329SOL     OW 6988   4.263   0.064   0.512
 2329SOL    HW1 6989   4.182   0.065   0.570
 2329SOL    HW2 6990   4.266   0.147   0.457
 2330SOL     OW 6991   4.021   0.035   0.171
 2330SOL    HW1 6992   4.070   0.119   0.150
 2330SOL    HW2 6993   4.083  -0.030   0.216
 2331SOL     OW 6994   4.183   1.152   0.741
 2331SOL    HW1 6995   4.112   1.125   0.806
 2331SOL    HW2 6996   4.157   1.124   0.648
 2332SOL     OW 6997   3.802   0.556   1.386
 2332SOL    HW1 6998   3.894   0.555   1.345
 2332SOL    HW2 6999   3.796   0.630   1.453
 2333SOL     OW 7000   4.285   0.222   1.147
 2333SOL    HW1 7001   4.323   0.138   1.184
 2333SOL    HW2 7002   4.197   0.241   1.191
 2334SOL     OW 7003   4.251   0.256   0.328
 2334SOL    HW1 7004   4.278   0.197   0.253
 2334SOL    HW2 7005   4.251   0.351   0.297
 2335SOL     OW 7006   4.704   1.116   1.719
 2335SOL    HW1 7007   4.605   1.122   1.729
 2335SOL    HW2 7008   4.727   1.036   1.663
 2336SOL     OW 7009   4.134   0.813   1.251
 2336SOL    HW1 7010   4.220   0.825   1.301
 2336SOL    HW2 7011   4.092   0.726   1.278
 2337SOL     OW 7012   3.788   1.564   1.331
 2337SOL    HW1 7013   3.742   1.646   1.297
 2337SOL    HW2 7014   3.886   1.583   1.340
 2338SOL     OW 7015   4.091   1.100   0.501
 2338SOL    HW1 7016   4.084   1.183   0.445
 2338SOL    HW2 7017   4.095   1.020   0.441
 2339SOL     OW 7018   4.290   0.537   0.865
 2339SOL    HW1 7019   4.302   0.603   0.791
 2339SOL    HW2 7020   4.336   0.571   0.948
 2340SOL     OW 7021   4.078   1.510   1.329
 2340SOL    HW1 7022   4.057   1.466   1.242
 2340SOL    HW2 7023   4.175   1.536   1.332
 2341SOL     OW 7024   4.126   0.751   1.598
 2341SOL    HW1 7025   4.194   0.806   1.551
 2341SOL    HW2 7026   4.166   0.663   1.625
 2342SOL     OW 7027   4.228   0.050   1.740
 2342SOL    HW1 7028   4.186  -0.007   1.670
 2342SOL    HW2 7029   4.162   0.119   1.772
 2343SOL     OW 7030   4.297   0.870   1.029
 2343SOL    HW1 7031   4.341   0.959   1.020
 2343SOL    HW2 7032   4.234   0.870   1.106
 2344SOL     OW 7033   4.031   0.213   1.231
 2344SOL    HW1 7034   4.008   0.250   1.321
 2344SOL    HW2 7035   4.001   0.118   1.225
 2345SOL     OW 7036   3.761   1.310   1.282
 2345SOL    HW1 7037   3.814   1.261   1.350
 2345SOL    HW2 7038   3.783   1.408   1.287
 2346SOL     OW 7039   4.031   0.063   0.618
 2346SOL    HW1 7040   4.020   0.157   0.651
 2346SOL    HW2 7041   4.026   0.000   0.695
 2347SOL     OW 7042   4.074   0.898   1.804
 2347SOL    HW1 7043   4.150   0.942   1.852
 2347SOL    HW2 7044   4.109   0.851   1.722
 2348SOL     OW 7045   4.043   0.810   0.949
 2348SOL    HW1 7046   4.136   0.846   0.954
 2348SOL    HW2 7047   4.037   0.725   1.001
 2349SOL     OW 7048   4.063   0.509   1.006
 2349SOL    HW1 7049   4.011   0.426   0.989
 2349SOL    HW2 7050   4.140   0.514   0.942
 2350SOL     OW 7051   3.732   1.326   0.200
 2350SOL    HW1 7052   3.639   1.347   0.169
 2350SOL    HW2 7053   3.742   1.227   0.213
 2351SOL     OW 7054   3.812   1.801   0.927
 2351SOL    HW1 7055   3.770   1.715   0.900
 2351SOL    HW2 7056   3.906   1.804   0.893
 2352SOL     OW 7057   4.228   1.568   0.910
 2352SOL    HW1 7058   4.294   1.642   0.919
 2352SOL    HW2 7059   4.272   1.489   0.868
 2353SOL     OW 7060   3.764   0.544   1.114
 2353SOL    HW1 7061   3.849   0.511   1.073
 2353SOL    HW2 7062   3.777   0.559   1.212
 2354SOL     OW 7063   3.913   0.520   1.722
 2354SOL    HW1 7064   3.972   0.480   1.652
 2354SOL    HW2 7065   3.855   0.591   1.681
 2355SOL     OW 7066   4.539   0.572   0.325
 2355SOL    HW1 7067   4.546   0.483   0.279
 2355SOL    HW2 7068   4.445   0.606   0.317
 2356SOL     OW 7069   3.976   1.564   1.744
 2356SOL    HW1 7070   3.946   1.621   1.820
 2356SOL    HW2 7071   3.969   1.467   1.770
 2357SOL     OW 7072   4.197   0.500   0.191
 2357SOL    HW1 7073   4.258   0.580   0.195
 2357SOL    HW2 7074   4.102   0.531   0.198
 2358SOL     OW 7075   3.883   1.137   1.466
 2358SOL    HW1 7076   3.905   1.076   1.542
 2358SOL    HW2 7077   3.893   1.088   1.380
 2359SOL     OW 7078   3.807   1.258   1.022
 2359SOL    HW1 7079   3.802   1.257   1.122
 2359SOL    HW2 7080   3.724   1.217   0.984
 2360SOL     OW 7081   4.412   1.662   1.716
 2360SOL    HW1 7082   4.356   1.743   1.725
 2360SOL    HW2 7083   4.464   1.666   1.630
 2361SOL     OW 7084   3.854   1.794   1.851
 2361SOL    HW1 7085   3.813   1.720   1.904
 2361SOL    HW2 7086   3.918   1.845   1.909
 2362SOL     OW 7087   3.987   0.326   0.720
 2362SOL    HW1 7088   3.908   0.377   0.686
 2362SOL    HW2 7089   3.978   0.311   0.818
 2363SOL     OW 7090   4.096   1.288   1.490
 2363SOL    HW1 7091   4.083   1.381   1.456
 2363SOL    HW2 7092   4.012   1.236   1.477
 2364SOL     OW 7093   4.314   1.487   0.491
 2364SOL    HW1 7094   4.356   1.429   0.421
 2364SOL    HW2 7095   4.270   1.566   0.447
 2365SOL     OW 7096   3.979   1.348   0.290
 2365SOL    HW1 7097   3.883   1.349   0.263
 2365SOL    HW2 7098   3.991   1.401   0.374
 2366SOL     OW 7099   3.829   1.013   1.726
 2366SOL    HW1 7100   3.752   0.980   1.780
 2366SOL    HW2 7101   3.914   0.983   1.768
 2367SOL     OW 7102   3.799   0.345   0.033
 2367SOL    HW1 7103   3.707   0.317   0.004
 2367SOL    HW2 7104   3.830   0.422  -0.023
 2368SOL     OW 7105   3.796   0.166   0.318
 2368SOL    HW1 7106   3.779   0.249   0.264
 2368SOL    HW2 7107   3.886   0.129   0.296
 2369SOL     OW 7108   4.337   0.842   1.431
 2369SOL    HW1 7109   4.393   0.923   1.414
 2369SOL    HW2 7110   4.396   0.762   1.434
 2370SOL     OW 7111   4.114   1.741   1.560
 2370SOL    HW1 7112   4.023   1.782   1.558
 2370SOL    HW2 7113   4.107   1.647   1.592
 2371SOL     OW 7114   4.318   0.745   0.652
 2371SOL    HW1 7115   4.368   0.830   0.633
 2371SOL    HW2 7116   4.230   0.747   0.604
 2372SOL     OW 7117   3.945   1.314   1.844
 2372SOL    HW1 7118   3.880   1.241   1.823
 2372SOL    HW2 7119   3.949   1.328   1.942
 2373SOL     OW 7120   3.803   1.240   0.653
 2373SOL    HW1 7121   3.802   1.193   0.741
 2373SOL    HW2 7122   3.885   1.212   0.602
 2374SOL     OW 7123   4.396   1.391   1.624
 2374SOL    HW1 7124   4.318   1.341   1.662
 2374SOL    HW2 7125   4.393   1.486   1.655
 2375SOL     OW 7126   4.152   0.424   0.520
 2375SOL    HW1 7127   4.182   0.352   0.458
 2375SOL    HW2 7128   4.113   0.384   0.603
 2376SOL     OW 7129   4.041   0.547   1.280
 2376SOL    HW1 7130   4.079   0.488   1.352
 2376SOL    HW2 7131   4.081   0.521   1.192
 2377SOL     OW 7132   3.763   1.077   0.300
 2377SOL    HW1 7133   3.862   1.066   0.291
 2377SOL    HW2 7134   3.723   0.991   0.332
 2378SOL     OW 7135   3.954   0.628   1.975
 2378SOL    HW1 7136   3.861   0.626   2.012
 2378SOL    HW2 7137   3.955   0.589   1.883
 2379SOL     OW 7138   3.949   0.275   2.858
 2379SOL    HW1 7139   3.984   0.258   2.950
 2379SOL    HW2 7140   3.861   0.230   2.846
 2380SOL     OW 7141   3.743   0.368   2.509
 2380SOL    HW1 7142   3.661   0.411   2.548
 2380SOL    HW2 7143   3.715   0.295   2.446
 2381SOL     OW 7144   4.574   0.798   3.685
 2381SOL    HW1 7145   4.570   0.874   3.750
 2381SOL    HW2 7146   4.596   0.834   3.594
 2382SOL     OW 7147   4.059   1.435   2.923
 2382SOL    HW1 7148   3.981   1.404   2.870
 2382SOL    HW2 7149   4.117   1.493   2.866
 2383SOL     OW 7150   4.162   0.392   3.361
 2383SOL    HW1 7151   4.244   0.336   3.370
 2383SOL    HW2 7152   4.081   0.334   3.365
 2384SOL     OW 7153   3.955   1.713   2.345
 2384SOL    HW1 7154   3.989   1.790   2.399
 2384SOL    HW2 7155   3.999   1.713   2.255
 2385SOL     OW 7156   3.954   1.434   2.400
 2385SOL    HW1 7157   3.928   1.530   2.400
 2385SOL    HW2 7158   3.883   1.380   2.445
 2386SOL     OW 7159   3.964   1.091   2.748
 2386SOL    HW1 7160   3.978   1.007   2.800
 2386SOL    HW2 7161   3.909   1.155   2.803
 2387SOL     OW 7162   3.846   0.643   2.425
 2387SOL    HW1 7163   3.801   0.555   2.442
 2387SOL    HW2 7164   3.845   0.697   2.509
 2388SOL     OW 7165   3.751   1.596   1.979
 2388SOL    HW1 7166   3.732   1.500   2.000
 2388SOL    HW2 7167   3.718   1.654   2.054
 2389SOL     OW 7168   3.837   0.737   3.459
 2389SOL    HW1 7169   3.925   0.724   3.504
 2389SOL    HW2 7170   3.824   0.834   3.437
 2390SOL     OW 7171   4.337   1.365   2.588
 2390SOL    HW1 7172   4.288   1.278   2.597
 2390SOL    HW2 7173   4.314   1.408   2.501
 2391SOL     OW 7174   3.921   0.976   3.126
 2391SOL    HW1 7175   4.010   0.931   3.112
 2391SOL    HW2 7176   3.848   0.911   3.107
 2392SOL     OW 7177   4.041   0.251   3.663
 2392SOL    HW1 7178   4.112   0.322   3.669
 2392SOL    HW2 7179   3.953   0.290   3.691
 2393SOL     OW 7180   4.322   0.729   2.132
 2393SOL    HW1 7181   4.346   0.798   2.064
 2393SOL    HW2 7182   4.244   0.762   2.186
 2394SOL     OW 7183   3.800   0.811   2.651
 2394SOL    HW1 7184   3.899   0.799   2.660
 2394SOL    HW2 7185   3.776   0.906   2.672
 2395SOL     OW 7186   3.854   1.821   3.433
 2395SOL    HW1 7187   3.844   1.806   3.532
 2395SOL    HW2 7188   3.768   1.857   3.397
 2396SOL     OW 7189   4.589   0.348   2.057
 2396SOL    HW1 7190   4.648   0.411   2.008
 2396SOL    HW2 7191   4.608   0.254   2.028
 2397SOL     OW 7192   4.274   0.196   2.747
 2397SOL    HW1 7193   4.269   0.191   2.847
 2397SOL    HW2 7194   4.276   0.292   2.718
 2398SOL     OW 7195   4.075   1.801   2.715
 2398SOL    HW1 7196   4.125   1.715   2.721
 2398SOL    HW2 7197   4.140   1.878   2.712
 2399SOL     OW 7198   4.045   0.943   2.104
 2399SOL    HW1 7199   4.127   0.982   2.062
 2399SOL    HW2 7200   4.018   0.861   2.055
 2400SOL     OW 7201   4.185   1.266   3.589
 2400SOL    HW1 7202   4.135   1.267   3.503
 2400SOL    HW2 7203   4.122   1.248   3.665
 2401SOL     OW 7204   3.926   0.285   3.360
 2401SOL    HW1 7205   3.846   0.345   3.347
 2401SOL    HW2 7206   3.916   0.236   3.446
 2402SOL     OW 7207   4.188   1.743   2.185
 2402SOL    HW1 7208   4.221   1.782   2.271
 2402SOL    HW2 7209   4.264   1.736   2.120
 2403SOL     OW 7210   3.973   1.785   3.103
 2403SOL    HW1 7211   4.030   1.720   3.153
 2403SOL    HW2 7212   3.957   1.752   3.010
 2404SOL     OW 7213   4.106   0.700   2.342
 2404SOL    HW1 7214   4.151   0.610   2.339
 2404SOL    HW2 7215   4.012   0.689   2.375
 2405SOL     OW 7216   4.338   0.122   1.979
 2405SOL    HW1 7217   4.436   0.100   1.986
 2405SOL    HW2 7218   4.307   0.105   1.886
 2406SOL     OW 7219   4.263   0.064   2.374
 2406SOL    HW1 7220   4.182   0.065   2.432
 2406SOL    HW2 7221   4.266   0.147   2.319
 2407SOL     OW 7222   4.021   0.035   2.033
 2407SOL    HW1 7223   4.070   0.119   2.012
 2407SOL    HW2 7224   4.083  -0.030   2.078
 2408SOL     OW 7225   4.183   1.152   2.603
 2408SOL    HW1 7226   4.112   1.125   2.668
 2408SOL    HW2 7227   4.157   1.124   2.510
 2409SOL     OW 7228   3.802   0.556   3.248
 2409SOL    HW1 7229   3.894   0.555   3.207
 2409SOL    HW2 7230   3.796   0.630   3.315
 2410SOL     OW 7231   4.285   0.222   3.009
 2410SOL    HW1 7232   4.323   0.138   3.046
 2410SOL    HW2 7233   4.197   0.241   3.053
 2411SOL     OW 7234   4.251   0.256   2.190
 2411SOL    HW1 7235   4.278   0.197   2.115
 2411SOL    HW2 7236   4.251   0.351   2.159
 2412SOL     OW 7237   4.704   1.116   3.581
 2412SOL    HW1 7238   4.605   1.122   3.591
 2412SOL    HW2 7239   4.727   1.036   3.525
 2413SOL     OW 7240   4.134   0.813   3.113
 2413SOL    HW1 7241   4.220   0.825   3.163
 2413SOL    HW2 7242   4.092   0.726   3.140
 2414SOL     OW 7243   3.788   1.564   3.193
 2414SOL    HW1 7244   3.742   1.646   3.159
 2414SOL    HW2 7245   3.886   1.583   3.202
 2415SOL     OW 7246   4.091   1.100   2.363
 2415SOL    HW1 7247   4.084   1.183   2.307
 2415SOL    HW2 7248   4.095   1.020   2.303
 2416SOL     OW 7249   4.290   0.537   2.727
 2416SOL    HW1 7250   4.302   0.603   2.653
 2416SOL    HW2 7251   4.336   0.571   2.810
 2417SOL     OW 7252   4.078   1.510   3.191
 2417SOL    HW1 7253   4.057   1.466   3.104
 2417SOL    HW2 7254   4.175   1.536   3.194
 2418SOL     OW 7255   4.126   0.751   3.460
 2418SOL    HW1 7256   4.194   0.806   3.413
 2418SOL    HW2 7257   4.166   0.663   3.487
 2419SOL     OW 7258   4.228   0.050   3.602
 2419SOL    HW1 7259   4.186  -0.007   3.532
 2419SOL    HW2 7260   4.162   0.119   3.634
 2420SOL     OW 7261   4.297   0.870   2.891
 2420SOL    HW1 7262   4.341   0.959   2.882
 2420SOL    HW2 7263   4.234   0.870   2.968
 2421SOL     OW 7264   4.031   0.213   3.093
 2421SOL    HW1 7265   4.008   0.250   3.183
 2421SOL    HW2 7266   4.001   0.118   3.087
 2422SOL     OW 7267   3.761   1.310   3.144
 2422SOL    HW1 7268   3.814   1.261   3.212
 2422SOL    HW2 7269   3.783   1.408   3.149
 2423SOL     OW 7270   4.031   0.063   2.480
 2423SOL    HW1 7271   4.020   0.157   2.513
 2423SOL    HW2 7272   4.026   0.000   2.557
 2424SOL     OW 7273   4.074   0.898   3.666
 2424SOL    HW1 7274   4.150   0.942   3.714
 2424SOL    HW2 7275   4.109   0.851   3.584
 2425SOL     OW 7276   4.043   0.810   2.811
 2425SOL    HW1 7277   4.136   0.846   2.816
 2425SOL    HW2 7278   4.037   0.725   2.863
 2426SOL     OW 7279   4.063   0.509   2.868
 2426SOL    HW1 7280   4.011   0.426   2.851
 2426SOL    HW2 7281   4.140   0.514   2.804
 2427SOL     OW 7282   3.732   1.326   2.062
 2427SOL    HW1 7283   3.639   1.347   2.031
 2427SOL    HW2 7284   3.742   1.227   2.075
 2428SOL     OW 7285   3.812   1.801   2.789
 2428SOL    HW1 7286   3.770   1.715   2.762
 2428SOL    HW2 7287   3.906   1.804   2.755
 2429SOL     OW 7288   4.228   1.568   2.772
 2429SOL    HW1 7289   4.294   1.642   2.781
 2429SOL    HW2 7290   4.272   1.489   2.730
 2430SOL     OW 7291   3.764   0.544   2.976
 2430SOL    HW1 7292   3.849   0.511   2.935
 2430SOL    HW2 7293   3.777   0.559   3.074
 2431SOL     OW 7294   3.913   0.520   3.584
 2431SOL    HW1 7295   3.972   0.480   3.514
 2431SOL    HW2 7296   3.855   0.591   3.543
 2432SOL     OW 7297   4.539   0.572   2.187
 2432SOL    HW1 7298   4.546   0.483   2.141
 2432SOL    HW2 7299   4.445   0.606   2.179
 2433SOL     OW 7300   3.976   1.564   3.606
 2433SOL    HW1 7301   3.946   1.621   3.682
 2433SOL    HW2 7302   3.969   1.467   3.632
 2434SOL     OW 7303   4.197   0.500   2.053
 2434SOL    HW1 7304   4.258   0.580   2.057
 2434SOL    HW2 7305   4.102   0.531   2.060
 2435SOL     OW 7306   3.883   1.137   3.328
 2435SOL    HW1 7307   3.905   1.076   3.404
 2435SOL    HW2 7308   3.893   1.088   3.242
 2436SOL     OW 7309   3.807   1.258   2.884
 2436SOL    HW1 7310   3.802   1.257   2.984
 2436SOL    HW2 7311   3.724   1.217   2.846
 2437SOL     OW 7312   4.412   1.662   3.578
 2437SOL    HW1 7313   4.356   1.743   3.587
 2437SOL    HW2 7314   4.464   1.666   3.492
 2438SOL     OW 7315   3.854   1.794   3.713
 2438SOL    HW1 7316   3.813   1.720   3.766
 2438SOL    HW2 7317   3.918   1.845   3.771
 2439SOL     OW 7318   3.987   0.326   2.582
 2439SOL    HW1 7319   3.908   0.377   2.548
 2439SOL    HW2 7320   3.978   0.311   2.680
 2440SOL     OW 7321   4.096   1.288   3.352
 2440SOL    HW1 7322   4.083   1.381   3.318
 2440SOL    HW2 7323   4.012   1.236   3.339
 2441SOL     OW 7324   4.314   1.487   2.353
 2441SOL    HW1 7325   4.356   1.429   2.283
 2441SOL    HW2 7326   4.270   1.566   2.309
 2442SOL     OW 7327   3.979   1.348   2.152
 2442SOL    HW1 7328   3.883   1.349   2.125
 2442SOL    HW2 7329   3.991   1.401   2.236
 2443SOL     OW 7330   3.829   1.013   3.588
 2443SOL    HW1 7331   3.752   0.980   3.642
 2443SOL    HW2 7332   3.914   0.983   3.630
 2444SOL     OW 7333   3.799   0.345   1.895
 2444SOL    HW1 7334   3.707   0.317   1.866
 2444SOL    HW2 7335   3.830   0.422   1.839
 2445SOL     OW 7336   3.796   0.166   2.180
 2445SOL    HW1 7337   3.779   0.249   2.126
 2445SOL    HW2 7338   3.886   0.129   2.158
 2446SOL     OW 7339   4.337   0.842   3.293
 2446SOL    HW1 7340   4.393   0.923   3.276
 2446SOL    HW2 7341   4.396   0.762   3.296
 2447SOL     OW 7342   4.114   1.741   3.422
 2447SOL    HW1 7343   4.023   1.782   3.420
 2447SOL    HW2 7344   4.107   1.647   3.454
 2448SOL     OW 7345   4.318   0.745   2.514
 2448SOL    HW1 7346   4.368   0.830   2.495
 2448SOL    HW2 7347   4.230   0.747   2.466
 2449SOL     OW 7348   3.945   1.314   3.706
 2449SOL    HW1 7349   3.880   1.241   3.685
 2449SOL    HW2 7350   3.949   1.328   3.804
 2450SOL     OW 7351   3.803   1.240   2.515
 2450SOL    HW1 7352   3.802   1.193   2.603
 2450SOL    HW2 7353   3.885   1.212   2.464
 2451SOL     OW 7354   4.396   1.391   3.486
 2451SOL    HW1 7355   4.318   1.341   3.524
 2451SOL    HW2 7356   4.393   1.486   3.517
 2452SOL     OW 7357   4.152   0.424   2.382
 2452SOL    HW1 7358   4.182   0.352   2.320
 2452SOL    HW2 7359   4.113   0.384   2.465
 2453SOL     OW 7360   4.041   0.547   3.142
 2453SOL    HW1 7361   4.079   0.488   3.214
 2453SOL    HW2 7362   4.081   0.521   3.054
 2454SOL     OW 7363   3.763   1.077   2.162
 2454SOL    HW1 7364   3.862   1.066   2.153
 2454SOL    HW2 7365   3.723   0.991   2.194
 2455SOL     OW 7366   3.954   0.628   3.837
 2455SOL    HW1 7367   3.861   0.626   3.874
 2455SOL    HW2 7368   3.955   0.589   3.745
 2456SOL     OW 7369   3.955   1.713   4.207
 2456SOL    HW1 7370   3.989   1.790   4.261
 2456SOL    HW2 7371   3.999   1.713   4.117
 2457SOL     OW 7372   3.954   1.434   4.262
 2457SOL    HW1 7373   3.928   1.530   4.262
 2457SOL    HW2 7374   3.883   1.380   4.307
 2458SOL     OW 7375   3.846   0.643   4.287
 2458SOL    HW1 7376   3.801   0.555   4.304
 2458SOL    HW2 7377   3.845   0.697   4.371
 2459SOL     OW 7378   3.751   1.596   3.841
 2459SOL    HW1 7379   3.732   1.500   3.862
 2459SOL    HW2 7380   3.718   1.654   3.916
 2460SOL     OW 7381   4.322   0.729   3.994
 2460SOL    HW1 7382   4.346   0.798   3.926
 2460SOL    HW2 7383   4.244   0.762   4.048
 2461SOL     OW 7384   3.800   0.811   4.513
 2461SOL    HW1 7385   3.899   0.799   4.522
 2461SOL    HW2 7386   3.776   0.906   4.534
 2462SOL     OW 7387   4.589   0.348   3.919
 2462SOL    HW1 7388   4.648   0.411   3.870
 2462SOL    HW2 7389   4.608   0.254   3.890
 2463SOL     OW 7390   4.045   0.943   3.966
 2463SOL    HW1 7391   4.127   0.982   3.924
 2463SOL    HW2 7392   4.018   0.861   3.917
 2464SOL     OW 7393   4.188   1.743   4.047
 2464SOL    HW1 7394   4.221   1.782   4.133
 2464SOL    HW2 7395   4.264   1.736   3.982
 2465SOL     OW 7396   4.106   0.700   4.204
 2465SOL    HW1 7397   4.151   0.610   4.201
 2465SOL    HW2 7398   4.012   0.689   4.237
 2466SOL     OW 7399   4.338   0.122   3.841
 2466SOL    HW1 7400   4.436   0.100   3.848
 2466SOL    HW2 7401   4.307   0.105   3.748
 2467SOL     OW 7402   4.263   0.064   4.236
 2467SOL    HW1 7403   4.182   0.065   4.294
 2467SOL    HW2 7404   4.266   0.147   4.181
 2468SOL     OW 7405   4.021   0.035   3.895
 2468SOL    HW1 7406   4.070   0.119   3.874
 2468SOL    HW2 7407   4.083  -0.030   3.940
 2469SOL     OW 7408   4.183   1.152   4.465
 2469SOL    HW1 7409   4.112   1.125   4.530
 2469SOL    HW2 7410   4.157   1.124   4.372
 2470SOL     OW 7411   4.251   0.256   4.052
 2470SOL    HW1 7412   4.278   0.197   3.977
 2470SOL    HW2 7413   4.251   0.351   4.021
 2471SOL     OW 7414   4.091   1.100   4.225
 2471SOL    HW1 7415   4.084   1.183   4.169
 2471SOL    HW2 7416   4.095   1.020   4.165
 2472SOL     OW 7417   3.732   1.326   3.924
 2472SOL    HW1 7418   3.639   1.347   3.893
 2472SOL    HW2 7419   3.742   1.227   3.937
 2473SOL     OW 7420   4.539   0.572   4.049
 2473SOL    HW1 7421   4.546   0.483   4.003
 2473SOL    HW2 7422   4.445   0.606   4.041
 2474SOL     OW 7423   4.197   0.500   3.915
 2474SOL    HW1 7424   4.258   0.580   3.919
 2474SOL    HW2 7425   4.102   0.531   3.922
 2475SOL     OW 7426   4.314   1.487   4.215
 2475SOL    HW1 7427   4.356   1.429   4.145
 2475SOL    HW2 7428   4.270   1.566   4.171
 2476SOL     OW 7429   3.979   1.348   4.014
 2476SOL    HW1 7430   3.883   1.349   3.987
 2476SOL    HW2 7431   3.991   1.401   4.098
 2477SOL     OW 7432   3.799   0.345   3.757
 2477SOL    HW1 7433   3.707   0.317   3.728
 2477SOL    HW2 7434   3.830   0.422   3.701
 2478SOL     OW 7435   3.796   0.166   4.042
 2478SOL    HW1 7436   3.779   0.249   3.988
 2478SOL    HW2 7437   3.886   0.129   4.020
 2479SOL     OW 7438   4.318   0.745   4.376
 2479SOL    HW1 7439   4.368   0.830   4.357
 2479SOL    HW2 7440   4.230   0.747   4.328
 2480SOL     OW 7441   4.152   0.424   4.244
 2480SOL    HW1 7442   4.182   0.352   4.182
 2480SOL    HW2 7443   4.113   0.384   4.327
 2481SOL     OW 7444   3.763   1.077   4.024
 2481SOL    HW1 7445   3.862   1.066   4.015
 2481SOL    HW2 7446   3.723   0.991   4.056
 2482SOL     OW 7447   3.954   2.490   0.113
 2482SOL    HW1 7448   3.861   2.488   0.150
 2482SOL    HW2 7449   3.955   2.451   0.021
 2483SOL     OW 7450   3.949   2.137   0.996
 2483SOL    HW1 7451   3.984   2.120   1.088
 2483SOL    HW2 7452   3.861   2.092   0.984
 2484SOL     OW 7453   3.743   2.230   0.647
 2484SOL    HW1 7454   3.661   2.273   0.686
 2484SOL    HW2 7455   3.715   2.157   0.584
 2485SOL     OW 7456   4.574   2.660   1.823
 2485SOL    HW1 7457   4.570   2.736   1.888
 2485SOL    HW2 7458   4.596   2.696   1.732
 2486SOL     OW 7459   4.059   3.297   1.061
 2486SOL    HW1 7460   3.981   3.266   1.008
 2486SOL    HW2 7461   4.117   3.355   1.004
 2487SOL     OW 7462   4.162   2.254   1.499
 2487SOL    HW1 7463   4.244   2.198   1.508
 2487SOL    HW2 7464   4.081   2.196   1.503
 2488SOL     OW 7465   3.955   3.575   0.483
 2488SOL    HW1 7466   3.989   3.652   0.537
 2488SOL    HW2 7467   3.999   3.575   0.393
 2489SOL     OW 7468   3.954   3.296   0.538
 2489SOL    HW1 7469   3.928   3.392   0.538
 2489SOL    HW2 7470   3.883   3.242   0.583
 2490SOL     OW 7471   3.964   2.953   0.886
 2490SOL    HW1 7472   3.978   2.869   0.938
 2490SOL    HW2 7473   3.909   3.017   0.941
 2491SOL     OW 7474   3.846   2.505   0.563
 2491SOL    HW1 7475   3.801   2.417   0.580
 2491SOL    HW2 7476   3.845   2.559   0.647
 2492SOL     OW 7477   3.751   3.458   0.117
 2492SOL    HW1 7478   3.732   3.362   0.138
 2492SOL    HW2 7479   3.718   3.516   0.192
 2493SOL     OW 7480   3.837   2.599   1.597
 2493SOL    HW1 7481   3.925   2.586   1.642
 2493SOL    HW2 7482   3.824   2.696   1.575
 2494SOL     OW 7483   4.337   3.227   0.726
 2494SOL    HW1 7484   4.288   3.140   0.735
 2494SOL    HW2 7485   4.314   3.270   0.639
 2495SOL     OW 7486   3.921   2.838   1.264
 2495SOL    HW1 7487   4.010   2.793   1.250
 2495SOL    HW2 7488   3.848   2.773   1.245
 2496SOL     OW 7489   4.041   2.113   1.801
 2496SOL    HW1 7490   4.112   2.184   1.807
 2496SOL    HW2 7491   3.953   2.152   1.829
 2497SOL     OW 7492   3.800   2.673   0.789
 2497SOL    HW1 7493   3.899   2.661   0.798
 2497SOL    HW2 7494   3.776   2.768   0.810
 2498SOL     OW 7495   3.854   3.683   1.571
 2498SOL    HW1 7496   3.844   3.668   1.670
 2498SOL    HW2 7497   3.768   3.719   1.535
 2499SOL     OW 7498   4.589   2.210   0.195
 2499SOL    HW1 7499   4.648   2.273   0.146
 2499SOL    HW2 7500   4.608   2.116   0.166
 2500SOL     OW 7501   4.274   2.058   0.885
 2500SOL    HW1 7502   4.269   2.053   0.985
 2500SOL    HW2 7503   4.276   2.154   0.856
 2501SOL     OW 7504   4.075   3.663   0.853
 2501SOL    HW1 7505   4.125   3.577   0.859
 2501SOL    HW2 7506   4.140   3.740   0.850
 2502SOL     OW 7507   4.045   2.805   0.242
 2502SOL    HW1 7508   4.127   2.844   0.200
 2502SOL    HW2 7509   4.018   2.723   0.193
 2503SOL     OW 7510   4.185   3.128   1.727
 2503SOL    HW1 7511   4.135   3.129   1.641
 2503SOL    HW2 7512   4.122   3.110   1.803
 2504SOL     OW 7513   3.926   2.147   1.498
 2504SOL    HW1 7514   3.846   2.207   1.485
 2504SOL    HW2 7515   3.916   2.098   1.584
 2505SOL     OW 7516   4.188   3.605   0.323
 2505SOL    HW1 7517   4.221   3.644   0.409
 2505SOL    HW2 7518   4.264   3.598   0.258
 2506SOL     OW 7519   3.973   3.647   1.241
 2506SOL    HW1 7520   4.030   3.582   1.291
 2506SOL    HW2 7521   3.957   3.614   1.148
 2507SOL     OW 7522   4.106   2.562   0.480
 2507SOL    HW1 7523   4.151   2.472   0.477
 2507SOL    HW2 7524   4.012   2.551   0.513
 2508SOL     OW 7525   4.338   1.984   0.117
 2508SOL    HW1 7526   4.436   1.962   0.124
 2508SOL    HW2 7527   4.307   1.967   0.024
 2509SOL     OW 7528   4.263   1.926   0.512
 2509SOL    HW1 7529   4.182   1.927   0.570
 2509SOL    HW2 7530   4.266   2.009   0.457
 2510SOL     OW 7531   4.021   1.897   0.171
 2510SOL    HW1 7532   4.070   1.981   0.150
 2510SOL    HW2 7533   4.083   1.832   0.216
 2511SOL     OW 7534   4.183   3.014   0.741
 2511SOL    HW1 7535   4.112   2.987   0.806
 2511SOL    HW2 7536   4.157   2.986   0.648
 2512SOL     OW 7537   3.802   2.418   1.386
 2512SOL    HW1 7538   3.894   2.417   1.345
 2512SOL    HW2 7539   3.796   2.492   1.453
 2513SOL     OW 7540   4.285   2.084   1.147
 2513SOL    HW1 7541   4.323   2.000   1.184
 2513SOL    HW2 7542   4.197   2.103   1.191
 2514SOL     OW 7543   4.251   2.118   0.328
 2514SOL    HW1 7544   4.278   2.059   0.253
 2514SOL    HW2 7545   4.251   2.213   0.297
 2515SOL     OW 7546   4.704   2.978   1.719
 2515SOL    HW1 7547   4.605   2.984   1.729
 2515SOL    HW2 7548   4.727   2.898   1.663
 2516SOL     OW 7549   4.134   2.675   1.251
 2516SOL    HW1 7550   4.220   2.687   1.301
 2516SOL    HW2 7551   4.092   2.588   1.278
 2517SOL     OW 7552   3.788   3.426   1.331
 2517SOL    HW1 7553   3.742   3.508   1.297
 2517SOL    HW2 7554   3.886   3.445   1.340
 2518SOL     OW 7555   4.091   2.962   0.501
 2518SOL    HW1 7556   4.084   3.045   0.445
 2518SOL    HW2 7557   4.095   2.882   0.441
 2519SOL     OW 7558   4.290   2.399   0.865
 2519SOL    HW1 7559   4.302   2.465   0.791
 2519SOL    HW2 7560   4.336   2.433   0.948
 2520SOL     OW 7561   4.078   3.372   1.329
 2520SOL    HW1 7562   4.057   3.328   1.242
 2520SOL    HW2 7563   4.175   3.398   1.332
 2521SOL     OW 7564   4.126   2.613   1.598
 2521SOL    HW1 7565   4.194   2.668   1.551
 2521SOL    HW2 7566   4.166   2.525   1.625
 2522SOL     OW 7567   4.228   1.912   1.740
 2522SOL    HW1 7568   4.186   1.855   1.670
 2522SOL    HW2 7569   4.162   1.981   1.772
 2523SOL     OW 7570   4.297   2.732   1.029
 2523SOL    HW1 7571   4.341   2.821   1.020
 2523SOL    HW2 7572   4.234   2.732   1.106
 2524SOL     OW 7573   4.031   2.075   1.231
 2524SOL    HW1 7574   4.008   2.112   1.321
 2524SOL    HW2 7575   4.001   1.980   1.225
 2525SOL     OW 7576   3.761   3.172   1.282
 2525SOL    HW1 7577   3.814   3.123   1.350
 2525SOL    HW2 7578   3.783   3.270   1.287
 2526SOL     OW 7579   4.031   1.925   0.618
 2526SOL    HW1 7580   4.020   2.019   0.651
 2526SOL    HW2 7581   4.026   1.862   0.695
 2527SOL     OW 7582   4.074   2.760   1.804
 2527SOL    HW1 7583   4.150   2.804   1.852
 2527SOL    HW2 7584   4.109   2.713   1.722
 2528SOL     OW 7585   4.043   2.672   0.949
 2528SOL    HW1 7586   4.136   2.708   0.954
 2528SOL    HW2 7587   4.037   2.587   1.001
 2529SOL     OW 7588   4.063   2.371   1.006
 2529SOL    HW1 7589   4.011   2.288   0.989
 2529SOL    HW2 7590   4.140   2.376   0.942
 2530SOL     OW 7591   3.732   3.188   0.200
 2530SOL    HW1 7592   3.639   3.209   0.169
 2530SOL    HW2 7593   3.742   3.089   0.213
 2531SOL     OW 7594   3.812   3.663   0.927
 2531SOL    HW1 7595   3.770   3.577   0.900
 2531SOL    HW2 7596   3.906   3.666   0.893
 2532SOL     OW 7597   4.228   3.430   0.910
 2532SOL    HW1 7598   4.294   3.504   0.919
 2532SOL    HW2 7599   4.272   3.351   0.868
 2533SOL     OW 7600   3.764   2.406   1.114
 2533SOL    HW1 7601   3.849   2.373   1.073
 2533SOL    HW2 7602   3.777   2.421   1.212
 2534SOL     OW 7603   3.913   2.382   1.722
 2534SOL    HW1 7604   3.972   2.342   1.652
 2534SOL    HW2 7605   3.855   2.453   1.681
 2535SOL     OW 7606   4.539   2.434   0.325
 2535SOL    HW1 7607   4.546   2.345   0.279
 2535SOL    HW2 7608   4.445   2.468   0.317
 2536SOL     OW 7609   3.976   3.426   1.744
 2536SOL    HW1 7610   3.946   3.483   1.820
 2536SOL    HW2 7611   3.969   3.329   1.770
 2537SOL     OW 7612   4.197   2.362   0.191
 2537SOL    HW1 7613   4.258   2.442   0.195
 2537SOL    HW2 7614   4.102   2.393   0.198
 2538SOL     OW 7615   3.883   2.999   1.466
 2538SOL    HW1 7616   3.905   2.938   1.542
 2538SOL    HW2 7617   3.893   2.950   1.380
 2539SOL     OW 7618   3.807   3.120   1.022
 2539SOL    HW1 7619   3.802   3.119   1.122
 2539SOL    HW2 7620   3.724   3.079   0.984
 2540SOL     OW 7621   4.412   3.524   1.716
 2540SOL    HW1 7622   4.356   3.605   1.725
 2540SOL    HW2 7623   4.464   3.528   1.630
 2541SOL     OW 7624   3.854   3.656   1.851
 2541SOL    HW1 7625   3.813   3.582   1.904
 2541SOL    HW2 7626   3.918   3.707   1.909
 2542SOL     OW 7627   3.987   2.188   0.720
 2542SOL    HW1 7628   3.908   2.239   0.686
 2542SOL    HW2 7629   3.978   2.173   0.818
 2543SOL     OW 7630   4.096   3.150   1.490
 2543SOL    HW1 7631   4.083   3.243   1.456
 2543SOL    HW2 7632   4.012   3.098   1.477
 2544SOL     OW 7633   4.314   3.349   0.491
 2544SOL    HW1 7634   4.356   3.291   0.421
 2544SOL    HW2 7635   4.270   3.428   0.447
 2545SOL     OW 7636   3.979   3.210   0.290
 2545SOL    HW1 7637   3.883   3.211   0.263
 2545SOL    HW2 7638   3.991   3.263   0.374
 2546SOL     OW 7639   3.829   2.875   1.726
 2546SOL    HW1 7640   3.752   2.842   1.780
 2546SOL    HW2 7641   3.914   2.845   1.768
 2547SOL     OW 7642   3.799   2.207   0.033
 2547SOL    HW1 7643   3.707   2.179   0.004
 2547SOL    HW2 7644   3.830   2.284  -0.023
 2548SOL     OW 7645   3.796   2.028   0.318
 2548SOL    HW1 7646   3.779   2.111   0.264
 2548SOL    HW2 7647   3.886   1.991   0.296
 2549SOL     OW 7648   4.337   2.704   1.431
 2549SOL    HW1 7649   4.393   2.785   1.414
 2549SOL    HW2 7650   4.396   2.624   1.434
 2550SOL     OW 7651   4.114   3.603   1.560
 2550SOL    HW1 7652   4.023   3.644   1.558
 2550SOL    HW2 7653   4.107   3.509   1.592
 2551SOL     OW 7654   4.318   2.607   0.652
 2551SOL    HW1 7655   4.368   2.692   0.633
 2551SOL    HW2 7656   4.230   2.609   0.604
 2552SOL     OW 7657   3.945   3.176   1.844
 2552SOL    HW1 7658   3.880   3.103   1.823
 2552SOL    HW2 7659   3.949   3.190   1.942
 2553SOL     OW 7660   3.803   3.102   0.653
 2553SOL    HW1 7661   3.802   3.055   0.741
 2553SOL    HW2 7662   3.885   3.074   0.602
 2554SOL     OW 7663   4.396   3.253   1.624
 2554SOL    HW1 7664   4.318   3.203   1.662
 2554SOL    HW2 7665   4.393   3.348   1.655
 2555SOL     OW 7666   4.152   2.286   0.520
 2555SOL    HW1 7667   4.182   2.214   0.458
 2555SOL    HW2 7668   4.113   2.246   0.603
 2556SOL     OW 7669   4.041   2.409   1.280
 2556SOL    HW1 7670   4.079   2.350   1.352
 2556SOL    HW2 7671   4.081   2.383   1.192
 2557SOL     OW 7672   3.763   2.939   0.300
 2557SOL    HW1 7673   3.862   2.928   0.291
 2557SOL    HW2 7674   3.723   2.853   0.332
 2558SOL     OW 7675   3.954   2.490   1.975
 2558SOL    HW1 7676   3.861   2.488   2.012
 2558SOL    HW2 7677   3.955   2.451   1.883
 2559SOL     OW 7678   3.949   2.137   2.858
 2559SOL    HW1 7679   3.984   2.120   2.950
 2559SOL    HW2 7680   3.861   2.092   2.846
 2560SOL     OW 7681   3.743   2.230   2.509
 2560SOL    HW1 7682   3.661   2.273   2.548
 2560SOL    HW2 7683   3.715   2.157   2.446
 2561SOL     OW 7684   4.574   2.660   3.685
 2561SOL    HW1 7685   4.570   2.736   3.750
 2561SOL    HW2 7686   4.596   2.696   3.594
 2562SOL     OW 7687   4.059   3.297   2.923
 2562SOL    HW1 7688   3.981   3.266   2.870
 2562SOL    HW2 7689   4.117   3.355   2.866
 2563SOL     OW 7690   4.162   2.254   3.361
 2563SOL    HW1 7691   4.244   2.198   3.370
 2563SOL    HW2 7692   4.081   2.196   3.365
 2564SOL     OW 7693   3.955   3.575   2.345
 2564SOL    HW1 7694   3.989   3.652   2.399
 2564SOL    HW2 7695   3.999   3.575   2.255
 2565SOL     OW 7696   3.954   3.296   2.400
 2565SOL    HW1 7697   3.928   3.392   2.400
 2565SOL    HW2 7698   3.883   3.242   2.445
 2566SOL     OW 7699   3.964   2.953   2.748
 2566SOL    HW1 7700   3.978   2.869   2.800
 2566SOL    HW2 7701   3.909   3.017   2.803
 2567SOL     OW 7702   3.846   2.505   2.425
 2567SOL    HW1 7703   3.801   2.417   2.442
 2567SOL    HW2 7704   3.845   2.559   2.509
 2568SOL     OW 7705   3.751   3.458   1.979
 2568SOL    HW1 7706   3.732   3.362   2.000
 2568SOL    HW2 7707   3.718   3.516   2.054
 2569SOL     OW 7708   3.837   2.599   3.459
 2569SOL    HW1 7709   3.925   2.586   3.504
 2569SOL    HW2 7710   3.824   2.696   3.437
 2570SOL     OW 7711   4.337   3.227   2.588
 2570SOL    HW1 7712   4.288   3.140   2.597
 2570SOL    HW2 7713   4.314   3.270   2.501
 2571SOL     OW 7714   3.921   2.838   3.126
 2571SOL    HW1 7715   4.010   2.793   3.112
 2571SOL    HW2 7716   3.848   2.773   3.107
 2572SOL     OW 7717   4.041   2.113   3.663
 2572SOL    HW1 7718   4.112   2.184   3.669
 2572SOL    HW2 7719   3.953   2.152   3.691
 2573SOL     OW 7720   4.322   2.591   2.132
 2573SOL    HW1 7721   4.346   2.660   2.064
 2573SOL    HW2 7722   4.244   2.624   2.186
 2574SOL     OW 7723   3.800   2.673   2.651
 2574SOL    HW1 7724   3.899   2.661   2.660
 2574SOL    HW2 7725   3.776   2.768   2.672
 2575SOL     OW 7726   3.854   3.683   3.433
 2575SOL    HW1 7727   3.844   3.668   3.532
 2575SOL    HW2 7728   3.768   3.719   3.397
 2576SOL     OW 7729   4.589   2.210   2.057
 2576SOL    HW1 7730   4.648   2.273   2.008
 2576SOL    HW2 7731   4.608   2.116   2.028
 2577SOL     OW 7732   4.274   2.058   2.747
 2577SOL    HW1 7733   4.269   2.053   2.847
 2577SOL    HW2 7734   4.276   2.154   2.718
 2578SOL     OW 7735   4.075   3.663   2.715
 2578SOL    HW1 7736   4.125   3.577   2.721
 2578SOL    HW2 7737   4.140   3.740   2.712
 2579SOL     OW 7738   4.045   2.805   2.104
 2579SOL    HW1 7739   4.127   2.844   2.062
 2579SOL    HW2 7740   4.018   2.723   2.055
 2580SOL     OW 7741   4.185   3.128   3.589
 2580SOL    HW1 7742   4.135   3.129   3.503
 2580SOL    HW2 7743   4.122   3.110   3.665
 2581SOL     OW 7744   3.926   2.147   3.360
 2581SOL    HW1 7745   3.846   2.207   3.347
 2581SOL    HW2 7746   3.916   2.098   3.446
 2582SOL     OW 7747   4.188   3.605   2.185
 2582SOL    HW1 7748   4.221   3.644   2.271
 2582SOL    HW2 7749   4.264   3.598   2.120
 2583SOL     OW 7750   3.973   3.647   3.103
 2583SOL    HW1 7751   4.030   3.582   3.153
 2583SOL    HW2 7752   3.957   3.614   3.010
 2584SOL     OW 7753   4.106   2.562   2.342
 2584SOL    HW1 7754   4.151   2.472   2.339
 2584SOL    HW2 7755   4.012   2.551   2.375
 2585SOL     OW 7756   4.338   1.984   1.979
 2585SOL    HW1 7757   4.436   1.962   1.986
 2585SOL    HW2 7758   4.307   1.967   1.886
 2586SOL     OW 7759   4.263   1.926   2.374
 2586SOL    HW1 7760   4.182   1.927   2.432
 2586SOL    HW2 7761   4.266   2.009   2.319
 2587SOL     OW 7762   4.021   1.897   2.033
 2587SOL    HW1 7763   4.070   1.981   2.012
 2587SOL    HW2 7764   4.083   1.832   2.078
 2588SOL     OW 7765   4.183   3.014   2.603
 2588SOL    HW1 7766   4.112   2.987   2.668
 2588SOL    HW2 7767   4.157   2.986   2.510
 2589SOL     OW 7768   3.802   2.418   3.248
 2589SOL    HW1 7769   3.894   2.417   3.207
 2589SOL    HW2 7770   3.796   2.492   3.315
 2590SOL     OW 7771   4.285   2.084   3.009
 2590SOL    HW1 7772   4.323   2.000   3.046
 2590SOL    HW2 7773   4.197   2.103   3.053
 2591SOL     OW 7774   4.251   2.118   2.190
 2591SOL    HW1 7775   4.278   2.059   2.115
 2591SOL    HW2 7776   4.251   2.213   2.159
 2592SOL     OW 7777   4.704   2.978   3.581
 2592SOL    HW1 7778   4.605   2.984   3.591
 2592SOL    HW2 7779   4.727   2.898   3.525
 2593SOL     OW 7780   4.134   2.675   3.113
 2593SOL    HW1 7781   4.220   2.687   3.163
 2593SOL    HW2 7782   4.092   2.588   3.140
 2594SOL     OW 7783   3.788   3.426   3.193
 2594SOL    HW1 7784   3.742   3.508   3.159
 2594SOL    HW2 7785   3.886   3.445   3.202
 2595SOL     OW 7786   4.091   2.962   2.363
 2595SOL    HW1 7787   4.084   3.045   2.307
 2595SOL    HW2 7788   4.095   2.882   2.303
 2596SOL     OW 7789   4.290   2.399   2.727
 2596SOL    HW1 7790   4.302   2.465   2.653
 2596SOL    HW2 7791   4.336   2.433   2.810
 2597SOL     OW 7792   4.078   3.372   3.191
 2597SOL    HW1 7793   4.057   3.328   3.104
 2597SOL    HW2 7794   4.175   3.398   3.194
 2598SOL     OW 7795   4.126   2.613   3.460
 2598SOL    HW1 7796   4.194   2.668   3.413
 2598SOL    HW2 7797   4.166   2.525   3.487
 2599SOL     OW 7798   4.228   1.912   3.602
 2599SOL    HW1 7799   4.186   1.855   3.532
 2599SOL    HW2 7800   4.162   1.981   3.634
 2600SOL     OW 7801   4.297   2.732   2.891
 2600SOL    HW1 7802   4.341   2.821   2.882
 2600SOL    HW2 7803   4.234   2.732   2.968
 2601SOL     OW 7804   4.031   2.075   3.093
 2601SOL    HW1 7805   4.008   2.112   3.183
 2601SOL    HW2 7806   4.001   1.980   3.087
 2602SOL     OW 7807   3.761   3.172   3.144
 2602SOL    HW1 7808   3.814   3.123   3.212
 2602SOL    HW2 7809   3.783   3.270   3.149
 2603SOL     OW 7810   4.031   1.925   2.480
 2603SOL    HW1 7811   4.020   2.019   2.513
 2603SOL    HW2 7812   4.026   1.862   2.557
 2604SOL     OW 7813   4.074   2.760   3.666
 2604SOL    HW1 7814   4.150   2.804   3.714
 2604SOL    HW2 7815   4.109   2.713   3.584
 2605SOL     OW 7816   4.043   2.672   2.811
 2605SOL    HW1 7817   4.136   2.708   2.816
 2605SOL    HW2 7818   4.037   2.587   2.863
 2606SOL     OW 7819   4.063   2.371   2.868
 2606SOL    HW1 7820   4.011   2.288   2.851
 2606SOL    HW2 7821   4.140   2.376   2.804
 2607SOL     OW 7822   3.732   3.188   2.062
 2607SOL    HW1 7823   3.639   3.209   2.031
 2607SOL    HW2 7824   3.742   3.089   2.075
 2608SOL     OW 7825   3.812   3.663   2.789
 2608SOL    HW1 7826   3.770   3.577   2.762
 2608SOL    HW2 7827   3.906   3.666   2.755
 2609SOL     OW 7828   4.228   3.430   2.772
 2609SOL    HW1 7829   4.294   3.504   2.781
 2609SOL    HW2 7830   4.272   3.351   2.730
 2610SOL     OW 7831   3.764   2.406   2.976
 2610SOL    HW1 7832   3.849   2.373   2.935
 2610SOL    HW2 7833   3.777   2.421   3.074
 2611SOL     OW 7834   3.913   2.382   3.584
 2611SOL    HW1 7835   3.972   2.342   3.514
 2611SOL    HW2 7836   3.855   2.453   3.543
 2612SOL     OW 7837   4.539   2.434   2.187
 2612SOL    HW1 7838   4.546   2.345   2.141
 2612SOL    HW2 7839   4.445   2.468   2.179
 2613SOL     OW 7840   3.976   3.426   3.606
 2613SOL    HW1 7841   3.946   3.483   3.682
 2613SOL    HW2 7842   3.969   3.329   3.632
 2614SOL     OW 7843   4.197   2.362   2.053
 2614SOL    HW1 7844   4.258   2.442   2.057
 2614SOL    HW2 7845   4.102   2.393   2.060
 2615SOL     OW 7846   3.883   2.999   3.328
 2615SOL    HW1 7847   3.905   2.938   3.404
 2615SOL    HW2 7848   3.893   2.950   3.242
 2616SOL     OW 7849   3.807   3.120   2.884
 2616SOL    HW1 7850   3.802   3.119   2.984
 2616SOL    HW2 7851   3.724   3.079   2.846
 2617SOL     OW 7852   4.412   3.524   3.578
 2617SOL    HW1 7853   4.356   3.605   3.587
 2617SOL    HW2 7854   4.464   3.528   3.492
 2618SOL     OW 7855   3.854   3.656   3.713
 2618SOL    HW1 7856   3.813   3.582   3.766
 2618SOL    HW2 7857   3.918   3.707   3.771
 2619SOL     OW 7858   3.987   2.188   2.582
 2619SOL    HW1 7859   3.908   2.239   2.548
 2619SOL    HW2 7860   3.978   2.173   2.680
 2620SOL     OW 7861   4.096   3.150   3.352
 2620SOL    HW1 7862   4.083   3.243   3.318
 2620SOL    HW2 7863   4.012   3.098   3.339
 2621SOL     OW 7864   4.314   3.349   2.353
 2621SOL    HW1 7865   4.356   3.291   2.283
 2621SOL    HW2 7866   4.270   3.428   2.309
 2622SOL     OW 7867   3.979   3.210   2.152
 2622SOL    HW1 7868   3.883   3.211   2.125
 2622SOL    HW2 7869   3.991   3.263   2.236
 2623SOL     OW 7870   3.829   2.875   3.588
 2623SOL    HW1 7871   3.752   2.842   3.642
 2623SOL    HW2 7872   3.914   2.845   3.630
 2624SOL     OW 7873   3.799   2.207   1.895
 2624SOL    HW1 7874   3.707   2.179   1.866
 2624SOL    HW2 7875   3.830   2.284   1.839
 2625SOL     OW 7876   3.796   2.028   2.180
 2625SOL    HW1 7877   3.779   2.111   2.126
 2625SOL    HW2 7878   3.886   1.991   2.158
 2626SOL     OW 7879   4.337   2.704   3.293
 2626SOL    HW1 7880   4.393   2.785   3.276
 2626SOL    HW2 7881   4.396   2.624   3.296
 2627SOL     OW 7882   4.114   3.603   3.422
 2627SOL    HW1 7883   4.023   3.644   3.420
 2627SOL    HW2 7884   4.107   3.509   3.454
 2628SOL     OW 7885   4.318   2.607   2.514
 2628SOL    HW1 7886   4.368   2.692   2.495
 2628SOL    HW2 7887   4.230   2.609   2.466
 2629SOL     OW 7888   3.945   3.176   3.706
 2629SOL    HW1 7889   3.880   3.103   3.685
 2629SOL    HW2 7890   3.949   3.190   3.804
 2630SOL     OW 7891   3.803   3.102   2.515
 2630SOL    HW1 7892   3.802   3.055   2.603
 2630SOL    HW2 7893   3.885   3.074   2.464
 2631SOL     OW 7894   4.396   3.253   3.486
 2631SOL    HW1 7895   4.318   3.203   3.524
 2631SOL    HW2 7896   4.393   3.348   3.517
 2632SOL     OW 7897   4.152   2.286   2.382
 2632SOL    HW1 7898   4.182   2.214   2.320
 2632SOL    HW2 7899   4.113   2.246   2.465
 2633SOL     OW 7900   4.041   2.409   3.142
 2633SOL    HW1 7901   4.079   2.350   3.214
 2633SOL    HW2 7902   4.081   2.383   3.054
 2634SOL     OW 7903   3.763   2.939   2.162
 2634SOL    HW1 7904   3.862   2.928   2.153
 2634SOL    HW2 7905   3.723   2.853   2.194
 2635SOL     OW 7906   3.954   2.490   3.837
 2635SOL    HW1 7907   3.861   2.488   3.874
 2635SOL    HW2 7908   3.955   2.451   3.745
 2636SOL     OW 7909   3.955   3.575   4.207
 2636SOL    HW1 7910   3.989   3.652   4.261
 2636SOL    HW2 7911   3.999   3.575   4.117
 2637SOL     OW 7912   3.954   3.296   4.262
 2637SOL    HW1 7913   3.928   3.392   4.262
 2637SOL    HW2 7914   3.883   3.242   4.307
 2638SOL     OW 7915   3.846   2.505   4.287
 2638SOL    HW1 7916   3.801   2.417   4.304
 2638SOL    HW2 7917   3.845   2.559   4.371
 2639SOL     OW 7918   3.751   3.458   3.841
 2639SOL    HW1 7919   3.732   3.362   3.862
 2639SOL    HW2 7920   3.718   3.516   3.916
 2640SOL     OW 7921   4.322   2.591   3.994
 2640SOL    HW1 7922   4.346   2.660   3.926
 2640SOL    HW2 7923   4.244   2.624   4.048
 2641SOL     OW 7924   3.800   2.673   4.513
 2641SOL    HW1 7925   3.899   2.661   4.522
 2641SOL    HW2 7926   3.776   2.768   4.534
 2642SOL     OW 7927   4.589   2.210   3.919
 2642SOL    HW1 7928   4.648   2.273   3.870
 2642SOL    HW2 7929   4.608   2.116   3.890
 2643SOL     OW 7930   4.045   2.805   3.966
 2643SOL    HW1 7931   4.127   2.844   3.924
 2643SOL    HW2 7932   4.018   2.723   3.917
 2644SOL     OW 7933   4.188   3.605   4.047
 2644SOL    HW1 7934   4.221   3.644   4.133
 2644SOL    HW2 7935   4.264   3.598   3.982
 2645SOL     OW 7936   4.106   2.562   4.204
 2645SOL    HW1 7937   4.151   2.472   4.201
 2645SOL    HW2 7938   4.012   2.551   4.237
 2646SOL     OW 7939   4.338   1.984   3.841
 2646SOL    HW1 7940   4.436   1.962   3.848
 2646SOL    HW2 7941   4.307   1.967   3.748
 2647SOL     OW 7942   4.263   1.926   4.236
 2647SOL    HW1 7943   4.182   1.927   4.294
 2647SOL    HW2 7944   4.266   2.009   4.181
 2648SOL     OW 7945   4.021   1.897   3.895
 2648SOL    HW1 7946   4.070   1.981   3.874
 2648SOL    HW2 7947   4.083   1.832   3.940
 2649SOL     OW 7948   4.183   3.014   4.465
 2649SOL    HW1 7949   4.112   2.987   4.530
 2649SOL    HW2 7950   4.157   2.986   4.372
 2650SOL     OW 7951   4.251   2.118   4.052
 2650SOL    HW1 7952   4.278   2.059   3.977
 2650SOL    HW2 7953   4.251   2.213   4.021
 2651SOL     OW 7954   4.091   2.962   4.225
 2651SOL    HW1 7955   4.084   3.045   4.169
 2651SOL    HW2 7956   4.095   2.882   4.165
 2652SOL     OW 7957   3.732   3.188   3.924
 2652SOL    HW1 7958   3.639   3.209   3.893
 2652SOL    HW2 7959   3.742   3.089   3.937
 2653SOL     OW 7960   4.539   2.434   4.049
 2653SOL    HW1 7961   4.546   2.345   4.003
 2653SOL    HW2 7962   4.445   2.468   4.041
 2654SOL     OW 7963   4.197   2.362   3.915
 2654SOL    HW1 7964   4.258   2.442   3.919
 2654SOL    HW2 7965   4.102   2.393   3.922
 2655SOL     OW 7966   4.314   3.349   4.215
 2655SOL    HW1 7967   4.356   3.291   4.145
 2655SOL    HW2 7968   4.270   3.428   4.171
 2656SOL     OW 7969   3.979   3.210   4.014
 2656SOL    HW1 7970   3.883   3.211   3.987
 2656SOL    HW2 7971   3.991   3.263   4.098
 2657SOL     OW 7972   3.799   2.207   3.757
 2657SOL    HW1 7973   3.707   2.179   3.728
 2657SOL    HW2 7974   3.830   2.284   3.701
 2658SOL     OW 7975   3.796   2.028   4.042
 2658SOL    HW1 7976   3.779   2.111   3.988
 2658SOL    HW2 7977   3.886   1.991   4.020
 2659SOL     OW 7978   4.318   2.607   4.376
 2659SOL    HW1 7979   4.368   2.692   4.357
 2659SOL    HW2 7980   4.230   2.609   4.328
 2660SOL     OW 7981   4.152   2.286   4.244
 2660SOL    HW1 7982   4.182   2.214   4.182
 2660SOL    HW2 7983   4.113   2.246   4.327
 2661SOL     OW 7984   3.763   2.939   4.024
 2661SOL    HW1 7985   3.862   2.928   4.015
 2661SOL    HW2 7986   3.723   2.853   4.056
 2662SOL     OW 7987   3.949   3.999   0.996
 2662SOL    HW1 7988   3.984   3.982   1.088
 2662SOL    HW2 7989   3.861   3.954   0.984
 2663SOL     OW 7990   3.743   4.092   0.647
 2663SOL    HW1 7991   3.661   4.135   0.686
 2663SOL    HW2 7992   3.715   4.019   0.584
 2664SOL     OW 7993   4.162   4.116   1.499
 2664SOL    HW1 7994   4.244   4.060   1.508
 2664SOL    HW2 7995   4.081   4.058   1.503
 2665SOL     OW 7996   3.846   4.367   0.563
 2665SOL    HW1 7997   3.801   4.279   0.580
 2665SOL    HW2 7998   3.845   4.421   0.647
 2666SOL     OW 7999   4.041   3.975   1.801
 2666SOL    HW1 8000   4.112   4.046   1.807
 2666SOL    HW2 8001   3.953   4.014   1.829
 2667SOL     OW 8002   3.800   4.535   0.789
 2667SOL    HW1 8003   3.899   4.523   0.798
 2667SOL    HW2 8004   3.776   4.630   0.810
 2668SOL     OW 8005   4.589   4.072   0.195
 2668SOL    HW1 8006   4.648   4.135   0.146
 2668SOL    HW2 8007   4.608   3.978   0.166
 2669SOL     OW 8008   4.274   3.920   0.885
 2669SOL    HW1 8009   4.269   3.915   0.985
 2669SOL    HW2 8010   4.276   4.016   0.856
 2670SOL     OW 8011   3.926   4.009   1.498
 2670SOL    HW1 8012   3.846   4.069   1.485
 2670SOL    HW2 8013   3.916   3.960   1.584
 2671SOL     OW 8014   4.338   3.846   0.117
 2671SOL    HW1 8015   4.436   3.824   0.124
 2671SOL    HW2 8016   4.307   3.829   0.024
 2672SOL     OW 8017   4.263   3.788   0.512
 2672SOL    HW1 8018   4.182   3.789   0.570
 2672SOL    HW2 8019   4.266   3.871   0.457
 2673SOL     OW 8020   4.021   3.759   0.171
 2673SOL    HW1 8021   4.070   3.843   0.150
 2673SOL    HW2 8022   4.083   3.694   0.216
 2674SOL     OW 8023   3.802   4.280   1.386
 2674SOL    HW1 8024   3.894   4.279   1.345
 2674SOL    HW2 8025   3.796   4.354   1.453
 2675SOL     OW 8026   4.285   3.946   1.147
 2675SOL    HW1 8027   4.323   3.862   1.184
 2675SOL    HW2 8028   4.197   3.965   1.191
 2676SOL     OW 8029   4.251   3.980   0.328
 2676SOL    HW1 8030   4.278   3.921   0.253
 2676SOL    HW2 8031   4.251   4.075   0.297
 2677SOL     OW 8032   4.290   4.261   0.865
 2677SOL    HW1 8033   4.302   4.327   0.791
 2677SOL    HW2 8034   4.336   4.295   0.948
 2678SOL     OW 8035   4.228   3.774   1.740
 2678SOL    HW1 8036   4.186   3.717   1.670
 2678SOL    HW2 8037   4.162   3.843   1.772
 2679SOL     OW 8038   4.031   3.937   1.231
 2679SOL    HW1 8039   4.008   3.974   1.321
 2679SOL    HW2 8040   4.001   3.842   1.225
 2680SOL     OW 8041   4.031   3.787   0.618
 2680SOL    HW1 8042   4.020   3.881   0.651
 2680SOL    HW2 8043   4.026   3.724   0.695
 2681SOL     OW 8044   4.063   4.233   1.006
 2681SOL    HW1 8045   4.011   4.150   0.989
 2681SOL    HW2 8046   4.140   4.238   0.942
 2682SOL     OW 8047   3.764   4.268   1.114
 2682SOL    HW1 8048   3.849   4.235   1.073
 2682SOL    HW2 8049   3.777   4.283   1.212
 2683SOL     OW 8050   3.913   4.244   1.722
 2683SOL    HW1 8051   3.972   4.204   1.652
 2683SOL    HW2 8052   3.855   4.315   1.681
 2684SOL     OW 8053   4.539   4.296   0.325
 2684SOL    HW1 8054   4.546   4.207   0.279
 2684SOL    HW2 8055   4.445   4.330   0.317
 2685SOL     OW 8056   3.987   4.050   0.720
 2685SOL    HW1 8057   3.908   4.101   0.686
 2685SOL    HW2 8058   3.978   4.035   0.818
 2686SOL     OW 8059   3.799   4.069   0.033
 2686SOL    HW1 8060   3.707   4.041   0.004
 2686SOL    HW2 8061   3.830   4.146  -0.023
 2687SOL     OW 8062   3.796   3.890   0.318
 2687SOL    HW1 8063   3.779   3.973   0.264
 2687SOL    HW2 8064   3.886   3.853   0.296
 2688SOL     OW 8065   4.337   4.566   1.431
 2688SOL    HW1 8066   4.393   4.647   1.414
 2688SOL    HW2 8067   4.396   4.486   1.434
 2689SOL     OW 8068   4.152   4.148   0.520
 2689SOL    HW1 8069   4.182   4.076   0.458
 2689SOL    HW2 8070   4.113   4.108   0.603
 2690SOL     OW 8071   4.041   4.271   1.280
 2690SOL    HW1 8072   4.079   4.212   1.352
 2690SOL    HW2 8073   4.081   4.245   1.192
 2691SOL     OW 8074   3.949   3.999   2.858
 2691SOL    HW1 8075   3.984   3.982   2.950
 2691SOL    HW2 8076   3.861   3.954   2.846
 2692SOL     OW 8077   3.743   4.092   2.509
 2692SOL    HW1 8078   3.661   4.135   2.548
 2692SOL    HW2 8079   3.715   4.019   2.446
 2693SOL     OW 8080   4.162   4.116   3.361
 2693SOL    HW1 8081   4.244   4.060   3.370
 2693SOL    HW2 8082   4.081   4.058   3.365
 2694SOL     OW 8083   3.846   4.367   2.425
 2694SOL    HW1 8084   3.801   4.279   2.442
 2694SOL    HW2 8085   3.845   4.421   2.509
 2695SOL     OW 8086   4.041   3.975   3.663
 2695SOL    HW1 8087   4.112   4.046   3.669
 2695SOL    HW2 8088   3.953   4.014   3.691
 2696SOL     OW 8089   3.800   4.535   2.651
 2696SOL    HW1 8090   3.899   4.523   2.660
 2696SOL    HW2 8091   3.776   4.630   2.672
 2697SOL     OW 8092   4.589   4.072   2.057
 2697SOL    HW1 8093   4.648   4.135   2.008
 2697SOL    HW2 8094   4.608   3.978   2.028
 2698SOL     OW 8095   4.274   3.920   2.747
 2698SOL    HW1 8096   4.269   3.915   2.847
 2698SOL    HW2 8097   4.276   4.016   2.718
 2699SOL     OW 8098   3.926   4.009   3.360
 2699SOL    HW1 8099   3.846   4.069   3.347
 2699SOL    HW2 8100   3.916   3.960   3.446
 2700SOL     OW 8101   4.338   3.846   1.979
 2700SOL    HW1 8102   4.436   3.824   1.986
 2700SOL    HW2 8103   4.307   3.829   1.886
 2701SOL     OW 8104   4.263   3.788   2.374
 2701SOL    HW1 8105   4.182   3.789   2.432
 2701SOL    HW2 8106   4.266   3.871   2.319
 2702SOL     OW 8107   4.021   3.759   2.033
 2702SOL    HW1 8108   4.070   3.843   2.012
 2702SOL    HW2 8109   4.083   3.694   2.078
 2703SOL     OW 8110   3.802   4.280   3.248
 2703SOL    HW1 8111   3.894   4.279   3.207
 2703SOL    HW2 8112   3.796   4.354   3.315
 2704SOL     OW 8113   4.285   3.946   3.009
 2704SOL    HW1 8114   4.323   3.862   3.046
 2704SOL    HW2 8115   4.197   3.965   3.053
 2705SOL     OW 8116   4.251   3.980   2.190
 2705SOL    HW1 8117   4.278   3.921   2.115
 2705SOL    HW2 8118   4.251   4.075   2.159
 2706SOL     OW 8119   4.290   4.261   2.727
 2706SOL    HW1 8120   4.302   4.327   2.653
 2706SOL    HW2 8121   4.336   4.295   2.810
 2707SOL     OW 8122   4.228   3.774   3.602
 2707SOL    HW1 8123   4.186   3.717   3.532
 2707SOL    HW2 8124   4.162   3.843   3.634
 2708SOL     OW 8125   4.031   3.937   3.093
 2708SOL    HW1 8126   4.008   3.974   3.183
 2708SOL    HW2 8127   4.001   3.842   3.087
 2709SOL     OW 8128   4.031   3.787   2.480
 2709SOL    HW1 8129   4.020   3.881   2.513
 2709SOL    HW2 8130   4.026   3.724   2.557
 2710SOL     OW 8131   4.063   4.233   2.868
 2710SOL    HW1 8132   4.011   4.150   2.851
 2710SOL    HW2 8133   4.140   4.238   2.804
 2711SOL     OW 8134   3.764   4.268   2.976
 2711SOL    HW1 8135   3.849   4.235   2.935
 2711SOL    HW2 8136   3.777   4.283   3.074
 2712SOL     OW 8137   3.913   4.244   3.584
 2712SOL    HW1 8138   3.972   4.204   3.514
 2712SOL    HW2 8139   3.855   4.315   3.543
 2713SOL     OW 8140   4.539   4.296   2.187
 2713SOL    HW1 8141   4.546   4.207   2.141
 2713SOL    HW2 8142   4.445   4.330   2.179
 2714SOL     OW 8143   3.987   4.050   2.582
 2714SOL    HW1 8144   3.908   4.101   2.548
 2714SOL    HW2 8145   3.978   4.035   2.680
 2715SOL     OW 8146   3.799   4.069   1.895
 2715SOL    HW1 8147   3.707   4.041   1.866
 2715SOL    HW2 8148   3.830   4.146   1.839
 2716SOL     OW 8149   3.796   3.890   2.180
 2716SOL    HW1 8150   3.779   3.973   2.126
 2716SOL    HW2 8151   3.886   3.853   2.158
 2717SOL     OW 8152   4.337   4.566   3.293
 2717SOL    HW1 8153   4.393   4.647   3.276
 2717SOL    HW2 8154   4.396   4.486   3.296
 2718SOL     OW 8155   4.152   4.148   2.382
 2718SOL    HW1 8156   4.182   4.076   2.320
 2718SOL    HW2 8157   4.113   4.108   2.465
 2719SOL     OW 8158   4.041   4.271   3.142
 2719SOL    HW1 8159   4.079   4.212   3.214
 2719SOL    HW2 8160   4.081   4.245   3.054
 2720SOL     OW 8161   3.846   4.367   4.287
 2720SOL    HW1 8162   3.801   4.279   4.304
 2720SOL    HW2 8163   3.845   4.421   4.371
 2721SOL     OW 8164   4.589   4.072   3.919
 2721SOL    HW1 8165   4.648   4.135   3.870
 2721SOL    HW2 8166   4.608   3.978   3.890
 2722SOL     OW 8167   4.338   3.846   3.841
 2722SOL    HW1 8168   4.436   3.824   3.848
 2722SOL    HW2 8169   4.307   3.829   3.748
 2723SOL     OW 8170   4.263   3.788   4.236
 2723SOL    HW1 8171   4.182   3.789   4.294
 2723SOL    HW2 8172   4.266   3.871   4.181
 2724SOL     OW 8173   4.021   3.759   3.895
 2724SOL    HW1 8174   4.070   3.843   3.874
 2724SOL    HW2 8175   4.083   3.694   3.940
 2725SOL     OW 8176   4.251   3.980   4.052
 2725SOL    HW1 8177   4.278   3.921   3.977
 2725SOL    HW2 8178   4.251   4.075   4.021
 2726SOL     OW 8179   4.539   4.296   4.049
 2726SOL    HW1 8180   4.546   4.207   4.003
 2726SOL    HW2 8181   4.445   4.330   4.041
 2727SOL     OW 8182   3.799   4.069   3.757
 2727SOL    HW1 8183   3.707   4.041   3.728
 2727SOL    HW2 8184   3.830   4.146   3.701
 2728SOL     OW 8185   3.796   3.890   4.042
 2728SOL    HW1 8186   3.779   3.973   3.988
 2728SOL    HW2 8187   3.886   3.853   4.020
 2729SOL     OW 8188   4.152   4.148   4.244
 2729SOL    HW1 8189   4.182   4.076   4.182
 2729SOL    HW2 8190   4.113   4.108   4.327
   4.36812   4.36812   4.36812
