; mobley_282648_GMX_OPLS.top created by acpype (v: 2023.10.27) on Thu May 21 00:01:14 2026

; Include forcefield parameters
#include "ffoplsaa.itp"

; Include mobley_282648_GMX.itp topology
#include "mobley_282648_GMX.itp"

; Ligand position restraints
#ifdef POSRES_LIG
#include "posre_mobley_282648.itp"
#endif

[ system ]
 mobley_282648

[ molecules ]
; Compound        nmols
 mobley_282648    1     
