%VERSION  VERSION_STAMP = V0001.000  DATE = 05/21/26  00:01:15                  
%FLAG TITLE                                                                     
%FORMAT(20a4)                                                                   
naphthalene                                                                     
%FLAG POINTERS                                                                  
%FORMAT(10I8)                                                                   
      18       2       8      11      16      14      34      20       0       0
      91       1      11      14      20       2       2       2       2       0
       0       0       0       0       0       0       0       0      18       0
       0
%FLAG ATOM_NAME                                                                 
%FORMAT(20a4)                                                                   
C1  C2  C3  C4  C5  C6  C7  C8  C9  C10 H1  H2  H3  H4  H5  H6  H7  H8  
%FLAG CHARGE                                                                    
%FORMAT(5E16.8)                                                                 
 -2.33245440E+00 -2.33245440E+00 -2.33245440E+00 -2.33245440E+00 -2.13200910E+00
 -2.13200910E+00 -2.13200910E+00 -2.13200910E+00 -6.74225100E-01 -6.74225100E-01
  2.40534360E+00  2.40534360E+00  2.40534360E+00  2.40534360E+00  2.40534360E+00
  2.40534360E+00  2.40534360E+00  2.40534360E+00
%FLAG ATOMIC_NUMBER                                                             
%FORMAT(10I8)                                                                   
       6       6       6       6       6       6       6       6       6       6
       1       1       1       1       1       1       1       1
%FLAG MASS                                                                      
%FORMAT(5E16.8)                                                                 
  1.20100000E+01  1.20100000E+01  1.20100000E+01  1.20100000E+01  1.20100000E+01
  1.20100000E+01  1.20100000E+01  1.20100000E+01  1.20100000E+01  1.20100000E+01
  1.00800000E+00  1.00800000E+00  1.00800000E+00  1.00800000E+00  1.00800000E+00
  1.00800000E+00  1.00800000E+00  1.00800000E+00
%FLAG ATOM_TYPE_INDEX                                                           
%FORMAT(10I8)                                                                   
       1       1       1       1       1       1       1       1       1       1
       2       2       2       2       2       2       2       2
%FLAG NUMBER_EXCLUDED_ATOMS                                                     
%FORMAT(10I8)                                                                   
      10       9      10       9       9       8       7       6       7       6
       2       1       2       1       1       1       1       1
%FLAG NONBONDED_PARM_INDEX                                                      
%FORMAT(10I8)                                                                   
       1       2       2       3
%FLAG RESIDUE_LABEL                                                             
%FORMAT(20a4)                                                                   
MOL 
%FLAG RESIDUE_POINTER                                                           
%FORMAT(10I8)                                                                   
       1
%FLAG BOND_FORCE_CONSTANT                                                       
%FORMAT(5E16.8)                                                                 
  3.54250000E+02  3.60690000E+02
%FLAG BOND_EQUIL_VALUE                                                          
%FORMAT(5E16.8)                                                                 
  1.39860000E+00  1.08600000E+00
%FLAG ANGLE_FORCE_CONSTANT                                                      
%FORMAT(5E16.8)                                                                 
  6.36700000E+01  4.49000000E+01
%FLAG ANGLE_EQUIL_VALUE                                                         
%FORMAT(5E16.8)                                                                 
  2.09474507E+00  2.09230160E+00
%FLAG DIHEDRAL_FORCE_CONSTANT                                                   
%FORMAT(5E16.8)                                                                 
  3.62500000E+00  1.10000000E+00
%FLAG DIHEDRAL_PERIODICITY                                                      
%FORMAT(5E16.8)                                                                 
  2.00000000E+00  2.00000000E+00
%FLAG DIHEDRAL_PHASE                                                            
%FORMAT(5E16.8)                                                                 
  3.14159400E+00  3.14159400E+00
%FLAG SCEE_SCALE_FACTOR                                                         
%FORMAT(5E16.8)                                                                 
  1.20000000E+00  0.00000000E+00
%FLAG SCNB_SCALE_FACTOR                                                         
%FORMAT(5E16.8)                                                                 
  2.00000000E+00  0.00000000E+00
%FLAG SOLTY                                                                     
%FORMAT(5E16.8)                                                                 
  0.00000000E+00  0.00000000E+00
%FLAG LENNARD_JONES_ACOEF                                                       
%FORMAT(5E16.8)                                                                 
  6.96551276E+05  7.52549148E+04  6.90855956E+03
%FLAG LENNARD_JONES_BCOEF                                                       
%FORMAT(5E16.8)                                                                 
  5.24668528E+02  1.09570372E+02  2.10929191E+01
%FLAG BONDS_INC_HYDROGEN                                                        
%FORMAT(10I8)                                                                   
       0      30       2       3      33       2       6      36       2       9
      39       2      12      42       2      15      45       2      18      48
       2      21      51       2
%FLAG BONDS_WITHOUT_HYDROGEN                                                    
%FORMAT(10I8)                                                                   
       0       3       1       0      12       1       3      15       1       6
       9       1       6      18       1       9      21       1      12      24
       1      15      27       1      18      24       1      21      27       1
      24      27       1
%FLAG ANGLES_INC_HYDROGEN                                                       
%FORMAT(10I8)                                                                   
       0       3      33       2       0      12      42       2       3       0
      30       2       3      15      45       2       6       9      39       2
       6      18      48       2       9       6      36       2       9      21
      51       2      12       0      30       2      15       3      33       2
      18       6      36       2      21       9      39       2      24      12
      42       2      24      18      48       2      27      15      45       2
      27      21      51       2
%FLAG ANGLES_WITHOUT_HYDROGEN                                                   
%FORMAT(10I8)                                                                   
       0       3      15       1       0      12      24       1       3       0
      12       1       3      15      27       1       6       9      21       1
       6      18      24       1       9       6      18       1       9      21
      27       1      12      24      18       1      12      24      27       1
      15      27      21       1      15      27      24       1      18      24
      27       1      21      27      24       1
%FLAG DIHEDRALS_INC_HYDROGEN                                                    
%FORMAT(10I8)                                                                   
       0       3      15      45       1       3       0      12      42       1
       6       9      21      51       1       9       6      18      48       1
      12       0       3      33       1      12      24      18      48       1
      30       0       3      15       1      15      27      21      51       1
      18       6       9      39       1      18      24      12      42       1
      21       9       6      36       1      21      27      15      45       1
      30       0      12      24       1      24      18       6      36       1
      24      27      15      45       1      24      27      21      51       1
      27      15       3      33       1      27      21       9      39       1
      27      24      12      42       1      27      24      18      48       1
      30       0       3      33       1      30       0      12      42       1
      33       3      15      45       1      36       6       9      39       1
      36       6      18      48       1      39       9      21      51       1
      30       0     -12      -3       2       0      15      -3     -33       2
       9      18      -6     -36       2       6      21      -9     -39       2
       0      24     -12     -42       2       3      27     -15     -45       2
       6      24     -18     -48       2       9      27     -21     -51       2
%FLAG DIHEDRALS_WITHOUT_HYDROGEN                                                
%FORMAT(10I8)                                                                   
       0       3      15      27       1       0      12      24      18       1
       0      12     -24      27       1       3       0      12      24       1
       3      15      27      21       1       3      15     -27      24       1
       6       9      21      27       1       6      18      24      12       1
       6      18     -24      27       1       9       6      18      24       1
       9      21      27      15       1       9      21     -27      24       1
      12       0       3      15       1      12      24     -27      15       1
      12      24      27      21       1      15      27      24      18       1
      18       6       9      21       1      18      24     -27      21       1
      12      18     -24     -27       2      15      21     -27     -24       2
%FLAG EXCLUDED_ATOMS_LIST                                                       
%FORMAT(10I8)                                                                   
       2       5       6       7       9      10      11      12      15      16
       5       6       8       9      10      11      12      15      16       4
       5       7       8       9      10      13      14      17      18       6
       7       8       9      10      13      14      17      18       6       7
       8       9      10      11      12      15      17       7       8       9
      10      11      12      16      18       8       9      10      13      14
      15      17       9      10      13      14      16      18      10      11
      13      15      16      17      18      12      14      15      16      17
      18      12      15      16      14      17      18       0       0       0
       0
%FLAG HBOND_ACOEF                                                               
%FORMAT(5E16.8)                                                                 

%FLAG HBOND_BCOEF                                                               
%FORMAT(5E16.8)                                                                 

%FLAG HBCUT                                                                     
%FORMAT(5E16.8)                                                                 

%FLAG AMBER_ATOM_TYPE                                                           
%FORMAT(20a4)                                                                   
ca  ca  ca  ca  ca  ca  ca  ca  ca  ca  ha  ha  ha  ha  ha  ha  ha  ha  
%FLAG TREE_CHAIN_CLASSIFICATION                                                 
%FORMAT(20a4)                                                                   
BLA BLA BLA BLA BLA BLA BLA BLA BLA BLA BLA BLA BLA BLA BLA BLA BLA BLA 
%FLAG JOIN_ARRAY                                                                
%FORMAT(10I8)                                                                   
       0       0       0       0       0       0       0       0       0       0
       0       0       0       0       0       0       0       0
%FLAG IROTAT                                                                    
%FORMAT(10I8)                                                                   
       0       0       0       0       0       0       0       0       0       0
       0       0       0       0       0       0       0       0
%FLAG RADIUS_SET                                                                
%FORMAT(1a80)                                                                   
modified Bondi radii (mbondi)                                                   
%FLAG RADII                                                                     
%FORMAT(5E16.8)                                                                 
  1.70000000E+00  1.70000000E+00  1.70000000E+00  1.70000000E+00  1.70000000E+00
  1.70000000E+00  1.70000000E+00  1.70000000E+00  1.70000000E+00  1.70000000E+00
  1.30000000E+00  1.30000000E+00  1.30000000E+00  1.30000000E+00  1.30000000E+00
  1.30000000E+00  1.30000000E+00  1.30000000E+00
%FLAG SCREEN                                                                    
%FORMAT(5E16.8)                                                                 
  7.20000000E-01  7.20000000E-01  7.20000000E-01  7.20000000E-01  7.20000000E-01
  7.20000000E-01  7.20000000E-01  7.20000000E-01  7.20000000E-01  7.20000000E-01
  8.50000000E-01  8.50000000E-01  8.50000000E-01  8.50000000E-01  8.50000000E-01
  8.50000000E-01  8.50000000E-01  8.50000000E-01
%FLAG IPOL                                                                      
%FORMAT(1I8)                                                                    
       0
