naphthalene
    18
  -0.5590000  -2.0540000   0.3110000   0.3410000  -1.0310000   0.0250000
   3.0180000  -5.3220000  -0.1350000   3.9170000  -4.2990000  -0.4200000
  -0.1220000  -3.3790000   0.3440000   1.6800000  -1.3290000  -0.2290000
   1.6790000  -5.0240000   0.1190000   3.4810000  -2.9740000  -0.4530000
   1.2220000  -3.6970000   0.0910000   2.1360000  -2.6560000  -0.2000000
  -1.6010000  -1.8220000   0.5090000  -0.0010000  -0.0000000  -0.0010000
   3.3580000  -6.3540000  -0.1090000   4.9600000  -4.5320000  -0.6170000
  -0.8430000  -4.1620000   0.5690000   2.3650000  -0.5130000  -0.4500000
   0.9940000  -5.8400000   0.3420000   4.2010000  -2.1910000  -0.6780000
