methyl_octanoate
    29
   3.3840000  -8.3150000  -1.2420000   0.6180000   0.1200000  -0.7580000
   4.2190000 -10.5120000  -0.9720000   3.0540000  -7.0610000  -0.4620000
   0.9420000  -1.1340000  -1.5540000   2.5620000  -5.9150000  -1.3450000
   1.4910000  -2.2420000  -0.6550000   2.3010000  -4.6320000  -0.5490000
   1.7830000  -3.5130000  -1.4540000   3.2870000  -8.4370000  -2.4550000
   3.8350000  -9.2700000  -0.3750000   1.5130000   0.5130000  -0.2650000
  -0.1360000  -0.0850000   0.0090000   0.2260000   0.8980000  -1.4200000
   4.5200000 -11.2150000  -0.1920000   5.0470000 -10.3440000  -1.6650000
   3.3660000 -10.9220000  -1.5190000   3.9710000  -6.7500000   0.0520000
   2.2960000  -7.2960000   0.2930000   0.0350000  -1.4820000  -2.0620000
   1.6740000  -0.8880000  -2.3310000   1.6520000  -6.2120000  -1.8800000
   3.3260000  -5.7100000  -2.1060000   2.4090000  -1.8960000  -0.1650000
   0.7660000  -2.4650000   0.1370000   3.2290000  -4.3090000  -0.0620000
   1.5710000  -4.8240000   0.2460000   2.5260000  -3.2960000  -2.2310000
   0.8700000  -3.8450000  -1.9630000
