; mobley_7608435_GMX_OPLS.itp created by acpype (v: 2023.10.27) on Wed May 20 23:52:37 2026

; For OPLS atomtypes manual fine tuning
; AC_at:OPLS_at:OPLScode: Possible_Alternatives (see ffoplsaa.atp and ffoplsaanb.itp)
; c:C:opls_235: ['271']
; c3:CT:opls_135: ['136', '137', '149', '157', '158', '206', '209', '210', '223B', '224B', '245', '246', '274', '283', '284', '285', '292', '292B', '293B', '296', '307', '308', '505']
; o:O:opls_236: ['272']
; os:x:opls_x: []
; hc:HC:opls_140: []
; h1:HC:opls_140: []

[ moleculetype ]
;name            nrexcl
 mobley_7608435   3

[ atoms ]
;   nr  type  resi  res  atom  cgnr     charge      mass       ; qtot   bond_type
     1 opls_235     1   MOL    C1    1     0.628100     12.01100 ; qtot  0.628  C   
     2 opls_135     1   MOL    C2    2    -0.093100     12.01100 ; qtot  0.535  CT  
     3 opls_135     1   MOL    C3    3     0.125700     12.01100 ; qtot  0.661  CT  
     4 opls_135     1   MOL    C4    4    -0.126400     12.01100 ; qtot  0.534  CT  
     5 opls_135     1   MOL    C5    5    -0.080400     12.01100 ; qtot  0.454  CT  
     6 opls_135     1   MOL    C6    6    -0.079400     12.01100 ; qtot  0.375  CT  
     7 opls_135     1   MOL    C7    7    -0.079400     12.01100 ; qtot  0.295  CT  
     8 opls_135     1   MOL    C8    8    -0.078400     12.01100 ; qtot  0.217  CT  
     9 opls_135     1   MOL    C9    9    -0.079400     12.01100 ; qtot  0.137  CT  
    10 opls_236     1   MOL    O1   10    -0.541000     15.99940 ; qtot -0.404  O   
    11 opls_x     1   MOL    O2   11    -0.443900      0.00000 ; qtot -0.848  x   
    12 opls_140     1   MOL    H1   12     0.033033      1.00800 ; qtot -0.815  HC  
    13 opls_140     1   MOL    H2   13     0.033033      1.00800 ; qtot -0.782  HC  
    14 opls_140     1   MOL    H3   14     0.033033      1.00800 ; qtot -0.749  HC  
    15 opls_140     1   MOL    H4   15     0.050367      1.00800 ; qtot -0.698  HC  
    16 opls_140     1   MOL    H5   16     0.050367      1.00800 ; qtot -0.648  HC  
    17 opls_140     1   MOL    H6   17     0.050367      1.00800 ; qtot -0.597  HC  
    18 opls_140     1   MOL    H7   18     0.078200      1.00800 ; qtot -0.519  HC  
    19 opls_140     1   MOL    H8   19     0.078200      1.00800 ; qtot -0.441  HC  
    20 opls_140     1   MOL    H9   20     0.039200      1.00800 ; qtot -0.402  HC  
    21 opls_140     1   MOL   H10   21     0.039200      1.00800 ; qtot -0.363  HC  
    22 opls_140     1   MOL   H11   22     0.057700      1.00800 ; qtot -0.305  HC  
    23 opls_140     1   MOL   H12   23     0.057700      1.00800 ; qtot -0.247  HC  
    24 opls_140     1   MOL   H13   24     0.039700      1.00800 ; qtot -0.207  HC  
    25 opls_140     1   MOL   H14   25     0.039700      1.00800 ; qtot -0.168  HC  
    26 opls_140     1   MOL   H15   26     0.041200      1.00800 ; qtot -0.127  HC  
    27 opls_140     1   MOL   H16   27     0.041200      1.00800 ; qtot -0.085  HC  
    28 opls_140     1   MOL   H17   28     0.042700      1.00800 ; qtot -0.043  HC  
    29 opls_140     1   MOL   H18   29     0.042700      1.00800 ; qtot  0.000  HC  

[ bonds ]
;   ai     aj funct   r             k
     1      4   1 ;    1.5270e-01    1.9652e+05 ;     C1 - C4          C - CT    
     1     10   1 ;    1.2190e-01    4.9421e+05 ;     C1 - O1          C - O     
     1     11   1 ;    1.3621e-01    2.9398e+05 ;     C1 - O2          C - x     
     2      5   1 ;    1.5354e-01    1.9154e+05 ;     C2 - C5         CT - CT    
     2     12   1 ;    1.0962e-01    2.8891e+05 ;     C2 - H1         CT - HC    
     2     13   1 ;    1.0962e-01    2.8891e+05 ;     C2 - H2         CT - HC    
     2     14   1 ;    1.0962e-01    2.8891e+05 ;     C2 - H3         CT - HC    
     3     11   1 ;    1.4273e-01    2.3620e+05 ;     C3 - O2         CT - x     
     3     15   1 ;    1.0969e-01    2.8804e+05 ;     C3 - H4         CT - HC    
     3     16   1 ;    1.0969e-01    2.8804e+05 ;     C3 - H5         CT - HC    
     3     17   1 ;    1.0969e-01    2.8804e+05 ;     C3 - H6         CT - HC    
     4      6   1 ;    1.5354e-01    1.9154e+05 ;     C4 - C6         CT - CT    
     4     18   1 ;    1.0962e-01    2.8891e+05 ;     C4 - H7         CT - HC    
     4     19   1 ;    1.0962e-01    2.8891e+05 ;     C4 - H8         CT - HC    
     5      7   1 ;    1.5354e-01    1.9154e+05 ;     C5 - C7         CT - CT    
     5     20   1 ;    1.0962e-01    2.8891e+05 ;     C5 - H9         CT - HC    
     5     21   1 ;    1.0962e-01    2.8891e+05 ;     C5 - H10        CT - HC    
     6      8   1 ;    1.5354e-01    1.9154e+05 ;     C6 - C8         CT - CT    
     6     22   1 ;    1.0962e-01    2.8891e+05 ;     C6 - H11        CT - HC    
     6     23   1 ;    1.0962e-01    2.8891e+05 ;     C6 - H12        CT - HC    
     7      9   1 ;    1.5354e-01    1.9154e+05 ;     C7 - C9         CT - CT    
     7     24   1 ;    1.0962e-01    2.8891e+05 ;     C7 - H13        CT - HC    
     7     25   1 ;    1.0962e-01    2.8891e+05 ;     C7 - H14        CT - HC    
     8      9   1 ;    1.5354e-01    1.9154e+05 ;     C8 - C9         CT - CT    
     8     26   1 ;    1.0962e-01    2.8891e+05 ;     C8 - H15        CT - HC    
     8     27   1 ;    1.0962e-01    2.8891e+05 ;     C8 - H16        CT - HC    
     9     28   1 ;    1.0962e-01    2.8891e+05 ;     C9 - H17        CT - HC    
     9     29   1 ;    1.0962e-01    2.8891e+05 ;     C9 - H18        CT - HC    

[ pairs ]
;   ai     aj    funct
     1      8      1 ;     C1 - C8    
     1     15      1 ;     C1 - H4    
     1     16      1 ;     C1 - H5    
     1     17      1 ;     C1 - H6    
     1     22      1 ;     C1 - H11   
     1     23      1 ;     C1 - H12   
     2      9      1 ;     C2 - C9    
     2     24      1 ;     C2 - H13   
     2     25      1 ;     C2 - H14   
     4      3      1 ;     C4 - C3    
     4      9      1 ;     C4 - C9    
     4     26      1 ;     C4 - H15   
     4     27      1 ;     C4 - H16   
     5      8      1 ;     C5 - C8    
     5     28      1 ;     C5 - H17   
     5     29      1 ;     C5 - H18   
     6      7      1 ;     C6 - C7    
     6     28      1 ;     C6 - H17   
     6     29      1 ;     C6 - H18   
     7     12      1 ;     C7 - H1    
     7     13      1 ;     C7 - H2    
     7     14      1 ;     C7 - H3    
     7     26      1 ;     C7 - H15   
     7     27      1 ;     C7 - H16   
     8     18      1 ;     C8 - H7    
     8     19      1 ;     C8 - H8    
     8     24      1 ;     C8 - H13   
     8     25      1 ;     C8 - H14   
     9     20      1 ;     C9 - H9    
     9     21      1 ;     C9 - H10   
     9     22      1 ;     C9 - H11   
     9     23      1 ;     C9 - H12   
    10      3      1 ;     O1 - C3    
    10      6      1 ;     O1 - C6    
    10     18      1 ;     O1 - H7    
    10     19      1 ;     O1 - H8    
    11      6      1 ;     O2 - C6    
    11     18      1 ;     O2 - H7    
    11     19      1 ;     O2 - H8    
    12     20      1 ;     H1 - H9    
    12     21      1 ;     H1 - H10   
    13     20      1 ;     H2 - H9    
    13     21      1 ;     H2 - H10   
    14     20      1 ;     H3 - H9    
    14     21      1 ;     H3 - H10   
    18     22      1 ;     H7 - H11   
    18     23      1 ;     H7 - H12   
    19     22      1 ;     H8 - H11   
    19     23      1 ;     H8 - H12   
    20     24      1 ;     H9 - H13   
    20     25      1 ;     H9 - H14   
    21     24      1 ;    H10 - H13   
    21     25      1 ;    H10 - H14   
    22     26      1 ;    H11 - H15   
    22     27      1 ;    H11 - H16   
    23     26      1 ;    H12 - H15   
    23     27      1 ;    H12 - H16   
    24     28      1 ;    H13 - H17   
    24     29      1 ;    H13 - H18   
    25     28      1 ;    H14 - H17   
    25     29      1 ;    H14 - H18   
    26     28      1 ;    H15 - H17   
    26     29      1 ;    H15 - H18   
    27     28      1 ;    H16 - H17   
    27     29      1 ;    H16 - H18   

[ angles ]
;   ai     aj     ak    funct   theta         cth
     1      4      6      1 ;    1.1143e+02    5.0509e+02 ;     C1 - C4   - C6        C -   CT - CT  
     1      4     18      1 ;    1.0895e+02    3.6510e+02 ;     C1 - C4   - H7        C -   CT - HC  
     1      4     19      1 ;    1.0895e+02    3.6510e+02 ;     C1 - C4   - H8        C -   CT - HC  
     1     11      3      1 ;    1.1582e+02    7.4835e+02 ;     C1 - O2   - C3        C -    x - CT  
     2      5      7      1 ;    1.1263e+02    5.0099e+02 ;     C2 - C5   - C7       CT -   CT - CT  
     2      5     20      1 ;    1.0968e+02    3.6208e+02 ;     C2 - C5   - H9       CT -   CT - HC  
     2      5     21      1 ;    1.0968e+02    3.6208e+02 ;     C2 - C5   - H10      CT -   CT - HC  
     4      1     10      1 ;    1.2290e+02    6.3973e+02 ;     C4 - C1   - O1       CT -    C - O   
     4      1     11      1 ;    1.1080e+02    6.5245e+02 ;     C4 - C1   - O2       CT -    C - x   
     4      6      8      1 ;    1.1263e+02    5.0099e+02 ;     C4 - C6   - C8       CT -   CT - CT  
     4      6     22      1 ;    1.0968e+02    3.6208e+02 ;     C4 - C6   - H11      CT -   CT - HC  
     4      6     23      1 ;    1.0968e+02    3.6208e+02 ;     C4 - C6   - H12      CT -   CT - HC  
     5      2     12      1 ;    1.0968e+02    3.6208e+02 ;     C5 - C2   - H1       CT -   CT - HC  
     5      2     13      1 ;    1.0968e+02    3.6208e+02 ;     C5 - C2   - H2       CT -   CT - HC  
     5      2     14      1 ;    1.0968e+02    3.6208e+02 ;     C5 - C2   - H3       CT -   CT - HC  
     5      7      9      1 ;    1.1263e+02    5.0099e+02 ;     C5 - C7   - C9       CT -   CT - CT  
     5      7     24      1 ;    1.0968e+02    3.6208e+02 ;     C5 - C7   - H13      CT -   CT - HC  
     5      7     25      1 ;    1.0968e+02    3.6208e+02 ;     C5 - C7   - H14      CT -   CT - HC  
     6      4     18      1 ;    1.0968e+02    3.6208e+02 ;     C6 - C4   - H7       CT -   CT - HC  
     6      4     19      1 ;    1.0968e+02    3.6208e+02 ;     C6 - C4   - H8       CT -   CT - HC  
     6      8      9      1 ;    1.1263e+02    5.0099e+02 ;     C6 - C8   - C9       CT -   CT - CT  
     6      8     26      1 ;    1.0968e+02    3.6208e+02 ;     C6 - C8   - H15      CT -   CT - HC  
     6      8     27      1 ;    1.0968e+02    3.6208e+02 ;     C6 - C8   - H16      CT -   CT - HC  
     7      5     20      1 ;    1.0968e+02    3.6208e+02 ;     C7 - C5   - H9       CT -   CT - HC  
     7      5     21      1 ;    1.0968e+02    3.6208e+02 ;     C7 - C5   - H10      CT -   CT - HC  
     7      9      8      1 ;    1.1263e+02    5.0099e+02 ;     C7 - C9   - C8       CT -   CT - CT  
     7      9     28      1 ;    1.0968e+02    3.6208e+02 ;     C7 - C9   - H17      CT -   CT - HC  
     7      9     29      1 ;    1.0968e+02    3.6208e+02 ;     C7 - C9   - H18      CT -   CT - HC  
     8      6     22      1 ;    1.0968e+02    3.6208e+02 ;     C8 - C6   - H11      CT -   CT - HC  
     8      6     23      1 ;    1.0968e+02    3.6208e+02 ;     C8 - C6   - H12      CT -   CT - HC  
     8      9     28      1 ;    1.0968e+02    3.6208e+02 ;     C8 - C9   - H17      CT -   CT - HC  
     8      9     29      1 ;    1.0968e+02    3.6208e+02 ;     C8 - C9   - H18      CT -   CT - HC  
     9      7     24      1 ;    1.0968e+02    3.6208e+02 ;     C9 - C7   - H13      CT -   CT - HC  
     9      7     25      1 ;    1.0968e+02    3.6208e+02 ;     C9 - C7   - H14      CT -   CT - HC  
     9      8     26      1 ;    1.0968e+02    3.6208e+02 ;     C9 - C8   - H15      CT -   CT - HC  
     9      8     27      1 ;    1.0968e+02    3.6208e+02 ;     C9 - C8   - H16      CT -   CT - HC  
    10      1     11      1 ;    1.2320e+02    8.4734e+02 ;     O1 - C1   - O2        O -    C - x   
    11      3     15      1 ;    1.1034e+02    4.7028e+02 ;     O2 - C3   - H4        x -   CT - HC  
    11      3     16      1 ;    1.1034e+02    4.7028e+02 ;     O2 - C3   - H5        x -   CT - HC  
    11      3     17      1 ;    1.1034e+02    4.7028e+02 ;     O2 - C3   - H6        x -   CT - HC  
    12      2     13      1 ;    1.0773e+02    2.9957e+02 ;     H1 - C2   - H2       HC -   CT - HC  
    12      2     14      1 ;    1.0773e+02    2.9957e+02 ;     H1 - C2   - H3       HC -   CT - HC  
    13      2     14      1 ;    1.0773e+02    2.9957e+02 ;     H2 - C2   - H3       HC -   CT - HC  
    15      3     16      1 ;    1.0855e+02    2.9824e+02 ;     H4 - C3   - H5       HC -   CT - HC  
    15      3     17      1 ;    1.0855e+02    2.9824e+02 ;     H4 - C3   - H6       HC -   CT - HC  
    16      3     17      1 ;    1.0855e+02    2.9824e+02 ;     H5 - C3   - H6       HC -   CT - HC  
    18      4     19      1 ;    1.0773e+02    2.9957e+02 ;     H7 - C4   - H8       HC -   CT - HC  
    20      5     21      1 ;    1.0773e+02    2.9957e+02 ;     H9 - C5   - H10      HC -   CT - HC  
    22      6     23      1 ;    1.0773e+02    2.9957e+02 ;    H11 - C6   - H12      HC -   CT - HC  
    24      7     25      1 ;    1.0773e+02    2.9957e+02 ;    H13 - C7   - H14      HC -   CT - HC  
    26      8     27      1 ;    1.0773e+02    2.9957e+02 ;    H15 - C8   - H16      HC -   CT - HC  
    28      9     29      1 ;    1.0773e+02    2.9957e+02 ;    H17 - C9   - H18      HC -   CT - HC  

[ dihedrals ] ; propers
; for gromacs 4.5 or higher, using funct 9
;    i      j      k      l   func   phase     kd      pn
     1      4      6      8      9 ;     0.00   0.00000   0 ;     C1-    C4-    C6-    C8
     1      4      6      8      9 ;     0.00   0.16736   2 ;     C1-    C4-    C6-    C8
     1      4      6      8      9 ;   180.00   1.92464   1 ;     C1-    C4-    C6-    C8
     1      4      6     22      9 ;     0.00   0.65084   3 ;     C1-    C4-    C6-   H11
     1      4      6     23      9 ;     0.00   0.65084   3 ;     C1-    C4-    C6-   H12
     1     11      3     15      9 ;     0.00   1.60387   3 ;     C1-    O2-    C3-    H4
     1     11      3     16      9 ;     0.00   1.60387   3 ;     C1-    O2-    C3-    H5
     1     11      3     17      9 ;     0.00   1.60387   3 ;     C1-    O2-    C3-    H6
     2      5      7      9      9 ;     0.00   2.17568   3 ;     C2-    C5-    C7-    C9
     2      5      7     24      9 ;     0.00   0.54392   3 ;     C2-    C5-    C7-   H13
     2      5      7     25      9 ;     0.00   0.54392   3 ;     C2-    C5-    C7-   H14
     4      1     11      3      9 ;     0.00   3.13800   3 ;     C4-    C1-    O2-    C3
     4      1     11      3      9 ;   180.00   7.90776   1 ;     C4-    C1-    O2-    C3
     4      1     11      3      9 ;   180.00  13.76536   2 ;     C4-    C1-    O2-    C3
     4      6      8      9      9 ;     0.00   2.17568   3 ;     C4-    C6-    C8-    C9
     4      6      8     26      9 ;     0.00   0.54392   3 ;     C4-    C6-    C8-   H15
     4      6      8     27      9 ;     0.00   0.54392   3 ;     C4-    C6-    C8-   H16
     5      7      9      8      9 ;     0.00   2.17568   3 ;     C5-    C7-    C9-    C8
     5      7      9     28      9 ;     0.00   0.54392   3 ;     C5-    C7-    C9-   H17
     5      7      9     29      9 ;     0.00   0.54392   3 ;     C5-    C7-    C9-   H18
     6      8      9      7      9 ;     0.00   2.17568   3 ;     C6-    C8-    C9-    C7
     6      8      9     28      9 ;     0.00   0.54392   3 ;     C6-    C8-    C9-   H17
     6      8      9     29      9 ;     0.00   0.54392   3 ;     C6-    C8-    C9-   H18
     7      5      2     12      9 ;     0.00   0.54392   3 ;     C7-    C5-    C2-    H1
     7      5      2     13      9 ;     0.00   0.54392   3 ;     C7-    C5-    C2-    H2
     7      5      2     14      9 ;     0.00   0.54392   3 ;     C7-    C5-    C2-    H3
     7      9      8     26      9 ;     0.00   0.54392   3 ;     C7-    C9-    C8-   H15
     7      9      8     27      9 ;     0.00   0.54392   3 ;     C7-    C9-    C8-   H16
     8      6      4     18      9 ;     0.00   0.54392   3 ;     C8-    C6-    C4-    H7
     8      6      4     19      9 ;     0.00   0.54392   3 ;     C8-    C6-    C4-    H8
     8      9      7     24      9 ;     0.00   0.54392   3 ;     C8-    C9-    C7-   H13
     8      9      7     25      9 ;     0.00   0.54392   3 ;     C8-    C9-    C7-   H14
     9      7      5     20      9 ;     0.00   0.54392   3 ;     C9-    C7-    C5-    H9
     9      7      5     21      9 ;     0.00   0.54392   3 ;     C9-    C7-    C5-   H10
     9      8      6     22      9 ;     0.00   0.54392   3 ;     C9-    C8-    C6-   H11
     9      8      6     23      9 ;     0.00   0.54392   3 ;     C9-    C8-    C6-   H12
    10      1      4      6      9 ;     0.00   2.84512   1 ;     O1-    C1-    C4-    C6
    10      1      4      6      9 ;   180.00   0.83680   2 ;     O1-    C1-    C4-    C6
    10      1      4      6      9 ;   180.00   1.84096   3 ;     O1-    C1-    C4-    C6
    10      1      4     18      9 ;     0.00  16.86152   1 ;     O1-    C1-    C4-    H7
    10      1      4     18      9 ;   180.00  15.31344   2 ;     O1-    C1-    C4-    H7
    10      1      4     19      9 ;     0.00  16.86152   1 ;     O1-    C1-    C4-    H8
    10      1      4     19      9 ;   180.00  15.31344   2 ;     O1-    C1-    C4-    H8
    10      1     11      3      9 ;   180.00   5.85760   1 ;     O1-    C1-    O2-    C3
    10      1     11      3      9 ;   180.00  11.29680   2 ;     O1-    C1-    O2-    C3
    11      1      4      6      9 ;   180.00   0.00000   2 ;     O2-    C1-    C4-    C6
    11      1      4     18      9 ;   180.00   0.00000   2 ;     O2-    C1-    C4-    H7
    11      1      4     19      9 ;   180.00   0.00000   2 ;     O2-    C1-    C4-    H8
    12      2      5     20      9 ;     0.00   0.50208   3 ;     H1-    C2-    C5-    H9
    12      2      5     21      9 ;     0.00   0.50208   3 ;     H1-    C2-    C5-   H10
    13      2      5     20      9 ;     0.00   0.50208   3 ;     H2-    C2-    C5-    H9
    13      2      5     21      9 ;     0.00   0.50208   3 ;     H2-    C2-    C5-   H10
    14      2      5     20      9 ;     0.00   0.50208   3 ;     H3-    C2-    C5-    H9
    14      2      5     21      9 ;     0.00   0.50208   3 ;     H3-    C2-    C5-   H10
    18      4      6     22      9 ;     0.00   0.50208   3 ;     H7-    C4-    C6-   H11
    18      4      6     23      9 ;     0.00   0.50208   3 ;     H7-    C4-    C6-   H12
    19      4      6     22      9 ;     0.00   0.50208   3 ;     H8-    C4-    C6-   H11
    19      4      6     23      9 ;     0.00   0.50208   3 ;     H8-    C4-    C6-   H12
    20      5      7     24      9 ;     0.00   0.50208   3 ;     H9-    C5-    C7-   H13
    20      5      7     25      9 ;     0.00   0.50208   3 ;     H9-    C5-    C7-   H14
    21      5      7     24      9 ;     0.00   0.50208   3 ;    H10-    C5-    C7-   H13
    21      5      7     25      9 ;     0.00   0.50208   3 ;    H10-    C5-    C7-   H14
    22      6      8     26      9 ;     0.00   0.50208   3 ;    H11-    C6-    C8-   H15
    22      6      8     27      9 ;     0.00   0.50208   3 ;    H11-    C6-    C8-   H16
    23      6      8     26      9 ;     0.00   0.50208   3 ;    H12-    C6-    C8-   H15
    23      6      8     27      9 ;     0.00   0.50208   3 ;    H12-    C6-    C8-   H16
    24      7      9     28      9 ;     0.00   0.50208   3 ;    H13-    C7-    C9-   H17
    24      7      9     29      9 ;     0.00   0.50208   3 ;    H13-    C7-    C9-   H18
    25      7      9     28      9 ;     0.00   0.50208   3 ;    H14-    C7-    C9-   H17
    25      7      9     29      9 ;     0.00   0.50208   3 ;    H14-    C7-    C9-   H18
    26      8      9     28      9 ;     0.00   0.50208   3 ;    H15-    C8-    C9-   H17
    26      8      9     29      9 ;     0.00   0.50208   3 ;    H15-    C8-    C9-   H18
    27      8      9     28      9 ;     0.00   0.50208   3 ;    H16-    C8-    C9-   H17
    27      8      9     29      9 ;     0.00   0.50208   3 ;    H16-    C8-    C9-   H18

[ dihedrals ] ; impropers
; treated as propers in GROMACS to use correct AMBER analytical function
;    i      j      k      l   func   phase     kd      pn
    11      1     10      4      4 ;   180.00   4.60240   2 ;     O2-    C1-    O1-    C4
