%VERSION  VERSION_STAMP = V0001.000  DATE = 05/20/26  23:52:53                  
%FLAG TITLE                                                                     
%FORMAT(20a4)                                                                   
methyl_octanoate                                                                
%FLAG POINTERS                                                                  
%FORMAT(10I8)                                                                   
      29       6      18      10      42      10      58      17       0       0
     147       1      10      10      17       7      11      20       6       0
       0       0       0       0       0       0       0       0      29       0
       0
%FLAG ATOM_NAME                                                                 
%FORMAT(20a4)                                                                   
C1  C2  C3  C4  C5  C6  C7  C8  C9  O1  O2  H1  H2  H3  H4  H5  H6  H7  H8  H9  
H10 H11 H12 H13 H14 H15 H16 H17 H18 
%FLAG CHARGE                                                                    
%FORMAT(5E16.8)                                                                 
  1.14636489E+01 -1.69649613E+00  2.29054311E+00 -2.30329872E+00 -1.46507292E+00
 -1.44685062E+00 -1.44685062E+00 -1.42862832E+00 -1.44685062E+00 -9.85826430E+00
 -8.08887897E+00  6.01937236E-01  6.01937236E-01  6.01937236E-01  9.17802584E-01
  9.17802584E-01  9.17802584E-01  1.42498386E+00  1.42498386E+00  7.14314160E-01
  7.14314160E-01  1.05142671E+00  1.05142671E+00  7.23425310E-01  7.23425310E-01
  7.50758760E-01  7.50758760E-01  7.78092210E-01  7.78092210E-01
%FLAG ATOMIC_NUMBER                                                             
%FORMAT(10I8)                                                                   
       6       6       6       6       6       6       6       6       6       8
       8       1       1       1       1       1       1       1       1       1
       1       1       1       1       1       1       1       1       1
%FLAG MASS                                                                      
%FORMAT(5E16.8)                                                                 
  1.20100000E+01  1.20100000E+01  1.20100000E+01  1.20100000E+01  1.20100000E+01
  1.20100000E+01  1.20100000E+01  1.20100000E+01  1.20100000E+01  1.60000000E+01
  1.60000000E+01  1.00800000E+00  1.00800000E+00  1.00800000E+00  1.00800000E+00
  1.00800000E+00  1.00800000E+00  1.00800000E+00  1.00800000E+00  1.00800000E+00
  1.00800000E+00  1.00800000E+00  1.00800000E+00  1.00800000E+00  1.00800000E+00
  1.00800000E+00  1.00800000E+00  1.00800000E+00  1.00800000E+00
%FLAG ATOM_TYPE_INDEX                                                           
%FORMAT(10I8)                                                                   
       1       2       2       2       2       2       2       2       2       3
       4       5       5       5       6       6       6       5       5       5
       5       5       5       5       5       5       5       5       5
%FLAG NUMBER_EXCLUDED_ATOMS                                                     
%FORMAT(10I8)                                                                   
      13      10       6      11      12      13      13      11      10       3
       5       4       3       2       2       1       1       3       2       3
       2       3       2       3       2       3       2       1       1
%FLAG NONBONDED_PARM_INDEX                                                      
%FORMAT(10I8)                                                                   
       1       2       4       7      11      16       2       3       5       8
      12      17       4       5       6       9      13      18       7       8
       9      10      14      19      11      12      13      14      15      20
      16      17      18      19      20      21
%FLAG RESIDUE_LABEL                                                             
%FORMAT(20a4)                                                                   
MOL 
%FLAG RESIDUE_POINTER                                                           
%FORMAT(10I8)                                                                   
       1
%FLAG BOND_FORCE_CONSTANT                                                       
%FORMAT(5E16.8)                                                                 
  2.34850000E+02  5.90600000E+02  3.51310000E+02  2.28890000E+02  3.45250000E+02
  2.82270000E+02  3.44220000E+02
%FLAG BOND_EQUIL_VALUE                                                          
%FORMAT(5E16.8)                                                                 
  1.52700000E+00  1.21900000E+00  1.36210000E+00  1.53540000E+00  1.09620000E+00
  1.42730000E+00  1.09690000E+00
%FLAG ANGLE_FORCE_CONSTANT                                                      
%FORMAT(5E16.8)                                                                 
  6.03600000E+01  4.36300000E+01  8.94300000E+01  5.98700000E+01  4.32700000E+01
  7.64500000E+01  7.79700000E+01  1.01260000E+02  5.62000000E+01  3.58000000E+01
  3.56400000E+01
%FLAG ANGLE_EQUIL_VALUE                                                         
%FORMAT(5E16.8)                                                                 
  1.94482122E+00  1.90153704E+00  2.02144121E+00  1.96576518E+00  1.91427794E+00
  2.14501057E+00  1.93382564E+00  2.15024656E+00  1.92579712E+00  1.88024401E+00
  1.89455572E+00
%FLAG DIHEDRAL_FORCE_CONSTANT                                                   
%FORMAT(5E16.8)                                                                 
  4.60000000E-01  4.00000000E-02  0.00000000E+00  1.55555556E-01  3.83333333E-01
  5.20000000E-01  1.30000000E-01  1.89000000E+00  3.29000000E+00  7.50000000E-01
  1.40000000E+00  2.70000000E+00  6.80000000E-01  2.00000000E-01  4.40000000E-01
  0.00000000E+00  4.03000000E+00  3.66000000E+00  1.20000000E-01  1.10000000E+00
%FLAG DIHEDRAL_PERIODICITY                                                      
%FORMAT(5E16.8)                                                                 
  1.00000000E+00  2.00000000E+00  3.00000000E+00  3.00000000E+00  3.00000000E+00
  3.00000000E+00  3.00000000E+00  1.00000000E+00  2.00000000E+00  3.00000000E+00
  1.00000000E+00  2.00000000E+00  1.00000000E+00  2.00000000E+00  3.00000000E+00
  2.00000000E+00  1.00000000E+00  2.00000000E+00  3.00000000E+00  2.00000000E+00
%FLAG DIHEDRAL_PHASE                                                            
%FORMAT(5E16.8)                                                                 
  3.14159400E+00  0.00000000E+00  0.00000000E+00  0.00000000E+00  0.00000000E+00
  0.00000000E+00  0.00000000E+00  3.14159400E+00  3.14159400E+00  0.00000000E+00
  3.14159400E+00  3.14159400E+00  0.00000000E+00  3.14159400E+00  3.14159400E+00
  3.14159400E+00  0.00000000E+00  3.14159400E+00  0.00000000E+00  3.14159400E+00
%FLAG SCEE_SCALE_FACTOR                                                         
%FORMAT(5E16.8)                                                                 
  1.20000000E+00  1.20000000E+00  1.20000000E+00  1.20000000E+00  1.20000000E+00
  1.20000000E+00  1.20000000E+00  1.20000000E+00  1.20000000E+00  1.20000000E+00
  1.20000000E+00  1.20000000E+00  1.20000000E+00  1.20000000E+00  1.20000000E+00
  1.20000000E+00  1.20000000E+00  1.20000000E+00  1.20000000E+00  0.00000000E+00
%FLAG SCNB_SCALE_FACTOR                                                         
%FORMAT(5E16.8)                                                                 
  2.00000000E+00  2.00000000E+00  2.00000000E+00  2.00000000E+00  2.00000000E+00
  2.00000000E+00  2.00000000E+00  2.00000000E+00  2.00000000E+00  2.00000000E+00
  2.00000000E+00  2.00000000E+00  2.00000000E+00  2.00000000E+00  2.00000000E+00
  2.00000000E+00  2.00000000E+00  2.00000000E+00  2.00000000E+00  0.00000000E+00
%FLAG SOLTY                                                                     
%FORMAT(5E16.8)                                                                 
  0.00000000E+00  0.00000000E+00  0.00000000E+00  0.00000000E+00  0.00000000E+00
  0.00000000E+00
%FLAG LENNARD_JONES_ACOEF                                                       
%FORMAT(5E16.8)                                                                 
  6.96551276E+05  8.43969952E+05  1.02073671E+06  5.17507491E+05  6.30925504E+05
  3.76435470E+05  4.46121722E+05  5.42502534E+05  3.27367585E+05  2.83662575E+05
  8.12662403E+04  1.00235148E+05  5.68021765E+04  5.02224902E+04  7.94617769E+03
  5.63013422E+04  6.97998263E+04  3.86646725E+04  3.44374471E+04  5.22955465E+03
  3.39005767E+03
%FLAG LENNARD_JONES_BCOEF                                                       
%FORMAT(5E16.8)                                                                 
  5.24668528E+02  5.90251928E+02  6.63431737E+02  4.98871431E+02  5.62969425E+02
  4.69350655E+02  3.88758656E+02  4.38146883E+02  3.67361018E+02  2.87011518E+02
  1.21392023E+02  1.37787728E+02  1.11953944E+02  8.83545880E+01  2.57122925E+01
  1.01040256E+02  1.14981426E+02  9.23664132E+01  7.31636661E+01  2.08590256E+01
  1.67944276E+01
%FLAG BONDS_INC_HYDROGEN                                                        
%FORMAT(10I8)                                                                   
       3      33       5       3      36       5       3      39       5       6
      42       7       6      45       7       6      48       7       9      51
       5       9      54       5      12      57       5      12      60       5
      15      63       5      15      66       5      18      69       5      18
      72       5      21      75       5      21      78       5      24      81
       5      24      84       5
%FLAG BONDS_WITHOUT_HYDROGEN                                                    
%FORMAT(10I8)                                                                   
       0       9       1       0      27       2       0      30       3       3
      12       4       6      30       6       9      15       4      12      18
       4      15      21       4      18      24       4      21      24       4
%FLAG ANGLES_INC_HYDROGEN                                                       
%FORMAT(10I8)                                                                   
       0       9      51       2       0       9      54       2       3      12
      57       5       3      12      60       5       9      15      63       5
       9      15      66       5      12       3      33       5      12       3
      36       5      12       3      39       5      12      18      69       5
      12      18      72       5      15       9      51       5      15       9
      54       5      15      21      75       5      15      21      78       5
      18      12      57       5      18      12      60       5      18      24
      81       5      18      24      84       5      21      15      63       5
      21      15      66       5      21      24      81       5      21      24
      84       5      24      18      69       5      24      18      72       5
      24      21      75       5      24      21      78       5      30       6
      42       9      30       6      45       9      30       6      48       9
      33       3      36      10      33       3      39      10      36       3
      39      10      42       6      45      11      42       6      48      11
      45       6      48      11      51       9      54      10      57      12
      60      10      63      15      66      10      69      18      72      10
      75      21      78      10      81      24      84      10
%FLAG ANGLES_WITHOUT_HYDROGEN                                                   
%FORMAT(10I8)                                                                   
       0       9      15       1       0      30       6       3       3      12
      18       4       9       0      27       6       9       0      30       7
       9      15      21       4      12      18      24       4      15      21
      24       4      18      24      21       4      27       0      30       8
%FLAG DIHEDRALS_INC_HYDROGEN                                                    
%FORMAT(10I8)                                                                   
       0       9      15      63       4       0       9      15      66       4
       0      30       6      42       5       0      30       6      45       5
       0      30       6      48       5       3      12      18      69       7
       3      12      18      72       7       9      15      21      75       7
       9      15      21      78       7      12      18      24      81       7
      12      18      24      84       7      15      21      24      81       7
      15      21      24      84       7      18      12       3      33       7
      18      12       3      36       7      18      12       3      39       7
      18      24      21      75       7      18      24      21      78       7
      21      15       9      51       7      21      15       9      54       7
      21      24      18      69       7      21      24      18      72       7
      24      18      12      57       7      24      18      12      60       7
      24      21      15      63       7      24      21      15      66       7
      27       0       9      51      17      27       0      -9      51      18
      27       0       9      54      17      27       0      -9      54      18
      30       0       9      51      16      30       0       9      54      16
      33       3      12      57      19      33       3      12      60      19
      36       3      12      57      19      36       3      12      60      19
      39       3      12      57      19      39       3      12      60      19
      51       9      15      63      19      51       9      15      66      19
      54       9      15      63      19      54       9      15      66      19
      57      12      18      69      19      57      12      18      72      19
      60      12      18      69      19      60      12      18      72      19
      63      15      21      75      19      63      15      21      78      19
      66      15      21      75      19      66      15      21      78      19
      69      18      24      81      19      69      18      24      84      19
      72      18      24      81      19      72      18      24      84      19
      75      21      24      81      19      75      21      24      84      19
      78      21      24      81      19      78      21      24      84      19
%FLAG DIHEDRALS_WITHOUT_HYDROGEN                                                
%FORMAT(10I8)                                                                   
       0       9      15      21       1       0       9     -15      21       2
       0       9     -15      21       3       3      12      18      24       6
       9       0      30       6       8       9       0     -30       6       9
       9       0     -30       6      10      27       0      30       6      11
      27       0     -30       6      12       9      15      21      24       6
      12      18      24      21       6      27       0       9      15      13
      27       0      -9      15      14      27       0      -9      15      15
      30       0       9      15      16      15      21      24      18       6
      30       0     -27      -9      20
%FLAG EXCLUDED_ATOMS_LIST                                                       
%FORMAT(10I8)                                                                   
       3       4       6       8      10      11      15      16      17      18
      19      22      23       5       7       9      12      13      14      20
      21      24      25       4      10      11      15      16      17       6
       8       9      10      11      18      19      22      23      26      27
       7       8       9      12      13      14      20      21      24      25
      28      29       7       8       9      10      11      18      19      22
      23      26      27      28      29       8       9      12      13      14
      20      21      24      25      26      27      28      29       9      18
      19      22      23      24      25      26      27      28      29      20
      21      22      23      24      25      26      27      28      29      11
      18      19      15      16      17      18      19      13      14      20
      21      14      20      21      20      21      16      17      17       0
      19      22      23      22      23      21      24      25      24      25
      23      26      27      26      27      25      28      29      28      29
      27      28      29      28      29      29       0
%FLAG HBOND_ACOEF                                                               
%FORMAT(5E16.8)                                                                 

%FLAG HBOND_BCOEF                                                               
%FORMAT(5E16.8)                                                                 

%FLAG HBCUT                                                                     
%FORMAT(5E16.8)                                                                 

%FLAG AMBER_ATOM_TYPE                                                           
%FORMAT(20a4)                                                                   
c   c3  c3  c3  c3  c3  c3  c3  c3  o   os  hc  hc  hc  h1  h1  h1  hc  hc  hc  
hc  hc  hc  hc  hc  hc  hc  hc  hc  
%FLAG TREE_CHAIN_CLASSIFICATION                                                 
%FORMAT(20a4)                                                                   
BLA BLA BLA BLA BLA BLA BLA BLA BLA BLA BLA BLA BLA BLA BLA BLA BLA BLA BLA BLA 
BLA BLA BLA BLA BLA BLA BLA BLA BLA 
%FLAG JOIN_ARRAY                                                                
%FORMAT(10I8)                                                                   
       0       0       0       0       0       0       0       0       0       0
       0       0       0       0       0       0       0       0       0       0
       0       0       0       0       0       0       0       0       0
%FLAG IROTAT                                                                    
%FORMAT(10I8)                                                                   
       0       0       0       0       0       0       0       0       0       0
       0       0       0       0       0       0       0       0       0       0
       0       0       0       0       0       0       0       0       0
%FLAG RADIUS_SET                                                                
%FORMAT(1a80)                                                                   
modified Bondi radii (mbondi)                                                   
%FLAG RADII                                                                     
%FORMAT(5E16.8)                                                                 
  1.70000000E+00  1.70000000E+00  1.70000000E+00  1.70000000E+00  1.70000000E+00
  1.70000000E+00  1.70000000E+00  1.70000000E+00  1.70000000E+00  1.50000000E+00
  1.50000000E+00  1.30000000E+00  1.30000000E+00  1.30000000E+00  1.30000000E+00
  1.30000000E+00  1.30000000E+00  1.30000000E+00  1.30000000E+00  1.30000000E+00
  1.30000000E+00  1.30000000E+00  1.30000000E+00  1.30000000E+00  1.30000000E+00
  1.30000000E+00  1.30000000E+00  1.30000000E+00  1.30000000E+00
%FLAG SCREEN                                                                    
%FORMAT(5E16.8)                                                                 
  7.20000000E-01  7.20000000E-01  7.20000000E-01  7.20000000E-01  7.20000000E-01
  7.20000000E-01  7.20000000E-01  7.20000000E-01  7.20000000E-01  8.50000000E-01
  8.50000000E-01  8.50000000E-01  8.50000000E-01  8.50000000E-01  8.50000000E-01
  8.50000000E-01  8.50000000E-01  8.50000000E-01  8.50000000E-01  8.50000000E-01
  8.50000000E-01  8.50000000E-01  8.50000000E-01  8.50000000E-01  8.50000000E-01
  8.50000000E-01  8.50000000E-01  8.50000000E-01  8.50000000E-01
%FLAG IPOL                                                                      
%FORMAT(1I8)                                                                    
       0
