; mobley_7608435_GMX.itp created by acpype (v: 2023.10.27) on Wed May 20 23:52:37 2026

[ atomtypes ]
;name   bond_type     mass     charge   ptype   sigma         epsilon       Amb
 c        c           0.00000  0.00000   A     3.31521e-01   4.13379e-01 ; 1.86  0.0988
 c3       c3          0.00000  0.00000   A     3.39771e-01   4.51035e-01 ; 1.91  0.1078
 o        o           0.00000  0.00000   A     3.04812e-01   6.12119e-01 ; 1.71  0.1463
 os       os          0.00000  0.00000   A     3.15610e-01   3.03758e-01 ; 1.77  0.0726
 hc       hc          0.00000  0.00000   A     2.60018e-01   8.70272e-02 ; 1.46  0.0208
 h1       h1          0.00000  0.00000   A     2.42200e-01   8.70272e-02 ; 1.36  0.0208

[ moleculetype ]
;name            nrexcl
 mobley_7608435   3

[ atoms ]
;   nr  type  resi  res  atom  cgnr     charge      mass       ; qtot   bond_type
     1    c     1   MOL    C1    1     0.628100     12.01000 ; qtot 0.628
     2   c3     1   MOL    C2    2    -0.093100     12.01000 ; qtot 0.535
     3   c3     1   MOL    C3    3     0.125700     12.01000 ; qtot 0.661
     4   c3     1   MOL    C4    4    -0.126400     12.01000 ; qtot 0.534
     5   c3     1   MOL    C5    5    -0.080400     12.01000 ; qtot 0.454
     6   c3     1   MOL    C6    6    -0.079400     12.01000 ; qtot 0.375
     7   c3     1   MOL    C7    7    -0.079400     12.01000 ; qtot 0.295
     8   c3     1   MOL    C8    8    -0.078400     12.01000 ; qtot 0.217
     9   c3     1   MOL    C9    9    -0.079400     12.01000 ; qtot 0.137
    10    o     1   MOL    O1   10    -0.541000     16.00000 ; qtot -0.404
    11   os     1   MOL    O2   11    -0.443900     16.00000 ; qtot -0.848
    12   hc     1   MOL    H1   12     0.033033      1.00800 ; qtot -0.815
    13   hc     1   MOL    H2   13     0.033033      1.00800 ; qtot -0.782
    14   hc     1   MOL    H3   14     0.033033      1.00800 ; qtot -0.749
    15   h1     1   MOL    H4   15     0.050367      1.00800 ; qtot -0.698
    16   h1     1   MOL    H5   16     0.050367      1.00800 ; qtot -0.648
    17   h1     1   MOL    H6   17     0.050367      1.00800 ; qtot -0.597
    18   hc     1   MOL    H7   18     0.078200      1.00800 ; qtot -0.519
    19   hc     1   MOL    H8   19     0.078200      1.00800 ; qtot -0.441
    20   hc     1   MOL    H9   20     0.039200      1.00800 ; qtot -0.402
    21   hc     1   MOL   H10   21     0.039200      1.00800 ; qtot -0.363
    22   hc     1   MOL   H11   22     0.057700      1.00800 ; qtot -0.305
    23   hc     1   MOL   H12   23     0.057700      1.00800 ; qtot -0.247
    24   hc     1   MOL   H13   24     0.039700      1.00800 ; qtot -0.207
    25   hc     1   MOL   H14   25     0.039700      1.00800 ; qtot -0.168
    26   hc     1   MOL   H15   26     0.041200      1.00800 ; qtot -0.127
    27   hc     1   MOL   H16   27     0.041200      1.00800 ; qtot -0.085
    28   hc     1   MOL   H17   28     0.042700      1.00800 ; qtot -0.043
    29   hc     1   MOL   H18   29     0.042700      1.00800 ; qtot 0.000

[ bonds ]
;   ai     aj funct   r             k
     1      4   1    1.5270e-01    1.9652e+05 ;     C1 - C4    
     1     10   1    1.2190e-01    4.9421e+05 ;     C1 - O1    
     1     11   1    1.3621e-01    2.9398e+05 ;     C1 - O2    
     2      5   1    1.5354e-01    1.9154e+05 ;     C2 - C5    
     2     12   1    1.0962e-01    2.8891e+05 ;     C2 - H1    
     2     13   1    1.0962e-01    2.8891e+05 ;     C2 - H2    
     2     14   1    1.0962e-01    2.8891e+05 ;     C2 - H3    
     3     11   1    1.4273e-01    2.3620e+05 ;     C3 - O2    
     3     15   1    1.0969e-01    2.8804e+05 ;     C3 - H4    
     3     16   1    1.0969e-01    2.8804e+05 ;     C3 - H5    
     3     17   1    1.0969e-01    2.8804e+05 ;     C3 - H6    
     4      6   1    1.5354e-01    1.9154e+05 ;     C4 - C6    
     4     18   1    1.0962e-01    2.8891e+05 ;     C4 - H7    
     4     19   1    1.0962e-01    2.8891e+05 ;     C4 - H8    
     5      7   1    1.5354e-01    1.9154e+05 ;     C5 - C7    
     5     20   1    1.0962e-01    2.8891e+05 ;     C5 - H9    
     5     21   1    1.0962e-01    2.8891e+05 ;     C5 - H10   
     6      8   1    1.5354e-01    1.9154e+05 ;     C6 - C8    
     6     22   1    1.0962e-01    2.8891e+05 ;     C6 - H11   
     6     23   1    1.0962e-01    2.8891e+05 ;     C6 - H12   
     7      9   1    1.5354e-01    1.9154e+05 ;     C7 - C9    
     7     24   1    1.0962e-01    2.8891e+05 ;     C7 - H13   
     7     25   1    1.0962e-01    2.8891e+05 ;     C7 - H14   
     8      9   1    1.5354e-01    1.9154e+05 ;     C8 - C9    
     8     26   1    1.0962e-01    2.8891e+05 ;     C8 - H15   
     8     27   1    1.0962e-01    2.8891e+05 ;     C8 - H16   
     9     28   1    1.0962e-01    2.8891e+05 ;     C9 - H17   
     9     29   1    1.0962e-01    2.8891e+05 ;     C9 - H18   

[ pairs ]
;   ai     aj    funct
     1      8      1 ;     C1 - C8    
     1     15      1 ;     C1 - H4    
     1     16      1 ;     C1 - H5    
     1     17      1 ;     C1 - H6    
     1     22      1 ;     C1 - H11   
     1     23      1 ;     C1 - H12   
     2      9      1 ;     C2 - C9    
     2     24      1 ;     C2 - H13   
     2     25      1 ;     C2 - H14   
     4      3      1 ;     C4 - C3    
     4      9      1 ;     C4 - C9    
     4     26      1 ;     C4 - H15   
     4     27      1 ;     C4 - H16   
     5      8      1 ;     C5 - C8    
     5     28      1 ;     C5 - H17   
     5     29      1 ;     C5 - H18   
     6      7      1 ;     C6 - C7    
     6     28      1 ;     C6 - H17   
     6     29      1 ;     C6 - H18   
     7     12      1 ;     C7 - H1    
     7     13      1 ;     C7 - H2    
     7     14      1 ;     C7 - H3    
     7     26      1 ;     C7 - H15   
     7     27      1 ;     C7 - H16   
     8     18      1 ;     C8 - H7    
     8     19      1 ;     C8 - H8    
     8     24      1 ;     C8 - H13   
     8     25      1 ;     C8 - H14   
     9     20      1 ;     C9 - H9    
     9     21      1 ;     C9 - H10   
     9     22      1 ;     C9 - H11   
     9     23      1 ;     C9 - H12   
    10      3      1 ;     O1 - C3    
    10      6      1 ;     O1 - C6    
    10     18      1 ;     O1 - H7    
    10     19      1 ;     O1 - H8    
    11      6      1 ;     O2 - C6    
    11     18      1 ;     O2 - H7    
    11     19      1 ;     O2 - H8    
    12     20      1 ;     H1 - H9    
    12     21      1 ;     H1 - H10   
    13     20      1 ;     H2 - H9    
    13     21      1 ;     H2 - H10   
    14     20      1 ;     H3 - H9    
    14     21      1 ;     H3 - H10   
    18     22      1 ;     H7 - H11   
    18     23      1 ;     H7 - H12   
    19     22      1 ;     H8 - H11   
    19     23      1 ;     H8 - H12   
    20     24      1 ;     H9 - H13   
    20     25      1 ;     H9 - H14   
    21     24      1 ;    H10 - H13   
    21     25      1 ;    H10 - H14   
    22     26      1 ;    H11 - H15   
    22     27      1 ;    H11 - H16   
    23     26      1 ;    H12 - H15   
    23     27      1 ;    H12 - H16   
    24     28      1 ;    H13 - H17   
    24     29      1 ;    H13 - H18   
    25     28      1 ;    H14 - H17   
    25     29      1 ;    H14 - H18   
    26     28      1 ;    H15 - H17   
    26     29      1 ;    H15 - H18   
    27     28      1 ;    H16 - H17   
    27     29      1 ;    H16 - H18   

[ angles ]
;   ai     aj     ak    funct   theta         cth
     1      4      6      1    1.1143e+02    5.0509e+02 ;     C1 - C4     - C6    
     1      4     18      1    1.0895e+02    3.6510e+02 ;     C1 - C4     - H7    
     1      4     19      1    1.0895e+02    3.6510e+02 ;     C1 - C4     - H8    
     1     11      3      1    1.1582e+02    7.4835e+02 ;     C1 - O2     - C3    
     2      5      7      1    1.1263e+02    5.0099e+02 ;     C2 - C5     - C7    
     2      5     20      1    1.0968e+02    3.6208e+02 ;     C2 - C5     - H9    
     2      5     21      1    1.0968e+02    3.6208e+02 ;     C2 - C5     - H10   
     4      1     10      1    1.2290e+02    6.3973e+02 ;     C4 - C1     - O1    
     4      1     11      1    1.1080e+02    6.5245e+02 ;     C4 - C1     - O2    
     4      6      8      1    1.1263e+02    5.0099e+02 ;     C4 - C6     - C8    
     4      6     22      1    1.0968e+02    3.6208e+02 ;     C4 - C6     - H11   
     4      6     23      1    1.0968e+02    3.6208e+02 ;     C4 - C6     - H12   
     5      2     12      1    1.0968e+02    3.6208e+02 ;     C5 - C2     - H1    
     5      2     13      1    1.0968e+02    3.6208e+02 ;     C5 - C2     - H2    
     5      2     14      1    1.0968e+02    3.6208e+02 ;     C5 - C2     - H3    
     5      7      9      1    1.1263e+02    5.0099e+02 ;     C5 - C7     - C9    
     5      7     24      1    1.0968e+02    3.6208e+02 ;     C5 - C7     - H13   
     5      7     25      1    1.0968e+02    3.6208e+02 ;     C5 - C7     - H14   
     6      4     18      1    1.0968e+02    3.6208e+02 ;     C6 - C4     - H7    
     6      4     19      1    1.0968e+02    3.6208e+02 ;     C6 - C4     - H8    
     6      8      9      1    1.1263e+02    5.0099e+02 ;     C6 - C8     - C9    
     6      8     26      1    1.0968e+02    3.6208e+02 ;     C6 - C8     - H15   
     6      8     27      1    1.0968e+02    3.6208e+02 ;     C6 - C8     - H16   
     7      5     20      1    1.0968e+02    3.6208e+02 ;     C7 - C5     - H9    
     7      5     21      1    1.0968e+02    3.6208e+02 ;     C7 - C5     - H10   
     7      9      8      1    1.1263e+02    5.0099e+02 ;     C7 - C9     - C8    
     7      9     28      1    1.0968e+02    3.6208e+02 ;     C7 - C9     - H17   
     7      9     29      1    1.0968e+02    3.6208e+02 ;     C7 - C9     - H18   
     8      6     22      1    1.0968e+02    3.6208e+02 ;     C8 - C6     - H11   
     8      6     23      1    1.0968e+02    3.6208e+02 ;     C8 - C6     - H12   
     8      9     28      1    1.0968e+02    3.6208e+02 ;     C8 - C9     - H17   
     8      9     29      1    1.0968e+02    3.6208e+02 ;     C8 - C9     - H18   
     9      7     24      1    1.0968e+02    3.6208e+02 ;     C9 - C7     - H13   
     9      7     25      1    1.0968e+02    3.6208e+02 ;     C9 - C7     - H14   
     9      8     26      1    1.0968e+02    3.6208e+02 ;     C9 - C8     - H15   
     9      8     27      1    1.0968e+02    3.6208e+02 ;     C9 - C8     - H16   
    10      1     11      1    1.2320e+02    8.4734e+02 ;     O1 - C1     - O2    
    11      3     15      1    1.1034e+02    4.7028e+02 ;     O2 - C3     - H4    
    11      3     16      1    1.1034e+02    4.7028e+02 ;     O2 - C3     - H5    
    11      3     17      1    1.1034e+02    4.7028e+02 ;     O2 - C3     - H6    
    12      2     13      1    1.0773e+02    2.9957e+02 ;     H1 - C2     - H2    
    12      2     14      1    1.0773e+02    2.9957e+02 ;     H1 - C2     - H3    
    13      2     14      1    1.0773e+02    2.9957e+02 ;     H2 - C2     - H3    
    15      3     16      1    1.0855e+02    2.9824e+02 ;     H4 - C3     - H5    
    15      3     17      1    1.0855e+02    2.9824e+02 ;     H4 - C3     - H6    
    16      3     17      1    1.0855e+02    2.9824e+02 ;     H5 - C3     - H6    
    18      4     19      1    1.0773e+02    2.9957e+02 ;     H7 - C4     - H8    
    20      5     21      1    1.0773e+02    2.9957e+02 ;     H9 - C5     - H10   
    22      6     23      1    1.0773e+02    2.9957e+02 ;    H11 - C6     - H12   
    24      7     25      1    1.0773e+02    2.9957e+02 ;    H13 - C7     - H14   
    26      8     27      1    1.0773e+02    2.9957e+02 ;    H15 - C8     - H16   
    28      9     29      1    1.0773e+02    2.9957e+02 ;    H17 - C9     - H18   

[ dihedrals ] ; propers
; for gromacs 4.5 or higher, using funct 9
;    i      j      k      l   func   phase     kd      pn
     1      4      6      8      9     0.00   0.00000   0 ;     C1-    C4-    C6-    C8
     1      4      6      8      9     0.00   0.16736   2 ;     C1-    C4-    C6-    C8
     1      4      6      8      9   180.00   1.92464   1 ;     C1-    C4-    C6-    C8
     1      4      6     22      9     0.00   0.65084   3 ;     C1-    C4-    C6-   H11
     1      4      6     23      9     0.00   0.65084   3 ;     C1-    C4-    C6-   H12
     1     11      3     15      9     0.00   1.60387   3 ;     C1-    O2-    C3-    H4
     1     11      3     16      9     0.00   1.60387   3 ;     C1-    O2-    C3-    H5
     1     11      3     17      9     0.00   1.60387   3 ;     C1-    O2-    C3-    H6
     2      5      7      9      9     0.00   2.17568   3 ;     C2-    C5-    C7-    C9
     2      5      7     24      9     0.00   0.54392   3 ;     C2-    C5-    C7-   H13
     2      5      7     25      9     0.00   0.54392   3 ;     C2-    C5-    C7-   H14
     4      1     11      3      9     0.00   3.13800   3 ;     C4-    C1-    O2-    C3
     4      1     11      3      9   180.00   7.90776   1 ;     C4-    C1-    O2-    C3
     4      1     11      3      9   180.00  13.76536   2 ;     C4-    C1-    O2-    C3
     4      6      8      9      9     0.00   2.17568   3 ;     C4-    C6-    C8-    C9
     4      6      8     26      9     0.00   0.54392   3 ;     C4-    C6-    C8-   H15
     4      6      8     27      9     0.00   0.54392   3 ;     C4-    C6-    C8-   H16
     5      7      9      8      9     0.00   2.17568   3 ;     C5-    C7-    C9-    C8
     5      7      9     28      9     0.00   0.54392   3 ;     C5-    C7-    C9-   H17
     5      7      9     29      9     0.00   0.54392   3 ;     C5-    C7-    C9-   H18
     6      8      9      7      9     0.00   2.17568   3 ;     C6-    C8-    C9-    C7
     6      8      9     28      9     0.00   0.54392   3 ;     C6-    C8-    C9-   H17
     6      8      9     29      9     0.00   0.54392   3 ;     C6-    C8-    C9-   H18
     7      5      2     12      9     0.00   0.54392   3 ;     C7-    C5-    C2-    H1
     7      5      2     13      9     0.00   0.54392   3 ;     C7-    C5-    C2-    H2
     7      5      2     14      9     0.00   0.54392   3 ;     C7-    C5-    C2-    H3
     7      9      8     26      9     0.00   0.54392   3 ;     C7-    C9-    C8-   H15
     7      9      8     27      9     0.00   0.54392   3 ;     C7-    C9-    C8-   H16
     8      6      4     18      9     0.00   0.54392   3 ;     C8-    C6-    C4-    H7
     8      6      4     19      9     0.00   0.54392   3 ;     C8-    C6-    C4-    H8
     8      9      7     24      9     0.00   0.54392   3 ;     C8-    C9-    C7-   H13
     8      9      7     25      9     0.00   0.54392   3 ;     C8-    C9-    C7-   H14
     9      7      5     20      9     0.00   0.54392   3 ;     C9-    C7-    C5-    H9
     9      7      5     21      9     0.00   0.54392   3 ;     C9-    C7-    C5-   H10
     9      8      6     22      9     0.00   0.54392   3 ;     C9-    C8-    C6-   H11
     9      8      6     23      9     0.00   0.54392   3 ;     C9-    C8-    C6-   H12
    10      1      4      6      9     0.00   2.84512   1 ;     O1-    C1-    C4-    C6
    10      1      4      6      9   180.00   0.83680   2 ;     O1-    C1-    C4-    C6
    10      1      4      6      9   180.00   1.84096   3 ;     O1-    C1-    C4-    C6
    10      1      4     18      9     0.00  16.86152   1 ;     O1-    C1-    C4-    H7
    10      1      4     18      9   180.00  15.31344   2 ;     O1-    C1-    C4-    H7
    10      1      4     19      9     0.00  16.86152   1 ;     O1-    C1-    C4-    H8
    10      1      4     19      9   180.00  15.31344   2 ;     O1-    C1-    C4-    H8
    10      1     11      3      9   180.00   5.85760   1 ;     O1-    C1-    O2-    C3
    10      1     11      3      9   180.00  11.29680   2 ;     O1-    C1-    O2-    C3
    11      1      4      6      9   180.00   0.00000   2 ;     O2-    C1-    C4-    C6
    11      1      4     18      9   180.00   0.00000   2 ;     O2-    C1-    C4-    H7
    11      1      4     19      9   180.00   0.00000   2 ;     O2-    C1-    C4-    H8
    12      2      5     20      9     0.00   0.50208   3 ;     H1-    C2-    C5-    H9
    12      2      5     21      9     0.00   0.50208   3 ;     H1-    C2-    C5-   H10
    13      2      5     20      9     0.00   0.50208   3 ;     H2-    C2-    C5-    H9
    13      2      5     21      9     0.00   0.50208   3 ;     H2-    C2-    C5-   H10
    14      2      5     20      9     0.00   0.50208   3 ;     H3-    C2-    C5-    H9
    14      2      5     21      9     0.00   0.50208   3 ;     H3-    C2-    C5-   H10
    18      4      6     22      9     0.00   0.50208   3 ;     H7-    C4-    C6-   H11
    18      4      6     23      9     0.00   0.50208   3 ;     H7-    C4-    C6-   H12
    19      4      6     22      9     0.00   0.50208   3 ;     H8-    C4-    C6-   H11
    19      4      6     23      9     0.00   0.50208   3 ;     H8-    C4-    C6-   H12
    20      5      7     24      9     0.00   0.50208   3 ;     H9-    C5-    C7-   H13
    20      5      7     25      9     0.00   0.50208   3 ;     H9-    C5-    C7-   H14
    21      5      7     24      9     0.00   0.50208   3 ;    H10-    C5-    C7-   H13
    21      5      7     25      9     0.00   0.50208   3 ;    H10-    C5-    C7-   H14
    22      6      8     26      9     0.00   0.50208   3 ;    H11-    C6-    C8-   H15
    22      6      8     27      9     0.00   0.50208   3 ;    H11-    C6-    C8-   H16
    23      6      8     26      9     0.00   0.50208   3 ;    H12-    C6-    C8-   H15
    23      6      8     27      9     0.00   0.50208   3 ;    H12-    C6-    C8-   H16
    24      7      9     28      9     0.00   0.50208   3 ;    H13-    C7-    C9-   H17
    24      7      9     29      9     0.00   0.50208   3 ;    H13-    C7-    C9-   H18
    25      7      9     28      9     0.00   0.50208   3 ;    H14-    C7-    C9-   H17
    25      7      9     29      9     0.00   0.50208   3 ;    H14-    C7-    C9-   H18
    26      8      9     28      9     0.00   0.50208   3 ;    H15-    C8-    C9-   H17
    26      8      9     29      9     0.00   0.50208   3 ;    H15-    C8-    C9-   H18
    27      8      9     28      9     0.00   0.50208   3 ;    H16-    C8-    C9-   H17
    27      8      9     29      9     0.00   0.50208   3 ;    H16-    C8-    C9-   H18

[ dihedrals ] ; impropers
; treated as propers in GROMACS to use correct AMBER analytical function
;    i      j      k      l   func   phase     kd      pn
    11      1     10      4      4   180.00   4.60240   2 ;     O2-    C1-    O1-    C4
