mobley_7608435_GMX.gro created by acpype (v: 2023.10.27) on Wed May 20 23:52:37 2026
 29
    1  MOL   C1    1   0.338  -0.832  -0.124
    1  MOL   C2    2   0.062   0.012  -0.076
    1  MOL   C3    3   0.422  -1.051  -0.097
    1  MOL   C4    4   0.305  -0.706  -0.046
    1  MOL   C5    5   0.094  -0.113  -0.155
    1  MOL   C6    6   0.256  -0.592  -0.135
    1  MOL   C7    7   0.149  -0.224  -0.066
    1  MOL   C8    8   0.230  -0.463  -0.055
    1  MOL   C9    9   0.178  -0.351  -0.145
    1  MOL   O1   10   0.329  -0.844  -0.246
    1  MOL   O2   11   0.384  -0.927  -0.038
    1  MOL   H1   12   0.151   0.051  -0.027
    1  MOL   H2   13  -0.014  -0.009   0.001
    1  MOL   H3   14   0.023   0.090  -0.142
    1  MOL   H4   15   0.452  -1.121  -0.019
    1  MOL   H5   16   0.505  -1.034  -0.167
    1  MOL   H6   17   0.337  -1.092  -0.152
    1  MOL   H7   18   0.397  -0.675   0.005
    1  MOL   H8   19   0.230  -0.730   0.029
    1  MOL   H9   20   0.004  -0.148  -0.206
    1  MOL  H10   21   0.167  -0.089  -0.233
    1  MOL  H11   22   0.165  -0.621  -0.188
    1  MOL  H12   23   0.333  -0.571  -0.211
    1  MOL  H13   24   0.241  -0.190  -0.017
    1  MOL  H14   25   0.077  -0.246   0.014
    1  MOL  H15   26   0.323  -0.431  -0.006
    1  MOL  H16   27   0.157  -0.482   0.025
    1  MOL  H17   28   0.253  -0.330  -0.223
    1  MOL  H18   29   0.087  -0.385  -0.196
   10.36600    24.22600     5.49600
