; mobley_7608435_GMX_OPLS.top created by acpype (v: 2023.10.27) on Wed May 20 23:52:37 2026

; Include forcefield parameters
#include "ffoplsaa.itp"

; Include mobley_7608435_GMX.itp topology
#include "mobley_7608435_GMX.itp"

; Ligand position restraints
#ifdef POSRES_LIG
#include "posre_mobley_7608435.itp"
#endif

[ system ]
 mobley_7608435

[ molecules ]
; Compound        nmols
 mobley_7608435   1     
