mobley_3761215_GMX.gro created by acpype (v: 2023.10.27) on Wed May 20 23:46:05 2026
 8210
    1MOL     C1    1   2.170   2.104   2.170
    1MOL     C2    2   2.197   2.252   2.197
    1MOL    CL1    3   2.084   2.352   2.101
    1MOL    CL2    4   2.173   2.286   2.371
    1MOL    CL3    5   2.364   2.292   2.152
    1MOL     H1    6   2.238   2.040   2.227
    1MOL     H2    7   2.068   2.076   2.197
    1MOL     H3    8   2.184   2.080   2.064
    2SOL     OW    9   0.230   0.628   0.113
    2SOL    HW1   10   0.137   0.626   0.150
    2SOL    HW2   11   0.231   0.589   0.021
    3SOL     OW   12   0.225   0.275   0.996
    3SOL    HW1   13   0.260   0.258   1.088
    3SOL    HW2   14   0.137   0.230   0.984
    4SOL     OW   15   0.019   0.368   0.647
    4SOL    HW1   16  -0.063   0.411   0.686
    4SOL    HW2   17  -0.009   0.295   0.584
    5SOL     OW   18   0.569   1.275   1.165
    5SOL    HW1   19   0.476   1.268   1.128
    5SOL    HW2   20   0.580   1.364   1.209
    6SOL     OW   21   1.555   1.511   0.703
    6SOL    HW1   22   1.498   1.495   0.784
    6SOL    HW2   23   1.496   1.521   0.623
    7SOL     OW   24   1.135   0.703   0.717
    7SOL    HW1   25   1.192   0.781   0.692
    7SOL    HW2   26   1.075   0.729   0.793
    8SOL     OW   27   1.755   0.607   0.231
    8SOL    HW1   28   1.743   0.594   0.132
    8SOL    HW2   29   1.725   0.526   0.280
    9SOL     OW   30   0.768   1.144   1.023
    9SOL    HW1   31   0.690   1.161   1.083
    9SOL    HW2   32   0.802   1.231   0.987
   10SOL     OW   33   0.850   0.798   1.823
   10SOL    HW1   34   0.846   0.874   1.888
   10SOL    HW2   35   0.872   0.834   1.732
   11SOL     OW   36   0.685   1.012   0.665
   11SOL    HW1   37   0.754   0.996   0.735
   11SOL    HW2   38   0.612   1.069   0.703
   12SOL     OW   39   0.686   1.161   1.803
   12SOL    HW1   40   0.746   1.240   1.817
   12SOL    HW2   41   0.600   1.192   1.762
   13SOL     OW   42   0.335   1.435   1.061
   13SOL    HW1   43   0.257   1.404   1.008
   13SOL    HW2   44   0.393   1.493   1.004
   14SOL     OW   45   1.460   1.505   1.339
   14SOL    HW1   46   1.484   1.599   1.365
   14SOL    HW2   47   1.444   1.451   1.421
   15SOL     OW   48   0.438   0.392   1.499
   15SOL    HW1   49   0.520   0.336   1.508
   15SOL    HW2   50   0.357   0.334   1.503
   16SOL     OW   51   1.603   0.447   0.737
   16SOL    HW1   52   1.529   0.493   0.687
   16SOL    HW2   53   1.654   0.515   0.790
   17SOL     OW   54   0.231   1.713   0.483
   17SOL    HW1   55   0.265   1.790   0.537
   17SOL    HW2   56   0.275   1.713   0.393
   18SOL     OW   57   1.127   1.341   1.690
   18SOL    HW1   58   1.174   1.341   1.778
   18SOL    HW2   59   1.079   1.254   1.679
   19SOL     OW   60   0.230   1.434   0.538
   19SOL    HW1   61   0.204   1.530   0.538
   19SOL    HW2   62   0.159   1.380   0.583
   20SOL     OW   63   0.240   1.091   0.886
   20SOL    HW1   64   0.254   1.007   0.938
   20SOL    HW2   65   0.185   1.155   0.941
   21SOL     OW   66   0.620   1.786   1.439
   21SOL    HW1   67   0.528   1.769   1.474
   21SOL    HW2   68   0.648   1.878   1.465
   22SOL     OW   69   0.606   0.964   0.123
   22SOL    HW1   70   0.613   1.048   0.069
   22SOL    HW2   71   0.652   0.977   0.211
   23SOL     OW   72   1.594   0.114   1.480
   23SOL    HW1   73   1.576   0.181   1.408
   23SOL    HW2   74   1.591   0.160   1.569
   24SOL     OW   75   0.122   0.643   0.563
   24SOL    HW1   76   0.077   0.555   0.580
   24SOL    HW2   77   0.121   0.697   0.647
   25SOL     OW   78   1.842   1.767   0.359
   25SOL    HW1   79   1.896   1.738   0.439
   25SOL    HW2   80   1.872   1.857   0.330
   26SOL     OW   81   0.027   1.596   0.117
   26SOL    HW1   82   0.008   1.500   0.138
   26SOL    HW2   83  -0.006   1.654   0.192
   27SOL     OW   84   1.689   0.922   0.612
   27SOL    HW1   85   1.784   0.893   0.620
   27SOL    HW2   86   1.681   0.987   0.537
   28SOL     OW   87   1.641   1.108   0.432
   28SOL    HW1   88   1.727   1.110   0.380
   28SOL    HW2   89   1.655   1.155   0.520
   29SOL     OW   90   0.113   0.737   1.597
   29SOL    HW1   91   0.201   0.724   1.642
   29SOL    HW2   92   0.100   0.834   1.575
   30SOL     OW   93   0.613   1.365   0.726
   30SOL    HW1   94   0.564   1.278   0.735
   30SOL    HW2   95   0.590   1.408   0.639
   31SOL     OW   96   1.293   1.228   1.423
   31SOL    HW1   97   1.330   1.155   1.365
   31SOL    HW2   98   1.345   1.233   1.508
   32SOL     OW   99   0.809   0.004   0.502
   32SOL    HW1  100   0.849   0.095   0.493
   32SOL    HW2  101   0.709   0.012   0.508
   33SOL     OW  102   0.197   0.976   1.264
   33SOL    HW1  103   0.286   0.931   1.250
   33SOL    HW2  104   0.124   0.911   1.245
   34SOL     OW  105   1.525   0.999   0.190
   34SOL    HW1  106   1.462   0.923   0.203
   34SOL    HW2  107   1.573   1.017   0.276
   35SOL     OW  108   1.187   1.792   1.616
   35SOL    HW1  109   1.211   1.852   1.540
   35SOL    HW2  110   1.194   1.697   1.586
   36SOL     OW  111   0.317   0.251   1.801
   36SOL    HW1  112   0.388   0.322   1.807
   36SOL    HW2  113   0.229   0.290   1.829
   37SOL     OW  114   1.466   1.417   0.953
   37SOL    HW1  115   1.407   1.423   1.033
   37SOL    HW2  116   1.451   1.329   0.907
   38SOL     OW  117   1.667   1.714   0.572
   38SOL    HW1  118   1.626   1.691   0.484
   38SOL    HW2  119   1.649   1.640   0.637
   39SOL     OW  120   0.598   0.729   0.270
   39SOL    HW1  121   0.622   0.798   0.202
   39SOL    HW2  122   0.520   0.762   0.324
   40SOL     OW  123   1.281   0.345   0.944
   40SOL    HW1  124   1.195   0.295   0.931
   40SOL    HW2  125   1.343   0.291   1.000
   41SOL     OW  126   1.576   1.662   0.307
   41SOL    HW1  127   1.665   1.708   0.310
   41SOL    HW2  128   1.555   1.638   0.212
   42SOL     OW  129   0.807   0.605   1.465
   42SOL    HW1  130   0.760   0.602   1.554
   42SOL    HW2  131   0.756   0.550   1.399
   43SOL     OW  132   1.394   0.469   1.674
   43SOL    HW1  133   1.374   0.512   1.762
   43SOL    HW2  134   1.472   0.407   1.683
   44SOL     OW  135   0.973   0.890   1.572
   44SOL    HW1  136   1.019   0.806   1.543
   44SOL    HW2  137   0.917   0.924   1.497
   45SOL     OW  138   0.991   0.410   1.242
   45SOL    HW1  139   0.914   0.444   1.296
   45SOL    HW2  140   0.957   0.359   1.163
   46SOL     OW  141   1.041   0.701   0.429
   46SOL    HW1  142   1.067   0.697   0.525
   46SOL    HW2  143   0.956   0.650   0.415
   47SOL     OW  144   0.076   0.811   0.789
   47SOL    HW1  145   0.175   0.799   0.798
   47SOL    HW2  146   0.052   0.906   0.810
   48SOL     OW  147   0.130   1.821   1.571
   48SOL    HW1  148   0.120   1.806   1.670
   48SOL    HW2  149   0.044   1.857   1.535
   49SOL     OW  150   0.865   0.348   0.195
   49SOL    HW1  151   0.924   0.411   0.146
   49SOL    HW2  152   0.884   0.254   0.166
   50SOL     OW  153   1.719   0.585   1.831
   50SOL    HW1  154   1.693   0.674   1.795
   50SOL    HW2  155   1.717   0.517   1.758
   51SOL     OW  156   1.362   1.144   0.545
   51SOL    HW1  157   1.445   1.115   0.497
   51SOL    HW2  158   1.313   1.211   0.489
   52SOL     OW  159   0.550   0.196   0.885
   52SOL    HW1  160   0.545   0.191   0.985
   52SOL    HW2  161   0.552   0.292   0.856
   53SOL     OW  162   1.008   1.456   0.477
   53SOL    HW1  163   0.962   1.528   0.425
   53SOL    HW2  164   1.004   1.476   0.575
   54SOL     OW  165   0.351   1.801   0.853
   54SOL    HW1  166   0.401   1.715   0.859
   54SOL    HW2  167   0.416   1.878   0.850
   55SOL     OW  168   1.795   1.066   0.873
   55SOL    HW1  169   1.733   1.051   0.797
   55SOL    HW2  170   1.743   1.077   0.958
   56SOL     OW  171   1.227   1.550   1.506
   56SOL    HW1  172   1.233   1.473   1.570
   56SOL    HW2  173   1.175   1.524   1.426
   57SOL     OW  174   0.321   0.943   0.242
   57SOL    HW1  175   0.403   0.982   0.200
   57SOL    HW2  176   0.294   0.861   0.193
   58SOL     OW  177   1.458   0.735   0.728
   58SOL    HW1  178   1.453   0.670   0.803
   58SOL    HW2  179   1.538   0.794   0.741
   59SOL     OW  180   0.461   1.266   1.727
   59SOL    HW1  181   0.411   1.267   1.641
   59SOL    HW2  182   0.398   1.248   1.803
   60SOL     OW  183   1.111   1.776   0.237
   60SOL    HW1  184   1.051   1.714   0.287
   60SOL    HW2  185   1.142   1.732   0.152
   61SOL     OW  186   0.202   0.285   1.498
   61SOL    HW1  187   0.122   0.345   1.485
   61SOL    HW2  188   0.192   0.236   1.584
   62SOL     OW  189   1.632   1.377   0.081
   62SOL    HW1  190   1.600   1.471   0.071
   62SOL    HW2  191   1.556   1.314   0.069
   63SOL     OW  192   0.464   1.743   0.323
   63SOL    HW1  193   0.497   1.782   0.409
   63SOL    HW2  194   0.540   1.736   0.258
   64SOL     OW  195   1.400   0.107   0.426
   64SOL    HW1  196   1.376   0.070   0.336
   64SOL    HW2  197   1.499   0.123   0.430
   65SOL     OW  198   0.249   1.785   1.241
   65SOL    HW1  199   0.306   1.720   1.291
   65SOL    HW2  200   0.233   1.752   1.148
   66SOL     OW  201   0.940   1.698   0.904
   66SOL    HW1  202   1.020   1.641   0.925
   66SOL    HW2  203   0.891   1.658   0.827
   67SOL     OW  204   0.382   0.700   0.480
   67SOL    HW1  205   0.427   0.610   0.477
   67SOL    HW2  206   0.288   0.689   0.513
   68SOL     OW  207   1.547   0.222   1.729
   68SOL    HW1  208   1.542   0.259   1.821
   68SOL    HW2  209   1.475   0.153   1.717
   69SOL     OW  210   0.614   0.122   0.117
   69SOL    HW1  211   0.712   0.100   0.124
   69SOL    HW2  212   0.583   0.105   0.024
   70SOL     OW  213   0.781   0.264   1.749
   70SOL    HW1  214   0.848   0.203   1.792
   70SOL    HW2  215   0.708   0.283   1.814
   71SOL     OW  216   0.888   1.514   1.195
   71SOL    HW1  217   0.865   1.489   1.101
   71SOL    HW2  218   0.949   1.445   1.234
   72SOL     OW  219   1.351   0.590   1.433
   72SOL    HW1  220   1.379   0.547   1.518
   72SOL    HW2  221   1.376   0.686   1.434
   73SOL     OW  222   0.803   1.402   0.924
   73SOL    HW1  223   0.893   1.416   0.882
   73SOL    HW2  224   0.732   1.404   0.853
   74SOL     OW  225   0.922   0.503   0.899
   74SOL    HW1  226   0.897   0.494   0.803
   74SOL    HW2  227   0.970   0.421   0.930
   75SOL     OW  228   0.539   0.064   0.512
   75SOL    HW1  229   0.458   0.065   0.570
   75SOL    HW2  230   0.542   0.147   0.457
   76SOL     OW  231   1.434   1.188   0.041
   76SOL    HW1  232   1.466   1.112   0.098
   76SOL    HW2  233   1.342   1.215   0.071
   77SOL     OW  234   0.297   0.035   0.171
   77SOL    HW1  235   0.346   0.119   0.150
   77SOL    HW2  236   0.359  -0.030   0.216
   78SOL     OW  237   0.935   0.236   0.480
   78SOL    HW1  238   0.887   0.277   0.402
   78SOL    HW2  239   1.034   0.234   0.461
   79SOL     OW  240   1.076   0.683   1.464
   79SOL    HW1  241   0.996   0.622   1.467
   79SOL    HW2  242   1.157   0.630   1.440
   80SOL     OW  243   1.227   1.570   0.793
   80SOL    HW1  244   1.248   1.644   0.728
   80SOL    HW2  245   1.295   1.570   0.866
   81SOL     OW  246   0.459   1.152   0.741
   81SOL    HW1  247   0.388   1.125   0.806
   81SOL    HW2  248   0.433   1.124   0.648
   82SOL     OW  249   1.271   1.797   0.591
   82SOL    HW1  250   1.315   1.861   0.527
   82SOL    HW2  251   1.221   1.849   0.661
   83SOL     OW  252   1.032   0.549   0.016
   83SOL    HW1  253   0.991   0.631  -0.023
   83SOL    HW2  254   1.096   0.575   0.089
   84SOL     OW  255   0.078   0.556   1.386
   84SOL    HW1  256   0.170   0.555   1.345
   84SOL    HW2  257   0.072   0.630   1.453
   85SOL     OW  258   0.561   0.222   1.147
   85SOL    HW1  259   0.599   0.138   1.184
   85SOL    HW2  260   0.473   0.241   1.191
   86SOL     OW  261   0.866   0.454   0.642
   86SOL    HW1  262   0.834   0.526   0.580
   86SOL    HW2  263   0.890   0.373   0.589
   87SOL     OW  264   1.017   0.039   0.753
   87SOL    HW1  265   0.945   0.044   0.684
   87SOL    HW2  266   0.993  -0.030   0.822
   88SOL     OW  267   1.429   1.173   0.867
   88SOL    HW1  268   1.374   1.089   0.860
   88SOL    HW2  269   1.455   1.202   0.775
   89SOL     OW  270   1.466   0.590   0.992
   89SOL    HW1  271   1.436   0.495   0.999
   89SOL    HW2  272   1.539   0.606   1.058
   90SOL     OW  273   1.857   0.833   0.377
   90SOL    HW1  274   1.899   0.769   0.441
   90SOL    HW2  275   1.819   0.782   0.299
   91SOL     OW  276   0.488   1.385   0.174
   91SOL    HW1  277   0.401   1.370   0.221
   91SOL    HW2  278   0.471   1.411   0.079
   92SOL     OW  279   1.664   1.280   0.657
   92SOL    HW1  280   1.763   1.288   0.671
   92SOL    HW2  281   1.619   1.364   0.688
   93SOL     OW  282   1.390   0.575   0.078
   93SOL    HW1  283   1.336   0.554   0.159
   93SOL    HW2  284   1.481   0.534   0.087
   94SOL     OW  285   0.527   0.256   0.328
   94SOL    HW1  286   0.554   0.197   0.253
   94SOL    HW2  287   0.527   0.351   0.297
   95SOL     OW  288   1.754   1.223   1.588
   95SOL    HW1  289   1.845   1.184   1.575
   95SOL    HW2  290   1.762   1.319   1.612
   96SOL     OW  291   1.064   1.347   1.340
   96SOL    HW1  292   0.984   1.324   1.395
   96SOL    HW2  293   1.147   1.321   1.389
   97SOL     OW  294   1.592   1.629   1.625
   97SOL    HW1  295   1.619   1.663   1.535
   97SOL    HW2  296   1.671   1.591   1.671
   98SOL     OW  297   1.111   1.195   1.100
   98SOL    HW1  298   1.071   1.239   1.181
   98SOL    HW2  299   1.070   1.232   1.017
   99SOL     OW  300   1.638   1.099   1.079
   99SOL    HW1  301   1.643   1.180   1.138
   99SOL    HW2  302   1.552   1.101   1.028
  100SOL     OW  303   0.915   0.089   1.402
  100SOL    HW1  304   0.940   0.069   1.307
  100SOL    HW2  305   0.987   0.145   1.444
  101SOL     OW  306   0.980   1.116   1.719
  101SOL    HW1  307   0.881   1.122   1.729
  101SOL    HW2  308   1.003   1.036   1.663
  102SOL     OW  309   0.705   1.050   0.368
  102SOL    HW1  310   0.691   1.057   0.467
  102SOL    HW2  311   0.789   0.999   0.350
  103SOL     OW  312   0.410   0.813   1.251
  103SOL    HW1  313   0.496   0.825   1.301
  103SOL    HW2  314   0.368   0.726   1.278
  104SOL     OW  315   1.274   0.386   1.262
  104SOL    HW1  316   1.295   0.460   1.326
  104SOL    HW2  317   1.185   0.403   1.219
  105SOL     OW  318   0.064   1.564   1.331
  105SOL    HW1  319   0.018   1.646   1.297
  105SOL    HW2  320   0.162   1.583   1.340
  106SOL     OW  321   0.367   1.100   0.501
  106SOL    HW1  322   0.360   1.183   0.445
  106SOL    HW2  323   0.371   1.020   0.441
  107SOL     OW  324   0.566   0.537   0.865
  107SOL    HW1  325   0.578   0.603   0.791
  107SOL    HW2  326   0.612   0.571   0.948
  108SOL     OW  327   1.252   1.348   0.388
  108SOL    HW1  328   1.302   1.425   0.428
  108SOL    HW2  329   1.157   1.350   0.420
  109SOL     OW  330   1.272   1.445   1.142
  109SOL    HW1  331   1.319   1.458   1.229
  109SOL    HW2  332   1.206   1.371   1.151
  110SOL     OW  333   1.582   0.639   0.472
  110SOL    HW1  334   1.551   0.700   0.545
  110SOL    HW2  335   1.632   0.691   0.403
  111SOL     OW  336   0.354   1.510   1.329
  111SOL    HW1  337   0.333   1.466   1.242
  111SOL    HW2  338   0.451   1.536   1.332
  112SOL     OW  339   0.402   0.751   1.598
  112SOL    HW1  340   0.470   0.806   1.551
  112SOL    HW2  341   0.442   0.663   1.625
  113SOL     OW  342   1.587   0.779   1.670
  113SOL    HW1  343   1.495   0.817   1.665
  113SOL    HW2  344   1.647   0.826   1.605
  114SOL     OW  345   1.013   0.105   1.770
  114SOL    HW1  346   1.019   0.190   1.718
  114SOL    HW2  347   1.045   0.029   1.713
  115SOL     OW  348   0.504   0.050   1.740
  115SOL    HW1  349   0.462  -0.007   1.670
  115SOL    HW2  350   0.438   0.119   1.772
  116SOL     OW  351   0.573   0.870   1.029
  116SOL    HW1  352   0.617   0.959   1.020
  116SOL    HW2  353   0.510   0.870   1.106
  117SOL     OW  354   1.360   0.862   1.045
  117SOL    HW1  355   1.285   0.862   0.979
  117SOL    HW2  356   1.397   0.770   1.054
  118SOL     OW  357   1.209   0.525   0.275
  118SOL    HW1  358   1.222   0.441   0.329
  118SOL    HW2  359   1.180   0.599   0.335
  119SOL     OW  360   0.307   0.213   1.231
  119SOL    HW1  361   0.284   0.250   1.321
  119SOL    HW2  362   0.277   0.118   1.225
  120SOL     OW  363   0.037   1.310   1.282
  120SOL    HW1  364   0.090   1.261   1.350
  120SOL    HW2  365   0.059   1.408   1.287
  121SOL     OW  366   0.732   0.634   1.064
  121SOL    HW1  367   0.791   0.608   0.988
  121SOL    HW2  368   0.704   0.730   1.053
  122SOL     OW  369   1.728   0.935   1.854
  122SOL    HW1  370   1.682   0.928   1.765
  122SOL    HW2  371   1.666   0.979   1.920
  123SOL     OW  372   0.307   0.063   0.618
  123SOL    HW1  373   0.296   0.157   0.651
  123SOL    HW2  374   0.302   0.000   0.695
  124SOL     OW  375   1.622   0.367   0.374
  124SOL    HW1  376   1.624   0.291   0.438
  124SOL    HW2  377   1.574   0.444   0.414
  125SOL     OW  378   1.023   0.766   0.966
  125SOL    HW1  379   1.038   0.787   1.062
  125SOL    HW2  380   0.993   0.671   0.957
  126SOL     OW  381   0.980   1.573   1.700
  126SOL    HW1  382   0.960   1.617   1.612
  126SOL    HW2  383   1.019   1.482   1.684
  127SOL     OW  384   1.859   1.518   1.605
  127SOL    HW1  385   1.873   1.545   1.510
  127SOL    HW2  386   1.942   1.540   1.658
  128SOL     OW  387   0.350   0.898   1.804
  128SOL    HW1  388   0.426   0.942   1.852
  128SOL    HW2  389   0.385   0.851   1.722
  129SOL     OW  390   1.540   0.274   0.125
  129SOL    HW1  391   1.479   0.199   0.148
  129SOL    HW2  392   1.562   0.326   0.208
  130SOL     OW  393   1.303   0.838   0.042
  130SOL    HW1  394   1.337   0.745   0.057
  130SOL    HW2  395   1.321   0.865  -0.053
  131SOL     OW  396   1.068   1.333   0.849
  131SOL    HW1  397   1.075   1.249   0.794
  131SOL    HW2  398   1.130   1.402   0.813
  132SOL     OW  399   0.319   0.810   0.949
  132SOL    HW1  400   0.412   0.846   0.954
  132SOL    HW2  401   0.313   0.725   1.001
  133SOL     OW  402   0.339   0.509   1.006
  133SOL    HW1  403   0.287   0.426   0.989
  133SOL    HW2  404   0.416   0.514   0.942
  134SOL     OW  405   1.138   0.380   1.678
  134SOL    HW1  406   1.093   0.443   1.742
  134SOL    HW2  407   1.231   0.411   1.661
  135SOL     OW  408   1.160   0.207   1.477
  135SOL    HW1  409   1.160   0.271   1.554
  135SOL    HW2  410   1.188   0.255   1.394
  136SOL     OW  411   0.008   1.326   0.200
  136SOL    HW1  412  -0.085   1.347   0.169
  136SOL    HW2  413   0.018   1.227   0.213
  137SOL     OW  414   0.088   1.801   0.927
  137SOL    HW1  415   0.046   1.715   0.900
  137SOL    HW2  416   0.182   1.804   0.893
  138SOL     OW  417   0.504   1.568   0.910
  138SOL    HW1  418   0.570   1.642   0.919
  138SOL    HW2  419   0.548   1.489   0.868
  139SOL     OW  420   1.002   0.796   1.238
  139SOL    HW1  421   1.043   0.764   1.324
  139SOL    HW2  422   0.906   0.769   1.235
  140SOL     OW  423   0.040   0.544   1.114
  140SOL    HW1  424   0.125   0.511   1.073
  140SOL    HW2  425   0.053   0.559   1.212
  141SOL     OW  426   0.189   0.520   1.722
  141SOL    HW1  427   0.248   0.480   1.652
  141SOL    HW2  428   0.131   0.591   1.681
  142SOL     OW  429   1.369   0.950   1.660
  142SOL    HW1  430   1.408   1.039   1.680
  142SOL    HW2  431   1.379   0.930   1.563
  143SOL     OW  432   0.815   0.572   0.325
  143SOL    HW1  433   0.822   0.483   0.279
  143SOL    HW2  434   0.721   0.606   0.317
  144SOL     OW  435   1.657   0.604   1.206
  144SOL    HW1  436   1.619   0.535   1.268
  144SOL    HW2  437   1.739   0.568   1.162
  145SOL     OW  438   0.252   1.564   1.744
  145SOL    HW1  439   0.222   1.621   1.820
  145SOL    HW2  440   0.245   1.467   1.770
  146SOL     OW  441   0.671   0.464   1.269
  146SOL    HW1  442   0.637   0.375   1.239
  146SOL    HW2  443   0.697   0.518   1.189
  147SOL     OW  444   0.930   1.678   1.465
  147SOL    HW1  445   0.906   1.660   1.370
  147SOL    HW2  446   0.960   1.772   1.475
  148SOL     OW  447   0.473   0.500   0.191
  148SOL    HW1  448   0.534   0.580   0.195
  148SOL    HW2  449   0.378   0.531   0.198
  149SOL     OW  450   0.159   1.137   1.466
  149SOL    HW1  451   0.181   1.076   1.542
  149SOL    HW2  452   0.169   1.088   1.380
  150SOL     OW  453   1.347   1.059   1.234
  150SOL    HW1  454   1.371   0.996   1.160
  150SOL    HW2  455   1.257   1.099   1.216
  151SOL     OW  456   1.302   0.855   0.309
  151SOL    HW1  457   1.216   0.824   0.351
  151SOL    HW2  458   1.298   0.841   0.210
  152SOL     OW  459   1.759   1.747   1.154
  152SOL    HW1  460   1.820   1.777   1.081
  152SOL    HW2  461   1.721   1.658   1.132
  153SOL     OW  462   1.252   1.731   1.128
  153SOL    HW1  463   1.336   1.736   1.074
  153SOL    HW2  464   1.229   1.635   1.146
  154SOL     OW  465   0.083   1.258   1.022
  154SOL    HW1  466   0.078   1.257   1.122
  154SOL    HW2  467   0.000   1.217   0.984
  155SOL     OW  468   0.688   1.662   1.716
  155SOL    HW1  469   0.632   1.743   1.725
  155SOL    HW2  470   0.740   1.666   1.630
  156SOL     OW  471   0.903   0.086   0.133
  156SOL    HW1  472   0.954   0.087   0.047
  156SOL    HW2  473   0.959   0.044   0.204
  157SOL     OW  474   1.726   0.135   0.523
  157SOL    HW1  475   1.799   0.118   0.456
  157SOL    HW2  476   1.695   0.048   0.561
  158SOL     OW  477   1.388   1.573   0.477
  158SOL    HW1  478   1.455   1.585   0.403
  158SOL    HW2  479   1.348   1.662   0.500
  159SOL     OW  480   0.130   1.794   1.851
  159SOL    HW1  481   0.089   1.720   1.904
  159SOL    HW2  482   0.194   1.845   1.909
  160SOL     OW  483   1.280   0.927   0.672
  160SOL    HW1  484   1.340   0.846   0.674
  160SOL    HW2  485   1.320   0.996   0.612
  161SOL     OW  486   0.830   1.273   1.422
  161SOL    HW1  487   0.825   1.306   1.517
  161SOL    HW2  488   0.744   1.292   1.376
  162SOL     OW  489   0.672   1.616   0.154
  162SOL    HW1  490   0.681   1.626   0.055
  162SOL    HW2  491   0.632   1.527   0.175
  163SOL     OW  492   1.650   1.720   1.394
  163SOL    HW1  493   1.703   1.730   1.310
  163SOL    HW2  494   1.623   1.810   1.428
  164SOL     OW  495   1.841   0.175   0.963
  164SOL    HW1  496   1.880   0.090   0.927
  164SOL    HW2  497   1.743   0.177   0.944
  165SOL     OW  498   0.263   0.326   0.720
  165SOL    HW1  499   0.184   0.377   0.686
  165SOL    HW2  500   0.254   0.311   0.818
  166SOL     OW  501   1.194   1.612   0.031
  166SOL    HW1  502   1.200   1.519   0.068
  166SOL    HW2  503   1.135   1.612  -0.049
  167SOL     OW  504   0.822   1.002   1.372
  167SOL    HW1  505   0.862   1.001   1.280
  167SOL    HW2  506   0.832   1.094   1.412
  168SOL     OW  507   0.916   0.910   0.291
  168SOL    HW1  508   0.979   0.948   0.223
  168SOL    HW2  509   0.956   0.827   0.330
  169SOL     OW  510   1.504   1.607   0.044
  169SOL    HW1  511   1.412   1.644   0.051
  169SOL    HW2  512   1.542   1.627  -0.046
  170SOL     OW  513   0.372   1.288   1.490
  170SOL    HW1  514   0.359   1.381   1.456
  170SOL    HW2  515   0.288   1.236   1.477
  171SOL     OW  516   1.614   1.292   1.289
  171SOL    HW1  517   1.674   1.295   1.369
  171SOL    HW2  518   1.539   1.356   1.302
  172SOL     OW  519   1.039   1.098   0.696
  172SOL    HW1  520   0.969   1.051   0.750
  172SOL    HW2  521   1.098   1.030   0.653
  173SOL     OW  522   1.014   0.236   0.971
  173SOL    HW1  523   1.006   0.200   0.878
  173SOL    HW2  524   1.012   0.160   1.036
  174SOL     OW  525   0.590   1.487   0.491
  174SOL    HW1  526   0.632   1.429   0.421
  174SOL    HW2  527   0.546   1.566   0.447
  175SOL     OW  528   1.709   0.385   1.381
  175SOL    HW1  529   1.782   0.454   1.385
  175SOL    HW2  530   1.737   0.310   1.322
  176SOL     OW  531   0.255   1.348   0.290
  176SOL    HW1  532   0.159   1.349   0.263
  176SOL    HW2  533   0.267   1.401   0.374
  177SOL     OW  534   0.105   1.013   1.726
  177SOL    HW1  535   0.028   0.980   1.780
  177SOL    HW2  536   0.190   0.983   1.768
  178SOL     OW  537   0.672   0.203   1.489
  178SOL    HW1  538   0.762   0.187   1.449
  178SOL    HW2  539   0.680   0.208   1.588
  179SOL     OW  540   0.075   0.345   0.033
  179SOL    HW1  541  -0.017   0.317   0.004
  179SOL    HW2  542   0.106   0.422  -0.023
  180SOL     OW  543   1.440   0.856   1.398
  180SOL    HW1  544   1.383   0.908   1.335
  180SOL    HW2  545   1.536   0.868   1.374
  181SOL     OW  546   0.072   0.166   0.318
  181SOL    HW1  547   0.055   0.249   0.264
  181SOL    HW2  548   0.162   0.129   0.296
  182SOL     OW  549   1.183   1.335   0.119
  182SOL    HW1  550   1.084   1.324   0.121
  182SOL    HW2  551   1.217   1.350   0.212
  183SOL     OW  552   0.613   0.842   1.431
  183SOL    HW1  553   0.669   0.923   1.414
  183SOL    HW2  554   0.672   0.762   1.434
  184SOL     OW  555   1.493   1.767   0.959
  184SOL    HW1  556   1.526   1.831   0.890
  184SOL    HW2  557   1.559   1.761   1.034
  185SOL     OW  558   0.716   0.565   1.708
  185SOL    HW1  559   0.735   0.630   1.782
  185SOL    HW2  560   0.776   0.485   1.717
  186SOL     OW  561   1.450   1.220   1.633
  186SOL    HW1  562   1.441   1.210   1.732
  186SOL    HW2  563   1.546   1.213   1.607
  187SOL     OW  564   0.390   1.741   1.560
  187SOL    HW1  565   0.299   1.782   1.558
  187SOL    HW2  566   0.383   1.647   1.592
  188SOL     OW  567   1.674   0.883   1.254
  188SOL    HW1  568   1.647   0.794   1.217
  188SOL    HW2  569   1.675   0.951   1.181
  189SOL     OW  570   1.225   0.325   0.449
  189SOL    HW1  571   1.290   0.251   0.438
  189SOL    HW2  572   1.245   0.375   0.533
  190SOL     OW  573   0.594   0.745   0.652
  190SOL    HW1  574   0.644   0.830   0.633
  190SOL    HW2  575   0.506   0.747   0.604
  191SOL     OW  576   1.777   0.342   1.642
  191SOL    HW1  577   1.760   0.373   1.548
  191SOL    HW2  578   1.693   0.305   1.680
  192SOL     OW  579   1.730   0.934   1.517
  192SOL    HW1  580   1.768   1.025   1.532
  192SOL    HW2  581   1.722   0.917   1.418
  193SOL     OW  582   0.859   1.374   0.016
  193SOL    HW1  583   0.813   1.389   0.104
  193SOL    HW2  584   0.903   1.459  -0.014
  194SOL     OW  585   0.661   1.790   0.953
  194SOL    HW1  586   0.615   1.878   0.940
  194SOL    HW2  587   0.760   1.802   0.946
  195SOL     OW  588   0.859   0.956   0.861
  195SOL    HW1  589   0.913   0.887   0.909
  195SOL    HW2  590   0.827   1.025   0.927
  196SOL     OW  591   1.083   0.984   0.087
  196SOL    HW1  592   1.060   1.037   0.005
  196SOL    HW2  593   1.164   0.928   0.068
  197SOL     OW  594   1.861   1.569   0.851
  197SOL    HW1  595   1.790   1.557   0.781
  197SOL    HW2  596   1.862   1.490   0.911
  198SOL     OW  597   0.221   1.314   1.844
  198SOL    HW1  598   0.156   1.241   1.823
  198SOL    HW2  599   0.225   1.328   1.942
  199SOL     OW  600   0.079   1.240   0.653
  199SOL    HW1  601   0.078   1.193   0.741
  199SOL    HW2  602   0.161   1.212   0.602
  200SOL     OW  603   0.672   1.391   1.624
  200SOL    HW1  604   0.594   1.341   1.662
  200SOL    HW2  605   0.669   1.486   1.655
  201SOL     OW  606   1.824   0.192   1.227
  201SOL    HW1  607   1.820   0.102   1.271
  201SOL    HW2  608   1.827   0.181   1.128
  202SOL     OW  609   0.428   0.424   0.520
  202SOL    HW1  610   0.458   0.352   0.458
  202SOL    HW2  611   0.389   0.384   0.603
  203SOL     OW  612   1.705   1.487   1.104
  203SOL    HW1  613   1.612   1.462   1.077
  203SOL    HW2  614   1.731   1.437   1.186
  204SOL     OW  615   0.317   0.547   1.280
  204SOL    HW1  616   0.355   0.488   1.352
  204SOL    HW2  617   0.357   0.521   1.192
  205SOL     OW  618   0.812   1.586   0.687
  205SOL    HW1  619   0.844   1.596   0.593
  205SOL    HW2  620   0.733   1.524   0.689
  206SOL     OW  621   1.424   0.214   1.112
  206SOL    HW1  622   1.476   0.149   1.167
  206SOL    HW2  623   1.375   0.277   1.173
  207SOL     OW  624   1.001   0.034   1.154
  207SOL    HW1  625   0.938  -0.038   1.123
  207SOL    HW2  626   1.094  -0.002   1.154
  208SOL     OW  627   0.770   1.330   0.301
  208SOL    HW1  628   0.724   1.243   0.318
  208SOL    HW2  629   0.861   1.327   0.342
  209SOL     OW  630   0.618   1.567   1.284
  209SOL    HW1  631   0.613   1.649   1.341
  209SOL    HW2  632   0.707   1.564   1.239
  210SOL     OW  633   1.352   0.052   0.168
  210SOL    HW1  634   1.387   0.011   0.084
  210SOL    HW2  635   1.262   0.014   0.188
  211SOL     OW  636   1.300   0.453   0.691
  211SOL    HW1  637   1.241   0.533   0.695
  211SOL    HW2  638   1.315   0.418   0.784
  212SOL     OW  639   1.593   0.221   0.882
  212SOL    HW1  640   1.509   0.220   0.936
  212SOL    HW2  641   1.595   0.304   0.826
  213SOL     OW  642   0.039   1.077   0.300
  213SOL    HW1  643   0.138   1.066   0.291
  213SOL    HW2  644  -0.001   0.991   0.332
  214SOL     OW  645   0.875   1.646   0.337
  214SOL    HW1  646   0.798   1.611   0.283
  214SOL    HW2  647   0.843   1.717   0.399
  215SOL     OW  648   0.230   0.628   1.975
  215SOL    HW1  649   0.137   0.626   2.012
  215SOL    HW2  650   0.231   0.589   1.883
  216SOL     OW  651   0.225   0.275   2.858
  216SOL    HW1  652   0.260   0.258   2.950
  216SOL    HW2  653   0.137   0.230   2.846
  217SOL     OW  654   0.019   0.368   2.509
  217SOL    HW1  655  -0.063   0.411   2.548
  217SOL    HW2  656  -0.009   0.295   2.446
  218SOL     OW  657   0.569   1.275   3.027
  218SOL    HW1  658   0.476   1.268   2.990
  218SOL    HW2  659   0.580   1.364   3.071
  219SOL     OW  660   1.555   1.511   2.565
  219SOL    HW1  661   1.498   1.495   2.646
  219SOL    HW2  662   1.496   1.521   2.485
  220SOL     OW  663   1.135   0.703   2.579
  220SOL    HW1  664   1.192   0.781   2.554
  220SOL    HW2  665   1.075   0.729   2.655
  221SOL     OW  666   1.755   0.607   2.093
  221SOL    HW1  667   1.743   0.594   1.994
  221SOL    HW2  668   1.725   0.526   2.142
  222SOL     OW  669   0.768   1.144   2.885
  222SOL    HW1  670   0.690   1.161   2.945
  222SOL    HW2  671   0.802   1.231   2.849
  223SOL     OW  672   0.850   0.798   3.685
  223SOL    HW1  673   0.846   0.874   3.750
  223SOL    HW2  674   0.872   0.834   3.594
  224SOL     OW  675   0.685   1.012   2.527
  224SOL    HW1  676   0.754   0.996   2.597
  224SOL    HW2  677   0.612   1.069   2.565
  225SOL     OW  678   0.686   1.161   3.665
  225SOL    HW1  679   0.746   1.240   3.679
  225SOL    HW2  680   0.600   1.192   3.624
  226SOL     OW  681   0.335   1.435   2.923
  226SOL    HW1  682   0.257   1.404   2.870
  226SOL    HW2  683   0.393   1.493   2.866
  227SOL     OW  684   1.460   1.505   3.201
  227SOL    HW1  685   1.484   1.599   3.227
  227SOL    HW2  686   1.444   1.451   3.283
  228SOL     OW  687   0.438   0.392   3.361
  228SOL    HW1  688   0.520   0.336   3.370
  228SOL    HW2  689   0.357   0.334   3.365
  229SOL     OW  690   1.603   0.447   2.599
  229SOL    HW1  691   1.529   0.493   2.549
  229SOL    HW2  692   1.654   0.515   2.652
  230SOL     OW  693   0.231   1.713   2.345
  230SOL    HW1  694   0.265   1.790   2.399
  230SOL    HW2  695   0.275   1.713   2.255
  231SOL     OW  696   1.127   1.341   3.552
  231SOL    HW1  697   1.174   1.341   3.640
  231SOL    HW2  698   1.079   1.254   3.541
  232SOL     OW  699   0.230   1.434   2.400
  232SOL    HW1  700   0.204   1.530   2.400
  232SOL    HW2  701   0.159   1.380   2.445
  233SOL     OW  702   0.240   1.091   2.748
  233SOL    HW1  703   0.254   1.007   2.800
  233SOL    HW2  704   0.185   1.155   2.803
  234SOL     OW  705   0.620   1.786   3.301
  234SOL    HW1  706   0.528   1.769   3.336
  234SOL    HW2  707   0.648   1.878   3.327
  235SOL     OW  708   0.606   0.964   1.985
  235SOL    HW1  709   0.613   1.048   1.931
  235SOL    HW2  710   0.652   0.977   2.073
  236SOL     OW  711   1.594   0.114   3.342
  236SOL    HW1  712   1.576   0.181   3.270
  236SOL    HW2  713   1.591   0.160   3.431
  237SOL     OW  714   0.122   0.643   2.425
  237SOL    HW1  715   0.077   0.555   2.442
  237SOL    HW2  716   0.121   0.697   2.509
  238SOL     OW  717   1.842   1.767   2.221
  238SOL    HW1  718   1.896   1.738   2.301
  238SOL    HW2  719   1.872   1.857   2.192
  239SOL     OW  720   0.027   1.596   1.979
  239SOL    HW1  721   0.008   1.500   2.000
  239SOL    HW2  722  -0.006   1.654   2.054
  240SOL     OW  723   1.689   0.922   2.474
  240SOL    HW1  724   1.784   0.893   2.482
  240SOL    HW2  725   1.681   0.987   2.399
  241SOL     OW  726   1.641   1.108   2.294
  241SOL    HW1  727   1.727   1.110   2.242
  241SOL    HW2  728   1.655   1.155   2.382
  242SOL     OW  729   0.113   0.737   3.459
  242SOL    HW1  730   0.201   0.724   3.504
  242SOL    HW2  731   0.100   0.834   3.437
  243SOL     OW  732   0.613   1.365   2.588
  243SOL    HW1  733   0.564   1.278   2.597
  243SOL    HW2  734   0.590   1.408   2.501
  244SOL     OW  735   1.293   1.228   3.285
  244SOL    HW1  736   1.330   1.155   3.227
  244SOL    HW2  737   1.345   1.233   3.370
  245SOL     OW  738   0.809   0.004   2.364
  245SOL    HW1  739   0.849   0.095   2.355
  245SOL    HW2  740   0.709   0.012   2.370
  246SOL     OW  741   0.197   0.976   3.126
  246SOL    HW1  742   0.286   0.931   3.112
  246SOL    HW2  743   0.124   0.911   3.107
  247SOL     OW  744   1.525   0.999   2.052
  247SOL    HW1  745   1.462   0.923   2.065
  247SOL    HW2  746   1.573   1.017   2.138
  248SOL     OW  747   1.187   1.792   3.478
  248SOL    HW1  748   1.211   1.852   3.402
  248SOL    HW2  749   1.194   1.697   3.448
  249SOL     OW  750   0.317   0.251   3.663
  249SOL    HW1  751   0.388   0.322   3.669
  249SOL    HW2  752   0.229   0.290   3.691
  250SOL     OW  753   1.466   1.417   2.815
  250SOL    HW1  754   1.407   1.423   2.895
  250SOL    HW2  755   1.451   1.329   2.769
  251SOL     OW  756   1.667   1.714   2.434
  251SOL    HW1  757   1.626   1.691   2.346
  251SOL    HW2  758   1.649   1.640   2.499
  252SOL     OW  759   0.598   0.729   2.132
  252SOL    HW1  760   0.622   0.798   2.064
  252SOL    HW2  761   0.520   0.762   2.186
  253SOL     OW  762   1.281   0.345   2.806
  253SOL    HW1  763   1.195   0.295   2.793
  253SOL    HW2  764   1.343   0.291   2.862
  254SOL     OW  765   1.576   1.662   2.169
  254SOL    HW1  766   1.665   1.708   2.172
  254SOL    HW2  767   1.555   1.638   2.074
  255SOL     OW  768   0.807   0.605   3.327
  255SOL    HW1  769   0.760   0.602   3.416
  255SOL    HW2  770   0.756   0.550   3.261
  256SOL     OW  771   1.394   0.469   3.536
  256SOL    HW1  772   1.374   0.512   3.624
  256SOL    HW2  773   1.472   0.407   3.545
  257SOL     OW  774   0.973   0.890   3.434
  257SOL    HW1  775   1.019   0.806   3.405
  257SOL    HW2  776   0.917   0.924   3.359
  258SOL     OW  777   0.991   0.410   3.104
  258SOL    HW1  778   0.914   0.444   3.158
  258SOL    HW2  779   0.957   0.359   3.025
  259SOL     OW  780   1.041   0.701   2.291
  259SOL    HW1  781   1.067   0.697   2.387
  259SOL    HW2  782   0.956   0.650   2.277
  260SOL     OW  783   0.076   0.811   2.651
  260SOL    HW1  784   0.175   0.799   2.660
  260SOL    HW2  785   0.052   0.906   2.672
  261SOL     OW  786   0.130   1.821   3.433
  261SOL    HW1  787   0.120   1.806   3.532
  261SOL    HW2  788   0.044   1.857   3.397
  262SOL     OW  789   0.865   0.348   2.057
  262SOL    HW1  790   0.924   0.411   2.008
  262SOL    HW2  791   0.884   0.254   2.028
  263SOL     OW  792   1.719   0.585   3.693
  263SOL    HW1  793   1.693   0.674   3.657
  263SOL    HW2  794   1.717   0.517   3.620
  264SOL     OW  795   1.362   1.144   2.407
  264SOL    HW1  796   1.445   1.115   2.359
  264SOL    HW2  797   1.313   1.211   2.351
  265SOL     OW  798   0.550   0.196   2.747
  265SOL    HW1  799   0.545   0.191   2.847
  265SOL    HW2  800   0.552   0.292   2.718
  266SOL     OW  801   1.008   1.456   2.339
  266SOL    HW1  802   0.962   1.528   2.287
  266SOL    HW2  803   1.004   1.476   2.437
  267SOL     OW  804   0.351   1.801   2.715
  267SOL    HW1  805   0.401   1.715   2.721
  267SOL    HW2  806   0.416   1.878   2.712
  268SOL     OW  807   1.795   1.066   2.735
  268SOL    HW1  808   1.733   1.051   2.659
  268SOL    HW2  809   1.743   1.077   2.820
  269SOL     OW  810   1.227   1.550   3.368
  269SOL    HW1  811   1.233   1.473   3.432
  269SOL    HW2  812   1.175   1.524   3.288
  270SOL     OW  813   0.321   0.943   2.104
  270SOL    HW1  814   0.403   0.982   2.062
  270SOL    HW2  815   0.294   0.861   2.055
  271SOL     OW  816   1.458   0.735   2.590
  271SOL    HW1  817   1.453   0.670   2.665
  271SOL    HW2  818   1.538   0.794   2.603
  272SOL     OW  819   0.461   1.266   3.589
  272SOL    HW1  820   0.411   1.267   3.503
  272SOL    HW2  821   0.398   1.248   3.665
  273SOL     OW  822   1.111   1.776   2.099
  273SOL    HW1  823   1.051   1.714   2.149
  273SOL    HW2  824   1.142   1.732   2.014
  274SOL     OW  825   0.202   0.285   3.360
  274SOL    HW1  826   0.122   0.345   3.347
  274SOL    HW2  827   0.192   0.236   3.446
  275SOL     OW  828   1.632   1.377   1.943
  275SOL    HW1  829   1.600   1.471   1.933
  275SOL    HW2  830   1.556   1.314   1.931
  276SOL     OW  831   0.464   1.743   2.185
  276SOL    HW1  832   0.497   1.782   2.271
  276SOL    HW2  833   0.540   1.736   2.120
  277SOL     OW  834   1.400   0.107   2.288
  277SOL    HW1  835   1.376   0.070   2.198
  277SOL    HW2  836   1.499   0.123   2.292
  278SOL     OW  837   0.249   1.785   3.103
  278SOL    HW1  838   0.306   1.720   3.153
  278SOL    HW2  839   0.233   1.752   3.010
  279SOL     OW  840   0.940   1.698   2.766
  279SOL    HW1  841   1.020   1.641   2.787
  279SOL    HW2  842   0.891   1.658   2.689
  280SOL     OW  843   0.382   0.700   2.342
  280SOL    HW1  844   0.427   0.610   2.339
  280SOL    HW2  845   0.288   0.689   2.375
  281SOL     OW  846   1.547   0.222   3.591
  281SOL    HW1  847   1.542   0.259   3.683
  281SOL    HW2  848   1.475   0.153   3.579
  282SOL     OW  849   0.614   0.122   1.979
  282SOL    HW1  850   0.712   0.100   1.986
  282SOL    HW2  851   0.583   0.105   1.886
  283SOL     OW  852   0.781   0.264   3.611
  283SOL    HW1  853   0.848   0.203   3.654
  283SOL    HW2  854   0.708   0.283   3.676
  284SOL     OW  855   0.888   1.514   3.057
  284SOL    HW1  856   0.865   1.489   2.963
  284SOL    HW2  857   0.949   1.445   3.096
  285SOL     OW  858   1.351   0.590   3.295
  285SOL    HW1  859   1.379   0.547   3.380
  285SOL    HW2  860   1.376   0.686   3.296
  286SOL     OW  861   0.803   1.402   2.786
  286SOL    HW1  862   0.893   1.416   2.744
  286SOL    HW2  863   0.732   1.404   2.715
  287SOL     OW  864   0.922   0.503   2.761
  287SOL    HW1  865   0.897   0.494   2.665
  287SOL    HW2  866   0.970   0.421   2.792
  288SOL     OW  867   0.539   0.064   2.374
  288SOL    HW1  868   0.458   0.065   2.432
  288SOL    HW2  869   0.542   0.147   2.319
  289SOL     OW  870   1.434   1.188   1.903
  289SOL    HW1  871   1.466   1.112   1.960
  289SOL    HW2  872   1.342   1.215   1.933
  290SOL     OW  873   0.297   0.035   2.033
  290SOL    HW1  874   0.346   0.119   2.012
  290SOL    HW2  875   0.359  -0.030   2.078
  291SOL     OW  876   0.935   0.236   2.342
  291SOL    HW1  877   0.887   0.277   2.264
  291SOL    HW2  878   1.034   0.234   2.323
  292SOL     OW  879   1.076   0.683   3.326
  292SOL    HW1  880   0.996   0.622   3.329
  292SOL    HW2  881   1.157   0.630   3.302
  293SOL     OW  882   1.227   1.570   2.655
  293SOL    HW1  883   1.248   1.644   2.590
  293SOL    HW2  884   1.295   1.570   2.728
  294SOL     OW  885   0.459   1.152   2.603
  294SOL    HW1  886   0.388   1.125   2.668
  294SOL    HW2  887   0.433   1.124   2.510
  295SOL     OW  888   1.271   1.797   2.453
  295SOL    HW1  889   1.315   1.861   2.389
  295SOL    HW2  890   1.221   1.849   2.523
  296SOL     OW  891   1.032   0.549   1.878
  296SOL    HW1  892   0.991   0.631   1.839
  296SOL    HW2  893   1.096   0.575   1.951
  297SOL     OW  894   0.078   0.556   3.248
  297SOL    HW1  895   0.170   0.555   3.207
  297SOL    HW2  896   0.072   0.630   3.315
  298SOL     OW  897   0.561   0.222   3.009
  298SOL    HW1  898   0.599   0.138   3.046
  298SOL    HW2  899   0.473   0.241   3.053
  299SOL     OW  900   0.866   0.454   2.504
  299SOL    HW1  901   0.834   0.526   2.442
  299SOL    HW2  902   0.890   0.373   2.451
  300SOL     OW  903   1.017   0.039   2.615
  300SOL    HW1  904   0.945   0.044   2.546
  300SOL    HW2  905   0.993  -0.030   2.684
  301SOL     OW  906   1.429   1.173   2.729
  301SOL    HW1  907   1.374   1.089   2.722
  301SOL    HW2  908   1.455   1.202   2.637
  302SOL     OW  909   1.466   0.590   2.854
  302SOL    HW1  910   1.436   0.495   2.861
  302SOL    HW2  911   1.539   0.606   2.920
  303SOL     OW  912   1.857   0.833   2.239
  303SOL    HW1  913   1.899   0.769   2.303
  303SOL    HW2  914   1.819   0.782   2.161
  304SOL     OW  915   0.488   1.385   2.036
  304SOL    HW1  916   0.401   1.370   2.083
  304SOL    HW2  917   0.471   1.411   1.941
  305SOL     OW  918   1.664   1.280   2.519
  305SOL    HW1  919   1.763   1.288   2.533
  305SOL    HW2  920   1.619   1.364   2.550
  306SOL     OW  921   1.390   0.575   1.940
  306SOL    HW1  922   1.336   0.554   2.021
  306SOL    HW2  923   1.481   0.534   1.949
  307SOL     OW  924   0.527   0.256   2.190
  307SOL    HW1  925   0.554   0.197   2.115
  307SOL    HW2  926   0.527   0.351   2.159
  308SOL     OW  927   1.754   1.223   3.450
  308SOL    HW1  928   1.845   1.184   3.437
  308SOL    HW2  929   1.762   1.319   3.474
  309SOL     OW  930   1.064   1.347   3.202
  309SOL    HW1  931   0.984   1.324   3.257
  309SOL    HW2  932   1.147   1.321   3.251
  310SOL     OW  933   1.592   1.629   3.487
  310SOL    HW1  934   1.619   1.663   3.397
  310SOL    HW2  935   1.671   1.591   3.533
  311SOL     OW  936   1.111   1.195   2.962
  311SOL    HW1  937   1.071   1.239   3.043
  311SOL    HW2  938   1.070   1.232   2.879
  312SOL     OW  939   1.638   1.099   2.941
  312SOL    HW1  940   1.643   1.180   3.000
  312SOL    HW2  941   1.552   1.101   2.890
  313SOL     OW  942   0.915   0.089   3.264
  313SOL    HW1  943   0.940   0.069   3.169
  313SOL    HW2  944   0.987   0.145   3.306
  314SOL     OW  945   0.980   1.116   3.581
  314SOL    HW1  946   0.881   1.122   3.591
  314SOL    HW2  947   1.003   1.036   3.525
  315SOL     OW  948   0.705   1.050   2.230
  315SOL    HW1  949   0.691   1.057   2.329
  315SOL    HW2  950   0.789   0.999   2.212
  316SOL     OW  951   0.410   0.813   3.113
  316SOL    HW1  952   0.496   0.825   3.163
  316SOL    HW2  953   0.368   0.726   3.140
  317SOL     OW  954   1.274   0.386   3.124
  317SOL    HW1  955   1.295   0.460   3.188
  317SOL    HW2  956   1.185   0.403   3.081
  318SOL     OW  957   0.064   1.564   3.193
  318SOL    HW1  958   0.018   1.646   3.159
  318SOL    HW2  959   0.162   1.583   3.202
  319SOL     OW  960   0.367   1.100   2.363
  319SOL    HW1  961   0.360   1.183   2.307
  319SOL    HW2  962   0.371   1.020   2.303
  320SOL     OW  963   0.566   0.537   2.727
  320SOL    HW1  964   0.578   0.603   2.653
  320SOL    HW2  965   0.612   0.571   2.810
  321SOL     OW  966   1.252   1.348   2.250
  321SOL    HW1  967   1.302   1.425   2.290
  321SOL    HW2  968   1.157   1.350   2.282
  322SOL     OW  969   1.272   1.445   3.004
  322SOL    HW1  970   1.319   1.458   3.091
  322SOL    HW2  971   1.206   1.371   3.013
  323SOL     OW  972   1.582   0.639   2.334
  323SOL    HW1  973   1.551   0.700   2.407
  323SOL    HW2  974   1.632   0.691   2.265
  324SOL     OW  975   0.354   1.510   3.191
  324SOL    HW1  976   0.333   1.466   3.104
  324SOL    HW2  977   0.451   1.536   3.194
  325SOL     OW  978   0.402   0.751   3.460
  325SOL    HW1  979   0.470   0.806   3.413
  325SOL    HW2  980   0.442   0.663   3.487
  326SOL     OW  981   1.587   0.779   3.532
  326SOL    HW1  982   1.495   0.817   3.527
  326SOL    HW2  983   1.647   0.826   3.467
  327SOL     OW  984   1.013   0.105   3.632
  327SOL    HW1  985   1.019   0.190   3.580
  327SOL    HW2  986   1.045   0.029   3.575
  328SOL     OW  987   0.504   0.050   3.602
  328SOL    HW1  988   0.462  -0.007   3.532
  328SOL    HW2  989   0.438   0.119   3.634
  329SOL     OW  990   0.573   0.870   2.891
  329SOL    HW1  991   0.617   0.959   2.882
  329SOL    HW2  992   0.510   0.870   2.968
  330SOL     OW  993   1.360   0.862   2.907
  330SOL    HW1  994   1.285   0.862   2.841
  330SOL    HW2  995   1.397   0.770   2.916
  331SOL     OW  996   1.209   0.525   2.137
  331SOL    HW1  997   1.222   0.441   2.191
  331SOL    HW2  998   1.180   0.599   2.197
  332SOL     OW  999   0.307   0.213   3.093
  332SOL    HW1 1000   0.284   0.250   3.183
  332SOL    HW2 1001   0.277   0.118   3.087
  333SOL     OW 1002   0.037   1.310   3.144
  333SOL    HW1 1003   0.090   1.261   3.212
  333SOL    HW2 1004   0.059   1.408   3.149
  334SOL     OW 1005   0.732   0.634   2.926
  334SOL    HW1 1006   0.791   0.608   2.850
  334SOL    HW2 1007   0.704   0.730   2.915
  335SOL     OW 1008   1.728   0.935   3.716
  335SOL    HW1 1009   1.682   0.928   3.627
  335SOL    HW2 1010   1.666   0.979   3.782
  336SOL     OW 1011   0.307   0.063   2.480
  336SOL    HW1 1012   0.296   0.157   2.513
  336SOL    HW2 1013   0.302   0.000   2.557
  337SOL     OW 1014   1.622   0.367   2.236
  337SOL    HW1 1015   1.624   0.291   2.300
  337SOL    HW2 1016   1.574   0.444   2.276
  338SOL     OW 1017   1.023   0.766   2.828
  338SOL    HW1 1018   1.038   0.787   2.924
  338SOL    HW2 1019   0.993   0.671   2.819
  339SOL     OW 1020   0.980   1.573   3.562
  339SOL    HW1 1021   0.960   1.617   3.474
  339SOL    HW2 1022   1.019   1.482   3.546
  340SOL     OW 1023   1.859   1.518   3.467
  340SOL    HW1 1024   1.873   1.545   3.372
  340SOL    HW2 1025   1.942   1.540   3.520
  341SOL     OW 1026   0.350   0.898   3.666
  341SOL    HW1 1027   0.426   0.942   3.714
  341SOL    HW2 1028   0.385   0.851   3.584
  342SOL     OW 1029   1.540   0.274   1.987
  342SOL    HW1 1030   1.479   0.199   2.010
  342SOL    HW2 1031   1.562   0.326   2.070
  343SOL     OW 1032   1.303   0.838   1.904
  343SOL    HW1 1033   1.337   0.745   1.919
  343SOL    HW2 1034   1.321   0.865   1.809
  344SOL     OW 1035   1.068   1.333   2.711
  344SOL    HW1 1036   1.075   1.249   2.656
  344SOL    HW2 1037   1.130   1.402   2.675
  345SOL     OW 1038   0.319   0.810   2.811
  345SOL    HW1 1039   0.412   0.846   2.816
  345SOL    HW2 1040   0.313   0.725   2.863
  346SOL     OW 1041   0.339   0.509   2.868
  346SOL    HW1 1042   0.287   0.426   2.851
  346SOL    HW2 1043   0.416   0.514   2.804
  347SOL     OW 1044   1.138   0.380   3.540
  347SOL    HW1 1045   1.093   0.443   3.604
  347SOL    HW2 1046   1.231   0.411   3.523
  348SOL     OW 1047   1.160   0.207   3.339
  348SOL    HW1 1048   1.160   0.271   3.416
  348SOL    HW2 1049   1.188   0.255   3.256
  349SOL     OW 1050   0.008   1.326   2.062
  349SOL    HW1 1051  -0.085   1.347   2.031
  349SOL    HW2 1052   0.018   1.227   2.075
  350SOL     OW 1053   0.088   1.801   2.789
  350SOL    HW1 1054   0.046   1.715   2.762
  350SOL    HW2 1055   0.182   1.804   2.755
  351SOL     OW 1056   0.504   1.568   2.772
  351SOL    HW1 1057   0.570   1.642   2.781
  351SOL    HW2 1058   0.548   1.489   2.730
  352SOL     OW 1059   1.002   0.796   3.100
  352SOL    HW1 1060   1.043   0.764   3.186
  352SOL    HW2 1061   0.906   0.769   3.097
  353SOL     OW 1062   0.040   0.544   2.976
  353SOL    HW1 1063   0.125   0.511   2.935
  353SOL    HW2 1064   0.053   0.559   3.074
  354SOL     OW 1065   0.189   0.520   3.584
  354SOL    HW1 1066   0.248   0.480   3.514
  354SOL    HW2 1067   0.131   0.591   3.543
  355SOL     OW 1068   1.369   0.950   3.522
  355SOL    HW1 1069   1.408   1.039   3.542
  355SOL    HW2 1070   1.379   0.930   3.425
  356SOL     OW 1071   0.815   0.572   2.187
  356SOL    HW1 1072   0.822   0.483   2.141
  356SOL    HW2 1073   0.721   0.606   2.179
  357SOL     OW 1074   1.657   0.604   3.068
  357SOL    HW1 1075   1.619   0.535   3.130
  357SOL    HW2 1076   1.739   0.568   3.024
  358SOL     OW 1077   0.252   1.564   3.606
  358SOL    HW1 1078   0.222   1.621   3.682
  358SOL    HW2 1079   0.245   1.467   3.632
  359SOL     OW 1080   0.671   0.464   3.131
  359SOL    HW1 1081   0.637   0.375   3.101
  359SOL    HW2 1082   0.697   0.518   3.051
  360SOL     OW 1083   0.930   1.678   3.327
  360SOL    HW1 1084   0.906   1.660   3.232
  360SOL    HW2 1085   0.960   1.772   3.337
  361SOL     OW 1086   0.473   0.500   2.053
  361SOL    HW1 1087   0.534   0.580   2.057
  361SOL    HW2 1088   0.378   0.531   2.060
  362SOL     OW 1089   0.159   1.137   3.328
  362SOL    HW1 1090   0.181   1.076   3.404
  362SOL    HW2 1091   0.169   1.088   3.242
  363SOL     OW 1092   1.347   1.059   3.096
  363SOL    HW1 1093   1.371   0.996   3.022
  363SOL    HW2 1094   1.257   1.099   3.078
  364SOL     OW 1095   1.302   0.855   2.171
  364SOL    HW1 1096   1.216   0.824   2.213
  364SOL    HW2 1097   1.298   0.841   2.072
  365SOL     OW 1098   1.759   1.747   3.016
  365SOL    HW1 1099   1.820   1.777   2.943
  365SOL    HW2 1100   1.721   1.658   2.994
  366SOL     OW 1101   1.252   1.731   2.990
  366SOL    HW1 1102   1.336   1.736   2.936
  366SOL    HW2 1103   1.229   1.635   3.008
  367SOL     OW 1104   0.083   1.258   2.884
  367SOL    HW1 1105   0.078   1.257   2.984
  367SOL    HW2 1106   0.000   1.217   2.846
  368SOL     OW 1107   0.688   1.662   3.578
  368SOL    HW1 1108   0.632   1.743   3.587
  368SOL    HW2 1109   0.740   1.666   3.492
  369SOL     OW 1110   1.726   0.135   2.385
  369SOL    HW1 1111   1.799   0.118   2.318
  369SOL    HW2 1112   1.695   0.048   2.423
  370SOL     OW 1113   1.388   1.573   2.339
  370SOL    HW1 1114   1.455   1.585   2.265
  370SOL    HW2 1115   1.348   1.662   2.362
  371SOL     OW 1116   0.130   1.794   3.713
  371SOL    HW1 1117   0.089   1.720   3.766
  371SOL    HW2 1118   0.194   1.845   3.771
  372SOL     OW 1119   1.280   0.927   2.534
  372SOL    HW1 1120   1.340   0.846   2.536
  372SOL    HW2 1121   1.320   0.996   2.474
  373SOL     OW 1122   0.830   1.273   3.284
  373SOL    HW1 1123   0.825   1.306   3.379
  373SOL    HW2 1124   0.744   1.292   3.238
  374SOL     OW 1125   0.672   1.616   2.016
  374SOL    HW1 1126   0.681   1.626   1.917
  374SOL    HW2 1127   0.632   1.527   2.037
  375SOL     OW 1128   1.650   1.720   3.256
  375SOL    HW1 1129   1.703   1.730   3.172
  375SOL    HW2 1130   1.623   1.810   3.290
  376SOL     OW 1131   1.841   0.175   2.825
  376SOL    HW1 1132   1.880   0.090   2.789
  376SOL    HW2 1133   1.743   0.177   2.806
  377SOL     OW 1134   0.263   0.326   2.582
  377SOL    HW1 1135   0.184   0.377   2.548
  377SOL    HW2 1136   0.254   0.311   2.680
  378SOL     OW 1137   1.194   1.612   1.893
  378SOL    HW1 1138   1.200   1.519   1.930
  378SOL    HW2 1139   1.135   1.612   1.813
  379SOL     OW 1140   0.822   1.002   3.234
  379SOL    HW1 1141   0.862   1.001   3.142
  379SOL    HW2 1142   0.832   1.094   3.274
  380SOL     OW 1143   0.916   0.910   2.153
  380SOL    HW1 1144   0.979   0.948   2.085
  380SOL    HW2 1145   0.956   0.827   2.192
  381SOL     OW 1146   1.504   1.607   1.906
  381SOL    HW1 1147   1.412   1.644   1.913
  381SOL    HW2 1148   1.542   1.627   1.816
  382SOL     OW 1149   0.372   1.288   3.352
  382SOL    HW1 1150   0.359   1.381   3.318
  382SOL    HW2 1151   0.288   1.236   3.339
  383SOL     OW 1152   1.614   1.292   3.151
  383SOL    HW1 1153   1.674   1.295   3.231
  383SOL    HW2 1154   1.539   1.356   3.164
  384SOL     OW 1155   1.039   1.098   2.558
  384SOL    HW1 1156   0.969   1.051   2.612
  384SOL    HW2 1157   1.098   1.030   2.515
  385SOL     OW 1158   1.014   0.236   2.833
  385SOL    HW1 1159   1.006   0.200   2.740
  385SOL    HW2 1160   1.012   0.160   2.898
  386SOL     OW 1161   0.590   1.487   2.353
  386SOL    HW1 1162   0.632   1.429   2.283
  386SOL    HW2 1163   0.546   1.566   2.309
  387SOL     OW 1164   1.709   0.385   3.243
  387SOL    HW1 1165   1.782   0.454   3.247
  387SOL    HW2 1166   1.737   0.310   3.184
  388SOL     OW 1167   0.255   1.348   2.152
  388SOL    HW1 1168   0.159   1.349   2.125
  388SOL    HW2 1169   0.267   1.401   2.236
  389SOL     OW 1170   0.105   1.013   3.588
  389SOL    HW1 1171   0.028   0.980   3.642
  389SOL    HW2 1172   0.190   0.983   3.630
  390SOL     OW 1173   0.672   0.203   3.351
  390SOL    HW1 1174   0.762   0.187   3.311
  390SOL    HW2 1175   0.680   0.208   3.450
  391SOL     OW 1176   0.075   0.345   1.895
  391SOL    HW1 1177  -0.017   0.317   1.866
  391SOL    HW2 1178   0.106   0.422   1.839
  392SOL     OW 1179   1.440   0.856   3.260
  392SOL    HW1 1180   1.383   0.908   3.197
  392SOL    HW2 1181   1.536   0.868   3.236
  393SOL     OW 1182   0.072   0.166   2.180
  393SOL    HW1 1183   0.055   0.249   2.126
  393SOL    HW2 1184   0.162   0.129   2.158
  394SOL     OW 1185   1.183   1.335   1.981
  394SOL    HW1 1186   1.084   1.324   1.983
  394SOL    HW2 1187   1.217   1.350   2.074
  395SOL     OW 1188   0.613   0.842   3.293
  395SOL    HW1 1189   0.669   0.923   3.276
  395SOL    HW2 1190   0.672   0.762   3.296
  396SOL     OW 1191   1.493   1.767   2.821
  396SOL    HW1 1192   1.526   1.831   2.752
  396SOL    HW2 1193   1.559   1.761   2.896
  397SOL     OW 1194   0.716   0.565   3.570
  397SOL    HW1 1195   0.735   0.630   3.644
  397SOL    HW2 1196   0.776   0.485   3.579
  398SOL     OW 1197   1.450   1.220   3.495
  398SOL    HW1 1198   1.441   1.210   3.594
  398SOL    HW2 1199   1.546   1.213   3.469
  399SOL     OW 1200   0.390   1.741   3.422
  399SOL    HW1 1201   0.299   1.782   3.420
  399SOL    HW2 1202   0.383   1.647   3.454
  400SOL     OW 1203   1.674   0.883   3.116
  400SOL    HW1 1204   1.647   0.794   3.079
  400SOL    HW2 1205   1.675   0.951   3.043
  401SOL     OW 1206   1.225   0.325   2.311
  401SOL    HW1 1207   1.290   0.251   2.300
  401SOL    HW2 1208   1.245   0.375   2.395
  402SOL     OW 1209   0.594   0.745   2.514
  402SOL    HW1 1210   0.644   0.830   2.495
  402SOL    HW2 1211   0.506   0.747   2.466
  403SOL     OW 1212   1.777   0.342   3.504
  403SOL    HW1 1213   1.760   0.373   3.410
  403SOL    HW2 1214   1.693   0.305   3.542
  404SOL     OW 1215   1.730   0.934   3.379
  404SOL    HW1 1216   1.768   1.025   3.394
  404SOL    HW2 1217   1.722   0.917   3.280
  405SOL     OW 1218   0.859   1.374   1.878
  405SOL    HW1 1219   0.813   1.389   1.966
  405SOL    HW2 1220   0.903   1.459   1.848
  406SOL     OW 1221   0.661   1.790   2.815
  406SOL    HW1 1222   0.615   1.878   2.802
  406SOL    HW2 1223   0.760   1.802   2.808
  407SOL     OW 1224   0.859   0.956   2.723
  407SOL    HW1 1225   0.913   0.887   2.771
  407SOL    HW2 1226   0.827   1.025   2.789
  408SOL     OW 1227   1.083   0.984   1.949
  408SOL    HW1 1228   1.060   1.037   1.867
  408SOL    HW2 1229   1.164   0.928   1.930
  409SOL     OW 1230   1.861   1.569   2.713
  409SOL    HW1 1231   1.790   1.557   2.643
  409SOL    HW2 1232   1.862   1.490   2.773
  410SOL     OW 1233   0.221   1.314   3.706
  410SOL    HW1 1234   0.156   1.241   3.685
  410SOL    HW2 1235   0.225   1.328   3.804
  411SOL     OW 1236   0.079   1.240   2.515
  411SOL    HW1 1237   0.078   1.193   2.603
  411SOL    HW2 1238   0.161   1.212   2.464
  412SOL     OW 1239   0.672   1.391   3.486
  412SOL    HW1 1240   0.594   1.341   3.524
  412SOL    HW2 1241   0.669   1.486   3.517
  413SOL     OW 1242   1.824   0.192   3.089
  413SOL    HW1 1243   1.820   0.102   3.133
  413SOL    HW2 1244   1.827   0.181   2.990
  414SOL     OW 1245   0.428   0.424   2.382
  414SOL    HW1 1246   0.458   0.352   2.320
  414SOL    HW2 1247   0.389   0.384   2.465
  415SOL     OW 1248   1.705   1.487   2.966
  415SOL    HW1 1249   1.612   1.462   2.939
  415SOL    HW2 1250   1.731   1.437   3.048
  416SOL     OW 1251   0.317   0.547   3.142
  416SOL    HW1 1252   0.355   0.488   3.214
  416SOL    HW2 1253   0.357   0.521   3.054
  417SOL     OW 1254   0.812   1.586   2.549
  417SOL    HW1 1255   0.844   1.596   2.455
  417SOL    HW2 1256   0.733   1.524   2.551
  418SOL     OW 1257   1.424   0.214   2.974
  418SOL    HW1 1258   1.476   0.149   3.029
  418SOL    HW2 1259   1.375   0.277   3.035
  419SOL     OW 1260   1.001   0.034   3.016
  419SOL    HW1 1261   0.938  -0.038   2.985
  419SOL    HW2 1262   1.094  -0.002   3.016
  420SOL     OW 1263   0.770   1.330   2.163
  420SOL    HW1 1264   0.724   1.243   2.180
  420SOL    HW2 1265   0.861   1.327   2.204
  421SOL     OW 1266   0.618   1.567   3.146
  421SOL    HW1 1267   0.613   1.649   3.203
  421SOL    HW2 1268   0.707   1.564   3.101
  422SOL     OW 1269   1.352   0.052   2.030
  422SOL    HW1 1270   1.387   0.011   1.946
  422SOL    HW2 1271   1.262   0.014   2.050
  423SOL     OW 1272   1.300   0.453   2.553
  423SOL    HW1 1273   1.241   0.533   2.557
  423SOL    HW2 1274   1.315   0.418   2.646
  424SOL     OW 1275   1.593   0.221   2.744
  424SOL    HW1 1276   1.509   0.220   2.798
  424SOL    HW2 1277   1.595   0.304   2.688
  425SOL     OW 1278   0.039   1.077   2.162
  425SOL    HW1 1279   0.138   1.066   2.153
  425SOL    HW2 1280  -0.001   0.991   2.194
  426SOL     OW 1281   0.875   1.646   2.199
  426SOL    HW1 1282   0.798   1.611   2.145
  426SOL    HW2 1283   0.843   1.717   2.261
  427SOL     OW 1284   0.230   0.628   3.837
  427SOL    HW1 1285   0.137   0.626   3.874
  427SOL    HW2 1286   0.231   0.589   3.745
  428SOL     OW 1287   1.755   0.607   3.955
  428SOL    HW1 1288   1.743   0.594   3.856
  428SOL    HW2 1289   1.725   0.526   4.004
  429SOL     OW 1290   0.231   1.713   4.207
  429SOL    HW1 1291   0.265   1.790   4.261
  429SOL    HW2 1292   0.275   1.713   4.117
  430SOL     OW 1293   0.230   1.434   4.262
  430SOL    HW1 1294   0.204   1.530   4.262
  430SOL    HW2 1295   0.159   1.380   4.307
  431SOL     OW 1296   0.606   0.964   3.847
  431SOL    HW1 1297   0.613   1.048   3.793
  431SOL    HW2 1298   0.652   0.977   3.935
  432SOL     OW 1299   0.122   0.643   4.287
  432SOL    HW1 1300   0.077   0.555   4.304
  432SOL    HW2 1301   0.121   0.697   4.371
  433SOL     OW 1302   1.842   1.767   4.083
  433SOL    HW1 1303   1.896   1.738   4.163
  433SOL    HW2 1304   1.872   1.857   4.054
  434SOL     OW 1305   0.027   1.596   3.841
  434SOL    HW1 1306   0.008   1.500   3.862
  434SOL    HW2 1307  -0.006   1.654   3.916
  435SOL     OW 1308   1.689   0.922   4.336
  435SOL    HW1 1309   1.784   0.893   4.344
  435SOL    HW2 1310   1.681   0.987   4.261
  436SOL     OW 1311   1.641   1.108   4.156
  436SOL    HW1 1312   1.727   1.110   4.104
  436SOL    HW2 1313   1.655   1.155   4.244
  437SOL     OW 1314   0.809   0.004   4.226
  437SOL    HW1 1315   0.849   0.095   4.217
  437SOL    HW2 1316   0.709   0.012   4.232
  438SOL     OW 1317   1.525   0.999   3.914
  438SOL    HW1 1318   1.462   0.923   3.927
  438SOL    HW2 1319   1.573   1.017   4.000
  439SOL     OW 1320   0.598   0.729   3.994
  439SOL    HW1 1321   0.622   0.798   3.926
  439SOL    HW2 1322   0.520   0.762   4.048
  440SOL     OW 1323   1.576   1.662   4.031
  440SOL    HW1 1324   1.665   1.708   4.034
  440SOL    HW2 1325   1.555   1.638   3.936
  441SOL     OW 1326   1.041   0.701   4.153
  441SOL    HW1 1327   1.067   0.697   4.249
  441SOL    HW2 1328   0.956   0.650   4.139
  442SOL     OW 1329   0.076   0.811   4.513
  442SOL    HW1 1330   0.175   0.799   4.522
  442SOL    HW2 1331   0.052   0.906   4.534
  443SOL     OW 1332   0.865   0.348   3.919
  443SOL    HW1 1333   0.924   0.411   3.870
  443SOL    HW2 1334   0.884   0.254   3.890
  444SOL     OW 1335   0.321   0.943   3.966
  444SOL    HW1 1336   0.403   0.982   3.924
  444SOL    HW2 1337   0.294   0.861   3.917
  445SOL     OW 1338   1.111   1.776   3.961
  445SOL    HW1 1339   1.051   1.714   4.011
  445SOL    HW2 1340   1.142   1.732   3.876
  446SOL     OW 1341   1.632   1.377   3.805
  446SOL    HW1 1342   1.600   1.471   3.795
  446SOL    HW2 1343   1.556   1.314   3.793
  447SOL     OW 1344   0.464   1.743   4.047
  447SOL    HW1 1345   0.497   1.782   4.133
  447SOL    HW2 1346   0.540   1.736   3.982
  448SOL     OW 1347   1.400   0.107   4.150
  448SOL    HW1 1348   1.376   0.070   4.060
  448SOL    HW2 1349   1.499   0.123   4.154
  449SOL     OW 1350   0.382   0.700   4.204
  449SOL    HW1 1351   0.427   0.610   4.201
  449SOL    HW2 1352   0.288   0.689   4.237
  450SOL     OW 1353   0.614   0.122   3.841
  450SOL    HW1 1354   0.712   0.100   3.848
  450SOL    HW2 1355   0.583   0.105   3.748
  451SOL     OW 1356   0.539   0.064   4.236
  451SOL    HW1 1357   0.458   0.065   4.294
  451SOL    HW2 1358   0.542   0.147   4.181
  452SOL     OW 1359   1.434   1.188   3.765
  452SOL    HW1 1360   1.466   1.112   3.822
  452SOL    HW2 1361   1.342   1.215   3.795
  453SOL     OW 1362   0.297   0.035   3.895
  453SOL    HW1 1363   0.346   0.119   3.874
  453SOL    HW2 1364   0.359  -0.030   3.940
  454SOL     OW 1365   0.935   0.236   4.204
  454SOL    HW1 1366   0.887   0.277   4.126
  454SOL    HW2 1367   1.034   0.234   4.185
  455SOL     OW 1368   0.459   1.152   4.465
  455SOL    HW1 1369   0.388   1.125   4.530
  455SOL    HW2 1370   0.433   1.124   4.372
  456SOL     OW 1371   1.271   1.797   4.315
  456SOL    HW1 1372   1.315   1.861   4.251
  456SOL    HW2 1373   1.221   1.849   4.385
  457SOL     OW 1374   1.032   0.549   3.740
  457SOL    HW1 1375   0.991   0.631   3.701
  457SOL    HW2 1376   1.096   0.575   3.813
  458SOL     OW 1377   0.866   0.454   4.366
  458SOL    HW1 1378   0.834   0.526   4.304
  458SOL    HW2 1379   0.890   0.373   4.313
  459SOL     OW 1380   1.857   0.833   4.101
  459SOL    HW1 1381   1.899   0.769   4.165
  459SOL    HW2 1382   1.819   0.782   4.023
  460SOL     OW 1383   0.488   1.385   3.898
  460SOL    HW1 1384   0.401   1.370   3.945
  460SOL    HW2 1385   0.471   1.411   3.803
  461SOL     OW 1386   1.390   0.575   3.802
  461SOL    HW1 1387   1.336   0.554   3.883
  461SOL    HW2 1388   1.481   0.534   3.811
  462SOL     OW 1389   0.527   0.256   4.052
  462SOL    HW1 1390   0.554   0.197   3.977
  462SOL    HW2 1391   0.527   0.351   4.021
  463SOL     OW 1392   0.705   1.050   4.092
  463SOL    HW1 1393   0.691   1.057   4.191
  463SOL    HW2 1394   0.789   0.999   4.074
  464SOL     OW 1395   0.367   1.100   4.225
  464SOL    HW1 1396   0.360   1.183   4.169
  464SOL    HW2 1397   0.371   1.020   4.165
  465SOL     OW 1398   1.252   1.348   4.112
  465SOL    HW1 1399   1.302   1.425   4.152
  465SOL    HW2 1400   1.157   1.350   4.144
  466SOL     OW 1401   1.582   0.639   4.196
  466SOL    HW1 1402   1.551   0.700   4.269
  466SOL    HW2 1403   1.632   0.691   4.127
  467SOL     OW 1404   1.209   0.525   3.999
  467SOL    HW1 1405   1.222   0.441   4.053
  467SOL    HW2 1406   1.180   0.599   4.059
  468SOL     OW 1407   1.622   0.367   4.098
  468SOL    HW1 1408   1.624   0.291   4.162
  468SOL    HW2 1409   1.574   0.444   4.138
  469SOL     OW 1410   1.540   0.274   3.849
  469SOL    HW1 1411   1.479   0.199   3.872
  469SOL    HW2 1412   1.562   0.326   3.932
  470SOL     OW 1413   1.303   0.838   3.766
  470SOL    HW1 1414   1.337   0.745   3.781
  470SOL    HW2 1415   1.321   0.865   3.671
  471SOL     OW 1416   0.008   1.326   3.924
  471SOL    HW1 1417  -0.085   1.347   3.893
  471SOL    HW2 1418   0.018   1.227   3.937
  472SOL     OW 1419   0.815   0.572   4.049
  472SOL    HW1 1420   0.822   0.483   4.003
  472SOL    HW2 1421   0.721   0.606   4.041
  473SOL     OW 1422   0.473   0.500   3.915
  473SOL    HW1 1423   0.534   0.580   3.919
  473SOL    HW2 1424   0.378   0.531   3.922
  474SOL     OW 1425   1.302   0.855   4.033
  474SOL    HW1 1426   1.216   0.824   4.075
  474SOL    HW2 1427   1.298   0.841   3.934
  475SOL     OW 1428   1.726   0.135   4.247
  475SOL    HW1 1429   1.799   0.118   4.180
  475SOL    HW2 1430   1.695   0.048   4.285
  476SOL     OW 1431   1.388   1.573   4.201
  476SOL    HW1 1432   1.455   1.585   4.127
  476SOL    HW2 1433   1.348   1.662   4.224
  477SOL     OW 1434   0.672   1.616   3.878
  477SOL    HW1 1435   0.681   1.626   3.779
  477SOL    HW2 1436   0.632   1.527   3.899
  478SOL     OW 1437   1.194   1.612   3.755
  478SOL    HW1 1438   1.200   1.519   3.792
  478SOL    HW2 1439   1.135   1.612   3.675
  479SOL     OW 1440   0.916   0.910   4.015
  479SOL    HW1 1441   0.979   0.948   3.947
  479SOL    HW2 1442   0.956   0.827   4.054
  480SOL     OW 1443   1.504   1.607   3.768
  480SOL    HW1 1444   1.412   1.644   3.775
  480SOL    HW2 1445   1.542   1.627   3.678
  481SOL     OW 1446   0.590   1.487   4.215
  481SOL    HW1 1447   0.632   1.429   4.145
  481SOL    HW2 1448   0.546   1.566   4.171
  482SOL     OW 1449   0.255   1.348   4.014
  482SOL    HW1 1450   0.159   1.349   3.987
  482SOL    HW2 1451   0.267   1.401   4.098
  483SOL     OW 1452   0.075   0.345   3.757
  483SOL    HW1 1453  -0.017   0.317   3.728
  483SOL    HW2 1454   0.106   0.422   3.701
  484SOL     OW 1455   0.072   0.166   4.042
  484SOL    HW1 1456   0.055   0.249   3.988
  484SOL    HW2 1457   0.162   0.129   4.020
  485SOL     OW 1458   1.183   1.335   3.843
  485SOL    HW1 1459   1.084   1.324   3.845
  485SOL    HW2 1460   1.217   1.350   3.936
  486SOL     OW 1461   1.225   0.325   4.173
  486SOL    HW1 1462   1.290   0.251   4.162
  486SOL    HW2 1463   1.245   0.375   4.257
  487SOL     OW 1464   0.594   0.745   4.376
  487SOL    HW1 1465   0.644   0.830   4.357
  487SOL    HW2 1466   0.506   0.747   4.328
  488SOL     OW 1467   0.859   1.374   3.740
  488SOL    HW1 1468   0.813   1.389   3.828
  488SOL    HW2 1469   0.903   1.459   3.710
  489SOL     OW 1470   1.083   0.984   3.811
  489SOL    HW1 1471   1.060   1.037   3.729
  489SOL    HW2 1472   1.164   0.928   3.792
  490SOL     OW 1473   0.428   0.424   4.244
  490SOL    HW1 1474   0.458   0.352   4.182
  490SOL    HW2 1475   0.389   0.384   4.327
  491SOL     OW 1476   0.770   1.330   4.025
  491SOL    HW1 1477   0.724   1.243   4.042
  491SOL    HW2 1478   0.861   1.327   4.066
  492SOL     OW 1479   1.352   0.052   3.892
  492SOL    HW1 1480   1.387   0.011   3.808
  492SOL    HW2 1481   1.262   0.014   3.912
  493SOL     OW 1482   0.039   1.077   4.024
  493SOL    HW1 1483   0.138   1.066   4.015
  493SOL    HW2 1484  -0.001   0.991   4.056
  494SOL     OW 1485   0.875   1.646   4.061
  494SOL    HW1 1486   0.798   1.611   4.007
  494SOL    HW2 1487   0.843   1.717   4.123
  495SOL     OW 1488   0.230   2.490   0.113
  495SOL    HW1 1489   0.137   2.488   0.150
  495SOL    HW2 1490   0.231   2.451   0.021
  496SOL     OW 1491   0.225   2.137   0.996
  496SOL    HW1 1492   0.260   2.120   1.088
  496SOL    HW2 1493   0.137   2.092   0.984
  497SOL     OW 1494   0.019   2.230   0.647
  497SOL    HW1 1495  -0.063   2.273   0.686
  497SOL    HW2 1496  -0.009   2.157   0.584
  498SOL     OW 1497   0.569   3.137   1.165
  498SOL    HW1 1498   0.476   3.130   1.128
  498SOL    HW2 1499   0.580   3.226   1.209
  499SOL     OW 1500   1.555   3.373   0.703
  499SOL    HW1 1501   1.498   3.357   0.784
  499SOL    HW2 1502   1.496   3.383   0.623
  500SOL     OW 1503   1.135   2.565   0.717
  500SOL    HW1 1504   1.192   2.643   0.692
  500SOL    HW2 1505   1.075   2.591   0.793
  501SOL     OW 1506   1.755   2.469   0.231
  501SOL    HW1 1507   1.743   2.456   0.132
  501SOL    HW2 1508   1.725   2.388   0.280
  502SOL     OW 1509   0.768   3.006   1.023
  502SOL    HW1 1510   0.690   3.023   1.083
  502SOL    HW2 1511   0.802   3.093   0.987
  503SOL     OW 1512   0.850   2.660   1.823
  503SOL    HW1 1513   0.846   2.736   1.888
  503SOL    HW2 1514   0.872   2.696   1.732
  504SOL     OW 1515   0.685   2.874   0.665
  504SOL    HW1 1516   0.754   2.858   0.735
  504SOL    HW2 1517   0.612   2.931   0.703
  505SOL     OW 1518   0.686   3.023   1.803
  505SOL    HW1 1519   0.746   3.102   1.817
  505SOL    HW2 1520   0.600   3.054   1.762
  506SOL     OW 1521   0.335   3.297   1.061
  506SOL    HW1 1522   0.257   3.266   1.008
  506SOL    HW2 1523   0.393   3.355   1.004
  507SOL     OW 1524   1.460   3.367   1.339
  507SOL    HW1 1525   1.484   3.461   1.365
  507SOL    HW2 1526   1.444   3.313   1.421
  508SOL     OW 1527   0.438   2.254   1.499
  508SOL    HW1 1528   0.520   2.198   1.508
  508SOL    HW2 1529   0.357   2.196   1.503
  509SOL     OW 1530   1.603   2.309   0.737
  509SOL    HW1 1531   1.529   2.355   0.687
  509SOL    HW2 1532   1.654   2.377   0.790
  510SOL     OW 1533   0.231   3.575   0.483
  510SOL    HW1 1534   0.265   3.652   0.537
  510SOL    HW2 1535   0.275   3.575   0.393
  511SOL     OW 1536   1.127   3.203   1.690
  511SOL    HW1 1537   1.174   3.203   1.778
  511SOL    HW2 1538   1.079   3.116   1.679
  512SOL     OW 1539   0.230   3.296   0.538
  512SOL    HW1 1540   0.204   3.392   0.538
  512SOL    HW2 1541   0.159   3.242   0.583
  513SOL     OW 1542   0.240   2.953   0.886
  513SOL    HW1 1543   0.254   2.869   0.938
  513SOL    HW2 1544   0.185   3.017   0.941
  514SOL     OW 1545   0.620   3.648   1.439
  514SOL    HW1 1546   0.528   3.631   1.474
  514SOL    HW2 1547   0.648   3.740   1.465
  515SOL     OW 1548   0.606   2.826   0.123
  515SOL    HW1 1549   0.613   2.910   0.069
  515SOL    HW2 1550   0.652   2.839   0.211
  516SOL     OW 1551   1.594   1.976   1.480
  516SOL    HW1 1552   1.576   2.043   1.408
  516SOL    HW2 1553   1.591   2.022   1.569
  517SOL     OW 1554   0.122   2.505   0.563
  517SOL    HW1 1555   0.077   2.417   0.580
  517SOL    HW2 1556   0.121   2.559   0.647
  518SOL     OW 1557   1.842   3.629   0.359
  518SOL    HW1 1558   1.896   3.600   0.439
  518SOL    HW2 1559   1.872   3.719   0.330
  519SOL     OW 1560   0.027   3.458   0.117
  519SOL    HW1 1561   0.008   3.362   0.138
  519SOL    HW2 1562  -0.006   3.516   0.192
  520SOL     OW 1563   1.689   2.784   0.612
  520SOL    HW1 1564   1.784   2.755   0.620
  520SOL    HW2 1565   1.681   2.849   0.537
  521SOL     OW 1566   1.641   2.970   0.432
  521SOL    HW1 1567   1.727   2.972   0.380
  521SOL    HW2 1568   1.655   3.017   0.520
  522SOL     OW 1569   0.113   2.599   1.597
  522SOL    HW1 1570   0.201   2.586   1.642
  522SOL    HW2 1571   0.100   2.696   1.575
  523SOL     OW 1572   0.613   3.227   0.726
  523SOL    HW1 1573   0.564   3.140   0.735
  523SOL    HW2 1574   0.590   3.270   0.639
  524SOL     OW 1575   1.293   3.090   1.423
  524SOL    HW1 1576   1.330   3.017   1.365
  524SOL    HW2 1577   1.345   3.095   1.508
  525SOL     OW 1578   0.809   1.866   0.502
  525SOL    HW1 1579   0.849   1.957   0.493
  525SOL    HW2 1580   0.709   1.874   0.508
  526SOL     OW 1581   0.197   2.838   1.264
  526SOL    HW1 1582   0.286   2.793   1.250
  526SOL    HW2 1583   0.124   2.773   1.245
  527SOL     OW 1584   1.525   2.861   0.190
  527SOL    HW1 1585   1.462   2.785   0.203
  527SOL    HW2 1586   1.573   2.879   0.276
  528SOL     OW 1587   1.187   3.654   1.616
  528SOL    HW1 1588   1.211   3.714   1.540
  528SOL    HW2 1589   1.194   3.559   1.586
  529SOL     OW 1590   0.317   2.113   1.801
  529SOL    HW1 1591   0.388   2.184   1.807
  529SOL    HW2 1592   0.229   2.152   1.829
  530SOL     OW 1593   1.466   3.279   0.953
  530SOL    HW1 1594   1.407   3.285   1.033
  530SOL    HW2 1595   1.451   3.191   0.907
  531SOL     OW 1596   1.667   3.576   0.572
  531SOL    HW1 1597   1.626   3.553   0.484
  531SOL    HW2 1598   1.649   3.502   0.637
  532SOL     OW 1599   0.598   2.591   0.270
  532SOL    HW1 1600   0.622   2.660   0.202
  532SOL    HW2 1601   0.520   2.624   0.324
  533SOL     OW 1602   1.281   2.207   0.944
  533SOL    HW1 1603   1.195   2.157   0.931
  533SOL    HW2 1604   1.343   2.153   1.000
  534SOL     OW 1605   1.576   3.524   0.307
  534SOL    HW1 1606   1.665   3.570   0.310
  534SOL    HW2 1607   1.555   3.500   0.212
  535SOL     OW 1608   0.807   2.467   1.465
  535SOL    HW1 1609   0.760   2.464   1.554
  535SOL    HW2 1610   0.756   2.412   1.399
  536SOL     OW 1611   1.394   2.331   1.674
  536SOL    HW1 1612   1.374   2.374   1.762
  536SOL    HW2 1613   1.472   2.269   1.683
  537SOL     OW 1614   0.973   2.752   1.572
  537SOL    HW1 1615   1.019   2.668   1.543
  537SOL    HW2 1616   0.917   2.786   1.497
  538SOL     OW 1617   0.991   2.272   1.242
  538SOL    HW1 1618   0.914   2.306   1.296
  538SOL    HW2 1619   0.957   2.221   1.163
  539SOL     OW 1620   1.041   2.563   0.429
  539SOL    HW1 1621   1.067   2.559   0.525
  539SOL    HW2 1622   0.956   2.512   0.415
  540SOL     OW 1623   0.076   2.673   0.789
  540SOL    HW1 1624   0.175   2.661   0.798
  540SOL    HW2 1625   0.052   2.768   0.810
  541SOL     OW 1626   0.130   3.683   1.571
  541SOL    HW1 1627   0.120   3.668   1.670
  541SOL    HW2 1628   0.044   3.719   1.535
  542SOL     OW 1629   0.865   2.210   0.195
  542SOL    HW1 1630   0.924   2.273   0.146
  542SOL    HW2 1631   0.884   2.116   0.166
  543SOL     OW 1632   1.719   2.447   1.831
  543SOL    HW1 1633   1.693   2.536   1.795
  543SOL    HW2 1634   1.717   2.379   1.758
  544SOL     OW 1635   1.362   3.006   0.545
  544SOL    HW1 1636   1.445   2.977   0.497
  544SOL    HW2 1637   1.313   3.073   0.489
  545SOL     OW 1638   0.550   2.058   0.885
  545SOL    HW1 1639   0.545   2.053   0.985
  545SOL    HW2 1640   0.552   2.154   0.856
  546SOL     OW 1641   1.008   3.318   0.477
  546SOL    HW1 1642   0.962   3.390   0.425
  546SOL    HW2 1643   1.004   3.338   0.575
  547SOL     OW 1644   0.351   3.663   0.853
  547SOL    HW1 1645   0.401   3.577   0.859
  547SOL    HW2 1646   0.416   3.740   0.850
  548SOL     OW 1647   1.795   2.928   0.873
  548SOL    HW1 1648   1.733   2.913   0.797
  548SOL    HW2 1649   1.743   2.939   0.958
  549SOL     OW 1650   1.227   3.412   1.506
  549SOL    HW1 1651   1.233   3.335   1.570
  549SOL    HW2 1652   1.175   3.386   1.426
  550SOL     OW 1653   0.321   2.805   0.242
  550SOL    HW1 1654   0.403   2.844   0.200
  550SOL    HW2 1655   0.294   2.723   0.193
  551SOL     OW 1656   1.458   2.597   0.728
  551SOL    HW1 1657   1.453   2.532   0.803
  551SOL    HW2 1658   1.538   2.656   0.741
  552SOL     OW 1659   0.461   3.128   1.727
  552SOL    HW1 1660   0.411   3.129   1.641
  552SOL    HW2 1661   0.398   3.110   1.803
  553SOL     OW 1662   1.111   3.638   0.237
  553SOL    HW1 1663   1.051   3.576   0.287
  553SOL    HW2 1664   1.142   3.594   0.152
  554SOL     OW 1665   0.202   2.147   1.498
  554SOL    HW1 1666   0.122   2.207   1.485
  554SOL    HW2 1667   0.192   2.098   1.584
  555SOL     OW 1668   1.632   3.239   0.081
  555SOL    HW1 1669   1.600   3.333   0.071
  555SOL    HW2 1670   1.556   3.176   0.069
  556SOL     OW 1671   0.464   3.605   0.323
  556SOL    HW1 1672   0.497   3.644   0.409
  556SOL    HW2 1673   0.540   3.598   0.258
  557SOL     OW 1674   1.400   1.969   0.426
  557SOL    HW1 1675   1.376   1.932   0.336
  557SOL    HW2 1676   1.499   1.985   0.430
  558SOL     OW 1677   0.249   3.647   1.241
  558SOL    HW1 1678   0.306   3.582   1.291
  558SOL    HW2 1679   0.233   3.614   1.148
  559SOL     OW 1680   0.940   3.560   0.904
  559SOL    HW1 1681   1.020   3.503   0.925
  559SOL    HW2 1682   0.891   3.520   0.827
  560SOL     OW 1683   0.382   2.562   0.480
  560SOL    HW1 1684   0.427   2.472   0.477
  560SOL    HW2 1685   0.288   2.551   0.513
  561SOL     OW 1686   1.547   2.084   1.729
  561SOL    HW1 1687   1.542   2.121   1.821
  561SOL    HW2 1688   1.475   2.015   1.717
  562SOL     OW 1689   0.614   1.984   0.117
  562SOL    HW1 1690   0.712   1.962   0.124
  562SOL    HW2 1691   0.583   1.967   0.024
  563SOL     OW 1692   0.781   2.126   1.749
  563SOL    HW1 1693   0.848   2.065   1.792
  563SOL    HW2 1694   0.708   2.145   1.814
  564SOL     OW 1695   0.888   3.376   1.195
  564SOL    HW1 1696   0.865   3.351   1.101
  564SOL    HW2 1697   0.949   3.307   1.234
  565SOL     OW 1698   1.351   2.452   1.433
  565SOL    HW1 1699   1.379   2.409   1.518
  565SOL    HW2 1700   1.376   2.548   1.434
  566SOL     OW 1701   0.803   3.264   0.924
  566SOL    HW1 1702   0.893   3.278   0.882
  566SOL    HW2 1703   0.732   3.266   0.853
  567SOL     OW 1704   0.922   2.365   0.899
  567SOL    HW1 1705   0.897   2.356   0.803
  567SOL    HW2 1706   0.970   2.283   0.930
  568SOL     OW 1707   0.539   1.926   0.512
  568SOL    HW1 1708   0.458   1.927   0.570
  568SOL    HW2 1709   0.542   2.009   0.457
  569SOL     OW 1710   1.434   3.050   0.041
  569SOL    HW1 1711   1.466   2.974   0.098
  569SOL    HW2 1712   1.342   3.077   0.071
  570SOL     OW 1713   0.297   1.897   0.171
  570SOL    HW1 1714   0.346   1.981   0.150
  570SOL    HW2 1715   0.359   1.832   0.216
  571SOL     OW 1716   0.935   2.098   0.480
  571SOL    HW1 1717   0.887   2.139   0.402
  571SOL    HW2 1718   1.034   2.096   0.461
  572SOL     OW 1719   1.076   2.545   1.464
  572SOL    HW1 1720   0.996   2.484   1.467
  572SOL    HW2 1721   1.157   2.492   1.440
  573SOL     OW 1722   1.227   3.432   0.793
  573SOL    HW1 1723   1.248   3.506   0.728
  573SOL    HW2 1724   1.295   3.432   0.866
  574SOL     OW 1725   0.459   3.014   0.741
  574SOL    HW1 1726   0.388   2.987   0.806
  574SOL    HW2 1727   0.433   2.986   0.648
  575SOL     OW 1728   1.271   3.659   0.591
  575SOL    HW1 1729   1.315   3.723   0.527
  575SOL    HW2 1730   1.221   3.711   0.661
  576SOL     OW 1731   1.032   2.411   0.016
  576SOL    HW1 1732   0.991   2.493  -0.023
  576SOL    HW2 1733   1.096   2.437   0.089
  577SOL     OW 1734   0.078   2.418   1.386
  577SOL    HW1 1735   0.170   2.417   1.345
  577SOL    HW2 1736   0.072   2.492   1.453
  578SOL     OW 1737   0.561   2.084   1.147
  578SOL    HW1 1738   0.599   2.000   1.184
  578SOL    HW2 1739   0.473   2.103   1.191
  579SOL     OW 1740   0.866   2.316   0.642
  579SOL    HW1 1741   0.834   2.388   0.580
  579SOL    HW2 1742   0.890   2.235   0.589
  580SOL     OW 1743   1.017   1.901   0.753
  580SOL    HW1 1744   0.945   1.906   0.684
  580SOL    HW2 1745   0.993   1.832   0.822
  581SOL     OW 1746   1.429   3.035   0.867
  581SOL    HW1 1747   1.374   2.951   0.860
  581SOL    HW2 1748   1.455   3.064   0.775
  582SOL     OW 1749   1.466   2.452   0.992
  582SOL    HW1 1750   1.436   2.357   0.999
  582SOL    HW2 1751   1.539   2.468   1.058
  583SOL     OW 1752   1.857   2.695   0.377
  583SOL    HW1 1753   1.899   2.631   0.441
  583SOL    HW2 1754   1.819   2.644   0.299
  584SOL     OW 1755   0.488   3.247   0.174
  584SOL    HW1 1756   0.401   3.232   0.221
  584SOL    HW2 1757   0.471   3.273   0.079
  585SOL     OW 1758   1.664   3.142   0.657
  585SOL    HW1 1759   1.763   3.150   0.671
  585SOL    HW2 1760   1.619   3.226   0.688
  586SOL     OW 1761   1.390   2.437   0.078
  586SOL    HW1 1762   1.336   2.416   0.159
  586SOL    HW2 1763   1.481   2.396   0.087
  587SOL     OW 1764   0.527   2.118   0.328
  587SOL    HW1 1765   0.554   2.059   0.253
  587SOL    HW2 1766   0.527   2.213   0.297
  588SOL     OW 1767   1.754   3.085   1.588
  588SOL    HW1 1768   1.845   3.046   1.575
  588SOL    HW2 1769   1.762   3.181   1.612
  589SOL     OW 1770   1.064   3.209   1.340
  589SOL    HW1 1771   0.984   3.186   1.395
  589SOL    HW2 1772   1.147   3.183   1.389
  590SOL     OW 1773   1.592   3.491   1.625
  590SOL    HW1 1774   1.619   3.525   1.535
  590SOL    HW2 1775   1.671   3.453   1.671
  591SOL     OW 1776   1.111   3.057   1.100
  591SOL    HW1 1777   1.071   3.101   1.181
  591SOL    HW2 1778   1.070   3.094   1.017
  592SOL     OW 1779   1.638   2.961   1.079
  592SOL    HW1 1780   1.643   3.042   1.138
  592SOL    HW2 1781   1.552   2.963   1.028
  593SOL     OW 1782   0.915   1.951   1.402
  593SOL    HW1 1783   0.940   1.931   1.307
  593SOL    HW2 1784   0.987   2.007   1.444
  594SOL     OW 1785   0.980   2.978   1.719
  594SOL    HW1 1786   0.881   2.984   1.729
  594SOL    HW2 1787   1.003   2.898   1.663
  595SOL     OW 1788   0.705   2.912   0.368
  595SOL    HW1 1789   0.691   2.919   0.467
  595SOL    HW2 1790   0.789   2.861   0.350
  596SOL     OW 1791   0.410   2.675   1.251
  596SOL    HW1 1792   0.496   2.687   1.301
  596SOL    HW2 1793   0.368   2.588   1.278
  597SOL     OW 1794   1.274   2.248   1.262
  597SOL    HW1 1795   1.295   2.322   1.326
  597SOL    HW2 1796   1.185   2.265   1.219
  598SOL     OW 1797   0.064   3.426   1.331
  598SOL    HW1 1798   0.018   3.508   1.297
  598SOL    HW2 1799   0.162   3.445   1.340
  599SOL     OW 1800   0.367   2.962   0.501
  599SOL    HW1 1801   0.360   3.045   0.445
  599SOL    HW2 1802   0.371   2.882   0.441
  600SOL     OW 1803   0.566   2.399   0.865
  600SOL    HW1 1804   0.578   2.465   0.791
  600SOL    HW2 1805   0.612   2.433   0.948
  601SOL     OW 1806   1.252   3.210   0.388
  601SOL    HW1 1807   1.302   3.287   0.428
  601SOL    HW2 1808   1.157   3.212   0.420
  602SOL     OW 1809   1.272   3.307   1.142
  602SOL    HW1 1810   1.319   3.320   1.229
  602SOL    HW2 1811   1.206   3.233   1.151
  603SOL     OW 1812   1.582   2.501   0.472
  603SOL    HW1 1813   1.551   2.562   0.545
  603SOL    HW2 1814   1.632   2.553   0.403
  604SOL     OW 1815   0.354   3.372   1.329
  604SOL    HW1 1816   0.333   3.328   1.242
  604SOL    HW2 1817   0.451   3.398   1.332
  605SOL     OW 1818   0.402   2.613   1.598
  605SOL    HW1 1819   0.470   2.668   1.551
  605SOL    HW2 1820   0.442   2.525   1.625
  606SOL     OW 1821   1.587   2.641   1.670
  606SOL    HW1 1822   1.495   2.679   1.665
  606SOL    HW2 1823   1.647   2.688   1.605
  607SOL     OW 1824   1.013   1.967   1.770
  607SOL    HW1 1825   1.019   2.052   1.718
  607SOL    HW2 1826   1.045   1.891   1.713
  608SOL     OW 1827   0.504   1.912   1.740
  608SOL    HW1 1828   0.462   1.855   1.670
  608SOL    HW2 1829   0.438   1.981   1.772
  609SOL     OW 1830   0.573   2.732   1.029
  609SOL    HW1 1831   0.617   2.821   1.020
  609SOL    HW2 1832   0.510   2.732   1.106
  610SOL     OW 1833   1.360   2.724   1.045
  610SOL    HW1 1834   1.285   2.724   0.979
  610SOL    HW2 1835   1.397   2.632   1.054
  611SOL     OW 1836   1.209   2.387   0.275
  611SOL    HW1 1837   1.222   2.303   0.329
  611SOL    HW2 1838   1.180   2.461   0.335
  612SOL     OW 1839   0.307   2.075   1.231
  612SOL    HW1 1840   0.284   2.112   1.321
  612SOL    HW2 1841   0.277   1.980   1.225
  613SOL     OW 1842   0.037   3.172   1.282
  613SOL    HW1 1843   0.090   3.123   1.350
  613SOL    HW2 1844   0.059   3.270   1.287
  614SOL     OW 1845   0.732   2.496   1.064
  614SOL    HW1 1846   0.791   2.470   0.988
  614SOL    HW2 1847   0.704   2.592   1.053
  615SOL     OW 1848   1.728   2.797   1.854
  615SOL    HW1 1849   1.682   2.790   1.765
  615SOL    HW2 1850   1.666   2.841   1.920
  616SOL     OW 1851   0.307   1.925   0.618
  616SOL    HW1 1852   0.296   2.019   0.651
  616SOL    HW2 1853   0.302   1.862   0.695
  617SOL     OW 1854   1.622   2.229   0.374
  617SOL    HW1 1855   1.624   2.153   0.438
  617SOL    HW2 1856   1.574   2.306   0.414
  618SOL     OW 1857   1.023   2.628   0.966
  618SOL    HW1 1858   1.038   2.649   1.062
  618SOL    HW2 1859   0.993   2.533   0.957
  619SOL     OW 1860   0.980   3.435   1.700
  619SOL    HW1 1861   0.960   3.479   1.612
  619SOL    HW2 1862   1.019   3.344   1.684
  620SOL     OW 1863   1.859   3.380   1.605
  620SOL    HW1 1864   1.873   3.407   1.510
  620SOL    HW2 1865   1.942   3.402   1.658
  621SOL     OW 1866   0.350   2.760   1.804
  621SOL    HW1 1867   0.426   2.804   1.852
  621SOL    HW2 1868   0.385   2.713   1.722
  622SOL     OW 1869   1.540   2.136   0.125
  622SOL    HW1 1870   1.479   2.061   0.148
  622SOL    HW2 1871   1.562   2.188   0.208
  623SOL     OW 1872   1.303   2.700   0.042
  623SOL    HW1 1873   1.337   2.607   0.057
  623SOL    HW2 1874   1.321   2.727  -0.053
  624SOL     OW 1875   1.068   3.195   0.849
  624SOL    HW1 1876   1.075   3.111   0.794
  624SOL    HW2 1877   1.130   3.264   0.813
  625SOL     OW 1878   0.319   2.672   0.949
  625SOL    HW1 1879   0.412   2.708   0.954
  625SOL    HW2 1880   0.313   2.587   1.001
  626SOL     OW 1881   0.339   2.371   1.006
  626SOL    HW1 1882   0.287   2.288   0.989
  626SOL    HW2 1883   0.416   2.376   0.942
  627SOL     OW 1884   1.138   2.242   1.678
  627SOL    HW1 1885   1.093   2.305   1.742
  627SOL    HW2 1886   1.231   2.273   1.661
  628SOL     OW 1887   1.160   2.069   1.477
  628SOL    HW1 1888   1.160   2.133   1.554
  628SOL    HW2 1889   1.188   2.117   1.394
  629SOL     OW 1890   0.008   3.188   0.200
  629SOL    HW1 1891  -0.085   3.209   0.169
  629SOL    HW2 1892   0.018   3.089   0.213
  630SOL     OW 1893   0.088   3.663   0.927
  630SOL    HW1 1894   0.046   3.577   0.900
  630SOL    HW2 1895   0.182   3.666   0.893
  631SOL     OW 1896   0.504   3.430   0.910
  631SOL    HW1 1897   0.570   3.504   0.919
  631SOL    HW2 1898   0.548   3.351   0.868
  632SOL     OW 1899   1.002   2.658   1.238
  632SOL    HW1 1900   1.043   2.626   1.324
  632SOL    HW2 1901   0.906   2.631   1.235
  633SOL     OW 1902   0.040   2.406   1.114
  633SOL    HW1 1903   0.125   2.373   1.073
  633SOL    HW2 1904   0.053   2.421   1.212
  634SOL     OW 1905   0.189   2.382   1.722
  634SOL    HW1 1906   0.248   2.342   1.652
  634SOL    HW2 1907   0.131   2.453   1.681
  635SOL     OW 1908   1.369   2.812   1.660
  635SOL    HW1 1909   1.408   2.901   1.680
  635SOL    HW2 1910   1.379   2.792   1.563
  636SOL     OW 1911   0.815   2.434   0.325
  636SOL    HW1 1912   0.822   2.345   0.279
  636SOL    HW2 1913   0.721   2.468   0.317
  637SOL     OW 1914   1.657   2.466   1.206
  637SOL    HW1 1915   1.619   2.397   1.268
  637SOL    HW2 1916   1.739   2.430   1.162
  638SOL     OW 1917   0.252   3.426   1.744
  638SOL    HW1 1918   0.222   3.483   1.820
  638SOL    HW2 1919   0.245   3.329   1.770
  639SOL     OW 1920   0.671   2.326   1.269
  639SOL    HW1 1921   0.637   2.237   1.239
  639SOL    HW2 1922   0.697   2.380   1.189
  640SOL     OW 1923   0.930   3.540   1.465
  640SOL    HW1 1924   0.906   3.522   1.370
  640SOL    HW2 1925   0.960   3.634   1.475
  641SOL     OW 1926   0.473   2.362   0.191
  641SOL    HW1 1927   0.534   2.442   0.195
  641SOL    HW2 1928   0.378   2.393   0.198
  642SOL     OW 1929   0.159   2.999   1.466
  642SOL    HW1 1930   0.181   2.938   1.542
  642SOL    HW2 1931   0.169   2.950   1.380
  643SOL     OW 1932   1.347   2.921   1.234
  643SOL    HW1 1933   1.371   2.858   1.160
  643SOL    HW2 1934   1.257   2.961   1.216
  644SOL     OW 1935   1.302   2.717   0.309
  644SOL    HW1 1936   1.216   2.686   0.351
  644SOL    HW2 1937   1.298   2.703   0.210
  645SOL     OW 1938   1.759   3.609   1.154
  645SOL    HW1 1939   1.820   3.639   1.081
  645SOL    HW2 1940   1.721   3.520   1.132
  646SOL     OW 1941   1.252   3.593   1.128
  646SOL    HW1 1942   1.336   3.598   1.074
  646SOL    HW2 1943   1.229   3.497   1.146
  647SOL     OW 1944   0.083   3.120   1.022
  647SOL    HW1 1945   0.078   3.119   1.122
  647SOL    HW2 1946   0.000   3.079   0.984
  648SOL     OW 1947   0.688   3.524   1.716
  648SOL    HW1 1948   0.632   3.605   1.725
  648SOL    HW2 1949   0.740   3.528   1.630
  649SOL     OW 1950   0.903   1.948   0.133
  649SOL    HW1 1951   0.954   1.949   0.047
  649SOL    HW2 1952   0.959   1.906   0.204
  650SOL     OW 1953   1.726   1.997   0.523
  650SOL    HW1 1954   1.799   1.980   0.456
  650SOL    HW2 1955   1.695   1.910   0.561
  651SOL     OW 1956   1.388   3.435   0.477
  651SOL    HW1 1957   1.455   3.447   0.403
  651SOL    HW2 1958   1.348   3.524   0.500
  652SOL     OW 1959   0.130   3.656   1.851
  652SOL    HW1 1960   0.089   3.582   1.904
  652SOL    HW2 1961   0.194   3.707   1.909
  653SOL     OW 1962   1.280   2.789   0.672
  653SOL    HW1 1963   1.340   2.708   0.674
  653SOL    HW2 1964   1.320   2.858   0.612
  654SOL     OW 1965   0.830   3.135   1.422
  654SOL    HW1 1966   0.825   3.168   1.517
  654SOL    HW2 1967   0.744   3.154   1.376
  655SOL     OW 1968   0.672   3.478   0.154
  655SOL    HW1 1969   0.681   3.488   0.055
  655SOL    HW2 1970   0.632   3.389   0.175
  656SOL     OW 1971   1.650   3.582   1.394
  656SOL    HW1 1972   1.703   3.592   1.310
  656SOL    HW2 1973   1.623   3.672   1.428
  657SOL     OW 1974   1.841   2.037   0.963
  657SOL    HW1 1975   1.880   1.952   0.927
  657SOL    HW2 1976   1.743   2.039   0.944
  658SOL     OW 1977   0.263   2.188   0.720
  658SOL    HW1 1978   0.184   2.239   0.686
  658SOL    HW2 1979   0.254   2.173   0.818
  659SOL     OW 1980   1.194   3.474   0.031
  659SOL    HW1 1981   1.200   3.381   0.068
  659SOL    HW2 1982   1.135   3.474  -0.049
  660SOL     OW 1983   0.822   2.864   1.372
  660SOL    HW1 1984   0.862   2.863   1.280
  660SOL    HW2 1985   0.832   2.956   1.412
  661SOL     OW 1986   0.916   2.772   0.291
  661SOL    HW1 1987   0.979   2.810   0.223
  661SOL    HW2 1988   0.956   2.689   0.330
  662SOL     OW 1989   1.504   3.469   0.044
  662SOL    HW1 1990   1.412   3.506   0.051
  662SOL    HW2 1991   1.542   3.489  -0.046
  663SOL     OW 1992   0.372   3.150   1.490
  663SOL    HW1 1993   0.359   3.243   1.456
  663SOL    HW2 1994   0.288   3.098   1.477
  664SOL     OW 1995   1.614   3.154   1.289
  664SOL    HW1 1996   1.674   3.157   1.369
  664SOL    HW2 1997   1.539   3.218   1.302
  665SOL     OW 1998   1.039   2.960   0.696
  665SOL    HW1 1999   0.969   2.913   0.750
  665SOL    HW2 2000   1.098   2.892   0.653
  666SOL     OW 2001   1.014   2.098   0.971
  666SOL    HW1 2002   1.006   2.062   0.878
  666SOL    HW2 2003   1.012   2.022   1.036
  667SOL     OW 2004   0.590   3.349   0.491
  667SOL    HW1 2005   0.632   3.291   0.421
  667SOL    HW2 2006   0.546   3.428   0.447
  668SOL     OW 2007   1.709   2.247   1.381
  668SOL    HW1 2008   1.782   2.316   1.385
  668SOL    HW2 2009   1.737   2.172   1.322
  669SOL     OW 2010   0.255   3.210   0.290
  669SOL    HW1 2011   0.159   3.211   0.263
  669SOL    HW2 2012   0.267   3.263   0.374
  670SOL     OW 2013   0.105   2.875   1.726
  670SOL    HW1 2014   0.028   2.842   1.780
  670SOL    HW2 2015   0.190   2.845   1.768
  671SOL     OW 2016   0.672   2.065   1.489
  671SOL    HW1 2017   0.762   2.049   1.449
  671SOL    HW2 2018   0.680   2.070   1.588
  672SOL     OW 2019   0.075   2.207   0.033
  672SOL    HW1 2020  -0.017   2.179   0.004
  672SOL    HW2 2021   0.106   2.284  -0.023
  673SOL     OW 2022   1.440   2.718   1.398
  673SOL    HW1 2023   1.383   2.770   1.335
  673SOL    HW2 2024   1.536   2.730   1.374
  674SOL     OW 2025   0.072   2.028   0.318
  674SOL    HW1 2026   0.055   2.111   0.264
  674SOL    HW2 2027   0.162   1.991   0.296
  675SOL     OW 2028   1.183   3.197   0.119
  675SOL    HW1 2029   1.084   3.186   0.121
  675SOL    HW2 2030   1.217   3.212   0.212
  676SOL     OW 2031   0.613   2.704   1.431
  676SOL    HW1 2032   0.669   2.785   1.414
  676SOL    HW2 2033   0.672   2.624   1.434
  677SOL     OW 2034   1.493   3.629   0.959
  677SOL    HW1 2035   1.526   3.693   0.890
  677SOL    HW2 2036   1.559   3.623   1.034
  678SOL     OW 2037   0.716   2.427   1.708
  678SOL    HW1 2038   0.735   2.492   1.782
  678SOL    HW2 2039   0.776   2.347   1.717
  679SOL     OW 2040   1.450   3.082   1.633
  679SOL    HW1 2041   1.441   3.072   1.732
  679SOL    HW2 2042   1.546   3.075   1.607
  680SOL     OW 2043   0.390   3.603   1.560
  680SOL    HW1 2044   0.299   3.644   1.558
  680SOL    HW2 2045   0.383   3.509   1.592
  681SOL     OW 2046   1.674   2.745   1.254
  681SOL    HW1 2047   1.647   2.656   1.217
  681SOL    HW2 2048   1.675   2.813   1.181
  682SOL     OW 2049   1.225   2.187   0.449
  682SOL    HW1 2050   1.290   2.113   0.438
  682SOL    HW2 2051   1.245   2.237   0.533
  683SOL     OW 2052   0.594   2.607   0.652
  683SOL    HW1 2053   0.644   2.692   0.633
  683SOL    HW2 2054   0.506   2.609   0.604
  684SOL     OW 2055   1.777   2.204   1.642
  684SOL    HW1 2056   1.760   2.235   1.548
  684SOL    HW2 2057   1.693   2.167   1.680
  685SOL     OW 2058   1.730   2.796   1.517
  685SOL    HW1 2059   1.768   2.887   1.532
  685SOL    HW2 2060   1.722   2.779   1.418
  686SOL     OW 2061   0.859   3.236   0.016
  686SOL    HW1 2062   0.813   3.251   0.104
  686SOL    HW2 2063   0.903   3.321  -0.014
  687SOL     OW 2064   0.661   3.652   0.953
  687SOL    HW1 2065   0.615   3.740   0.940
  687SOL    HW2 2066   0.760   3.664   0.946
  688SOL     OW 2067   0.859   2.818   0.861
  688SOL    HW1 2068   0.913   2.749   0.909
  688SOL    HW2 2069   0.827   2.887   0.927
  689SOL     OW 2070   1.083   2.846   0.087
  689SOL    HW1 2071   1.060   2.899   0.005
  689SOL    HW2 2072   1.164   2.790   0.068
  690SOL     OW 2073   1.861   3.431   0.851
  690SOL    HW1 2074   1.790   3.419   0.781
  690SOL    HW2 2075   1.862   3.352   0.911
  691SOL     OW 2076   0.221   3.176   1.844
  691SOL    HW1 2077   0.156   3.103   1.823
  691SOL    HW2 2078   0.225   3.190   1.942
  692SOL     OW 2079   0.079   3.102   0.653
  692SOL    HW1 2080   0.078   3.055   0.741
  692SOL    HW2 2081   0.161   3.074   0.602
  693SOL     OW 2082   0.672   3.253   1.624
  693SOL    HW1 2083   0.594   3.203   1.662
  693SOL    HW2 2084   0.669   3.348   1.655
  694SOL     OW 2085   1.824   2.054   1.227
  694SOL    HW1 2086   1.820   1.964   1.271
  694SOL    HW2 2087   1.827   2.043   1.128
  695SOL     OW 2088   0.428   2.286   0.520
  695SOL    HW1 2089   0.458   2.214   0.458
  695SOL    HW2 2090   0.389   2.246   0.603
  696SOL     OW 2091   1.705   3.349   1.104
  696SOL    HW1 2092   1.612   3.324   1.077
  696SOL    HW2 2093   1.731   3.299   1.186
  697SOL     OW 2094   0.317   2.409   1.280
  697SOL    HW1 2095   0.355   2.350   1.352
  697SOL    HW2 2096   0.357   2.383   1.192
  698SOL     OW 2097   0.812   3.448   0.687
  698SOL    HW1 2098   0.844   3.458   0.593
  698SOL    HW2 2099   0.733   3.386   0.689
  699SOL     OW 2100   1.424   2.076   1.112
  699SOL    HW1 2101   1.476   2.011   1.167
  699SOL    HW2 2102   1.375   2.139   1.173
  700SOL     OW 2103   1.001   1.896   1.154
  700SOL    HW1 2104   0.938   1.824   1.123
  700SOL    HW2 2105   1.094   1.860   1.154
  701SOL     OW 2106   0.770   3.192   0.301
  701SOL    HW1 2107   0.724   3.105   0.318
  701SOL    HW2 2108   0.861   3.189   0.342
  702SOL     OW 2109   0.618   3.429   1.284
  702SOL    HW1 2110   0.613   3.511   1.341
  702SOL    HW2 2111   0.707   3.426   1.239
  703SOL     OW 2112   1.352   1.914   0.168
  703SOL    HW1 2113   1.387   1.873   0.084
  703SOL    HW2 2114   1.262   1.876   0.188
  704SOL     OW 2115   1.300   2.315   0.691
  704SOL    HW1 2116   1.241   2.395   0.695
  704SOL    HW2 2117   1.315   2.280   0.784
  705SOL     OW 2118   1.593   2.083   0.882
  705SOL    HW1 2119   1.509   2.082   0.936
  705SOL    HW2 2120   1.595   2.166   0.826
  706SOL     OW 2121   0.039   2.939   0.300
  706SOL    HW1 2122   0.138   2.928   0.291
  706SOL    HW2 2123  -0.001   2.853   0.332
  707SOL     OW 2124   0.875   3.508   0.337
  707SOL    HW1 2125   0.798   3.473   0.283
  707SOL    HW2 2126   0.843   3.579   0.399
  708SOL     OW 2127   0.230   2.490   1.975
  708SOL    HW1 2128   0.137   2.488   2.012
  708SOL    HW2 2129   0.231   2.451   1.883
  709SOL     OW 2130   0.225   2.137   2.858
  709SOL    HW1 2131   0.260   2.120   2.950
  709SOL    HW2 2132   0.137   2.092   2.846
  710SOL     OW 2133   0.019   2.230   2.509
  710SOL    HW1 2134  -0.063   2.273   2.548
  710SOL    HW2 2135  -0.009   2.157   2.446
  711SOL     OW 2136   0.569   3.137   3.027
  711SOL    HW1 2137   0.476   3.130   2.990
  711SOL    HW2 2138   0.580   3.226   3.071
  712SOL     OW 2139   1.555   3.373   2.565
  712SOL    HW1 2140   1.498   3.357   2.646
  712SOL    HW2 2141   1.496   3.383   2.485
  713SOL     OW 2142   1.135   2.565   2.579
  713SOL    HW1 2143   1.192   2.643   2.554
  713SOL    HW2 2144   1.075   2.591   2.655
  714SOL     OW 2145   1.755   2.469   2.093
  714SOL    HW1 2146   1.743   2.456   1.994
  714SOL    HW2 2147   1.725   2.388   2.142
  715SOL     OW 2148   0.768   3.006   2.885
  715SOL    HW1 2149   0.690   3.023   2.945
  715SOL    HW2 2150   0.802   3.093   2.849
  716SOL     OW 2151   0.850   2.660   3.685
  716SOL    HW1 2152   0.846   2.736   3.750
  716SOL    HW2 2153   0.872   2.696   3.594
  717SOL     OW 2154   0.685   2.874   2.527
  717SOL    HW1 2155   0.754   2.858   2.597
  717SOL    HW2 2156   0.612   2.931   2.565
  718SOL     OW 2157   0.686   3.023   3.665
  718SOL    HW1 2158   0.746   3.102   3.679
  718SOL    HW2 2159   0.600   3.054   3.624
  719SOL     OW 2160   0.335   3.297   2.923
  719SOL    HW1 2161   0.257   3.266   2.870
  719SOL    HW2 2162   0.393   3.355   2.866
  720SOL     OW 2163   1.460   3.367   3.201
  720SOL    HW1 2164   1.484   3.461   3.227
  720SOL    HW2 2165   1.444   3.313   3.283
  721SOL     OW 2166   0.438   2.254   3.361
  721SOL    HW1 2167   0.520   2.198   3.370
  721SOL    HW2 2168   0.357   2.196   3.365
  722SOL     OW 2169   1.603   2.309   2.599
  722SOL    HW1 2170   1.529   2.355   2.549
  722SOL    HW2 2171   1.654   2.377   2.652
  723SOL     OW 2172   0.231   3.575   2.345
  723SOL    HW1 2173   0.265   3.652   2.399
  723SOL    HW2 2174   0.275   3.575   2.255
  724SOL     OW 2175   1.127   3.203   3.552
  724SOL    HW1 2176   1.174   3.203   3.640
  724SOL    HW2 2177   1.079   3.116   3.541
  725SOL     OW 2178   0.230   3.296   2.400
  725SOL    HW1 2179   0.204   3.392   2.400
  725SOL    HW2 2180   0.159   3.242   2.445
  726SOL     OW 2181   0.240   2.953   2.748
  726SOL    HW1 2182   0.254   2.869   2.800
  726SOL    HW2 2183   0.185   3.017   2.803
  727SOL     OW 2184   0.620   3.648   3.301
  727SOL    HW1 2185   0.528   3.631   3.336
  727SOL    HW2 2186   0.648   3.740   3.327
  728SOL     OW 2187   0.606   2.826   1.985
  728SOL    HW1 2188   0.613   2.910   1.931
  728SOL    HW2 2189   0.652   2.839   2.073
  729SOL     OW 2190   1.594   1.976   3.342
  729SOL    HW1 2191   1.576   2.043   3.270
  729SOL    HW2 2192   1.591   2.022   3.431
  730SOL     OW 2193   0.122   2.505   2.425
  730SOL    HW1 2194   0.077   2.417   2.442
  730SOL    HW2 2195   0.121   2.559   2.509
  731SOL     OW 2196   1.842   3.629   2.221
  731SOL    HW1 2197   1.896   3.600   2.301
  731SOL    HW2 2198   1.872   3.719   2.192
  732SOL     OW 2199   0.027   3.458   1.979
  732SOL    HW1 2200   0.008   3.362   2.000
  732SOL    HW2 2201  -0.006   3.516   2.054
  733SOL     OW 2202   1.689   2.784   2.474
  733SOL    HW1 2203   1.784   2.755   2.482
  733SOL    HW2 2204   1.681   2.849   2.399
  734SOL     OW 2205   1.641   2.970   2.294
  734SOL    HW1 2206   1.727   2.972   2.242
  734SOL    HW2 2207   1.655   3.017   2.382
  735SOL     OW 2208   0.113   2.599   3.459
  735SOL    HW1 2209   0.201   2.586   3.504
  735SOL    HW2 2210   0.100   2.696   3.437
  736SOL     OW 2211   0.613   3.227   2.588
  736SOL    HW1 2212   0.564   3.140   2.597
  736SOL    HW2 2213   0.590   3.270   2.501
  737SOL     OW 2214   1.293   3.090   3.285
  737SOL    HW1 2215   1.330   3.017   3.227
  737SOL    HW2 2216   1.345   3.095   3.370
  738SOL     OW 2217   0.809   1.866   2.364
  738SOL    HW1 2218   0.849   1.957   2.355
  738SOL    HW2 2219   0.709   1.874   2.370
  739SOL     OW 2220   0.197   2.838   3.126
  739SOL    HW1 2221   0.286   2.793   3.112
  739SOL    HW2 2222   0.124   2.773   3.107
  740SOL     OW 2223   1.525   2.861   2.052
  740SOL    HW1 2224   1.462   2.785   2.065
  740SOL    HW2 2225   1.573   2.879   2.138
  741SOL     OW 2226   1.187   3.654   3.478
  741SOL    HW1 2227   1.211   3.714   3.402
  741SOL    HW2 2228   1.194   3.559   3.448
  742SOL     OW 2229   0.317   2.113   3.663
  742SOL    HW1 2230   0.388   2.184   3.669
  742SOL    HW2 2231   0.229   2.152   3.691
  743SOL     OW 2232   1.466   3.279   2.815
  743SOL    HW1 2233   1.407   3.285   2.895
  743SOL    HW2 2234   1.451   3.191   2.769
  744SOL     OW 2235   1.667   3.576   2.434
  744SOL    HW1 2236   1.626   3.553   2.346
  744SOL    HW2 2237   1.649   3.502   2.499
  745SOL     OW 2238   0.598   2.591   2.132
  745SOL    HW1 2239   0.622   2.660   2.064
  745SOL    HW2 2240   0.520   2.624   2.186
  746SOL     OW 2241   1.281   2.207   2.806
  746SOL    HW1 2242   1.195   2.157   2.793
  746SOL    HW2 2243   1.343   2.153   2.862
  747SOL     OW 2244   1.576   3.524   2.169
  747SOL    HW1 2245   1.665   3.570   2.172
  747SOL    HW2 2246   1.555   3.500   2.074
  748SOL     OW 2247   0.807   2.467   3.327
  748SOL    HW1 2248   0.760   2.464   3.416
  748SOL    HW2 2249   0.756   2.412   3.261
  749SOL     OW 2250   1.394   2.331   3.536
  749SOL    HW1 2251   1.374   2.374   3.624
  749SOL    HW2 2252   1.472   2.269   3.545
  750SOL     OW 2253   0.973   2.752   3.434
  750SOL    HW1 2254   1.019   2.668   3.405
  750SOL    HW2 2255   0.917   2.786   3.359
  751SOL     OW 2256   0.991   2.272   3.104
  751SOL    HW1 2257   0.914   2.306   3.158
  751SOL    HW2 2258   0.957   2.221   3.025
  752SOL     OW 2259   1.041   2.563   2.291
  752SOL    HW1 2260   1.067   2.559   2.387
  752SOL    HW2 2261   0.956   2.512   2.277
  753SOL     OW 2262   0.076   2.673   2.651
  753SOL    HW1 2263   0.175   2.661   2.660
  753SOL    HW2 2264   0.052   2.768   2.672
  754SOL     OW 2265   0.130   3.683   3.433
  754SOL    HW1 2266   0.120   3.668   3.532
  754SOL    HW2 2267   0.044   3.719   3.397
  755SOL     OW 2268   0.865   2.210   2.057
  755SOL    HW1 2269   0.924   2.273   2.008
  755SOL    HW2 2270   0.884   2.116   2.028
  756SOL     OW 2271   1.719   2.447   3.693
  756SOL    HW1 2272   1.693   2.536   3.657
  756SOL    HW2 2273   1.717   2.379   3.620
  757SOL     OW 2274   1.362   3.006   2.407
  757SOL    HW1 2275   1.445   2.977   2.359
  757SOL    HW2 2276   1.313   3.073   2.351
  758SOL     OW 2277   0.550   2.058   2.747
  758SOL    HW1 2278   0.545   2.053   2.847
  758SOL    HW2 2279   0.552   2.154   2.718
  759SOL     OW 2280   1.008   3.318   2.339
  759SOL    HW1 2281   0.962   3.390   2.287
  759SOL    HW2 2282   1.004   3.338   2.437
  760SOL     OW 2283   0.351   3.663   2.715
  760SOL    HW1 2284   0.401   3.577   2.721
  760SOL    HW2 2285   0.416   3.740   2.712
  761SOL     OW 2286   1.795   2.928   2.735
  761SOL    HW1 2287   1.733   2.913   2.659
  761SOL    HW2 2288   1.743   2.939   2.820
  762SOL     OW 2289   1.227   3.412   3.368
  762SOL    HW1 2290   1.233   3.335   3.432
  762SOL    HW2 2291   1.175   3.386   3.288
  763SOL     OW 2292   0.321   2.805   2.104
  763SOL    HW1 2293   0.403   2.844   2.062
  763SOL    HW2 2294   0.294   2.723   2.055
  764SOL     OW 2295   1.458   2.597   2.590
  764SOL    HW1 2296   1.453   2.532   2.665
  764SOL    HW2 2297   1.538   2.656   2.603
  765SOL     OW 2298   0.461   3.128   3.589
  765SOL    HW1 2299   0.411   3.129   3.503
  765SOL    HW2 2300   0.398   3.110   3.665
  766SOL     OW 2301   1.111   3.638   2.099
  766SOL    HW1 2302   1.051   3.576   2.149
  766SOL    HW2 2303   1.142   3.594   2.014
  767SOL     OW 2304   0.202   2.147   3.360
  767SOL    HW1 2305   0.122   2.207   3.347
  767SOL    HW2 2306   0.192   2.098   3.446
  768SOL     OW 2307   1.632   3.239   1.943
  768SOL    HW1 2308   1.600   3.333   1.933
  768SOL    HW2 2309   1.556   3.176   1.931
  769SOL     OW 2310   0.464   3.605   2.185
  769SOL    HW1 2311   0.497   3.644   2.271
  769SOL    HW2 2312   0.540   3.598   2.120
  770SOL     OW 2313   1.400   1.969   2.288
  770SOL    HW1 2314   1.376   1.932   2.198
  770SOL    HW2 2315   1.499   1.985   2.292
  771SOL     OW 2316   0.249   3.647   3.103
  771SOL    HW1 2317   0.306   3.582   3.153
  771SOL    HW2 2318   0.233   3.614   3.010
  772SOL     OW 2319   0.940   3.560   2.766
  772SOL    HW1 2320   1.020   3.503   2.787
  772SOL    HW2 2321   0.891   3.520   2.689
  773SOL     OW 2322   0.382   2.562   2.342
  773SOL    HW1 2323   0.427   2.472   2.339
  773SOL    HW2 2324   0.288   2.551   2.375
  774SOL     OW 2325   1.547   2.084   3.591
  774SOL    HW1 2326   1.542   2.121   3.683
  774SOL    HW2 2327   1.475   2.015   3.579
  775SOL     OW 2328   0.614   1.984   1.979
  775SOL    HW1 2329   0.712   1.962   1.986
  775SOL    HW2 2330   0.583   1.967   1.886
  776SOL     OW 2331   0.781   2.126   3.611
  776SOL    HW1 2332   0.848   2.065   3.654
  776SOL    HW2 2333   0.708   2.145   3.676
  777SOL     OW 2334   0.888   3.376   3.057
  777SOL    HW1 2335   0.865   3.351   2.963
  777SOL    HW2 2336   0.949   3.307   3.096
  778SOL     OW 2337   1.351   2.452   3.295
  778SOL    HW1 2338   1.379   2.409   3.380
  778SOL    HW2 2339   1.376   2.548   3.296
  779SOL     OW 2340   0.803   3.264   2.786
  779SOL    HW1 2341   0.893   3.278   2.744
  779SOL    HW2 2342   0.732   3.266   2.715
  780SOL     OW 2343   0.922   2.365   2.761
  780SOL    HW1 2344   0.897   2.356   2.665
  780SOL    HW2 2345   0.970   2.283   2.792
  781SOL     OW 2346   0.539   1.926   2.374
  781SOL    HW1 2347   0.458   1.927   2.432
  781SOL    HW2 2348   0.542   2.009   2.319
  782SOL     OW 2349   1.434   3.050   1.903
  782SOL    HW1 2350   1.466   2.974   1.960
  782SOL    HW2 2351   1.342   3.077   1.933
  783SOL     OW 2352   0.297   1.897   2.033
  783SOL    HW1 2353   0.346   1.981   2.012
  783SOL    HW2 2354   0.359   1.832   2.078
  784SOL     OW 2355   0.935   2.098   2.342
  784SOL    HW1 2356   0.887   2.139   2.264
  784SOL    HW2 2357   1.034   2.096   2.323
  785SOL     OW 2358   1.076   2.545   3.326
  785SOL    HW1 2359   0.996   2.484   3.329
  785SOL    HW2 2360   1.157   2.492   3.302
  786SOL     OW 2361   1.227   3.432   2.655
  786SOL    HW1 2362   1.248   3.506   2.590
  786SOL    HW2 2363   1.295   3.432   2.728
  787SOL     OW 2364   0.459   3.014   2.603
  787SOL    HW1 2365   0.388   2.987   2.668
  787SOL    HW2 2366   0.433   2.986   2.510
  788SOL     OW 2367   1.271   3.659   2.453
  788SOL    HW1 2368   1.315   3.723   2.389
  788SOL    HW2 2369   1.221   3.711   2.523
  789SOL     OW 2370   1.032   2.411   1.878
  789SOL    HW1 2371   0.991   2.493   1.839
  789SOL    HW2 2372   1.096   2.437   1.951
  790SOL     OW 2373   0.078   2.418   3.248
  790SOL    HW1 2374   0.170   2.417   3.207
  790SOL    HW2 2375   0.072   2.492   3.315
  791SOL     OW 2376   0.561   2.084   3.009
  791SOL    HW1 2377   0.599   2.000   3.046
  791SOL    HW2 2378   0.473   2.103   3.053
  792SOL     OW 2379   0.866   2.316   2.504
  792SOL    HW1 2380   0.834   2.388   2.442
  792SOL    HW2 2381   0.890   2.235   2.451
  793SOL     OW 2382   1.017   1.901   2.615
  793SOL    HW1 2383   0.945   1.906   2.546
  793SOL    HW2 2384   0.993   1.832   2.684
  794SOL     OW 2385   1.429   3.035   2.729
  794SOL    HW1 2386   1.374   2.951   2.722
  794SOL    HW2 2387   1.455   3.064   2.637
  795SOL     OW 2388   1.466   2.452   2.854
  795SOL    HW1 2389   1.436   2.357   2.861
  795SOL    HW2 2390   1.539   2.468   2.920
  796SOL     OW 2391   1.857   2.695   2.239
  796SOL    HW1 2392   1.899   2.631   2.303
  796SOL    HW2 2393   1.819   2.644   2.161
  797SOL     OW 2394   0.488   3.247   2.036
  797SOL    HW1 2395   0.401   3.232   2.083
  797SOL    HW2 2396   0.471   3.273   1.941
  798SOL     OW 2397   1.664   3.142   2.519
  798SOL    HW1 2398   1.763   3.150   2.533
  798SOL    HW2 2399   1.619   3.226   2.550
  799SOL     OW 2400   1.390   2.437   1.940
  799SOL    HW1 2401   1.336   2.416   2.021
  799SOL    HW2 2402   1.481   2.396   1.949
  800SOL     OW 2403   0.527   2.118   2.190
  800SOL    HW1 2404   0.554   2.059   2.115
  800SOL    HW2 2405   0.527   2.213   2.159
  801SOL     OW 2406   1.754   3.085   3.450
  801SOL    HW1 2407   1.845   3.046   3.437
  801SOL    HW2 2408   1.762   3.181   3.474
  802SOL     OW 2409   1.064   3.209   3.202
  802SOL    HW1 2410   0.984   3.186   3.257
  802SOL    HW2 2411   1.147   3.183   3.251
  803SOL     OW 2412   1.592   3.491   3.487
  803SOL    HW1 2413   1.619   3.525   3.397
  803SOL    HW2 2414   1.671   3.453   3.533
  804SOL     OW 2415   1.111   3.057   2.962
  804SOL    HW1 2416   1.071   3.101   3.043
  804SOL    HW2 2417   1.070   3.094   2.879
  805SOL     OW 2418   1.638   2.961   2.941
  805SOL    HW1 2419   1.643   3.042   3.000
  805SOL    HW2 2420   1.552   2.963   2.890
  806SOL     OW 2421   0.915   1.951   3.264
  806SOL    HW1 2422   0.940   1.931   3.169
  806SOL    HW2 2423   0.987   2.007   3.306
  807SOL     OW 2424   0.980   2.978   3.581
  807SOL    HW1 2425   0.881   2.984   3.591
  807SOL    HW2 2426   1.003   2.898   3.525
  808SOL     OW 2427   0.705   2.912   2.230
  808SOL    HW1 2428   0.691   2.919   2.329
  808SOL    HW2 2429   0.789   2.861   2.212
  809SOL     OW 2430   0.410   2.675   3.113
  809SOL    HW1 2431   0.496   2.687   3.163
  809SOL    HW2 2432   0.368   2.588   3.140
  810SOL     OW 2433   1.274   2.248   3.124
  810SOL    HW1 2434   1.295   2.322   3.188
  810SOL    HW2 2435   1.185   2.265   3.081
  811SOL     OW 2436   0.064   3.426   3.193
  811SOL    HW1 2437   0.018   3.508   3.159
  811SOL    HW2 2438   0.162   3.445   3.202
  812SOL     OW 2439   0.367   2.962   2.363
  812SOL    HW1 2440   0.360   3.045   2.307
  812SOL    HW2 2441   0.371   2.882   2.303
  813SOL     OW 2442   0.566   2.399   2.727
  813SOL    HW1 2443   0.578   2.465   2.653
  813SOL    HW2 2444   0.612   2.433   2.810
  814SOL     OW 2445   1.252   3.210   2.250
  814SOL    HW1 2446   1.302   3.287   2.290
  814SOL    HW2 2447   1.157   3.212   2.282
  815SOL     OW 2448   1.272   3.307   3.004
  815SOL    HW1 2449   1.319   3.320   3.091
  815SOL    HW2 2450   1.206   3.233   3.013
  816SOL     OW 2451   1.582   2.501   2.334
  816SOL    HW1 2452   1.551   2.562   2.407
  816SOL    HW2 2453   1.632   2.553   2.265
  817SOL     OW 2454   0.354   3.372   3.191
  817SOL    HW1 2455   0.333   3.328   3.104
  817SOL    HW2 2456   0.451   3.398   3.194
  818SOL     OW 2457   0.402   2.613   3.460
  818SOL    HW1 2458   0.470   2.668   3.413
  818SOL    HW2 2459   0.442   2.525   3.487
  819SOL     OW 2460   1.587   2.641   3.532
  819SOL    HW1 2461   1.495   2.679   3.527
  819SOL    HW2 2462   1.647   2.688   3.467
  820SOL     OW 2463   1.013   1.967   3.632
  820SOL    HW1 2464   1.019   2.052   3.580
  820SOL    HW2 2465   1.045   1.891   3.575
  821SOL     OW 2466   0.504   1.912   3.602
  821SOL    HW1 2467   0.462   1.855   3.532
  821SOL    HW2 2468   0.438   1.981   3.634
  822SOL     OW 2469   0.573   2.732   2.891
  822SOL    HW1 2470   0.617   2.821   2.882
  822SOL    HW2 2471   0.510   2.732   2.968
  823SOL     OW 2472   1.360   2.724   2.907
  823SOL    HW1 2473   1.285   2.724   2.841
  823SOL    HW2 2474   1.397   2.632   2.916
  824SOL     OW 2475   1.209   2.387   2.137
  824SOL    HW1 2476   1.222   2.303   2.191
  824SOL    HW2 2477   1.180   2.461   2.197
  825SOL     OW 2478   0.307   2.075   3.093
  825SOL    HW1 2479   0.284   2.112   3.183
  825SOL    HW2 2480   0.277   1.980   3.087
  826SOL     OW 2481   0.037   3.172   3.144
  826SOL    HW1 2482   0.090   3.123   3.212
  826SOL    HW2 2483   0.059   3.270   3.149
  827SOL     OW 2484   0.732   2.496   2.926
  827SOL    HW1 2485   0.791   2.470   2.850
  827SOL    HW2 2486   0.704   2.592   2.915
  828SOL     OW 2487   1.728   2.797   3.716
  828SOL    HW1 2488   1.682   2.790   3.627
  828SOL    HW2 2489   1.666   2.841   3.782
  829SOL     OW 2490   0.307   1.925   2.480
  829SOL    HW1 2491   0.296   2.019   2.513
  829SOL    HW2 2492   0.302   1.862   2.557
  830SOL     OW 2493   1.622   2.229   2.236
  830SOL    HW1 2494   1.624   2.153   2.300
  830SOL    HW2 2495   1.574   2.306   2.276
  831SOL     OW 2496   1.023   2.628   2.828
  831SOL    HW1 2497   1.038   2.649   2.924
  831SOL    HW2 2498   0.993   2.533   2.819
  832SOL     OW 2499   0.980   3.435   3.562
  832SOL    HW1 2500   0.960   3.479   3.474
  832SOL    HW2 2501   1.019   3.344   3.546
  833SOL     OW 2502   1.859   3.380   3.467
  833SOL    HW1 2503   1.873   3.407   3.372
  833SOL    HW2 2504   1.942   3.402   3.520
  834SOL     OW 2505   0.350   2.760   3.666
  834SOL    HW1 2506   0.426   2.804   3.714
  834SOL    HW2 2507   0.385   2.713   3.584
  835SOL     OW 2508   1.540   2.136   1.987
  835SOL    HW1 2509   1.479   2.061   2.010
  835SOL    HW2 2510   1.562   2.188   2.070
  836SOL     OW 2511   1.303   2.700   1.904
  836SOL    HW1 2512   1.337   2.607   1.919
  836SOL    HW2 2513   1.321   2.727   1.809
  837SOL     OW 2514   1.068   3.195   2.711
  837SOL    HW1 2515   1.075   3.111   2.656
  837SOL    HW2 2516   1.130   3.264   2.675
  838SOL     OW 2517   0.319   2.672   2.811
  838SOL    HW1 2518   0.412   2.708   2.816
  838SOL    HW2 2519   0.313   2.587   2.863
  839SOL     OW 2520   0.339   2.371   2.868
  839SOL    HW1 2521   0.287   2.288   2.851
  839SOL    HW2 2522   0.416   2.376   2.804
  840SOL     OW 2523   1.138   2.242   3.540
  840SOL    HW1 2524   1.093   2.305   3.604
  840SOL    HW2 2525   1.231   2.273   3.523
  841SOL     OW 2526   1.160   2.069   3.339
  841SOL    HW1 2527   1.160   2.133   3.416
  841SOL    HW2 2528   1.188   2.117   3.256
  842SOL     OW 2529   0.008   3.188   2.062
  842SOL    HW1 2530  -0.085   3.209   2.031
  842SOL    HW2 2531   0.018   3.089   2.075
  843SOL     OW 2532   0.088   3.663   2.789
  843SOL    HW1 2533   0.046   3.577   2.762
  843SOL    HW2 2534   0.182   3.666   2.755
  844SOL     OW 2535   0.504   3.430   2.772
  844SOL    HW1 2536   0.570   3.504   2.781
  844SOL    HW2 2537   0.548   3.351   2.730
  845SOL     OW 2538   1.002   2.658   3.100
  845SOL    HW1 2539   1.043   2.626   3.186
  845SOL    HW2 2540   0.906   2.631   3.097
  846SOL     OW 2541   0.040   2.406   2.976
  846SOL    HW1 2542   0.125   2.373   2.935
  846SOL    HW2 2543   0.053   2.421   3.074
  847SOL     OW 2544   0.189   2.382   3.584
  847SOL    HW1 2545   0.248   2.342   3.514
  847SOL    HW2 2546   0.131   2.453   3.543
  848SOL     OW 2547   1.369   2.812   3.522
  848SOL    HW1 2548   1.408   2.901   3.542
  848SOL    HW2 2549   1.379   2.792   3.425
  849SOL     OW 2550   0.815   2.434   2.187
  849SOL    HW1 2551   0.822   2.345   2.141
  849SOL    HW2 2552   0.721   2.468   2.179
  850SOL     OW 2553   1.657   2.466   3.068
  850SOL    HW1 2554   1.619   2.397   3.130
  850SOL    HW2 2555   1.739   2.430   3.024
  851SOL     OW 2556   0.252   3.426   3.606
  851SOL    HW1 2557   0.222   3.483   3.682
  851SOL    HW2 2558   0.245   3.329   3.632
  852SOL     OW 2559   0.671   2.326   3.131
  852SOL    HW1 2560   0.637   2.237   3.101
  852SOL    HW2 2561   0.697   2.380   3.051
  853SOL     OW 2562   0.930   3.540   3.327
  853SOL    HW1 2563   0.906   3.522   3.232
  853SOL    HW2 2564   0.960   3.634   3.337
  854SOL     OW 2565   0.473   2.362   2.053
  854SOL    HW1 2566   0.534   2.442   2.057
  854SOL    HW2 2567   0.378   2.393   2.060
  855SOL     OW 2568   0.159   2.999   3.328
  855SOL    HW1 2569   0.181   2.938   3.404
  855SOL    HW2 2570   0.169   2.950   3.242
  856SOL     OW 2571   1.347   2.921   3.096
  856SOL    HW1 2572   1.371   2.858   3.022
  856SOL    HW2 2573   1.257   2.961   3.078
  857SOL     OW 2574   1.302   2.717   2.171
  857SOL    HW1 2575   1.216   2.686   2.213
  857SOL    HW2 2576   1.298   2.703   2.072
  858SOL     OW 2577   1.759   3.609   3.016
  858SOL    HW1 2578   1.820   3.639   2.943
  858SOL    HW2 2579   1.721   3.520   2.994
  859SOL     OW 2580   1.252   3.593   2.990
  859SOL    HW1 2581   1.336   3.598   2.936
  859SOL    HW2 2582   1.229   3.497   3.008
  860SOL     OW 2583   0.083   3.120   2.884
  860SOL    HW1 2584   0.078   3.119   2.984
  860SOL    HW2 2585   0.000   3.079   2.846
  861SOL     OW 2586   0.688   3.524   3.578
  861SOL    HW1 2587   0.632   3.605   3.587
  861SOL    HW2 2588   0.740   3.528   3.492
  862SOL     OW 2589   1.726   1.997   2.385
  862SOL    HW1 2590   1.799   1.980   2.318
  862SOL    HW2 2591   1.695   1.910   2.423
  863SOL     OW 2592   1.388   3.435   2.339
  863SOL    HW1 2593   1.455   3.447   2.265
  863SOL    HW2 2594   1.348   3.524   2.362
  864SOL     OW 2595   0.130   3.656   3.713
  864SOL    HW1 2596   0.089   3.582   3.766
  864SOL    HW2 2597   0.194   3.707   3.771
  865SOL     OW 2598   1.280   2.789   2.534
  865SOL    HW1 2599   1.340   2.708   2.536
  865SOL    HW2 2600   1.320   2.858   2.474
  866SOL     OW 2601   0.830   3.135   3.284
  866SOL    HW1 2602   0.825   3.168   3.379
  866SOL    HW2 2603   0.744   3.154   3.238
  867SOL     OW 2604   0.672   3.478   2.016
  867SOL    HW1 2605   0.681   3.488   1.917
  867SOL    HW2 2606   0.632   3.389   2.037
  868SOL     OW 2607   1.650   3.582   3.256
  868SOL    HW1 2608   1.703   3.592   3.172
  868SOL    HW2 2609   1.623   3.672   3.290
  869SOL     OW 2610   1.841   2.037   2.825
  869SOL    HW1 2611   1.880   1.952   2.789
  869SOL    HW2 2612   1.743   2.039   2.806
  870SOL     OW 2613   0.263   2.188   2.582
  870SOL    HW1 2614   0.184   2.239   2.548
  870SOL    HW2 2615   0.254   2.173   2.680
  871SOL     OW 2616   1.194   3.474   1.893
  871SOL    HW1 2617   1.200   3.381   1.930
  871SOL    HW2 2618   1.135   3.474   1.813
  872SOL     OW 2619   0.822   2.864   3.234
  872SOL    HW1 2620   0.862   2.863   3.142
  872SOL    HW2 2621   0.832   2.956   3.274
  873SOL     OW 2622   0.916   2.772   2.153
  873SOL    HW1 2623   0.979   2.810   2.085
  873SOL    HW2 2624   0.956   2.689   2.192
  874SOL     OW 2625   1.504   3.469   1.906
  874SOL    HW1 2626   1.412   3.506   1.913
  874SOL    HW2 2627   1.542   3.489   1.816
  875SOL     OW 2628   0.372   3.150   3.352
  875SOL    HW1 2629   0.359   3.243   3.318
  875SOL    HW2 2630   0.288   3.098   3.339
  876SOL     OW 2631   1.614   3.154   3.151
  876SOL    HW1 2632   1.674   3.157   3.231
  876SOL    HW2 2633   1.539   3.218   3.164
  877SOL     OW 2634   1.039   2.960   2.558
  877SOL    HW1 2635   0.969   2.913   2.612
  877SOL    HW2 2636   1.098   2.892   2.515
  878SOL     OW 2637   1.014   2.098   2.833
  878SOL    HW1 2638   1.006   2.062   2.740
  878SOL    HW2 2639   1.012   2.022   2.898
  879SOL     OW 2640   0.590   3.349   2.353
  879SOL    HW1 2641   0.632   3.291   2.283
  879SOL    HW2 2642   0.546   3.428   2.309
  880SOL     OW 2643   1.709   2.247   3.243
  880SOL    HW1 2644   1.782   2.316   3.247
  880SOL    HW2 2645   1.737   2.172   3.184
  881SOL     OW 2646   0.255   3.210   2.152
  881SOL    HW1 2647   0.159   3.211   2.125
  881SOL    HW2 2648   0.267   3.263   2.236
  882SOL     OW 2649   0.105   2.875   3.588
  882SOL    HW1 2650   0.028   2.842   3.642
  882SOL    HW2 2651   0.190   2.845   3.630
  883SOL     OW 2652   0.672   2.065   3.351
  883SOL    HW1 2653   0.762   2.049   3.311
  883SOL    HW2 2654   0.680   2.070   3.450
  884SOL     OW 2655   0.075   2.207   1.895
  884SOL    HW1 2656  -0.017   2.179   1.866
  884SOL    HW2 2657   0.106   2.284   1.839
  885SOL     OW 2658   1.440   2.718   3.260
  885SOL    HW1 2659   1.383   2.770   3.197
  885SOL    HW2 2660   1.536   2.730   3.236
  886SOL     OW 2661   0.072   2.028   2.180
  886SOL    HW1 2662   0.055   2.111   2.126
  886SOL    HW2 2663   0.162   1.991   2.158
  887SOL     OW 2664   1.183   3.197   1.981
  887SOL    HW1 2665   1.084   3.186   1.983
  887SOL    HW2 2666   1.217   3.212   2.074
  888SOL     OW 2667   0.613   2.704   3.293
  888SOL    HW1 2668   0.669   2.785   3.276
  888SOL    HW2 2669   0.672   2.624   3.296
  889SOL     OW 2670   1.493   3.629   2.821
  889SOL    HW1 2671   1.526   3.693   2.752
  889SOL    HW2 2672   1.559   3.623   2.896
  890SOL     OW 2673   0.716   2.427   3.570
  890SOL    HW1 2674   0.735   2.492   3.644
  890SOL    HW2 2675   0.776   2.347   3.579
  891SOL     OW 2676   1.450   3.082   3.495
  891SOL    HW1 2677   1.441   3.072   3.594
  891SOL    HW2 2678   1.546   3.075   3.469
  892SOL     OW 2679   0.390   3.603   3.422
  892SOL    HW1 2680   0.299   3.644   3.420
  892SOL    HW2 2681   0.383   3.509   3.454
  893SOL     OW 2682   1.674   2.745   3.116
  893SOL    HW1 2683   1.647   2.656   3.079
  893SOL    HW2 2684   1.675   2.813   3.043
  894SOL     OW 2685   1.225   2.187   2.311
  894SOL    HW1 2686   1.290   2.113   2.300
  894SOL    HW2 2687   1.245   2.237   2.395
  895SOL     OW 2688   0.594   2.607   2.514
  895SOL    HW1 2689   0.644   2.692   2.495
  895SOL    HW2 2690   0.506   2.609   2.466
  896SOL     OW 2691   1.777   2.204   3.504
  896SOL    HW1 2692   1.760   2.235   3.410
  896SOL    HW2 2693   1.693   2.167   3.542
  897SOL     OW 2694   1.730   2.796   3.379
  897SOL    HW1 2695   1.768   2.887   3.394
  897SOL    HW2 2696   1.722   2.779   3.280
  898SOL     OW 2697   0.859   3.236   1.878
  898SOL    HW1 2698   0.813   3.251   1.966
  898SOL    HW2 2699   0.903   3.321   1.848
  899SOL     OW 2700   0.661   3.652   2.815
  899SOL    HW1 2701   0.615   3.740   2.802
  899SOL    HW2 2702   0.760   3.664   2.808
  900SOL     OW 2703   0.859   2.818   2.723
  900SOL    HW1 2704   0.913   2.749   2.771
  900SOL    HW2 2705   0.827   2.887   2.789
  901SOL     OW 2706   1.083   2.846   1.949
  901SOL    HW1 2707   1.060   2.899   1.867
  901SOL    HW2 2708   1.164   2.790   1.930
  902SOL     OW 2709   1.861   3.431   2.713
  902SOL    HW1 2710   1.790   3.419   2.643
  902SOL    HW2 2711   1.862   3.352   2.773
  903SOL     OW 2712   0.221   3.176   3.706
  903SOL    HW1 2713   0.156   3.103   3.685
  903SOL    HW2 2714   0.225   3.190   3.804
  904SOL     OW 2715   0.079   3.102   2.515
  904SOL    HW1 2716   0.078   3.055   2.603
  904SOL    HW2 2717   0.161   3.074   2.464
  905SOL     OW 2718   0.672   3.253   3.486
  905SOL    HW1 2719   0.594   3.203   3.524
  905SOL    HW2 2720   0.669   3.348   3.517
  906SOL     OW 2721   1.824   2.054   3.089
  906SOL    HW1 2722   1.820   1.964   3.133
  906SOL    HW2 2723   1.827   2.043   2.990
  907SOL     OW 2724   0.428   2.286   2.382
  907SOL    HW1 2725   0.458   2.214   2.320
  907SOL    HW2 2726   0.389   2.246   2.465
  908SOL     OW 2727   1.705   3.349   2.966
  908SOL    HW1 2728   1.612   3.324   2.939
  908SOL    HW2 2729   1.731   3.299   3.048
  909SOL     OW 2730   0.317   2.409   3.142
  909SOL    HW1 2731   0.355   2.350   3.214
  909SOL    HW2 2732   0.357   2.383   3.054
  910SOL     OW 2733   0.812   3.448   2.549
  910SOL    HW1 2734   0.844   3.458   2.455
  910SOL    HW2 2735   0.733   3.386   2.551
  911SOL     OW 2736   1.424   2.076   2.974
  911SOL    HW1 2737   1.476   2.011   3.029
  911SOL    HW2 2738   1.375   2.139   3.035
  912SOL     OW 2739   1.001   1.896   3.016
  912SOL    HW1 2740   0.938   1.824   2.985
  912SOL    HW2 2741   1.094   1.860   3.016
  913SOL     OW 2742   0.770   3.192   2.163
  913SOL    HW1 2743   0.724   3.105   2.180
  913SOL    HW2 2744   0.861   3.189   2.204
  914SOL     OW 2745   0.618   3.429   3.146
  914SOL    HW1 2746   0.613   3.511   3.203
  914SOL    HW2 2747   0.707   3.426   3.101
  915SOL     OW 2748   1.352   1.914   2.030
  915SOL    HW1 2749   1.387   1.873   1.946
  915SOL    HW2 2750   1.262   1.876   2.050
  916SOL     OW 2751   1.300   2.315   2.553
  916SOL    HW1 2752   1.241   2.395   2.557
  916SOL    HW2 2753   1.315   2.280   2.646
  917SOL     OW 2754   1.593   2.083   2.744
  917SOL    HW1 2755   1.509   2.082   2.798
  917SOL    HW2 2756   1.595   2.166   2.688
  918SOL     OW 2757   0.039   2.939   2.162
  918SOL    HW1 2758   0.138   2.928   2.153
  918SOL    HW2 2759  -0.001   2.853   2.194
  919SOL     OW 2760   0.875   3.508   2.199
  919SOL    HW1 2761   0.798   3.473   2.145
  919SOL    HW2 2762   0.843   3.579   2.261
  920SOL     OW 2763   0.230   2.490   3.837
  920SOL    HW1 2764   0.137   2.488   3.874
  920SOL    HW2 2765   0.231   2.451   3.745
  921SOL     OW 2766   1.755   2.469   3.955
  921SOL    HW1 2767   1.743   2.456   3.856
  921SOL    HW2 2768   1.725   2.388   4.004
  922SOL     OW 2769   0.231   3.575   4.207
  922SOL    HW1 2770   0.265   3.652   4.261
  922SOL    HW2 2771   0.275   3.575   4.117
  923SOL     OW 2772   0.230   3.296   4.262
  923SOL    HW1 2773   0.204   3.392   4.262
  923SOL    HW2 2774   0.159   3.242   4.307
  924SOL     OW 2775   0.606   2.826   3.847
  924SOL    HW1 2776   0.613   2.910   3.793
  924SOL    HW2 2777   0.652   2.839   3.935
  925SOL     OW 2778   0.122   2.505   4.287
  925SOL    HW1 2779   0.077   2.417   4.304
  925SOL    HW2 2780   0.121   2.559   4.371
  926SOL     OW 2781   1.842   3.629   4.083
  926SOL    HW1 2782   1.896   3.600   4.163
  926SOL    HW2 2783   1.872   3.719   4.054
  927SOL     OW 2784   0.027   3.458   3.841
  927SOL    HW1 2785   0.008   3.362   3.862
  927SOL    HW2 2786  -0.006   3.516   3.916
  928SOL     OW 2787   1.689   2.784   4.336
  928SOL    HW1 2788   1.784   2.755   4.344
  928SOL    HW2 2789   1.681   2.849   4.261
  929SOL     OW 2790   1.641   2.970   4.156
  929SOL    HW1 2791   1.727   2.972   4.104
  929SOL    HW2 2792   1.655   3.017   4.244
  930SOL     OW 2793   0.809   1.866   4.226
  930SOL    HW1 2794   0.849   1.957   4.217
  930SOL    HW2 2795   0.709   1.874   4.232
  931SOL     OW 2796   1.525   2.861   3.914
  931SOL    HW1 2797   1.462   2.785   3.927
  931SOL    HW2 2798   1.573   2.879   4.000
  932SOL     OW 2799   0.598   2.591   3.994
  932SOL    HW1 2800   0.622   2.660   3.926
  932SOL    HW2 2801   0.520   2.624   4.048
  933SOL     OW 2802   1.576   3.524   4.031
  933SOL    HW1 2803   1.665   3.570   4.034
  933SOL    HW2 2804   1.555   3.500   3.936
  934SOL     OW 2805   1.041   2.563   4.153
  934SOL    HW1 2806   1.067   2.559   4.249
  934SOL    HW2 2807   0.956   2.512   4.139
  935SOL     OW 2808   0.076   2.673   4.513
  935SOL    HW1 2809   0.175   2.661   4.522
  935SOL    HW2 2810   0.052   2.768   4.534
  936SOL     OW 2811   0.865   2.210   3.919
  936SOL    HW1 2812   0.924   2.273   3.870
  936SOL    HW2 2813   0.884   2.116   3.890
  937SOL     OW 2814   0.321   2.805   3.966
  937SOL    HW1 2815   0.403   2.844   3.924
  937SOL    HW2 2816   0.294   2.723   3.917
  938SOL     OW 2817   1.111   3.638   3.961
  938SOL    HW1 2818   1.051   3.576   4.011
  938SOL    HW2 2819   1.142   3.594   3.876
  939SOL     OW 2820   1.632   3.239   3.805
  939SOL    HW1 2821   1.600   3.333   3.795
  939SOL    HW2 2822   1.556   3.176   3.793
  940SOL     OW 2823   0.464   3.605   4.047
  940SOL    HW1 2824   0.497   3.644   4.133
  940SOL    HW2 2825   0.540   3.598   3.982
  941SOL     OW 2826   1.400   1.969   4.150
  941SOL    HW1 2827   1.376   1.932   4.060
  941SOL    HW2 2828   1.499   1.985   4.154
  942SOL     OW 2829   0.382   2.562   4.204
  942SOL    HW1 2830   0.427   2.472   4.201
  942SOL    HW2 2831   0.288   2.551   4.237
  943SOL     OW 2832   0.614   1.984   3.841
  943SOL    HW1 2833   0.712   1.962   3.848
  943SOL    HW2 2834   0.583   1.967   3.748
  944SOL     OW 2835   0.539   1.926   4.236
  944SOL    HW1 2836   0.458   1.927   4.294
  944SOL    HW2 2837   0.542   2.009   4.181
  945SOL     OW 2838   1.434   3.050   3.765
  945SOL    HW1 2839   1.466   2.974   3.822
  945SOL    HW2 2840   1.342   3.077   3.795
  946SOL     OW 2841   0.297   1.897   3.895
  946SOL    HW1 2842   0.346   1.981   3.874
  946SOL    HW2 2843   0.359   1.832   3.940
  947SOL     OW 2844   0.935   2.098   4.204
  947SOL    HW1 2845   0.887   2.139   4.126
  947SOL    HW2 2846   1.034   2.096   4.185
  948SOL     OW 2847   0.459   3.014   4.465
  948SOL    HW1 2848   0.388   2.987   4.530
  948SOL    HW2 2849   0.433   2.986   4.372
  949SOL     OW 2850   1.271   3.659   4.315
  949SOL    HW1 2851   1.315   3.723   4.251
  949SOL    HW2 2852   1.221   3.711   4.385
  950SOL     OW 2853   1.032   2.411   3.740
  950SOL    HW1 2854   0.991   2.493   3.701
  950SOL    HW2 2855   1.096   2.437   3.813
  951SOL     OW 2856   0.866   2.316   4.366
  951SOL    HW1 2857   0.834   2.388   4.304
  951SOL    HW2 2858   0.890   2.235   4.313
  952SOL     OW 2859   1.857   2.695   4.101
  952SOL    HW1 2860   1.899   2.631   4.165
  952SOL    HW2 2861   1.819   2.644   4.023
  953SOL     OW 2862   0.488   3.247   3.898
  953SOL    HW1 2863   0.401   3.232   3.945
  953SOL    HW2 2864   0.471   3.273   3.803
  954SOL     OW 2865   1.390   2.437   3.802
  954SOL    HW1 2866   1.336   2.416   3.883
  954SOL    HW2 2867   1.481   2.396   3.811
  955SOL     OW 2868   0.527   2.118   4.052
  955SOL    HW1 2869   0.554   2.059   3.977
  955SOL    HW2 2870   0.527   2.213   4.021
  956SOL     OW 2871   0.705   2.912   4.092
  956SOL    HW1 2872   0.691   2.919   4.191
  956SOL    HW2 2873   0.789   2.861   4.074
  957SOL     OW 2874   0.367   2.962   4.225
  957SOL    HW1 2875   0.360   3.045   4.169
  957SOL    HW2 2876   0.371   2.882   4.165
  958SOL     OW 2877   1.252   3.210   4.112
  958SOL    HW1 2878   1.302   3.287   4.152
  958SOL    HW2 2879   1.157   3.212   4.144
  959SOL     OW 2880   1.582   2.501   4.196
  959SOL    HW1 2881   1.551   2.562   4.269
  959SOL    HW2 2882   1.632   2.553   4.127
  960SOL     OW 2883   1.209   2.387   3.999
  960SOL    HW1 2884   1.222   2.303   4.053
  960SOL    HW2 2885   1.180   2.461   4.059
  961SOL     OW 2886   1.622   2.229   4.098
  961SOL    HW1 2887   1.624   2.153   4.162
  961SOL    HW2 2888   1.574   2.306   4.138
  962SOL     OW 2889   1.540   2.136   3.849
  962SOL    HW1 2890   1.479   2.061   3.872
  962SOL    HW2 2891   1.562   2.188   3.932
  963SOL     OW 2892   1.303   2.700   3.766
  963SOL    HW1 2893   1.337   2.607   3.781
  963SOL    HW2 2894   1.321   2.727   3.671
  964SOL     OW 2895   0.008   3.188   3.924
  964SOL    HW1 2896  -0.085   3.209   3.893
  964SOL    HW2 2897   0.018   3.089   3.937
  965SOL     OW 2898   0.815   2.434   4.049
  965SOL    HW1 2899   0.822   2.345   4.003
  965SOL    HW2 2900   0.721   2.468   4.041
  966SOL     OW 2901   0.473   2.362   3.915
  966SOL    HW1 2902   0.534   2.442   3.919
  966SOL    HW2 2903   0.378   2.393   3.922
  967SOL     OW 2904   1.302   2.717   4.033
  967SOL    HW1 2905   1.216   2.686   4.075
  967SOL    HW2 2906   1.298   2.703   3.934
  968SOL     OW 2907   1.726   1.997   4.247
  968SOL    HW1 2908   1.799   1.980   4.180
  968SOL    HW2 2909   1.695   1.910   4.285
  969SOL     OW 2910   1.388   3.435   4.201
  969SOL    HW1 2911   1.455   3.447   4.127
  969SOL    HW2 2912   1.348   3.524   4.224
  970SOL     OW 2913   0.672   3.478   3.878
  970SOL    HW1 2914   0.681   3.488   3.779
  970SOL    HW2 2915   0.632   3.389   3.899
  971SOL     OW 2916   1.194   3.474   3.755
  971SOL    HW1 2917   1.200   3.381   3.792
  971SOL    HW2 2918   1.135   3.474   3.675
  972SOL     OW 2919   0.916   2.772   4.015
  972SOL    HW1 2920   0.979   2.810   3.947
  972SOL    HW2 2921   0.956   2.689   4.054
  973SOL     OW 2922   1.504   3.469   3.768
  973SOL    HW1 2923   1.412   3.506   3.775
  973SOL    HW2 2924   1.542   3.489   3.678
  974SOL     OW 2925   0.590   3.349   4.215
  974SOL    HW1 2926   0.632   3.291   4.145
  974SOL    HW2 2927   0.546   3.428   4.171
  975SOL     OW 2928   0.255   3.210   4.014
  975SOL    HW1 2929   0.159   3.211   3.987
  975SOL    HW2 2930   0.267   3.263   4.098
  976SOL     OW 2931   0.075   2.207   3.757
  976SOL    HW1 2932  -0.017   2.179   3.728
  976SOL    HW2 2933   0.106   2.284   3.701
  977SOL     OW 2934   0.072   2.028   4.042
  977SOL    HW1 2935   0.055   2.111   3.988
  977SOL    HW2 2936   0.162   1.991   4.020
  978SOL     OW 2937   1.183   3.197   3.843
  978SOL    HW1 2938   1.084   3.186   3.845
  978SOL    HW2 2939   1.217   3.212   3.936
  979SOL     OW 2940   1.225   2.187   4.173
  979SOL    HW1 2941   1.290   2.113   4.162
  979SOL    HW2 2942   1.245   2.237   4.257
  980SOL     OW 2943   0.594   2.607   4.376
  980SOL    HW1 2944   0.644   2.692   4.357
  980SOL    HW2 2945   0.506   2.609   4.328
  981SOL     OW 2946   0.859   3.236   3.740
  981SOL    HW1 2947   0.813   3.251   3.828
  981SOL    HW2 2948   0.903   3.321   3.710
  982SOL     OW 2949   1.083   2.846   3.811
  982SOL    HW1 2950   1.060   2.899   3.729
  982SOL    HW2 2951   1.164   2.790   3.792
  983SOL     OW 2952   0.428   2.286   4.244
  983SOL    HW1 2953   0.458   2.214   4.182
  983SOL    HW2 2954   0.389   2.246   4.327
  984SOL     OW 2955   0.770   3.192   4.025
  984SOL    HW1 2956   0.724   3.105   4.042
  984SOL    HW2 2957   0.861   3.189   4.066
  985SOL     OW 2958   1.352   1.914   3.892
  985SOL    HW1 2959   1.387   1.873   3.808
  985SOL    HW2 2960   1.262   1.876   3.912
  986SOL     OW 2961   0.039   2.939   4.024
  986SOL    HW1 2962   0.138   2.928   4.015
  986SOL    HW2 2963  -0.001   2.853   4.056
  987SOL     OW 2964   0.875   3.508   4.061
  987SOL    HW1 2965   0.798   3.473   4.007
  987SOL    HW2 2966   0.843   3.579   4.123
  988SOL     OW 2967   0.225   3.999   0.996
  988SOL    HW1 2968   0.260   3.982   1.088
  988SOL    HW2 2969   0.137   3.954   0.984
  989SOL     OW 2970   0.019   4.092   0.647
  989SOL    HW1 2971  -0.063   4.135   0.686
  989SOL    HW2 2972  -0.009   4.019   0.584
  990SOL     OW 2973   1.755   4.331   0.231
  990SOL    HW1 2974   1.743   4.318   0.132
  990SOL    HW2 2975   1.725   4.250   0.280
  991SOL     OW 2976   0.438   4.116   1.499
  991SOL    HW1 2977   0.520   4.060   1.508
  991SOL    HW2 2978   0.357   4.058   1.503
  992SOL     OW 2979   1.603   4.171   0.737
  992SOL    HW1 2980   1.529   4.217   0.687
  992SOL    HW2 2981   1.654   4.239   0.790
  993SOL     OW 2982   1.594   3.838   1.480
  993SOL    HW1 2983   1.576   3.905   1.408
  993SOL    HW2 2984   1.591   3.884   1.569
  994SOL     OW 2985   0.122   4.367   0.563
  994SOL    HW1 2986   0.077   4.279   0.580
  994SOL    HW2 2987   0.121   4.421   0.647
  995SOL     OW 2988   0.809   3.728   0.502
  995SOL    HW1 2989   0.849   3.819   0.493
  995SOL    HW2 2990   0.709   3.736   0.508
  996SOL     OW 2991   0.317   3.975   1.801
  996SOL    HW1 2992   0.388   4.046   1.807
  996SOL    HW2 2993   0.229   4.014   1.829
  997SOL     OW 2994   1.281   4.069   0.944
  997SOL    HW1 2995   1.195   4.019   0.931
  997SOL    HW2 2996   1.343   4.015   1.000
  998SOL     OW 2997   0.807   4.329   1.465
  998SOL    HW1 2998   0.760   4.326   1.554
  998SOL    HW2 2999   0.756   4.274   1.399
  999SOL     OW 3000   1.394   4.193   1.674
  999SOL    HW1 3001   1.374   4.236   1.762
  999SOL    HW2 3002   1.472   4.131   1.683
 1000SOL     OW 3003   0.991   4.134   1.242
 1000SOL    HW1 3004   0.914   4.168   1.296
 1000SOL    HW2 3005   0.957   4.083   1.163
 1001SOL     OW 3006   1.041   4.425   0.429
 1001SOL    HW1 3007   1.067   4.421   0.525
 1001SOL    HW2 3008   0.956   4.374   0.415
 1002SOL     OW 3009   0.076   4.535   0.789
 1002SOL    HW1 3010   0.175   4.523   0.798
 1002SOL    HW2 3011   0.052   4.630   0.810
 1003SOL     OW 3012   0.865   4.072   0.195
 1003SOL    HW1 3013   0.924   4.135   0.146
 1003SOL    HW2 3014   0.884   3.978   0.166
 1004SOL     OW 3015   1.719   4.309   1.831
 1004SOL    HW1 3016   1.693   4.398   1.795
 1004SOL    HW2 3017   1.717   4.241   1.758
 1005SOL     OW 3018   0.550   3.920   0.885
 1005SOL    HW1 3019   0.545   3.915   0.985
 1005SOL    HW2 3020   0.552   4.016   0.856
 1006SOL     OW 3021   1.458   4.459   0.728
 1006SOL    HW1 3022   1.453   4.394   0.803
 1006SOL    HW2 3023   1.538   4.518   0.741
 1007SOL     OW 3024   0.202   4.009   1.498
 1007SOL    HW1 3025   0.122   4.069   1.485
 1007SOL    HW2 3026   0.192   3.960   1.584
 1008SOL     OW 3027   1.400   3.831   0.426
 1008SOL    HW1 3028   1.376   3.794   0.336
 1008SOL    HW2 3029   1.499   3.847   0.430
 1009SOL     OW 3030   1.547   3.946   1.729
 1009SOL    HW1 3031   1.542   3.983   1.821
 1009SOL    HW2 3032   1.475   3.877   1.717
 1010SOL     OW 3033   0.614   3.846   0.117
 1010SOL    HW1 3034   0.712   3.824   0.124
 1010SOL    HW2 3035   0.583   3.829   0.024
 1011SOL     OW 3036   0.781   3.988   1.749
 1011SOL    HW1 3037   0.848   3.927   1.792
 1011SOL    HW2 3038   0.708   4.007   1.814
 1012SOL     OW 3039   1.351   4.314   1.433
 1012SOL    HW1 3040   1.379   4.271   1.518
 1012SOL    HW2 3041   1.376   4.410   1.434
 1013SOL     OW 3042   0.539   3.788   0.512
 1013SOL    HW1 3043   0.458   3.789   0.570
 1013SOL    HW2 3044   0.542   3.871   0.457
 1014SOL     OW 3045   0.297   3.759   0.171
 1014SOL    HW1 3046   0.346   3.843   0.150
 1014SOL    HW2 3047   0.359   3.694   0.216
 1015SOL     OW 3048   0.935   3.960   0.480
 1015SOL    HW1 3049   0.887   4.001   0.402
 1015SOL    HW2 3050   1.034   3.958   0.461
 1016SOL     OW 3051   0.078   4.280   1.386
 1016SOL    HW1 3052   0.170   4.279   1.345
 1016SOL    HW2 3053   0.072   4.354   1.453
 1017SOL     OW 3054   0.561   3.946   1.147
 1017SOL    HW1 3055   0.599   3.862   1.184
 1017SOL    HW2 3056   0.473   3.965   1.191
 1018SOL     OW 3057   1.017   3.763   0.753
 1018SOL    HW1 3058   0.945   3.768   0.684
 1018SOL    HW2 3059   0.993   3.694   0.822
 1019SOL     OW 3060   1.466   4.314   0.992
 1019SOL    HW1 3061   1.436   4.219   0.999
 1019SOL    HW2 3062   1.539   4.330   1.058
 1020SOL     OW 3063   0.527   3.980   0.328
 1020SOL    HW1 3064   0.554   3.921   0.253
 1020SOL    HW2 3065   0.527   4.075   0.297
 1021SOL     OW 3066   0.915   3.813   1.402
 1021SOL    HW1 3067   0.940   3.793   1.307
 1021SOL    HW2 3068   0.987   3.869   1.444
 1022SOL     OW 3069   1.274   4.110   1.262
 1022SOL    HW1 3070   1.295   4.184   1.326
 1022SOL    HW2 3071   1.185   4.127   1.219
 1023SOL     OW 3072   0.566   4.261   0.865
 1023SOL    HW1 3073   0.578   4.327   0.791
 1023SOL    HW2 3074   0.612   4.295   0.948
 1024SOL     OW 3075   1.013   3.829   1.770
 1024SOL    HW1 3076   1.019   3.914   1.718
 1024SOL    HW2 3077   1.045   3.753   1.713
 1025SOL     OW 3078   0.504   3.774   1.740
 1025SOL    HW1 3079   0.462   3.717   1.670
 1025SOL    HW2 3080   0.438   3.843   1.772
 1026SOL     OW 3081   1.209   4.249   0.275
 1026SOL    HW1 3082   1.222   4.165   0.329
 1026SOL    HW2 3083   1.180   4.323   0.335
 1027SOL     OW 3084   0.307   3.937   1.231
 1027SOL    HW1 3085   0.284   3.974   1.321
 1027SOL    HW2 3086   0.277   3.842   1.225
 1028SOL     OW 3087   0.732   4.358   1.064
 1028SOL    HW1 3088   0.791   4.332   0.988
 1028SOL    HW2 3089   0.704   4.454   1.053
 1029SOL     OW 3090   0.307   3.787   0.618
 1029SOL    HW1 3091   0.296   3.881   0.651
 1029SOL    HW2 3092   0.302   3.724   0.695
 1030SOL     OW 3093   1.622   4.091   0.374
 1030SOL    HW1 3094   1.624   4.015   0.438
 1030SOL    HW2 3095   1.574   4.168   0.414
 1031SOL     OW 3096   1.540   3.998   0.125
 1031SOL    HW1 3097   1.479   3.923   0.148
 1031SOL    HW2 3098   1.562   4.050   0.208
 1032SOL     OW 3099   0.339   4.233   1.006
 1032SOL    HW1 3100   0.287   4.150   0.989
 1032SOL    HW2 3101   0.416   4.238   0.942
 1033SOL     OW 3102   1.138   4.104   1.678
 1033SOL    HW1 3103   1.093   4.167   1.742
 1033SOL    HW2 3104   1.231   4.135   1.661
 1034SOL     OW 3105   1.160   3.931   1.477
 1034SOL    HW1 3106   1.160   3.995   1.554
 1034SOL    HW2 3107   1.188   3.979   1.394
 1035SOL     OW 3108   0.040   4.268   1.114
 1035SOL    HW1 3109   0.125   4.235   1.073
 1035SOL    HW2 3110   0.053   4.283   1.212
 1036SOL     OW 3111   0.189   4.244   1.722
 1036SOL    HW1 3112   0.248   4.204   1.652
 1036SOL    HW2 3113   0.131   4.315   1.681
 1037SOL     OW 3114   0.815   4.296   0.325
 1037SOL    HW1 3115   0.822   4.207   0.279
 1037SOL    HW2 3116   0.721   4.330   0.317
 1038SOL     OW 3117   1.657   4.328   1.206
 1038SOL    HW1 3118   1.619   4.259   1.268
 1038SOL    HW2 3119   1.739   4.292   1.162
 1039SOL     OW 3120   0.671   4.188   1.269
 1039SOL    HW1 3121   0.637   4.099   1.239
 1039SOL    HW2 3122   0.697   4.242   1.189
 1040SOL     OW 3123   0.903   3.810   0.133
 1040SOL    HW1 3124   0.954   3.811   0.047
 1040SOL    HW2 3125   0.959   3.768   0.204
 1041SOL     OW 3126   1.726   3.859   0.523
 1041SOL    HW1 3127   1.799   3.842   0.456
 1041SOL    HW2 3128   1.695   3.772   0.561
 1042SOL     OW 3129   1.841   3.899   0.963
 1042SOL    HW1 3130   1.880   3.814   0.927
 1042SOL    HW2 3131   1.743   3.901   0.944
 1043SOL     OW 3132   0.263   4.050   0.720
 1043SOL    HW1 3133   0.184   4.101   0.686
 1043SOL    HW2 3134   0.254   4.035   0.818
 1044SOL     OW 3135   1.014   3.960   0.971
 1044SOL    HW1 3136   1.006   3.924   0.878
 1044SOL    HW2 3137   1.012   3.884   1.036
 1045SOL     OW 3138   1.709   4.109   1.381
 1045SOL    HW1 3139   1.782   4.178   1.385
 1045SOL    HW2 3140   1.737   4.034   1.322
 1046SOL     OW 3141   0.672   3.927   1.489
 1046SOL    HW1 3142   0.762   3.911   1.449
 1046SOL    HW2 3143   0.680   3.932   1.588
 1047SOL     OW 3144   0.075   4.069   0.033
 1047SOL    HW1 3145  -0.017   4.041   0.004
 1047SOL    HW2 3146   0.106   4.146  -0.023
 1048SOL     OW 3147   0.072   3.890   0.318
 1048SOL    HW1 3148   0.055   3.973   0.264
 1048SOL    HW2 3149   0.162   3.853   0.296
 1049SOL     OW 3150   0.716   4.289   1.708
 1049SOL    HW1 3151   0.735   4.354   1.782
 1049SOL    HW2 3152   0.776   4.209   1.717
 1050SOL     OW 3153   1.225   4.049   0.449
 1050SOL    HW1 3154   1.290   3.975   0.438
 1050SOL    HW2 3155   1.245   4.099   0.533
 1051SOL     OW 3156   1.777   4.066   1.642
 1051SOL    HW1 3157   1.760   4.097   1.548
 1051SOL    HW2 3158   1.693   4.029   1.680
 1052SOL     OW 3159   1.824   3.916   1.227
 1052SOL    HW1 3160   1.820   3.826   1.271
 1052SOL    HW2 3161   1.827   3.905   1.128
 1053SOL     OW 3162   0.428   4.148   0.520
 1053SOL    HW1 3163   0.458   4.076   0.458
 1053SOL    HW2 3164   0.389   4.108   0.603
 1054SOL     OW 3165   0.317   4.271   1.280
 1054SOL    HW1 3166   0.355   4.212   1.352
 1054SOL    HW2 3167   0.357   4.245   1.192
 1055SOL     OW 3168   1.424   3.938   1.112
 1055SOL    HW1 3169   1.476   3.873   1.167
 1055SOL    HW2 3170   1.375   4.001   1.173
 1056SOL     OW 3171   1.001   3.758   1.154
 1056SOL    HW1 3172   0.938   3.686   1.123
 1056SOL    HW2 3173   1.094   3.722   1.154
 1057SOL     OW 3174   1.352   3.776   0.168
 1057SOL    HW1 3175   1.387   3.735   0.084
 1057SOL    HW2 3176   1.262   3.738   0.188
 1058SOL     OW 3177   1.300   4.177   0.691
 1058SOL    HW1 3178   1.241   4.257   0.695
 1058SOL    HW2 3179   1.315   4.142   0.784
 1059SOL     OW 3180   1.593   3.945   0.882
 1059SOL    HW1 3181   1.509   3.944   0.936
 1059SOL    HW2 3182   1.595   4.028   0.826
 1060SOL     OW 3183   0.225   3.999   2.858
 1060SOL    HW1 3184   0.260   3.982   2.950
 1060SOL    HW2 3185   0.137   3.954   2.846
 1061SOL     OW 3186   0.019   4.092   2.509
 1061SOL    HW1 3187  -0.063   4.135   2.548
 1061SOL    HW2 3188  -0.009   4.019   2.446
 1062SOL     OW 3189   1.755   4.331   2.093
 1062SOL    HW1 3190   1.743   4.318   1.994
 1062SOL    HW2 3191   1.725   4.250   2.142
 1063SOL     OW 3192   0.438   4.116   3.361
 1063SOL    HW1 3193   0.520   4.060   3.370
 1063SOL    HW2 3194   0.357   4.058   3.365
 1064SOL     OW 3195   1.603   4.171   2.599
 1064SOL    HW1 3196   1.529   4.217   2.549
 1064SOL    HW2 3197   1.654   4.239   2.652
 1065SOL     OW 3198   1.594   3.838   3.342
 1065SOL    HW1 3199   1.576   3.905   3.270
 1065SOL    HW2 3200   1.591   3.884   3.431
 1066SOL     OW 3201   0.122   4.367   2.425
 1066SOL    HW1 3202   0.077   4.279   2.442
 1066SOL    HW2 3203   0.121   4.421   2.509
 1067SOL     OW 3204   0.809   3.728   2.364
 1067SOL    HW1 3205   0.849   3.819   2.355
 1067SOL    HW2 3206   0.709   3.736   2.370
 1068SOL     OW 3207   0.317   3.975   3.663
 1068SOL    HW1 3208   0.388   4.046   3.669
 1068SOL    HW2 3209   0.229   4.014   3.691
 1069SOL     OW 3210   1.281   4.069   2.806
 1069SOL    HW1 3211   1.195   4.019   2.793
 1069SOL    HW2 3212   1.343   4.015   2.862
 1070SOL     OW 3213   0.807   4.329   3.327
 1070SOL    HW1 3214   0.760   4.326   3.416
 1070SOL    HW2 3215   0.756   4.274   3.261
 1071SOL     OW 3216   1.394   4.193   3.536
 1071SOL    HW1 3217   1.374   4.236   3.624
 1071SOL    HW2 3218   1.472   4.131   3.545
 1072SOL     OW 3219   0.991   4.134   3.104
 1072SOL    HW1 3220   0.914   4.168   3.158
 1072SOL    HW2 3221   0.957   4.083   3.025
 1073SOL     OW 3222   1.041   4.425   2.291
 1073SOL    HW1 3223   1.067   4.421   2.387
 1073SOL    HW2 3224   0.956   4.374   2.277
 1074SOL     OW 3225   0.076   4.535   2.651
 1074SOL    HW1 3226   0.175   4.523   2.660
 1074SOL    HW2 3227   0.052   4.630   2.672
 1075SOL     OW 3228   0.865   4.072   2.057
 1075SOL    HW1 3229   0.924   4.135   2.008
 1075SOL    HW2 3230   0.884   3.978   2.028
 1076SOL     OW 3231   1.719   4.309   3.693
 1076SOL    HW1 3232   1.693   4.398   3.657
 1076SOL    HW2 3233   1.717   4.241   3.620
 1077SOL     OW 3234   0.550   3.920   2.747
 1077SOL    HW1 3235   0.545   3.915   2.847
 1077SOL    HW2 3236   0.552   4.016   2.718
 1078SOL     OW 3237   1.458   4.459   2.590
 1078SOL    HW1 3238   1.453   4.394   2.665
 1078SOL    HW2 3239   1.538   4.518   2.603
 1079SOL     OW 3240   0.202   4.009   3.360
 1079SOL    HW1 3241   0.122   4.069   3.347
 1079SOL    HW2 3242   0.192   3.960   3.446
 1080SOL     OW 3243   1.400   3.831   2.288
 1080SOL    HW1 3244   1.376   3.794   2.198
 1080SOL    HW2 3245   1.499   3.847   2.292
 1081SOL     OW 3246   1.547   3.946   3.591
 1081SOL    HW1 3247   1.542   3.983   3.683
 1081SOL    HW2 3248   1.475   3.877   3.579
 1082SOL     OW 3249   0.614   3.846   1.979
 1082SOL    HW1 3250   0.712   3.824   1.986
 1082SOL    HW2 3251   0.583   3.829   1.886
 1083SOL     OW 3252   0.781   3.988   3.611
 1083SOL    HW1 3253   0.848   3.927   3.654
 1083SOL    HW2 3254   0.708   4.007   3.676
 1084SOL     OW 3255   1.351   4.314   3.295
 1084SOL    HW1 3256   1.379   4.271   3.380
 1084SOL    HW2 3257   1.376   4.410   3.296
 1085SOL     OW 3258   0.539   3.788   2.374
 1085SOL    HW1 3259   0.458   3.789   2.432
 1085SOL    HW2 3260   0.542   3.871   2.319
 1086SOL     OW 3261   0.297   3.759   2.033
 1086SOL    HW1 3262   0.346   3.843   2.012
 1086SOL    HW2 3263   0.359   3.694   2.078
 1087SOL     OW 3264   0.935   3.960   2.342
 1087SOL    HW1 3265   0.887   4.001   2.264
 1087SOL    HW2 3266   1.034   3.958   2.323
 1088SOL     OW 3267   0.078   4.280   3.248
 1088SOL    HW1 3268   0.170   4.279   3.207
 1088SOL    HW2 3269   0.072   4.354   3.315
 1089SOL     OW 3270   0.561   3.946   3.009
 1089SOL    HW1 3271   0.599   3.862   3.046
 1089SOL    HW2 3272   0.473   3.965   3.053
 1090SOL     OW 3273   1.017   3.763   2.615
 1090SOL    HW1 3274   0.945   3.768   2.546
 1090SOL    HW2 3275   0.993   3.694   2.684
 1091SOL     OW 3276   1.466   4.314   2.854
 1091SOL    HW1 3277   1.436   4.219   2.861
 1091SOL    HW2 3278   1.539   4.330   2.920
 1092SOL     OW 3279   0.527   3.980   2.190
 1092SOL    HW1 3280   0.554   3.921   2.115
 1092SOL    HW2 3281   0.527   4.075   2.159
 1093SOL     OW 3282   0.915   3.813   3.264
 1093SOL    HW1 3283   0.940   3.793   3.169
 1093SOL    HW2 3284   0.987   3.869   3.306
 1094SOL     OW 3285   1.274   4.110   3.124
 1094SOL    HW1 3286   1.295   4.184   3.188
 1094SOL    HW2 3287   1.185   4.127   3.081
 1095SOL     OW 3288   0.566   4.261   2.727
 1095SOL    HW1 3289   0.578   4.327   2.653
 1095SOL    HW2 3290   0.612   4.295   2.810
 1096SOL     OW 3291   1.013   3.829   3.632
 1096SOL    HW1 3292   1.019   3.914   3.580
 1096SOL    HW2 3293   1.045   3.753   3.575
 1097SOL     OW 3294   0.504   3.774   3.602
 1097SOL    HW1 3295   0.462   3.717   3.532
 1097SOL    HW2 3296   0.438   3.843   3.634
 1098SOL     OW 3297   1.209   4.249   2.137
 1098SOL    HW1 3298   1.222   4.165   2.191
 1098SOL    HW2 3299   1.180   4.323   2.197
 1099SOL     OW 3300   0.307   3.937   3.093
 1099SOL    HW1 3301   0.284   3.974   3.183
 1099SOL    HW2 3302   0.277   3.842   3.087
 1100SOL     OW 3303   0.732   4.358   2.926
 1100SOL    HW1 3304   0.791   4.332   2.850
 1100SOL    HW2 3305   0.704   4.454   2.915
 1101SOL     OW 3306   0.307   3.787   2.480
 1101SOL    HW1 3307   0.296   3.881   2.513
 1101SOL    HW2 3308   0.302   3.724   2.557
 1102SOL     OW 3309   1.622   4.091   2.236
 1102SOL    HW1 3310   1.624   4.015   2.300
 1102SOL    HW2 3311   1.574   4.168   2.276
 1103SOL     OW 3312   1.540   3.998   1.987
 1103SOL    HW1 3313   1.479   3.923   2.010
 1103SOL    HW2 3314   1.562   4.050   2.070
 1104SOL     OW 3315   0.339   4.233   2.868
 1104SOL    HW1 3316   0.287   4.150   2.851
 1104SOL    HW2 3317   0.416   4.238   2.804
 1105SOL     OW 3318   1.138   4.104   3.540
 1105SOL    HW1 3319   1.093   4.167   3.604
 1105SOL    HW2 3320   1.231   4.135   3.523
 1106SOL     OW 3321   1.160   3.931   3.339
 1106SOL    HW1 3322   1.160   3.995   3.416
 1106SOL    HW2 3323   1.188   3.979   3.256
 1107SOL     OW 3324   0.040   4.268   2.976
 1107SOL    HW1 3325   0.125   4.235   2.935
 1107SOL    HW2 3326   0.053   4.283   3.074
 1108SOL     OW 3327   0.189   4.244   3.584
 1108SOL    HW1 3328   0.248   4.204   3.514
 1108SOL    HW2 3329   0.131   4.315   3.543
 1109SOL     OW 3330   0.815   4.296   2.187
 1109SOL    HW1 3331   0.822   4.207   2.141
 1109SOL    HW2 3332   0.721   4.330   2.179
 1110SOL     OW 3333   1.657   4.328   3.068
 1110SOL    HW1 3334   1.619   4.259   3.130
 1110SOL    HW2 3335   1.739   4.292   3.024
 1111SOL     OW 3336   0.671   4.188   3.131
 1111SOL    HW1 3337   0.637   4.099   3.101
 1111SOL    HW2 3338   0.697   4.242   3.051
 1112SOL     OW 3339   1.726   3.859   2.385
 1112SOL    HW1 3340   1.799   3.842   2.318
 1112SOL    HW2 3341   1.695   3.772   2.423
 1113SOL     OW 3342   1.841   3.899   2.825
 1113SOL    HW1 3343   1.880   3.814   2.789
 1113SOL    HW2 3344   1.743   3.901   2.806
 1114SOL     OW 3345   0.263   4.050   2.582
 1114SOL    HW1 3346   0.184   4.101   2.548
 1114SOL    HW2 3347   0.254   4.035   2.680
 1115SOL     OW 3348   1.014   3.960   2.833
 1115SOL    HW1 3349   1.006   3.924   2.740
 1115SOL    HW2 3350   1.012   3.884   2.898
 1116SOL     OW 3351   1.709   4.109   3.243
 1116SOL    HW1 3352   1.782   4.178   3.247
 1116SOL    HW2 3353   1.737   4.034   3.184
 1117SOL     OW 3354   0.672   3.927   3.351
 1117SOL    HW1 3355   0.762   3.911   3.311
 1117SOL    HW2 3356   0.680   3.932   3.450
 1118SOL     OW 3357   0.075   4.069   1.895
 1118SOL    HW1 3358  -0.017   4.041   1.866
 1118SOL    HW2 3359   0.106   4.146   1.839
 1119SOL     OW 3360   0.072   3.890   2.180
 1119SOL    HW1 3361   0.055   3.973   2.126
 1119SOL    HW2 3362   0.162   3.853   2.158
 1120SOL     OW 3363   0.716   4.289   3.570
 1120SOL    HW1 3364   0.735   4.354   3.644
 1120SOL    HW2 3365   0.776   4.209   3.579
 1121SOL     OW 3366   1.225   4.049   2.311
 1121SOL    HW1 3367   1.290   3.975   2.300
 1121SOL    HW2 3368   1.245   4.099   2.395
 1122SOL     OW 3369   1.777   4.066   3.504
 1122SOL    HW1 3370   1.760   4.097   3.410
 1122SOL    HW2 3371   1.693   4.029   3.542
 1123SOL     OW 3372   1.824   3.916   3.089
 1123SOL    HW1 3373   1.820   3.826   3.133
 1123SOL    HW2 3374   1.827   3.905   2.990
 1124SOL     OW 3375   0.428   4.148   2.382
 1124SOL    HW1 3376   0.458   4.076   2.320
 1124SOL    HW2 3377   0.389   4.108   2.465
 1125SOL     OW 3378   0.317   4.271   3.142
 1125SOL    HW1 3379   0.355   4.212   3.214
 1125SOL    HW2 3380   0.357   4.245   3.054
 1126SOL     OW 3381   1.424   3.938   2.974
 1126SOL    HW1 3382   1.476   3.873   3.029
 1126SOL    HW2 3383   1.375   4.001   3.035
 1127SOL     OW 3384   1.001   3.758   3.016
 1127SOL    HW1 3385   0.938   3.686   2.985
 1127SOL    HW2 3386   1.094   3.722   3.016
 1128SOL     OW 3387   1.352   3.776   2.030
 1128SOL    HW1 3388   1.387   3.735   1.946
 1128SOL    HW2 3389   1.262   3.738   2.050
 1129SOL     OW 3390   1.300   4.177   2.553
 1129SOL    HW1 3391   1.241   4.257   2.557
 1129SOL    HW2 3392   1.315   4.142   2.646
 1130SOL     OW 3393   1.593   3.945   2.744
 1130SOL    HW1 3394   1.509   3.944   2.798
 1130SOL    HW2 3395   1.595   4.028   2.688
 1131SOL     OW 3396   1.755   4.331   3.955
 1131SOL    HW1 3397   1.743   4.318   3.856
 1131SOL    HW2 3398   1.725   4.250   4.004
 1132SOL     OW 3399   0.122   4.367   4.287
 1132SOL    HW1 3400   0.077   4.279   4.304
 1132SOL    HW2 3401   0.121   4.421   4.371
 1133SOL     OW 3402   0.809   3.728   4.226
 1133SOL    HW1 3403   0.849   3.819   4.217
 1133SOL    HW2 3404   0.709   3.736   4.232
 1134SOL     OW 3405   1.041   4.425   4.153
 1134SOL    HW1 3406   1.067   4.421   4.249
 1134SOL    HW2 3407   0.956   4.374   4.139
 1135SOL     OW 3408   0.865   4.072   3.919
 1135SOL    HW1 3409   0.924   4.135   3.870
 1135SOL    HW2 3410   0.884   3.978   3.890
 1136SOL     OW 3411   1.400   3.831   4.150
 1136SOL    HW1 3412   1.376   3.794   4.060
 1136SOL    HW2 3413   1.499   3.847   4.154
 1137SOL     OW 3414   0.614   3.846   3.841
 1137SOL    HW1 3415   0.712   3.824   3.848
 1137SOL    HW2 3416   0.583   3.829   3.748
 1138SOL     OW 3417   0.539   3.788   4.236
 1138SOL    HW1 3418   0.458   3.789   4.294
 1138SOL    HW2 3419   0.542   3.871   4.181
 1139SOL     OW 3420   0.297   3.759   3.895
 1139SOL    HW1 3421   0.346   3.843   3.874
 1139SOL    HW2 3422   0.359   3.694   3.940
 1140SOL     OW 3423   0.935   3.960   4.204
 1140SOL    HW1 3424   0.887   4.001   4.126
 1140SOL    HW2 3425   1.034   3.958   4.185
 1141SOL     OW 3426   0.527   3.980   4.052
 1141SOL    HW1 3427   0.554   3.921   3.977
 1141SOL    HW2 3428   0.527   4.075   4.021
 1142SOL     OW 3429   1.209   4.249   3.999
 1142SOL    HW1 3430   1.222   4.165   4.053
 1142SOL    HW2 3431   1.180   4.323   4.059
 1143SOL     OW 3432   1.622   4.091   4.098
 1143SOL    HW1 3433   1.624   4.015   4.162
 1143SOL    HW2 3434   1.574   4.168   4.138
 1144SOL     OW 3435   1.540   3.998   3.849
 1144SOL    HW1 3436   1.479   3.923   3.872
 1144SOL    HW2 3437   1.562   4.050   3.932
 1145SOL     OW 3438   0.815   4.296   4.049
 1145SOL    HW1 3439   0.822   4.207   4.003
 1145SOL    HW2 3440   0.721   4.330   4.041
 1146SOL     OW 3441   1.726   3.859   4.247
 1146SOL    HW1 3442   1.799   3.842   4.180
 1146SOL    HW2 3443   1.695   3.772   4.285
 1147SOL     OW 3444   0.075   4.069   3.757
 1147SOL    HW1 3445  -0.017   4.041   3.728
 1147SOL    HW2 3446   0.106   4.146   3.701
 1148SOL     OW 3447   0.072   3.890   4.042
 1148SOL    HW1 3448   0.055   3.973   3.988
 1148SOL    HW2 3449   0.162   3.853   4.020
 1149SOL     OW 3450   1.225   4.049   4.173
 1149SOL    HW1 3451   1.290   3.975   4.162
 1149SOL    HW2 3452   1.245   4.099   4.257
 1150SOL     OW 3453   0.428   4.148   4.244
 1150SOL    HW1 3454   0.458   4.076   4.182
 1150SOL    HW2 3455   0.389   4.108   4.327
 1151SOL     OW 3456   1.352   3.776   3.892
 1151SOL    HW1 3457   1.387   3.735   3.808
 1151SOL    HW2 3458   1.262   3.738   3.912
 1152SOL     OW 3459   1.300   4.177   4.415
 1152SOL    HW1 3460   1.241   4.257   4.419
 1152SOL    HW2 3461   1.315   4.142   4.508
 1153SOL     OW 3462   2.092   0.628   0.113
 1153SOL    HW1 3463   1.999   0.626   0.150
 1153SOL    HW2 3464   2.093   0.589   0.021
 1154SOL     OW 3465   2.087   0.275   0.996
 1154SOL    HW1 3466   2.122   0.258   1.088
 1154SOL    HW2 3467   1.999   0.230   0.984
 1155SOL     OW 3468   1.881   0.368   0.647
 1155SOL    HW1 3469   1.799   0.411   0.686
 1155SOL    HW2 3470   1.853   0.295   0.584
 1156SOL     OW 3471   2.431   1.275   1.165
 1156SOL    HW1 3472   2.338   1.268   1.128
 1156SOL    HW2 3473   2.442   1.364   1.209
 1157SOL     OW 3474   3.417   1.511   0.703
 1157SOL    HW1 3475   3.360   1.495   0.784
 1157SOL    HW2 3476   3.358   1.521   0.623
 1158SOL     OW 3477   2.997   0.703   0.717
 1158SOL    HW1 3478   3.054   0.781   0.692
 1158SOL    HW2 3479   2.937   0.729   0.793
 1159SOL     OW 3480   3.617   0.607   0.231
 1159SOL    HW1 3481   3.605   0.594   0.132
 1159SOL    HW2 3482   3.587   0.526   0.280
 1160SOL     OW 3483   2.630   1.144   1.023
 1160SOL    HW1 3484   2.552   1.161   1.083
 1160SOL    HW2 3485   2.664   1.231   0.987
 1161SOL     OW 3486   2.712   0.798   1.823
 1161SOL    HW1 3487   2.708   0.874   1.888
 1161SOL    HW2 3488   2.734   0.834   1.732
 1162SOL     OW 3489   2.547   1.012   0.665
 1162SOL    HW1 3490   2.616   0.996   0.735
 1162SOL    HW2 3491   2.474   1.069   0.703
 1163SOL     OW 3492   2.548   1.161   1.803
 1163SOL    HW1 3493   2.608   1.240   1.817
 1163SOL    HW2 3494   2.462   1.192   1.762
 1164SOL     OW 3495   2.197   1.435   1.061
 1164SOL    HW1 3496   2.119   1.404   1.008
 1164SOL    HW2 3497   2.255   1.493   1.004
 1165SOL     OW 3498   3.322   1.505   1.339
 1165SOL    HW1 3499   3.346   1.599   1.365
 1165SOL    HW2 3500   3.306   1.451   1.421
 1166SOL     OW 3501   2.300   0.392   1.499
 1166SOL    HW1 3502   2.382   0.336   1.508
 1166SOL    HW2 3503   2.219   0.334   1.503
 1167SOL     OW 3504   3.465   0.447   0.737
 1167SOL    HW1 3505   3.391   0.493   0.687
 1167SOL    HW2 3506   3.516   0.515   0.790
 1168SOL     OW 3507   2.093   1.713   0.483
 1168SOL    HW1 3508   2.127   1.790   0.537
 1168SOL    HW2 3509   2.137   1.713   0.393
 1169SOL     OW 3510   2.989   1.341   1.690
 1169SOL    HW1 3511   3.036   1.341   1.778
 1169SOL    HW2 3512   2.941   1.254   1.679
 1170SOL     OW 3513   2.092   1.434   0.538
 1170SOL    HW1 3514   2.066   1.530   0.538
 1170SOL    HW2 3515   2.021   1.380   0.583
 1171SOL     OW 3516   2.102   1.091   0.886
 1171SOL    HW1 3517   2.116   1.007   0.938
 1171SOL    HW2 3518   2.047   1.155   0.941
 1172SOL     OW 3519   2.482   1.786   1.439
 1172SOL    HW1 3520   2.390   1.769   1.474
 1172SOL    HW2 3521   2.510   1.878   1.465
 1173SOL     OW 3522   2.468   0.964   0.123
 1173SOL    HW1 3523   2.475   1.048   0.069
 1173SOL    HW2 3524   2.514   0.977   0.211
 1174SOL     OW 3525   3.456   0.114   1.480
 1174SOL    HW1 3526   3.438   0.181   1.408
 1174SOL    HW2 3527   3.453   0.160   1.569
 1175SOL     OW 3528   1.984   0.643   0.563
 1175SOL    HW1 3529   1.939   0.555   0.580
 1175SOL    HW2 3530   1.983   0.697   0.647
 1176SOL     OW 3531   3.704   1.767   0.359
 1176SOL    HW1 3532   3.758   1.738   0.439
 1176SOL    HW2 3533   3.734   1.857   0.330
 1177SOL     OW 3534   1.889   1.596   0.117
 1177SOL    HW1 3535   1.870   1.500   0.138
 1177SOL    HW2 3536   1.856   1.654   0.192
 1178SOL     OW 3537   3.551   0.922   0.612
 1178SOL    HW1 3538   3.646   0.893   0.620
 1178SOL    HW2 3539   3.543   0.987   0.537
 1179SOL     OW 3540   3.503   1.108   0.432
 1179SOL    HW1 3541   3.589   1.110   0.380
 1179SOL    HW2 3542   3.517   1.155   0.520
 1180SOL     OW 3543   1.975   0.737   1.597
 1180SOL    HW1 3544   2.063   0.724   1.642
 1180SOL    HW2 3545   1.962   0.834   1.575
 1181SOL     OW 3546   2.475   1.365   0.726
 1181SOL    HW1 3547   2.426   1.278   0.735
 1181SOL    HW2 3548   2.452   1.408   0.639
 1182SOL     OW 3549   3.155   1.228   1.423
 1182SOL    HW1 3550   3.192   1.155   1.365
 1182SOL    HW2 3551   3.207   1.233   1.508
 1183SOL     OW 3552   2.671   0.004   0.502
 1183SOL    HW1 3553   2.711   0.095   0.493
 1183SOL    HW2 3554   2.571   0.012   0.508
 1184SOL     OW 3555   2.059   0.976   1.264
 1184SOL    HW1 3556   2.148   0.931   1.250
 1184SOL    HW2 3557   1.986   0.911   1.245
 1185SOL     OW 3558   3.387   0.999   0.190
 1185SOL    HW1 3559   3.324   0.923   0.203
 1185SOL    HW2 3560   3.435   1.017   0.276
 1186SOL     OW 3561   3.049   1.792   1.616
 1186SOL    HW1 3562   3.073   1.852   1.540
 1186SOL    HW2 3563   3.056   1.697   1.586
 1187SOL     OW 3564   2.179   0.251   1.801
 1187SOL    HW1 3565   2.250   0.322   1.807
 1187SOL    HW2 3566   2.091   0.290   1.829
 1188SOL     OW 3567   3.328   1.417   0.953
 1188SOL    HW1 3568   3.269   1.423   1.033
 1188SOL    HW2 3569   3.313   1.329   0.907
 1189SOL     OW 3570   3.529   1.714   0.572
 1189SOL    HW1 3571   3.488   1.691   0.484
 1189SOL    HW2 3572   3.511   1.640   0.637
 1190SOL     OW 3573   2.460   0.729   0.270
 1190SOL    HW1 3574   2.484   0.798   0.202
 1190SOL    HW2 3575   2.382   0.762   0.324
 1191SOL     OW 3576   3.143   0.345   0.944
 1191SOL    HW1 3577   3.057   0.295   0.931
 1191SOL    HW2 3578   3.205   0.291   1.000
 1192SOL     OW 3579   3.438   1.662   0.307
 1192SOL    HW1 3580   3.527   1.708   0.310
 1192SOL    HW2 3581   3.417   1.638   0.212
 1193SOL     OW 3582   2.669   0.605   1.465
 1193SOL    HW1 3583   2.622   0.602   1.554
 1193SOL    HW2 3584   2.618   0.550   1.399
 1194SOL     OW 3585   3.256   0.469   1.674
 1194SOL    HW1 3586   3.236   0.512   1.762
 1194SOL    HW2 3587   3.334   0.407   1.683
 1195SOL     OW 3588   2.835   0.890   1.572
 1195SOL    HW1 3589   2.881   0.806   1.543
 1195SOL    HW2 3590   2.779   0.924   1.497
 1196SOL     OW 3591   2.853   0.410   1.242
 1196SOL    HW1 3592   2.776   0.444   1.296
 1196SOL    HW2 3593   2.819   0.359   1.163
 1197SOL     OW 3594   2.903   0.701   0.429
 1197SOL    HW1 3595   2.929   0.697   0.525
 1197SOL    HW2 3596   2.818   0.650   0.415
 1198SOL     OW 3597   1.938   0.811   0.789
 1198SOL    HW1 3598   2.037   0.799   0.798
 1198SOL    HW2 3599   1.914   0.906   0.810
 1199SOL     OW 3600   1.992   1.821   1.571
 1199SOL    HW1 3601   1.982   1.806   1.670
 1199SOL    HW2 3602   1.906   1.857   1.535
 1200SOL     OW 3603   2.727   0.348   0.195
 1200SOL    HW1 3604   2.786   0.411   0.146
 1200SOL    HW2 3605   2.746   0.254   0.166
 1201SOL     OW 3606   3.581   0.585   1.831
 1201SOL    HW1 3607   3.555   0.674   1.795
 1201SOL    HW2 3608   3.579   0.517   1.758
 1202SOL     OW 3609   3.224   1.144   0.545
 1202SOL    HW1 3610   3.307   1.115   0.497
 1202SOL    HW2 3611   3.175   1.211   0.489
 1203SOL     OW 3612   2.412   0.196   0.885
 1203SOL    HW1 3613   2.407   0.191   0.985
 1203SOL    HW2 3614   2.414   0.292   0.856
 1204SOL     OW 3615   2.870   1.456   0.477
 1204SOL    HW1 3616   2.824   1.528   0.425
 1204SOL    HW2 3617   2.866   1.476   0.575
 1205SOL     OW 3618   2.213   1.801   0.853
 1205SOL    HW1 3619   2.263   1.715   0.859
 1205SOL    HW2 3620   2.278   1.878   0.850
 1206SOL     OW 3621   3.657   1.066   0.873
 1206SOL    HW1 3622   3.595   1.051   0.797
 1206SOL    HW2 3623   3.605   1.077   0.958
 1207SOL     OW 3624   3.089   1.550   1.506
 1207SOL    HW1 3625   3.095   1.473   1.570
 1207SOL    HW2 3626   3.037   1.524   1.426
 1208SOL     OW 3627   2.183   0.943   0.242
 1208SOL    HW1 3628   2.265   0.982   0.200
 1208SOL    HW2 3629   2.156   0.861   0.193
 1209SOL     OW 3630   3.320   0.735   0.728
 1209SOL    HW1 3631   3.315   0.670   0.803
 1209SOL    HW2 3632   3.400   0.794   0.741
 1210SOL     OW 3633   2.323   1.266   1.727
 1210SOL    HW1 3634   2.273   1.267   1.641
 1210SOL    HW2 3635   2.260   1.248   1.803
 1211SOL     OW 3636   2.973   1.776   0.237
 1211SOL    HW1 3637   2.913   1.714   0.287
 1211SOL    HW2 3638   3.004   1.732   0.152
 1212SOL     OW 3639   2.064   0.285   1.498
 1212SOL    HW1 3640   1.984   0.345   1.485
 1212SOL    HW2 3641   2.054   0.236   1.584
 1213SOL     OW 3642   3.494   1.377   0.081
 1213SOL    HW1 3643   3.462   1.471   0.071
 1213SOL    HW2 3644   3.418   1.314   0.069
 1214SOL     OW 3645   2.326   1.743   0.323
 1214SOL    HW1 3646   2.359   1.782   0.409
 1214SOL    HW2 3647   2.402   1.736   0.258
 1215SOL     OW 3648   3.262   0.107   0.426
 1215SOL    HW1 3649   3.238   0.070   0.336
 1215SOL    HW2 3650   3.361   0.123   0.430
 1216SOL     OW 3651   2.111   1.785   1.241
 1216SOL    HW1 3652   2.168   1.720   1.291
 1216SOL    HW2 3653   2.095   1.752   1.148
 1217SOL     OW 3654   2.802   1.698   0.904
 1217SOL    HW1 3655   2.882   1.641   0.925
 1217SOL    HW2 3656   2.753   1.658   0.827
 1218SOL     OW 3657   2.244   0.700   0.480
 1218SOL    HW1 3658   2.289   0.610   0.477
 1218SOL    HW2 3659   2.150   0.689   0.513
 1219SOL     OW 3660   3.409   0.222   1.729
 1219SOL    HW1 3661   3.404   0.259   1.821
 1219SOL    HW2 3662   3.337   0.153   1.717
 1220SOL     OW 3663   2.476   0.122   0.117
 1220SOL    HW1 3664   2.574   0.100   0.124
 1220SOL    HW2 3665   2.445   0.105   0.024
 1221SOL     OW 3666   2.643   0.264   1.749
 1221SOL    HW1 3667   2.710   0.203   1.792
 1221SOL    HW2 3668   2.570   0.283   1.814
 1222SOL     OW 3669   2.750   1.514   1.195
 1222SOL    HW1 3670   2.727   1.489   1.101
 1222SOL    HW2 3671   2.811   1.445   1.234
 1223SOL     OW 3672   3.213   0.590   1.433
 1223SOL    HW1 3673   3.241   0.547   1.518
 1223SOL    HW2 3674   3.238   0.686   1.434
 1224SOL     OW 3675   2.665   1.402   0.924
 1224SOL    HW1 3676   2.755   1.416   0.882
 1224SOL    HW2 3677   2.594   1.404   0.853
 1225SOL     OW 3678   2.784   0.503   0.899
 1225SOL    HW1 3679   2.759   0.494   0.803
 1225SOL    HW2 3680   2.832   0.421   0.930
 1226SOL     OW 3681   2.401   0.064   0.512
 1226SOL    HW1 3682   2.320   0.065   0.570
 1226SOL    HW2 3683   2.404   0.147   0.457
 1227SOL     OW 3684   3.296   1.188   0.041
 1227SOL    HW1 3685   3.328   1.112   0.098
 1227SOL    HW2 3686   3.204   1.215   0.071
 1228SOL     OW 3687   2.159   0.035   0.171
 1228SOL    HW1 3688   2.208   0.119   0.150
 1228SOL    HW2 3689   2.221  -0.030   0.216
 1229SOL     OW 3690   2.797   0.236   0.480
 1229SOL    HW1 3691   2.749   0.277   0.402
 1229SOL    HW2 3692   2.896   0.234   0.461
 1230SOL     OW 3693   2.938   0.683   1.464
 1230SOL    HW1 3694   2.858   0.622   1.467
 1230SOL    HW2 3695   3.019   0.630   1.440
 1231SOL     OW 3696   3.089   1.570   0.793
 1231SOL    HW1 3697   3.110   1.644   0.728
 1231SOL    HW2 3698   3.157   1.570   0.866
 1232SOL     OW 3699   2.321   1.152   0.741
 1232SOL    HW1 3700   2.250   1.125   0.806
 1232SOL    HW2 3701   2.295   1.124   0.648
 1233SOL     OW 3702   3.133   1.797   0.591
 1233SOL    HW1 3703   3.177   1.861   0.527
 1233SOL    HW2 3704   3.083   1.849   0.661
 1234SOL     OW 3705   2.894   0.549   0.016
 1234SOL    HW1 3706   2.853   0.631  -0.023
 1234SOL    HW2 3707   2.958   0.575   0.089
 1235SOL     OW 3708   1.940   0.556   1.386
 1235SOL    HW1 3709   2.032   0.555   1.345
 1235SOL    HW2 3710   1.934   0.630   1.453
 1236SOL     OW 3711   2.423   0.222   1.147
 1236SOL    HW1 3712   2.461   0.138   1.184
 1236SOL    HW2 3713   2.335   0.241   1.191
 1237SOL     OW 3714   2.728   0.454   0.642
 1237SOL    HW1 3715   2.696   0.526   0.580
 1237SOL    HW2 3716   2.752   0.373   0.589
 1238SOL     OW 3717   2.879   0.039   0.753
 1238SOL    HW1 3718   2.807   0.044   0.684
 1238SOL    HW2 3719   2.855  -0.030   0.822
 1239SOL     OW 3720   3.291   1.173   0.867
 1239SOL    HW1 3721   3.236   1.089   0.860
 1239SOL    HW2 3722   3.317   1.202   0.775
 1240SOL     OW 3723   3.328   0.590   0.992
 1240SOL    HW1 3724   3.298   0.495   0.999
 1240SOL    HW2 3725   3.401   0.606   1.058
 1241SOL     OW 3726   3.719   0.833   0.377
 1241SOL    HW1 3727   3.761   0.769   0.441
 1241SOL    HW2 3728   3.681   0.782   0.299
 1242SOL     OW 3729   2.350   1.385   0.174
 1242SOL    HW1 3730   2.263   1.370   0.221
 1242SOL    HW2 3731   2.333   1.411   0.079
 1243SOL     OW 3732   3.526   1.280   0.657
 1243SOL    HW1 3733   3.625   1.288   0.671
 1243SOL    HW2 3734   3.481   1.364   0.688
 1244SOL     OW 3735   3.252   0.575   0.078
 1244SOL    HW1 3736   3.198   0.554   0.159
 1244SOL    HW2 3737   3.343   0.534   0.087
 1245SOL     OW 3738   2.389   0.256   0.328
 1245SOL    HW1 3739   2.416   0.197   0.253
 1245SOL    HW2 3740   2.389   0.351   0.297
 1246SOL     OW 3741   3.616   1.223   1.588
 1246SOL    HW1 3742   3.707   1.184   1.575
 1246SOL    HW2 3743   3.624   1.319   1.612
 1247SOL     OW 3744   2.926   1.347   1.340
 1247SOL    HW1 3745   2.846   1.324   1.395
 1247SOL    HW2 3746   3.009   1.321   1.389
 1248SOL     OW 3747   3.454   1.629   1.625
 1248SOL    HW1 3748   3.481   1.663   1.535
 1248SOL    HW2 3749   3.533   1.591   1.671
 1249SOL     OW 3750   2.973   1.195   1.100
 1249SOL    HW1 3751   2.933   1.239   1.181
 1249SOL    HW2 3752   2.932   1.232   1.017
 1250SOL     OW 3753   3.500   1.099   1.079
 1250SOL    HW1 3754   3.505   1.180   1.138
 1250SOL    HW2 3755   3.414   1.101   1.028
 1251SOL     OW 3756   2.777   0.089   1.402
 1251SOL    HW1 3757   2.802   0.069   1.307
 1251SOL    HW2 3758   2.849   0.145   1.444
 1252SOL     OW 3759   2.842   1.116   1.719
 1252SOL    HW1 3760   2.743   1.122   1.729
 1252SOL    HW2 3761   2.865   1.036   1.663
 1253SOL     OW 3762   2.567   1.050   0.368
 1253SOL    HW1 3763   2.553   1.057   0.467
 1253SOL    HW2 3764   2.651   0.999   0.350
 1254SOL     OW 3765   2.272   0.813   1.251
 1254SOL    HW1 3766   2.358   0.825   1.301
 1254SOL    HW2 3767   2.230   0.726   1.278
 1255SOL     OW 3768   3.136   0.386   1.262
 1255SOL    HW1 3769   3.157   0.460   1.326
 1255SOL    HW2 3770   3.047   0.403   1.219
 1256SOL     OW 3771   1.926   1.564   1.331
 1256SOL    HW1 3772   1.880   1.646   1.297
 1256SOL    HW2 3773   2.024   1.583   1.340
 1257SOL     OW 3774   2.229   1.100   0.501
 1257SOL    HW1 3775   2.222   1.183   0.445
 1257SOL    HW2 3776   2.233   1.020   0.441
 1258SOL     OW 3777   2.428   0.537   0.865
 1258SOL    HW1 3778   2.440   0.603   0.791
 1258SOL    HW2 3779   2.474   0.571   0.948
 1259SOL     OW 3780   3.114   1.348   0.388
 1259SOL    HW1 3781   3.164   1.425   0.428
 1259SOL    HW2 3782   3.019   1.350   0.420
 1260SOL     OW 3783   3.134   1.445   1.142
 1260SOL    HW1 3784   3.181   1.458   1.229
 1260SOL    HW2 3785   3.068   1.371   1.151
 1261SOL     OW 3786   3.444   0.639   0.472
 1261SOL    HW1 3787   3.413   0.700   0.545
 1261SOL    HW2 3788   3.494   0.691   0.403
 1262SOL     OW 3789   2.216   1.510   1.329
 1262SOL    HW1 3790   2.195   1.466   1.242
 1262SOL    HW2 3791   2.313   1.536   1.332
 1263SOL     OW 3792   2.264   0.751   1.598
 1263SOL    HW1 3793   2.332   0.806   1.551
 1263SOL    HW2 3794   2.304   0.663   1.625
 1264SOL     OW 3795   3.449   0.779   1.670
 1264SOL    HW1 3796   3.357   0.817   1.665
 1264SOL    HW2 3797   3.509   0.826   1.605
 1265SOL     OW 3798   2.875   0.105   1.770
 1265SOL    HW1 3799   2.881   0.190   1.718
 1265SOL    HW2 3800   2.907   0.029   1.713
 1266SOL     OW 3801   2.366   0.050   1.740
 1266SOL    HW1 3802   2.324  -0.007   1.670
 1266SOL    HW2 3803   2.300   0.119   1.772
 1267SOL     OW 3804   2.435   0.870   1.029
 1267SOL    HW1 3805   2.479   0.959   1.020
 1267SOL    HW2 3806   2.372   0.870   1.106
 1268SOL     OW 3807   3.222   0.862   1.045
 1268SOL    HW1 3808   3.147   0.862   0.979
 1268SOL    HW2 3809   3.259   0.770   1.054
 1269SOL     OW 3810   3.071   0.525   0.275
 1269SOL    HW1 3811   3.084   0.441   0.329
 1269SOL    HW2 3812   3.042   0.599   0.335
 1270SOL     OW 3813   2.169   0.213   1.231
 1270SOL    HW1 3814   2.146   0.250   1.321
 1270SOL    HW2 3815   2.139   0.118   1.225
 1271SOL     OW 3816   1.899   1.310   1.282
 1271SOL    HW1 3817   1.952   1.261   1.350
 1271SOL    HW2 3818   1.921   1.408   1.287
 1272SOL     OW 3819   2.594   0.634   1.064
 1272SOL    HW1 3820   2.653   0.608   0.988
 1272SOL    HW2 3821   2.566   0.730   1.053
 1273SOL     OW 3822   3.590   0.935   1.854
 1273SOL    HW1 3823   3.544   0.928   1.765
 1273SOL    HW2 3824   3.528   0.979   1.920
 1274SOL     OW 3825   2.169   0.063   0.618
 1274SOL    HW1 3826   2.158   0.157   0.651
 1274SOL    HW2 3827   2.164   0.000   0.695
 1275SOL     OW 3828   3.484   0.367   0.374
 1275SOL    HW1 3829   3.486   0.291   0.438
 1275SOL    HW2 3830   3.436   0.444   0.414
 1276SOL     OW 3831   2.885   0.766   0.966
 1276SOL    HW1 3832   2.900   0.787   1.062
 1276SOL    HW2 3833   2.855   0.671   0.957
 1277SOL     OW 3834   2.842   1.573   1.700
 1277SOL    HW1 3835   2.822   1.617   1.612
 1277SOL    HW2 3836   2.881   1.482   1.684
 1278SOL     OW 3837   3.721   1.518   1.605
 1278SOL    HW1 3838   3.735   1.545   1.510
 1278SOL    HW2 3839   3.804   1.540   1.658
 1279SOL     OW 3840   2.212   0.898   1.804
 1279SOL    HW1 3841   2.288   0.942   1.852
 1279SOL    HW2 3842   2.247   0.851   1.722
 1280SOL     OW 3843   3.402   0.274   0.125
 1280SOL    HW1 3844   3.341   0.199   0.148
 1280SOL    HW2 3845   3.424   0.326   0.208
 1281SOL     OW 3846   3.165   0.838   0.042
 1281SOL    HW1 3847   3.199   0.745   0.057
 1281SOL    HW2 3848   3.183   0.865  -0.053
 1282SOL     OW 3849   2.930   1.333   0.849
 1282SOL    HW1 3850   2.937   1.249   0.794
 1282SOL    HW2 3851   2.992   1.402   0.813
 1283SOL     OW 3852   2.181   0.810   0.949
 1283SOL    HW1 3853   2.274   0.846   0.954
 1283SOL    HW2 3854   2.175   0.725   1.001
 1284SOL     OW 3855   2.201   0.509   1.006
 1284SOL    HW1 3856   2.149   0.426   0.989
 1284SOL    HW2 3857   2.278   0.514   0.942
 1285SOL     OW 3858   3.000   0.380   1.678
 1285SOL    HW1 3859   2.955   0.443   1.742
 1285SOL    HW2 3860   3.093   0.411   1.661
 1286SOL     OW 3861   3.022   0.207   1.477
 1286SOL    HW1 3862   3.022   0.271   1.554
 1286SOL    HW2 3863   3.050   0.255   1.394
 1287SOL     OW 3864   1.870   1.326   0.200
 1287SOL    HW1 3865   1.777   1.347   0.169
 1287SOL    HW2 3866   1.880   1.227   0.213
 1288SOL     OW 3867   1.950   1.801   0.927
 1288SOL    HW1 3868   1.908   1.715   0.900
 1288SOL    HW2 3869   2.044   1.804   0.893
 1289SOL     OW 3870   2.366   1.568   0.910
 1289SOL    HW1 3871   2.432   1.642   0.919
 1289SOL    HW2 3872   2.410   1.489   0.868
 1290SOL     OW 3873   2.864   0.796   1.238
 1290SOL    HW1 3874   2.905   0.764   1.324
 1290SOL    HW2 3875   2.768   0.769   1.235
 1291SOL     OW 3876   1.902   0.544   1.114
 1291SOL    HW1 3877   1.987   0.511   1.073
 1291SOL    HW2 3878   1.915   0.559   1.212
 1292SOL     OW 3879   2.051   0.520   1.722
 1292SOL    HW1 3880   2.110   0.480   1.652
 1292SOL    HW2 3881   1.993   0.591   1.681
 1293SOL     OW 3882   3.231   0.950   1.660
 1293SOL    HW1 3883   3.270   1.039   1.680
 1293SOL    HW2 3884   3.241   0.930   1.563
 1294SOL     OW 3885   2.677   0.572   0.325
 1294SOL    HW1 3886   2.684   0.483   0.279
 1294SOL    HW2 3887   2.583   0.606   0.317
 1295SOL     OW 3888   3.519   0.604   1.206
 1295SOL    HW1 3889   3.481   0.535   1.268
 1295SOL    HW2 3890   3.601   0.568   1.162
 1296SOL     OW 3891   2.114   1.564   1.744
 1296SOL    HW1 3892   2.084   1.621   1.820
 1296SOL    HW2 3893   2.107   1.467   1.770
 1297SOL     OW 3894   2.533   0.464   1.269
 1297SOL    HW1 3895   2.499   0.375   1.239
 1297SOL    HW2 3896   2.559   0.518   1.189
 1298SOL     OW 3897   2.792   1.678   1.465
 1298SOL    HW1 3898   2.768   1.660   1.370
 1298SOL    HW2 3899   2.822   1.772   1.475
 1299SOL     OW 3900   2.335   0.500   0.191
 1299SOL    HW1 3901   2.396   0.580   0.195
 1299SOL    HW2 3902   2.240   0.531   0.198
 1300SOL     OW 3903   2.021   1.137   1.466
 1300SOL    HW1 3904   2.043   1.076   1.542
 1300SOL    HW2 3905   2.031   1.088   1.380
 1301SOL     OW 3906   3.209   1.059   1.234
 1301SOL    HW1 3907   3.233   0.996   1.160
 1301SOL    HW2 3908   3.119   1.099   1.216
 1302SOL     OW 3909   3.164   0.855   0.309
 1302SOL    HW1 3910   3.078   0.824   0.351
 1302SOL    HW2 3911   3.160   0.841   0.210
 1303SOL     OW 3912   3.621   1.747   1.154
 1303SOL    HW1 3913   3.682   1.777   1.081
 1303SOL    HW2 3914   3.583   1.658   1.132
 1304SOL     OW 3915   3.114   1.731   1.128
 1304SOL    HW1 3916   3.198   1.736   1.074
 1304SOL    HW2 3917   3.091   1.635   1.146
 1305SOL     OW 3918   1.945   1.258   1.022
 1305SOL    HW1 3919   1.940   1.257   1.122
 1305SOL    HW2 3920   1.862   1.217   0.984
 1306SOL     OW 3921   2.550   1.662   1.716
 1306SOL    HW1 3922   2.494   1.743   1.725
 1306SOL    HW2 3923   2.602   1.666   1.630
 1307SOL     OW 3924   2.765   0.086   0.133
 1307SOL    HW1 3925   2.816   0.087   0.047
 1307SOL    HW2 3926   2.821   0.044   0.204
 1308SOL     OW 3927   3.588   0.135   0.523
 1308SOL    HW1 3928   3.661   0.118   0.456
 1308SOL    HW2 3929   3.557   0.048   0.561
 1309SOL     OW 3930   3.250   1.573   0.477
 1309SOL    HW1 3931   3.317   1.585   0.403
 1309SOL    HW2 3932   3.210   1.662   0.500
 1310SOL     OW 3933   1.992   1.794   1.851
 1310SOL    HW1 3934   1.951   1.720   1.904
 1310SOL    HW2 3935   2.056   1.845   1.909
 1311SOL     OW 3936   3.142   0.927   0.672
 1311SOL    HW1 3937   3.202   0.846   0.674
 1311SOL    HW2 3938   3.182   0.996   0.612
 1312SOL     OW 3939   2.692   1.273   1.422
 1312SOL    HW1 3940   2.687   1.306   1.517
 1312SOL    HW2 3941   2.606   1.292   1.376
 1313SOL     OW 3942   2.534   1.616   0.154
 1313SOL    HW1 3943   2.543   1.626   0.055
 1313SOL    HW2 3944   2.494   1.527   0.175
 1314SOL     OW 3945   3.512   1.720   1.394
 1314SOL    HW1 3946   3.565   1.730   1.310
 1314SOL    HW2 3947   3.485   1.810   1.428
 1315SOL     OW 3948   3.703   0.175   0.963
 1315SOL    HW1 3949   3.742   0.090   0.927
 1315SOL    HW2 3950   3.605   0.177   0.944
 1316SOL     OW 3951   2.125   0.326   0.720
 1316SOL    HW1 3952   2.046   0.377   0.686
 1316SOL    HW2 3953   2.116   0.311   0.818
 1317SOL     OW 3954   3.056   1.612   0.031
 1317SOL    HW1 3955   3.062   1.519   0.068
 1317SOL    HW2 3956   2.997   1.612  -0.049
 1318SOL     OW 3957   2.684   1.002   1.372
 1318SOL    HW1 3958   2.724   1.001   1.280
 1318SOL    HW2 3959   2.694   1.094   1.412
 1319SOL     OW 3960   2.778   0.910   0.291
 1319SOL    HW1 3961   2.841   0.948   0.223
 1319SOL    HW2 3962   2.818   0.827   0.330
 1320SOL     OW 3963   3.366   1.607   0.044
 1320SOL    HW1 3964   3.274   1.644   0.051
 1320SOL    HW2 3965   3.404   1.627  -0.046
 1321SOL     OW 3966   2.234   1.288   1.490
 1321SOL    HW1 3967   2.221   1.381   1.456
 1321SOL    HW2 3968   2.150   1.236   1.477
 1322SOL     OW 3969   3.476   1.292   1.289
 1322SOL    HW1 3970   3.536   1.295   1.369
 1322SOL    HW2 3971   3.401   1.356   1.302
 1323SOL     OW 3972   2.901   1.098   0.696
 1323SOL    HW1 3973   2.831   1.051   0.750
 1323SOL    HW2 3974   2.960   1.030   0.653
 1324SOL     OW 3975   2.876   0.236   0.971
 1324SOL    HW1 3976   2.868   0.200   0.878
 1324SOL    HW2 3977   2.874   0.160   1.036
 1325SOL     OW 3978   2.452   1.487   0.491
 1325SOL    HW1 3979   2.494   1.429   0.421
 1325SOL    HW2 3980   2.408   1.566   0.447
 1326SOL     OW 3981   3.571   0.385   1.381
 1326SOL    HW1 3982   3.644   0.454   1.385
 1326SOL    HW2 3983   3.599   0.310   1.322
 1327SOL     OW 3984   2.117   1.348   0.290
 1327SOL    HW1 3985   2.021   1.349   0.263
 1327SOL    HW2 3986   2.129   1.401   0.374
 1328SOL     OW 3987   1.967   1.013   1.726
 1328SOL    HW1 3988   1.890   0.980   1.780
 1328SOL    HW2 3989   2.052   0.983   1.768
 1329SOL     OW 3990   2.534   0.203   1.489
 1329SOL    HW1 3991   2.624   0.187   1.449
 1329SOL    HW2 3992   2.542   0.208   1.588
 1330SOL     OW 3993   1.937   0.345   0.033
 1330SOL    HW1 3994   1.845   0.317   0.004
 1330SOL    HW2 3995   1.968   0.422  -0.023
 1331SOL     OW 3996   3.302   0.856   1.398
 1331SOL    HW1 3997   3.245   0.908   1.335
 1331SOL    HW2 3998   3.398   0.868   1.374
 1332SOL     OW 3999   1.934   0.166   0.318
 1332SOL    HW1 4000   1.917   0.249   0.264
 1332SOL    HW2 4001   2.024   0.129   0.296
 1333SOL     OW 4002   3.045   1.335   0.119
 1333SOL    HW1 4003   2.946   1.324   0.121
 1333SOL    HW2 4004   3.079   1.350   0.212
 1334SOL     OW 4005   2.475   0.842   1.431
 1334SOL    HW1 4006   2.531   0.923   1.414
 1334SOL    HW2 4007   2.534   0.762   1.434
 1335SOL     OW 4008   3.355   1.767   0.959
 1335SOL    HW1 4009   3.388   1.831   0.890
 1335SOL    HW2 4010   3.421   1.761   1.034
 1336SOL     OW 4011   2.578   0.565   1.708
 1336SOL    HW1 4012   2.597   0.630   1.782
 1336SOL    HW2 4013   2.638   0.485   1.717
 1337SOL     OW 4014   3.312   1.220   1.633
 1337SOL    HW1 4015   3.303   1.210   1.732
 1337SOL    HW2 4016   3.408   1.213   1.607
 1338SOL     OW 4017   2.252   1.741   1.560
 1338SOL    HW1 4018   2.161   1.782   1.558
 1338SOL    HW2 4019   2.245   1.647   1.592
 1339SOL     OW 4020   3.536   0.883   1.254
 1339SOL    HW1 4021   3.509   0.794   1.217
 1339SOL    HW2 4022   3.537   0.951   1.181
 1340SOL     OW 4023   3.087   0.325   0.449
 1340SOL    HW1 4024   3.152   0.251   0.438
 1340SOL    HW2 4025   3.107   0.375   0.533
 1341SOL     OW 4026   2.456   0.745   0.652
 1341SOL    HW1 4027   2.506   0.830   0.633
 1341SOL    HW2 4028   2.368   0.747   0.604
 1342SOL     OW 4029   3.639   0.342   1.642
 1342SOL    HW1 4030   3.622   0.373   1.548
 1342SOL    HW2 4031   3.555   0.305   1.680
 1343SOL     OW 4032   3.592   0.934   1.517
 1343SOL    HW1 4033   3.630   1.025   1.532
 1343SOL    HW2 4034   3.584   0.917   1.418
 1344SOL     OW 4035   2.721   1.374   0.016
 1344SOL    HW1 4036   2.675   1.389   0.104
 1344SOL    HW2 4037   2.765   1.459  -0.014
 1345SOL     OW 4038   2.523   1.790   0.953
 1345SOL    HW1 4039   2.477   1.878   0.940
 1345SOL    HW2 4040   2.622   1.802   0.946
 1346SOL     OW 4041   2.721   0.956   0.861
 1346SOL    HW1 4042   2.775   0.887   0.909
 1346SOL    HW2 4043   2.689   1.025   0.927
 1347SOL     OW 4044   2.945   0.984   0.087
 1347SOL    HW1 4045   2.922   1.037   0.005
 1347SOL    HW2 4046   3.026   0.928   0.068
 1348SOL     OW 4047   3.723   1.569   0.851
 1348SOL    HW1 4048   3.652   1.557   0.781
 1348SOL    HW2 4049   3.724   1.490   0.911
 1349SOL     OW 4050   2.083   1.314   1.844
 1349SOL    HW1 4051   2.018   1.241   1.823
 1349SOL    HW2 4052   2.087   1.328   1.942
 1350SOL     OW 4053   1.941   1.240   0.653
 1350SOL    HW1 4054   1.940   1.193   0.741
 1350SOL    HW2 4055   2.023   1.212   0.602
 1351SOL     OW 4056   2.534   1.391   1.624
 1351SOL    HW1 4057   2.456   1.341   1.662
 1351SOL    HW2 4058   2.531   1.486   1.655
 1352SOL     OW 4059   3.686   0.192   1.227
 1352SOL    HW1 4060   3.682   0.102   1.271
 1352SOL    HW2 4061   3.689   0.181   1.128
 1353SOL     OW 4062   2.290   0.424   0.520
 1353SOL    HW1 4063   2.320   0.352   0.458
 1353SOL    HW2 4064   2.251   0.384   0.603
 1354SOL     OW 4065   3.567   1.487   1.104
 1354SOL    HW1 4066   3.474   1.462   1.077
 1354SOL    HW2 4067   3.593   1.437   1.186
 1355SOL     OW 4068   2.179   0.547   1.280
 1355SOL    HW1 4069   2.217   0.488   1.352
 1355SOL    HW2 4070   2.219   0.521   1.192
 1356SOL     OW 4071   2.674   1.586   0.687
 1356SOL    HW1 4072   2.706   1.596   0.593
 1356SOL    HW2 4073   2.595   1.524   0.689
 1357SOL     OW 4074   3.286   0.214   1.112
 1357SOL    HW1 4075   3.338   0.149   1.167
 1357SOL    HW2 4076   3.237   0.277   1.173
 1358SOL     OW 4077   2.863   0.034   1.154
 1358SOL    HW1 4078   2.800  -0.038   1.123
 1358SOL    HW2 4079   2.956  -0.002   1.154
 1359SOL     OW 4080   2.632   1.330   0.301
 1359SOL    HW1 4081   2.586   1.243   0.318
 1359SOL    HW2 4082   2.723   1.327   0.342
 1360SOL     OW 4083   2.480   1.567   1.284
 1360SOL    HW1 4084   2.475   1.649   1.341
 1360SOL    HW2 4085   2.569   1.564   1.239
 1361SOL     OW 4086   3.214   0.052   0.168
 1361SOL    HW1 4087   3.249   0.011   0.084
 1361SOL    HW2 4088   3.124   0.014   0.188
 1362SOL     OW 4089   3.162   0.453   0.691
 1362SOL    HW1 4090   3.103   0.533   0.695
 1362SOL    HW2 4091   3.177   0.418   0.784
 1363SOL     OW 4092   3.455   0.221   0.882
 1363SOL    HW1 4093   3.371   0.220   0.936
 1363SOL    HW2 4094   3.457   0.304   0.826
 1364SOL     OW 4095   1.901   1.077   0.300
 1364SOL    HW1 4096   2.000   1.066   0.291
 1364SOL    HW2 4097   1.861   0.991   0.332
 1365SOL     OW 4098   2.737   1.646   0.337
 1365SOL    HW1 4099   2.660   1.611   0.283
 1365SOL    HW2 4100   2.705   1.717   0.399
 1366SOL     OW 4101   2.092   0.628   1.975
 1366SOL    HW1 4102   1.999   0.626   2.012
 1366SOL    HW2 4103   2.093   0.589   1.883
 1367SOL     OW 4104   2.087   0.275   2.858
 1367SOL    HW1 4105   2.122   0.258   2.950
 1367SOL    HW2 4106   1.999   0.230   2.846
 1368SOL     OW 4107   1.881   0.368   2.509
 1368SOL    HW1 4108   1.799   0.411   2.548
 1368SOL    HW2 4109   1.853   0.295   2.446
 1369SOL     OW 4110   2.431   1.275   3.027
 1369SOL    HW1 4111   2.338   1.268   2.990
 1369SOL    HW2 4112   2.442   1.364   3.071
 1370SOL     OW 4113   3.417   1.511   2.565
 1370SOL    HW1 4114   3.360   1.495   2.646
 1370SOL    HW2 4115   3.358   1.521   2.485
 1371SOL     OW 4116   2.997   0.703   2.579
 1371SOL    HW1 4117   3.054   0.781   2.554
 1371SOL    HW2 4118   2.937   0.729   2.655
 1372SOL     OW 4119   3.617   0.607   2.093
 1372SOL    HW1 4120   3.605   0.594   1.994
 1372SOL    HW2 4121   3.587   0.526   2.142
 1373SOL     OW 4122   2.630   1.144   2.885
 1373SOL    HW1 4123   2.552   1.161   2.945
 1373SOL    HW2 4124   2.664   1.231   2.849
 1374SOL     OW 4125   2.712   0.798   3.685
 1374SOL    HW1 4126   2.708   0.874   3.750
 1374SOL    HW2 4127   2.734   0.834   3.594
 1375SOL     OW 4128   2.547   1.012   2.527
 1375SOL    HW1 4129   2.616   0.996   2.597
 1375SOL    HW2 4130   2.474   1.069   2.565
 1376SOL     OW 4131   2.548   1.161   3.665
 1376SOL    HW1 4132   2.608   1.240   3.679
 1376SOL    HW2 4133   2.462   1.192   3.624
 1377SOL     OW 4134   2.197   1.435   2.923
 1377SOL    HW1 4135   2.119   1.404   2.870
 1377SOL    HW2 4136   2.255   1.493   2.866
 1378SOL     OW 4137   3.322   1.505   3.201
 1378SOL    HW1 4138   3.346   1.599   3.227
 1378SOL    HW2 4139   3.306   1.451   3.283
 1379SOL     OW 4140   2.300   0.392   3.361
 1379SOL    HW1 4141   2.382   0.336   3.370
 1379SOL    HW2 4142   2.219   0.334   3.365
 1380SOL     OW 4143   3.465   0.447   2.599
 1380SOL    HW1 4144   3.391   0.493   2.549
 1380SOL    HW2 4145   3.516   0.515   2.652
 1381SOL     OW 4146   2.093   1.713   2.345
 1381SOL    HW1 4147   2.127   1.790   2.399
 1381SOL    HW2 4148   2.137   1.713   2.255
 1382SOL     OW 4149   2.989   1.341   3.552
 1382SOL    HW1 4150   3.036   1.341   3.640
 1382SOL    HW2 4151   2.941   1.254   3.541
 1383SOL     OW 4152   2.092   1.434   2.400
 1383SOL    HW1 4153   2.066   1.530   2.400
 1383SOL    HW2 4154   2.021   1.380   2.445
 1384SOL     OW 4155   2.102   1.091   2.748
 1384SOL    HW1 4156   2.116   1.007   2.800
 1384SOL    HW2 4157   2.047   1.155   2.803
 1385SOL     OW 4158   2.482   1.786   3.301
 1385SOL    HW1 4159   2.390   1.769   3.336
 1385SOL    HW2 4160   2.510   1.878   3.327
 1386SOL     OW 4161   2.468   0.964   1.985
 1386SOL    HW1 4162   2.475   1.048   1.931
 1386SOL    HW2 4163   2.514   0.977   2.073
 1387SOL     OW 4164   3.456   0.114   3.342
 1387SOL    HW1 4165   3.438   0.181   3.270
 1387SOL    HW2 4166   3.453   0.160   3.431
 1388SOL     OW 4167   1.984   0.643   2.425
 1388SOL    HW1 4168   1.939   0.555   2.442
 1388SOL    HW2 4169   1.983   0.697   2.509
 1389SOL     OW 4170   3.704   1.767   2.221
 1389SOL    HW1 4171   3.758   1.738   2.301
 1389SOL    HW2 4172   3.734   1.857   2.192
 1390SOL     OW 4173   1.889   1.596   1.979
 1390SOL    HW1 4174   1.870   1.500   2.000
 1390SOL    HW2 4175   1.856   1.654   2.054
 1391SOL     OW 4176   3.551   0.922   2.474
 1391SOL    HW1 4177   3.646   0.893   2.482
 1391SOL    HW2 4178   3.543   0.987   2.399
 1392SOL     OW 4179   3.503   1.108   2.294
 1392SOL    HW1 4180   3.589   1.110   2.242
 1392SOL    HW2 4181   3.517   1.155   2.382
 1393SOL     OW 4182   1.975   0.737   3.459
 1393SOL    HW1 4183   2.063   0.724   3.504
 1393SOL    HW2 4184   1.962   0.834   3.437
 1394SOL     OW 4185   2.475   1.365   2.588
 1394SOL    HW1 4186   2.426   1.278   2.597
 1394SOL    HW2 4187   2.452   1.408   2.501
 1395SOL     OW 4188   3.155   1.228   3.285
 1395SOL    HW1 4189   3.192   1.155   3.227
 1395SOL    HW2 4190   3.207   1.233   3.370
 1396SOL     OW 4191   2.671   0.004   2.364
 1396SOL    HW1 4192   2.711   0.095   2.355
 1396SOL    HW2 4193   2.571   0.012   2.370
 1397SOL     OW 4194   2.059   0.976   3.126
 1397SOL    HW1 4195   2.148   0.931   3.112
 1397SOL    HW2 4196   1.986   0.911   3.107
 1398SOL     OW 4197   3.387   0.999   2.052
 1398SOL    HW1 4198   3.324   0.923   2.065
 1398SOL    HW2 4199   3.435   1.017   2.138
 1399SOL     OW 4200   3.049   1.792   3.478
 1399SOL    HW1 4201   3.073   1.852   3.402
 1399SOL    HW2 4202   3.056   1.697   3.448
 1400SOL     OW 4203   2.179   0.251   3.663
 1400SOL    HW1 4204   2.250   0.322   3.669
 1400SOL    HW2 4205   2.091   0.290   3.691
 1401SOL     OW 4206   3.328   1.417   2.815
 1401SOL    HW1 4207   3.269   1.423   2.895
 1401SOL    HW2 4208   3.313   1.329   2.769
 1402SOL     OW 4209   3.529   1.714   2.434
 1402SOL    HW1 4210   3.488   1.691   2.346
 1402SOL    HW2 4211   3.511   1.640   2.499
 1403SOL     OW 4212   2.460   0.729   2.132
 1403SOL    HW1 4213   2.484   0.798   2.064
 1403SOL    HW2 4214   2.382   0.762   2.186
 1404SOL     OW 4215   3.143   0.345   2.806
 1404SOL    HW1 4216   3.057   0.295   2.793
 1404SOL    HW2 4217   3.205   0.291   2.862
 1405SOL     OW 4218   3.438   1.662   2.169
 1405SOL    HW1 4219   3.527   1.708   2.172
 1405SOL    HW2 4220   3.417   1.638   2.074
 1406SOL     OW 4221   2.669   0.605   3.327
 1406SOL    HW1 4222   2.622   0.602   3.416
 1406SOL    HW2 4223   2.618   0.550   3.261
 1407SOL     OW 4224   3.256   0.469   3.536
 1407SOL    HW1 4225   3.236   0.512   3.624
 1407SOL    HW2 4226   3.334   0.407   3.545
 1408SOL     OW 4227   2.835   0.890   3.434
 1408SOL    HW1 4228   2.881   0.806   3.405
 1408SOL    HW2 4229   2.779   0.924   3.359
 1409SOL     OW 4230   2.853   0.410   3.104
 1409SOL    HW1 4231   2.776   0.444   3.158
 1409SOL    HW2 4232   2.819   0.359   3.025
 1410SOL     OW 4233   2.903   0.701   2.291
 1410SOL    HW1 4234   2.929   0.697   2.387
 1410SOL    HW2 4235   2.818   0.650   2.277
 1411SOL     OW 4236   1.938   0.811   2.651
 1411SOL    HW1 4237   2.037   0.799   2.660
 1411SOL    HW2 4238   1.914   0.906   2.672
 1412SOL     OW 4239   1.992   1.821   3.433
 1412SOL    HW1 4240   1.982   1.806   3.532
 1412SOL    HW2 4241   1.906   1.857   3.397
 1413SOL     OW 4242   2.727   0.348   2.057
 1413SOL    HW1 4243   2.786   0.411   2.008
 1413SOL    HW2 4244   2.746   0.254   2.028
 1414SOL     OW 4245   3.581   0.585   3.693
 1414SOL    HW1 4246   3.555   0.674   3.657
 1414SOL    HW2 4247   3.579   0.517   3.620
 1415SOL     OW 4248   3.224   1.144   2.407
 1415SOL    HW1 4249   3.307   1.115   2.359
 1415SOL    HW2 4250   3.175   1.211   2.351
 1416SOL     OW 4251   2.412   0.196   2.747
 1416SOL    HW1 4252   2.407   0.191   2.847
 1416SOL    HW2 4253   2.414   0.292   2.718
 1417SOL     OW 4254   2.870   1.456   2.339
 1417SOL    HW1 4255   2.824   1.528   2.287
 1417SOL    HW2 4256   2.866   1.476   2.437
 1418SOL     OW 4257   2.213   1.801   2.715
 1418SOL    HW1 4258   2.263   1.715   2.721
 1418SOL    HW2 4259   2.278   1.878   2.712
 1419SOL     OW 4260   3.657   1.066   2.735
 1419SOL    HW1 4261   3.595   1.051   2.659
 1419SOL    HW2 4262   3.605   1.077   2.820
 1420SOL     OW 4263   3.089   1.550   3.368
 1420SOL    HW1 4264   3.095   1.473   3.432
 1420SOL    HW2 4265   3.037   1.524   3.288
 1421SOL     OW 4266   2.183   0.943   2.104
 1421SOL    HW1 4267   2.265   0.982   2.062
 1421SOL    HW2 4268   2.156   0.861   2.055
 1422SOL     OW 4269   3.320   0.735   2.590
 1422SOL    HW1 4270   3.315   0.670   2.665
 1422SOL    HW2 4271   3.400   0.794   2.603
 1423SOL     OW 4272   2.323   1.266   3.589
 1423SOL    HW1 4273   2.273   1.267   3.503
 1423SOL    HW2 4274   2.260   1.248   3.665
 1424SOL     OW 4275   2.973   1.776   2.099
 1424SOL    HW1 4276   2.913   1.714   2.149
 1424SOL    HW2 4277   3.004   1.732   2.014
 1425SOL     OW 4278   2.064   0.285   3.360
 1425SOL    HW1 4279   1.984   0.345   3.347
 1425SOL    HW2 4280   2.054   0.236   3.446
 1426SOL     OW 4281   3.494   1.377   1.943
 1426SOL    HW1 4282   3.462   1.471   1.933
 1426SOL    HW2 4283   3.418   1.314   1.931
 1427SOL     OW 4284   2.326   1.743   2.185
 1427SOL    HW1 4285   2.359   1.782   2.271
 1427SOL    HW2 4286   2.402   1.736   2.120
 1428SOL     OW 4287   3.262   0.107   2.288
 1428SOL    HW1 4288   3.238   0.070   2.198
 1428SOL    HW2 4289   3.361   0.123   2.292
 1429SOL     OW 4290   2.111   1.785   3.103
 1429SOL    HW1 4291   2.168   1.720   3.153
 1429SOL    HW2 4292   2.095   1.752   3.010
 1430SOL     OW 4293   2.802   1.698   2.766
 1430SOL    HW1 4294   2.882   1.641   2.787
 1430SOL    HW2 4295   2.753   1.658   2.689
 1431SOL     OW 4296   2.244   0.700   2.342
 1431SOL    HW1 4297   2.289   0.610   2.339
 1431SOL    HW2 4298   2.150   0.689   2.375
 1432SOL     OW 4299   3.409   0.222   3.591
 1432SOL    HW1 4300   3.404   0.259   3.683
 1432SOL    HW2 4301   3.337   0.153   3.579
 1433SOL     OW 4302   2.476   0.122   1.979
 1433SOL    HW1 4303   2.574   0.100   1.986
 1433SOL    HW2 4304   2.445   0.105   1.886
 1434SOL     OW 4305   2.643   0.264   3.611
 1434SOL    HW1 4306   2.710   0.203   3.654
 1434SOL    HW2 4307   2.570   0.283   3.676
 1435SOL     OW 4308   2.750   1.514   3.057
 1435SOL    HW1 4309   2.727   1.489   2.963
 1435SOL    HW2 4310   2.811   1.445   3.096
 1436SOL     OW 4311   3.213   0.590   3.295
 1436SOL    HW1 4312   3.241   0.547   3.380
 1436SOL    HW2 4313   3.238   0.686   3.296
 1437SOL     OW 4314   2.665   1.402   2.786
 1437SOL    HW1 4315   2.755   1.416   2.744
 1437SOL    HW2 4316   2.594   1.404   2.715
 1438SOL     OW 4317   2.784   0.503   2.761
 1438SOL    HW1 4318   2.759   0.494   2.665
 1438SOL    HW2 4319   2.832   0.421   2.792
 1439SOL     OW 4320   2.401   0.064   2.374
 1439SOL    HW1 4321   2.320   0.065   2.432
 1439SOL    HW2 4322   2.404   0.147   2.319
 1440SOL     OW 4323   3.296   1.188   1.903
 1440SOL    HW1 4324   3.328   1.112   1.960
 1440SOL    HW2 4325   3.204   1.215   1.933
 1441SOL     OW 4326   2.159   0.035   2.033
 1441SOL    HW1 4327   2.208   0.119   2.012
 1441SOL    HW2 4328   2.221  -0.030   2.078
 1442SOL     OW 4329   2.797   0.236   2.342
 1442SOL    HW1 4330   2.749   0.277   2.264
 1442SOL    HW2 4331   2.896   0.234   2.323
 1443SOL     OW 4332   2.938   0.683   3.326
 1443SOL    HW1 4333   2.858   0.622   3.329
 1443SOL    HW2 4334   3.019   0.630   3.302
 1444SOL     OW 4335   3.089   1.570   2.655
 1444SOL    HW1 4336   3.110   1.644   2.590
 1444SOL    HW2 4337   3.157   1.570   2.728
 1445SOL     OW 4338   2.321   1.152   2.603
 1445SOL    HW1 4339   2.250   1.125   2.668
 1445SOL    HW2 4340   2.295   1.124   2.510
 1446SOL     OW 4341   3.133   1.797   2.453
 1446SOL    HW1 4342   3.177   1.861   2.389
 1446SOL    HW2 4343   3.083   1.849   2.523
 1447SOL     OW 4344   2.894   0.549   1.878
 1447SOL    HW1 4345   2.853   0.631   1.839
 1447SOL    HW2 4346   2.958   0.575   1.951
 1448SOL     OW 4347   1.940   0.556   3.248
 1448SOL    HW1 4348   2.032   0.555   3.207
 1448SOL    HW2 4349   1.934   0.630   3.315
 1449SOL     OW 4350   2.423   0.222   3.009
 1449SOL    HW1 4351   2.461   0.138   3.046
 1449SOL    HW2 4352   2.335   0.241   3.053
 1450SOL     OW 4353   2.728   0.454   2.504
 1450SOL    HW1 4354   2.696   0.526   2.442
 1450SOL    HW2 4355   2.752   0.373   2.451
 1451SOL     OW 4356   2.879   0.039   2.615
 1451SOL    HW1 4357   2.807   0.044   2.546
 1451SOL    HW2 4358   2.855  -0.030   2.684
 1452SOL     OW 4359   3.291   1.173   2.729
 1452SOL    HW1 4360   3.236   1.089   2.722
 1452SOL    HW2 4361   3.317   1.202   2.637
 1453SOL     OW 4362   3.328   0.590   2.854
 1453SOL    HW1 4363   3.298   0.495   2.861
 1453SOL    HW2 4364   3.401   0.606   2.920
 1454SOL     OW 4365   3.719   0.833   2.239
 1454SOL    HW1 4366   3.761   0.769   2.303
 1454SOL    HW2 4367   3.681   0.782   2.161
 1455SOL     OW 4368   2.350   1.385   2.036
 1455SOL    HW1 4369   2.263   1.370   2.083
 1455SOL    HW2 4370   2.333   1.411   1.941
 1456SOL     OW 4371   3.526   1.280   2.519
 1456SOL    HW1 4372   3.625   1.288   2.533
 1456SOL    HW2 4373   3.481   1.364   2.550
 1457SOL     OW 4374   3.252   0.575   1.940
 1457SOL    HW1 4375   3.198   0.554   2.021
 1457SOL    HW2 4376   3.343   0.534   1.949
 1458SOL     OW 4377   2.389   0.256   2.190
 1458SOL    HW1 4378   2.416   0.197   2.115
 1458SOL    HW2 4379   2.389   0.351   2.159
 1459SOL     OW 4380   3.616   1.223   3.450
 1459SOL    HW1 4381   3.707   1.184   3.437
 1459SOL    HW2 4382   3.624   1.319   3.474
 1460SOL     OW 4383   2.926   1.347   3.202
 1460SOL    HW1 4384   2.846   1.324   3.257
 1460SOL    HW2 4385   3.009   1.321   3.251
 1461SOL     OW 4386   3.454   1.629   3.487
 1461SOL    HW1 4387   3.481   1.663   3.397
 1461SOL    HW2 4388   3.533   1.591   3.533
 1462SOL     OW 4389   2.973   1.195   2.962
 1462SOL    HW1 4390   2.933   1.239   3.043
 1462SOL    HW2 4391   2.932   1.232   2.879
 1463SOL     OW 4392   3.500   1.099   2.941
 1463SOL    HW1 4393   3.505   1.180   3.000
 1463SOL    HW2 4394   3.414   1.101   2.890
 1464SOL     OW 4395   2.777   0.089   3.264
 1464SOL    HW1 4396   2.802   0.069   3.169
 1464SOL    HW2 4397   2.849   0.145   3.306
 1465SOL     OW 4398   2.842   1.116   3.581
 1465SOL    HW1 4399   2.743   1.122   3.591
 1465SOL    HW2 4400   2.865   1.036   3.525
 1466SOL     OW 4401   2.567   1.050   2.230
 1466SOL    HW1 4402   2.553   1.057   2.329
 1466SOL    HW2 4403   2.651   0.999   2.212
 1467SOL     OW 4404   2.272   0.813   3.113
 1467SOL    HW1 4405   2.358   0.825   3.163
 1467SOL    HW2 4406   2.230   0.726   3.140
 1468SOL     OW 4407   3.136   0.386   3.124
 1468SOL    HW1 4408   3.157   0.460   3.188
 1468SOL    HW2 4409   3.047   0.403   3.081
 1469SOL     OW 4410   1.926   1.564   3.193
 1469SOL    HW1 4411   1.880   1.646   3.159
 1469SOL    HW2 4412   2.024   1.583   3.202
 1470SOL     OW 4413   2.229   1.100   2.363
 1470SOL    HW1 4414   2.222   1.183   2.307
 1470SOL    HW2 4415   2.233   1.020   2.303
 1471SOL     OW 4416   2.428   0.537   2.727
 1471SOL    HW1 4417   2.440   0.603   2.653
 1471SOL    HW2 4418   2.474   0.571   2.810
 1472SOL     OW 4419   3.114   1.348   2.250
 1472SOL    HW1 4420   3.164   1.425   2.290
 1472SOL    HW2 4421   3.019   1.350   2.282
 1473SOL     OW 4422   3.134   1.445   3.004
 1473SOL    HW1 4423   3.181   1.458   3.091
 1473SOL    HW2 4424   3.068   1.371   3.013
 1474SOL     OW 4425   3.444   0.639   2.334
 1474SOL    HW1 4426   3.413   0.700   2.407
 1474SOL    HW2 4427   3.494   0.691   2.265
 1475SOL     OW 4428   2.216   1.510   3.191
 1475SOL    HW1 4429   2.195   1.466   3.104
 1475SOL    HW2 4430   2.313   1.536   3.194
 1476SOL     OW 4431   2.264   0.751   3.460
 1476SOL    HW1 4432   2.332   0.806   3.413
 1476SOL    HW2 4433   2.304   0.663   3.487
 1477SOL     OW 4434   3.449   0.779   3.532
 1477SOL    HW1 4435   3.357   0.817   3.527
 1477SOL    HW2 4436   3.509   0.826   3.467
 1478SOL     OW 4437   2.875   0.105   3.632
 1478SOL    HW1 4438   2.881   0.190   3.580
 1478SOL    HW2 4439   2.907   0.029   3.575
 1479SOL     OW 4440   2.366   0.050   3.602
 1479SOL    HW1 4441   2.324  -0.007   3.532
 1479SOL    HW2 4442   2.300   0.119   3.634
 1480SOL     OW 4443   2.435   0.870   2.891
 1480SOL    HW1 4444   2.479   0.959   2.882
 1480SOL    HW2 4445   2.372   0.870   2.968
 1481SOL     OW 4446   3.222   0.862   2.907
 1481SOL    HW1 4447   3.147   0.862   2.841
 1481SOL    HW2 4448   3.259   0.770   2.916
 1482SOL     OW 4449   3.071   0.525   2.137
 1482SOL    HW1 4450   3.084   0.441   2.191
 1482SOL    HW2 4451   3.042   0.599   2.197
 1483SOL     OW 4452   2.169   0.213   3.093
 1483SOL    HW1 4453   2.146   0.250   3.183
 1483SOL    HW2 4454   2.139   0.118   3.087
 1484SOL     OW 4455   1.899   1.310   3.144
 1484SOL    HW1 4456   1.952   1.261   3.212
 1484SOL    HW2 4457   1.921   1.408   3.149
 1485SOL     OW 4458   2.594   0.634   2.926
 1485SOL    HW1 4459   2.653   0.608   2.850
 1485SOL    HW2 4460   2.566   0.730   2.915
 1486SOL     OW 4461   3.590   0.935   3.716
 1486SOL    HW1 4462   3.544   0.928   3.627
 1486SOL    HW2 4463   3.528   0.979   3.782
 1487SOL     OW 4464   2.169   0.063   2.480
 1487SOL    HW1 4465   2.158   0.157   2.513
 1487SOL    HW2 4466   2.164   0.000   2.557
 1488SOL     OW 4467   3.484   0.367   2.236
 1488SOL    HW1 4468   3.486   0.291   2.300
 1488SOL    HW2 4469   3.436   0.444   2.276
 1489SOL     OW 4470   2.885   0.766   2.828
 1489SOL    HW1 4471   2.900   0.787   2.924
 1489SOL    HW2 4472   2.855   0.671   2.819
 1490SOL     OW 4473   2.842   1.573   3.562
 1490SOL    HW1 4474   2.822   1.617   3.474
 1490SOL    HW2 4475   2.881   1.482   3.546
 1491SOL     OW 4476   3.721   1.518   3.467
 1491SOL    HW1 4477   3.735   1.545   3.372
 1491SOL    HW2 4478   3.804   1.540   3.520
 1492SOL     OW 4479   2.212   0.898   3.666
 1492SOL    HW1 4480   2.288   0.942   3.714
 1492SOL    HW2 4481   2.247   0.851   3.584
 1493SOL     OW 4482   3.402   0.274   1.987
 1493SOL    HW1 4483   3.341   0.199   2.010
 1493SOL    HW2 4484   3.424   0.326   2.070
 1494SOL     OW 4485   3.165   0.838   1.904
 1494SOL    HW1 4486   3.199   0.745   1.919
 1494SOL    HW2 4487   3.183   0.865   1.809
 1495SOL     OW 4488   2.930   1.333   2.711
 1495SOL    HW1 4489   2.937   1.249   2.656
 1495SOL    HW2 4490   2.992   1.402   2.675
 1496SOL     OW 4491   2.181   0.810   2.811
 1496SOL    HW1 4492   2.274   0.846   2.816
 1496SOL    HW2 4493   2.175   0.725   2.863
 1497SOL     OW 4494   2.201   0.509   2.868
 1497SOL    HW1 4495   2.149   0.426   2.851
 1497SOL    HW2 4496   2.278   0.514   2.804
 1498SOL     OW 4497   3.000   0.380   3.540
 1498SOL    HW1 4498   2.955   0.443   3.604
 1498SOL    HW2 4499   3.093   0.411   3.523
 1499SOL     OW 4500   3.022   0.207   3.339
 1499SOL    HW1 4501   3.022   0.271   3.416
 1499SOL    HW2 4502   3.050   0.255   3.256
 1500SOL     OW 4503   1.870   1.326   2.062
 1500SOL    HW1 4504   1.777   1.347   2.031
 1500SOL    HW2 4505   1.880   1.227   2.075
 1501SOL     OW 4506   1.950   1.801   2.789
 1501SOL    HW1 4507   1.908   1.715   2.762
 1501SOL    HW2 4508   2.044   1.804   2.755
 1502SOL     OW 4509   2.366   1.568   2.772
 1502SOL    HW1 4510   2.432   1.642   2.781
 1502SOL    HW2 4511   2.410   1.489   2.730
 1503SOL     OW 4512   2.864   0.796   3.100
 1503SOL    HW1 4513   2.905   0.764   3.186
 1503SOL    HW2 4514   2.768   0.769   3.097
 1504SOL     OW 4515   1.902   0.544   2.976
 1504SOL    HW1 4516   1.987   0.511   2.935
 1504SOL    HW2 4517   1.915   0.559   3.074
 1505SOL     OW 4518   2.051   0.520   3.584
 1505SOL    HW1 4519   2.110   0.480   3.514
 1505SOL    HW2 4520   1.993   0.591   3.543
 1506SOL     OW 4521   3.231   0.950   3.522
 1506SOL    HW1 4522   3.270   1.039   3.542
 1506SOL    HW2 4523   3.241   0.930   3.425
 1507SOL     OW 4524   2.677   0.572   2.187
 1507SOL    HW1 4525   2.684   0.483   2.141
 1507SOL    HW2 4526   2.583   0.606   2.179
 1508SOL     OW 4527   3.519   0.604   3.068
 1508SOL    HW1 4528   3.481   0.535   3.130
 1508SOL    HW2 4529   3.601   0.568   3.024
 1509SOL     OW 4530   2.114   1.564   3.606
 1509SOL    HW1 4531   2.084   1.621   3.682
 1509SOL    HW2 4532   2.107   1.467   3.632
 1510SOL     OW 4533   2.533   0.464   3.131
 1510SOL    HW1 4534   2.499   0.375   3.101
 1510SOL    HW2 4535   2.559   0.518   3.051
 1511SOL     OW 4536   2.792   1.678   3.327
 1511SOL    HW1 4537   2.768   1.660   3.232
 1511SOL    HW2 4538   2.822   1.772   3.337
 1512SOL     OW 4539   2.335   0.500   2.053
 1512SOL    HW1 4540   2.396   0.580   2.057
 1512SOL    HW2 4541   2.240   0.531   2.060
 1513SOL     OW 4542   2.021   1.137   3.328
 1513SOL    HW1 4543   2.043   1.076   3.404
 1513SOL    HW2 4544   2.031   1.088   3.242
 1514SOL     OW 4545   3.209   1.059   3.096
 1514SOL    HW1 4546   3.233   0.996   3.022
 1514SOL    HW2 4547   3.119   1.099   3.078
 1515SOL     OW 4548   3.164   0.855   2.171
 1515SOL    HW1 4549   3.078   0.824   2.213
 1515SOL    HW2 4550   3.160   0.841   2.072
 1516SOL     OW 4551   3.621   1.747   3.016
 1516SOL    HW1 4552   3.682   1.777   2.943
 1516SOL    HW2 4553   3.583   1.658   2.994
 1517SOL     OW 4554   3.114   1.731   2.990
 1517SOL    HW1 4555   3.198   1.736   2.936
 1517SOL    HW2 4556   3.091   1.635   3.008
 1518SOL     OW 4557   1.945   1.258   2.884
 1518SOL    HW1 4558   1.940   1.257   2.984
 1518SOL    HW2 4559   1.862   1.217   2.846
 1519SOL     OW 4560   2.550   1.662   3.578
 1519SOL    HW1 4561   2.494   1.743   3.587
 1519SOL    HW2 4562   2.602   1.666   3.492
 1520SOL     OW 4563   3.588   0.135   2.385
 1520SOL    HW1 4564   3.661   0.118   2.318
 1520SOL    HW2 4565   3.557   0.048   2.423
 1521SOL     OW 4566   3.250   1.573   2.339
 1521SOL    HW1 4567   3.317   1.585   2.265
 1521SOL    HW2 4568   3.210   1.662   2.362
 1522SOL     OW 4569   1.992   1.794   3.713
 1522SOL    HW1 4570   1.951   1.720   3.766
 1522SOL    HW2 4571   2.056   1.845   3.771
 1523SOL     OW 4572   3.142   0.927   2.534
 1523SOL    HW1 4573   3.202   0.846   2.536
 1523SOL    HW2 4574   3.182   0.996   2.474
 1524SOL     OW 4575   2.692   1.273   3.284
 1524SOL    HW1 4576   2.687   1.306   3.379
 1524SOL    HW2 4577   2.606   1.292   3.238
 1525SOL     OW 4578   2.534   1.616   2.016
 1525SOL    HW1 4579   2.543   1.626   1.917
 1525SOL    HW2 4580   2.494   1.527   2.037
 1526SOL     OW 4581   3.512   1.720   3.256
 1526SOL    HW1 4582   3.565   1.730   3.172
 1526SOL    HW2 4583   3.485   1.810   3.290
 1527SOL     OW 4584   3.703   0.175   2.825
 1527SOL    HW1 4585   3.742   0.090   2.789
 1527SOL    HW2 4586   3.605   0.177   2.806
 1528SOL     OW 4587   2.125   0.326   2.582
 1528SOL    HW1 4588   2.046   0.377   2.548
 1528SOL    HW2 4589   2.116   0.311   2.680
 1529SOL     OW 4590   3.056   1.612   1.893
 1529SOL    HW1 4591   3.062   1.519   1.930
 1529SOL    HW2 4592   2.997   1.612   1.813
 1530SOL     OW 4593   2.684   1.002   3.234
 1530SOL    HW1 4594   2.724   1.001   3.142
 1530SOL    HW2 4595   2.694   1.094   3.274
 1531SOL     OW 4596   2.778   0.910   2.153
 1531SOL    HW1 4597   2.841   0.948   2.085
 1531SOL    HW2 4598   2.818   0.827   2.192
 1532SOL     OW 4599   3.366   1.607   1.906
 1532SOL    HW1 4600   3.274   1.644   1.913
 1532SOL    HW2 4601   3.404   1.627   1.816
 1533SOL     OW 4602   2.234   1.288   3.352
 1533SOL    HW1 4603   2.221   1.381   3.318
 1533SOL    HW2 4604   2.150   1.236   3.339
 1534SOL     OW 4605   3.476   1.292   3.151
 1534SOL    HW1 4606   3.536   1.295   3.231
 1534SOL    HW2 4607   3.401   1.356   3.164
 1535SOL     OW 4608   2.901   1.098   2.558
 1535SOL    HW1 4609   2.831   1.051   2.612
 1535SOL    HW2 4610   2.960   1.030   2.515
 1536SOL     OW 4611   2.876   0.236   2.833
 1536SOL    HW1 4612   2.868   0.200   2.740
 1536SOL    HW2 4613   2.874   0.160   2.898
 1537SOL     OW 4614   2.452   1.487   2.353
 1537SOL    HW1 4615   2.494   1.429   2.283
 1537SOL    HW2 4616   2.408   1.566   2.309
 1538SOL     OW 4617   3.571   0.385   3.243
 1538SOL    HW1 4618   3.644   0.454   3.247
 1538SOL    HW2 4619   3.599   0.310   3.184
 1539SOL     OW 4620   2.117   1.348   2.152
 1539SOL    HW1 4621   2.021   1.349   2.125
 1539SOL    HW2 4622   2.129   1.401   2.236
 1540SOL     OW 4623   1.967   1.013   3.588
 1540SOL    HW1 4624   1.890   0.980   3.642
 1540SOL    HW2 4625   2.052   0.983   3.630
 1541SOL     OW 4626   2.534   0.203   3.351
 1541SOL    HW1 4627   2.624   0.187   3.311
 1541SOL    HW2 4628   2.542   0.208   3.450
 1542SOL     OW 4629   1.937   0.345   1.895
 1542SOL    HW1 4630   1.845   0.317   1.866
 1542SOL    HW2 4631   1.968   0.422   1.839
 1543SOL     OW 4632   3.302   0.856   3.260
 1543SOL    HW1 4633   3.245   0.908   3.197
 1543SOL    HW2 4634   3.398   0.868   3.236
 1544SOL     OW 4635   1.934   0.166   2.180
 1544SOL    HW1 4636   1.917   0.249   2.126
 1544SOL    HW2 4637   2.024   0.129   2.158
 1545SOL     OW 4638   3.045   1.335   1.981
 1545SOL    HW1 4639   2.946   1.324   1.983
 1545SOL    HW2 4640   3.079   1.350   2.074
 1546SOL     OW 4641   2.475   0.842   3.293
 1546SOL    HW1 4642   2.531   0.923   3.276
 1546SOL    HW2 4643   2.534   0.762   3.296
 1547SOL     OW 4644   3.355   1.767   2.821
 1547SOL    HW1 4645   3.388   1.831   2.752
 1547SOL    HW2 4646   3.421   1.761   2.896
 1548SOL     OW 4647   2.578   0.565   3.570
 1548SOL    HW1 4648   2.597   0.630   3.644
 1548SOL    HW2 4649   2.638   0.485   3.579
 1549SOL     OW 4650   3.312   1.220   3.495
 1549SOL    HW1 4651   3.303   1.210   3.594
 1549SOL    HW2 4652   3.408   1.213   3.469
 1550SOL     OW 4653   2.252   1.741   3.422
 1550SOL    HW1 4654   2.161   1.782   3.420
 1550SOL    HW2 4655   2.245   1.647   3.454
 1551SOL     OW 4656   3.536   0.883   3.116
 1551SOL    HW1 4657   3.509   0.794   3.079
 1551SOL    HW2 4658   3.537   0.951   3.043
 1552SOL     OW 4659   3.087   0.325   2.311
 1552SOL    HW1 4660   3.152   0.251   2.300
 1552SOL    HW2 4661   3.107   0.375   2.395
 1553SOL     OW 4662   2.456   0.745   2.514
 1553SOL    HW1 4663   2.506   0.830   2.495
 1553SOL    HW2 4664   2.368   0.747   2.466
 1554SOL     OW 4665   3.639   0.342   3.504
 1554SOL    HW1 4666   3.622   0.373   3.410
 1554SOL    HW2 4667   3.555   0.305   3.542
 1555SOL     OW 4668   3.592   0.934   3.379
 1555SOL    HW1 4669   3.630   1.025   3.394
 1555SOL    HW2 4670   3.584   0.917   3.280
 1556SOL     OW 4671   2.721   1.374   1.878
 1556SOL    HW1 4672   2.675   1.389   1.966
 1556SOL    HW2 4673   2.765   1.459   1.848
 1557SOL     OW 4674   2.523   1.790   2.815
 1557SOL    HW1 4675   2.477   1.878   2.802
 1557SOL    HW2 4676   2.622   1.802   2.808
 1558SOL     OW 4677   2.721   0.956   2.723
 1558SOL    HW1 4678   2.775   0.887   2.771
 1558SOL    HW2 4679   2.689   1.025   2.789
 1559SOL     OW 4680   2.945   0.984   1.949
 1559SOL    HW1 4681   2.922   1.037   1.867
 1559SOL    HW2 4682   3.026   0.928   1.930
 1560SOL     OW 4683   3.723   1.569   2.713
 1560SOL    HW1 4684   3.652   1.557   2.643
 1560SOL    HW2 4685   3.724   1.490   2.773
 1561SOL     OW 4686   2.083   1.314   3.706
 1561SOL    HW1 4687   2.018   1.241   3.685
 1561SOL    HW2 4688   2.087   1.328   3.804
 1562SOL     OW 4689   1.941   1.240   2.515
 1562SOL    HW1 4690   1.940   1.193   2.603
 1562SOL    HW2 4691   2.023   1.212   2.464
 1563SOL     OW 4692   2.534   1.391   3.486
 1563SOL    HW1 4693   2.456   1.341   3.524
 1563SOL    HW2 4694   2.531   1.486   3.517
 1564SOL     OW 4695   3.686   0.192   3.089
 1564SOL    HW1 4696   3.682   0.102   3.133
 1564SOL    HW2 4697   3.689   0.181   2.990
 1565SOL     OW 4698   2.290   0.424   2.382
 1565SOL    HW1 4699   2.320   0.352   2.320
 1565SOL    HW2 4700   2.251   0.384   2.465
 1566SOL     OW 4701   3.567   1.487   2.966
 1566SOL    HW1 4702   3.474   1.462   2.939
 1566SOL    HW2 4703   3.593   1.437   3.048
 1567SOL     OW 4704   2.179   0.547   3.142
 1567SOL    HW1 4705   2.217   0.488   3.214
 1567SOL    HW2 4706   2.219   0.521   3.054
 1568SOL     OW 4707   2.674   1.586   2.549
 1568SOL    HW1 4708   2.706   1.596   2.455
 1568SOL    HW2 4709   2.595   1.524   2.551
 1569SOL     OW 4710   3.286   0.214   2.974
 1569SOL    HW1 4711   3.338   0.149   3.029
 1569SOL    HW2 4712   3.237   0.277   3.035
 1570SOL     OW 4713   2.863   0.034   3.016
 1570SOL    HW1 4714   2.800  -0.038   2.985
 1570SOL    HW2 4715   2.956  -0.002   3.016
 1571SOL     OW 4716   2.632   1.330   2.163
 1571SOL    HW1 4717   2.586   1.243   2.180
 1571SOL    HW2 4718   2.723   1.327   2.204
 1572SOL     OW 4719   2.480   1.567   3.146
 1572SOL    HW1 4720   2.475   1.649   3.203
 1572SOL    HW2 4721   2.569   1.564   3.101
 1573SOL     OW 4722   3.214   0.052   2.030
 1573SOL    HW1 4723   3.249   0.011   1.946
 1573SOL    HW2 4724   3.124   0.014   2.050
 1574SOL     OW 4725   3.162   0.453   2.553
 1574SOL    HW1 4726   3.103   0.533   2.557
 1574SOL    HW2 4727   3.177   0.418   2.646
 1575SOL     OW 4728   3.455   0.221   2.744
 1575SOL    HW1 4729   3.371   0.220   2.798
 1575SOL    HW2 4730   3.457   0.304   2.688
 1576SOL     OW 4731   1.901   1.077   2.162
 1576SOL    HW1 4732   2.000   1.066   2.153
 1576SOL    HW2 4733   1.861   0.991   2.194
 1577SOL     OW 4734   2.737   1.646   2.199
 1577SOL    HW1 4735   2.660   1.611   2.145
 1577SOL    HW2 4736   2.705   1.717   2.261
 1578SOL     OW 4737   2.092   0.628   3.837
 1578SOL    HW1 4738   1.999   0.626   3.874
 1578SOL    HW2 4739   2.093   0.589   3.745
 1579SOL     OW 4740   3.617   0.607   3.955
 1579SOL    HW1 4741   3.605   0.594   3.856
 1579SOL    HW2 4742   3.587   0.526   4.004
 1580SOL     OW 4743   2.093   1.713   4.207
 1580SOL    HW1 4744   2.127   1.790   4.261
 1580SOL    HW2 4745   2.137   1.713   4.117
 1581SOL     OW 4746   2.092   1.434   4.262
 1581SOL    HW1 4747   2.066   1.530   4.262
 1581SOL    HW2 4748   2.021   1.380   4.307
 1582SOL     OW 4749   2.468   0.964   3.847
 1582SOL    HW1 4750   2.475   1.048   3.793
 1582SOL    HW2 4751   2.514   0.977   3.935
 1583SOL     OW 4752   1.984   0.643   4.287
 1583SOL    HW1 4753   1.939   0.555   4.304
 1583SOL    HW2 4754   1.983   0.697   4.371
 1584SOL     OW 4755   3.704   1.767   4.083
 1584SOL    HW1 4756   3.758   1.738   4.163
 1584SOL    HW2 4757   3.734   1.857   4.054
 1585SOL     OW 4758   1.889   1.596   3.841
 1585SOL    HW1 4759   1.870   1.500   3.862
 1585SOL    HW2 4760   1.856   1.654   3.916
 1586SOL     OW 4761   3.551   0.922   4.336
 1586SOL    HW1 4762   3.646   0.893   4.344
 1586SOL    HW2 4763   3.543   0.987   4.261
 1587SOL     OW 4764   3.503   1.108   4.156
 1587SOL    HW1 4765   3.589   1.110   4.104
 1587SOL    HW2 4766   3.517   1.155   4.244
 1588SOL     OW 4767   2.671   0.004   4.226
 1588SOL    HW1 4768   2.711   0.095   4.217
 1588SOL    HW2 4769   2.571   0.012   4.232
 1589SOL     OW 4770   3.387   0.999   3.914
 1589SOL    HW1 4771   3.324   0.923   3.927
 1589SOL    HW2 4772   3.435   1.017   4.000
 1590SOL     OW 4773   2.460   0.729   3.994
 1590SOL    HW1 4774   2.484   0.798   3.926
 1590SOL    HW2 4775   2.382   0.762   4.048
 1591SOL     OW 4776   3.438   1.662   4.031
 1591SOL    HW1 4777   3.527   1.708   4.034
 1591SOL    HW2 4778   3.417   1.638   3.936
 1592SOL     OW 4779   2.903   0.701   4.153
 1592SOL    HW1 4780   2.929   0.697   4.249
 1592SOL    HW2 4781   2.818   0.650   4.139
 1593SOL     OW 4782   1.938   0.811   4.513
 1593SOL    HW1 4783   2.037   0.799   4.522
 1593SOL    HW2 4784   1.914   0.906   4.534
 1594SOL     OW 4785   2.727   0.348   3.919
 1594SOL    HW1 4786   2.786   0.411   3.870
 1594SOL    HW2 4787   2.746   0.254   3.890
 1595SOL     OW 4788   2.183   0.943   3.966
 1595SOL    HW1 4789   2.265   0.982   3.924
 1595SOL    HW2 4790   2.156   0.861   3.917
 1596SOL     OW 4791   2.973   1.776   3.961
 1596SOL    HW1 4792   2.913   1.714   4.011
 1596SOL    HW2 4793   3.004   1.732   3.876
 1597SOL     OW 4794   3.494   1.377   3.805
 1597SOL    HW1 4795   3.462   1.471   3.795
 1597SOL    HW2 4796   3.418   1.314   3.793
 1598SOL     OW 4797   2.326   1.743   4.047
 1598SOL    HW1 4798   2.359   1.782   4.133
 1598SOL    HW2 4799   2.402   1.736   3.982
 1599SOL     OW 4800   3.262   0.107   4.150
 1599SOL    HW1 4801   3.238   0.070   4.060
 1599SOL    HW2 4802   3.361   0.123   4.154
 1600SOL     OW 4803   2.244   0.700   4.204
 1600SOL    HW1 4804   2.289   0.610   4.201
 1600SOL    HW2 4805   2.150   0.689   4.237
 1601SOL     OW 4806   2.476   0.122   3.841
 1601SOL    HW1 4807   2.574   0.100   3.848
 1601SOL    HW2 4808   2.445   0.105   3.748
 1602SOL     OW 4809   2.401   0.064   4.236
 1602SOL    HW1 4810   2.320   0.065   4.294
 1602SOL    HW2 4811   2.404   0.147   4.181
 1603SOL     OW 4812   3.296   1.188   3.765
 1603SOL    HW1 4813   3.328   1.112   3.822
 1603SOL    HW2 4814   3.204   1.215   3.795
 1604SOL     OW 4815   2.159   0.035   3.895
 1604SOL    HW1 4816   2.208   0.119   3.874
 1604SOL    HW2 4817   2.221  -0.030   3.940
 1605SOL     OW 4818   2.797   0.236   4.204
 1605SOL    HW1 4819   2.749   0.277   4.126
 1605SOL    HW2 4820   2.896   0.234   4.185
 1606SOL     OW 4821   2.321   1.152   4.465
 1606SOL    HW1 4822   2.250   1.125   4.530
 1606SOL    HW2 4823   2.295   1.124   4.372
 1607SOL     OW 4824   3.133   1.797   4.315
 1607SOL    HW1 4825   3.177   1.861   4.251
 1607SOL    HW2 4826   3.083   1.849   4.385
 1608SOL     OW 4827   2.894   0.549   3.740
 1608SOL    HW1 4828   2.853   0.631   3.701
 1608SOL    HW2 4829   2.958   0.575   3.813
 1609SOL     OW 4830   2.728   0.454   4.366
 1609SOL    HW1 4831   2.696   0.526   4.304
 1609SOL    HW2 4832   2.752   0.373   4.313
 1610SOL     OW 4833   3.719   0.833   4.101
 1610SOL    HW1 4834   3.761   0.769   4.165
 1610SOL    HW2 4835   3.681   0.782   4.023
 1611SOL     OW 4836   2.350   1.385   3.898
 1611SOL    HW1 4837   2.263   1.370   3.945
 1611SOL    HW2 4838   2.333   1.411   3.803
 1612SOL     OW 4839   3.252   0.575   3.802
 1612SOL    HW1 4840   3.198   0.554   3.883
 1612SOL    HW2 4841   3.343   0.534   3.811
 1613SOL     OW 4842   2.389   0.256   4.052
 1613SOL    HW1 4843   2.416   0.197   3.977
 1613SOL    HW2 4844   2.389   0.351   4.021
 1614SOL     OW 4845   2.567   1.050   4.092
 1614SOL    HW1 4846   2.553   1.057   4.191
 1614SOL    HW2 4847   2.651   0.999   4.074
 1615SOL     OW 4848   2.229   1.100   4.225
 1615SOL    HW1 4849   2.222   1.183   4.169
 1615SOL    HW2 4850   2.233   1.020   4.165
 1616SOL     OW 4851   3.114   1.348   4.112
 1616SOL    HW1 4852   3.164   1.425   4.152
 1616SOL    HW2 4853   3.019   1.350   4.144
 1617SOL     OW 4854   3.444   0.639   4.196
 1617SOL    HW1 4855   3.413   0.700   4.269
 1617SOL    HW2 4856   3.494   0.691   4.127
 1618SOL     OW 4857   3.071   0.525   3.999
 1618SOL    HW1 4858   3.084   0.441   4.053
 1618SOL    HW2 4859   3.042   0.599   4.059
 1619SOL     OW 4860   3.484   0.367   4.098
 1619SOL    HW1 4861   3.486   0.291   4.162
 1619SOL    HW2 4862   3.436   0.444   4.138
 1620SOL     OW 4863   3.402   0.274   3.849
 1620SOL    HW1 4864   3.341   0.199   3.872
 1620SOL    HW2 4865   3.424   0.326   3.932
 1621SOL     OW 4866   3.165   0.838   3.766
 1621SOL    HW1 4867   3.199   0.745   3.781
 1621SOL    HW2 4868   3.183   0.865   3.671
 1622SOL     OW 4869   1.870   1.326   3.924
 1622SOL    HW1 4870   1.777   1.347   3.893
 1622SOL    HW2 4871   1.880   1.227   3.937
 1623SOL     OW 4872   2.677   0.572   4.049
 1623SOL    HW1 4873   2.684   0.483   4.003
 1623SOL    HW2 4874   2.583   0.606   4.041
 1624SOL     OW 4875   2.335   0.500   3.915
 1624SOL    HW1 4876   2.396   0.580   3.919
 1624SOL    HW2 4877   2.240   0.531   3.922
 1625SOL     OW 4878   3.164   0.855   4.033
 1625SOL    HW1 4879   3.078   0.824   4.075
 1625SOL    HW2 4880   3.160   0.841   3.934
 1626SOL     OW 4881   3.588   0.135   4.247
 1626SOL    HW1 4882   3.661   0.118   4.180
 1626SOL    HW2 4883   3.557   0.048   4.285
 1627SOL     OW 4884   3.250   1.573   4.201
 1627SOL    HW1 4885   3.317   1.585   4.127
 1627SOL    HW2 4886   3.210   1.662   4.224
 1628SOL     OW 4887   2.534   1.616   3.878
 1628SOL    HW1 4888   2.543   1.626   3.779
 1628SOL    HW2 4889   2.494   1.527   3.899
 1629SOL     OW 4890   3.056   1.612   3.755
 1629SOL    HW1 4891   3.062   1.519   3.792
 1629SOL    HW2 4892   2.997   1.612   3.675
 1630SOL     OW 4893   2.778   0.910   4.015
 1630SOL    HW1 4894   2.841   0.948   3.947
 1630SOL    HW2 4895   2.818   0.827   4.054
 1631SOL     OW 4896   3.366   1.607   3.768
 1631SOL    HW1 4897   3.274   1.644   3.775
 1631SOL    HW2 4898   3.404   1.627   3.678
 1632SOL     OW 4899   2.452   1.487   4.215
 1632SOL    HW1 4900   2.494   1.429   4.145
 1632SOL    HW2 4901   2.408   1.566   4.171
 1633SOL     OW 4902   2.117   1.348   4.014
 1633SOL    HW1 4903   2.021   1.349   3.987
 1633SOL    HW2 4904   2.129   1.401   4.098
 1634SOL     OW 4905   1.937   0.345   3.757
 1634SOL    HW1 4906   1.845   0.317   3.728
 1634SOL    HW2 4907   1.968   0.422   3.701
 1635SOL     OW 4908   1.934   0.166   4.042
 1635SOL    HW1 4909   1.917   0.249   3.988
 1635SOL    HW2 4910   2.024   0.129   4.020
 1636SOL     OW 4911   3.045   1.335   3.843
 1636SOL    HW1 4912   2.946   1.324   3.845
 1636SOL    HW2 4913   3.079   1.350   3.936
 1637SOL     OW 4914   3.087   0.325   4.173
 1637SOL    HW1 4915   3.152   0.251   4.162
 1637SOL    HW2 4916   3.107   0.375   4.257
 1638SOL     OW 4917   2.456   0.745   4.376
 1638SOL    HW1 4918   2.506   0.830   4.357
 1638SOL    HW2 4919   2.368   0.747   4.328
 1639SOL     OW 4920   2.721   1.374   3.740
 1639SOL    HW1 4921   2.675   1.389   3.828
 1639SOL    HW2 4922   2.765   1.459   3.710
 1640SOL     OW 4923   2.945   0.984   3.811
 1640SOL    HW1 4924   2.922   1.037   3.729
 1640SOL    HW2 4925   3.026   0.928   3.792
 1641SOL     OW 4926   2.290   0.424   4.244
 1641SOL    HW1 4927   2.320   0.352   4.182
 1641SOL    HW2 4928   2.251   0.384   4.327
 1642SOL     OW 4929   2.632   1.330   4.025
 1642SOL    HW1 4930   2.586   1.243   4.042
 1642SOL    HW2 4931   2.723   1.327   4.066
 1643SOL     OW 4932   3.214   0.052   3.892
 1643SOL    HW1 4933   3.249   0.011   3.808
 1643SOL    HW2 4934   3.124   0.014   3.912
 1644SOL     OW 4935   1.901   1.077   4.024
 1644SOL    HW1 4936   2.000   1.066   4.015
 1644SOL    HW2 4937   1.861   0.991   4.056
 1645SOL     OW 4938   2.737   1.646   4.061
 1645SOL    HW1 4939   2.660   1.611   4.007
 1645SOL    HW2 4940   2.705   1.717   4.123
 1646SOL     OW 4941   2.092   2.490   0.113
 1646SOL    HW1 4942   1.999   2.488   0.150
 1646SOL    HW2 4943   2.093   2.451   0.021
 1647SOL     OW 4944   2.087   2.137   0.996
 1647SOL    HW1 4945   2.122   2.120   1.088
 1647SOL    HW2 4946   1.999   2.092   0.984
 1648SOL     OW 4947   1.881   2.230   0.647
 1648SOL    HW1 4948   1.799   2.273   0.686
 1648SOL    HW2 4949   1.853   2.157   0.584
 1649SOL     OW 4950   2.431   3.137   1.165
 1649SOL    HW1 4951   2.338   3.130   1.128
 1649SOL    HW2 4952   2.442   3.226   1.209
 1650SOL     OW 4953   3.417   3.373   0.703
 1650SOL    HW1 4954   3.360   3.357   0.784
 1650SOL    HW2 4955   3.358   3.383   0.623
 1651SOL     OW 4956   2.997   2.565   0.717
 1651SOL    HW1 4957   3.054   2.643   0.692
 1651SOL    HW2 4958   2.937   2.591   0.793
 1652SOL     OW 4959   3.617   2.469   0.231
 1652SOL    HW1 4960   3.605   2.456   0.132
 1652SOL    HW2 4961   3.587   2.388   0.280
 1653SOL     OW 4962   2.630   3.006   1.023
 1653SOL    HW1 4963   2.552   3.023   1.083
 1653SOL    HW2 4964   2.664   3.093   0.987
 1654SOL     OW 4965   2.712   2.660   1.823
 1654SOL    HW1 4966   2.708   2.736   1.888
 1654SOL    HW2 4967   2.734   2.696   1.732
 1655SOL     OW 4968   2.547   2.874   0.665
 1655SOL    HW1 4969   2.616   2.858   0.735
 1655SOL    HW2 4970   2.474   2.931   0.703
 1656SOL     OW 4971   2.548   3.023   1.803
 1656SOL    HW1 4972   2.608   3.102   1.817
 1656SOL    HW2 4973   2.462   3.054   1.762
 1657SOL     OW 4974   2.197   3.297   1.061
 1657SOL    HW1 4975   2.119   3.266   1.008
 1657SOL    HW2 4976   2.255   3.355   1.004
 1658SOL     OW 4977   3.322   3.367   1.339
 1658SOL    HW1 4978   3.346   3.461   1.365
 1658SOL    HW2 4979   3.306   3.313   1.421
 1659SOL     OW 4980   2.300   2.254   1.499
 1659SOL    HW1 4981   2.382   2.198   1.508
 1659SOL    HW2 4982   2.219   2.196   1.503
 1660SOL     OW 4983   3.465   2.309   0.737
 1660SOL    HW1 4984   3.391   2.355   0.687
 1660SOL    HW2 4985   3.516   2.377   0.790
 1661SOL     OW 4986   2.093   3.575   0.483
 1661SOL    HW1 4987   2.127   3.652   0.537
 1661SOL    HW2 4988   2.137   3.575   0.393
 1662SOL     OW 4989   2.989   3.203   1.690
 1662SOL    HW1 4990   3.036   3.203   1.778
 1662SOL    HW2 4991   2.941   3.116   1.679
 1663SOL     OW 4992   2.092   3.296   0.538
 1663SOL    HW1 4993   2.066   3.392   0.538
 1663SOL    HW2 4994   2.021   3.242   0.583
 1664SOL     OW 4995   2.102   2.953   0.886
 1664SOL    HW1 4996   2.116   2.869   0.938
 1664SOL    HW2 4997   2.047   3.017   0.941
 1665SOL     OW 4998   2.482   3.648   1.439
 1665SOL    HW1 4999   2.390   3.631   1.474
 1665SOL    HW2 5000   2.510   3.740   1.465
 1666SOL     OW 5001   2.468   2.826   0.123
 1666SOL    HW1 5002   2.475   2.910   0.069
 1666SOL    HW2 5003   2.514   2.839   0.211
 1667SOL     OW 5004   3.456   1.976   1.480
 1667SOL    HW1 5005   3.438   2.043   1.408
 1667SOL    HW2 5006   3.453   2.022   1.569
 1668SOL     OW 5007   1.984   2.505   0.563
 1668SOL    HW1 5008   1.939   2.417   0.580
 1668SOL    HW2 5009   1.983   2.559   0.647
 1669SOL     OW 5010   3.704   3.629   0.359
 1669SOL    HW1 5011   3.758   3.600   0.439
 1669SOL    HW2 5012   3.734   3.719   0.330
 1670SOL     OW 5013   1.889   3.458   0.117
 1670SOL    HW1 5014   1.870   3.362   0.138
 1670SOL    HW2 5015   1.856   3.516   0.192
 1671SOL     OW 5016   3.551   2.784   0.612
 1671SOL    HW1 5017   3.646   2.755   0.620
 1671SOL    HW2 5018   3.543   2.849   0.537
 1672SOL     OW 5019   3.503   2.970   0.432
 1672SOL    HW1 5020   3.589   2.972   0.380
 1672SOL    HW2 5021   3.517   3.017   0.520
 1673SOL     OW 5022   1.975   2.599   1.597
 1673SOL    HW1 5023   2.063   2.586   1.642
 1673SOL    HW2 5024   1.962   2.696   1.575
 1674SOL     OW 5025   2.475   3.227   0.726
 1674SOL    HW1 5026   2.426   3.140   0.735
 1674SOL    HW2 5027   2.452   3.270   0.639
 1675SOL     OW 5028   3.155   3.090   1.423
 1675SOL    HW1 5029   3.192   3.017   1.365
 1675SOL    HW2 5030   3.207   3.095   1.508
 1676SOL     OW 5031   2.671   1.866   0.502
 1676SOL    HW1 5032   2.711   1.957   0.493
 1676SOL    HW2 5033   2.571   1.874   0.508
 1677SOL     OW 5034   2.059   2.838   1.264
 1677SOL    HW1 5035   2.148   2.793   1.250
 1677SOL    HW2 5036   1.986   2.773   1.245
 1678SOL     OW 5037   3.387   2.861   0.190
 1678SOL    HW1 5038   3.324   2.785   0.203
 1678SOL    HW2 5039   3.435   2.879   0.276
 1679SOL     OW 5040   3.049   3.654   1.616
 1679SOL    HW1 5041   3.073   3.714   1.540
 1679SOL    HW2 5042   3.056   3.559   1.586
 1680SOL     OW 5043   2.179   2.113   1.801
 1680SOL    HW1 5044   2.250   2.184   1.807
 1680SOL    HW2 5045   2.091   2.152   1.829
 1681SOL     OW 5046   3.328   3.279   0.953
 1681SOL    HW1 5047   3.269   3.285   1.033
 1681SOL    HW2 5048   3.313   3.191   0.907
 1682SOL     OW 5049   3.529   3.576   0.572
 1682SOL    HW1 5050   3.488   3.553   0.484
 1682SOL    HW2 5051   3.511   3.502   0.637
 1683SOL     OW 5052   2.460   2.591   0.270
 1683SOL    HW1 5053   2.484   2.660   0.202
 1683SOL    HW2 5054   2.382   2.624   0.324
 1684SOL     OW 5055   3.143   2.207   0.944
 1684SOL    HW1 5056   3.057   2.157   0.931
 1684SOL    HW2 5057   3.205   2.153   1.000
 1685SOL     OW 5058   3.438   3.524   0.307
 1685SOL    HW1 5059   3.527   3.570   0.310
 1685SOL    HW2 5060   3.417   3.500   0.212
 1686SOL     OW 5061   2.669   2.467   1.465
 1686SOL    HW1 5062   2.622   2.464   1.554
 1686SOL    HW2 5063   2.618   2.412   1.399
 1687SOL     OW 5064   3.256   2.331   1.674
 1687SOL    HW1 5065   3.236   2.374   1.762
 1687SOL    HW2 5066   3.334   2.269   1.683
 1688SOL     OW 5067   2.835   2.752   1.572
 1688SOL    HW1 5068   2.881   2.668   1.543
 1688SOL    HW2 5069   2.779   2.786   1.497
 1689SOL     OW 5070   2.853   2.272   1.242
 1689SOL    HW1 5071   2.776   2.306   1.296
 1689SOL    HW2 5072   2.819   2.221   1.163
 1690SOL     OW 5073   2.903   2.563   0.429
 1690SOL    HW1 5074   2.929   2.559   0.525
 1690SOL    HW2 5075   2.818   2.512   0.415
 1691SOL     OW 5076   1.938   2.673   0.789
 1691SOL    HW1 5077   2.037   2.661   0.798
 1691SOL    HW2 5078   1.914   2.768   0.810
 1692SOL     OW 5079   1.992   3.683   1.571
 1692SOL    HW1 5080   1.982   3.668   1.670
 1692SOL    HW2 5081   1.906   3.719   1.535
 1693SOL     OW 5082   2.727   2.210   0.195
 1693SOL    HW1 5083   2.786   2.273   0.146
 1693SOL    HW2 5084   2.746   2.116   0.166
 1694SOL     OW 5085   3.581   2.447   1.831
 1694SOL    HW1 5086   3.555   2.536   1.795
 1694SOL    HW2 5087   3.579   2.379   1.758
 1695SOL     OW 5088   3.224   3.006   0.545
 1695SOL    HW1 5089   3.307   2.977   0.497
 1695SOL    HW2 5090   3.175   3.073   0.489
 1696SOL     OW 5091   2.412   2.058   0.885
 1696SOL    HW1 5092   2.407   2.053   0.985
 1696SOL    HW2 5093   2.414   2.154   0.856
 1697SOL     OW 5094   2.870   3.318   0.477
 1697SOL    HW1 5095   2.824   3.390   0.425
 1697SOL    HW2 5096   2.866   3.338   0.575
 1698SOL     OW 5097   2.213   3.663   0.853
 1698SOL    HW1 5098   2.263   3.577   0.859
 1698SOL    HW2 5099   2.278   3.740   0.850
 1699SOL     OW 5100   3.657   2.928   0.873
 1699SOL    HW1 5101   3.595   2.913   0.797
 1699SOL    HW2 5102   3.605   2.939   0.958
 1700SOL     OW 5103   3.089   3.412   1.506
 1700SOL    HW1 5104   3.095   3.335   1.570
 1700SOL    HW2 5105   3.037   3.386   1.426
 1701SOL     OW 5106   2.183   2.805   0.242
 1701SOL    HW1 5107   2.265   2.844   0.200
 1701SOL    HW2 5108   2.156   2.723   0.193
 1702SOL     OW 5109   3.320   2.597   0.728
 1702SOL    HW1 5110   3.315   2.532   0.803
 1702SOL    HW2 5111   3.400   2.656   0.741
 1703SOL     OW 5112   2.323   3.128   1.727
 1703SOL    HW1 5113   2.273   3.129   1.641
 1703SOL    HW2 5114   2.260   3.110   1.803
 1704SOL     OW 5115   2.973   3.638   0.237
 1704SOL    HW1 5116   2.913   3.576   0.287
 1704SOL    HW2 5117   3.004   3.594   0.152
 1705SOL     OW 5118   2.064   2.147   1.498
 1705SOL    HW1 5119   1.984   2.207   1.485
 1705SOL    HW2 5120   2.054   2.098   1.584
 1706SOL     OW 5121   3.494   3.239   0.081
 1706SOL    HW1 5122   3.462   3.333   0.071
 1706SOL    HW2 5123   3.418   3.176   0.069
 1707SOL     OW 5124   2.326   3.605   0.323
 1707SOL    HW1 5125   2.359   3.644   0.409
 1707SOL    HW2 5126   2.402   3.598   0.258
 1708SOL     OW 5127   3.262   1.969   0.426
 1708SOL    HW1 5128   3.238   1.932   0.336
 1708SOL    HW2 5129   3.361   1.985   0.430
 1709SOL     OW 5130   2.111   3.647   1.241
 1709SOL    HW1 5131   2.168   3.582   1.291
 1709SOL    HW2 5132   2.095   3.614   1.148
 1710SOL     OW 5133   2.802   3.560   0.904
 1710SOL    HW1 5134   2.882   3.503   0.925
 1710SOL    HW2 5135   2.753   3.520   0.827
 1711SOL     OW 5136   2.244   2.562   0.480
 1711SOL    HW1 5137   2.289   2.472   0.477
 1711SOL    HW2 5138   2.150   2.551   0.513
 1712SOL     OW 5139   3.409   2.084   1.729
 1712SOL    HW1 5140   3.404   2.121   1.821
 1712SOL    HW2 5141   3.337   2.015   1.717
 1713SOL     OW 5142   2.476   1.984   0.117
 1713SOL    HW1 5143   2.574   1.962   0.124
 1713SOL    HW2 5144   2.445   1.967   0.024
 1714SOL     OW 5145   2.643   2.126   1.749
 1714SOL    HW1 5146   2.710   2.065   1.792
 1714SOL    HW2 5147   2.570   2.145   1.814
 1715SOL     OW 5148   2.750   3.376   1.195
 1715SOL    HW1 5149   2.727   3.351   1.101
 1715SOL    HW2 5150   2.811   3.307   1.234
 1716SOL     OW 5151   3.213   2.452   1.433
 1716SOL    HW1 5152   3.241   2.409   1.518
 1716SOL    HW2 5153   3.238   2.548   1.434
 1717SOL     OW 5154   2.665   3.264   0.924
 1717SOL    HW1 5155   2.755   3.278   0.882
 1717SOL    HW2 5156   2.594   3.266   0.853
 1718SOL     OW 5157   2.784   2.365   0.899
 1718SOL    HW1 5158   2.759   2.356   0.803
 1718SOL    HW2 5159   2.832   2.283   0.930
 1719SOL     OW 5160   2.401   1.926   0.512
 1719SOL    HW1 5161   2.320   1.927   0.570
 1719SOL    HW2 5162   2.404   2.009   0.457
 1720SOL     OW 5163   3.296   3.050   0.041
 1720SOL    HW1 5164   3.328   2.974   0.098
 1720SOL    HW2 5165   3.204   3.077   0.071
 1721SOL     OW 5166   2.159   1.897   0.171
 1721SOL    HW1 5167   2.208   1.981   0.150
 1721SOL    HW2 5168   2.221   1.832   0.216
 1722SOL     OW 5169   2.797   2.098   0.480
 1722SOL    HW1 5170   2.749   2.139   0.402
 1722SOL    HW2 5171   2.896   2.096   0.461
 1723SOL     OW 5172   2.938   2.545   1.464
 1723SOL    HW1 5173   2.858   2.484   1.467
 1723SOL    HW2 5174   3.019   2.492   1.440
 1724SOL     OW 5175   3.089   3.432   0.793
 1724SOL    HW1 5176   3.110   3.506   0.728
 1724SOL    HW2 5177   3.157   3.432   0.866
 1725SOL     OW 5178   2.321   3.014   0.741
 1725SOL    HW1 5179   2.250   2.987   0.806
 1725SOL    HW2 5180   2.295   2.986   0.648
 1726SOL     OW 5181   3.133   3.659   0.591
 1726SOL    HW1 5182   3.177   3.723   0.527
 1726SOL    HW2 5183   3.083   3.711   0.661
 1727SOL     OW 5184   2.894   2.411   0.016
 1727SOL    HW1 5185   2.853   2.493  -0.023
 1727SOL    HW2 5186   2.958   2.437   0.089
 1728SOL     OW 5187   1.940   2.418   1.386
 1728SOL    HW1 5188   2.032   2.417   1.345
 1728SOL    HW2 5189   1.934   2.492   1.453
 1729SOL     OW 5190   2.423   2.084   1.147
 1729SOL    HW1 5191   2.461   2.000   1.184
 1729SOL    HW2 5192   2.335   2.103   1.191
 1730SOL     OW 5193   2.728   2.316   0.642
 1730SOL    HW1 5194   2.696   2.388   0.580
 1730SOL    HW2 5195   2.752   2.235   0.589
 1731SOL     OW 5196   2.879   1.901   0.753
 1731SOL    HW1 5197   2.807   1.906   0.684
 1731SOL    HW2 5198   2.855   1.832   0.822
 1732SOL     OW 5199   3.291   3.035   0.867
 1732SOL    HW1 5200   3.236   2.951   0.860
 1732SOL    HW2 5201   3.317   3.064   0.775
 1733SOL     OW 5202   3.328   2.452   0.992
 1733SOL    HW1 5203   3.298   2.357   0.999
 1733SOL    HW2 5204   3.401   2.468   1.058
 1734SOL     OW 5205   3.719   2.695   0.377
 1734SOL    HW1 5206   3.761   2.631   0.441
 1734SOL    HW2 5207   3.681   2.644   0.299
 1735SOL     OW 5208   2.350   3.247   0.174
 1735SOL    HW1 5209   2.263   3.232   0.221
 1735SOL    HW2 5210   2.333   3.273   0.079
 1736SOL     OW 5211   3.526   3.142   0.657
 1736SOL    HW1 5212   3.625   3.150   0.671
 1736SOL    HW2 5213   3.481   3.226   0.688
 1737SOL     OW 5214   3.252   2.437   0.078
 1737SOL    HW1 5215   3.198   2.416   0.159
 1737SOL    HW2 5216   3.343   2.396   0.087
 1738SOL     OW 5217   2.389   2.118   0.328
 1738SOL    HW1 5218   2.416   2.059   0.253
 1738SOL    HW2 5219   2.389   2.213   0.297
 1739SOL     OW 5220   3.616   3.085   1.588
 1739SOL    HW1 5221   3.707   3.046   1.575
 1739SOL    HW2 5222   3.624   3.181   1.612
 1740SOL     OW 5223   2.926   3.209   1.340
 1740SOL    HW1 5224   2.846   3.186   1.395
 1740SOL    HW2 5225   3.009   3.183   1.389
 1741SOL     OW 5226   3.454   3.491   1.625
 1741SOL    HW1 5227   3.481   3.525   1.535
 1741SOL    HW2 5228   3.533   3.453   1.671
 1742SOL     OW 5229   2.973   3.057   1.100
 1742SOL    HW1 5230   2.933   3.101   1.181
 1742SOL    HW2 5231   2.932   3.094   1.017
 1743SOL     OW 5232   3.500   2.961   1.079
 1743SOL    HW1 5233   3.505   3.042   1.138
 1743SOL    HW2 5234   3.414   2.963   1.028
 1744SOL     OW 5235   2.777   1.951   1.402
 1744SOL    HW1 5236   2.802   1.931   1.307
 1744SOL    HW2 5237   2.849   2.007   1.444
 1745SOL     OW 5238   2.842   2.978   1.719
 1745SOL    HW1 5239   2.743   2.984   1.729
 1745SOL    HW2 5240   2.865   2.898   1.663
 1746SOL     OW 5241   2.567   2.912   0.368
 1746SOL    HW1 5242   2.553   2.919   0.467
 1746SOL    HW2 5243   2.651   2.861   0.350
 1747SOL     OW 5244   2.272   2.675   1.251
 1747SOL    HW1 5245   2.358   2.687   1.301
 1747SOL    HW2 5246   2.230   2.588   1.278
 1748SOL     OW 5247   3.136   2.248   1.262
 1748SOL    HW1 5248   3.157   2.322   1.326
 1748SOL    HW2 5249   3.047   2.265   1.219
 1749SOL     OW 5250   1.926   3.426   1.331
 1749SOL    HW1 5251   1.880   3.508   1.297
 1749SOL    HW2 5252   2.024   3.445   1.340
 1750SOL     OW 5253   2.229   2.962   0.501
 1750SOL    HW1 5254   2.222   3.045   0.445
 1750SOL    HW2 5255   2.233   2.882   0.441
 1751SOL     OW 5256   2.428   2.399   0.865
 1751SOL    HW1 5257   2.440   2.465   0.791
 1751SOL    HW2 5258   2.474   2.433   0.948
 1752SOL     OW 5259   3.114   3.210   0.388
 1752SOL    HW1 5260   3.164   3.287   0.428
 1752SOL    HW2 5261   3.019   3.212   0.420
 1753SOL     OW 5262   3.134   3.307   1.142
 1753SOL    HW1 5263   3.181   3.320   1.229
 1753SOL    HW2 5264   3.068   3.233   1.151
 1754SOL     OW 5265   3.444   2.501   0.472
 1754SOL    HW1 5266   3.413   2.562   0.545
 1754SOL    HW2 5267   3.494   2.553   0.403
 1755SOL     OW 5268   2.216   3.372   1.329
 1755SOL    HW1 5269   2.195   3.328   1.242
 1755SOL    HW2 5270   2.313   3.398   1.332
 1756SOL     OW 5271   2.264   2.613   1.598
 1756SOL    HW1 5272   2.332   2.668   1.551
 1756SOL    HW2 5273   2.304   2.525   1.625
 1757SOL     OW 5274   3.449   2.641   1.670
 1757SOL    HW1 5275   3.357   2.679   1.665
 1757SOL    HW2 5276   3.509   2.688   1.605
 1758SOL     OW 5277   2.875   1.967   1.770
 1758SOL    HW1 5278   2.881   2.052   1.718
 1758SOL    HW2 5279   2.907   1.891   1.713
 1759SOL     OW 5280   2.366   1.912   1.740
 1759SOL    HW1 5281   2.324   1.855   1.670
 1759SOL    HW2 5282   2.300   1.981   1.772
 1760SOL     OW 5283   2.435   2.732   1.029
 1760SOL    HW1 5284   2.479   2.821   1.020
 1760SOL    HW2 5285   2.372   2.732   1.106
 1761SOL     OW 5286   3.222   2.724   1.045
 1761SOL    HW1 5287   3.147   2.724   0.979
 1761SOL    HW2 5288   3.259   2.632   1.054
 1762SOL     OW 5289   3.071   2.387   0.275
 1762SOL    HW1 5290   3.084   2.303   0.329
 1762SOL    HW2 5291   3.042   2.461   0.335
 1763SOL     OW 5292   2.169   2.075   1.231
 1763SOL    HW1 5293   2.146   2.112   1.321
 1763SOL    HW2 5294   2.139   1.980   1.225
 1764SOL     OW 5295   1.899   3.172   1.282
 1764SOL    HW1 5296   1.952   3.123   1.350
 1764SOL    HW2 5297   1.921   3.270   1.287
 1765SOL     OW 5298   2.594   2.496   1.064
 1765SOL    HW1 5299   2.653   2.470   0.988
 1765SOL    HW2 5300   2.566   2.592   1.053
 1766SOL     OW 5301   3.590   2.797   1.854
 1766SOL    HW1 5302   3.544   2.790   1.765
 1766SOL    HW2 5303   3.528   2.841   1.920
 1767SOL     OW 5304   2.169   1.925   0.618
 1767SOL    HW1 5305   2.158   2.019   0.651
 1767SOL    HW2 5306   2.164   1.862   0.695
 1768SOL     OW 5307   3.484   2.229   0.374
 1768SOL    HW1 5308   3.486   2.153   0.438
 1768SOL    HW2 5309   3.436   2.306   0.414
 1769SOL     OW 5310   2.885   2.628   0.966
 1769SOL    HW1 5311   2.900   2.649   1.062
 1769SOL    HW2 5312   2.855   2.533   0.957
 1770SOL     OW 5313   2.842   3.435   1.700
 1770SOL    HW1 5314   2.822   3.479   1.612
 1770SOL    HW2 5315   2.881   3.344   1.684
 1771SOL     OW 5316   3.721   3.380   1.605
 1771SOL    HW1 5317   3.735   3.407   1.510
 1771SOL    HW2 5318   3.804   3.402   1.658
 1772SOL     OW 5319   2.212   2.760   1.804
 1772SOL    HW1 5320   2.288   2.804   1.852
 1772SOL    HW2 5321   2.247   2.713   1.722
 1773SOL     OW 5322   3.402   2.136   0.125
 1773SOL    HW1 5323   3.341   2.061   0.148
 1773SOL    HW2 5324   3.424   2.188   0.208
 1774SOL     OW 5325   3.165   2.700   0.042
 1774SOL    HW1 5326   3.199   2.607   0.057
 1774SOL    HW2 5327   3.183   2.727  -0.053
 1775SOL     OW 5328   2.930   3.195   0.849
 1775SOL    HW1 5329   2.937   3.111   0.794
 1775SOL    HW2 5330   2.992   3.264   0.813
 1776SOL     OW 5331   2.181   2.672   0.949
 1776SOL    HW1 5332   2.274   2.708   0.954
 1776SOL    HW2 5333   2.175   2.587   1.001
 1777SOL     OW 5334   2.201   2.371   1.006
 1777SOL    HW1 5335   2.149   2.288   0.989
 1777SOL    HW2 5336   2.278   2.376   0.942
 1778SOL     OW 5337   3.000   2.242   1.678
 1778SOL    HW1 5338   2.955   2.305   1.742
 1778SOL    HW2 5339   3.093   2.273   1.661
 1779SOL     OW 5340   3.022   2.069   1.477
 1779SOL    HW1 5341   3.022   2.133   1.554
 1779SOL    HW2 5342   3.050   2.117   1.394
 1780SOL     OW 5343   1.870   3.188   0.200
 1780SOL    HW1 5344   1.777   3.209   0.169
 1780SOL    HW2 5345   1.880   3.089   0.213
 1781SOL     OW 5346   1.950   3.663   0.927
 1781SOL    HW1 5347   1.908   3.577   0.900
 1781SOL    HW2 5348   2.044   3.666   0.893
 1782SOL     OW 5349   2.366   3.430   0.910
 1782SOL    HW1 5350   2.432   3.504   0.919
 1782SOL    HW2 5351   2.410   3.351   0.868
 1783SOL     OW 5352   2.864   2.658   1.238
 1783SOL    HW1 5353   2.905   2.626   1.324
 1783SOL    HW2 5354   2.768   2.631   1.235
 1784SOL     OW 5355   1.902   2.406   1.114
 1784SOL    HW1 5356   1.987   2.373   1.073
 1784SOL    HW2 5357   1.915   2.421   1.212
 1785SOL     OW 5358   2.051   2.382   1.722
 1785SOL    HW1 5359   2.110   2.342   1.652
 1785SOL    HW2 5360   1.993   2.453   1.681
 1786SOL     OW 5361   3.231   2.812   1.660
 1786SOL    HW1 5362   3.270   2.901   1.680
 1786SOL    HW2 5363   3.241   2.792   1.563
 1787SOL     OW 5364   2.677   2.434   0.325
 1787SOL    HW1 5365   2.684   2.345   0.279
 1787SOL    HW2 5366   2.583   2.468   0.317
 1788SOL     OW 5367   3.519   2.466   1.206
 1788SOL    HW1 5368   3.481   2.397   1.268
 1788SOL    HW2 5369   3.601   2.430   1.162
 1789SOL     OW 5370   2.114   3.426   1.744
 1789SOL    HW1 5371   2.084   3.483   1.820
 1789SOL    HW2 5372   2.107   3.329   1.770
 1790SOL     OW 5373   2.533   2.326   1.269
 1790SOL    HW1 5374   2.499   2.237   1.239
 1790SOL    HW2 5375   2.559   2.380   1.189
 1791SOL     OW 5376   2.792   3.540   1.465
 1791SOL    HW1 5377   2.768   3.522   1.370
 1791SOL    HW2 5378   2.822   3.634   1.475
 1792SOL     OW 5379   2.335   2.362   0.191
 1792SOL    HW1 5380   2.396   2.442   0.195
 1792SOL    HW2 5381   2.240   2.393   0.198
 1793SOL     OW 5382   2.021   2.999   1.466
 1793SOL    HW1 5383   2.043   2.938   1.542
 1793SOL    HW2 5384   2.031   2.950   1.380
 1794SOL     OW 5385   3.209   2.921   1.234
 1794SOL    HW1 5386   3.233   2.858   1.160
 1794SOL    HW2 5387   3.119   2.961   1.216
 1795SOL     OW 5388   3.164   2.717   0.309
 1795SOL    HW1 5389   3.078   2.686   0.351
 1795SOL    HW2 5390   3.160   2.703   0.210
 1796SOL     OW 5391   3.621   3.609   1.154
 1796SOL    HW1 5392   3.682   3.639   1.081
 1796SOL    HW2 5393   3.583   3.520   1.132
 1797SOL     OW 5394   3.114   3.593   1.128
 1797SOL    HW1 5395   3.198   3.598   1.074
 1797SOL    HW2 5396   3.091   3.497   1.146
 1798SOL     OW 5397   1.945   3.120   1.022
 1798SOL    HW1 5398   1.940   3.119   1.122
 1798SOL    HW2 5399   1.862   3.079   0.984
 1799SOL     OW 5400   2.550   3.524   1.716
 1799SOL    HW1 5401   2.494   3.605   1.725
 1799SOL    HW2 5402   2.602   3.528   1.630
 1800SOL     OW 5403   2.765   1.948   0.133
 1800SOL    HW1 5404   2.816   1.949   0.047
 1800SOL    HW2 5405   2.821   1.906   0.204
 1801SOL     OW 5406   3.588   1.997   0.523
 1801SOL    HW1 5407   3.661   1.980   0.456
 1801SOL    HW2 5408   3.557   1.910   0.561
 1802SOL     OW 5409   3.250   3.435   0.477
 1802SOL    HW1 5410   3.317   3.447   0.403
 1802SOL    HW2 5411   3.210   3.524   0.500
 1803SOL     OW 5412   1.992   3.656   1.851
 1803SOL    HW1 5413   1.951   3.582   1.904
 1803SOL    HW2 5414   2.056   3.707   1.909
 1804SOL     OW 5415   3.142   2.789   0.672
 1804SOL    HW1 5416   3.202   2.708   0.674
 1804SOL    HW2 5417   3.182   2.858   0.612
 1805SOL     OW 5418   2.692   3.135   1.422
 1805SOL    HW1 5419   2.687   3.168   1.517
 1805SOL    HW2 5420   2.606   3.154   1.376
 1806SOL     OW 5421   2.534   3.478   0.154
 1806SOL    HW1 5422   2.543   3.488   0.055
 1806SOL    HW2 5423   2.494   3.389   0.175
 1807SOL     OW 5424   3.512   3.582   1.394
 1807SOL    HW1 5425   3.565   3.592   1.310
 1807SOL    HW2 5426   3.485   3.672   1.428
 1808SOL     OW 5427   3.703   2.037   0.963
 1808SOL    HW1 5428   3.742   1.952   0.927
 1808SOL    HW2 5429   3.605   2.039   0.944
 1809SOL     OW 5430   2.125   2.188   0.720
 1809SOL    HW1 5431   2.046   2.239   0.686
 1809SOL    HW2 5432   2.116   2.173   0.818
 1810SOL     OW 5433   3.056   3.474   0.031
 1810SOL    HW1 5434   3.062   3.381   0.068
 1810SOL    HW2 5435   2.997   3.474  -0.049
 1811SOL     OW 5436   2.684   2.864   1.372
 1811SOL    HW1 5437   2.724   2.863   1.280
 1811SOL    HW2 5438   2.694   2.956   1.412
 1812SOL     OW 5439   2.778   2.772   0.291
 1812SOL    HW1 5440   2.841   2.810   0.223
 1812SOL    HW2 5441   2.818   2.689   0.330
 1813SOL     OW 5442   3.366   3.469   0.044
 1813SOL    HW1 5443   3.274   3.506   0.051
 1813SOL    HW2 5444   3.404   3.489  -0.046
 1814SOL     OW 5445   2.234   3.150   1.490
 1814SOL    HW1 5446   2.221   3.243   1.456
 1814SOL    HW2 5447   2.150   3.098   1.477
 1815SOL     OW 5448   3.476   3.154   1.289
 1815SOL    HW1 5449   3.536   3.157   1.369
 1815SOL    HW2 5450   3.401   3.218   1.302
 1816SOL     OW 5451   2.901   2.960   0.696
 1816SOL    HW1 5452   2.831   2.913   0.750
 1816SOL    HW2 5453   2.960   2.892   0.653
 1817SOL     OW 5454   2.876   2.098   0.971
 1817SOL    HW1 5455   2.868   2.062   0.878
 1817SOL    HW2 5456   2.874   2.022   1.036
 1818SOL     OW 5457   2.452   3.349   0.491
 1818SOL    HW1 5458   2.494   3.291   0.421
 1818SOL    HW2 5459   2.408   3.428   0.447
 1819SOL     OW 5460   3.571   2.247   1.381
 1819SOL    HW1 5461   3.644   2.316   1.385
 1819SOL    HW2 5462   3.599   2.172   1.322
 1820SOL     OW 5463   2.117   3.210   0.290
 1820SOL    HW1 5464   2.021   3.211   0.263
 1820SOL    HW2 5465   2.129   3.263   0.374
 1821SOL     OW 5466   1.967   2.875   1.726
 1821SOL    HW1 5467   1.890   2.842   1.780
 1821SOL    HW2 5468   2.052   2.845   1.768
 1822SOL     OW 5469   2.534   2.065   1.489
 1822SOL    HW1 5470   2.624   2.049   1.449
 1822SOL    HW2 5471   2.542   2.070   1.588
 1823SOL     OW 5472   1.937   2.207   0.033
 1823SOL    HW1 5473   1.845   2.179   0.004
 1823SOL    HW2 5474   1.968   2.284  -0.023
 1824SOL     OW 5475   3.302   2.718   1.398
 1824SOL    HW1 5476   3.245   2.770   1.335
 1824SOL    HW2 5477   3.398   2.730   1.374
 1825SOL     OW 5478   1.934   2.028   0.318
 1825SOL    HW1 5479   1.917   2.111   0.264
 1825SOL    HW2 5480   2.024   1.991   0.296
 1826SOL     OW 5481   3.045   3.197   0.119
 1826SOL    HW1 5482   2.946   3.186   0.121
 1826SOL    HW2 5483   3.079   3.212   0.212
 1827SOL     OW 5484   2.475   2.704   1.431
 1827SOL    HW1 5485   2.531   2.785   1.414
 1827SOL    HW2 5486   2.534   2.624   1.434
 1828SOL     OW 5487   3.355   3.629   0.959
 1828SOL    HW1 5488   3.388   3.693   0.890
 1828SOL    HW2 5489   3.421   3.623   1.034
 1829SOL     OW 5490   2.578   2.427   1.708
 1829SOL    HW1 5491   2.597   2.492   1.782
 1829SOL    HW2 5492   2.638   2.347   1.717
 1830SOL     OW 5493   3.312   3.082   1.633
 1830SOL    HW1 5494   3.303   3.072   1.732
 1830SOL    HW2 5495   3.408   3.075   1.607
 1831SOL     OW 5496   2.252   3.603   1.560
 1831SOL    HW1 5497   2.161   3.644   1.558
 1831SOL    HW2 5498   2.245   3.509   1.592
 1832SOL     OW 5499   3.536   2.745   1.254
 1832SOL    HW1 5500   3.509   2.656   1.217
 1832SOL    HW2 5501   3.537   2.813   1.181
 1833SOL     OW 5502   3.087   2.187   0.449
 1833SOL    HW1 5503   3.152   2.113   0.438
 1833SOL    HW2 5504   3.107   2.237   0.533
 1834SOL     OW 5505   2.456   2.607   0.652
 1834SOL    HW1 5506   2.506   2.692   0.633
 1834SOL    HW2 5507   2.368   2.609   0.604
 1835SOL     OW 5508   3.639   2.204   1.642
 1835SOL    HW1 5509   3.622   2.235   1.548
 1835SOL    HW2 5510   3.555   2.167   1.680
 1836SOL     OW 5511   3.592   2.796   1.517
 1836SOL    HW1 5512   3.630   2.887   1.532
 1836SOL    HW2 5513   3.584   2.779   1.418
 1837SOL     OW 5514   2.721   3.236   0.016
 1837SOL    HW1 5515   2.675   3.251   0.104
 1837SOL    HW2 5516   2.765   3.321  -0.014
 1838SOL     OW 5517   2.523   3.652   0.953
 1838SOL    HW1 5518   2.477   3.740   0.940
 1838SOL    HW2 5519   2.622   3.664   0.946
 1839SOL     OW 5520   2.721   2.818   0.861
 1839SOL    HW1 5521   2.775   2.749   0.909
 1839SOL    HW2 5522   2.689   2.887   0.927
 1840SOL     OW 5523   2.945   2.846   0.087
 1840SOL    HW1 5524   2.922   2.899   0.005
 1840SOL    HW2 5525   3.026   2.790   0.068
 1841SOL     OW 5526   3.723   3.431   0.851
 1841SOL    HW1 5527   3.652   3.419   0.781
 1841SOL    HW2 5528   3.724   3.352   0.911
 1842SOL     OW 5529   2.083   3.176   1.844
 1842SOL    HW1 5530   2.018   3.103   1.823
 1842SOL    HW2 5531   2.087   3.190   1.942
 1843SOL     OW 5532   1.941   3.102   0.653
 1843SOL    HW1 5533   1.940   3.055   0.741
 1843SOL    HW2 5534   2.023   3.074   0.602
 1844SOL     OW 5535   2.534   3.253   1.624
 1844SOL    HW1 5536   2.456   3.203   1.662
 1844SOL    HW2 5537   2.531   3.348   1.655
 1845SOL     OW 5538   3.686   2.054   1.227
 1845SOL    HW1 5539   3.682   1.964   1.271
 1845SOL    HW2 5540   3.689   2.043   1.128
 1846SOL     OW 5541   2.290   2.286   0.520
 1846SOL    HW1 5542   2.320   2.214   0.458
 1846SOL    HW2 5543   2.251   2.246   0.603
 1847SOL     OW 5544   3.567   3.349   1.104
 1847SOL    HW1 5545   3.474   3.324   1.077
 1847SOL    HW2 5546   3.593   3.299   1.186
 1848SOL     OW 5547   2.179   2.409   1.280
 1848SOL    HW1 5548   2.217   2.350   1.352
 1848SOL    HW2 5549   2.219   2.383   1.192
 1849SOL     OW 5550   2.674   3.448   0.687
 1849SOL    HW1 5551   2.706   3.458   0.593
 1849SOL    HW2 5552   2.595   3.386   0.689
 1850SOL     OW 5553   3.286   2.076   1.112
 1850SOL    HW1 5554   3.338   2.011   1.167
 1850SOL    HW2 5555   3.237   2.139   1.173
 1851SOL     OW 5556   2.863   1.896   1.154
 1851SOL    HW1 5557   2.800   1.824   1.123
 1851SOL    HW2 5558   2.956   1.860   1.154
 1852SOL     OW 5559   2.632   3.192   0.301
 1852SOL    HW1 5560   2.586   3.105   0.318
 1852SOL    HW2 5561   2.723   3.189   0.342
 1853SOL     OW 5562   2.480   3.429   1.284
 1853SOL    HW1 5563   2.475   3.511   1.341
 1853SOL    HW2 5564   2.569   3.426   1.239
 1854SOL     OW 5565   3.214   1.914   0.168
 1854SOL    HW1 5566   3.249   1.873   0.084
 1854SOL    HW2 5567   3.124   1.876   0.188
 1855SOL     OW 5568   3.162   2.315   0.691
 1855SOL    HW1 5569   3.103   2.395   0.695
 1855SOL    HW2 5570   3.177   2.280   0.784
 1856SOL     OW 5571   3.455   2.083   0.882
 1856SOL    HW1 5572   3.371   2.082   0.936
 1856SOL    HW2 5573   3.457   2.166   0.826
 1857SOL     OW 5574   1.901   2.939   0.300
 1857SOL    HW1 5575   2.000   2.928   0.291
 1857SOL    HW2 5576   1.861   2.853   0.332
 1858SOL     OW 5577   2.737   3.508   0.337
 1858SOL    HW1 5578   2.660   3.473   0.283
 1858SOL    HW2 5579   2.705   3.579   0.399
 1859SOL     OW 5580   2.092   2.490   1.975
 1859SOL    HW1 5581   1.999   2.488   2.012
 1859SOL    HW2 5582   2.093   2.451   1.883
 1860SOL     OW 5583   2.087   2.137   2.858
 1860SOL    HW1 5584   2.122   2.120   2.950
 1860SOL    HW2 5585   1.999   2.092   2.846
 1861SOL     OW 5586   1.881   2.230   2.509
 1861SOL    HW1 5587   1.799   2.273   2.548
 1861SOL    HW2 5588   1.853   2.157   2.446
 1862SOL     OW 5589   2.431   3.137   3.027
 1862SOL    HW1 5590   2.338   3.130   2.990
 1862SOL    HW2 5591   2.442   3.226   3.071
 1863SOL     OW 5592   3.417   3.373   2.565
 1863SOL    HW1 5593   3.360   3.357   2.646
 1863SOL    HW2 5594   3.358   3.383   2.485
 1864SOL     OW 5595   2.997   2.565   2.579
 1864SOL    HW1 5596   3.054   2.643   2.554
 1864SOL    HW2 5597   2.937   2.591   2.655
 1865SOL     OW 5598   3.617   2.469   2.093
 1865SOL    HW1 5599   3.605   2.456   1.994
 1865SOL    HW2 5600   3.587   2.388   2.142
 1866SOL     OW 5601   2.630   3.006   2.885
 1866SOL    HW1 5602   2.552   3.023   2.945
 1866SOL    HW2 5603   2.664   3.093   2.849
 1867SOL     OW 5604   2.712   2.660   3.685
 1867SOL    HW1 5605   2.708   2.736   3.750
 1867SOL    HW2 5606   2.734   2.696   3.594
 1868SOL     OW 5607   2.547   2.874   2.527
 1868SOL    HW1 5608   2.616   2.858   2.597
 1868SOL    HW2 5609   2.474   2.931   2.565
 1869SOL     OW 5610   2.548   3.023   3.665
 1869SOL    HW1 5611   2.608   3.102   3.679
 1869SOL    HW2 5612   2.462   3.054   3.624
 1870SOL     OW 5613   2.197   3.297   2.923
 1870SOL    HW1 5614   2.119   3.266   2.870
 1870SOL    HW2 5615   2.255   3.355   2.866
 1871SOL     OW 5616   3.322   3.367   3.201
 1871SOL    HW1 5617   3.346   3.461   3.227
 1871SOL    HW2 5618   3.306   3.313   3.283
 1872SOL     OW 5619   2.300   2.254   3.361
 1872SOL    HW1 5620   2.382   2.198   3.370
 1872SOL    HW2 5621   2.219   2.196   3.365
 1873SOL     OW 5622   3.465   2.309   2.599
 1873SOL    HW1 5623   3.391   2.355   2.549
 1873SOL    HW2 5624   3.516   2.377   2.652
 1874SOL     OW 5625   2.093   3.575   2.345
 1874SOL    HW1 5626   2.127   3.652   2.399
 1874SOL    HW2 5627   2.137   3.575   2.255
 1875SOL     OW 5628   2.989   3.203   3.552
 1875SOL    HW1 5629   3.036   3.203   3.640
 1875SOL    HW2 5630   2.941   3.116   3.541
 1876SOL     OW 5631   2.092   3.296   2.400
 1876SOL    HW1 5632   2.066   3.392   2.400
 1876SOL    HW2 5633   2.021   3.242   2.445
 1877SOL     OW 5634   2.102   2.953   2.748
 1877SOL    HW1 5635   2.116   2.869   2.800
 1877SOL    HW2 5636   2.047   3.017   2.803
 1878SOL     OW 5637   2.482   3.648   3.301
 1878SOL    HW1 5638   2.390   3.631   3.336
 1878SOL    HW2 5639   2.510   3.740   3.327
 1879SOL     OW 5640   2.468   2.826   1.985
 1879SOL    HW1 5641   2.475   2.910   1.931
 1879SOL    HW2 5642   2.514   2.839   2.073
 1880SOL     OW 5643   3.456   1.976   3.342
 1880SOL    HW1 5644   3.438   2.043   3.270
 1880SOL    HW2 5645   3.453   2.022   3.431
 1881SOL     OW 5646   1.984   2.505   2.425
 1881SOL    HW1 5647   1.939   2.417   2.442
 1881SOL    HW2 5648   1.983   2.559   2.509
 1882SOL     OW 5649   3.704   3.629   2.221
 1882SOL    HW1 5650   3.758   3.600   2.301
 1882SOL    HW2 5651   3.734   3.719   2.192
 1883SOL     OW 5652   1.889   3.458   1.979
 1883SOL    HW1 5653   1.870   3.362   2.000
 1883SOL    HW2 5654   1.856   3.516   2.054
 1884SOL     OW 5655   3.551   2.784   2.474
 1884SOL    HW1 5656   3.646   2.755   2.482
 1884SOL    HW2 5657   3.543   2.849   2.399
 1885SOL     OW 5658   3.503   2.970   2.294
 1885SOL    HW1 5659   3.589   2.972   2.242
 1885SOL    HW2 5660   3.517   3.017   2.382
 1886SOL     OW 5661   1.975   2.599   3.459
 1886SOL    HW1 5662   2.063   2.586   3.504
 1886SOL    HW2 5663   1.962   2.696   3.437
 1887SOL     OW 5664   2.475   3.227   2.588
 1887SOL    HW1 5665   2.426   3.140   2.597
 1887SOL    HW2 5666   2.452   3.270   2.501
 1888SOL     OW 5667   3.155   3.090   3.285
 1888SOL    HW1 5668   3.192   3.017   3.227
 1888SOL    HW2 5669   3.207   3.095   3.370
 1889SOL     OW 5670   2.671   1.866   2.364
 1889SOL    HW1 5671   2.711   1.957   2.355
 1889SOL    HW2 5672   2.571   1.874   2.370
 1890SOL     OW 5673   2.059   2.838   3.126
 1890SOL    HW1 5674   2.148   2.793   3.112
 1890SOL    HW2 5675   1.986   2.773   3.107
 1891SOL     OW 5676   3.387   2.861   2.052
 1891SOL    HW1 5677   3.324   2.785   2.065
 1891SOL    HW2 5678   3.435   2.879   2.138
 1892SOL     OW 5679   3.049   3.654   3.478
 1892SOL    HW1 5680   3.073   3.714   3.402
 1892SOL    HW2 5681   3.056   3.559   3.448
 1893SOL     OW 5682   2.179   2.113   3.663
 1893SOL    HW1 5683   2.250   2.184   3.669
 1893SOL    HW2 5684   2.091   2.152   3.691
 1894SOL     OW 5685   3.328   3.279   2.815
 1894SOL    HW1 5686   3.269   3.285   2.895
 1894SOL    HW2 5687   3.313   3.191   2.769
 1895SOL     OW 5688   3.529   3.576   2.434
 1895SOL    HW1 5689   3.488   3.553   2.346
 1895SOL    HW2 5690   3.511   3.502   2.499
 1896SOL     OW 5691   2.460   2.591   2.132
 1896SOL    HW1 5692   2.484   2.660   2.064
 1896SOL    HW2 5693   2.382   2.624   2.186
 1897SOL     OW 5694   3.143   2.207   2.806
 1897SOL    HW1 5695   3.057   2.157   2.793
 1897SOL    HW2 5696   3.205   2.153   2.862
 1898SOL     OW 5697   3.438   3.524   2.169
 1898SOL    HW1 5698   3.527   3.570   2.172
 1898SOL    HW2 5699   3.417   3.500   2.074
 1899SOL     OW 5700   2.669   2.467   3.327
 1899SOL    HW1 5701   2.622   2.464   3.416
 1899SOL    HW2 5702   2.618   2.412   3.261
 1900SOL     OW 5703   3.256   2.331   3.536
 1900SOL    HW1 5704   3.236   2.374   3.624
 1900SOL    HW2 5705   3.334   2.269   3.545
 1901SOL     OW 5706   2.835   2.752   3.434
 1901SOL    HW1 5707   2.881   2.668   3.405
 1901SOL    HW2 5708   2.779   2.786   3.359
 1902SOL     OW 5709   2.853   2.272   3.104
 1902SOL    HW1 5710   2.776   2.306   3.158
 1902SOL    HW2 5711   2.819   2.221   3.025
 1903SOL     OW 5712   2.903   2.563   2.291
 1903SOL    HW1 5713   2.929   2.559   2.387
 1903SOL    HW2 5714   2.818   2.512   2.277
 1904SOL     OW 5715   1.938   2.673   2.651
 1904SOL    HW1 5716   2.037   2.661   2.660
 1904SOL    HW2 5717   1.914   2.768   2.672
 1905SOL     OW 5718   1.992   3.683   3.433
 1905SOL    HW1 5719   1.982   3.668   3.532
 1905SOL    HW2 5720   1.906   3.719   3.397
 1906SOL     OW 5721   2.727   2.210   2.057
 1906SOL    HW1 5722   2.786   2.273   2.008
 1906SOL    HW2 5723   2.746   2.116   2.028
 1907SOL     OW 5724   3.581   2.447   3.693
 1907SOL    HW1 5725   3.555   2.536   3.657
 1907SOL    HW2 5726   3.579   2.379   3.620
 1908SOL     OW 5727   3.224   3.006   2.407
 1908SOL    HW1 5728   3.307   2.977   2.359
 1908SOL    HW2 5729   3.175   3.073   2.351
 1909SOL     OW 5730   2.412   2.058   2.747
 1909SOL    HW1 5731   2.407   2.053   2.847
 1909SOL    HW2 5732   2.414   2.154   2.718
 1910SOL     OW 5733   2.870   3.318   2.339
 1910SOL    HW1 5734   2.824   3.390   2.287
 1910SOL    HW2 5735   2.866   3.338   2.437
 1911SOL     OW 5736   2.213   3.663   2.715
 1911SOL    HW1 5737   2.263   3.577   2.721
 1911SOL    HW2 5738   2.278   3.740   2.712
 1912SOL     OW 5739   3.657   2.928   2.735
 1912SOL    HW1 5740   3.595   2.913   2.659
 1912SOL    HW2 5741   3.605   2.939   2.820
 1913SOL     OW 5742   3.089   3.412   3.368
 1913SOL    HW1 5743   3.095   3.335   3.432
 1913SOL    HW2 5744   3.037   3.386   3.288
 1914SOL     OW 5745   2.183   2.805   2.104
 1914SOL    HW1 5746   2.265   2.844   2.062
 1914SOL    HW2 5747   2.156   2.723   2.055
 1915SOL     OW 5748   3.320   2.597   2.590
 1915SOL    HW1 5749   3.315   2.532   2.665
 1915SOL    HW2 5750   3.400   2.656   2.603
 1916SOL     OW 5751   2.323   3.128   3.589
 1916SOL    HW1 5752   2.273   3.129   3.503
 1916SOL    HW2 5753   2.260   3.110   3.665
 1917SOL     OW 5754   2.973   3.638   2.099
 1917SOL    HW1 5755   2.913   3.576   2.149
 1917SOL    HW2 5756   3.004   3.594   2.014
 1918SOL     OW 5757   2.064   2.147   3.360
 1918SOL    HW1 5758   1.984   2.207   3.347
 1918SOL    HW2 5759   2.054   2.098   3.446
 1919SOL     OW 5760   3.494   3.239   1.943
 1919SOL    HW1 5761   3.462   3.333   1.933
 1919SOL    HW2 5762   3.418   3.176   1.931
 1920SOL     OW 5763   2.326   3.605   2.185
 1920SOL    HW1 5764   2.359   3.644   2.271
 1920SOL    HW2 5765   2.402   3.598   2.120
 1921SOL     OW 5766   3.262   1.969   2.288
 1921SOL    HW1 5767   3.238   1.932   2.198
 1921SOL    HW2 5768   3.361   1.985   2.292
 1922SOL     OW 5769   2.111   3.647   3.103
 1922SOL    HW1 5770   2.168   3.582   3.153
 1922SOL    HW2 5771   2.095   3.614   3.010
 1923SOL     OW 5772   2.802   3.560   2.766
 1923SOL    HW1 5773   2.882   3.503   2.787
 1923SOL    HW2 5774   2.753   3.520   2.689
 1924SOL     OW 5775   2.244   2.562   2.342
 1924SOL    HW1 5776   2.289   2.472   2.339
 1924SOL    HW2 5777   2.150   2.551   2.375
 1925SOL     OW 5778   3.409   2.084   3.591
 1925SOL    HW1 5779   3.404   2.121   3.683
 1925SOL    HW2 5780   3.337   2.015   3.579
 1926SOL     OW 5781   2.476   1.984   1.979
 1926SOL    HW1 5782   2.574   1.962   1.986
 1926SOL    HW2 5783   2.445   1.967   1.886
 1927SOL     OW 5784   2.643   2.126   3.611
 1927SOL    HW1 5785   2.710   2.065   3.654
 1927SOL    HW2 5786   2.570   2.145   3.676
 1928SOL     OW 5787   2.750   3.376   3.057
 1928SOL    HW1 5788   2.727   3.351   2.963
 1928SOL    HW2 5789   2.811   3.307   3.096
 1929SOL     OW 5790   3.213   2.452   3.295
 1929SOL    HW1 5791   3.241   2.409   3.380
 1929SOL    HW2 5792   3.238   2.548   3.296
 1930SOL     OW 5793   2.665   3.264   2.786
 1930SOL    HW1 5794   2.755   3.278   2.744
 1930SOL    HW2 5795   2.594   3.266   2.715
 1931SOL     OW 5796   2.784   2.365   2.761
 1931SOL    HW1 5797   2.759   2.356   2.665
 1931SOL    HW2 5798   2.832   2.283   2.792
 1932SOL     OW 5799   2.401   1.926   2.374
 1932SOL    HW1 5800   2.320   1.927   2.432
 1932SOL    HW2 5801   2.404   2.009   2.319
 1933SOL     OW 5802   3.296   3.050   1.903
 1933SOL    HW1 5803   3.328   2.974   1.960
 1933SOL    HW2 5804   3.204   3.077   1.933
 1934SOL     OW 5805   2.797   2.098   2.342
 1934SOL    HW1 5806   2.749   2.139   2.264
 1934SOL    HW2 5807   2.896   2.096   2.323
 1935SOL     OW 5808   2.938   2.545   3.326
 1935SOL    HW1 5809   2.858   2.484   3.329
 1935SOL    HW2 5810   3.019   2.492   3.302
 1936SOL     OW 5811   3.089   3.432   2.655
 1936SOL    HW1 5812   3.110   3.506   2.590
 1936SOL    HW2 5813   3.157   3.432   2.728
 1937SOL     OW 5814   2.321   3.014   2.603
 1937SOL    HW1 5815   2.250   2.987   2.668
 1937SOL    HW2 5816   2.295   2.986   2.510
 1938SOL     OW 5817   3.133   3.659   2.453
 1938SOL    HW1 5818   3.177   3.723   2.389
 1938SOL    HW2 5819   3.083   3.711   2.523
 1939SOL     OW 5820   2.894   2.411   1.878
 1939SOL    HW1 5821   2.853   2.493   1.839
 1939SOL    HW2 5822   2.958   2.437   1.951
 1940SOL     OW 5823   1.940   2.418   3.248
 1940SOL    HW1 5824   2.032   2.417   3.207
 1940SOL    HW2 5825   1.934   2.492   3.315
 1941SOL     OW 5826   2.423   2.084   3.009
 1941SOL    HW1 5827   2.461   2.000   3.046
 1941SOL    HW2 5828   2.335   2.103   3.053
 1942SOL     OW 5829   2.728   2.316   2.504
 1942SOL    HW1 5830   2.696   2.388   2.442
 1942SOL    HW2 5831   2.752   2.235   2.451
 1943SOL     OW 5832   2.879   1.901   2.615
 1943SOL    HW1 5833   2.807   1.906   2.546
 1943SOL    HW2 5834   2.855   1.832   2.684
 1944SOL     OW 5835   3.291   3.035   2.729
 1944SOL    HW1 5836   3.236   2.951   2.722
 1944SOL    HW2 5837   3.317   3.064   2.637
 1945SOL     OW 5838   3.328   2.452   2.854
 1945SOL    HW1 5839   3.298   2.357   2.861
 1945SOL    HW2 5840   3.401   2.468   2.920
 1946SOL     OW 5841   3.719   2.695   2.239
 1946SOL    HW1 5842   3.761   2.631   2.303
 1946SOL    HW2 5843   3.681   2.644   2.161
 1947SOL     OW 5844   2.350   3.247   2.036
 1947SOL    HW1 5845   2.263   3.232   2.083
 1947SOL    HW2 5846   2.333   3.273   1.941
 1948SOL     OW 5847   3.526   3.142   2.519
 1948SOL    HW1 5848   3.625   3.150   2.533
 1948SOL    HW2 5849   3.481   3.226   2.550
 1949SOL     OW 5850   3.252   2.437   1.940
 1949SOL    HW1 5851   3.198   2.416   2.021
 1949SOL    HW2 5852   3.343   2.396   1.949
 1950SOL     OW 5853   3.616   3.085   3.450
 1950SOL    HW1 5854   3.707   3.046   3.437
 1950SOL    HW2 5855   3.624   3.181   3.474
 1951SOL     OW 5856   2.926   3.209   3.202
 1951SOL    HW1 5857   2.846   3.186   3.257
 1951SOL    HW2 5858   3.009   3.183   3.251
 1952SOL     OW 5859   3.454   3.491   3.487
 1952SOL    HW1 5860   3.481   3.525   3.397
 1952SOL    HW2 5861   3.533   3.453   3.533
 1953SOL     OW 5862   2.973   3.057   2.962
 1953SOL    HW1 5863   2.933   3.101   3.043
 1953SOL    HW2 5864   2.932   3.094   2.879
 1954SOL     OW 5865   3.500   2.961   2.941
 1954SOL    HW1 5866   3.505   3.042   3.000
 1954SOL    HW2 5867   3.414   2.963   2.890
 1955SOL     OW 5868   2.777   1.951   3.264
 1955SOL    HW1 5869   2.802   1.931   3.169
 1955SOL    HW2 5870   2.849   2.007   3.306
 1956SOL     OW 5871   2.842   2.978   3.581
 1956SOL    HW1 5872   2.743   2.984   3.591
 1956SOL    HW2 5873   2.865   2.898   3.525
 1957SOL     OW 5874   2.567   2.912   2.230
 1957SOL    HW1 5875   2.553   2.919   2.329
 1957SOL    HW2 5876   2.651   2.861   2.212
 1958SOL     OW 5877   2.272   2.675   3.113
 1958SOL    HW1 5878   2.358   2.687   3.163
 1958SOL    HW2 5879   2.230   2.588   3.140
 1959SOL     OW 5880   3.136   2.248   3.124
 1959SOL    HW1 5881   3.157   2.322   3.188
 1959SOL    HW2 5882   3.047   2.265   3.081
 1960SOL     OW 5883   1.926   3.426   3.193
 1960SOL    HW1 5884   1.880   3.508   3.159
 1960SOL    HW2 5885   2.024   3.445   3.202
 1961SOL     OW 5886   2.229   2.962   2.363
 1961SOL    HW1 5887   2.222   3.045   2.307
 1961SOL    HW2 5888   2.233   2.882   2.303
 1962SOL     OW 5889   2.428   2.399   2.727
 1962SOL    HW1 5890   2.440   2.465   2.653
 1962SOL    HW2 5891   2.474   2.433   2.810
 1963SOL     OW 5892   3.114   3.210   2.250
 1963SOL    HW1 5893   3.164   3.287   2.290
 1963SOL    HW2 5894   3.019   3.212   2.282
 1964SOL     OW 5895   3.134   3.307   3.004
 1964SOL    HW1 5896   3.181   3.320   3.091
 1964SOL    HW2 5897   3.068   3.233   3.013
 1965SOL     OW 5898   3.444   2.501   2.334
 1965SOL    HW1 5899   3.413   2.562   2.407
 1965SOL    HW2 5900   3.494   2.553   2.265
 1966SOL     OW 5901   2.216   3.372   3.191
 1966SOL    HW1 5902   2.195   3.328   3.104
 1966SOL    HW2 5903   2.313   3.398   3.194
 1967SOL     OW 5904   2.264   2.613   3.460
 1967SOL    HW1 5905   2.332   2.668   3.413
 1967SOL    HW2 5906   2.304   2.525   3.487
 1968SOL     OW 5907   3.449   2.641   3.532
 1968SOL    HW1 5908   3.357   2.679   3.527
 1968SOL    HW2 5909   3.509   2.688   3.467
 1969SOL     OW 5910   2.875   1.967   3.632
 1969SOL    HW1 5911   2.881   2.052   3.580
 1969SOL    HW2 5912   2.907   1.891   3.575
 1970SOL     OW 5913   2.366   1.912   3.602
 1970SOL    HW1 5914   2.324   1.855   3.532
 1970SOL    HW2 5915   2.300   1.981   3.634
 1971SOL     OW 5916   2.435   2.732   2.891
 1971SOL    HW1 5917   2.479   2.821   2.882
 1971SOL    HW2 5918   2.372   2.732   2.968
 1972SOL     OW 5919   3.222   2.724   2.907
 1972SOL    HW1 5920   3.147   2.724   2.841
 1972SOL    HW2 5921   3.259   2.632   2.916
 1973SOL     OW 5922   3.071   2.387   2.137
 1973SOL    HW1 5923   3.084   2.303   2.191
 1973SOL    HW2 5924   3.042   2.461   2.197
 1974SOL     OW 5925   2.169   2.075   3.093
 1974SOL    HW1 5926   2.146   2.112   3.183
 1974SOL    HW2 5927   2.139   1.980   3.087
 1975SOL     OW 5928   1.899   3.172   3.144
 1975SOL    HW1 5929   1.952   3.123   3.212
 1975SOL    HW2 5930   1.921   3.270   3.149
 1976SOL     OW 5931   2.594   2.496   2.926
 1976SOL    HW1 5932   2.653   2.470   2.850
 1976SOL    HW2 5933   2.566   2.592   2.915
 1977SOL     OW 5934   3.590   2.797   3.716
 1977SOL    HW1 5935   3.544   2.790   3.627
 1977SOL    HW2 5936   3.528   2.841   3.782
 1978SOL     OW 5937   2.169   1.925   2.480
 1978SOL    HW1 5938   2.158   2.019   2.513
 1978SOL    HW2 5939   2.164   1.862   2.557
 1979SOL     OW 5940   3.484   2.229   2.236
 1979SOL    HW1 5941   3.486   2.153   2.300
 1979SOL    HW2 5942   3.436   2.306   2.276
 1980SOL     OW 5943   2.885   2.628   2.828
 1980SOL    HW1 5944   2.900   2.649   2.924
 1980SOL    HW2 5945   2.855   2.533   2.819
 1981SOL     OW 5946   2.842   3.435   3.562
 1981SOL    HW1 5947   2.822   3.479   3.474
 1981SOL    HW2 5948   2.881   3.344   3.546
 1982SOL     OW 5949   3.721   3.380   3.467
 1982SOL    HW1 5950   3.735   3.407   3.372
 1982SOL    HW2 5951   3.804   3.402   3.520
 1983SOL     OW 5952   2.212   2.760   3.666
 1983SOL    HW1 5953   2.288   2.804   3.714
 1983SOL    HW2 5954   2.247   2.713   3.584
 1984SOL     OW 5955   3.402   2.136   1.987
 1984SOL    HW1 5956   3.341   2.061   2.010
 1984SOL    HW2 5957   3.424   2.188   2.070
 1985SOL     OW 5958   3.165   2.700   1.904
 1985SOL    HW1 5959   3.199   2.607   1.919
 1985SOL    HW2 5960   3.183   2.727   1.809
 1986SOL     OW 5961   2.930   3.195   2.711
 1986SOL    HW1 5962   2.937   3.111   2.656
 1986SOL    HW2 5963   2.992   3.264   2.675
 1987SOL     OW 5964   2.181   2.672   2.811
 1987SOL    HW1 5965   2.274   2.708   2.816
 1987SOL    HW2 5966   2.175   2.587   2.863
 1988SOL     OW 5967   2.201   2.371   2.868
 1988SOL    HW1 5968   2.149   2.288   2.851
 1988SOL    HW2 5969   2.278   2.376   2.804
 1989SOL     OW 5970   3.000   2.242   3.540
 1989SOL    HW1 5971   2.955   2.305   3.604
 1989SOL    HW2 5972   3.093   2.273   3.523
 1990SOL     OW 5973   3.022   2.069   3.339
 1990SOL    HW1 5974   3.022   2.133   3.416
 1990SOL    HW2 5975   3.050   2.117   3.256
 1991SOL     OW 5976   1.870   3.188   2.062
 1991SOL    HW1 5977   1.777   3.209   2.031
 1991SOL    HW2 5978   1.880   3.089   2.075
 1992SOL     OW 5979   1.950   3.663   2.789
 1992SOL    HW1 5980   1.908   3.577   2.762
 1992SOL    HW2 5981   2.044   3.666   2.755
 1993SOL     OW 5982   2.366   3.430   2.772
 1993SOL    HW1 5983   2.432   3.504   2.781
 1993SOL    HW2 5984   2.410   3.351   2.730
 1994SOL     OW 5985   2.864   2.658   3.100
 1994SOL    HW1 5986   2.905   2.626   3.186
 1994SOL    HW2 5987   2.768   2.631   3.097
 1995SOL     OW 5988   1.902   2.406   2.976
 1995SOL    HW1 5989   1.987   2.373   2.935
 1995SOL    HW2 5990   1.915   2.421   3.074
 1996SOL     OW 5991   2.051   2.382   3.584
 1996SOL    HW1 5992   2.110   2.342   3.514
 1996SOL    HW2 5993   1.993   2.453   3.543
 1997SOL     OW 5994   3.231   2.812   3.522
 1997SOL    HW1 5995   3.270   2.901   3.542
 1997SOL    HW2 5996   3.241   2.792   3.425
 1998SOL     OW 5997   2.677   2.434   2.187
 1998SOL    HW1 5998   2.684   2.345   2.141
 1998SOL    HW2 5999   2.583   2.468   2.179
 1999SOL     OW 6000   3.519   2.466   3.068
 1999SOL    HW1 6001   3.481   2.397   3.130
 1999SOL    HW2 6002   3.601   2.430   3.024
 2000SOL     OW 6003   2.114   3.426   3.606
 2000SOL    HW1 6004   2.084   3.483   3.682
 2000SOL    HW2 6005   2.107   3.329   3.632
 2001SOL     OW 6006   2.533   2.326   3.131
 2001SOL    HW1 6007   2.499   2.237   3.101
 2001SOL    HW2 6008   2.559   2.380   3.051
 2002SOL     OW 6009   2.792   3.540   3.327
 2002SOL    HW1 6010   2.768   3.522   3.232
 2002SOL    HW2 6011   2.822   3.634   3.337
 2003SOL     OW 6012   2.021   2.999   3.328
 2003SOL    HW1 6013   2.043   2.938   3.404
 2003SOL    HW2 6014   2.031   2.950   3.242
 2004SOL     OW 6015   3.209   2.921   3.096
 2004SOL    HW1 6016   3.233   2.858   3.022
 2004SOL    HW2 6017   3.119   2.961   3.078
 2005SOL     OW 6018   3.164   2.717   2.171
 2005SOL    HW1 6019   3.078   2.686   2.213
 2005SOL    HW2 6020   3.160   2.703   2.072
 2006SOL     OW 6021   3.621   3.609   3.016
 2006SOL    HW1 6022   3.682   3.639   2.943
 2006SOL    HW2 6023   3.583   3.520   2.994
 2007SOL     OW 6024   3.114   3.593   2.990
 2007SOL    HW1 6025   3.198   3.598   2.936
 2007SOL    HW2 6026   3.091   3.497   3.008
 2008SOL     OW 6027   1.945   3.120   2.884
 2008SOL    HW1 6028   1.940   3.119   2.984
 2008SOL    HW2 6029   1.862   3.079   2.846
 2009SOL     OW 6030   2.550   3.524   3.578
 2009SOL    HW1 6031   2.494   3.605   3.587
 2009SOL    HW2 6032   2.602   3.528   3.492
 2010SOL     OW 6033   3.588   1.997   2.385
 2010SOL    HW1 6034   3.661   1.980   2.318
 2010SOL    HW2 6035   3.557   1.910   2.423
 2011SOL     OW 6036   3.250   3.435   2.339
 2011SOL    HW1 6037   3.317   3.447   2.265
 2011SOL    HW2 6038   3.210   3.524   2.362
 2012SOL     OW 6039   1.992   3.656   3.713
 2012SOL    HW1 6040   1.951   3.582   3.766
 2012SOL    HW2 6041   2.056   3.707   3.771
 2013SOL     OW 6042   3.142   2.789   2.534
 2013SOL    HW1 6043   3.202   2.708   2.536
 2013SOL    HW2 6044   3.182   2.858   2.474
 2014SOL     OW 6045   2.692   3.135   3.284
 2014SOL    HW1 6046   2.687   3.168   3.379
 2014SOL    HW2 6047   2.606   3.154   3.238
 2015SOL     OW 6048   2.534   3.478   2.016
 2015SOL    HW1 6049   2.543   3.488   1.917
 2015SOL    HW2 6050   2.494   3.389   2.037
 2016SOL     OW 6051   3.512   3.582   3.256
 2016SOL    HW1 6052   3.565   3.592   3.172
 2016SOL    HW2 6053   3.485   3.672   3.290
 2017SOL     OW 6054   3.703   2.037   2.825
 2017SOL    HW1 6055   3.742   1.952   2.789
 2017SOL    HW2 6056   3.605   2.039   2.806
 2018SOL     OW 6057   2.125   2.188   2.582
 2018SOL    HW1 6058   2.046   2.239   2.548
 2018SOL    HW2 6059   2.116   2.173   2.680
 2019SOL     OW 6060   3.056   3.474   1.893
 2019SOL    HW1 6061   3.062   3.381   1.930
 2019SOL    HW2 6062   2.997   3.474   1.813
 2020SOL     OW 6063   2.684   2.864   3.234
 2020SOL    HW1 6064   2.724   2.863   3.142
 2020SOL    HW2 6065   2.694   2.956   3.274
 2021SOL     OW 6066   2.778   2.772   2.153
 2021SOL    HW1 6067   2.841   2.810   2.085
 2021SOL    HW2 6068   2.818   2.689   2.192
 2022SOL     OW 6069   3.366   3.469   1.906
 2022SOL    HW1 6070   3.274   3.506   1.913
 2022SOL    HW2 6071   3.404   3.489   1.816
 2023SOL     OW 6072   2.234   3.150   3.352
 2023SOL    HW1 6073   2.221   3.243   3.318
 2023SOL    HW2 6074   2.150   3.098   3.339
 2024SOL     OW 6075   3.476   3.154   3.151
 2024SOL    HW1 6076   3.536   3.157   3.231
 2024SOL    HW2 6077   3.401   3.218   3.164
 2025SOL     OW 6078   2.901   2.960   2.558
 2025SOL    HW1 6079   2.831   2.913   2.612
 2025SOL    HW2 6080   2.960   2.892   2.515
 2026SOL     OW 6081   2.876   2.098   2.833
 2026SOL    HW1 6082   2.868   2.062   2.740
 2026SOL    HW2 6083   2.874   2.022   2.898
 2027SOL     OW 6084   2.452   3.349   2.353
 2027SOL    HW1 6085   2.494   3.291   2.283
 2027SOL    HW2 6086   2.408   3.428   2.309
 2028SOL     OW 6087   3.571   2.247   3.243
 2028SOL    HW1 6088   3.644   2.316   3.247
 2028SOL    HW2 6089   3.599   2.172   3.184
 2029SOL     OW 6090   2.117   3.210   2.152
 2029SOL    HW1 6091   2.021   3.211   2.125
 2029SOL    HW2 6092   2.129   3.263   2.236
 2030SOL     OW 6093   1.967   2.875   3.588
 2030SOL    HW1 6094   1.890   2.842   3.642
 2030SOL    HW2 6095   2.052   2.845   3.630
 2031SOL     OW 6096   2.534   2.065   3.351
 2031SOL    HW1 6097   2.624   2.049   3.311
 2031SOL    HW2 6098   2.542   2.070   3.450
 2032SOL     OW 6099   1.937   2.207   1.895
 2032SOL    HW1 6100   1.845   2.179   1.866
 2032SOL    HW2 6101   1.968   2.284   1.839
 2033SOL     OW 6102   3.302   2.718   3.260
 2033SOL    HW1 6103   3.245   2.770   3.197
 2033SOL    HW2 6104   3.398   2.730   3.236
 2034SOL     OW 6105   3.045   3.197   1.981
 2034SOL    HW1 6106   2.946   3.186   1.983
 2034SOL    HW2 6107   3.079   3.212   2.074
 2035SOL     OW 6108   2.475   2.704   3.293
 2035SOL    HW1 6109   2.531   2.785   3.276
 2035SOL    HW2 6110   2.534   2.624   3.296
 2036SOL     OW 6111   3.355   3.629   2.821
 2036SOL    HW1 6112   3.388   3.693   2.752
 2036SOL    HW2 6113   3.421   3.623   2.896
 2037SOL     OW 6114   2.578   2.427   3.570
 2037SOL    HW1 6115   2.597   2.492   3.644
 2037SOL    HW2 6116   2.638   2.347   3.579
 2038SOL     OW 6117   3.312   3.082   3.495
 2038SOL    HW1 6118   3.303   3.072   3.594
 2038SOL    HW2 6119   3.408   3.075   3.469
 2039SOL     OW 6120   2.252   3.603   3.422
 2039SOL    HW1 6121   2.161   3.644   3.420
 2039SOL    HW2 6122   2.245   3.509   3.454
 2040SOL     OW 6123   3.536   2.745   3.116
 2040SOL    HW1 6124   3.509   2.656   3.079
 2040SOL    HW2 6125   3.537   2.813   3.043
 2041SOL     OW 6126   3.087   2.187   2.311
 2041SOL    HW1 6127   3.152   2.113   2.300
 2041SOL    HW2 6128   3.107   2.237   2.395
 2042SOL     OW 6129   2.456   2.607   2.514
 2042SOL    HW1 6130   2.506   2.692   2.495
 2042SOL    HW2 6131   2.368   2.609   2.466
 2043SOL     OW 6132   3.639   2.204   3.504
 2043SOL    HW1 6133   3.622   2.235   3.410
 2043SOL    HW2 6134   3.555   2.167   3.542
 2044SOL     OW 6135   3.592   2.796   3.379
 2044SOL    HW1 6136   3.630   2.887   3.394
 2044SOL    HW2 6137   3.584   2.779   3.280
 2045SOL     OW 6138   2.721   3.236   1.878
 2045SOL    HW1 6139   2.675   3.251   1.966
 2045SOL    HW2 6140   2.765   3.321   1.848
 2046SOL     OW 6141   2.523   3.652   2.815
 2046SOL    HW1 6142   2.477   3.740   2.802
 2046SOL    HW2 6143   2.622   3.664   2.808
 2047SOL     OW 6144   2.721   2.818   2.723
 2047SOL    HW1 6145   2.775   2.749   2.771
 2047SOL    HW2 6146   2.689   2.887   2.789
 2048SOL     OW 6147   2.945   2.846   1.949
 2048SOL    HW1 6148   2.922   2.899   1.867
 2048SOL    HW2 6149   3.026   2.790   1.930
 2049SOL     OW 6150   3.723   3.431   2.713
 2049SOL    HW1 6151   3.652   3.419   2.643
 2049SOL    HW2 6152   3.724   3.352   2.773
 2050SOL     OW 6153   2.083   3.176   3.706
 2050SOL    HW1 6154   2.018   3.103   3.685
 2050SOL    HW2 6155   2.087   3.190   3.804
 2051SOL     OW 6156   1.941   3.102   2.515
 2051SOL    HW1 6157   1.940   3.055   2.603
 2051SOL    HW2 6158   2.023   3.074   2.464
 2052SOL     OW 6159   2.534   3.253   3.486
 2052SOL    HW1 6160   2.456   3.203   3.524
 2052SOL    HW2 6161   2.531   3.348   3.517
 2053SOL     OW 6162   3.686   2.054   3.089
 2053SOL    HW1 6163   3.682   1.964   3.133
 2053SOL    HW2 6164   3.689   2.043   2.990
 2054SOL     OW 6165   3.567   3.349   2.966
 2054SOL    HW1 6166   3.474   3.324   2.939
 2054SOL    HW2 6167   3.593   3.299   3.048
 2055SOL     OW 6168   2.179   2.409   3.142
 2055SOL    HW1 6169   2.217   2.350   3.214
 2055SOL    HW2 6170   2.219   2.383   3.054
 2056SOL     OW 6171   2.674   3.448   2.549
 2056SOL    HW1 6172   2.706   3.458   2.455
 2056SOL    HW2 6173   2.595   3.386   2.551
 2057SOL     OW 6174   3.286   2.076   2.974
 2057SOL    HW1 6175   3.338   2.011   3.029
 2057SOL    HW2 6176   3.237   2.139   3.035
 2058SOL     OW 6177   2.863   1.896   3.016
 2058SOL    HW1 6178   2.800   1.824   2.985
 2058SOL    HW2 6179   2.956   1.860   3.016
 2059SOL     OW 6180   2.632   3.192   2.163
 2059SOL    HW1 6181   2.586   3.105   2.180
 2059SOL    HW2 6182   2.723   3.189   2.204
 2060SOL     OW 6183   2.480   3.429   3.146
 2060SOL    HW1 6184   2.475   3.511   3.203
 2060SOL    HW2 6185   2.569   3.426   3.101
 2061SOL     OW 6186   3.214   1.914   2.030
 2061SOL    HW1 6187   3.249   1.873   1.946
 2061SOL    HW2 6188   3.124   1.876   2.050
 2062SOL     OW 6189   3.162   2.315   2.553
 2062SOL    HW1 6190   3.103   2.395   2.557
 2062SOL    HW2 6191   3.177   2.280   2.646
 2063SOL     OW 6192   3.455   2.083   2.744
 2063SOL    HW1 6193   3.371   2.082   2.798
 2063SOL    HW2 6194   3.457   2.166   2.688
 2064SOL     OW 6195   1.901   2.939   2.162
 2064SOL    HW1 6196   2.000   2.928   2.153
 2064SOL    HW2 6197   1.861   2.853   2.194
 2065SOL     OW 6198   2.737   3.508   2.199
 2065SOL    HW1 6199   2.660   3.473   2.145
 2065SOL    HW2 6200   2.705   3.579   2.261
 2066SOL     OW 6201   2.092   2.490   3.837
 2066SOL    HW1 6202   1.999   2.488   3.874
 2066SOL    HW2 6203   2.093   2.451   3.745
 2067SOL     OW 6204   3.617   2.469   3.955
 2067SOL    HW1 6205   3.605   2.456   3.856
 2067SOL    HW2 6206   3.587   2.388   4.004
 2068SOL     OW 6207   2.093   3.575   4.207
 2068SOL    HW1 6208   2.127   3.652   4.261
 2068SOL    HW2 6209   2.137   3.575   4.117
 2069SOL     OW 6210   2.092   3.296   4.262
 2069SOL    HW1 6211   2.066   3.392   4.262
 2069SOL    HW2 6212   2.021   3.242   4.307
 2070SOL     OW 6213   2.468   2.826   3.847
 2070SOL    HW1 6214   2.475   2.910   3.793
 2070SOL    HW2 6215   2.514   2.839   3.935
 2071SOL     OW 6216   1.984   2.505   4.287
 2071SOL    HW1 6217   1.939   2.417   4.304
 2071SOL    HW2 6218   1.983   2.559   4.371
 2072SOL     OW 6219   3.704   3.629   4.083
 2072SOL    HW1 6220   3.758   3.600   4.163
 2072SOL    HW2 6221   3.734   3.719   4.054
 2073SOL     OW 6222   1.889   3.458   3.841
 2073SOL    HW1 6223   1.870   3.362   3.862
 2073SOL    HW2 6224   1.856   3.516   3.916
 2074SOL     OW 6225   3.551   2.784   4.336
 2074SOL    HW1 6226   3.646   2.755   4.344
 2074SOL    HW2 6227   3.543   2.849   4.261
 2075SOL     OW 6228   3.503   2.970   4.156
 2075SOL    HW1 6229   3.589   2.972   4.104
 2075SOL    HW2 6230   3.517   3.017   4.244
 2076SOL     OW 6231   2.671   1.866   4.226
 2076SOL    HW1 6232   2.711   1.957   4.217
 2076SOL    HW2 6233   2.571   1.874   4.232
 2077SOL     OW 6234   3.387   2.861   3.914
 2077SOL    HW1 6235   3.324   2.785   3.927
 2077SOL    HW2 6236   3.435   2.879   4.000
 2078SOL     OW 6237   2.460   2.591   3.994
 2078SOL    HW1 6238   2.484   2.660   3.926
 2078SOL    HW2 6239   2.382   2.624   4.048
 2079SOL     OW 6240   3.438   3.524   4.031
 2079SOL    HW1 6241   3.527   3.570   4.034
 2079SOL    HW2 6242   3.417   3.500   3.936
 2080SOL     OW 6243   2.903   2.563   4.153
 2080SOL    HW1 6244   2.929   2.559   4.249
 2080SOL    HW2 6245   2.818   2.512   4.139
 2081SOL     OW 6246   1.938   2.673   4.513
 2081SOL    HW1 6247   2.037   2.661   4.522
 2081SOL    HW2 6248   1.914   2.768   4.534
 2082SOL     OW 6249   2.727   2.210   3.919
 2082SOL    HW1 6250   2.786   2.273   3.870
 2082SOL    HW2 6251   2.746   2.116   3.890
 2083SOL     OW 6252   2.183   2.805   3.966
 2083SOL    HW1 6253   2.265   2.844   3.924
 2083SOL    HW2 6254   2.156   2.723   3.917
 2084SOL     OW 6255   2.973   3.638   3.961
 2084SOL    HW1 6256   2.913   3.576   4.011
 2084SOL    HW2 6257   3.004   3.594   3.876
 2085SOL     OW 6258   3.494   3.239   3.805
 2085SOL    HW1 6259   3.462   3.333   3.795
 2085SOL    HW2 6260   3.418   3.176   3.793
 2086SOL     OW 6261   2.326   3.605   4.047
 2086SOL    HW1 6262   2.359   3.644   4.133
 2086SOL    HW2 6263   2.402   3.598   3.982
 2087SOL     OW 6264   3.262   1.969   4.150
 2087SOL    HW1 6265   3.238   1.932   4.060
 2087SOL    HW2 6266   3.361   1.985   4.154
 2088SOL     OW 6267   2.244   2.562   4.204
 2088SOL    HW1 6268   2.289   2.472   4.201
 2088SOL    HW2 6269   2.150   2.551   4.237
 2089SOL     OW 6270   2.476   1.984   3.841
 2089SOL    HW1 6271   2.574   1.962   3.848
 2089SOL    HW2 6272   2.445   1.967   3.748
 2090SOL     OW 6273   2.401   1.926   4.236
 2090SOL    HW1 6274   2.320   1.927   4.294
 2090SOL    HW2 6275   2.404   2.009   4.181
 2091SOL     OW 6276   3.296   3.050   3.765
 2091SOL    HW1 6277   3.328   2.974   3.822
 2091SOL    HW2 6278   3.204   3.077   3.795
 2092SOL     OW 6279   2.159   1.897   3.895
 2092SOL    HW1 6280   2.208   1.981   3.874
 2092SOL    HW2 6281   2.221   1.832   3.940
 2093SOL     OW 6282   2.797   2.098   4.204
 2093SOL    HW1 6283   2.749   2.139   4.126
 2093SOL    HW2 6284   2.896   2.096   4.185
 2094SOL     OW 6285   2.321   3.014   4.465
 2094SOL    HW1 6286   2.250   2.987   4.530
 2094SOL    HW2 6287   2.295   2.986   4.372
 2095SOL     OW 6288   3.133   3.659   4.315
 2095SOL    HW1 6289   3.177   3.723   4.251
 2095SOL    HW2 6290   3.083   3.711   4.385
 2096SOL     OW 6291   2.894   2.411   3.740
 2096SOL    HW1 6292   2.853   2.493   3.701
 2096SOL    HW2 6293   2.958   2.437   3.813
 2097SOL     OW 6294   2.728   2.316   4.366
 2097SOL    HW1 6295   2.696   2.388   4.304
 2097SOL    HW2 6296   2.752   2.235   4.313
 2098SOL     OW 6297   3.719   2.695   4.101
 2098SOL    HW1 6298   3.761   2.631   4.165
 2098SOL    HW2 6299   3.681   2.644   4.023
 2099SOL     OW 6300   2.350   3.247   3.898
 2099SOL    HW1 6301   2.263   3.232   3.945
 2099SOL    HW2 6302   2.333   3.273   3.803
 2100SOL     OW 6303   3.252   2.437   3.802
 2100SOL    HW1 6304   3.198   2.416   3.883
 2100SOL    HW2 6305   3.343   2.396   3.811
 2101SOL     OW 6306   2.389   2.118   4.052
 2101SOL    HW1 6307   2.416   2.059   3.977
 2101SOL    HW2 6308   2.389   2.213   4.021
 2102SOL     OW 6309   2.567   2.912   4.092
 2102SOL    HW1 6310   2.553   2.919   4.191
 2102SOL    HW2 6311   2.651   2.861   4.074
 2103SOL     OW 6312   2.229   2.962   4.225
 2103SOL    HW1 6313   2.222   3.045   4.169
 2103SOL    HW2 6314   2.233   2.882   4.165
 2104SOL     OW 6315   3.114   3.210   4.112
 2104SOL    HW1 6316   3.164   3.287   4.152
 2104SOL    HW2 6317   3.019   3.212   4.144
 2105SOL     OW 6318   3.444   2.501   4.196
 2105SOL    HW1 6319   3.413   2.562   4.269
 2105SOL    HW2 6320   3.494   2.553   4.127
 2106SOL     OW 6321   3.071   2.387   3.999
 2106SOL    HW1 6322   3.084   2.303   4.053
 2106SOL    HW2 6323   3.042   2.461   4.059
 2107SOL     OW 6324   3.484   2.229   4.098
 2107SOL    HW1 6325   3.486   2.153   4.162
 2107SOL    HW2 6326   3.436   2.306   4.138
 2108SOL     OW 6327   3.402   2.136   3.849
 2108SOL    HW1 6328   3.341   2.061   3.872
 2108SOL    HW2 6329   3.424   2.188   3.932
 2109SOL     OW 6330   3.165   2.700   3.766
 2109SOL    HW1 6331   3.199   2.607   3.781
 2109SOL    HW2 6332   3.183   2.727   3.671
 2110SOL     OW 6333   1.870   3.188   3.924
 2110SOL    HW1 6334   1.777   3.209   3.893
 2110SOL    HW2 6335   1.880   3.089   3.937
 2111SOL     OW 6336   2.677   2.434   4.049
 2111SOL    HW1 6337   2.684   2.345   4.003
 2111SOL    HW2 6338   2.583   2.468   4.041
 2112SOL     OW 6339   2.335   2.362   3.915
 2112SOL    HW1 6340   2.396   2.442   3.919
 2112SOL    HW2 6341   2.240   2.393   3.922
 2113SOL     OW 6342   3.164   2.717   4.033
 2113SOL    HW1 6343   3.078   2.686   4.075
 2113SOL    HW2 6344   3.160   2.703   3.934
 2114SOL     OW 6345   3.588   1.997   4.247
 2114SOL    HW1 6346   3.661   1.980   4.180
 2114SOL    HW2 6347   3.557   1.910   4.285
 2115SOL     OW 6348   3.250   3.435   4.201
 2115SOL    HW1 6349   3.317   3.447   4.127
 2115SOL    HW2 6350   3.210   3.524   4.224
 2116SOL     OW 6351   2.534   3.478   3.878
 2116SOL    HW1 6352   2.543   3.488   3.779
 2116SOL    HW2 6353   2.494   3.389   3.899
 2117SOL     OW 6354   3.056   3.474   3.755
 2117SOL    HW1 6355   3.062   3.381   3.792
 2117SOL    HW2 6356   2.997   3.474   3.675
 2118SOL     OW 6357   2.778   2.772   4.015
 2118SOL    HW1 6358   2.841   2.810   3.947
 2118SOL    HW2 6359   2.818   2.689   4.054
 2119SOL     OW 6360   3.366   3.469   3.768
 2119SOL    HW1 6361   3.274   3.506   3.775
 2119SOL    HW2 6362   3.404   3.489   3.678
 2120SOL     OW 6363   2.452   3.349   4.215
 2120SOL    HW1 6364   2.494   3.291   4.145
 2120SOL    HW2 6365   2.408   3.428   4.171
 2121SOL     OW 6366   2.117   3.210   4.014
 2121SOL    HW1 6367   2.021   3.211   3.987
 2121SOL    HW2 6368   2.129   3.263   4.098
 2122SOL     OW 6369   1.937   2.207   3.757
 2122SOL    HW1 6370   1.845   2.179   3.728
 2122SOL    HW2 6371   1.968   2.284   3.701
 2123SOL     OW 6372   1.934   2.028   4.042
 2123SOL    HW1 6373   1.917   2.111   3.988
 2123SOL    HW2 6374   2.024   1.991   4.020
 2124SOL     OW 6375   3.045   3.197   3.843
 2124SOL    HW1 6376   2.946   3.186   3.845
 2124SOL    HW2 6377   3.079   3.212   3.936
 2125SOL     OW 6378   3.087   2.187   4.173
 2125SOL    HW1 6379   3.152   2.113   4.162
 2125SOL    HW2 6380   3.107   2.237   4.257
 2126SOL     OW 6381   2.456   2.607   4.376
 2126SOL    HW1 6382   2.506   2.692   4.357
 2126SOL    HW2 6383   2.368   2.609   4.328
 2127SOL     OW 6384   2.721   3.236   3.740
 2127SOL    HW1 6385   2.675   3.251   3.828
 2127SOL    HW2 6386   2.765   3.321   3.710
 2128SOL     OW 6387   2.945   2.846   3.811
 2128SOL    HW1 6388   2.922   2.899   3.729
 2128SOL    HW2 6389   3.026   2.790   3.792
 2129SOL     OW 6390   2.290   2.286   4.244
 2129SOL    HW1 6391   2.320   2.214   4.182
 2129SOL    HW2 6392   2.251   2.246   4.327
 2130SOL     OW 6393   2.632   3.192   4.025
 2130SOL    HW1 6394   2.586   3.105   4.042
 2130SOL    HW2 6395   2.723   3.189   4.066
 2131SOL     OW 6396   3.214   1.914   3.892
 2131SOL    HW1 6397   3.249   1.873   3.808
 2131SOL    HW2 6398   3.124   1.876   3.912
 2132SOL     OW 6399   1.901   2.939   4.024
 2132SOL    HW1 6400   2.000   2.928   4.015
 2132SOL    HW2 6401   1.861   2.853   4.056
 2133SOL     OW 6402   2.737   3.508   4.061
 2133SOL    HW1 6403   2.660   3.473   4.007
 2133SOL    HW2 6404   2.705   3.579   4.123
 2134SOL     OW 6405   2.087   3.999   0.996
 2134SOL    HW1 6406   2.122   3.982   1.088
 2134SOL    HW2 6407   1.999   3.954   0.984
 2135SOL     OW 6408   1.881   4.092   0.647
 2135SOL    HW1 6409   1.799   4.135   0.686
 2135SOL    HW2 6410   1.853   4.019   0.584
 2136SOL     OW 6411   3.617   4.331   0.231
 2136SOL    HW1 6412   3.605   4.318   0.132
 2136SOL    HW2 6413   3.587   4.250   0.280
 2137SOL     OW 6414   2.300   4.116   1.499
 2137SOL    HW1 6415   2.382   4.060   1.508
 2137SOL    HW2 6416   2.219   4.058   1.503
 2138SOL     OW 6417   3.465   4.171   0.737
 2138SOL    HW1 6418   3.391   4.217   0.687
 2138SOL    HW2 6419   3.516   4.239   0.790
 2139SOL     OW 6420   3.456   3.838   1.480
 2139SOL    HW1 6421   3.438   3.905   1.408
 2139SOL    HW2 6422   3.453   3.884   1.569
 2140SOL     OW 6423   1.984   4.367   0.563
 2140SOL    HW1 6424   1.939   4.279   0.580
 2140SOL    HW2 6425   1.983   4.421   0.647
 2141SOL     OW 6426   2.671   3.728   0.502
 2141SOL    HW1 6427   2.711   3.819   0.493
 2141SOL    HW2 6428   2.571   3.736   0.508
 2142SOL     OW 6429   2.179   3.975   1.801
 2142SOL    HW1 6430   2.250   4.046   1.807
 2142SOL    HW2 6431   2.091   4.014   1.829
 2143SOL     OW 6432   3.143   4.069   0.944
 2143SOL    HW1 6433   3.057   4.019   0.931
 2143SOL    HW2 6434   3.205   4.015   1.000
 2144SOL     OW 6435   2.669   4.329   1.465
 2144SOL    HW1 6436   2.622   4.326   1.554
 2144SOL    HW2 6437   2.618   4.274   1.399
 2145SOL     OW 6438   3.256   4.193   1.674
 2145SOL    HW1 6439   3.236   4.236   1.762
 2145SOL    HW2 6440   3.334   4.131   1.683
 2146SOL     OW 6441   2.853   4.134   1.242
 2146SOL    HW1 6442   2.776   4.168   1.296
 2146SOL    HW2 6443   2.819   4.083   1.163
 2147SOL     OW 6444   2.903   4.425   0.429
 2147SOL    HW1 6445   2.929   4.421   0.525
 2147SOL    HW2 6446   2.818   4.374   0.415
 2148SOL     OW 6447   1.938   4.535   0.789
 2148SOL    HW1 6448   2.037   4.523   0.798
 2148SOL    HW2 6449   1.914   4.630   0.810
 2149SOL     OW 6450   2.727   4.072   0.195
 2149SOL    HW1 6451   2.786   4.135   0.146
 2149SOL    HW2 6452   2.746   3.978   0.166
 2150SOL     OW 6453   3.581   4.309   1.831
 2150SOL    HW1 6454   3.555   4.398   1.795
 2150SOL    HW2 6455   3.579   4.241   1.758
 2151SOL     OW 6456   2.412   3.920   0.885
 2151SOL    HW1 6457   2.407   3.915   0.985
 2151SOL    HW2 6458   2.414   4.016   0.856
 2152SOL     OW 6459   3.320   4.459   0.728
 2152SOL    HW1 6460   3.315   4.394   0.803
 2152SOL    HW2 6461   3.400   4.518   0.741
 2153SOL     OW 6462   2.064   4.009   1.498
 2153SOL    HW1 6463   1.984   4.069   1.485
 2153SOL    HW2 6464   2.054   3.960   1.584
 2154SOL     OW 6465   3.262   3.831   0.426
 2154SOL    HW1 6466   3.238   3.794   0.336
 2154SOL    HW2 6467   3.361   3.847   0.430
 2155SOL     OW 6468   3.409   3.946   1.729
 2155SOL    HW1 6469   3.404   3.983   1.821
 2155SOL    HW2 6470   3.337   3.877   1.717
 2156SOL     OW 6471   2.476   3.846   0.117
 2156SOL    HW1 6472   2.574   3.824   0.124
 2156SOL    HW2 6473   2.445   3.829   0.024
 2157SOL     OW 6474   2.643   3.988   1.749
 2157SOL    HW1 6475   2.710   3.927   1.792
 2157SOL    HW2 6476   2.570   4.007   1.814
 2158SOL     OW 6477   3.213   4.314   1.433
 2158SOL    HW1 6478   3.241   4.271   1.518
 2158SOL    HW2 6479   3.238   4.410   1.434
 2159SOL     OW 6480   2.401   3.788   0.512
 2159SOL    HW1 6481   2.320   3.789   0.570
 2159SOL    HW2 6482   2.404   3.871   0.457
 2160SOL     OW 6483   2.159   3.759   0.171
 2160SOL    HW1 6484   2.208   3.843   0.150
 2160SOL    HW2 6485   2.221   3.694   0.216
 2161SOL     OW 6486   2.797   3.960   0.480
 2161SOL    HW1 6487   2.749   4.001   0.402
 2161SOL    HW2 6488   2.896   3.958   0.461
 2162SOL     OW 6489   1.940   4.280   1.386
 2162SOL    HW1 6490   2.032   4.279   1.345
 2162SOL    HW2 6491   1.934   4.354   1.453
 2163SOL     OW 6492   2.423   3.946   1.147
 2163SOL    HW1 6493   2.461   3.862   1.184
 2163SOL    HW2 6494   2.335   3.965   1.191
 2164SOL     OW 6495   2.879   3.763   0.753
 2164SOL    HW1 6496   2.807   3.768   0.684
 2164SOL    HW2 6497   2.855   3.694   0.822
 2165SOL     OW 6498   3.328   4.314   0.992
 2165SOL    HW1 6499   3.298   4.219   0.999
 2165SOL    HW2 6500   3.401   4.330   1.058
 2166SOL     OW 6501   2.389   3.980   0.328
 2166SOL    HW1 6502   2.416   3.921   0.253
 2166SOL    HW2 6503   2.389   4.075   0.297
 2167SOL     OW 6504   2.777   3.813   1.402
 2167SOL    HW1 6505   2.802   3.793   1.307
 2167SOL    HW2 6506   2.849   3.869   1.444
 2168SOL     OW 6507   3.136   4.110   1.262
 2168SOL    HW1 6508   3.157   4.184   1.326
 2168SOL    HW2 6509   3.047   4.127   1.219
 2169SOL     OW 6510   2.428   4.261   0.865
 2169SOL    HW1 6511   2.440   4.327   0.791
 2169SOL    HW2 6512   2.474   4.295   0.948
 2170SOL     OW 6513   2.875   3.829   1.770
 2170SOL    HW1 6514   2.881   3.914   1.718
 2170SOL    HW2 6515   2.907   3.753   1.713
 2171SOL     OW 6516   2.366   3.774   1.740
 2171SOL    HW1 6517   2.324   3.717   1.670
 2171SOL    HW2 6518   2.300   3.843   1.772
 2172SOL     OW 6519   3.071   4.249   0.275
 2172SOL    HW1 6520   3.084   4.165   0.329
 2172SOL    HW2 6521   3.042   4.323   0.335
 2173SOL     OW 6522   2.169   3.937   1.231
 2173SOL    HW1 6523   2.146   3.974   1.321
 2173SOL    HW2 6524   2.139   3.842   1.225
 2174SOL     OW 6525   2.594   4.358   1.064
 2174SOL    HW1 6526   2.653   4.332   0.988
 2174SOL    HW2 6527   2.566   4.454   1.053
 2175SOL     OW 6528   2.169   3.787   0.618
 2175SOL    HW1 6529   2.158   3.881   0.651
 2175SOL    HW2 6530   2.164   3.724   0.695
 2176SOL     OW 6531   3.484   4.091   0.374
 2176SOL    HW1 6532   3.486   4.015   0.438
 2176SOL    HW2 6533   3.436   4.168   0.414
 2177SOL     OW 6534   3.402   3.998   0.125
 2177SOL    HW1 6535   3.341   3.923   0.148
 2177SOL    HW2 6536   3.424   4.050   0.208
 2178SOL     OW 6537   2.201   4.233   1.006
 2178SOL    HW1 6538   2.149   4.150   0.989
 2178SOL    HW2 6539   2.278   4.238   0.942
 2179SOL     OW 6540   3.000   4.104   1.678
 2179SOL    HW1 6541   2.955   4.167   1.742
 2179SOL    HW2 6542   3.093   4.135   1.661
 2180SOL     OW 6543   3.022   3.931   1.477
 2180SOL    HW1 6544   3.022   3.995   1.554
 2180SOL    HW2 6545   3.050   3.979   1.394
 2181SOL     OW 6546   1.902   4.268   1.114
 2181SOL    HW1 6547   1.987   4.235   1.073
 2181SOL    HW2 6548   1.915   4.283   1.212
 2182SOL     OW 6549   2.051   4.244   1.722
 2182SOL    HW1 6550   2.110   4.204   1.652
 2182SOL    HW2 6551   1.993   4.315   1.681
 2183SOL     OW 6552   2.677   4.296   0.325
 2183SOL    HW1 6553   2.684   4.207   0.279
 2183SOL    HW2 6554   2.583   4.330   0.317
 2184SOL     OW 6555   3.519   4.328   1.206
 2184SOL    HW1 6556   3.481   4.259   1.268
 2184SOL    HW2 6557   3.601   4.292   1.162
 2185SOL     OW 6558   2.533   4.188   1.269
 2185SOL    HW1 6559   2.499   4.099   1.239
 2185SOL    HW2 6560   2.559   4.242   1.189
 2186SOL     OW 6561   2.765   3.810   0.133
 2186SOL    HW1 6562   2.816   3.811   0.047
 2186SOL    HW2 6563   2.821   3.768   0.204
 2187SOL     OW 6564   3.588   3.859   0.523
 2187SOL    HW1 6565   3.661   3.842   0.456
 2187SOL    HW2 6566   3.557   3.772   0.561
 2188SOL     OW 6567   3.703   3.899   0.963
 2188SOL    HW1 6568   3.742   3.814   0.927
 2188SOL    HW2 6569   3.605   3.901   0.944
 2189SOL     OW 6570   2.125   4.050   0.720
 2189SOL    HW1 6571   2.046   4.101   0.686
 2189SOL    HW2 6572   2.116   4.035   0.818
 2190SOL     OW 6573   2.876   3.960   0.971
 2190SOL    HW1 6574   2.868   3.924   0.878
 2190SOL    HW2 6575   2.874   3.884   1.036
 2191SOL     OW 6576   3.571   4.109   1.381
 2191SOL    HW1 6577   3.644   4.178   1.385
 2191SOL    HW2 6578   3.599   4.034   1.322
 2192SOL     OW 6579   2.534   3.927   1.489
 2192SOL    HW1 6580   2.624   3.911   1.449
 2192SOL    HW2 6581   2.542   3.932   1.588
 2193SOL     OW 6582   1.937   4.069   0.033
 2193SOL    HW1 6583   1.845   4.041   0.004
 2193SOL    HW2 6584   1.968   4.146  -0.023
 2194SOL     OW 6585   1.934   3.890   0.318
 2194SOL    HW1 6586   1.917   3.973   0.264
 2194SOL    HW2 6587   2.024   3.853   0.296
 2195SOL     OW 6588   2.578   4.289   1.708
 2195SOL    HW1 6589   2.597   4.354   1.782
 2195SOL    HW2 6590   2.638   4.209   1.717
 2196SOL     OW 6591   3.087   4.049   0.449
 2196SOL    HW1 6592   3.152   3.975   0.438
 2196SOL    HW2 6593   3.107   4.099   0.533
 2197SOL     OW 6594   3.639   4.066   1.642
 2197SOL    HW1 6595   3.622   4.097   1.548
 2197SOL    HW2 6596   3.555   4.029   1.680
 2198SOL     OW 6597   3.686   3.916   1.227
 2198SOL    HW1 6598   3.682   3.826   1.271
 2198SOL    HW2 6599   3.689   3.905   1.128
 2199SOL     OW 6600   2.290   4.148   0.520
 2199SOL    HW1 6601   2.320   4.076   0.458
 2199SOL    HW2 6602   2.251   4.108   0.603
 2200SOL     OW 6603   2.179   4.271   1.280
 2200SOL    HW1 6604   2.217   4.212   1.352
 2200SOL    HW2 6605   2.219   4.245   1.192
 2201SOL     OW 6606   3.286   3.938   1.112
 2201SOL    HW1 6607   3.338   3.873   1.167
 2201SOL    HW2 6608   3.237   4.001   1.173
 2202SOL     OW 6609   2.863   3.758   1.154
 2202SOL    HW1 6610   2.800   3.686   1.123
 2202SOL    HW2 6611   2.956   3.722   1.154
 2203SOL     OW 6612   3.214   3.776   0.168
 2203SOL    HW1 6613   3.249   3.735   0.084
 2203SOL    HW2 6614   3.124   3.738   0.188
 2204SOL     OW 6615   3.162   4.177   0.691
 2204SOL    HW1 6616   3.103   4.257   0.695
 2204SOL    HW2 6617   3.177   4.142   0.784
 2205SOL     OW 6618   3.455   3.945   0.882
 2205SOL    HW1 6619   3.371   3.944   0.936
 2205SOL    HW2 6620   3.457   4.028   0.826
 2206SOL     OW 6621   2.087   3.999   2.858
 2206SOL    HW1 6622   2.122   3.982   2.950
 2206SOL    HW2 6623   1.999   3.954   2.846
 2207SOL     OW 6624   1.881   4.092   2.509
 2207SOL    HW1 6625   1.799   4.135   2.548
 2207SOL    HW2 6626   1.853   4.019   2.446
 2208SOL     OW 6627   3.617   4.331   2.093
 2208SOL    HW1 6628   3.605   4.318   1.994
 2208SOL    HW2 6629   3.587   4.250   2.142
 2209SOL     OW 6630   2.300   4.116   3.361
 2209SOL    HW1 6631   2.382   4.060   3.370
 2209SOL    HW2 6632   2.219   4.058   3.365
 2210SOL     OW 6633   3.465   4.171   2.599
 2210SOL    HW1 6634   3.391   4.217   2.549
 2210SOL    HW2 6635   3.516   4.239   2.652
 2211SOL     OW 6636   3.456   3.838   3.342
 2211SOL    HW1 6637   3.438   3.905   3.270
 2211SOL    HW2 6638   3.453   3.884   3.431
 2212SOL     OW 6639   1.984   4.367   2.425
 2212SOL    HW1 6640   1.939   4.279   2.442
 2212SOL    HW2 6641   1.983   4.421   2.509
 2213SOL     OW 6642   2.671   3.728   2.364
 2213SOL    HW1 6643   2.711   3.819   2.355
 2213SOL    HW2 6644   2.571   3.736   2.370
 2214SOL     OW 6645   2.179   3.975   3.663
 2214SOL    HW1 6646   2.250   4.046   3.669
 2214SOL    HW2 6647   2.091   4.014   3.691
 2215SOL     OW 6648   3.143   4.069   2.806
 2215SOL    HW1 6649   3.057   4.019   2.793
 2215SOL    HW2 6650   3.205   4.015   2.862
 2216SOL     OW 6651   2.669   4.329   3.327
 2216SOL    HW1 6652   2.622   4.326   3.416
 2216SOL    HW2 6653   2.618   4.274   3.261
 2217SOL     OW 6654   3.256   4.193   3.536
 2217SOL    HW1 6655   3.236   4.236   3.624
 2217SOL    HW2 6656   3.334   4.131   3.545
 2218SOL     OW 6657   2.853   4.134   3.104
 2218SOL    HW1 6658   2.776   4.168   3.158
 2218SOL    HW2 6659   2.819   4.083   3.025
 2219SOL     OW 6660   2.903   4.425   2.291
 2219SOL    HW1 6661   2.929   4.421   2.387
 2219SOL    HW2 6662   2.818   4.374   2.277
 2220SOL     OW 6663   1.938   4.535   2.651
 2220SOL    HW1 6664   2.037   4.523   2.660
 2220SOL    HW2 6665   1.914   4.630   2.672
 2221SOL     OW 6666   2.727   4.072   2.057
 2221SOL    HW1 6667   2.786   4.135   2.008
 2221SOL    HW2 6668   2.746   3.978   2.028
 2222SOL     OW 6669   3.581   4.309   3.693
 2222SOL    HW1 6670   3.555   4.398   3.657
 2222SOL    HW2 6671   3.579   4.241   3.620
 2223SOL     OW 6672   2.412   3.920   2.747
 2223SOL    HW1 6673   2.407   3.915   2.847
 2223SOL    HW2 6674   2.414   4.016   2.718
 2224SOL     OW 6675   3.320   4.459   2.590
 2224SOL    HW1 6676   3.315   4.394   2.665
 2224SOL    HW2 6677   3.400   4.518   2.603
 2225SOL     OW 6678   2.064   4.009   3.360
 2225SOL    HW1 6679   1.984   4.069   3.347
 2225SOL    HW2 6680   2.054   3.960   3.446
 2226SOL     OW 6681   3.262   3.831   2.288
 2226SOL    HW1 6682   3.238   3.794   2.198
 2226SOL    HW2 6683   3.361   3.847   2.292
 2227SOL     OW 6684   3.409   3.946   3.591
 2227SOL    HW1 6685   3.404   3.983   3.683
 2227SOL    HW2 6686   3.337   3.877   3.579
 2228SOL     OW 6687   2.476   3.846   1.979
 2228SOL    HW1 6688   2.574   3.824   1.986
 2228SOL    HW2 6689   2.445   3.829   1.886
 2229SOL     OW 6690   2.643   3.988   3.611
 2229SOL    HW1 6691   2.710   3.927   3.654
 2229SOL    HW2 6692   2.570   4.007   3.676
 2230SOL     OW 6693   3.213   4.314   3.295
 2230SOL    HW1 6694   3.241   4.271   3.380
 2230SOL    HW2 6695   3.238   4.410   3.296
 2231SOL     OW 6696   2.401   3.788   2.374
 2231SOL    HW1 6697   2.320   3.789   2.432
 2231SOL    HW2 6698   2.404   3.871   2.319
 2232SOL     OW 6699   2.159   3.759   2.033
 2232SOL    HW1 6700   2.208   3.843   2.012
 2232SOL    HW2 6701   2.221   3.694   2.078
 2233SOL     OW 6702   2.797   3.960   2.342
 2233SOL    HW1 6703   2.749   4.001   2.264
 2233SOL    HW2 6704   2.896   3.958   2.323
 2234SOL     OW 6705   1.940   4.280   3.248
 2234SOL    HW1 6706   2.032   4.279   3.207
 2234SOL    HW2 6707   1.934   4.354   3.315
 2235SOL     OW 6708   2.423   3.946   3.009
 2235SOL    HW1 6709   2.461   3.862   3.046
 2235SOL    HW2 6710   2.335   3.965   3.053
 2236SOL     OW 6711   2.879   3.763   2.615
 2236SOL    HW1 6712   2.807   3.768   2.546
 2236SOL    HW2 6713   2.855   3.694   2.684
 2237SOL     OW 6714   3.328   4.314   2.854
 2237SOL    HW1 6715   3.298   4.219   2.861
 2237SOL    HW2 6716   3.401   4.330   2.920
 2238SOL     OW 6717   2.389   3.980   2.190
 2238SOL    HW1 6718   2.416   3.921   2.115
 2238SOL    HW2 6719   2.389   4.075   2.159
 2239SOL     OW 6720   2.777   3.813   3.264
 2239SOL    HW1 6721   2.802   3.793   3.169
 2239SOL    HW2 6722   2.849   3.869   3.306
 2240SOL     OW 6723   3.136   4.110   3.124
 2240SOL    HW1 6724   3.157   4.184   3.188
 2240SOL    HW2 6725   3.047   4.127   3.081
 2241SOL     OW 6726   2.428   4.261   2.727
 2241SOL    HW1 6727   2.440   4.327   2.653
 2241SOL    HW2 6728   2.474   4.295   2.810
 2242SOL     OW 6729   2.875   3.829   3.632
 2242SOL    HW1 6730   2.881   3.914   3.580
 2242SOL    HW2 6731   2.907   3.753   3.575
 2243SOL     OW 6732   2.366   3.774   3.602
 2243SOL    HW1 6733   2.324   3.717   3.532
 2243SOL    HW2 6734   2.300   3.843   3.634
 2244SOL     OW 6735   3.071   4.249   2.137
 2244SOL    HW1 6736   3.084   4.165   2.191
 2244SOL    HW2 6737   3.042   4.323   2.197
 2245SOL     OW 6738   2.169   3.937   3.093
 2245SOL    HW1 6739   2.146   3.974   3.183
 2245SOL    HW2 6740   2.139   3.842   3.087
 2246SOL     OW 6741   2.594   4.358   2.926
 2246SOL    HW1 6742   2.653   4.332   2.850
 2246SOL    HW2 6743   2.566   4.454   2.915
 2247SOL     OW 6744   2.169   3.787   2.480
 2247SOL    HW1 6745   2.158   3.881   2.513
 2247SOL    HW2 6746   2.164   3.724   2.557
 2248SOL     OW 6747   3.484   4.091   2.236
 2248SOL    HW1 6748   3.486   4.015   2.300
 2248SOL    HW2 6749   3.436   4.168   2.276
 2249SOL     OW 6750   3.402   3.998   1.987
 2249SOL    HW1 6751   3.341   3.923   2.010
 2249SOL    HW2 6752   3.424   4.050   2.070
 2250SOL     OW 6753   2.201   4.233   2.868
 2250SOL    HW1 6754   2.149   4.150   2.851
 2250SOL    HW2 6755   2.278   4.238   2.804
 2251SOL     OW 6756   3.000   4.104   3.540
 2251SOL    HW1 6757   2.955   4.167   3.604
 2251SOL    HW2 6758   3.093   4.135   3.523
 2252SOL     OW 6759   3.022   3.931   3.339
 2252SOL    HW1 6760   3.022   3.995   3.416
 2252SOL    HW2 6761   3.050   3.979   3.256
 2253SOL     OW 6762   1.902   4.268   2.976
 2253SOL    HW1 6763   1.987   4.235   2.935
 2253SOL    HW2 6764   1.915   4.283   3.074
 2254SOL     OW 6765   2.051   4.244   3.584
 2254SOL    HW1 6766   2.110   4.204   3.514
 2254SOL    HW2 6767   1.993   4.315   3.543
 2255SOL     OW 6768   2.677   4.296   2.187
 2255SOL    HW1 6769   2.684   4.207   2.141
 2255SOL    HW2 6770   2.583   4.330   2.179
 2256SOL     OW 6771   3.519   4.328   3.068
 2256SOL    HW1 6772   3.481   4.259   3.130
 2256SOL    HW2 6773   3.601   4.292   3.024
 2257SOL     OW 6774   2.533   4.188   3.131
 2257SOL    HW1 6775   2.499   4.099   3.101
 2257SOL    HW2 6776   2.559   4.242   3.051
 2258SOL     OW 6777   3.588   3.859   2.385
 2258SOL    HW1 6778   3.661   3.842   2.318
 2258SOL    HW2 6779   3.557   3.772   2.423
 2259SOL     OW 6780   3.703   3.899   2.825
 2259SOL    HW1 6781   3.742   3.814   2.789
 2259SOL    HW2 6782   3.605   3.901   2.806
 2260SOL     OW 6783   2.125   4.050   2.582
 2260SOL    HW1 6784   2.046   4.101   2.548
 2260SOL    HW2 6785   2.116   4.035   2.680
 2261SOL     OW 6786   2.876   3.960   2.833
 2261SOL    HW1 6787   2.868   3.924   2.740
 2261SOL    HW2 6788   2.874   3.884   2.898
 2262SOL     OW 6789   3.571   4.109   3.243
 2262SOL    HW1 6790   3.644   4.178   3.247
 2262SOL    HW2 6791   3.599   4.034   3.184
 2263SOL     OW 6792   2.534   3.927   3.351
 2263SOL    HW1 6793   2.624   3.911   3.311
 2263SOL    HW2 6794   2.542   3.932   3.450
 2264SOL     OW 6795   1.937   4.069   1.895
 2264SOL    HW1 6796   1.845   4.041   1.866
 2264SOL    HW2 6797   1.968   4.146   1.839
 2265SOL     OW 6798   1.934   3.890   2.180
 2265SOL    HW1 6799   1.917   3.973   2.126
 2265SOL    HW2 6800   2.024   3.853   2.158
 2266SOL     OW 6801   2.578   4.289   3.570
 2266SOL    HW1 6802   2.597   4.354   3.644
 2266SOL    HW2 6803   2.638   4.209   3.579
 2267SOL     OW 6804   3.087   4.049   2.311
 2267SOL    HW1 6805   3.152   3.975   2.300
 2267SOL    HW2 6806   3.107   4.099   2.395
 2268SOL     OW 6807   3.639   4.066   3.504
 2268SOL    HW1 6808   3.622   4.097   3.410
 2268SOL    HW2 6809   3.555   4.029   3.542
 2269SOL     OW 6810   3.686   3.916   3.089
 2269SOL    HW1 6811   3.682   3.826   3.133
 2269SOL    HW2 6812   3.689   3.905   2.990
 2270SOL     OW 6813   2.290   4.148   2.382
 2270SOL    HW1 6814   2.320   4.076   2.320
 2270SOL    HW2 6815   2.251   4.108   2.465
 2271SOL     OW 6816   2.179   4.271   3.142
 2271SOL    HW1 6817   2.217   4.212   3.214
 2271SOL    HW2 6818   2.219   4.245   3.054
 2272SOL     OW 6819   3.286   3.938   2.974
 2272SOL    HW1 6820   3.338   3.873   3.029
 2272SOL    HW2 6821   3.237   4.001   3.035
 2273SOL     OW 6822   2.863   3.758   3.016
 2273SOL    HW1 6823   2.800   3.686   2.985
 2273SOL    HW2 6824   2.956   3.722   3.016
 2274SOL     OW 6825   3.214   3.776   2.030
 2274SOL    HW1 6826   3.249   3.735   1.946
 2274SOL    HW2 6827   3.124   3.738   2.050
 2275SOL     OW 6828   3.162   4.177   2.553
 2275SOL    HW1 6829   3.103   4.257   2.557
 2275SOL    HW2 6830   3.177   4.142   2.646
 2276SOL     OW 6831   3.455   3.945   2.744
 2276SOL    HW1 6832   3.371   3.944   2.798
 2276SOL    HW2 6833   3.457   4.028   2.688
 2277SOL     OW 6834   3.617   4.331   3.955
 2277SOL    HW1 6835   3.605   4.318   3.856
 2277SOL    HW2 6836   3.587   4.250   4.004
 2278SOL     OW 6837   1.984   4.367   4.287
 2278SOL    HW1 6838   1.939   4.279   4.304
 2278SOL    HW2 6839   1.983   4.421   4.371
 2279SOL     OW 6840   2.671   3.728   4.226
 2279SOL    HW1 6841   2.711   3.819   4.217
 2279SOL    HW2 6842   2.571   3.736   4.232
 2280SOL     OW 6843   2.903   4.425   4.153
 2280SOL    HW1 6844   2.929   4.421   4.249
 2280SOL    HW2 6845   2.818   4.374   4.139
 2281SOL     OW 6846   2.727   4.072   3.919
 2281SOL    HW1 6847   2.786   4.135   3.870
 2281SOL    HW2 6848   2.746   3.978   3.890
 2282SOL     OW 6849   3.262   3.831   4.150
 2282SOL    HW1 6850   3.238   3.794   4.060
 2282SOL    HW2 6851   3.361   3.847   4.154
 2283SOL     OW 6852   2.476   3.846   3.841
 2283SOL    HW1 6853   2.574   3.824   3.848
 2283SOL    HW2 6854   2.445   3.829   3.748
 2284SOL     OW 6855   2.401   3.788   4.236
 2284SOL    HW1 6856   2.320   3.789   4.294
 2284SOL    HW2 6857   2.404   3.871   4.181
 2285SOL     OW 6858   2.159   3.759   3.895
 2285SOL    HW1 6859   2.208   3.843   3.874
 2285SOL    HW2 6860   2.221   3.694   3.940
 2286SOL     OW 6861   2.797   3.960   4.204
 2286SOL    HW1 6862   2.749   4.001   4.126
 2286SOL    HW2 6863   2.896   3.958   4.185
 2287SOL     OW 6864   2.389   3.980   4.052
 2287SOL    HW1 6865   2.416   3.921   3.977
 2287SOL    HW2 6866   2.389   4.075   4.021
 2288SOL     OW 6867   3.071   4.249   3.999
 2288SOL    HW1 6868   3.084   4.165   4.053
 2288SOL    HW2 6869   3.042   4.323   4.059
 2289SOL     OW 6870   3.484   4.091   4.098
 2289SOL    HW1 6871   3.486   4.015   4.162
 2289SOL    HW2 6872   3.436   4.168   4.138
 2290SOL     OW 6873   3.402   3.998   3.849
 2290SOL    HW1 6874   3.341   3.923   3.872
 2290SOL    HW2 6875   3.424   4.050   3.932
 2291SOL     OW 6876   2.677   4.296   4.049
 2291SOL    HW1 6877   2.684   4.207   4.003
 2291SOL    HW2 6878   2.583   4.330   4.041
 2292SOL     OW 6879   3.588   3.859   4.247
 2292SOL    HW1 6880   3.661   3.842   4.180
 2292SOL    HW2 6881   3.557   3.772   4.285
 2293SOL     OW 6882   1.937   4.069   3.757
 2293SOL    HW1 6883   1.845   4.041   3.728
 2293SOL    HW2 6884   1.968   4.146   3.701
 2294SOL     OW 6885   1.934   3.890   4.042
 2294SOL    HW1 6886   1.917   3.973   3.988
 2294SOL    HW2 6887   2.024   3.853   4.020
 2295SOL     OW 6888   3.087   4.049   4.173
 2295SOL    HW1 6889   3.152   3.975   4.162
 2295SOL    HW2 6890   3.107   4.099   4.257
 2296SOL     OW 6891   2.290   4.148   4.244
 2296SOL    HW1 6892   2.320   4.076   4.182
 2296SOL    HW2 6893   2.251   4.108   4.327
 2297SOL     OW 6894   3.214   3.776   3.892
 2297SOL    HW1 6895   3.249   3.735   3.808
 2297SOL    HW2 6896   3.124   3.738   3.912
 2298SOL     OW 6897   3.162   4.177   4.415
 2298SOL    HW1 6898   3.103   4.257   4.419
 2298SOL    HW2 6899   3.177   4.142   4.508
 2299SOL     OW 6900   3.954   0.628   0.113
 2299SOL    HW1 6901   3.861   0.626   0.150
 2299SOL    HW2 6902   3.955   0.589   0.021
 2300SOL     OW 6903   3.949   0.275   0.996
 2300SOL    HW1 6904   3.984   0.258   1.088
 2300SOL    HW2 6905   3.861   0.230   0.984
 2301SOL     OW 6906   3.743   0.368   0.647
 2301SOL    HW1 6907   3.661   0.411   0.686
 2301SOL    HW2 6908   3.715   0.295   0.584
 2302SOL     OW 6909   4.574   0.798   1.823
 2302SOL    HW1 6910   4.570   0.874   1.888
 2302SOL    HW2 6911   4.596   0.834   1.732
 2303SOL     OW 6912   4.059   1.435   1.061
 2303SOL    HW1 6913   3.981   1.404   1.008
 2303SOL    HW2 6914   4.117   1.493   1.004
 2304SOL     OW 6915   4.162   0.392   1.499
 2304SOL    HW1 6916   4.244   0.336   1.508
 2304SOL    HW2 6917   4.081   0.334   1.503
 2305SOL     OW 6918   3.955   1.713   0.483
 2305SOL    HW1 6919   3.989   1.790   0.537
 2305SOL    HW2 6920   3.999   1.713   0.393
 2306SOL     OW 6921   3.954   1.434   0.538
 2306SOL    HW1 6922   3.928   1.530   0.538
 2306SOL    HW2 6923   3.883   1.380   0.583
 2307SOL     OW 6924   3.964   1.091   0.886
 2307SOL    HW1 6925   3.978   1.007   0.938
 2307SOL    HW2 6926   3.909   1.155   0.941
 2308SOL     OW 6927   3.846   0.643   0.563
 2308SOL    HW1 6928   3.801   0.555   0.580
 2308SOL    HW2 6929   3.845   0.697   0.647
 2309SOL     OW 6930   3.751   1.596   0.117
 2309SOL    HW1 6931   3.732   1.500   0.138
 2309SOL    HW2 6932   3.718   1.654   0.192
 2310SOL     OW 6933   3.837   0.737   1.597
 2310SOL    HW1 6934   3.925   0.724   1.642
 2310SOL    HW2 6935   3.824   0.834   1.575
 2311SOL     OW 6936   4.337   1.365   0.726
 2311SOL    HW1 6937   4.288   1.278   0.735
 2311SOL    HW2 6938   4.314   1.408   0.639
 2312SOL     OW 6939   3.921   0.976   1.264
 2312SOL    HW1 6940   4.010   0.931   1.250
 2312SOL    HW2 6941   3.848   0.911   1.245
 2313SOL     OW 6942   4.041   0.251   1.801
 2313SOL    HW1 6943   4.112   0.322   1.807
 2313SOL    HW2 6944   3.953   0.290   1.829
 2314SOL     OW 6945   3.800   0.811   0.789
 2314SOL    HW1 6946   3.899   0.799   0.798
 2314SOL    HW2 6947   3.776   0.906   0.810
 2315SOL     OW 6948   3.854   1.821   1.571
 2315SOL    HW1 6949   3.844   1.806   1.670
 2315SOL    HW2 6950   3.768   1.857   1.535
 2316SOL     OW 6951   4.589   0.348   0.195
 2316SOL    HW1 6952   4.648   0.411   0.146
 2316SOL    HW2 6953   4.608   0.254   0.166
 2317SOL     OW 6954   4.274   0.196   0.885
 2317SOL    HW1 6955   4.269   0.191   0.985
 2317SOL    HW2 6956   4.276   0.292   0.856
 2318SOL     OW 6957   4.075   1.801   0.853
 2318SOL    HW1 6958   4.125   1.715   0.859
 2318SOL    HW2 6959   4.140   1.878   0.850
 2319SOL     OW 6960   4.045   0.943   0.242
 2319SOL    HW1 6961   4.127   0.982   0.200
 2319SOL    HW2 6962   4.018   0.861   0.193
 2320SOL     OW 6963   4.185   1.266   1.727
 2320SOL    HW1 6964   4.135   1.267   1.641
 2320SOL    HW2 6965   4.122   1.248   1.803
 2321SOL     OW 6966   3.926   0.285   1.498
 2321SOL    HW1 6967   3.846   0.345   1.485
 2321SOL    HW2 6968   3.916   0.236   1.584
 2322SOL     OW 6969   4.188   1.743   0.323
 2322SOL    HW1 6970   4.221   1.782   0.409
 2322SOL    HW2 6971   4.264   1.736   0.258
 2323SOL     OW 6972   3.973   1.785   1.241
 2323SOL    HW1 6973   4.030   1.720   1.291
 2323SOL    HW2 6974   3.957   1.752   1.148
 2324SOL     OW 6975   4.106   0.700   0.480
 2324SOL    HW1 6976   4.151   0.610   0.477
 2324SOL    HW2 6977   4.012   0.689   0.513
 2325SOL     OW 6978   4.338   0.122   0.117
 2325SOL    HW1 6979   4.436   0.100   0.124
 2325SOL    HW2 6980   4.307   0.105   0.024
 2326SOL     OW 6981   4.263   0.064   0.512
 2326SOL    HW1 6982   4.182   0.065   0.570
 2326SOL    HW2 6983   4.266   0.147   0.457
 2327SOL     OW 6984   4.021   0.035   0.171
 2327SOL    HW1 6985   4.070   0.119   0.150
 2327SOL    HW2 6986   4.083  -0.030   0.216
 2328SOL     OW 6987   4.659   0.236   0.480
 2328SOL    HW1 6988   4.611   0.277   0.402
 2328SOL    HW2 6989   4.758   0.234   0.461
 2329SOL     OW 6990   4.183   1.152   0.741
 2329SOL    HW1 6991   4.112   1.125   0.806
 2329SOL    HW2 6992   4.157   1.124   0.648
 2330SOL     OW 6993   3.802   0.556   1.386
 2330SOL    HW1 6994   3.894   0.555   1.345
 2330SOL    HW2 6995   3.796   0.630   1.453
 2331SOL     OW 6996   4.285   0.222   1.147
 2331SOL    HW1 6997   4.323   0.138   1.184
 2331SOL    HW2 6998   4.197   0.241   1.191
 2332SOL     OW 6999   4.251   0.256   0.328
 2332SOL    HW1 7000   4.278   0.197   0.253
 2332SOL    HW2 7001   4.251   0.351   0.297
 2333SOL     OW 7002   4.704   1.116   1.719
 2333SOL    HW1 7003   4.605   1.122   1.729
 2333SOL    HW2 7004   4.727   1.036   1.663
 2334SOL     OW 7005   4.134   0.813   1.251
 2334SOL    HW1 7006   4.220   0.825   1.301
 2334SOL    HW2 7007   4.092   0.726   1.278
 2335SOL     OW 7008   3.788   1.564   1.331
 2335SOL    HW1 7009   3.742   1.646   1.297
 2335SOL    HW2 7010   3.886   1.583   1.340
 2336SOL     OW 7011   4.091   1.100   0.501
 2336SOL    HW1 7012   4.084   1.183   0.445
 2336SOL    HW2 7013   4.095   1.020   0.441
 2337SOL     OW 7014   4.290   0.537   0.865
 2337SOL    HW1 7015   4.302   0.603   0.791
 2337SOL    HW2 7016   4.336   0.571   0.948
 2338SOL     OW 7017   4.078   1.510   1.329
 2338SOL    HW1 7018   4.057   1.466   1.242
 2338SOL    HW2 7019   4.175   1.536   1.332
 2339SOL     OW 7020   4.126   0.751   1.598
 2339SOL    HW1 7021   4.194   0.806   1.551
 2339SOL    HW2 7022   4.166   0.663   1.625
 2340SOL     OW 7023   4.228   0.050   1.740
 2340SOL    HW1 7024   4.186  -0.007   1.670
 2340SOL    HW2 7025   4.162   0.119   1.772
 2341SOL     OW 7026   4.297   0.870   1.029
 2341SOL    HW1 7027   4.341   0.959   1.020
 2341SOL    HW2 7028   4.234   0.870   1.106
 2342SOL     OW 7029   4.031   0.213   1.231
 2342SOL    HW1 7030   4.008   0.250   1.321
 2342SOL    HW2 7031   4.001   0.118   1.225
 2343SOL     OW 7032   3.761   1.310   1.282
 2343SOL    HW1 7033   3.814   1.261   1.350
 2343SOL    HW2 7034   3.783   1.408   1.287
 2344SOL     OW 7035   4.031   0.063   0.618
 2344SOL    HW1 7036   4.020   0.157   0.651
 2344SOL    HW2 7037   4.026   0.000   0.695
 2345SOL     OW 7038   4.074   0.898   1.804
 2345SOL    HW1 7039   4.150   0.942   1.852
 2345SOL    HW2 7040   4.109   0.851   1.722
 2346SOL     OW 7041   4.043   0.810   0.949
 2346SOL    HW1 7042   4.136   0.846   0.954
 2346SOL    HW2 7043   4.037   0.725   1.001
 2347SOL     OW 7044   4.063   0.509   1.006
 2347SOL    HW1 7045   4.011   0.426   0.989
 2347SOL    HW2 7046   4.140   0.514   0.942
 2348SOL     OW 7047   3.732   1.326   0.200
 2348SOL    HW1 7048   3.639   1.347   0.169
 2348SOL    HW2 7049   3.742   1.227   0.213
 2349SOL     OW 7050   3.812   1.801   0.927
 2349SOL    HW1 7051   3.770   1.715   0.900
 2349SOL    HW2 7052   3.906   1.804   0.893
 2350SOL     OW 7053   4.228   1.568   0.910
 2350SOL    HW1 7054   4.294   1.642   0.919
 2350SOL    HW2 7055   4.272   1.489   0.868
 2351SOL     OW 7056   3.764   0.544   1.114
 2351SOL    HW1 7057   3.849   0.511   1.073
 2351SOL    HW2 7058   3.777   0.559   1.212
 2352SOL     OW 7059   3.913   0.520   1.722
 2352SOL    HW1 7060   3.972   0.480   1.652
 2352SOL    HW2 7061   3.855   0.591   1.681
 2353SOL     OW 7062   4.539   0.572   0.325
 2353SOL    HW1 7063   4.546   0.483   0.279
 2353SOL    HW2 7064   4.445   0.606   0.317
 2354SOL     OW 7065   3.976   1.564   1.744
 2354SOL    HW1 7066   3.946   1.621   1.820
 2354SOL    HW2 7067   3.969   1.467   1.770
 2355SOL     OW 7068   4.197   0.500   0.191
 2355SOL    HW1 7069   4.258   0.580   0.195
 2355SOL    HW2 7070   4.102   0.531   0.198
 2356SOL     OW 7071   3.883   1.137   1.466
 2356SOL    HW1 7072   3.905   1.076   1.542
 2356SOL    HW2 7073   3.893   1.088   1.380
 2357SOL     OW 7074   3.807   1.258   1.022
 2357SOL    HW1 7075   3.802   1.257   1.122
 2357SOL    HW2 7076   3.724   1.217   0.984
 2358SOL     OW 7077   4.412   1.662   1.716
 2358SOL    HW1 7078   4.356   1.743   1.725
 2358SOL    HW2 7079   4.464   1.666   1.630
 2359SOL     OW 7080   3.854   1.794   1.851
 2359SOL    HW1 7081   3.813   1.720   1.904
 2359SOL    HW2 7082   3.918   1.845   1.909
 2360SOL     OW 7083   3.987   0.326   0.720
 2360SOL    HW1 7084   3.908   0.377   0.686
 2360SOL    HW2 7085   3.978   0.311   0.818
 2361SOL     OW 7086   4.096   1.288   1.490
 2361SOL    HW1 7087   4.083   1.381   1.456
 2361SOL    HW2 7088   4.012   1.236   1.477
 2362SOL     OW 7089   4.314   1.487   0.491
 2362SOL    HW1 7090   4.356   1.429   0.421
 2362SOL    HW2 7091   4.270   1.566   0.447
 2363SOL     OW 7092   3.979   1.348   0.290
 2363SOL    HW1 7093   3.883   1.349   0.263
 2363SOL    HW2 7094   3.991   1.401   0.374
 2364SOL     OW 7095   3.829   1.013   1.726
 2364SOL    HW1 7096   3.752   0.980   1.780
 2364SOL    HW2 7097   3.914   0.983   1.768
 2365SOL     OW 7098   3.799   0.345   0.033
 2365SOL    HW1 7099   3.707   0.317   0.004
 2365SOL    HW2 7100   3.830   0.422  -0.023
 2366SOL     OW 7101   3.796   0.166   0.318
 2366SOL    HW1 7102   3.779   0.249   0.264
 2366SOL    HW2 7103   3.886   0.129   0.296
 2367SOL     OW 7104   4.337   0.842   1.431
 2367SOL    HW1 7105   4.393   0.923   1.414
 2367SOL    HW2 7106   4.396   0.762   1.434
 2368SOL     OW 7107   4.114   1.741   1.560
 2368SOL    HW1 7108   4.023   1.782   1.558
 2368SOL    HW2 7109   4.107   1.647   1.592
 2369SOL     OW 7110   4.318   0.745   0.652
 2369SOL    HW1 7111   4.368   0.830   0.633
 2369SOL    HW2 7112   4.230   0.747   0.604
 2370SOL     OW 7113   3.945   1.314   1.844
 2370SOL    HW1 7114   3.880   1.241   1.823
 2370SOL    HW2 7115   3.949   1.328   1.942
 2371SOL     OW 7116   3.803   1.240   0.653
 2371SOL    HW1 7117   3.802   1.193   0.741
 2371SOL    HW2 7118   3.885   1.212   0.602
 2372SOL     OW 7119   4.396   1.391   1.624
 2372SOL    HW1 7120   4.318   1.341   1.662
 2372SOL    HW2 7121   4.393   1.486   1.655
 2373SOL     OW 7122   4.152   0.424   0.520
 2373SOL    HW1 7123   4.182   0.352   0.458
 2373SOL    HW2 7124   4.113   0.384   0.603
 2374SOL     OW 7125   4.041   0.547   1.280
 2374SOL    HW1 7126   4.079   0.488   1.352
 2374SOL    HW2 7127   4.081   0.521   1.192
 2375SOL     OW 7128   3.763   1.077   0.300
 2375SOL    HW1 7129   3.862   1.066   0.291
 2375SOL    HW2 7130   3.723   0.991   0.332
 2376SOL     OW 7131   3.954   0.628   1.975
 2376SOL    HW1 7132   3.861   0.626   2.012
 2376SOL    HW2 7133   3.955   0.589   1.883
 2377SOL     OW 7134   3.949   0.275   2.858
 2377SOL    HW1 7135   3.984   0.258   2.950
 2377SOL    HW2 7136   3.861   0.230   2.846
 2378SOL     OW 7137   3.743   0.368   2.509
 2378SOL    HW1 7138   3.661   0.411   2.548
 2378SOL    HW2 7139   3.715   0.295   2.446
 2379SOL     OW 7140   4.574   0.798   3.685
 2379SOL    HW1 7141   4.570   0.874   3.750
 2379SOL    HW2 7142   4.596   0.834   3.594
 2380SOL     OW 7143   4.059   1.435   2.923
 2380SOL    HW1 7144   3.981   1.404   2.870
 2380SOL    HW2 7145   4.117   1.493   2.866
 2381SOL     OW 7146   4.162   0.392   3.361
 2381SOL    HW1 7147   4.244   0.336   3.370
 2381SOL    HW2 7148   4.081   0.334   3.365
 2382SOL     OW 7149   3.955   1.713   2.345
 2382SOL    HW1 7150   3.989   1.790   2.399
 2382SOL    HW2 7151   3.999   1.713   2.255
 2383SOL     OW 7152   3.954   1.434   2.400
 2383SOL    HW1 7153   3.928   1.530   2.400
 2383SOL    HW2 7154   3.883   1.380   2.445
 2384SOL     OW 7155   3.964   1.091   2.748
 2384SOL    HW1 7156   3.978   1.007   2.800
 2384SOL    HW2 7157   3.909   1.155   2.803
 2385SOL     OW 7158   3.846   0.643   2.425
 2385SOL    HW1 7159   3.801   0.555   2.442
 2385SOL    HW2 7160   3.845   0.697   2.509
 2386SOL     OW 7161   3.751   1.596   1.979
 2386SOL    HW1 7162   3.732   1.500   2.000
 2386SOL    HW2 7163   3.718   1.654   2.054
 2387SOL     OW 7164   3.837   0.737   3.459
 2387SOL    HW1 7165   3.925   0.724   3.504
 2387SOL    HW2 7166   3.824   0.834   3.437
 2388SOL     OW 7167   4.337   1.365   2.588
 2388SOL    HW1 7168   4.288   1.278   2.597
 2388SOL    HW2 7169   4.314   1.408   2.501
 2389SOL     OW 7170   3.921   0.976   3.126
 2389SOL    HW1 7171   4.010   0.931   3.112
 2389SOL    HW2 7172   3.848   0.911   3.107
 2390SOL     OW 7173   4.041   0.251   3.663
 2390SOL    HW1 7174   4.112   0.322   3.669
 2390SOL    HW2 7175   3.953   0.290   3.691
 2391SOL     OW 7176   4.322   0.729   2.132
 2391SOL    HW1 7177   4.346   0.798   2.064
 2391SOL    HW2 7178   4.244   0.762   2.186
 2392SOL     OW 7179   3.800   0.811   2.651
 2392SOL    HW1 7180   3.899   0.799   2.660
 2392SOL    HW2 7181   3.776   0.906   2.672
 2393SOL     OW 7182   3.854   1.821   3.433
 2393SOL    HW1 7183   3.844   1.806   3.532
 2393SOL    HW2 7184   3.768   1.857   3.397
 2394SOL     OW 7185   4.589   0.348   2.057
 2394SOL    HW1 7186   4.648   0.411   2.008
 2394SOL    HW2 7187   4.608   0.254   2.028
 2395SOL     OW 7188   4.274   0.196   2.747
 2395SOL    HW1 7189   4.269   0.191   2.847
 2395SOL    HW2 7190   4.276   0.292   2.718
 2396SOL     OW 7191   4.075   1.801   2.715
 2396SOL    HW1 7192   4.125   1.715   2.721
 2396SOL    HW2 7193   4.140   1.878   2.712
 2397SOL     OW 7194   4.045   0.943   2.104
 2397SOL    HW1 7195   4.127   0.982   2.062
 2397SOL    HW2 7196   4.018   0.861   2.055
 2398SOL     OW 7197   4.185   1.266   3.589
 2398SOL    HW1 7198   4.135   1.267   3.503
 2398SOL    HW2 7199   4.122   1.248   3.665
 2399SOL     OW 7200   3.926   0.285   3.360
 2399SOL    HW1 7201   3.846   0.345   3.347
 2399SOL    HW2 7202   3.916   0.236   3.446
 2400SOL     OW 7203   4.188   1.743   2.185
 2400SOL    HW1 7204   4.221   1.782   2.271
 2400SOL    HW2 7205   4.264   1.736   2.120
 2401SOL     OW 7206   3.973   1.785   3.103
 2401SOL    HW1 7207   4.030   1.720   3.153
 2401SOL    HW2 7208   3.957   1.752   3.010
 2402SOL     OW 7209   4.106   0.700   2.342
 2402SOL    HW1 7210   4.151   0.610   2.339
 2402SOL    HW2 7211   4.012   0.689   2.375
 2403SOL     OW 7212   4.338   0.122   1.979
 2403SOL    HW1 7213   4.436   0.100   1.986
 2403SOL    HW2 7214   4.307   0.105   1.886
 2404SOL     OW 7215   4.263   0.064   2.374
 2404SOL    HW1 7216   4.182   0.065   2.432
 2404SOL    HW2 7217   4.266   0.147   2.319
 2405SOL     OW 7218   4.021   0.035   2.033
 2405SOL    HW1 7219   4.070   0.119   2.012
 2405SOL    HW2 7220   4.083  -0.030   2.078
 2406SOL     OW 7221   4.659   0.236   2.342
 2406SOL    HW1 7222   4.611   0.277   2.264
 2406SOL    HW2 7223   4.758   0.234   2.323
 2407SOL     OW 7224   4.183   1.152   2.603
 2407SOL    HW1 7225   4.112   1.125   2.668
 2407SOL    HW2 7226   4.157   1.124   2.510
 2408SOL     OW 7227   3.802   0.556   3.248
 2408SOL    HW1 7228   3.894   0.555   3.207
 2408SOL    HW2 7229   3.796   0.630   3.315
 2409SOL     OW 7230   4.285   0.222   3.009
 2409SOL    HW1 7231   4.323   0.138   3.046
 2409SOL    HW2 7232   4.197   0.241   3.053
 2410SOL     OW 7233   4.251   0.256   2.190
 2410SOL    HW1 7234   4.278   0.197   2.115
 2410SOL    HW2 7235   4.251   0.351   2.159
 2411SOL     OW 7236   4.704   1.116   3.581
 2411SOL    HW1 7237   4.605   1.122   3.591
 2411SOL    HW2 7238   4.727   1.036   3.525
 2412SOL     OW 7239   4.134   0.813   3.113
 2412SOL    HW1 7240   4.220   0.825   3.163
 2412SOL    HW2 7241   4.092   0.726   3.140
 2413SOL     OW 7242   3.788   1.564   3.193
 2413SOL    HW1 7243   3.742   1.646   3.159
 2413SOL    HW2 7244   3.886   1.583   3.202
 2414SOL     OW 7245   4.091   1.100   2.363
 2414SOL    HW1 7246   4.084   1.183   2.307
 2414SOL    HW2 7247   4.095   1.020   2.303
 2415SOL     OW 7248   4.290   0.537   2.727
 2415SOL    HW1 7249   4.302   0.603   2.653
 2415SOL    HW2 7250   4.336   0.571   2.810
 2416SOL     OW 7251   4.078   1.510   3.191
 2416SOL    HW1 7252   4.057   1.466   3.104
 2416SOL    HW2 7253   4.175   1.536   3.194
 2417SOL     OW 7254   4.126   0.751   3.460
 2417SOL    HW1 7255   4.194   0.806   3.413
 2417SOL    HW2 7256   4.166   0.663   3.487
 2418SOL     OW 7257   4.228   0.050   3.602
 2418SOL    HW1 7258   4.186  -0.007   3.532
 2418SOL    HW2 7259   4.162   0.119   3.634
 2419SOL     OW 7260   4.297   0.870   2.891
 2419SOL    HW1 7261   4.341   0.959   2.882
 2419SOL    HW2 7262   4.234   0.870   2.968
 2420SOL     OW 7263   4.031   0.213   3.093
 2420SOL    HW1 7264   4.008   0.250   3.183
 2420SOL    HW2 7265   4.001   0.118   3.087
 2421SOL     OW 7266   3.761   1.310   3.144
 2421SOL    HW1 7267   3.814   1.261   3.212
 2421SOL    HW2 7268   3.783   1.408   3.149
 2422SOL     OW 7269   4.031   0.063   2.480
 2422SOL    HW1 7270   4.020   0.157   2.513
 2422SOL    HW2 7271   4.026   0.000   2.557
 2423SOL     OW 7272   4.074   0.898   3.666
 2423SOL    HW1 7273   4.150   0.942   3.714
 2423SOL    HW2 7274   4.109   0.851   3.584
 2424SOL     OW 7275   4.043   0.810   2.811
 2424SOL    HW1 7276   4.136   0.846   2.816
 2424SOL    HW2 7277   4.037   0.725   2.863
 2425SOL     OW 7278   4.063   0.509   2.868
 2425SOL    HW1 7279   4.011   0.426   2.851
 2425SOL    HW2 7280   4.140   0.514   2.804
 2426SOL     OW 7281   3.732   1.326   2.062
 2426SOL    HW1 7282   3.639   1.347   2.031
 2426SOL    HW2 7283   3.742   1.227   2.075
 2427SOL     OW 7284   3.812   1.801   2.789
 2427SOL    HW1 7285   3.770   1.715   2.762
 2427SOL    HW2 7286   3.906   1.804   2.755
 2428SOL     OW 7287   4.228   1.568   2.772
 2428SOL    HW1 7288   4.294   1.642   2.781
 2428SOL    HW2 7289   4.272   1.489   2.730
 2429SOL     OW 7290   3.764   0.544   2.976
 2429SOL    HW1 7291   3.849   0.511   2.935
 2429SOL    HW2 7292   3.777   0.559   3.074
 2430SOL     OW 7293   3.913   0.520   3.584
 2430SOL    HW1 7294   3.972   0.480   3.514
 2430SOL    HW2 7295   3.855   0.591   3.543
 2431SOL     OW 7296   4.539   0.572   2.187
 2431SOL    HW1 7297   4.546   0.483   2.141
 2431SOL    HW2 7298   4.445   0.606   2.179
 2432SOL     OW 7299   3.976   1.564   3.606
 2432SOL    HW1 7300   3.946   1.621   3.682
 2432SOL    HW2 7301   3.969   1.467   3.632
 2433SOL     OW 7302   4.197   0.500   2.053
 2433SOL    HW1 7303   4.258   0.580   2.057
 2433SOL    HW2 7304   4.102   0.531   2.060
 2434SOL     OW 7305   3.883   1.137   3.328
 2434SOL    HW1 7306   3.905   1.076   3.404
 2434SOL    HW2 7307   3.893   1.088   3.242
 2435SOL     OW 7308   3.807   1.258   2.884
 2435SOL    HW1 7309   3.802   1.257   2.984
 2435SOL    HW2 7310   3.724   1.217   2.846
 2436SOL     OW 7311   4.412   1.662   3.578
 2436SOL    HW1 7312   4.356   1.743   3.587
 2436SOL    HW2 7313   4.464   1.666   3.492
 2437SOL     OW 7314   3.854   1.794   3.713
 2437SOL    HW1 7315   3.813   1.720   3.766
 2437SOL    HW2 7316   3.918   1.845   3.771
 2438SOL     OW 7317   3.987   0.326   2.582
 2438SOL    HW1 7318   3.908   0.377   2.548
 2438SOL    HW2 7319   3.978   0.311   2.680
 2439SOL     OW 7320   4.096   1.288   3.352
 2439SOL    HW1 7321   4.083   1.381   3.318
 2439SOL    HW2 7322   4.012   1.236   3.339
 2440SOL     OW 7323   4.314   1.487   2.353
 2440SOL    HW1 7324   4.356   1.429   2.283
 2440SOL    HW2 7325   4.270   1.566   2.309
 2441SOL     OW 7326   3.979   1.348   2.152
 2441SOL    HW1 7327   3.883   1.349   2.125
 2441SOL    HW2 7328   3.991   1.401   2.236
 2442SOL     OW 7329   3.829   1.013   3.588
 2442SOL    HW1 7330   3.752   0.980   3.642
 2442SOL    HW2 7331   3.914   0.983   3.630
 2443SOL     OW 7332   3.799   0.345   1.895
 2443SOL    HW1 7333   3.707   0.317   1.866
 2443SOL    HW2 7334   3.830   0.422   1.839
 2444SOL     OW 7335   3.796   0.166   2.180
 2444SOL    HW1 7336   3.779   0.249   2.126
 2444SOL    HW2 7337   3.886   0.129   2.158
 2445SOL     OW 7338   4.337   0.842   3.293
 2445SOL    HW1 7339   4.393   0.923   3.276
 2445SOL    HW2 7340   4.396   0.762   3.296
 2446SOL     OW 7341   4.114   1.741   3.422
 2446SOL    HW1 7342   4.023   1.782   3.420
 2446SOL    HW2 7343   4.107   1.647   3.454
 2447SOL     OW 7344   4.318   0.745   2.514
 2447SOL    HW1 7345   4.368   0.830   2.495
 2447SOL    HW2 7346   4.230   0.747   2.466
 2448SOL     OW 7347   3.945   1.314   3.706
 2448SOL    HW1 7348   3.880   1.241   3.685
 2448SOL    HW2 7349   3.949   1.328   3.804
 2449SOL     OW 7350   3.803   1.240   2.515
 2449SOL    HW1 7351   3.802   1.193   2.603
 2449SOL    HW2 7352   3.885   1.212   2.464
 2450SOL     OW 7353   4.396   1.391   3.486
 2450SOL    HW1 7354   4.318   1.341   3.524
 2450SOL    HW2 7355   4.393   1.486   3.517
 2451SOL     OW 7356   4.152   0.424   2.382
 2451SOL    HW1 7357   4.182   0.352   2.320
 2451SOL    HW2 7358   4.113   0.384   2.465
 2452SOL     OW 7359   4.041   0.547   3.142
 2452SOL    HW1 7360   4.079   0.488   3.214
 2452SOL    HW2 7361   4.081   0.521   3.054
 2453SOL     OW 7362   3.763   1.077   2.162
 2453SOL    HW1 7363   3.862   1.066   2.153
 2453SOL    HW2 7364   3.723   0.991   2.194
 2454SOL     OW 7365   3.954   0.628   3.837
 2454SOL    HW1 7366   3.861   0.626   3.874
 2454SOL    HW2 7367   3.955   0.589   3.745
 2455SOL     OW 7368   3.955   1.713   4.207
 2455SOL    HW1 7369   3.989   1.790   4.261
 2455SOL    HW2 7370   3.999   1.713   4.117
 2456SOL     OW 7371   3.954   1.434   4.262
 2456SOL    HW1 7372   3.928   1.530   4.262
 2456SOL    HW2 7373   3.883   1.380   4.307
 2457SOL     OW 7374   3.846   0.643   4.287
 2457SOL    HW1 7375   3.801   0.555   4.304
 2457SOL    HW2 7376   3.845   0.697   4.371
 2458SOL     OW 7377   3.751   1.596   3.841
 2458SOL    HW1 7378   3.732   1.500   3.862
 2458SOL    HW2 7379   3.718   1.654   3.916
 2459SOL     OW 7380   4.322   0.729   3.994
 2459SOL    HW1 7381   4.346   0.798   3.926
 2459SOL    HW2 7382   4.244   0.762   4.048
 2460SOL     OW 7383   3.800   0.811   4.513
 2460SOL    HW1 7384   3.899   0.799   4.522
 2460SOL    HW2 7385   3.776   0.906   4.534
 2461SOL     OW 7386   4.589   0.348   3.919
 2461SOL    HW1 7387   4.648   0.411   3.870
 2461SOL    HW2 7388   4.608   0.254   3.890
 2462SOL     OW 7389   4.045   0.943   3.966
 2462SOL    HW1 7390   4.127   0.982   3.924
 2462SOL    HW2 7391   4.018   0.861   3.917
 2463SOL     OW 7392   4.188   1.743   4.047
 2463SOL    HW1 7393   4.221   1.782   4.133
 2463SOL    HW2 7394   4.264   1.736   3.982
 2464SOL     OW 7395   4.106   0.700   4.204
 2464SOL    HW1 7396   4.151   0.610   4.201
 2464SOL    HW2 7397   4.012   0.689   4.237
 2465SOL     OW 7398   4.338   0.122   3.841
 2465SOL    HW1 7399   4.436   0.100   3.848
 2465SOL    HW2 7400   4.307   0.105   3.748
 2466SOL     OW 7401   4.263   0.064   4.236
 2466SOL    HW1 7402   4.182   0.065   4.294
 2466SOL    HW2 7403   4.266   0.147   4.181
 2467SOL     OW 7404   4.021   0.035   3.895
 2467SOL    HW1 7405   4.070   0.119   3.874
 2467SOL    HW2 7406   4.083  -0.030   3.940
 2468SOL     OW 7407   4.659   0.236   4.204
 2468SOL    HW1 7408   4.611   0.277   4.126
 2468SOL    HW2 7409   4.758   0.234   4.185
 2469SOL     OW 7410   4.183   1.152   4.465
 2469SOL    HW1 7411   4.112   1.125   4.530
 2469SOL    HW2 7412   4.157   1.124   4.372
 2470SOL     OW 7413   4.251   0.256   4.052
 2470SOL    HW1 7414   4.278   0.197   3.977
 2470SOL    HW2 7415   4.251   0.351   4.021
 2471SOL     OW 7416   4.091   1.100   4.225
 2471SOL    HW1 7417   4.084   1.183   4.169
 2471SOL    HW2 7418   4.095   1.020   4.165
 2472SOL     OW 7419   3.732   1.326   3.924
 2472SOL    HW1 7420   3.639   1.347   3.893
 2472SOL    HW2 7421   3.742   1.227   3.937
 2473SOL     OW 7422   4.539   0.572   4.049
 2473SOL    HW1 7423   4.546   0.483   4.003
 2473SOL    HW2 7424   4.445   0.606   4.041
 2474SOL     OW 7425   4.197   0.500   3.915
 2474SOL    HW1 7426   4.258   0.580   3.919
 2474SOL    HW2 7427   4.102   0.531   3.922
 2475SOL     OW 7428   4.314   1.487   4.215
 2475SOL    HW1 7429   4.356   1.429   4.145
 2475SOL    HW2 7430   4.270   1.566   4.171
 2476SOL     OW 7431   3.979   1.348   4.014
 2476SOL    HW1 7432   3.883   1.349   3.987
 2476SOL    HW2 7433   3.991   1.401   4.098
 2477SOL     OW 7434   3.799   0.345   3.757
 2477SOL    HW1 7435   3.707   0.317   3.728
 2477SOL    HW2 7436   3.830   0.422   3.701
 2478SOL     OW 7437   3.796   0.166   4.042
 2478SOL    HW1 7438   3.779   0.249   3.988
 2478SOL    HW2 7439   3.886   0.129   4.020
 2479SOL     OW 7440   4.318   0.745   4.376
 2479SOL    HW1 7441   4.368   0.830   4.357
 2479SOL    HW2 7442   4.230   0.747   4.328
 2480SOL     OW 7443   4.152   0.424   4.244
 2480SOL    HW1 7444   4.182   0.352   4.182
 2480SOL    HW2 7445   4.113   0.384   4.327
 2481SOL     OW 7446   3.763   1.077   4.024
 2481SOL    HW1 7447   3.862   1.066   4.015
 2481SOL    HW2 7448   3.723   0.991   4.056
 2482SOL     OW 7449   3.954   2.490   0.113
 2482SOL    HW1 7450   3.861   2.488   0.150
 2482SOL    HW2 7451   3.955   2.451   0.021
 2483SOL     OW 7452   3.949   2.137   0.996
 2483SOL    HW1 7453   3.984   2.120   1.088
 2483SOL    HW2 7454   3.861   2.092   0.984
 2484SOL     OW 7455   3.743   2.230   0.647
 2484SOL    HW1 7456   3.661   2.273   0.686
 2484SOL    HW2 7457   3.715   2.157   0.584
 2485SOL     OW 7458   4.574   2.660   1.823
 2485SOL    HW1 7459   4.570   2.736   1.888
 2485SOL    HW2 7460   4.596   2.696   1.732
 2486SOL     OW 7461   4.059   3.297   1.061
 2486SOL    HW1 7462   3.981   3.266   1.008
 2486SOL    HW2 7463   4.117   3.355   1.004
 2487SOL     OW 7464   4.162   2.254   1.499
 2487SOL    HW1 7465   4.244   2.198   1.508
 2487SOL    HW2 7466   4.081   2.196   1.503
 2488SOL     OW 7467   3.955   3.575   0.483
 2488SOL    HW1 7468   3.989   3.652   0.537
 2488SOL    HW2 7469   3.999   3.575   0.393
 2489SOL     OW 7470   3.954   3.296   0.538
 2489SOL    HW1 7471   3.928   3.392   0.538
 2489SOL    HW2 7472   3.883   3.242   0.583
 2490SOL     OW 7473   3.964   2.953   0.886
 2490SOL    HW1 7474   3.978   2.869   0.938
 2490SOL    HW2 7475   3.909   3.017   0.941
 2491SOL     OW 7476   3.846   2.505   0.563
 2491SOL    HW1 7477   3.801   2.417   0.580
 2491SOL    HW2 7478   3.845   2.559   0.647
 2492SOL     OW 7479   3.751   3.458   0.117
 2492SOL    HW1 7480   3.732   3.362   0.138
 2492SOL    HW2 7481   3.718   3.516   0.192
 2493SOL     OW 7482   3.837   2.599   1.597
 2493SOL    HW1 7483   3.925   2.586   1.642
 2493SOL    HW2 7484   3.824   2.696   1.575
 2494SOL     OW 7485   4.337   3.227   0.726
 2494SOL    HW1 7486   4.288   3.140   0.735
 2494SOL    HW2 7487   4.314   3.270   0.639
 2495SOL     OW 7488   3.921   2.838   1.264
 2495SOL    HW1 7489   4.010   2.793   1.250
 2495SOL    HW2 7490   3.848   2.773   1.245
 2496SOL     OW 7491   4.041   2.113   1.801
 2496SOL    HW1 7492   4.112   2.184   1.807
 2496SOL    HW2 7493   3.953   2.152   1.829
 2497SOL     OW 7494   3.800   2.673   0.789
 2497SOL    HW1 7495   3.899   2.661   0.798
 2497SOL    HW2 7496   3.776   2.768   0.810
 2498SOL     OW 7497   3.854   3.683   1.571
 2498SOL    HW1 7498   3.844   3.668   1.670
 2498SOL    HW2 7499   3.768   3.719   1.535
 2499SOL     OW 7500   4.589   2.210   0.195
 2499SOL    HW1 7501   4.648   2.273   0.146
 2499SOL    HW2 7502   4.608   2.116   0.166
 2500SOL     OW 7503   4.274   2.058   0.885
 2500SOL    HW1 7504   4.269   2.053   0.985
 2500SOL    HW2 7505   4.276   2.154   0.856
 2501SOL     OW 7506   4.075   3.663   0.853
 2501SOL    HW1 7507   4.125   3.577   0.859
 2501SOL    HW2 7508   4.140   3.740   0.850
 2502SOL     OW 7509   4.045   2.805   0.242
 2502SOL    HW1 7510   4.127   2.844   0.200
 2502SOL    HW2 7511   4.018   2.723   0.193
 2503SOL     OW 7512   4.185   3.128   1.727
 2503SOL    HW1 7513   4.135   3.129   1.641
 2503SOL    HW2 7514   4.122   3.110   1.803
 2504SOL     OW 7515   3.926   2.147   1.498
 2504SOL    HW1 7516   3.846   2.207   1.485
 2504SOL    HW2 7517   3.916   2.098   1.584
 2505SOL     OW 7518   4.188   3.605   0.323
 2505SOL    HW1 7519   4.221   3.644   0.409
 2505SOL    HW2 7520   4.264   3.598   0.258
 2506SOL     OW 7521   3.973   3.647   1.241
 2506SOL    HW1 7522   4.030   3.582   1.291
 2506SOL    HW2 7523   3.957   3.614   1.148
 2507SOL     OW 7524   4.106   2.562   0.480
 2507SOL    HW1 7525   4.151   2.472   0.477
 2507SOL    HW2 7526   4.012   2.551   0.513
 2508SOL     OW 7527   4.338   1.984   0.117
 2508SOL    HW1 7528   4.436   1.962   0.124
 2508SOL    HW2 7529   4.307   1.967   0.024
 2509SOL     OW 7530   4.263   1.926   0.512
 2509SOL    HW1 7531   4.182   1.927   0.570
 2509SOL    HW2 7532   4.266   2.009   0.457
 2510SOL     OW 7533   4.021   1.897   0.171
 2510SOL    HW1 7534   4.070   1.981   0.150
 2510SOL    HW2 7535   4.083   1.832   0.216
 2511SOL     OW 7536   4.659   2.098   0.480
 2511SOL    HW1 7537   4.611   2.139   0.402
 2511SOL    HW2 7538   4.758   2.096   0.461
 2512SOL     OW 7539   4.183   3.014   0.741
 2512SOL    HW1 7540   4.112   2.987   0.806
 2512SOL    HW2 7541   4.157   2.986   0.648
 2513SOL     OW 7542   3.802   2.418   1.386
 2513SOL    HW1 7543   3.894   2.417   1.345
 2513SOL    HW2 7544   3.796   2.492   1.453
 2514SOL     OW 7545   4.285   2.084   1.147
 2514SOL    HW1 7546   4.323   2.000   1.184
 2514SOL    HW2 7547   4.197   2.103   1.191
 2515SOL     OW 7548   4.251   2.118   0.328
 2515SOL    HW1 7549   4.278   2.059   0.253
 2515SOL    HW2 7550   4.251   2.213   0.297
 2516SOL     OW 7551   4.704   2.978   1.719
 2516SOL    HW1 7552   4.605   2.984   1.729
 2516SOL    HW2 7553   4.727   2.898   1.663
 2517SOL     OW 7554   4.134   2.675   1.251
 2517SOL    HW1 7555   4.220   2.687   1.301
 2517SOL    HW2 7556   4.092   2.588   1.278
 2518SOL     OW 7557   3.788   3.426   1.331
 2518SOL    HW1 7558   3.742   3.508   1.297
 2518SOL    HW2 7559   3.886   3.445   1.340
 2519SOL     OW 7560   4.091   2.962   0.501
 2519SOL    HW1 7561   4.084   3.045   0.445
 2519SOL    HW2 7562   4.095   2.882   0.441
 2520SOL     OW 7563   4.290   2.399   0.865
 2520SOL    HW1 7564   4.302   2.465   0.791
 2520SOL    HW2 7565   4.336   2.433   0.948
 2521SOL     OW 7566   4.078   3.372   1.329
 2521SOL    HW1 7567   4.057   3.328   1.242
 2521SOL    HW2 7568   4.175   3.398   1.332
 2522SOL     OW 7569   4.126   2.613   1.598
 2522SOL    HW1 7570   4.194   2.668   1.551
 2522SOL    HW2 7571   4.166   2.525   1.625
 2523SOL     OW 7572   4.228   1.912   1.740
 2523SOL    HW1 7573   4.186   1.855   1.670
 2523SOL    HW2 7574   4.162   1.981   1.772
 2524SOL     OW 7575   4.297   2.732   1.029
 2524SOL    HW1 7576   4.341   2.821   1.020
 2524SOL    HW2 7577   4.234   2.732   1.106
 2525SOL     OW 7578   4.031   2.075   1.231
 2525SOL    HW1 7579   4.008   2.112   1.321
 2525SOL    HW2 7580   4.001   1.980   1.225
 2526SOL     OW 7581   3.761   3.172   1.282
 2526SOL    HW1 7582   3.814   3.123   1.350
 2526SOL    HW2 7583   3.783   3.270   1.287
 2527SOL     OW 7584   4.031   1.925   0.618
 2527SOL    HW1 7585   4.020   2.019   0.651
 2527SOL    HW2 7586   4.026   1.862   0.695
 2528SOL     OW 7587   4.074   2.760   1.804
 2528SOL    HW1 7588   4.150   2.804   1.852
 2528SOL    HW2 7589   4.109   2.713   1.722
 2529SOL     OW 7590   4.043   2.672   0.949
 2529SOL    HW1 7591   4.136   2.708   0.954
 2529SOL    HW2 7592   4.037   2.587   1.001
 2530SOL     OW 7593   4.063   2.371   1.006
 2530SOL    HW1 7594   4.011   2.288   0.989
 2530SOL    HW2 7595   4.140   2.376   0.942
 2531SOL     OW 7596   3.732   3.188   0.200
 2531SOL    HW1 7597   3.639   3.209   0.169
 2531SOL    HW2 7598   3.742   3.089   0.213
 2532SOL     OW 7599   3.812   3.663   0.927
 2532SOL    HW1 7600   3.770   3.577   0.900
 2532SOL    HW2 7601   3.906   3.666   0.893
 2533SOL     OW 7602   4.228   3.430   0.910
 2533SOL    HW1 7603   4.294   3.504   0.919
 2533SOL    HW2 7604   4.272   3.351   0.868
 2534SOL     OW 7605   3.764   2.406   1.114
 2534SOL    HW1 7606   3.849   2.373   1.073
 2534SOL    HW2 7607   3.777   2.421   1.212
 2535SOL     OW 7608   3.913   2.382   1.722
 2535SOL    HW1 7609   3.972   2.342   1.652
 2535SOL    HW2 7610   3.855   2.453   1.681
 2536SOL     OW 7611   4.539   2.434   0.325
 2536SOL    HW1 7612   4.546   2.345   0.279
 2536SOL    HW2 7613   4.445   2.468   0.317
 2537SOL     OW 7614   3.976   3.426   1.744
 2537SOL    HW1 7615   3.946   3.483   1.820
 2537SOL    HW2 7616   3.969   3.329   1.770
 2538SOL     OW 7617   4.197   2.362   0.191
 2538SOL    HW1 7618   4.258   2.442   0.195
 2538SOL    HW2 7619   4.102   2.393   0.198
 2539SOL     OW 7620   3.883   2.999   1.466
 2539SOL    HW1 7621   3.905   2.938   1.542
 2539SOL    HW2 7622   3.893   2.950   1.380
 2540SOL     OW 7623   3.807   3.120   1.022
 2540SOL    HW1 7624   3.802   3.119   1.122
 2540SOL    HW2 7625   3.724   3.079   0.984
 2541SOL     OW 7626   4.412   3.524   1.716
 2541SOL    HW1 7627   4.356   3.605   1.725
 2541SOL    HW2 7628   4.464   3.528   1.630
 2542SOL     OW 7629   3.854   3.656   1.851
 2542SOL    HW1 7630   3.813   3.582   1.904
 2542SOL    HW2 7631   3.918   3.707   1.909
 2543SOL     OW 7632   3.987   2.188   0.720
 2543SOL    HW1 7633   3.908   2.239   0.686
 2543SOL    HW2 7634   3.978   2.173   0.818
 2544SOL     OW 7635   4.096   3.150   1.490
 2544SOL    HW1 7636   4.083   3.243   1.456
 2544SOL    HW2 7637   4.012   3.098   1.477
 2545SOL     OW 7638   4.314   3.349   0.491
 2545SOL    HW1 7639   4.356   3.291   0.421
 2545SOL    HW2 7640   4.270   3.428   0.447
 2546SOL     OW 7641   3.979   3.210   0.290
 2546SOL    HW1 7642   3.883   3.211   0.263
 2546SOL    HW2 7643   3.991   3.263   0.374
 2547SOL     OW 7644   3.829   2.875   1.726
 2547SOL    HW1 7645   3.752   2.842   1.780
 2547SOL    HW2 7646   3.914   2.845   1.768
 2548SOL     OW 7647   3.799   2.207   0.033
 2548SOL    HW1 7648   3.707   2.179   0.004
 2548SOL    HW2 7649   3.830   2.284  -0.023
 2549SOL     OW 7650   3.796   2.028   0.318
 2549SOL    HW1 7651   3.779   2.111   0.264
 2549SOL    HW2 7652   3.886   1.991   0.296
 2550SOL     OW 7653   4.337   2.704   1.431
 2550SOL    HW1 7654   4.393   2.785   1.414
 2550SOL    HW2 7655   4.396   2.624   1.434
 2551SOL     OW 7656   4.114   3.603   1.560
 2551SOL    HW1 7657   4.023   3.644   1.558
 2551SOL    HW2 7658   4.107   3.509   1.592
 2552SOL     OW 7659   4.318   2.607   0.652
 2552SOL    HW1 7660   4.368   2.692   0.633
 2552SOL    HW2 7661   4.230   2.609   0.604
 2553SOL     OW 7662   3.945   3.176   1.844
 2553SOL    HW1 7663   3.880   3.103   1.823
 2553SOL    HW2 7664   3.949   3.190   1.942
 2554SOL     OW 7665   3.803   3.102   0.653
 2554SOL    HW1 7666   3.802   3.055   0.741
 2554SOL    HW2 7667   3.885   3.074   0.602
 2555SOL     OW 7668   4.396   3.253   1.624
 2555SOL    HW1 7669   4.318   3.203   1.662
 2555SOL    HW2 7670   4.393   3.348   1.655
 2556SOL     OW 7671   4.152   2.286   0.520
 2556SOL    HW1 7672   4.182   2.214   0.458
 2556SOL    HW2 7673   4.113   2.246   0.603
 2557SOL     OW 7674   4.041   2.409   1.280
 2557SOL    HW1 7675   4.079   2.350   1.352
 2557SOL    HW2 7676   4.081   2.383   1.192
 2558SOL     OW 7677   3.763   2.939   0.300
 2558SOL    HW1 7678   3.862   2.928   0.291
 2558SOL    HW2 7679   3.723   2.853   0.332
 2559SOL     OW 7680   3.954   2.490   1.975
 2559SOL    HW1 7681   3.861   2.488   2.012
 2559SOL    HW2 7682   3.955   2.451   1.883
 2560SOL     OW 7683   3.949   2.137   2.858
 2560SOL    HW1 7684   3.984   2.120   2.950
 2560SOL    HW2 7685   3.861   2.092   2.846
 2561SOL     OW 7686   3.743   2.230   2.509
 2561SOL    HW1 7687   3.661   2.273   2.548
 2561SOL    HW2 7688   3.715   2.157   2.446
 2562SOL     OW 7689   4.574   2.660   3.685
 2562SOL    HW1 7690   4.570   2.736   3.750
 2562SOL    HW2 7691   4.596   2.696   3.594
 2563SOL     OW 7692   4.059   3.297   2.923
 2563SOL    HW1 7693   3.981   3.266   2.870
 2563SOL    HW2 7694   4.117   3.355   2.866
 2564SOL     OW 7695   4.162   2.254   3.361
 2564SOL    HW1 7696   4.244   2.198   3.370
 2564SOL    HW2 7697   4.081   2.196   3.365
 2565SOL     OW 7698   3.955   3.575   2.345
 2565SOL    HW1 7699   3.989   3.652   2.399
 2565SOL    HW2 7700   3.999   3.575   2.255
 2566SOL     OW 7701   3.954   3.296   2.400
 2566SOL    HW1 7702   3.928   3.392   2.400
 2566SOL    HW2 7703   3.883   3.242   2.445
 2567SOL     OW 7704   3.964   2.953   2.748
 2567SOL    HW1 7705   3.978   2.869   2.800
 2567SOL    HW2 7706   3.909   3.017   2.803
 2568SOL     OW 7707   3.846   2.505   2.425
 2568SOL    HW1 7708   3.801   2.417   2.442
 2568SOL    HW2 7709   3.845   2.559   2.509
 2569SOL     OW 7710   3.751   3.458   1.979
 2569SOL    HW1 7711   3.732   3.362   2.000
 2569SOL    HW2 7712   3.718   3.516   2.054
 2570SOL     OW 7713   3.837   2.599   3.459
 2570SOL    HW1 7714   3.925   2.586   3.504
 2570SOL    HW2 7715   3.824   2.696   3.437
 2571SOL     OW 7716   4.337   3.227   2.588
 2571SOL    HW1 7717   4.288   3.140   2.597
 2571SOL    HW2 7718   4.314   3.270   2.501
 2572SOL     OW 7719   3.921   2.838   3.126
 2572SOL    HW1 7720   4.010   2.793   3.112
 2572SOL    HW2 7721   3.848   2.773   3.107
 2573SOL     OW 7722   4.041   2.113   3.663
 2573SOL    HW1 7723   4.112   2.184   3.669
 2573SOL    HW2 7724   3.953   2.152   3.691
 2574SOL     OW 7725   4.322   2.591   2.132
 2574SOL    HW1 7726   4.346   2.660   2.064
 2574SOL    HW2 7727   4.244   2.624   2.186
 2575SOL     OW 7728   3.800   2.673   2.651
 2575SOL    HW1 7729   3.899   2.661   2.660
 2575SOL    HW2 7730   3.776   2.768   2.672
 2576SOL     OW 7731   3.854   3.683   3.433
 2576SOL    HW1 7732   3.844   3.668   3.532
 2576SOL    HW2 7733   3.768   3.719   3.397
 2577SOL     OW 7734   4.589   2.210   2.057
 2577SOL    HW1 7735   4.648   2.273   2.008
 2577SOL    HW2 7736   4.608   2.116   2.028
 2578SOL     OW 7737   4.274   2.058   2.747
 2578SOL    HW1 7738   4.269   2.053   2.847
 2578SOL    HW2 7739   4.276   2.154   2.718
 2579SOL     OW 7740   4.075   3.663   2.715
 2579SOL    HW1 7741   4.125   3.577   2.721
 2579SOL    HW2 7742   4.140   3.740   2.712
 2580SOL     OW 7743   4.045   2.805   2.104
 2580SOL    HW1 7744   4.127   2.844   2.062
 2580SOL    HW2 7745   4.018   2.723   2.055
 2581SOL     OW 7746   4.185   3.128   3.589
 2581SOL    HW1 7747   4.135   3.129   3.503
 2581SOL    HW2 7748   4.122   3.110   3.665
 2582SOL     OW 7749   3.926   2.147   3.360
 2582SOL    HW1 7750   3.846   2.207   3.347
 2582SOL    HW2 7751   3.916   2.098   3.446
 2583SOL     OW 7752   4.188   3.605   2.185
 2583SOL    HW1 7753   4.221   3.644   2.271
 2583SOL    HW2 7754   4.264   3.598   2.120
 2584SOL     OW 7755   3.973   3.647   3.103
 2584SOL    HW1 7756   4.030   3.582   3.153
 2584SOL    HW2 7757   3.957   3.614   3.010
 2585SOL     OW 7758   4.106   2.562   2.342
 2585SOL    HW1 7759   4.151   2.472   2.339
 2585SOL    HW2 7760   4.012   2.551   2.375
 2586SOL     OW 7761   4.338   1.984   1.979
 2586SOL    HW1 7762   4.436   1.962   1.986
 2586SOL    HW2 7763   4.307   1.967   1.886
 2587SOL     OW 7764   4.263   1.926   2.374
 2587SOL    HW1 7765   4.182   1.927   2.432
 2587SOL    HW2 7766   4.266   2.009   2.319
 2588SOL     OW 7767   4.021   1.897   2.033
 2588SOL    HW1 7768   4.070   1.981   2.012
 2588SOL    HW2 7769   4.083   1.832   2.078
 2589SOL     OW 7770   4.659   2.098   2.342
 2589SOL    HW1 7771   4.611   2.139   2.264
 2589SOL    HW2 7772   4.758   2.096   2.323
 2590SOL     OW 7773   4.183   3.014   2.603
 2590SOL    HW1 7774   4.112   2.987   2.668
 2590SOL    HW2 7775   4.157   2.986   2.510
 2591SOL     OW 7776   3.802   2.418   3.248
 2591SOL    HW1 7777   3.894   2.417   3.207
 2591SOL    HW2 7778   3.796   2.492   3.315
 2592SOL     OW 7779   4.285   2.084   3.009
 2592SOL    HW1 7780   4.323   2.000   3.046
 2592SOL    HW2 7781   4.197   2.103   3.053
 2593SOL     OW 7782   4.251   2.118   2.190
 2593SOL    HW1 7783   4.278   2.059   2.115
 2593SOL    HW2 7784   4.251   2.213   2.159
 2594SOL     OW 7785   4.704   2.978   3.581
 2594SOL    HW1 7786   4.605   2.984   3.591
 2594SOL    HW2 7787   4.727   2.898   3.525
 2595SOL     OW 7788   4.134   2.675   3.113
 2595SOL    HW1 7789   4.220   2.687   3.163
 2595SOL    HW2 7790   4.092   2.588   3.140
 2596SOL     OW 7791   3.788   3.426   3.193
 2596SOL    HW1 7792   3.742   3.508   3.159
 2596SOL    HW2 7793   3.886   3.445   3.202
 2597SOL     OW 7794   4.091   2.962   2.363
 2597SOL    HW1 7795   4.084   3.045   2.307
 2597SOL    HW2 7796   4.095   2.882   2.303
 2598SOL     OW 7797   4.290   2.399   2.727
 2598SOL    HW1 7798   4.302   2.465   2.653
 2598SOL    HW2 7799   4.336   2.433   2.810
 2599SOL     OW 7800   4.078   3.372   3.191
 2599SOL    HW1 7801   4.057   3.328   3.104
 2599SOL    HW2 7802   4.175   3.398   3.194
 2600SOL     OW 7803   4.126   2.613   3.460
 2600SOL    HW1 7804   4.194   2.668   3.413
 2600SOL    HW2 7805   4.166   2.525   3.487
 2601SOL     OW 7806   4.228   1.912   3.602
 2601SOL    HW1 7807   4.186   1.855   3.532
 2601SOL    HW2 7808   4.162   1.981   3.634
 2602SOL     OW 7809   4.297   2.732   2.891
 2602SOL    HW1 7810   4.341   2.821   2.882
 2602SOL    HW2 7811   4.234   2.732   2.968
 2603SOL     OW 7812   4.031   2.075   3.093
 2603SOL    HW1 7813   4.008   2.112   3.183
 2603SOL    HW2 7814   4.001   1.980   3.087
 2604SOL     OW 7815   3.761   3.172   3.144
 2604SOL    HW1 7816   3.814   3.123   3.212
 2604SOL    HW2 7817   3.783   3.270   3.149
 2605SOL     OW 7818   4.031   1.925   2.480
 2605SOL    HW1 7819   4.020   2.019   2.513
 2605SOL    HW2 7820   4.026   1.862   2.557
 2606SOL     OW 7821   4.074   2.760   3.666
 2606SOL    HW1 7822   4.150   2.804   3.714
 2606SOL    HW2 7823   4.109   2.713   3.584
 2607SOL     OW 7824   4.043   2.672   2.811
 2607SOL    HW1 7825   4.136   2.708   2.816
 2607SOL    HW2 7826   4.037   2.587   2.863
 2608SOL     OW 7827   4.063   2.371   2.868
 2608SOL    HW1 7828   4.011   2.288   2.851
 2608SOL    HW2 7829   4.140   2.376   2.804
 2609SOL     OW 7830   3.732   3.188   2.062
 2609SOL    HW1 7831   3.639   3.209   2.031
 2609SOL    HW2 7832   3.742   3.089   2.075
 2610SOL     OW 7833   3.812   3.663   2.789
 2610SOL    HW1 7834   3.770   3.577   2.762
 2610SOL    HW2 7835   3.906   3.666   2.755
 2611SOL     OW 7836   4.228   3.430   2.772
 2611SOL    HW1 7837   4.294   3.504   2.781
 2611SOL    HW2 7838   4.272   3.351   2.730
 2612SOL     OW 7839   3.764   2.406   2.976
 2612SOL    HW1 7840   3.849   2.373   2.935
 2612SOL    HW2 7841   3.777   2.421   3.074
 2613SOL     OW 7842   3.913   2.382   3.584
 2613SOL    HW1 7843   3.972   2.342   3.514
 2613SOL    HW2 7844   3.855   2.453   3.543
 2614SOL     OW 7845   4.539   2.434   2.187
 2614SOL    HW1 7846   4.546   2.345   2.141
 2614SOL    HW2 7847   4.445   2.468   2.179
 2615SOL     OW 7848   3.976   3.426   3.606
 2615SOL    HW1 7849   3.946   3.483   3.682
 2615SOL    HW2 7850   3.969   3.329   3.632
 2616SOL     OW 7851   4.197   2.362   2.053
 2616SOL    HW1 7852   4.258   2.442   2.057
 2616SOL    HW2 7853   4.102   2.393   2.060
 2617SOL     OW 7854   3.883   2.999   3.328
 2617SOL    HW1 7855   3.905   2.938   3.404
 2617SOL    HW2 7856   3.893   2.950   3.242
 2618SOL     OW 7857   3.807   3.120   2.884
 2618SOL    HW1 7858   3.802   3.119   2.984
 2618SOL    HW2 7859   3.724   3.079   2.846
 2619SOL     OW 7860   4.412   3.524   3.578
 2619SOL    HW1 7861   4.356   3.605   3.587
 2619SOL    HW2 7862   4.464   3.528   3.492
 2620SOL     OW 7863   3.854   3.656   3.713
 2620SOL    HW1 7864   3.813   3.582   3.766
 2620SOL    HW2 7865   3.918   3.707   3.771
 2621SOL     OW 7866   3.987   2.188   2.582
 2621SOL    HW1 7867   3.908   2.239   2.548
 2621SOL    HW2 7868   3.978   2.173   2.680
 2622SOL     OW 7869   4.096   3.150   3.352
 2622SOL    HW1 7870   4.083   3.243   3.318
 2622SOL    HW2 7871   4.012   3.098   3.339
 2623SOL     OW 7872   4.314   3.349   2.353
 2623SOL    HW1 7873   4.356   3.291   2.283
 2623SOL    HW2 7874   4.270   3.428   2.309
 2624SOL     OW 7875   3.979   3.210   2.152
 2624SOL    HW1 7876   3.883   3.211   2.125
 2624SOL    HW2 7877   3.991   3.263   2.236
 2625SOL     OW 7878   3.829   2.875   3.588
 2625SOL    HW1 7879   3.752   2.842   3.642
 2625SOL    HW2 7880   3.914   2.845   3.630
 2626SOL     OW 7881   3.799   2.207   1.895
 2626SOL    HW1 7882   3.707   2.179   1.866
 2626SOL    HW2 7883   3.830   2.284   1.839
 2627SOL     OW 7884   3.796   2.028   2.180
 2627SOL    HW1 7885   3.779   2.111   2.126
 2627SOL    HW2 7886   3.886   1.991   2.158
 2628SOL     OW 7887   4.337   2.704   3.293
 2628SOL    HW1 7888   4.393   2.785   3.276
 2628SOL    HW2 7889   4.396   2.624   3.296
 2629SOL     OW 7890   4.114   3.603   3.422
 2629SOL    HW1 7891   4.023   3.644   3.420
 2629SOL    HW2 7892   4.107   3.509   3.454
 2630SOL     OW 7893   4.318   2.607   2.514
 2630SOL    HW1 7894   4.368   2.692   2.495
 2630SOL    HW2 7895   4.230   2.609   2.466
 2631SOL     OW 7896   3.945   3.176   3.706
 2631SOL    HW1 7897   3.880   3.103   3.685
 2631SOL    HW2 7898   3.949   3.190   3.804
 2632SOL     OW 7899   3.803   3.102   2.515
 2632SOL    HW1 7900   3.802   3.055   2.603
 2632SOL    HW2 7901   3.885   3.074   2.464
 2633SOL     OW 7902   4.396   3.253   3.486
 2633SOL    HW1 7903   4.318   3.203   3.524
 2633SOL    HW2 7904   4.393   3.348   3.517
 2634SOL     OW 7905   4.152   2.286   2.382
 2634SOL    HW1 7906   4.182   2.214   2.320
 2634SOL    HW2 7907   4.113   2.246   2.465
 2635SOL     OW 7908   4.041   2.409   3.142
 2635SOL    HW1 7909   4.079   2.350   3.214
 2635SOL    HW2 7910   4.081   2.383   3.054
 2636SOL     OW 7911   3.763   2.939   2.162
 2636SOL    HW1 7912   3.862   2.928   2.153
 2636SOL    HW2 7913   3.723   2.853   2.194
 2637SOL     OW 7914   3.954   2.490   3.837
 2637SOL    HW1 7915   3.861   2.488   3.874
 2637SOL    HW2 7916   3.955   2.451   3.745
 2638SOL     OW 7917   3.955   3.575   4.207
 2638SOL    HW1 7918   3.989   3.652   4.261
 2638SOL    HW2 7919   3.999   3.575   4.117
 2639SOL     OW 7920   3.954   3.296   4.262
 2639SOL    HW1 7921   3.928   3.392   4.262
 2639SOL    HW2 7922   3.883   3.242   4.307
 2640SOL     OW 7923   3.846   2.505   4.287
 2640SOL    HW1 7924   3.801   2.417   4.304
 2640SOL    HW2 7925   3.845   2.559   4.371
 2641SOL     OW 7926   3.751   3.458   3.841
 2641SOL    HW1 7927   3.732   3.362   3.862
 2641SOL    HW2 7928   3.718   3.516   3.916
 2642SOL     OW 7929   4.322   2.591   3.994
 2642SOL    HW1 7930   4.346   2.660   3.926
 2642SOL    HW2 7931   4.244   2.624   4.048
 2643SOL     OW 7932   3.800   2.673   4.513
 2643SOL    HW1 7933   3.899   2.661   4.522
 2643SOL    HW2 7934   3.776   2.768   4.534
 2644SOL     OW 7935   4.589   2.210   3.919
 2644SOL    HW1 7936   4.648   2.273   3.870
 2644SOL    HW2 7937   4.608   2.116   3.890
 2645SOL     OW 7938   4.045   2.805   3.966
 2645SOL    HW1 7939   4.127   2.844   3.924
 2645SOL    HW2 7940   4.018   2.723   3.917
 2646SOL     OW 7941   4.188   3.605   4.047
 2646SOL    HW1 7942   4.221   3.644   4.133
 2646SOL    HW2 7943   4.264   3.598   3.982
 2647SOL     OW 7944   4.106   2.562   4.204
 2647SOL    HW1 7945   4.151   2.472   4.201
 2647SOL    HW2 7946   4.012   2.551   4.237
 2648SOL     OW 7947   4.338   1.984   3.841
 2648SOL    HW1 7948   4.436   1.962   3.848
 2648SOL    HW2 7949   4.307   1.967   3.748
 2649SOL     OW 7950   4.263   1.926   4.236
 2649SOL    HW1 7951   4.182   1.927   4.294
 2649SOL    HW2 7952   4.266   2.009   4.181
 2650SOL     OW 7953   4.021   1.897   3.895
 2650SOL    HW1 7954   4.070   1.981   3.874
 2650SOL    HW2 7955   4.083   1.832   3.940
 2651SOL     OW 7956   4.659   2.098   4.204
 2651SOL    HW1 7957   4.611   2.139   4.126
 2651SOL    HW2 7958   4.758   2.096   4.185
 2652SOL     OW 7959   4.183   3.014   4.465
 2652SOL    HW1 7960   4.112   2.987   4.530
 2652SOL    HW2 7961   4.157   2.986   4.372
 2653SOL     OW 7962   4.251   2.118   4.052
 2653SOL    HW1 7963   4.278   2.059   3.977
 2653SOL    HW2 7964   4.251   2.213   4.021
 2654SOL     OW 7965   4.091   2.962   4.225
 2654SOL    HW1 7966   4.084   3.045   4.169
 2654SOL    HW2 7967   4.095   2.882   4.165
 2655SOL     OW 7968   3.732   3.188   3.924
 2655SOL    HW1 7969   3.639   3.209   3.893
 2655SOL    HW2 7970   3.742   3.089   3.937
 2656SOL     OW 7971   4.539   2.434   4.049
 2656SOL    HW1 7972   4.546   2.345   4.003
 2656SOL    HW2 7973   4.445   2.468   4.041
 2657SOL     OW 7974   4.197   2.362   3.915
 2657SOL    HW1 7975   4.258   2.442   3.919
 2657SOL    HW2 7976   4.102   2.393   3.922
 2658SOL     OW 7977   4.314   3.349   4.215
 2658SOL    HW1 7978   4.356   3.291   4.145
 2658SOL    HW2 7979   4.270   3.428   4.171
 2659SOL     OW 7980   3.979   3.210   4.014
 2659SOL    HW1 7981   3.883   3.211   3.987
 2659SOL    HW2 7982   3.991   3.263   4.098
 2660SOL     OW 7983   3.799   2.207   3.757
 2660SOL    HW1 7984   3.707   2.179   3.728
 2660SOL    HW2 7985   3.830   2.284   3.701
 2661SOL     OW 7986   3.796   2.028   4.042
 2661SOL    HW1 7987   3.779   2.111   3.988
 2661SOL    HW2 7988   3.886   1.991   4.020
 2662SOL     OW 7989   4.318   2.607   4.376
 2662SOL    HW1 7990   4.368   2.692   4.357
 2662SOL    HW2 7991   4.230   2.609   4.328
 2663SOL     OW 7992   4.152   2.286   4.244
 2663SOL    HW1 7993   4.182   2.214   4.182
 2663SOL    HW2 7994   4.113   2.246   4.327
 2664SOL     OW 7995   3.763   2.939   4.024
 2664SOL    HW1 7996   3.862   2.928   4.015
 2664SOL    HW2 7997   3.723   2.853   4.056
 2665SOL     OW 7998   3.949   3.999   0.996
 2665SOL    HW1 7999   3.984   3.982   1.088
 2665SOL    HW2 8000   3.861   3.954   0.984
 2666SOL     OW 8001   3.743   4.092   0.647
 2666SOL    HW1 8002   3.661   4.135   0.686
 2666SOL    HW2 8003   3.715   4.019   0.584
 2667SOL     OW 8004   4.162   4.116   1.499
 2667SOL    HW1 8005   4.244   4.060   1.508
 2667SOL    HW2 8006   4.081   4.058   1.503
 2668SOL     OW 8007   3.846   4.367   0.563
 2668SOL    HW1 8008   3.801   4.279   0.580
 2668SOL    HW2 8009   3.845   4.421   0.647
 2669SOL     OW 8010   4.041   3.975   1.801
 2669SOL    HW1 8011   4.112   4.046   1.807
 2669SOL    HW2 8012   3.953   4.014   1.829
 2670SOL     OW 8013   3.800   4.535   0.789
 2670SOL    HW1 8014   3.899   4.523   0.798
 2670SOL    HW2 8015   3.776   4.630   0.810
 2671SOL     OW 8016   4.589   4.072   0.195
 2671SOL    HW1 8017   4.648   4.135   0.146
 2671SOL    HW2 8018   4.608   3.978   0.166
 2672SOL     OW 8019   4.274   3.920   0.885
 2672SOL    HW1 8020   4.269   3.915   0.985
 2672SOL    HW2 8021   4.276   4.016   0.856
 2673SOL     OW 8022   3.926   4.009   1.498
 2673SOL    HW1 8023   3.846   4.069   1.485
 2673SOL    HW2 8024   3.916   3.960   1.584
 2674SOL     OW 8025   4.338   3.846   0.117
 2674SOL    HW1 8026   4.436   3.824   0.124
 2674SOL    HW2 8027   4.307   3.829   0.024
 2675SOL     OW 8028   4.263   3.788   0.512
 2675SOL    HW1 8029   4.182   3.789   0.570
 2675SOL    HW2 8030   4.266   3.871   0.457
 2676SOL     OW 8031   4.021   3.759   0.171
 2676SOL    HW1 8032   4.070   3.843   0.150
 2676SOL    HW2 8033   4.083   3.694   0.216
 2677SOL     OW 8034   4.659   3.960   0.480
 2677SOL    HW1 8035   4.611   4.001   0.402
 2677SOL    HW2 8036   4.758   3.958   0.461
 2678SOL     OW 8037   3.802   4.280   1.386
 2678SOL    HW1 8038   3.894   4.279   1.345
 2678SOL    HW2 8039   3.796   4.354   1.453
 2679SOL     OW 8040   4.285   3.946   1.147
 2679SOL    HW1 8041   4.323   3.862   1.184
 2679SOL    HW2 8042   4.197   3.965   1.191
 2680SOL     OW 8043   4.251   3.980   0.328
 2680SOL    HW1 8044   4.278   3.921   0.253
 2680SOL    HW2 8045   4.251   4.075   0.297
 2681SOL     OW 8046   4.290   4.261   0.865
 2681SOL    HW1 8047   4.302   4.327   0.791
 2681SOL    HW2 8048   4.336   4.295   0.948
 2682SOL     OW 8049   4.228   3.774   1.740
 2682SOL    HW1 8050   4.186   3.717   1.670
 2682SOL    HW2 8051   4.162   3.843   1.772
 2683SOL     OW 8052   4.031   3.937   1.231
 2683SOL    HW1 8053   4.008   3.974   1.321
 2683SOL    HW2 8054   4.001   3.842   1.225
 2684SOL     OW 8055   4.031   3.787   0.618
 2684SOL    HW1 8056   4.020   3.881   0.651
 2684SOL    HW2 8057   4.026   3.724   0.695
 2685SOL     OW 8058   4.063   4.233   1.006
 2685SOL    HW1 8059   4.011   4.150   0.989
 2685SOL    HW2 8060   4.140   4.238   0.942
 2686SOL     OW 8061   3.764   4.268   1.114
 2686SOL    HW1 8062   3.849   4.235   1.073
 2686SOL    HW2 8063   3.777   4.283   1.212
 2687SOL     OW 8064   3.913   4.244   1.722
 2687SOL    HW1 8065   3.972   4.204   1.652
 2687SOL    HW2 8066   3.855   4.315   1.681
 2688SOL     OW 8067   4.539   4.296   0.325
 2688SOL    HW1 8068   4.546   4.207   0.279
 2688SOL    HW2 8069   4.445   4.330   0.317
 2689SOL     OW 8070   3.987   4.050   0.720
 2689SOL    HW1 8071   3.908   4.101   0.686
 2689SOL    HW2 8072   3.978   4.035   0.818
 2690SOL     OW 8073   3.799   4.069   0.033
 2690SOL    HW1 8074   3.707   4.041   0.004
 2690SOL    HW2 8075   3.830   4.146  -0.023
 2691SOL     OW 8076   3.796   3.890   0.318
 2691SOL    HW1 8077   3.779   3.973   0.264
 2691SOL    HW2 8078   3.886   3.853   0.296
 2692SOL     OW 8079   4.337   4.566   1.431
 2692SOL    HW1 8080   4.393   4.647   1.414
 2692SOL    HW2 8081   4.396   4.486   1.434
 2693SOL     OW 8082   4.152   4.148   0.520
 2693SOL    HW1 8083   4.182   4.076   0.458
 2693SOL    HW2 8084   4.113   4.108   0.603
 2694SOL     OW 8085   4.041   4.271   1.280
 2694SOL    HW1 8086   4.079   4.212   1.352
 2694SOL    HW2 8087   4.081   4.245   1.192
 2695SOL     OW 8088   3.949   3.999   2.858
 2695SOL    HW1 8089   3.984   3.982   2.950
 2695SOL    HW2 8090   3.861   3.954   2.846
 2696SOL     OW 8091   3.743   4.092   2.509
 2696SOL    HW1 8092   3.661   4.135   2.548
 2696SOL    HW2 8093   3.715   4.019   2.446
 2697SOL     OW 8094   4.162   4.116   3.361
 2697SOL    HW1 8095   4.244   4.060   3.370
 2697SOL    HW2 8096   4.081   4.058   3.365
 2698SOL     OW 8097   3.846   4.367   2.425
 2698SOL    HW1 8098   3.801   4.279   2.442
 2698SOL    HW2 8099   3.845   4.421   2.509
 2699SOL     OW 8100   4.041   3.975   3.663
 2699SOL    HW1 8101   4.112   4.046   3.669
 2699SOL    HW2 8102   3.953   4.014   3.691
 2700SOL     OW 8103   3.800   4.535   2.651
 2700SOL    HW1 8104   3.899   4.523   2.660
 2700SOL    HW2 8105   3.776   4.630   2.672
 2701SOL     OW 8106   4.589   4.072   2.057
 2701SOL    HW1 8107   4.648   4.135   2.008
 2701SOL    HW2 8108   4.608   3.978   2.028
 2702SOL     OW 8109   4.274   3.920   2.747
 2702SOL    HW1 8110   4.269   3.915   2.847
 2702SOL    HW2 8111   4.276   4.016   2.718
 2703SOL     OW 8112   3.926   4.009   3.360
 2703SOL    HW1 8113   3.846   4.069   3.347
 2703SOL    HW2 8114   3.916   3.960   3.446
 2704SOL     OW 8115   4.338   3.846   1.979
 2704SOL    HW1 8116   4.436   3.824   1.986
 2704SOL    HW2 8117   4.307   3.829   1.886
 2705SOL     OW 8118   4.263   3.788   2.374
 2705SOL    HW1 8119   4.182   3.789   2.432
 2705SOL    HW2 8120   4.266   3.871   2.319
 2706SOL     OW 8121   4.021   3.759   2.033
 2706SOL    HW1 8122   4.070   3.843   2.012
 2706SOL    HW2 8123   4.083   3.694   2.078
 2707SOL     OW 8124   4.659   3.960   2.342
 2707SOL    HW1 8125   4.611   4.001   2.264
 2707SOL    HW2 8126   4.758   3.958   2.323
 2708SOL     OW 8127   3.802   4.280   3.248
 2708SOL    HW1 8128   3.894   4.279   3.207
 2708SOL    HW2 8129   3.796   4.354   3.315
 2709SOL     OW 8130   4.285   3.946   3.009
 2709SOL    HW1 8131   4.323   3.862   3.046
 2709SOL    HW2 8132   4.197   3.965   3.053
 2710SOL     OW 8133   4.251   3.980   2.190
 2710SOL    HW1 8134   4.278   3.921   2.115
 2710SOL    HW2 8135   4.251   4.075   2.159
 2711SOL     OW 8136   4.290   4.261   2.727
 2711SOL    HW1 8137   4.302   4.327   2.653
 2711SOL    HW2 8138   4.336   4.295   2.810
 2712SOL     OW 8139   4.228   3.774   3.602
 2712SOL    HW1 8140   4.186   3.717   3.532
 2712SOL    HW2 8141   4.162   3.843   3.634
 2713SOL     OW 8142   4.031   3.937   3.093
 2713SOL    HW1 8143   4.008   3.974   3.183
 2713SOL    HW2 8144   4.001   3.842   3.087
 2714SOL     OW 8145   4.031   3.787   2.480
 2714SOL    HW1 8146   4.020   3.881   2.513
 2714SOL    HW2 8147   4.026   3.724   2.557
 2715SOL     OW 8148   4.063   4.233   2.868
 2715SOL    HW1 8149   4.011   4.150   2.851
 2715SOL    HW2 8150   4.140   4.238   2.804
 2716SOL     OW 8151   3.764   4.268   2.976
 2716SOL    HW1 8152   3.849   4.235   2.935
 2716SOL    HW2 8153   3.777   4.283   3.074
 2717SOL     OW 8154   3.913   4.244   3.584
 2717SOL    HW1 8155   3.972   4.204   3.514
 2717SOL    HW2 8156   3.855   4.315   3.543
 2718SOL     OW 8157   4.539   4.296   2.187
 2718SOL    HW1 8158   4.546   4.207   2.141
 2718SOL    HW2 8159   4.445   4.330   2.179
 2719SOL     OW 8160   3.987   4.050   2.582
 2719SOL    HW1 8161   3.908   4.101   2.548
 2719SOL    HW2 8162   3.978   4.035   2.680
 2720SOL     OW 8163   3.799   4.069   1.895
 2720SOL    HW1 8164   3.707   4.041   1.866
 2720SOL    HW2 8165   3.830   4.146   1.839
 2721SOL     OW 8166   3.796   3.890   2.180
 2721SOL    HW1 8167   3.779   3.973   2.126
 2721SOL    HW2 8168   3.886   3.853   2.158
 2722SOL     OW 8169   4.337   4.566   3.293
 2722SOL    HW1 8170   4.393   4.647   3.276
 2722SOL    HW2 8171   4.396   4.486   3.296
 2723SOL     OW 8172   4.152   4.148   2.382
 2723SOL    HW1 8173   4.182   4.076   2.320
 2723SOL    HW2 8174   4.113   4.108   2.465
 2724SOL     OW 8175   4.041   4.271   3.142
 2724SOL    HW1 8176   4.079   4.212   3.214
 2724SOL    HW2 8177   4.081   4.245   3.054
 2725SOL     OW 8178   3.846   4.367   4.287
 2725SOL    HW1 8179   3.801   4.279   4.304
 2725SOL    HW2 8180   3.845   4.421   4.371
 2726SOL     OW 8181   4.589   4.072   3.919
 2726SOL    HW1 8182   4.648   4.135   3.870
 2726SOL    HW2 8183   4.608   3.978   3.890
 2727SOL     OW 8184   4.338   3.846   3.841
 2727SOL    HW1 8185   4.436   3.824   3.848
 2727SOL    HW2 8186   4.307   3.829   3.748
 2728SOL     OW 8187   4.263   3.788   4.236
 2728SOL    HW1 8188   4.182   3.789   4.294
 2728SOL    HW2 8189   4.266   3.871   4.181
 2729SOL     OW 8190   4.021   3.759   3.895
 2729SOL    HW1 8191   4.070   3.843   3.874
 2729SOL    HW2 8192   4.083   3.694   3.940
 2730SOL     OW 8193   4.659   3.960   4.204
 2730SOL    HW1 8194   4.611   4.001   4.126
 2730SOL    HW2 8195   4.758   3.958   4.185
 2731SOL     OW 8196   4.251   3.980   4.052
 2731SOL    HW1 8197   4.278   3.921   3.977
 2731SOL    HW2 8198   4.251   4.075   4.021
 2732SOL     OW 8199   4.539   4.296   4.049
 2732SOL    HW1 8200   4.546   4.207   4.003
 2732SOL    HW2 8201   4.445   4.330   4.041
 2733SOL     OW 8202   3.799   4.069   3.757
 2733SOL    HW1 8203   3.707   4.041   3.728
 2733SOL    HW2 8204   3.830   4.146   3.701
 2734SOL     OW 8205   3.796   3.890   4.042
 2734SOL    HW1 8206   3.779   3.973   3.988
 2734SOL    HW2 8207   3.886   3.853   4.020
 2735SOL     OW 8208   4.152   4.148   4.244
 2735SOL    HW1 8209   4.182   4.076   4.182
 2735SOL    HW2 8210   4.113   4.108   4.327
   4.37005   4.37005   4.37005
