mobley_3761215_GMX.gro created by acpype (v: 2023.10.27) on Wed May 20 23:46:05 2026
    8
    1MOL     C1    1   2.170   2.104   2.170
    1MOL     C2    2   2.197   2.252   2.197
    1MOL    CL1    3   2.084   2.352   2.101
    1MOL    CL2    4   2.173   2.286   2.371
    1MOL    CL3    5   2.364   2.292   2.152
    1MOL     H1    6   2.238   2.040   2.227
    1MOL     H2    7   2.068   2.076   2.197
    1MOL     H3    8   2.184   2.080   2.064
   4.37005   4.37005   4.37005
