mobley_4188615_GMX.gro created by acpype (v: 2023.10.27) on Wed May 20 23:53:36 2026
   22
    1MOL     C1    1   2.433   2.453   2.083
    1MOL     C2    2   2.328   2.514   2.152
    1MOL     C3    3   2.541   2.399   2.154
    1MOL     C4    4   2.330   2.520   2.291
    1MOL     C5    5   2.543   2.405   2.293
    1MOL     C6    6   2.438   2.466   2.362
    1MOL     C7    7   2.440   2.473   2.507
    1MOL     C8    8   2.382   2.367   2.727
    1MOL     C9    9   2.319   2.253   2.517
    1MOL     N1   10   2.382   2.368   2.581
    1MOL     O1   11   2.495   2.572   2.557
    1MOL     H1   12   2.432   2.448   1.974
    1MOL     H2   13   2.245   2.556   2.096
    1MOL     H3   14   2.622   2.351   2.100
    1MOL     H4   15   2.248   2.568   2.343
    1MOL     H5   16   2.627   2.362   2.347
    1MOL     H6   17   2.279   2.370   2.761
    1MOL     H7   18   2.436   2.455   2.762
    1MOL     H8   19   2.431   2.276   2.761
    1MOL     H9   20   2.226   2.231   2.569
    1MOL    H10   21   2.387   2.168   2.522
    1MOL    H11   22   2.298   2.278   2.412
   4.80558   4.80558   4.80558
