; mobley_8809190_GMX_OPLS.itp created by acpype (v: 2023.10.27) on Wed May 20 23:51:19 2026

; For OPLS atomtypes manual fine tuning
; AC_at:OPLS_at:OPLScode: Possible_Alternatives (see ffoplsaa.atp and ffoplsaanb.itp)
; ca:CA:opls_145: ['166', '501', '502']
; c3:CT:opls_135: ['136', '137', '149', '157', '158', '206', '209', '210', '223B', '224B', '245', '246', '274', '283', '284', '285', '292', '292B', '293B', '296', '307', '308', '505']
; ha:HA:opls_146: []
; hc:HC:opls_140: []

[ moleculetype ]
;name            nrexcl
 mobley_8809190   3

[ atoms ]
;   nr  type  resi  res  atom  cgnr     charge      mass       ; qtot   bond_type
     1 opls_145     1   MOL    C1    1    -0.133999     12.01100 ; qtot -0.134  CA  
     2 opls_145     1   MOL    C2    2    -0.128000     12.01100 ; qtot -0.262  CA  
     3 opls_145     1   MOL    C3    3    -0.128000     12.01100 ; qtot -0.390  CA  
     4 opls_145     1   MOL    C4    4    -0.128000     12.01100 ; qtot -0.518  CA  
     5 opls_145     1   MOL    C5    5    -0.128000     12.01100 ; qtot -0.646  CA  
     6 opls_145     1   MOL    C6    6    -0.076300     12.01100 ; qtot -0.722  CA  
     7 opls_135     1   MOL    C7    7    -0.092100     12.01100 ; qtot -0.814  CT  
     8 opls_135     1   MOL    C8    8    -0.038100     12.01100 ; qtot -0.852  CT  
     9 opls_135     1   MOL    C9    9    -0.081400     12.01100 ; qtot -0.934  CT  
    10 opls_135     1   MOL   C10   10    -0.076400     12.01100 ; qtot -1.010  CT  
    11 opls_146     1   MOL    H1   11     0.130000      1.00800 ; qtot -0.880  HA  
    12 opls_146     1   MOL    H2   12     0.130000      1.00800 ; qtot -0.750  HA  
    13 opls_146     1   MOL    H3   13     0.130000      1.00800 ; qtot -0.620  HA  
    14 opls_146     1   MOL    H4   14     0.130500      1.00800 ; qtot -0.490  HA  
    15 opls_146     1   MOL    H5   15     0.130500      1.00800 ; qtot -0.359  HA  
    16 opls_140     1   MOL    H6   16     0.033033      1.00800 ; qtot -0.326  HC  
    17 opls_140     1   MOL    H7   17     0.033033      1.00800 ; qtot -0.293  HC  
    18 opls_140     1   MOL    H8   18     0.033033      1.00800 ; qtot -0.260  HC  
    19 opls_140     1   MOL    H9   19     0.047700      1.00800 ; qtot -0.213  HC  
    20 opls_140     1   MOL   H10   20     0.047700      1.00800 ; qtot -0.165  HC  
    21 opls_140     1   MOL   H11   21     0.038200      1.00800 ; qtot -0.127  HC  
    22 opls_140     1   MOL   H12   22     0.038200      1.00800 ; qtot -0.088  HC  
    23 opls_140     1   MOL   H13   23     0.044200      1.00800 ; qtot -0.044  HC  
    24 opls_140     1   MOL   H14   24     0.044200      1.00800 ; qtot -0.000  HC  

[ bonds ]
;   ai     aj funct   r             k
     1      2   1 ;    1.3986e-01    2.9644e+05 ;     C1 - C2         CA - CA    
     1      3   1 ;    1.3986e-01    2.9644e+05 ;     C1 - C3         CA - CA    
     1     11   1 ;    1.0860e-01    3.0183e+05 ;     C1 - H1         CA - HA    
     2      4   1 ;    1.3986e-01    2.9644e+05 ;     C2 - C4         CA - CA    
     2     12   1 ;    1.0860e-01    3.0183e+05 ;     C2 - H2         CA - HA    
     3      5   1 ;    1.3986e-01    2.9644e+05 ;     C3 - C5         CA - CA    
     3     13   1 ;    1.0860e-01    3.0183e+05 ;     C3 - H3         CA - HA    
     4      6   1 ;    1.3986e-01    2.9644e+05 ;     C4 - C6         CA - CA    
     4     14   1 ;    1.0860e-01    3.0183e+05 ;     C4 - H4         CA - HA    
     5      6   1 ;    1.3986e-01    2.9644e+05 ;     C5 - C6         CA - CA    
     5     15   1 ;    1.0860e-01    3.0183e+05 ;     C5 - H5         CA - HA    
     6      8   1 ;    1.5147e-01    2.0410e+05 ;     C6 - C8         CA - CT    
     7      9   1 ;    1.5354e-01    1.9154e+05 ;     C7 - C9         CT - CT    
     7     16   1 ;    1.0962e-01    2.8891e+05 ;     C7 - H6         CT - HC    
     7     17   1 ;    1.0962e-01    2.8891e+05 ;     C7 - H7         CT - HC    
     7     18   1 ;    1.0962e-01    2.8891e+05 ;     C7 - H8         CT - HC    
     8     10   1 ;    1.5354e-01    1.9154e+05 ;     C8 - C10        CT - CT    
     8     19   1 ;    1.0962e-01    2.8891e+05 ;     C8 - H9         CT - HC    
     8     20   1 ;    1.0962e-01    2.8891e+05 ;     C8 - H10        CT - HC    
     9     10   1 ;    1.5354e-01    1.9154e+05 ;     C9 - C10        CT - CT    
     9     21   1 ;    1.0962e-01    2.8891e+05 ;     C9 - H11        CT - HC    
     9     22   1 ;    1.0962e-01    2.8891e+05 ;     C9 - H12        CT - HC    
    10     23   1 ;    1.0962e-01    2.8891e+05 ;    C10 - H13        CT - HC    
    10     24   1 ;    1.0962e-01    2.8891e+05 ;    C10 - H14        CT - HC    

[ pairs ]
;   ai     aj    funct
     1      6      1 ;     C1 - C6    
     1     14      1 ;     C1 - H4    
     1     15      1 ;     C1 - H5    
     2      5      1 ;     C2 - C5    
     2      8      1 ;     C2 - C8    
     2     13      1 ;     C2 - H3    
     3      4      1 ;     C3 - C4    
     3      8      1 ;     C3 - C8    
     3     12      1 ;     C3 - H2    
     4     10      1 ;     C4 - C10   
     4     15      1 ;     C4 - H5    
     4     19      1 ;     C4 - H9    
     4     20      1 ;     C4 - H10   
     5     10      1 ;     C5 - C10   
     5     14      1 ;     C5 - H4    
     5     19      1 ;     C5 - H9    
     5     20      1 ;     C5 - H10   
     6      9      1 ;     C6 - C9    
     6     12      1 ;     C6 - H2    
     6     13      1 ;     C6 - H3    
     6     23      1 ;     C6 - H13   
     6     24      1 ;     C6 - H14   
     7      8      1 ;     C7 - C8    
     7     23      1 ;     C7 - H13   
     7     24      1 ;     C7 - H14   
     8     14      1 ;     C8 - H4    
     8     15      1 ;     C8 - H5    
     8     21      1 ;     C8 - H11   
     8     22      1 ;     C8 - H12   
     9     19      1 ;     C9 - H9    
     9     20      1 ;     C9 - H10   
    10     16      1 ;    C10 - H6    
    10     17      1 ;    C10 - H7    
    10     18      1 ;    C10 - H8    
    11      4      1 ;     H1 - C4    
    11      5      1 ;     H1 - C5    
    11     12      1 ;     H1 - H2    
    11     13      1 ;     H1 - H3    
    12     14      1 ;     H2 - H4    
    13     15      1 ;     H3 - H5    
    16     21      1 ;     H6 - H11   
    16     22      1 ;     H6 - H12   
    17     21      1 ;     H7 - H11   
    17     22      1 ;     H7 - H12   
    18     21      1 ;     H8 - H11   
    18     22      1 ;     H8 - H12   
    19     23      1 ;     H9 - H13   
    19     24      1 ;     H9 - H14   
    20     23      1 ;    H10 - H13   
    20     24      1 ;    H10 - H14   
    21     23      1 ;    H11 - H13   
    21     24      1 ;    H11 - H14   
    22     23      1 ;    H12 - H13   
    22     24      1 ;    H12 - H14   

[ angles ]
;   ai     aj     ak    funct   theta         cth
     1      2      4      1 ;    1.2002e+02    5.3279e+02 ;     C1 - C2   - C4       CA -   CA - CA  
     1      2     12      1 ;    1.1988e+02    3.7572e+02 ;     C1 - C2   - H2       CA -   CA - HA  
     1      3      5      1 ;    1.2002e+02    5.3279e+02 ;     C1 - C3   - C5       CA -   CA - CA  
     1      3     13      1 ;    1.1988e+02    3.7572e+02 ;     C1 - C3   - H3       CA -   CA - HA  
     2      1      3      1 ;    1.2002e+02    5.3279e+02 ;     C2 - C1   - C3       CA -   CA - CA  
     2      1     11      1 ;    1.1988e+02    3.7572e+02 ;     C2 - C1   - H1       CA -   CA - HA  
     2      4      6      1 ;    1.2002e+02    5.3279e+02 ;     C2 - C4   - C6       CA -   CA - CA  
     2      4     14      1 ;    1.1988e+02    3.7572e+02 ;     C2 - C4   - H4       CA -   CA - HA  
     3      1     11      1 ;    1.1988e+02    3.7572e+02 ;     C3 - C1   - H1       CA -   CA - HA  
     3      5      6      1 ;    1.2002e+02    5.3279e+02 ;     C3 - C5   - C6       CA -   CA - CA  
     3      5     15      1 ;    1.1988e+02    3.7572e+02 ;     C3 - C5   - H5       CA -   CA - HA  
     4      2     12      1 ;    1.1988e+02    3.7572e+02 ;     C4 - C2   - H2       CA -   CA - HA  
     4      6      5      1 ;    1.2002e+02    5.3279e+02 ;     C4 - C6   - C5       CA -   CA - CA  
     4      6      8      1 ;    1.2083e+02    5.0827e+02 ;     C4 - C6   - C8       CA -   CA - CT  
     5      3     13      1 ;    1.1988e+02    3.7572e+02 ;     C5 - C3   - H3       CA -   CA - HA  
     5      6      8      1 ;    1.2083e+02    5.0827e+02 ;     C5 - C6   - C8       CA -   CA - CT  
     6      4     14      1 ;    1.1988e+02    3.7572e+02 ;     C6 - C4   - H4       CA -   CA - HA  
     6      5     15      1 ;    1.1988e+02    3.7572e+02 ;     C6 - C5   - H5       CA -   CA - HA  
     6      8     10      1 ;    1.1242e+02    5.0484e+02 ;     C6 - C8   - C10      CA -   CT - CT  
     6      8     19      1 ;    1.1063e+02    3.6493e+02 ;     C6 - C8   - H9       CA -   CT - HC  
     6      8     20      1 ;    1.1063e+02    3.6493e+02 ;     C6 - C8   - H10      CA -   CT - HC  
     7      9     10      1 ;    1.1263e+02    5.0099e+02 ;     C7 - C9   - C10      CT -   CT - CT  
     7      9     21      1 ;    1.0968e+02    3.6208e+02 ;     C7 - C9   - H11      CT -   CT - HC  
     7      9     22      1 ;    1.0968e+02    3.6208e+02 ;     C7 - C9   - H12      CT -   CT - HC  
     8     10      9      1 ;    1.1263e+02    5.0099e+02 ;     C8 - C10  - C9       CT -   CT - CT  
     8     10     23      1 ;    1.0968e+02    3.6208e+02 ;     C8 - C10  - H13      CT -   CT - HC  
     8     10     24      1 ;    1.0968e+02    3.6208e+02 ;     C8 - C10  - H14      CT -   CT - HC  
     9      7     16      1 ;    1.0968e+02    3.6208e+02 ;     C9 - C7   - H6       CT -   CT - HC  
     9      7     17      1 ;    1.0968e+02    3.6208e+02 ;     C9 - C7   - H7       CT -   CT - HC  
     9      7     18      1 ;    1.0968e+02    3.6208e+02 ;     C9 - C7   - H8       CT -   CT - HC  
     9     10     23      1 ;    1.0968e+02    3.6208e+02 ;     C9 - C10  - H13      CT -   CT - HC  
     9     10     24      1 ;    1.0968e+02    3.6208e+02 ;     C9 - C10  - H14      CT -   CT - HC  
    10      8     19      1 ;    1.0968e+02    3.6208e+02 ;    C10 - C8   - H9       CT -   CT - HC  
    10      8     20      1 ;    1.0968e+02    3.6208e+02 ;    C10 - C8   - H10      CT -   CT - HC  
    10      9     21      1 ;    1.0968e+02    3.6208e+02 ;    C10 - C9   - H11      CT -   CT - HC  
    10      9     22      1 ;    1.0968e+02    3.6208e+02 ;    C10 - C9   - H12      CT -   CT - HC  
    16      7     17      1 ;    1.0773e+02    2.9957e+02 ;     H6 - C7   - H7       HC -   CT - HC  
    16      7     18      1 ;    1.0773e+02    2.9957e+02 ;     H6 - C7   - H8       HC -   CT - HC  
    17      7     18      1 ;    1.0773e+02    2.9957e+02 ;     H7 - C7   - H8       HC -   CT - HC  
    19      8     20      1 ;    1.0773e+02    2.9957e+02 ;     H9 - C8   - H10      HC -   CT - HC  
    21      9     22      1 ;    1.0773e+02    2.9957e+02 ;    H11 - C9   - H12      HC -   CT - HC  
    23     10     24      1 ;    1.0773e+02    2.9957e+02 ;    H13 - C10  - H14      HC -   CT - HC  

[ dihedrals ] ; propers
; for gromacs 4.5 or higher, using funct 9
;    i      j      k      l   func   phase     kd      pn
     1      2      4      6      9 ;   180.00  15.16700   2 ;     C1-    C2-    C4-    C6
     1      2      4     14      9 ;   180.00  15.16700   2 ;     C1-    C2-    C4-    H4
     1      3      5      6      9 ;   180.00  15.16700   2 ;     C1-    C3-    C5-    C6
     1      3      5     15      9 ;   180.00  15.16700   2 ;     C1-    C3-    C5-    H5
     2      1      3      5      9 ;   180.00  15.16700   2 ;     C2-    C1-    C3-    C5
     2      1      3     13      9 ;   180.00  15.16700   2 ;     C2-    C1-    C3-    H3
     2      4      6      5      9 ;   180.00  15.16700   2 ;     C2-    C4-    C6-    C5
     2      4      6      8      9 ;   180.00  15.16700   2 ;     C2-    C4-    C6-    C8
     3      1      2      4      9 ;   180.00  15.16700   2 ;     C3-    C1-    C2-    C4
     3      1      2     12      9 ;   180.00  15.16700   2 ;     C3-    C1-    C2-    H2
     3      5      6      4      9 ;   180.00  15.16700   2 ;     C3-    C5-    C6-    C4
     3      5      6      8      9 ;   180.00  15.16700   2 ;     C3-    C5-    C6-    C8
     4      6      5     15      9 ;   180.00  15.16700   2 ;     C4-    C6-    C5-    H5
     4      6      8     10      9 ;   180.00   1.00416   2 ;     C4-    C6-    C8-   C10
     4      6      8     19      9 ;     0.00   0.00000   0 ;     C4-    C6-    C8-    H9
     4      6      8     20      9 ;     0.00   0.00000   0 ;     C4-    C6-    C8-   H10
     5      6      4     14      9 ;   180.00  15.16700   2 ;     C5-    C6-    C4-    H4
     5      6      8     10      9 ;   180.00   1.00416   2 ;     C5-    C6-    C8-   C10
     5      6      8     19      9 ;     0.00   0.00000   0 ;     C5-    C6-    C8-    H9
     5      6      8     20      9 ;     0.00   0.00000   0 ;     C5-    C6-    C8-   H10
     6      4      2     12      9 ;   180.00  15.16700   2 ;     C6-    C4-    C2-    H2
     6      5      3     13      9 ;   180.00  15.16700   2 ;     C6-    C5-    C3-    H3
     6      8     10      9      9 ;     0.00   0.65084   3 ;     C6-    C8-   C10-    C9
     6      8     10     23      9 ;     0.00   0.65084   3 ;     C6-    C8-   C10-   H13
     6      8     10     24      9 ;     0.00   0.65084   3 ;     C6-    C8-   C10-   H14
     7      9     10      8      9 ;     0.00   2.17568   3 ;     C7-    C9-   C10-    C8
     7      9     10     23      9 ;     0.00   0.54392   3 ;     C7-    C9-   C10-   H13
     7      9     10     24      9 ;     0.00   0.54392   3 ;     C7-    C9-   C10-   H14
     8      6      4     14      9 ;   180.00  15.16700   2 ;     C8-    C6-    C4-    H4
     8      6      5     15      9 ;   180.00  15.16700   2 ;     C8-    C6-    C5-    H5
     8     10      9     21      9 ;     0.00   0.54392   3 ;     C8-   C10-    C9-   H11
     8     10      9     22      9 ;     0.00   0.54392   3 ;     C8-   C10-    C9-   H12
     9     10      8     19      9 ;     0.00   0.54392   3 ;     C9-   C10-    C8-    H9
     9     10      8     20      9 ;     0.00   0.54392   3 ;     C9-   C10-    C8-   H10
    10      9      7     16      9 ;     0.00   0.54392   3 ;    C10-    C9-    C7-    H6
    10      9      7     17      9 ;     0.00   0.54392   3 ;    C10-    C9-    C7-    H7
    10      9      7     18      9 ;     0.00   0.54392   3 ;    C10-    C9-    C7-    H8
    11      1      2      4      9 ;   180.00  15.16700   2 ;     H1-    C1-    C2-    C4
    11      1      2     12      9 ;   180.00  15.16700   2 ;     H1-    C1-    C2-    H2
    11      1      3      5      9 ;   180.00  15.16700   2 ;     H1-    C1-    C3-    C5
    11      1      3     13      9 ;   180.00  15.16700   2 ;     H1-    C1-    C3-    H3
    12      2      4     14      9 ;   180.00  15.16700   2 ;     H2-    C2-    C4-    H4
    13      3      5     15      9 ;   180.00  15.16700   2 ;     H3-    C3-    C5-    H5
    16      7      9     21      9 ;     0.00   0.50208   3 ;     H6-    C7-    C9-   H11
    16      7      9     22      9 ;     0.00   0.50208   3 ;     H6-    C7-    C9-   H12
    17      7      9     21      9 ;     0.00   0.50208   3 ;     H7-    C7-    C9-   H11
    17      7      9     22      9 ;     0.00   0.50208   3 ;     H7-    C7-    C9-   H12
    18      7      9     21      9 ;     0.00   0.50208   3 ;     H8-    C7-    C9-   H11
    18      7      9     22      9 ;     0.00   0.50208   3 ;     H8-    C7-    C9-   H12
    19      8     10     23      9 ;     0.00   0.50208   3 ;     H9-    C8-   C10-   H13
    19      8     10     24      9 ;     0.00   0.50208   3 ;     H9-    C8-   C10-   H14
    20      8     10     23      9 ;     0.00   0.50208   3 ;    H10-    C8-   C10-   H13
    20      8     10     24      9 ;     0.00   0.50208   3 ;    H10-    C8-   C10-   H14
    21      9     10     23      9 ;     0.00   0.50208   3 ;    H11-    C9-   C10-   H13
    21      9     10     24      9 ;     0.00   0.50208   3 ;    H11-    C9-   C10-   H14
    22      9     10     23      9 ;     0.00   0.50208   3 ;    H12-    C9-   C10-   H13
    22      9     10     24      9 ;     0.00   0.50208   3 ;    H12-    C9-   C10-   H14

[ dihedrals ] ; impropers
; treated as propers in GROMACS to use correct AMBER analytical function
;    i      j      k      l   func   phase     kd      pn
     1      4      2     12      4 ;   180.00   4.60240   2 ;     C1-    C4-    C2-    H2
     1      5      3     13      4 ;   180.00   4.60240   2 ;     C1-    C5-    C3-    H3
     2      6      4     14      4 ;   180.00   4.60240   2 ;     C2-    C6-    C4-    H4
     3      6      5     15      4 ;   180.00   4.60240   2 ;     C3-    C6-    C5-    H5
     4      5      6      8      4 ;   180.00   4.60240   2 ;     C4-    C5-    C6-    C8
    11      1      3      2      4 ;   180.00   4.60240   2 ;     H1-    C1-    C3-    C2
