n_butylbenzene
    24
   2.2020000   2.6220000  -6.6510000   2.4510000   3.5730000  -5.6610000
   1.1510000   1.7180000  -6.5010000   1.6490000   3.6190000  -4.5210000
   0.3490000   1.7630000  -5.3610000   0.6070000   2.7130000  -4.3840000
  -0.0940000   0.9870000   0.2920000  -0.2600000   2.7630000  -3.1520000
  -0.6140000   1.9020000  -0.8050000   0.2910000   1.8720000  -2.0360000
   2.8270000   2.5870000  -7.5390000   3.2690000   4.2770000  -5.7780000
   0.9580000   0.9770000  -7.2720000   1.8500000   4.3620000  -3.7550000
  -0.4680000   1.0540000  -5.2530000   0.9060000   1.2920000   0.6160000
  -0.0410000  -0.0500000  -0.0540000  -0.7580000   1.0220000   1.1610000
  -0.3380000   3.8000000  -2.8030000  -1.2800000   2.4550000  -3.4120000
  -0.6830000   2.9250000  -0.4180000  -1.6280000   1.5900000  -1.0810000
   1.3000000   2.2030000  -1.7580000   0.3870000   0.8400000  -2.3960000
