; mobley_8809190_GMX_OPLS.top created by acpype (v: 2023.10.27) on Wed May 20 23:51:19 2026

; Include forcefield parameters
#include "ffoplsaa.itp"

; Include mobley_8809190_GMX.itp topology
#include "mobley_8809190_GMX.itp"

; Ligand position restraints
#ifdef POSRES_LIG
#include "posre_mobley_8809190.itp"
#endif

[ system ]
 mobley_8809190

[ molecules ]
; Compound        nmols
 mobley_8809190   1     
