mobley_4375719_GMX.gro created by acpype (v: 2023.10.27) on Wed May 20 23:48:28 2026
13712
    1MOL     C1    1   2.316   2.738   2.195
    1MOL     C2    2   2.915   2.417   2.945
    1MOL     C3    3   2.344   2.742   2.344
    1MOL     C4    4   2.796   2.504   2.908
    1MOL     C5    5   2.462   2.654   2.387
    1MOL     C6    6   2.766   2.497   2.759
    1MOL     C7    7   2.491   2.661   2.537
    1MOL     C8    8   2.644   2.582   2.723
    1MOL     C9    9   2.612   2.573   2.573
    1MOL     H1   10   2.301   2.635   2.160
    1MOL     H2   11   2.225   2.795   2.173
    1MOL     H3   12   2.397   2.783   2.138
    1MOL     H4   13   2.935   2.423   3.052
    1MOL     H5   14   3.005   2.450   2.892
    1MOL     H6   15   2.897   2.312   2.920
    1MOL     H7   16   2.362   2.846   2.375
    1MOL     H8   17   2.254   2.708   2.398
    1MOL     H9   18   2.816   2.607   2.938
    1MOL    H10   19   2.708   2.470   2.965
    1MOL    H11   20   2.438   2.550   2.359
    1MOL    H12   21   2.551   2.683   2.330
    1MOL    H13   22   2.853   2.533   2.702
    1MOL    H14   23   2.749   2.393   2.729
    1MOL    H15   24   2.403   2.627   2.593
    1MOL    H16   25   2.512   2.764   2.567
    1MOL    H17   26   2.662   2.687   2.750
    1MOL    H18   27   2.557   2.548   2.781
    1MOL    H19   28   2.591   2.469   2.546
    1MOL    H20   29   2.699   2.605   2.515
    2SOL     OW   30   0.230   0.628   0.113
    2SOL    HW1   31   0.137   0.626   0.150
    2SOL    HW2   32   0.231   0.589   0.021
    3SOL     OW   33   0.225   0.275   0.996
    3SOL    HW1   34   0.260   0.258   1.088
    3SOL    HW2   35   0.137   0.230   0.984
    4SOL     OW   36   0.019   0.368   0.647
    4SOL    HW1   37  -0.063   0.411   0.686
    4SOL    HW2   38  -0.009   0.295   0.584
    5SOL     OW   39   0.569   1.275   1.165
    5SOL    HW1   40   0.476   1.268   1.128
    5SOL    HW2   41   0.580   1.364   1.209
    6SOL     OW   42   1.555   1.511   0.703
    6SOL    HW1   43   1.498   1.495   0.784
    6SOL    HW2   44   1.496   1.521   0.623
    7SOL     OW   45   1.135   0.703   0.717
    7SOL    HW1   46   1.192   0.781   0.692
    7SOL    HW2   47   1.075   0.729   0.793
    8SOL     OW   48   1.755   0.607   0.231
    8SOL    HW1   49   1.743   0.594   0.132
    8SOL    HW2   50   1.725   0.526   0.280
    9SOL     OW   51   0.768   1.144   1.023
    9SOL    HW1   52   0.690   1.161   1.083
    9SOL    HW2   53   0.802   1.231   0.987
   10SOL     OW   54   0.850   0.798   1.823
   10SOL    HW1   55   0.846   0.874   1.888
   10SOL    HW2   56   0.872   0.834   1.732
   11SOL     OW   57   0.685   1.012   0.665
   11SOL    HW1   58   0.754   0.996   0.735
   11SOL    HW2   59   0.612   1.069   0.703
   12SOL     OW   60   0.686   1.161   1.803
   12SOL    HW1   61   0.746   1.240   1.817
   12SOL    HW2   62   0.600   1.192   1.762
   13SOL     OW   63   0.335   1.435   1.061
   13SOL    HW1   64   0.257   1.404   1.008
   13SOL    HW2   65   0.393   1.493   1.004
   14SOL     OW   66   1.460   1.505   1.339
   14SOL    HW1   67   1.484   1.599   1.365
   14SOL    HW2   68   1.444   1.451   1.421
   15SOL     OW   69   0.438   0.392   1.499
   15SOL    HW1   70   0.520   0.336   1.508
   15SOL    HW2   71   0.357   0.334   1.503
   16SOL     OW   72   1.603   0.447   0.737
   16SOL    HW1   73   1.529   0.493   0.687
   16SOL    HW2   74   1.654   0.515   0.790
   17SOL     OW   75   0.231   1.713   0.483
   17SOL    HW1   76   0.265   1.790   0.537
   17SOL    HW2   77   0.275   1.713   0.393
   18SOL     OW   78   1.127   1.341   1.690
   18SOL    HW1   79   1.174   1.341   1.778
   18SOL    HW2   80   1.079   1.254   1.679
   19SOL     OW   81   0.230   1.434   0.538
   19SOL    HW1   82   0.204   1.530   0.538
   19SOL    HW2   83   0.159   1.380   0.583
   20SOL     OW   84   0.240   1.091   0.886
   20SOL    HW1   85   0.254   1.007   0.938
   20SOL    HW2   86   0.185   1.155   0.941
   21SOL     OW   87   0.620   1.786   1.439
   21SOL    HW1   88   0.528   1.769   1.474
   21SOL    HW2   89   0.648   1.878   1.465
   22SOL     OW   90   0.606   0.964   0.123
   22SOL    HW1   91   0.613   1.048   0.069
   22SOL    HW2   92   0.652   0.977   0.211
   23SOL     OW   93   1.594   0.114   1.480
   23SOL    HW1   94   1.576   0.181   1.408
   23SOL    HW2   95   1.591   0.160   1.569
   24SOL     OW   96   0.122   0.643   0.563
   24SOL    HW1   97   0.077   0.555   0.580
   24SOL    HW2   98   0.121   0.697   0.647
   25SOL     OW   99   1.842   1.767   0.359
   25SOL    HW1  100   1.896   1.738   0.439
   25SOL    HW2  101   1.872   1.857   0.330
   26SOL     OW  102   0.027   1.596   0.117
   26SOL    HW1  103   0.008   1.500   0.138
   26SOL    HW2  104  -0.006   1.654   0.192
   27SOL     OW  105   1.689   0.922   0.612
   27SOL    HW1  106   1.784   0.893   0.620
   27SOL    HW2  107   1.681   0.987   0.537
   28SOL     OW  108   1.641   1.108   0.432
   28SOL    HW1  109   1.727   1.110   0.380
   28SOL    HW2  110   1.655   1.155   0.520
   29SOL     OW  111   0.113   0.737   1.597
   29SOL    HW1  112   0.201   0.724   1.642
   29SOL    HW2  113   0.100   0.834   1.575
   30SOL     OW  114   0.613   1.365   0.726
   30SOL    HW1  115   0.564   1.278   0.735
   30SOL    HW2  116   0.590   1.408   0.639
   31SOL     OW  117   1.293   1.228   1.423
   31SOL    HW1  118   1.330   1.155   1.365
   31SOL    HW2  119   1.345   1.233   1.508
   32SOL     OW  120   0.809   0.004   0.502
   32SOL    HW1  121   0.849   0.095   0.493
   32SOL    HW2  122   0.709   0.012   0.508
   33SOL     OW  123   0.197   0.976   1.264
   33SOL    HW1  124   0.286   0.931   1.250
   33SOL    HW2  125   0.124   0.911   1.245
   34SOL     OW  126   1.525   0.999   0.190
   34SOL    HW1  127   1.462   0.923   0.203
   34SOL    HW2  128   1.573   1.017   0.276
   35SOL     OW  129   1.187   1.792   1.616
   35SOL    HW1  130   1.211   1.852   1.540
   35SOL    HW2  131   1.194   1.697   1.586
   36SOL     OW  132   0.317   0.251   1.801
   36SOL    HW1  133   0.388   0.322   1.807
   36SOL    HW2  134   0.229   0.290   1.829
   37SOL     OW  135   1.466   1.417   0.953
   37SOL    HW1  136   1.407   1.423   1.033
   37SOL    HW2  137   1.451   1.329   0.907
   38SOL     OW  138   1.667   1.714   0.572
   38SOL    HW1  139   1.626   1.691   0.484
   38SOL    HW2  140   1.649   1.640   0.637
   39SOL     OW  141   0.598   0.729   0.270
   39SOL    HW1  142   0.622   0.798   0.202
   39SOL    HW2  143   0.520   0.762   0.324
   40SOL     OW  144   1.281   0.345   0.944
   40SOL    HW1  145   1.195   0.295   0.931
   40SOL    HW2  146   1.343   0.291   1.000
   41SOL     OW  147   1.576   1.662   0.307
   41SOL    HW1  148   1.665   1.708   0.310
   41SOL    HW2  149   1.555   1.638   0.212
   42SOL     OW  150   0.807   0.605   1.465
   42SOL    HW1  151   0.760   0.602   1.554
   42SOL    HW2  152   0.756   0.550   1.399
   43SOL     OW  153   1.394   0.469   1.674
   43SOL    HW1  154   1.374   0.512   1.762
   43SOL    HW2  155   1.472   0.407   1.683
   44SOL     OW  156   0.973   0.890   1.572
   44SOL    HW1  157   1.019   0.806   1.543
   44SOL    HW2  158   0.917   0.924   1.497
   45SOL     OW  159   0.991   0.410   1.242
   45SOL    HW1  160   0.914   0.444   1.296
   45SOL    HW2  161   0.957   0.359   1.163
   46SOL     OW  162   1.041   0.701   0.429
   46SOL    HW1  163   1.067   0.697   0.525
   46SOL    HW2  164   0.956   0.650   0.415
   47SOL     OW  165   0.076   0.811   0.789
   47SOL    HW1  166   0.175   0.799   0.798
   47SOL    HW2  167   0.052   0.906   0.810
   48SOL     OW  168   0.130   1.821   1.571
   48SOL    HW1  169   0.120   1.806   1.670
   48SOL    HW2  170   0.044   1.857   1.535
   49SOL     OW  171   0.865   0.348   0.195
   49SOL    HW1  172   0.924   0.411   0.146
   49SOL    HW2  173   0.884   0.254   0.166
   50SOL     OW  174   1.719   0.585   1.831
   50SOL    HW1  175   1.693   0.674   1.795
   50SOL    HW2  176   1.717   0.517   1.758
   51SOL     OW  177   1.362   1.144   0.545
   51SOL    HW1  178   1.445   1.115   0.497
   51SOL    HW2  179   1.313   1.211   0.489
   52SOL     OW  180   0.550   0.196   0.885
   52SOL    HW1  181   0.545   0.191   0.985
   52SOL    HW2  182   0.552   0.292   0.856
   53SOL     OW  183   1.008   1.456   0.477
   53SOL    HW1  184   0.962   1.528   0.425
   53SOL    HW2  185   1.004   1.476   0.575
   54SOL     OW  186   0.351   1.801   0.853
   54SOL    HW1  187   0.401   1.715   0.859
   54SOL    HW2  188   0.416   1.878   0.850
   55SOL     OW  189   1.795   1.066   0.873
   55SOL    HW1  190   1.733   1.051   0.797
   55SOL    HW2  191   1.743   1.077   0.958
   56SOL     OW  192   1.227   1.550   1.506
   56SOL    HW1  193   1.233   1.473   1.570
   56SOL    HW2  194   1.175   1.524   1.426
   57SOL     OW  195   0.321   0.943   0.242
   57SOL    HW1  196   0.403   0.982   0.200
   57SOL    HW2  197   0.294   0.861   0.193
   58SOL     OW  198   1.458   0.735   0.728
   58SOL    HW1  199   1.453   0.670   0.803
   58SOL    HW2  200   1.538   0.794   0.741
   59SOL     OW  201   0.461   1.266   1.727
   59SOL    HW1  202   0.411   1.267   1.641
   59SOL    HW2  203   0.398   1.248   1.803
   60SOL     OW  204   1.111   1.776   0.237
   60SOL    HW1  205   1.051   1.714   0.287
   60SOL    HW2  206   1.142   1.732   0.152
   61SOL     OW  207   0.202   0.285   1.498
   61SOL    HW1  208   0.122   0.345   1.485
   61SOL    HW2  209   0.192   0.236   1.584
   62SOL     OW  210   1.632   1.377   0.081
   62SOL    HW1  211   1.600   1.471   0.071
   62SOL    HW2  212   1.556   1.314   0.069
   63SOL     OW  213   0.464   1.743   0.323
   63SOL    HW1  214   0.497   1.782   0.409
   63SOL    HW2  215   0.540   1.736   0.258
   64SOL     OW  216   1.400   0.107   0.426
   64SOL    HW1  217   1.376   0.070   0.336
   64SOL    HW2  218   1.499   0.123   0.430
   65SOL     OW  219   0.249   1.785   1.241
   65SOL    HW1  220   0.306   1.720   1.291
   65SOL    HW2  221   0.233   1.752   1.148
   66SOL     OW  222   0.940   1.698   0.904
   66SOL    HW1  223   1.020   1.641   0.925
   66SOL    HW2  224   0.891   1.658   0.827
   67SOL     OW  225   0.382   0.700   0.480
   67SOL    HW1  226   0.427   0.610   0.477
   67SOL    HW2  227   0.288   0.689   0.513
   68SOL     OW  228   1.547   0.222   1.729
   68SOL    HW1  229   1.542   0.259   1.821
   68SOL    HW2  230   1.475   0.153   1.717
   69SOL     OW  231   0.614   0.122   0.117
   69SOL    HW1  232   0.712   0.100   0.124
   69SOL    HW2  233   0.583   0.105   0.024
   70SOL     OW  234   0.781   0.264   1.749
   70SOL    HW1  235   0.848   0.203   1.792
   70SOL    HW2  236   0.708   0.283   1.814
   71SOL     OW  237   0.888   1.514   1.195
   71SOL    HW1  238   0.865   1.489   1.101
   71SOL    HW2  239   0.949   1.445   1.234
   72SOL     OW  240   1.351   0.590   1.433
   72SOL    HW1  241   1.379   0.547   1.518
   72SOL    HW2  242   1.376   0.686   1.434
   73SOL     OW  243   0.803   1.402   0.924
   73SOL    HW1  244   0.893   1.416   0.882
   73SOL    HW2  245   0.732   1.404   0.853
   74SOL     OW  246   0.922   0.503   0.899
   74SOL    HW1  247   0.897   0.494   0.803
   74SOL    HW2  248   0.970   0.421   0.930
   75SOL     OW  249   0.539   0.064   0.512
   75SOL    HW1  250   0.458   0.065   0.570
   75SOL    HW2  251   0.542   0.147   0.457
   76SOL     OW  252   1.434   1.188   0.041
   76SOL    HW1  253   1.466   1.112   0.098
   76SOL    HW2  254   1.342   1.215   0.071
   77SOL     OW  255   0.297   0.035   0.171
   77SOL    HW1  256   0.346   0.119   0.150
   77SOL    HW2  257   0.359  -0.030   0.216
   78SOL     OW  258   0.935   0.236   0.480
   78SOL    HW1  259   0.887   0.277   0.402
   78SOL    HW2  260   1.034   0.234   0.461
   79SOL     OW  261   1.076   0.683   1.464
   79SOL    HW1  262   0.996   0.622   1.467
   79SOL    HW2  263   1.157   0.630   1.440
   80SOL     OW  264   1.227   1.570   0.793
   80SOL    HW1  265   1.248   1.644   0.728
   80SOL    HW2  266   1.295   1.570   0.866
   81SOL     OW  267   0.459   1.152   0.741
   81SOL    HW1  268   0.388   1.125   0.806
   81SOL    HW2  269   0.433   1.124   0.648
   82SOL     OW  270   1.271   1.797   0.591
   82SOL    HW1  271   1.315   1.861   0.527
   82SOL    HW2  272   1.221   1.849   0.661
   83SOL     OW  273   1.032   0.549   0.016
   83SOL    HW1  274   0.991   0.631  -0.023
   83SOL    HW2  275   1.096   0.575   0.089
   84SOL     OW  276   0.078   0.556   1.386
   84SOL    HW1  277   0.170   0.555   1.345
   84SOL    HW2  278   0.072   0.630   1.453
   85SOL     OW  279   0.561   0.222   1.147
   85SOL    HW1  280   0.599   0.138   1.184
   85SOL    HW2  281   0.473   0.241   1.191
   86SOL     OW  282   0.866   0.454   0.642
   86SOL    HW1  283   0.834   0.526   0.580
   86SOL    HW2  284   0.890   0.373   0.589
   87SOL     OW  285   1.017   0.039   0.753
   87SOL    HW1  286   0.945   0.044   0.684
   87SOL    HW2  287   0.993  -0.030   0.822
   88SOL     OW  288   1.429   1.173   0.867
   88SOL    HW1  289   1.374   1.089   0.860
   88SOL    HW2  290   1.455   1.202   0.775
   89SOL     OW  291   1.466   0.590   0.992
   89SOL    HW1  292   1.436   0.495   0.999
   89SOL    HW2  293   1.539   0.606   1.058
   90SOL     OW  294   1.857   0.833   0.377
   90SOL    HW1  295   1.899   0.769   0.441
   90SOL    HW2  296   1.819   0.782   0.299
   91SOL     OW  297   0.488   1.385   0.174
   91SOL    HW1  298   0.401   1.370   0.221
   91SOL    HW2  299   0.471   1.411   0.079
   92SOL     OW  300   1.664   1.280   0.657
   92SOL    HW1  301   1.763   1.288   0.671
   92SOL    HW2  302   1.619   1.364   0.688
   93SOL     OW  303   1.390   0.575   0.078
   93SOL    HW1  304   1.336   0.554   0.159
   93SOL    HW2  305   1.481   0.534   0.087
   94SOL     OW  306   0.527   0.256   0.328
   94SOL    HW1  307   0.554   0.197   0.253
   94SOL    HW2  308   0.527   0.351   0.297
   95SOL     OW  309   1.754   1.223   1.588
   95SOL    HW1  310   1.845   1.184   1.575
   95SOL    HW2  311   1.762   1.319   1.612
   96SOL     OW  312   1.064   1.347   1.340
   96SOL    HW1  313   0.984   1.324   1.395
   96SOL    HW2  314   1.147   1.321   1.389
   97SOL     OW  315   1.592   1.629   1.625
   97SOL    HW1  316   1.619   1.663   1.535
   97SOL    HW2  317   1.671   1.591   1.671
   98SOL     OW  318   1.111   1.195   1.100
   98SOL    HW1  319   1.071   1.239   1.181
   98SOL    HW2  320   1.070   1.232   1.017
   99SOL     OW  321   1.638   1.099   1.079
   99SOL    HW1  322   1.643   1.180   1.138
   99SOL    HW2  323   1.552   1.101   1.028
  100SOL     OW  324   0.915   0.089   1.402
  100SOL    HW1  325   0.940   0.069   1.307
  100SOL    HW2  326   0.987   0.145   1.444
  101SOL     OW  327   0.980   1.116   1.719
  101SOL    HW1  328   0.881   1.122   1.729
  101SOL    HW2  329   1.003   1.036   1.663
  102SOL     OW  330   0.705   1.050   0.368
  102SOL    HW1  331   0.691   1.057   0.467
  102SOL    HW2  332   0.789   0.999   0.350
  103SOL     OW  333   0.410   0.813   1.251
  103SOL    HW1  334   0.496   0.825   1.301
  103SOL    HW2  335   0.368   0.726   1.278
  104SOL     OW  336   1.274   0.386   1.262
  104SOL    HW1  337   1.295   0.460   1.326
  104SOL    HW2  338   1.185   0.403   1.219
  105SOL     OW  339   0.064   1.564   1.331
  105SOL    HW1  340   0.018   1.646   1.297
  105SOL    HW2  341   0.162   1.583   1.340
  106SOL     OW  342   0.367   1.100   0.501
  106SOL    HW1  343   0.360   1.183   0.445
  106SOL    HW2  344   0.371   1.020   0.441
  107SOL     OW  345   0.566   0.537   0.865
  107SOL    HW1  346   0.578   0.603   0.791
  107SOL    HW2  347   0.612   0.571   0.948
  108SOL     OW  348   1.252   1.348   0.388
  108SOL    HW1  349   1.302   1.425   0.428
  108SOL    HW2  350   1.157   1.350   0.420
  109SOL     OW  351   1.272   1.445   1.142
  109SOL    HW1  352   1.319   1.458   1.229
  109SOL    HW2  353   1.206   1.371   1.151
  110SOL     OW  354   1.582   0.639   0.472
  110SOL    HW1  355   1.551   0.700   0.545
  110SOL    HW2  356   1.632   0.691   0.403
  111SOL     OW  357   0.354   1.510   1.329
  111SOL    HW1  358   0.333   1.466   1.242
  111SOL    HW2  359   0.451   1.536   1.332
  112SOL     OW  360   0.402   0.751   1.598
  112SOL    HW1  361   0.470   0.806   1.551
  112SOL    HW2  362   0.442   0.663   1.625
  113SOL     OW  363   1.587   0.779   1.670
  113SOL    HW1  364   1.495   0.817   1.665
  113SOL    HW2  365   1.647   0.826   1.605
  114SOL     OW  366   1.013   0.105   1.770
  114SOL    HW1  367   1.019   0.190   1.718
  114SOL    HW2  368   1.045   0.029   1.713
  115SOL     OW  369   0.504   0.050   1.740
  115SOL    HW1  370   0.462  -0.007   1.670
  115SOL    HW2  371   0.438   0.119   1.772
  116SOL     OW  372   0.573   0.870   1.029
  116SOL    HW1  373   0.617   0.959   1.020
  116SOL    HW2  374   0.510   0.870   1.106
  117SOL     OW  375   1.360   0.862   1.045
  117SOL    HW1  376   1.285   0.862   0.979
  117SOL    HW2  377   1.397   0.770   1.054
  118SOL     OW  378   1.209   0.525   0.275
  118SOL    HW1  379   1.222   0.441   0.329
  118SOL    HW2  380   1.180   0.599   0.335
  119SOL     OW  381   0.307   0.213   1.231
  119SOL    HW1  382   0.284   0.250   1.321
  119SOL    HW2  383   0.277   0.118   1.225
  120SOL     OW  384   0.037   1.310   1.282
  120SOL    HW1  385   0.090   1.261   1.350
  120SOL    HW2  386   0.059   1.408   1.287
  121SOL     OW  387   0.732   0.634   1.064
  121SOL    HW1  388   0.791   0.608   0.988
  121SOL    HW2  389   0.704   0.730   1.053
  122SOL     OW  390   1.728   0.935   1.854
  122SOL    HW1  391   1.682   0.928   1.765
  122SOL    HW2  392   1.666   0.979   1.920
  123SOL     OW  393   0.307   0.063   0.618
  123SOL    HW1  394   0.296   0.157   0.651
  123SOL    HW2  395   0.302   0.000   0.695
  124SOL     OW  396   1.622   0.367   0.374
  124SOL    HW1  397   1.624   0.291   0.438
  124SOL    HW2  398   1.574   0.444   0.414
  125SOL     OW  399   1.023   0.766   0.966
  125SOL    HW1  400   1.038   0.787   1.062
  125SOL    HW2  401   0.993   0.671   0.957
  126SOL     OW  402   0.980   1.573   1.700
  126SOL    HW1  403   0.960   1.617   1.612
  126SOL    HW2  404   1.019   1.482   1.684
  127SOL     OW  405   1.859   1.518   1.605
  127SOL    HW1  406   1.873   1.545   1.510
  127SOL    HW2  407   1.942   1.540   1.658
  128SOL     OW  408   0.350   0.898   1.804
  128SOL    HW1  409   0.426   0.942   1.852
  128SOL    HW2  410   0.385   0.851   1.722
  129SOL     OW  411   1.540   0.274   0.125
  129SOL    HW1  412   1.479   0.199   0.148
  129SOL    HW2  413   1.562   0.326   0.208
  130SOL     OW  414   1.303   0.838   0.042
  130SOL    HW1  415   1.337   0.745   0.057
  130SOL    HW2  416   1.321   0.865  -0.053
  131SOL     OW  417   1.068   1.333   0.849
  131SOL    HW1  418   1.075   1.249   0.794
  131SOL    HW2  419   1.130   1.402   0.813
  132SOL     OW  420   0.319   0.810   0.949
  132SOL    HW1  421   0.412   0.846   0.954
  132SOL    HW2  422   0.313   0.725   1.001
  133SOL     OW  423   0.339   0.509   1.006
  133SOL    HW1  424   0.287   0.426   0.989
  133SOL    HW2  425   0.416   0.514   0.942
  134SOL     OW  426   1.138   0.380   1.678
  134SOL    HW1  427   1.093   0.443   1.742
  134SOL    HW2  428   1.231   0.411   1.661
  135SOL     OW  429   1.160   0.207   1.477
  135SOL    HW1  430   1.160   0.271   1.554
  135SOL    HW2  431   1.188   0.255   1.394
  136SOL     OW  432   0.008   1.326   0.200
  136SOL    HW1  433  -0.085   1.347   0.169
  136SOL    HW2  434   0.018   1.227   0.213
  137SOL     OW  435   0.088   1.801   0.927
  137SOL    HW1  436   0.046   1.715   0.900
  137SOL    HW2  437   0.182   1.804   0.893
  138SOL     OW  438   0.504   1.568   0.910
  138SOL    HW1  439   0.570   1.642   0.919
  138SOL    HW2  440   0.548   1.489   0.868
  139SOL     OW  441   1.002   0.796   1.238
  139SOL    HW1  442   1.043   0.764   1.324
  139SOL    HW2  443   0.906   0.769   1.235
  140SOL     OW  444   0.040   0.544   1.114
  140SOL    HW1  445   0.125   0.511   1.073
  140SOL    HW2  446   0.053   0.559   1.212
  141SOL     OW  447   0.189   0.520   1.722
  141SOL    HW1  448   0.248   0.480   1.652
  141SOL    HW2  449   0.131   0.591   1.681
  142SOL     OW  450   1.369   0.950   1.660
  142SOL    HW1  451   1.408   1.039   1.680
  142SOL    HW2  452   1.379   0.930   1.563
  143SOL     OW  453   0.815   0.572   0.325
  143SOL    HW1  454   0.822   0.483   0.279
  143SOL    HW2  455   0.721   0.606   0.317
  144SOL     OW  456   1.657   0.604   1.206
  144SOL    HW1  457   1.619   0.535   1.268
  144SOL    HW2  458   1.739   0.568   1.162
  145SOL     OW  459   0.252   1.564   1.744
  145SOL    HW1  460   0.222   1.621   1.820
  145SOL    HW2  461   0.245   1.467   1.770
  146SOL     OW  462   0.671   0.464   1.269
  146SOL    HW1  463   0.637   0.375   1.239
  146SOL    HW2  464   0.697   0.518   1.189
  147SOL     OW  465   0.930   1.678   1.465
  147SOL    HW1  466   0.906   1.660   1.370
  147SOL    HW2  467   0.960   1.772   1.475
  148SOL     OW  468   0.473   0.500   0.191
  148SOL    HW1  469   0.534   0.580   0.195
  148SOL    HW2  470   0.378   0.531   0.198
  149SOL     OW  471   0.159   1.137   1.466
  149SOL    HW1  472   0.181   1.076   1.542
  149SOL    HW2  473   0.169   1.088   1.380
  150SOL     OW  474   1.347   1.059   1.234
  150SOL    HW1  475   1.371   0.996   1.160
  150SOL    HW2  476   1.257   1.099   1.216
  151SOL     OW  477   1.302   0.855   0.309
  151SOL    HW1  478   1.216   0.824   0.351
  151SOL    HW2  479   1.298   0.841   0.210
  152SOL     OW  480   1.759   1.747   1.154
  152SOL    HW1  481   1.820   1.777   1.081
  152SOL    HW2  482   1.721   1.658   1.132
  153SOL     OW  483   1.252   1.731   1.128
  153SOL    HW1  484   1.336   1.736   1.074
  153SOL    HW2  485   1.229   1.635   1.146
  154SOL     OW  486   0.083   1.258   1.022
  154SOL    HW1  487   0.078   1.257   1.122
  154SOL    HW2  488   0.000   1.217   0.984
  155SOL     OW  489   0.688   1.662   1.716
  155SOL    HW1  490   0.632   1.743   1.725
  155SOL    HW2  491   0.740   1.666   1.630
  156SOL     OW  492   0.903   0.086   0.133
  156SOL    HW1  493   0.954   0.087   0.047
  156SOL    HW2  494   0.959   0.044   0.204
  157SOL     OW  495   1.726   0.135   0.523
  157SOL    HW1  496   1.799   0.118   0.456
  157SOL    HW2  497   1.695   0.048   0.561
  158SOL     OW  498   1.388   1.573   0.477
  158SOL    HW1  499   1.455   1.585   0.403
  158SOL    HW2  500   1.348   1.662   0.500
  159SOL     OW  501   0.130   1.794   1.851
  159SOL    HW1  502   0.089   1.720   1.904
  159SOL    HW2  503   0.194   1.845   1.909
  160SOL     OW  504   1.280   0.927   0.672
  160SOL    HW1  505   1.340   0.846   0.674
  160SOL    HW2  506   1.320   0.996   0.612
  161SOL     OW  507   0.830   1.273   1.422
  161SOL    HW1  508   0.825   1.306   1.517
  161SOL    HW2  509   0.744   1.292   1.376
  162SOL     OW  510   0.672   1.616   0.154
  162SOL    HW1  511   0.681   1.626   0.055
  162SOL    HW2  512   0.632   1.527   0.175
  163SOL     OW  513   1.650   1.720   1.394
  163SOL    HW1  514   1.703   1.730   1.310
  163SOL    HW2  515   1.623   1.810   1.428
  164SOL     OW  516   1.841   0.175   0.963
  164SOL    HW1  517   1.880   0.090   0.927
  164SOL    HW2  518   1.743   0.177   0.944
  165SOL     OW  519   0.263   0.326   0.720
  165SOL    HW1  520   0.184   0.377   0.686
  165SOL    HW2  521   0.254   0.311   0.818
  166SOL     OW  522   1.194   1.612   0.031
  166SOL    HW1  523   1.200   1.519   0.068
  166SOL    HW2  524   1.135   1.612  -0.049
  167SOL     OW  525   0.822   1.002   1.372
  167SOL    HW1  526   0.862   1.001   1.280
  167SOL    HW2  527   0.832   1.094   1.412
  168SOL     OW  528   0.916   0.910   0.291
  168SOL    HW1  529   0.979   0.948   0.223
  168SOL    HW2  530   0.956   0.827   0.330
  169SOL     OW  531   1.504   1.607   0.044
  169SOL    HW1  532   1.412   1.644   0.051
  169SOL    HW2  533   1.542   1.627  -0.046
  170SOL     OW  534   0.372   1.288   1.490
  170SOL    HW1  535   0.359   1.381   1.456
  170SOL    HW2  536   0.288   1.236   1.477
  171SOL     OW  537   1.614   1.292   1.289
  171SOL    HW1  538   1.674   1.295   1.369
  171SOL    HW2  539   1.539   1.356   1.302
  172SOL     OW  540   1.039   1.098   0.696
  172SOL    HW1  541   0.969   1.051   0.750
  172SOL    HW2  542   1.098   1.030   0.653
  173SOL     OW  543   1.014   0.236   0.971
  173SOL    HW1  544   1.006   0.200   0.878
  173SOL    HW2  545   1.012   0.160   1.036
  174SOL     OW  546   0.590   1.487   0.491
  174SOL    HW1  547   0.632   1.429   0.421
  174SOL    HW2  548   0.546   1.566   0.447
  175SOL     OW  549   1.709   0.385   1.381
  175SOL    HW1  550   1.782   0.454   1.385
  175SOL    HW2  551   1.737   0.310   1.322
  176SOL     OW  552   0.255   1.348   0.290
  176SOL    HW1  553   0.159   1.349   0.263
  176SOL    HW2  554   0.267   1.401   0.374
  177SOL     OW  555   0.105   1.013   1.726
  177SOL    HW1  556   0.028   0.980   1.780
  177SOL    HW2  557   0.190   0.983   1.768
  178SOL     OW  558   0.672   0.203   1.489
  178SOL    HW1  559   0.762   0.187   1.449
  178SOL    HW2  560   0.680   0.208   1.588
  179SOL     OW  561   0.075   0.345   0.033
  179SOL    HW1  562  -0.017   0.317   0.004
  179SOL    HW2  563   0.106   0.422  -0.023
  180SOL     OW  564   1.440   0.856   1.398
  180SOL    HW1  565   1.383   0.908   1.335
  180SOL    HW2  566   1.536   0.868   1.374
  181SOL     OW  567   0.072   0.166   0.318
  181SOL    HW1  568   0.055   0.249   0.264
  181SOL    HW2  569   0.162   0.129   0.296
  182SOL     OW  570   1.183   1.335   0.119
  182SOL    HW1  571   1.084   1.324   0.121
  182SOL    HW2  572   1.217   1.350   0.212
  183SOL     OW  573   0.613   0.842   1.431
  183SOL    HW1  574   0.669   0.923   1.414
  183SOL    HW2  575   0.672   0.762   1.434
  184SOL     OW  576   1.493   1.767   0.959
  184SOL    HW1  577   1.526   1.831   0.890
  184SOL    HW2  578   1.559   1.761   1.034
  185SOL     OW  579   0.716   0.565   1.708
  185SOL    HW1  580   0.735   0.630   1.782
  185SOL    HW2  581   0.776   0.485   1.717
  186SOL     OW  582   1.450   1.220   1.633
  186SOL    HW1  583   1.441   1.210   1.732
  186SOL    HW2  584   1.546   1.213   1.607
  187SOL     OW  585   0.390   1.741   1.560
  187SOL    HW1  586   0.299   1.782   1.558
  187SOL    HW2  587   0.383   1.647   1.592
  188SOL     OW  588   1.674   0.883   1.254
  188SOL    HW1  589   1.647   0.794   1.217
  188SOL    HW2  590   1.675   0.951   1.181
  189SOL     OW  591   1.225   0.325   0.449
  189SOL    HW1  592   1.290   0.251   0.438
  189SOL    HW2  593   1.245   0.375   0.533
  190SOL     OW  594   0.594   0.745   0.652
  190SOL    HW1  595   0.644   0.830   0.633
  190SOL    HW2  596   0.506   0.747   0.604
  191SOL     OW  597   1.777   0.342   1.642
  191SOL    HW1  598   1.760   0.373   1.548
  191SOL    HW2  599   1.693   0.305   1.680
  192SOL     OW  600   1.730   0.934   1.517
  192SOL    HW1  601   1.768   1.025   1.532
  192SOL    HW2  602   1.722   0.917   1.418
  193SOL     OW  603   0.859   1.374   0.016
  193SOL    HW1  604   0.813   1.389   0.104
  193SOL    HW2  605   0.903   1.459  -0.014
  194SOL     OW  606   0.661   1.790   0.953
  194SOL    HW1  607   0.615   1.878   0.940
  194SOL    HW2  608   0.760   1.802   0.946
  195SOL     OW  609   0.859   0.956   0.861
  195SOL    HW1  610   0.913   0.887   0.909
  195SOL    HW2  611   0.827   1.025   0.927
  196SOL     OW  612   1.083   0.984   0.087
  196SOL    HW1  613   1.060   1.037   0.005
  196SOL    HW2  614   1.164   0.928   0.068
  197SOL     OW  615   1.861   1.569   0.851
  197SOL    HW1  616   1.790   1.557   0.781
  197SOL    HW2  617   1.862   1.490   0.911
  198SOL     OW  618   0.221   1.314   1.844
  198SOL    HW1  619   0.156   1.241   1.823
  198SOL    HW2  620   0.225   1.328   1.942
  199SOL     OW  621   0.079   1.240   0.653
  199SOL    HW1  622   0.078   1.193   0.741
  199SOL    HW2  623   0.161   1.212   0.602
  200SOL     OW  624   0.672   1.391   1.624
  200SOL    HW1  625   0.594   1.341   1.662
  200SOL    HW2  626   0.669   1.486   1.655
  201SOL     OW  627   1.824   0.192   1.227
  201SOL    HW1  628   1.820   0.102   1.271
  201SOL    HW2  629   1.827   0.181   1.128
  202SOL     OW  630   0.428   0.424   0.520
  202SOL    HW1  631   0.458   0.352   0.458
  202SOL    HW2  632   0.389   0.384   0.603
  203SOL     OW  633   1.705   1.487   1.104
  203SOL    HW1  634   1.612   1.462   1.077
  203SOL    HW2  635   1.731   1.437   1.186
  204SOL     OW  636   0.317   0.547   1.280
  204SOL    HW1  637   0.355   0.488   1.352
  204SOL    HW2  638   0.357   0.521   1.192
  205SOL     OW  639   0.812   1.586   0.687
  205SOL    HW1  640   0.844   1.596   0.593
  205SOL    HW2  641   0.733   1.524   0.689
  206SOL     OW  642   1.424   0.214   1.112
  206SOL    HW1  643   1.476   0.149   1.167
  206SOL    HW2  644   1.375   0.277   1.173
  207SOL     OW  645   1.001   0.034   1.154
  207SOL    HW1  646   0.938  -0.038   1.123
  207SOL    HW2  647   1.094  -0.002   1.154
  208SOL     OW  648   0.770   1.330   0.301
  208SOL    HW1  649   0.724   1.243   0.318
  208SOL    HW2  650   0.861   1.327   0.342
  209SOL     OW  651   0.618   1.567   1.284
  209SOL    HW1  652   0.613   1.649   1.341
  209SOL    HW2  653   0.707   1.564   1.239
  210SOL     OW  654   1.352   0.052   0.168
  210SOL    HW1  655   1.387   0.011   0.084
  210SOL    HW2  656   1.262   0.014   0.188
  211SOL     OW  657   1.300   0.453   0.691
  211SOL    HW1  658   1.241   0.533   0.695
  211SOL    HW2  659   1.315   0.418   0.784
  212SOL     OW  660   1.593   0.221   0.882
  212SOL    HW1  661   1.509   0.220   0.936
  212SOL    HW2  662   1.595   0.304   0.826
  213SOL     OW  663   0.039   1.077   0.300
  213SOL    HW1  664   0.138   1.066   0.291
  213SOL    HW2  665  -0.001   0.991   0.332
  214SOL     OW  666   0.875   1.646   0.337
  214SOL    HW1  667   0.798   1.611   0.283
  214SOL    HW2  668   0.843   1.717   0.399
  215SOL     OW  669   0.230   0.628   1.975
  215SOL    HW1  670   0.137   0.626   2.012
  215SOL    HW2  671   0.231   0.589   1.883
  216SOL     OW  672   0.225   0.275   2.858
  216SOL    HW1  673   0.260   0.258   2.950
  216SOL    HW2  674   0.137   0.230   2.846
  217SOL     OW  675   0.019   0.368   2.509
  217SOL    HW1  676  -0.063   0.411   2.548
  217SOL    HW2  677  -0.009   0.295   2.446
  218SOL     OW  678   0.569   1.275   3.027
  218SOL    HW1  679   0.476   1.268   2.990
  218SOL    HW2  680   0.580   1.364   3.071
  219SOL     OW  681   1.555   1.511   2.565
  219SOL    HW1  682   1.498   1.495   2.646
  219SOL    HW2  683   1.496   1.521   2.485
  220SOL     OW  684   1.135   0.703   2.579
  220SOL    HW1  685   1.192   0.781   2.554
  220SOL    HW2  686   1.075   0.729   2.655
  221SOL     OW  687   1.755   0.607   2.093
  221SOL    HW1  688   1.743   0.594   1.994
  221SOL    HW2  689   1.725   0.526   2.142
  222SOL     OW  690   0.768   1.144   2.885
  222SOL    HW1  691   0.690   1.161   2.945
  222SOL    HW2  692   0.802   1.231   2.849
  223SOL     OW  693   0.850   0.798   3.685
  223SOL    HW1  694   0.846   0.874   3.750
  223SOL    HW2  695   0.872   0.834   3.594
  224SOL     OW  696   0.685   1.012   2.527
  224SOL    HW1  697   0.754   0.996   2.597
  224SOL    HW2  698   0.612   1.069   2.565
  225SOL     OW  699   0.686   1.161   3.665
  225SOL    HW1  700   0.746   1.240   3.679
  225SOL    HW2  701   0.600   1.192   3.624
  226SOL     OW  702   0.335   1.435   2.923
  226SOL    HW1  703   0.257   1.404   2.870
  226SOL    HW2  704   0.393   1.493   2.866
  227SOL     OW  705   1.460   1.505   3.201
  227SOL    HW1  706   1.484   1.599   3.227
  227SOL    HW2  707   1.444   1.451   3.283
  228SOL     OW  708   0.438   0.392   3.361
  228SOL    HW1  709   0.520   0.336   3.370
  228SOL    HW2  710   0.357   0.334   3.365
  229SOL     OW  711   1.603   0.447   2.599
  229SOL    HW1  712   1.529   0.493   2.549
  229SOL    HW2  713   1.654   0.515   2.652
  230SOL     OW  714   0.231   1.713   2.345
  230SOL    HW1  715   0.265   1.790   2.399
  230SOL    HW2  716   0.275   1.713   2.255
  231SOL     OW  717   1.127   1.341   3.552
  231SOL    HW1  718   1.174   1.341   3.640
  231SOL    HW2  719   1.079   1.254   3.541
  232SOL     OW  720   0.230   1.434   2.400
  232SOL    HW1  721   0.204   1.530   2.400
  232SOL    HW2  722   0.159   1.380   2.445
  233SOL     OW  723   0.240   1.091   2.748
  233SOL    HW1  724   0.254   1.007   2.800
  233SOL    HW2  725   0.185   1.155   2.803
  234SOL     OW  726   0.620   1.786   3.301
  234SOL    HW1  727   0.528   1.769   3.336
  234SOL    HW2  728   0.648   1.878   3.327
  235SOL     OW  729   0.606   0.964   1.985
  235SOL    HW1  730   0.613   1.048   1.931
  235SOL    HW2  731   0.652   0.977   2.073
  236SOL     OW  732   1.594   0.114   3.342
  236SOL    HW1  733   1.576   0.181   3.270
  236SOL    HW2  734   1.591   0.160   3.431
  237SOL     OW  735   0.122   0.643   2.425
  237SOL    HW1  736   0.077   0.555   2.442
  237SOL    HW2  737   0.121   0.697   2.509
  238SOL     OW  738   1.842   1.767   2.221
  238SOL    HW1  739   1.896   1.738   2.301
  238SOL    HW2  740   1.872   1.857   2.192
  239SOL     OW  741   0.027   1.596   1.979
  239SOL    HW1  742   0.008   1.500   2.000
  239SOL    HW2  743  -0.006   1.654   2.054
  240SOL     OW  744   1.689   0.922   2.474
  240SOL    HW1  745   1.784   0.893   2.482
  240SOL    HW2  746   1.681   0.987   2.399
  241SOL     OW  747   1.641   1.108   2.294
  241SOL    HW1  748   1.727   1.110   2.242
  241SOL    HW2  749   1.655   1.155   2.382
  242SOL     OW  750   0.113   0.737   3.459
  242SOL    HW1  751   0.201   0.724   3.504
  242SOL    HW2  752   0.100   0.834   3.437
  243SOL     OW  753   0.613   1.365   2.588
  243SOL    HW1  754   0.564   1.278   2.597
  243SOL    HW2  755   0.590   1.408   2.501
  244SOL     OW  756   1.293   1.228   3.285
  244SOL    HW1  757   1.330   1.155   3.227
  244SOL    HW2  758   1.345   1.233   3.370
  245SOL     OW  759   0.809   0.004   2.364
  245SOL    HW1  760   0.849   0.095   2.355
  245SOL    HW2  761   0.709   0.012   2.370
  246SOL     OW  762   0.197   0.976   3.126
  246SOL    HW1  763   0.286   0.931   3.112
  246SOL    HW2  764   0.124   0.911   3.107
  247SOL     OW  765   1.525   0.999   2.052
  247SOL    HW1  766   1.462   0.923   2.065
  247SOL    HW2  767   1.573   1.017   2.138
  248SOL     OW  768   1.187   1.792   3.478
  248SOL    HW1  769   1.211   1.852   3.402
  248SOL    HW2  770   1.194   1.697   3.448
  249SOL     OW  771   0.317   0.251   3.663
  249SOL    HW1  772   0.388   0.322   3.669
  249SOL    HW2  773   0.229   0.290   3.691
  250SOL     OW  774   1.466   1.417   2.815
  250SOL    HW1  775   1.407   1.423   2.895
  250SOL    HW2  776   1.451   1.329   2.769
  251SOL     OW  777   1.667   1.714   2.434
  251SOL    HW1  778   1.626   1.691   2.346
  251SOL    HW2  779   1.649   1.640   2.499
  252SOL     OW  780   0.598   0.729   2.132
  252SOL    HW1  781   0.622   0.798   2.064
  252SOL    HW2  782   0.520   0.762   2.186
  253SOL     OW  783   1.281   0.345   2.806
  253SOL    HW1  784   1.195   0.295   2.793
  253SOL    HW2  785   1.343   0.291   2.862
  254SOL     OW  786   1.576   1.662   2.169
  254SOL    HW1  787   1.665   1.708   2.172
  254SOL    HW2  788   1.555   1.638   2.074
  255SOL     OW  789   0.807   0.605   3.327
  255SOL    HW1  790   0.760   0.602   3.416
  255SOL    HW2  791   0.756   0.550   3.261
  256SOL     OW  792   1.394   0.469   3.536
  256SOL    HW1  793   1.374   0.512   3.624
  256SOL    HW2  794   1.472   0.407   3.545
  257SOL     OW  795   0.973   0.890   3.434
  257SOL    HW1  796   1.019   0.806   3.405
  257SOL    HW2  797   0.917   0.924   3.359
  258SOL     OW  798   0.991   0.410   3.104
  258SOL    HW1  799   0.914   0.444   3.158
  258SOL    HW2  800   0.957   0.359   3.025
  259SOL     OW  801   1.041   0.701   2.291
  259SOL    HW1  802   1.067   0.697   2.387
  259SOL    HW2  803   0.956   0.650   2.277
  260SOL     OW  804   0.076   0.811   2.651
  260SOL    HW1  805   0.175   0.799   2.660
  260SOL    HW2  806   0.052   0.906   2.672
  261SOL     OW  807   0.130   1.821   3.433
  261SOL    HW1  808   0.120   1.806   3.532
  261SOL    HW2  809   0.044   1.857   3.397
  262SOL     OW  810   0.865   0.348   2.057
  262SOL    HW1  811   0.924   0.411   2.008
  262SOL    HW2  812   0.884   0.254   2.028
  263SOL     OW  813   1.719   0.585   3.693
  263SOL    HW1  814   1.693   0.674   3.657
  263SOL    HW2  815   1.717   0.517   3.620
  264SOL     OW  816   1.362   1.144   2.407
  264SOL    HW1  817   1.445   1.115   2.359
  264SOL    HW2  818   1.313   1.211   2.351
  265SOL     OW  819   0.550   0.196   2.747
  265SOL    HW1  820   0.545   0.191   2.847
  265SOL    HW2  821   0.552   0.292   2.718
  266SOL     OW  822   1.008   1.456   2.339
  266SOL    HW1  823   0.962   1.528   2.287
  266SOL    HW2  824   1.004   1.476   2.437
  267SOL     OW  825   0.351   1.801   2.715
  267SOL    HW1  826   0.401   1.715   2.721
  267SOL    HW2  827   0.416   1.878   2.712
  268SOL     OW  828   1.795   1.066   2.735
  268SOL    HW1  829   1.733   1.051   2.659
  268SOL    HW2  830   1.743   1.077   2.820
  269SOL     OW  831   1.227   1.550   3.368
  269SOL    HW1  832   1.233   1.473   3.432
  269SOL    HW2  833   1.175   1.524   3.288
  270SOL     OW  834   0.321   0.943   2.104
  270SOL    HW1  835   0.403   0.982   2.062
  270SOL    HW2  836   0.294   0.861   2.055
  271SOL     OW  837   1.458   0.735   2.590
  271SOL    HW1  838   1.453   0.670   2.665
  271SOL    HW2  839   1.538   0.794   2.603
  272SOL     OW  840   0.461   1.266   3.589
  272SOL    HW1  841   0.411   1.267   3.503
  272SOL    HW2  842   0.398   1.248   3.665
  273SOL     OW  843   1.111   1.776   2.099
  273SOL    HW1  844   1.051   1.714   2.149
  273SOL    HW2  845   1.142   1.732   2.014
  274SOL     OW  846   0.202   0.285   3.360
  274SOL    HW1  847   0.122   0.345   3.347
  274SOL    HW2  848   0.192   0.236   3.446
  275SOL     OW  849   1.632   1.377   1.943
  275SOL    HW1  850   1.600   1.471   1.933
  275SOL    HW2  851   1.556   1.314   1.931
  276SOL     OW  852   0.464   1.743   2.185
  276SOL    HW1  853   0.497   1.782   2.271
  276SOL    HW2  854   0.540   1.736   2.120
  277SOL     OW  855   1.400   0.107   2.288
  277SOL    HW1  856   1.376   0.070   2.198
  277SOL    HW2  857   1.499   0.123   2.292
  278SOL     OW  858   0.249   1.785   3.103
  278SOL    HW1  859   0.306   1.720   3.153
  278SOL    HW2  860   0.233   1.752   3.010
  279SOL     OW  861   0.940   1.698   2.766
  279SOL    HW1  862   1.020   1.641   2.787
  279SOL    HW2  863   0.891   1.658   2.689
  280SOL     OW  864   0.382   0.700   2.342
  280SOL    HW1  865   0.427   0.610   2.339
  280SOL    HW2  866   0.288   0.689   2.375
  281SOL     OW  867   1.547   0.222   3.591
  281SOL    HW1  868   1.542   0.259   3.683
  281SOL    HW2  869   1.475   0.153   3.579
  282SOL     OW  870   0.614   0.122   1.979
  282SOL    HW1  871   0.712   0.100   1.986
  282SOL    HW2  872   0.583   0.105   1.886
  283SOL     OW  873   0.781   0.264   3.611
  283SOL    HW1  874   0.848   0.203   3.654
  283SOL    HW2  875   0.708   0.283   3.676
  284SOL     OW  876   0.888   1.514   3.057
  284SOL    HW1  877   0.865   1.489   2.963
  284SOL    HW2  878   0.949   1.445   3.096
  285SOL     OW  879   1.351   0.590   3.295
  285SOL    HW1  880   1.379   0.547   3.380
  285SOL    HW2  881   1.376   0.686   3.296
  286SOL     OW  882   0.803   1.402   2.786
  286SOL    HW1  883   0.893   1.416   2.744
  286SOL    HW2  884   0.732   1.404   2.715
  287SOL     OW  885   0.922   0.503   2.761
  287SOL    HW1  886   0.897   0.494   2.665
  287SOL    HW2  887   0.970   0.421   2.792
  288SOL     OW  888   0.539   0.064   2.374
  288SOL    HW1  889   0.458   0.065   2.432
  288SOL    HW2  890   0.542   0.147   2.319
  289SOL     OW  891   1.434   1.188   1.903
  289SOL    HW1  892   1.466   1.112   1.960
  289SOL    HW2  893   1.342   1.215   1.933
  290SOL     OW  894   0.297   0.035   2.033
  290SOL    HW1  895   0.346   0.119   2.012
  290SOL    HW2  896   0.359  -0.030   2.078
  291SOL     OW  897   0.935   0.236   2.342
  291SOL    HW1  898   0.887   0.277   2.264
  291SOL    HW2  899   1.034   0.234   2.323
  292SOL     OW  900   1.076   0.683   3.326
  292SOL    HW1  901   0.996   0.622   3.329
  292SOL    HW2  902   1.157   0.630   3.302
  293SOL     OW  903   1.227   1.570   2.655
  293SOL    HW1  904   1.248   1.644   2.590
  293SOL    HW2  905   1.295   1.570   2.728
  294SOL     OW  906   0.459   1.152   2.603
  294SOL    HW1  907   0.388   1.125   2.668
  294SOL    HW2  908   0.433   1.124   2.510
  295SOL     OW  909   1.271   1.797   2.453
  295SOL    HW1  910   1.315   1.861   2.389
  295SOL    HW2  911   1.221   1.849   2.523
  296SOL     OW  912   1.032   0.549   1.878
  296SOL    HW1  913   0.991   0.631   1.839
  296SOL    HW2  914   1.096   0.575   1.951
  297SOL     OW  915   0.078   0.556   3.248
  297SOL    HW1  916   0.170   0.555   3.207
  297SOL    HW2  917   0.072   0.630   3.315
  298SOL     OW  918   0.561   0.222   3.009
  298SOL    HW1  919   0.599   0.138   3.046
  298SOL    HW2  920   0.473   0.241   3.053
  299SOL     OW  921   0.866   0.454   2.504
  299SOL    HW1  922   0.834   0.526   2.442
  299SOL    HW2  923   0.890   0.373   2.451
  300SOL     OW  924   1.017   0.039   2.615
  300SOL    HW1  925   0.945   0.044   2.546
  300SOL    HW2  926   0.993  -0.030   2.684
  301SOL     OW  927   1.429   1.173   2.729
  301SOL    HW1  928   1.374   1.089   2.722
  301SOL    HW2  929   1.455   1.202   2.637
  302SOL     OW  930   1.466   0.590   2.854
  302SOL    HW1  931   1.436   0.495   2.861
  302SOL    HW2  932   1.539   0.606   2.920
  303SOL     OW  933   1.857   0.833   2.239
  303SOL    HW1  934   1.899   0.769   2.303
  303SOL    HW2  935   1.819   0.782   2.161
  304SOL     OW  936   0.488   1.385   2.036
  304SOL    HW1  937   0.401   1.370   2.083
  304SOL    HW2  938   0.471   1.411   1.941
  305SOL     OW  939   1.664   1.280   2.519
  305SOL    HW1  940   1.763   1.288   2.533
  305SOL    HW2  941   1.619   1.364   2.550
  306SOL     OW  942   1.390   0.575   1.940
  306SOL    HW1  943   1.336   0.554   2.021
  306SOL    HW2  944   1.481   0.534   1.949
  307SOL     OW  945   0.527   0.256   2.190
  307SOL    HW1  946   0.554   0.197   2.115
  307SOL    HW2  947   0.527   0.351   2.159
  308SOL     OW  948   1.754   1.223   3.450
  308SOL    HW1  949   1.845   1.184   3.437
  308SOL    HW2  950   1.762   1.319   3.474
  309SOL     OW  951   1.064   1.347   3.202
  309SOL    HW1  952   0.984   1.324   3.257
  309SOL    HW2  953   1.147   1.321   3.251
  310SOL     OW  954   1.592   1.629   3.487
  310SOL    HW1  955   1.619   1.663   3.397
  310SOL    HW2  956   1.671   1.591   3.533
  311SOL     OW  957   1.111   1.195   2.962
  311SOL    HW1  958   1.071   1.239   3.043
  311SOL    HW2  959   1.070   1.232   2.879
  312SOL     OW  960   1.638   1.099   2.941
  312SOL    HW1  961   1.643   1.180   3.000
  312SOL    HW2  962   1.552   1.101   2.890
  313SOL     OW  963   0.915   0.089   3.264
  313SOL    HW1  964   0.940   0.069   3.169
  313SOL    HW2  965   0.987   0.145   3.306
  314SOL     OW  966   0.980   1.116   3.581
  314SOL    HW1  967   0.881   1.122   3.591
  314SOL    HW2  968   1.003   1.036   3.525
  315SOL     OW  969   0.705   1.050   2.230
  315SOL    HW1  970   0.691   1.057   2.329
  315SOL    HW2  971   0.789   0.999   2.212
  316SOL     OW  972   0.410   0.813   3.113
  316SOL    HW1  973   0.496   0.825   3.163
  316SOL    HW2  974   0.368   0.726   3.140
  317SOL     OW  975   1.274   0.386   3.124
  317SOL    HW1  976   1.295   0.460   3.188
  317SOL    HW2  977   1.185   0.403   3.081
  318SOL     OW  978   0.064   1.564   3.193
  318SOL    HW1  979   0.018   1.646   3.159
  318SOL    HW2  980   0.162   1.583   3.202
  319SOL     OW  981   0.367   1.100   2.363
  319SOL    HW1  982   0.360   1.183   2.307
  319SOL    HW2  983   0.371   1.020   2.303
  320SOL     OW  984   0.566   0.537   2.727
  320SOL    HW1  985   0.578   0.603   2.653
  320SOL    HW2  986   0.612   0.571   2.810
  321SOL     OW  987   1.252   1.348   2.250
  321SOL    HW1  988   1.302   1.425   2.290
  321SOL    HW2  989   1.157   1.350   2.282
  322SOL     OW  990   1.272   1.445   3.004
  322SOL    HW1  991   1.319   1.458   3.091
  322SOL    HW2  992   1.206   1.371   3.013
  323SOL     OW  993   1.582   0.639   2.334
  323SOL    HW1  994   1.551   0.700   2.407
  323SOL    HW2  995   1.632   0.691   2.265
  324SOL     OW  996   0.354   1.510   3.191
  324SOL    HW1  997   0.333   1.466   3.104
  324SOL    HW2  998   0.451   1.536   3.194
  325SOL     OW  999   0.402   0.751   3.460
  325SOL    HW1 1000   0.470   0.806   3.413
  325SOL    HW2 1001   0.442   0.663   3.487
  326SOL     OW 1002   1.587   0.779   3.532
  326SOL    HW1 1003   1.495   0.817   3.527
  326SOL    HW2 1004   1.647   0.826   3.467
  327SOL     OW 1005   1.013   0.105   3.632
  327SOL    HW1 1006   1.019   0.190   3.580
  327SOL    HW2 1007   1.045   0.029   3.575
  328SOL     OW 1008   0.504   0.050   3.602
  328SOL    HW1 1009   0.462  -0.007   3.532
  328SOL    HW2 1010   0.438   0.119   3.634
  329SOL     OW 1011   0.573   0.870   2.891
  329SOL    HW1 1012   0.617   0.959   2.882
  329SOL    HW2 1013   0.510   0.870   2.968
  330SOL     OW 1014   1.360   0.862   2.907
  330SOL    HW1 1015   1.285   0.862   2.841
  330SOL    HW2 1016   1.397   0.770   2.916
  331SOL     OW 1017   1.209   0.525   2.137
  331SOL    HW1 1018   1.222   0.441   2.191
  331SOL    HW2 1019   1.180   0.599   2.197
  332SOL     OW 1020   0.307   0.213   3.093
  332SOL    HW1 1021   0.284   0.250   3.183
  332SOL    HW2 1022   0.277   0.118   3.087
  333SOL     OW 1023   0.037   1.310   3.144
  333SOL    HW1 1024   0.090   1.261   3.212
  333SOL    HW2 1025   0.059   1.408   3.149
  334SOL     OW 1026   0.732   0.634   2.926
  334SOL    HW1 1027   0.791   0.608   2.850
  334SOL    HW2 1028   0.704   0.730   2.915
  335SOL     OW 1029   1.728   0.935   3.716
  335SOL    HW1 1030   1.682   0.928   3.627
  335SOL    HW2 1031   1.666   0.979   3.782
  336SOL     OW 1032   0.307   0.063   2.480
  336SOL    HW1 1033   0.296   0.157   2.513
  336SOL    HW2 1034   0.302   0.000   2.557
  337SOL     OW 1035   1.622   0.367   2.236
  337SOL    HW1 1036   1.624   0.291   2.300
  337SOL    HW2 1037   1.574   0.444   2.276
  338SOL     OW 1038   1.023   0.766   2.828
  338SOL    HW1 1039   1.038   0.787   2.924
  338SOL    HW2 1040   0.993   0.671   2.819
  339SOL     OW 1041   0.980   1.573   3.562
  339SOL    HW1 1042   0.960   1.617   3.474
  339SOL    HW2 1043   1.019   1.482   3.546
  340SOL     OW 1044   1.859   1.518   3.467
  340SOL    HW1 1045   1.873   1.545   3.372
  340SOL    HW2 1046   1.942   1.540   3.520
  341SOL     OW 1047   0.350   0.898   3.666
  341SOL    HW1 1048   0.426   0.942   3.714
  341SOL    HW2 1049   0.385   0.851   3.584
  342SOL     OW 1050   1.540   0.274   1.987
  342SOL    HW1 1051   1.479   0.199   2.010
  342SOL    HW2 1052   1.562   0.326   2.070
  343SOL     OW 1053   1.303   0.838   1.904
  343SOL    HW1 1054   1.337   0.745   1.919
  343SOL    HW2 1055   1.321   0.865   1.809
  344SOL     OW 1056   1.068   1.333   2.711
  344SOL    HW1 1057   1.075   1.249   2.656
  344SOL    HW2 1058   1.130   1.402   2.675
  345SOL     OW 1059   0.319   0.810   2.811
  345SOL    HW1 1060   0.412   0.846   2.816
  345SOL    HW2 1061   0.313   0.725   2.863
  346SOL     OW 1062   0.339   0.509   2.868
  346SOL    HW1 1063   0.287   0.426   2.851
  346SOL    HW2 1064   0.416   0.514   2.804
  347SOL     OW 1065   1.138   0.380   3.540
  347SOL    HW1 1066   1.093   0.443   3.604
  347SOL    HW2 1067   1.231   0.411   3.523
  348SOL     OW 1068   1.160   0.207   3.339
  348SOL    HW1 1069   1.160   0.271   3.416
  348SOL    HW2 1070   1.188   0.255   3.256
  349SOL     OW 1071   0.008   1.326   2.062
  349SOL    HW1 1072  -0.085   1.347   2.031
  349SOL    HW2 1073   0.018   1.227   2.075
  350SOL     OW 1074   0.088   1.801   2.789
  350SOL    HW1 1075   0.046   1.715   2.762
  350SOL    HW2 1076   0.182   1.804   2.755
  351SOL     OW 1077   0.504   1.568   2.772
  351SOL    HW1 1078   0.570   1.642   2.781
  351SOL    HW2 1079   0.548   1.489   2.730
  352SOL     OW 1080   1.002   0.796   3.100
  352SOL    HW1 1081   1.043   0.764   3.186
  352SOL    HW2 1082   0.906   0.769   3.097
  353SOL     OW 1083   0.040   0.544   2.976
  353SOL    HW1 1084   0.125   0.511   2.935
  353SOL    HW2 1085   0.053   0.559   3.074
  354SOL     OW 1086   0.189   0.520   3.584
  354SOL    HW1 1087   0.248   0.480   3.514
  354SOL    HW2 1088   0.131   0.591   3.543
  355SOL     OW 1089   1.369   0.950   3.522
  355SOL    HW1 1090   1.408   1.039   3.542
  355SOL    HW2 1091   1.379   0.930   3.425
  356SOL     OW 1092   0.815   0.572   2.187
  356SOL    HW1 1093   0.822   0.483   2.141
  356SOL    HW2 1094   0.721   0.606   2.179
  357SOL     OW 1095   1.657   0.604   3.068
  357SOL    HW1 1096   1.619   0.535   3.130
  357SOL    HW2 1097   1.739   0.568   3.024
  358SOL     OW 1098   0.252   1.564   3.606
  358SOL    HW1 1099   0.222   1.621   3.682
  358SOL    HW2 1100   0.245   1.467   3.632
  359SOL     OW 1101   0.671   0.464   3.131
  359SOL    HW1 1102   0.637   0.375   3.101
  359SOL    HW2 1103   0.697   0.518   3.051
  360SOL     OW 1104   0.930   1.678   3.327
  360SOL    HW1 1105   0.906   1.660   3.232
  360SOL    HW2 1106   0.960   1.772   3.337
  361SOL     OW 1107   0.473   0.500   2.053
  361SOL    HW1 1108   0.534   0.580   2.057
  361SOL    HW2 1109   0.378   0.531   2.060
  362SOL     OW 1110   0.159   1.137   3.328
  362SOL    HW1 1111   0.181   1.076   3.404
  362SOL    HW2 1112   0.169   1.088   3.242
  363SOL     OW 1113   1.347   1.059   3.096
  363SOL    HW1 1114   1.371   0.996   3.022
  363SOL    HW2 1115   1.257   1.099   3.078
  364SOL     OW 1116   1.302   0.855   2.171
  364SOL    HW1 1117   1.216   0.824   2.213
  364SOL    HW2 1118   1.298   0.841   2.072
  365SOL     OW 1119   1.759   1.747   3.016
  365SOL    HW1 1120   1.820   1.777   2.943
  365SOL    HW2 1121   1.721   1.658   2.994
  366SOL     OW 1122   1.252   1.731   2.990
  366SOL    HW1 1123   1.336   1.736   2.936
  366SOL    HW2 1124   1.229   1.635   3.008
  367SOL     OW 1125   0.083   1.258   2.884
  367SOL    HW1 1126   0.078   1.257   2.984
  367SOL    HW2 1127   0.000   1.217   2.846
  368SOL     OW 1128   0.688   1.662   3.578
  368SOL    HW1 1129   0.632   1.743   3.587
  368SOL    HW2 1130   0.740   1.666   3.492
  369SOL     OW 1131   1.726   0.135   2.385
  369SOL    HW1 1132   1.799   0.118   2.318
  369SOL    HW2 1133   1.695   0.048   2.423
  370SOL     OW 1134   1.388   1.573   2.339
  370SOL    HW1 1135   1.455   1.585   2.265
  370SOL    HW2 1136   1.348   1.662   2.362
  371SOL     OW 1137   0.130   1.794   3.713
  371SOL    HW1 1138   0.089   1.720   3.766
  371SOL    HW2 1139   0.194   1.845   3.771
  372SOL     OW 1140   1.280   0.927   2.534
  372SOL    HW1 1141   1.340   0.846   2.536
  372SOL    HW2 1142   1.320   0.996   2.474
  373SOL     OW 1143   0.830   1.273   3.284
  373SOL    HW1 1144   0.825   1.306   3.379
  373SOL    HW2 1145   0.744   1.292   3.238
  374SOL     OW 1146   0.672   1.616   2.016
  374SOL    HW1 1147   0.681   1.626   1.917
  374SOL    HW2 1148   0.632   1.527   2.037
  375SOL     OW 1149   1.650   1.720   3.256
  375SOL    HW1 1150   1.703   1.730   3.172
  375SOL    HW2 1151   1.623   1.810   3.290
  376SOL     OW 1152   1.841   0.175   2.825
  376SOL    HW1 1153   1.880   0.090   2.789
  376SOL    HW2 1154   1.743   0.177   2.806
  377SOL     OW 1155   0.263   0.326   2.582
  377SOL    HW1 1156   0.184   0.377   2.548
  377SOL    HW2 1157   0.254   0.311   2.680
  378SOL     OW 1158   1.194   1.612   1.893
  378SOL    HW1 1159   1.200   1.519   1.930
  378SOL    HW2 1160   1.135   1.612   1.813
  379SOL     OW 1161   0.822   1.002   3.234
  379SOL    HW1 1162   0.862   1.001   3.142
  379SOL    HW2 1163   0.832   1.094   3.274
  380SOL     OW 1164   0.916   0.910   2.153
  380SOL    HW1 1165   0.979   0.948   2.085
  380SOL    HW2 1166   0.956   0.827   2.192
  381SOL     OW 1167   1.504   1.607   1.906
  381SOL    HW1 1168   1.412   1.644   1.913
  381SOL    HW2 1169   1.542   1.627   1.816
  382SOL     OW 1170   0.372   1.288   3.352
  382SOL    HW1 1171   0.359   1.381   3.318
  382SOL    HW2 1172   0.288   1.236   3.339
  383SOL     OW 1173   1.614   1.292   3.151
  383SOL    HW1 1174   1.674   1.295   3.231
  383SOL    HW2 1175   1.539   1.356   3.164
  384SOL     OW 1176   1.039   1.098   2.558
  384SOL    HW1 1177   0.969   1.051   2.612
  384SOL    HW2 1178   1.098   1.030   2.515
  385SOL     OW 1179   1.014   0.236   2.833
  385SOL    HW1 1180   1.006   0.200   2.740
  385SOL    HW2 1181   1.012   0.160   2.898
  386SOL     OW 1182   0.590   1.487   2.353
  386SOL    HW1 1183   0.632   1.429   2.283
  386SOL    HW2 1184   0.546   1.566   2.309
  387SOL     OW 1185   1.709   0.385   3.243
  387SOL    HW1 1186   1.782   0.454   3.247
  387SOL    HW2 1187   1.737   0.310   3.184
  388SOL     OW 1188   0.255   1.348   2.152
  388SOL    HW1 1189   0.159   1.349   2.125
  388SOL    HW2 1190   0.267   1.401   2.236
  389SOL     OW 1191   0.105   1.013   3.588
  389SOL    HW1 1192   0.028   0.980   3.642
  389SOL    HW2 1193   0.190   0.983   3.630
  390SOL     OW 1194   0.672   0.203   3.351
  390SOL    HW1 1195   0.762   0.187   3.311
  390SOL    HW2 1196   0.680   0.208   3.450
  391SOL     OW 1197   0.075   0.345   1.895
  391SOL    HW1 1198  -0.017   0.317   1.866
  391SOL    HW2 1199   0.106   0.422   1.839
  392SOL     OW 1200   1.440   0.856   3.260
  392SOL    HW1 1201   1.383   0.908   3.197
  392SOL    HW2 1202   1.536   0.868   3.236
  393SOL     OW 1203   0.072   0.166   2.180
  393SOL    HW1 1204   0.055   0.249   2.126
  393SOL    HW2 1205   0.162   0.129   2.158
  394SOL     OW 1206   1.183   1.335   1.981
  394SOL    HW1 1207   1.084   1.324   1.983
  394SOL    HW2 1208   1.217   1.350   2.074
  395SOL     OW 1209   0.613   0.842   3.293
  395SOL    HW1 1210   0.669   0.923   3.276
  395SOL    HW2 1211   0.672   0.762   3.296
  396SOL     OW 1212   1.493   1.767   2.821
  396SOL    HW1 1213   1.526   1.831   2.752
  396SOL    HW2 1214   1.559   1.761   2.896
  397SOL     OW 1215   0.716   0.565   3.570
  397SOL    HW1 1216   0.735   0.630   3.644
  397SOL    HW2 1217   0.776   0.485   3.579
  398SOL     OW 1218   1.450   1.220   3.495
  398SOL    HW1 1219   1.441   1.210   3.594
  398SOL    HW2 1220   1.546   1.213   3.469
  399SOL     OW 1221   0.390   1.741   3.422
  399SOL    HW1 1222   0.299   1.782   3.420
  399SOL    HW2 1223   0.383   1.647   3.454
  400SOL     OW 1224   1.674   0.883   3.116
  400SOL    HW1 1225   1.647   0.794   3.079
  400SOL    HW2 1226   1.675   0.951   3.043
  401SOL     OW 1227   1.225   0.325   2.311
  401SOL    HW1 1228   1.290   0.251   2.300
  401SOL    HW2 1229   1.245   0.375   2.395
  402SOL     OW 1230   0.594   0.745   2.514
  402SOL    HW1 1231   0.644   0.830   2.495
  402SOL    HW2 1232   0.506   0.747   2.466
  403SOL     OW 1233   1.777   0.342   3.504
  403SOL    HW1 1234   1.760   0.373   3.410
  403SOL    HW2 1235   1.693   0.305   3.542
  404SOL     OW 1236   1.730   0.934   3.379
  404SOL    HW1 1237   1.768   1.025   3.394
  404SOL    HW2 1238   1.722   0.917   3.280
  405SOL     OW 1239   0.859   1.374   1.878
  405SOL    HW1 1240   0.813   1.389   1.966
  405SOL    HW2 1241   0.903   1.459   1.848
  406SOL     OW 1242   0.661   1.790   2.815
  406SOL    HW1 1243   0.615   1.878   2.802
  406SOL    HW2 1244   0.760   1.802   2.808
  407SOL     OW 1245   0.859   0.956   2.723
  407SOL    HW1 1246   0.913   0.887   2.771
  407SOL    HW2 1247   0.827   1.025   2.789
  408SOL     OW 1248   1.083   0.984   1.949
  408SOL    HW1 1249   1.060   1.037   1.867
  408SOL    HW2 1250   1.164   0.928   1.930
  409SOL     OW 1251   1.861   1.569   2.713
  409SOL    HW1 1252   1.790   1.557   2.643
  409SOL    HW2 1253   1.862   1.490   2.773
  410SOL     OW 1254   0.221   1.314   3.706
  410SOL    HW1 1255   0.156   1.241   3.685
  410SOL    HW2 1256   0.225   1.328   3.804
  411SOL     OW 1257   0.079   1.240   2.515
  411SOL    HW1 1258   0.078   1.193   2.603
  411SOL    HW2 1259   0.161   1.212   2.464
  412SOL     OW 1260   0.672   1.391   3.486
  412SOL    HW1 1261   0.594   1.341   3.524
  412SOL    HW2 1262   0.669   1.486   3.517
  413SOL     OW 1263   1.824   0.192   3.089
  413SOL    HW1 1264   1.820   0.102   3.133
  413SOL    HW2 1265   1.827   0.181   2.990
  414SOL     OW 1266   0.428   0.424   2.382
  414SOL    HW1 1267   0.458   0.352   2.320
  414SOL    HW2 1268   0.389   0.384   2.465
  415SOL     OW 1269   1.705   1.487   2.966
  415SOL    HW1 1270   1.612   1.462   2.939
  415SOL    HW2 1271   1.731   1.437   3.048
  416SOL     OW 1272   0.317   0.547   3.142
  416SOL    HW1 1273   0.355   0.488   3.214
  416SOL    HW2 1274   0.357   0.521   3.054
  417SOL     OW 1275   0.812   1.586   2.549
  417SOL    HW1 1276   0.844   1.596   2.455
  417SOL    HW2 1277   0.733   1.524   2.551
  418SOL     OW 1278   1.424   0.214   2.974
  418SOL    HW1 1279   1.476   0.149   3.029
  418SOL    HW2 1280   1.375   0.277   3.035
  419SOL     OW 1281   1.001   0.034   3.016
  419SOL    HW1 1282   0.938  -0.038   2.985
  419SOL    HW2 1283   1.094  -0.002   3.016
  420SOL     OW 1284   0.770   1.330   2.163
  420SOL    HW1 1285   0.724   1.243   2.180
  420SOL    HW2 1286   0.861   1.327   2.204
  421SOL     OW 1287   0.618   1.567   3.146
  421SOL    HW1 1288   0.613   1.649   3.203
  421SOL    HW2 1289   0.707   1.564   3.101
  422SOL     OW 1290   1.352   0.052   2.030
  422SOL    HW1 1291   1.387   0.011   1.946
  422SOL    HW2 1292   1.262   0.014   2.050
  423SOL     OW 1293   1.300   0.453   2.553
  423SOL    HW1 1294   1.241   0.533   2.557
  423SOL    HW2 1295   1.315   0.418   2.646
  424SOL     OW 1296   1.593   0.221   2.744
  424SOL    HW1 1297   1.509   0.220   2.798
  424SOL    HW2 1298   1.595   0.304   2.688
  425SOL     OW 1299   0.039   1.077   2.162
  425SOL    HW1 1300   0.138   1.066   2.153
  425SOL    HW2 1301  -0.001   0.991   2.194
  426SOL     OW 1302   0.875   1.646   2.199
  426SOL    HW1 1303   0.798   1.611   2.145
  426SOL    HW2 1304   0.843   1.717   2.261
  427SOL     OW 1305   0.230   0.628   3.837
  427SOL    HW1 1306   0.137   0.626   3.874
  427SOL    HW2 1307   0.231   0.589   3.745
  428SOL     OW 1308   0.225   0.275   4.720
  428SOL    HW1 1309   0.260   0.258   4.812
  428SOL    HW2 1310   0.137   0.230   4.708
  429SOL     OW 1311   0.019   0.368   4.371
  429SOL    HW1 1312  -0.063   0.411   4.410
  429SOL    HW2 1313  -0.009   0.295   4.308
  430SOL     OW 1314   0.569   1.275   4.889
  430SOL    HW1 1315   0.476   1.268   4.852
  430SOL    HW2 1316   0.580   1.364   4.933
  431SOL     OW 1317   1.555   1.511   4.427
  431SOL    HW1 1318   1.498   1.495   4.508
  431SOL    HW2 1319   1.496   1.521   4.347
  432SOL     OW 1320   1.135   0.703   4.441
  432SOL    HW1 1321   1.192   0.781   4.416
  432SOL    HW2 1322   1.075   0.729   4.517
  433SOL     OW 1323   1.755   0.607   3.955
  433SOL    HW1 1324   1.743   0.594   3.856
  433SOL    HW2 1325   1.725   0.526   4.004
  434SOL     OW 1326   0.768   1.144   4.747
  434SOL    HW1 1327   0.690   1.161   4.807
  434SOL    HW2 1328   0.802   1.231   4.711
  435SOL     OW 1329   0.685   1.012   4.389
  435SOL    HW1 1330   0.754   0.996   4.459
  435SOL    HW2 1331   0.612   1.069   4.427
  436SOL     OW 1332   0.335   1.435   4.785
  436SOL    HW1 1333   0.257   1.404   4.732
  436SOL    HW2 1334   0.393   1.493   4.728
  437SOL     OW 1335   0.438   0.392   5.223
  437SOL    HW1 1336   0.520   0.336   5.232
  437SOL    HW2 1337   0.357   0.334   5.227
  438SOL     OW 1338   1.603   0.447   4.461
  438SOL    HW1 1339   1.529   0.493   4.411
  438SOL    HW2 1340   1.654   0.515   4.514
  439SOL     OW 1341   0.231   1.713   4.207
  439SOL    HW1 1342   0.265   1.790   4.261
  439SOL    HW2 1343   0.275   1.713   4.117
  440SOL     OW 1344   0.230   1.434   4.262
  440SOL    HW1 1345   0.204   1.530   4.262
  440SOL    HW2 1346   0.159   1.380   4.307
  441SOL     OW 1347   0.240   1.091   4.610
  441SOL    HW1 1348   0.254   1.007   4.662
  441SOL    HW2 1349   0.185   1.155   4.665
  442SOL     OW 1350   0.620   1.786   5.163
  442SOL    HW1 1351   0.528   1.769   5.198
  442SOL    HW2 1352   0.648   1.878   5.189
  443SOL     OW 1353   0.606   0.964   3.847
  443SOL    HW1 1354   0.613   1.048   3.793
  443SOL    HW2 1355   0.652   0.977   3.935
  444SOL     OW 1356   0.122   0.643   4.287
  444SOL    HW1 1357   0.077   0.555   4.304
  444SOL    HW2 1358   0.121   0.697   4.371
  445SOL     OW 1359   1.842   1.767   4.083
  445SOL    HW1 1360   1.896   1.738   4.163
  445SOL    HW2 1361   1.872   1.857   4.054
  446SOL     OW 1362   0.027   1.596   3.841
  446SOL    HW1 1363   0.008   1.500   3.862
  446SOL    HW2 1364  -0.006   1.654   3.916
  447SOL     OW 1365   1.689   0.922   4.336
  447SOL    HW1 1366   1.784   0.893   4.344
  447SOL    HW2 1367   1.681   0.987   4.261
  448SOL     OW 1368   1.641   1.108   4.156
  448SOL    HW1 1369   1.727   1.110   4.104
  448SOL    HW2 1370   1.655   1.155   4.244
  449SOL     OW 1371   0.613   1.365   4.450
  449SOL    HW1 1372   0.564   1.278   4.459
  449SOL    HW2 1373   0.590   1.408   4.363
  450SOL     OW 1374   0.809   0.004   4.226
  450SOL    HW1 1375   0.849   0.095   4.217
  450SOL    HW2 1376   0.709   0.012   4.232
  451SOL     OW 1377   0.197   0.976   4.988
  451SOL    HW1 1378   0.286   0.931   4.974
  451SOL    HW2 1379   0.124   0.911   4.969
  452SOL     OW 1380   1.525   0.999   3.914
  452SOL    HW1 1381   1.462   0.923   3.927
  452SOL    HW2 1382   1.573   1.017   4.000
  453SOL     OW 1383   1.466   1.417   4.677
  453SOL    HW1 1384   1.407   1.423   4.757
  453SOL    HW2 1385   1.451   1.329   4.631
  454SOL     OW 1386   1.667   1.714   4.296
  454SOL    HW1 1387   1.626   1.691   4.208
  454SOL    HW2 1388   1.649   1.640   4.361
  455SOL     OW 1389   0.598   0.729   3.994
  455SOL    HW1 1390   0.622   0.798   3.926
  455SOL    HW2 1391   0.520   0.762   4.048
  456SOL     OW 1392   1.281   0.345   4.668
  456SOL    HW1 1393   1.195   0.295   4.655
  456SOL    HW2 1394   1.343   0.291   4.724
  457SOL     OW 1395   1.576   1.662   4.031
  457SOL    HW1 1396   1.665   1.708   4.034
  457SOL    HW2 1397   1.555   1.638   3.936
  458SOL     OW 1398   0.807   0.605   5.189
  458SOL    HW1 1399   0.760   0.602   5.278
  458SOL    HW2 1400   0.756   0.550   5.123
  459SOL     OW 1401   0.991   0.410   4.966
  459SOL    HW1 1402   0.914   0.444   5.020
  459SOL    HW2 1403   0.957   0.359   4.887
  460SOL     OW 1404   1.041   0.701   4.153
  460SOL    HW1 1405   1.067   0.697   4.249
  460SOL    HW2 1406   0.956   0.650   4.139
  461SOL     OW 1407   0.076   0.811   4.513
  461SOL    HW1 1408   0.175   0.799   4.522
  461SOL    HW2 1409   0.052   0.906   4.534
  462SOL     OW 1410   0.130   1.821   5.295
  462SOL    HW1 1411   0.120   1.806   5.394
  462SOL    HW2 1412   0.044   1.857   5.259
  463SOL     OW 1413   0.865   0.348   3.919
  463SOL    HW1 1414   0.924   0.411   3.870
  463SOL    HW2 1415   0.884   0.254   3.890
  464SOL     OW 1416   1.362   1.144   4.269
  464SOL    HW1 1417   1.445   1.115   4.221
  464SOL    HW2 1418   1.313   1.211   4.213
  465SOL     OW 1419   0.550   0.196   4.609
  465SOL    HW1 1420   0.545   0.191   4.709
  465SOL    HW2 1421   0.552   0.292   4.580
  466SOL     OW 1422   1.008   1.456   4.201
  466SOL    HW1 1423   0.962   1.528   4.149
  466SOL    HW2 1424   1.004   1.476   4.299
  467SOL     OW 1425   0.351   1.801   4.577
  467SOL    HW1 1426   0.401   1.715   4.583
  467SOL    HW2 1427   0.416   1.878   4.574
  468SOL     OW 1428   1.795   1.066   4.597
  468SOL    HW1 1429   1.733   1.051   4.521
  468SOL    HW2 1430   1.743   1.077   4.682
  469SOL     OW 1431   0.321   0.943   3.966
  469SOL    HW1 1432   0.403   0.982   3.924
  469SOL    HW2 1433   0.294   0.861   3.917
  470SOL     OW 1434   1.458   0.735   4.452
  470SOL    HW1 1435   1.453   0.670   4.527
  470SOL    HW2 1436   1.538   0.794   4.465
  471SOL     OW 1437   1.111   1.776   3.961
  471SOL    HW1 1438   1.051   1.714   4.011
  471SOL    HW2 1439   1.142   1.732   3.876
  472SOL     OW 1440   1.632   1.377   3.805
  472SOL    HW1 1441   1.600   1.471   3.795
  472SOL    HW2 1442   1.556   1.314   3.793
  473SOL     OW 1443   0.464   1.743   4.047
  473SOL    HW1 1444   0.497   1.782   4.133
  473SOL    HW2 1445   0.540   1.736   3.982
  474SOL     OW 1446   1.400   0.107   4.150
  474SOL    HW1 1447   1.376   0.070   4.060
  474SOL    HW2 1448   1.499   0.123   4.154
  475SOL     OW 1449   0.249   1.785   4.965
  475SOL    HW1 1450   0.306   1.720   5.015
  475SOL    HW2 1451   0.233   1.752   4.872
  476SOL     OW 1452   0.940   1.698   4.628
  476SOL    HW1 1453   1.020   1.641   4.649
  476SOL    HW2 1454   0.891   1.658   4.551
  477SOL     OW 1455   0.382   0.700   4.204
  477SOL    HW1 1456   0.427   0.610   4.201
  477SOL    HW2 1457   0.288   0.689   4.237
  478SOL     OW 1458   0.614   0.122   3.841
  478SOL    HW1 1459   0.712   0.100   3.848
  478SOL    HW2 1460   0.583   0.105   3.748
  479SOL     OW 1461   0.888   1.514   4.919
  479SOL    HW1 1462   0.865   1.489   4.825
  479SOL    HW2 1463   0.949   1.445   4.958
  480SOL     OW 1464   0.803   1.402   4.648
  480SOL    HW1 1465   0.893   1.416   4.606
  480SOL    HW2 1466   0.732   1.404   4.577
  481SOL     OW 1467   0.922   0.503   4.623
  481SOL    HW1 1468   0.897   0.494   4.527
  481SOL    HW2 1469   0.970   0.421   4.654
  482SOL     OW 1470   0.539   0.064   4.236
  482SOL    HW1 1471   0.458   0.065   4.294
  482SOL    HW2 1472   0.542   0.147   4.181
  483SOL     OW 1473   1.434   1.188   3.765
  483SOL    HW1 1474   1.466   1.112   3.822
  483SOL    HW2 1475   1.342   1.215   3.795
  484SOL     OW 1476   0.297   0.035   3.895
  484SOL    HW1 1477   0.346   0.119   3.874
  484SOL    HW2 1478   0.359  -0.030   3.940
  485SOL     OW 1479   0.935   0.236   4.204
  485SOL    HW1 1480   0.887   0.277   4.126
  485SOL    HW2 1481   1.034   0.234   4.185
  486SOL     OW 1482   1.227   1.570   4.517
  486SOL    HW1 1483   1.248   1.644   4.452
  486SOL    HW2 1484   1.295   1.570   4.590
  487SOL     OW 1485   0.459   1.152   4.465
  487SOL    HW1 1486   0.388   1.125   4.530
  487SOL    HW2 1487   0.433   1.124   4.372
  488SOL     OW 1488   1.271   1.797   4.315
  488SOL    HW1 1489   1.315   1.861   4.251
  488SOL    HW2 1490   1.221   1.849   4.385
  489SOL     OW 1491   1.032   0.549   3.740
  489SOL    HW1 1492   0.991   0.631   3.701
  489SOL    HW2 1493   1.096   0.575   3.813
  490SOL     OW 1494   0.561   0.222   4.871
  490SOL    HW1 1495   0.599   0.138   4.908
  490SOL    HW2 1496   0.473   0.241   4.915
  491SOL     OW 1497   0.866   0.454   4.366
  491SOL    HW1 1498   0.834   0.526   4.304
  491SOL    HW2 1499   0.890   0.373   4.313
  492SOL     OW 1500   1.017   0.039   4.477
  492SOL    HW1 1501   0.945   0.044   4.408
  492SOL    HW2 1502   0.993  -0.030   4.546
  493SOL     OW 1503   1.429   1.173   4.591
  493SOL    HW1 1504   1.374   1.089   4.584
  493SOL    HW2 1505   1.455   1.202   4.499
  494SOL     OW 1506   1.466   0.590   4.716
  494SOL    HW1 1507   1.436   0.495   4.723
  494SOL    HW2 1508   1.539   0.606   4.782
  495SOL     OW 1509   1.857   0.833   4.101
  495SOL    HW1 1510   1.899   0.769   4.165
  495SOL    HW2 1511   1.819   0.782   4.023
  496SOL     OW 1512   0.488   1.385   3.898
  496SOL    HW1 1513   0.401   1.370   3.945
  496SOL    HW2 1514   0.471   1.411   3.803
  497SOL     OW 1515   1.664   1.280   4.381
  497SOL    HW1 1516   1.763   1.288   4.395
  497SOL    HW2 1517   1.619   1.364   4.412
  498SOL     OW 1518   1.390   0.575   3.802
  498SOL    HW1 1519   1.336   0.554   3.883
  498SOL    HW2 1520   1.481   0.534   3.811
  499SOL     OW 1521   0.527   0.256   4.052
  499SOL    HW1 1522   0.554   0.197   3.977
  499SOL    HW2 1523   0.527   0.351   4.021
  500SOL     OW 1524   1.754   1.223   5.312
  500SOL    HW1 1525   1.845   1.184   5.299
  500SOL    HW2 1526   1.762   1.319   5.336
  501SOL     OW 1527   1.064   1.347   5.064
  501SOL    HW1 1528   0.984   1.324   5.119
  501SOL    HW2 1529   1.147   1.321   5.113
  502SOL     OW 1530   1.111   1.195   4.824
  502SOL    HW1 1531   1.071   1.239   4.905
  502SOL    HW2 1532   1.070   1.232   4.741
  503SOL     OW 1533   1.638   1.099   4.803
  503SOL    HW1 1534   1.643   1.180   4.862
  503SOL    HW2 1535   1.552   1.101   4.752
  504SOL     OW 1536   0.705   1.050   4.092
  504SOL    HW1 1537   0.691   1.057   4.191
  504SOL    HW2 1538   0.789   0.999   4.074
  505SOL     OW 1539   0.410   0.813   4.975
  505SOL    HW1 1540   0.496   0.825   5.025
  505SOL    HW2 1541   0.368   0.726   5.002
  506SOL     OW 1542   1.274   0.386   4.986
  506SOL    HW1 1543   1.295   0.460   5.050
  506SOL    HW2 1544   1.185   0.403   4.943
  507SOL     OW 1545   0.064   1.564   5.055
  507SOL    HW1 1546   0.018   1.646   5.021
  507SOL    HW2 1547   0.162   1.583   5.064
  508SOL     OW 1548   0.367   1.100   4.225
  508SOL    HW1 1549   0.360   1.183   4.169
  508SOL    HW2 1550   0.371   1.020   4.165
  509SOL     OW 1551   0.566   0.537   4.589
  509SOL    HW1 1552   0.578   0.603   4.515
  509SOL    HW2 1553   0.612   0.571   4.672
  510SOL     OW 1554   1.252   1.348   4.112
  510SOL    HW1 1555   1.302   1.425   4.152
  510SOL    HW2 1556   1.157   1.350   4.144
  511SOL     OW 1557   1.272   1.445   4.866
  511SOL    HW1 1558   1.319   1.458   4.953
  511SOL    HW2 1559   1.206   1.371   4.875
  512SOL     OW 1560   1.582   0.639   4.196
  512SOL    HW1 1561   1.551   0.700   4.269
  512SOL    HW2 1562   1.632   0.691   4.127
  513SOL     OW 1563   0.354   1.510   5.053
  513SOL    HW1 1564   0.333   1.466   4.966
  513SOL    HW2 1565   0.451   1.536   5.056
  514SOL     OW 1566   0.573   0.870   4.753
  514SOL    HW1 1567   0.617   0.959   4.744
  514SOL    HW2 1568   0.510   0.870   4.830
  515SOL     OW 1569   1.360   0.862   4.769
  515SOL    HW1 1570   1.285   0.862   4.703
  515SOL    HW2 1571   1.397   0.770   4.778
  516SOL     OW 1572   1.209   0.525   3.999
  516SOL    HW1 1573   1.222   0.441   4.053
  516SOL    HW2 1574   1.180   0.599   4.059
  517SOL     OW 1575   0.307   0.213   4.955
  517SOL    HW1 1576   0.284   0.250   5.045
  517SOL    HW2 1577   0.277   0.118   4.949
  518SOL     OW 1578   0.037   1.310   5.006
  518SOL    HW1 1579   0.090   1.261   5.074
  518SOL    HW2 1580   0.059   1.408   5.011
  519SOL     OW 1581   0.732   0.634   4.788
  519SOL    HW1 1582   0.791   0.608   4.712
  519SOL    HW2 1583   0.704   0.730   4.777
  520SOL     OW 1584   0.307   0.063   4.342
  520SOL    HW1 1585   0.296   0.157   4.375
  520SOL    HW2 1586   0.302   0.000   4.419
  521SOL     OW 1587   1.622   0.367   4.098
  521SOL    HW1 1588   1.624   0.291   4.162
  521SOL    HW2 1589   1.574   0.444   4.138
  522SOL     OW 1590   1.023   0.766   4.690
  522SOL    HW1 1591   1.038   0.787   4.786
  522SOL    HW2 1592   0.993   0.671   4.681
  523SOL     OW 1593   1.540   0.274   3.849
  523SOL    HW1 1594   1.479   0.199   3.872
  523SOL    HW2 1595   1.562   0.326   3.932
  524SOL     OW 1596   1.303   0.838   3.766
  524SOL    HW1 1597   1.337   0.745   3.781
  524SOL    HW2 1598   1.321   0.865   3.671
  525SOL     OW 1599   1.068   1.333   4.573
  525SOL    HW1 1600   1.075   1.249   4.518
  525SOL    HW2 1601   1.130   1.402   4.537
  526SOL     OW 1602   0.319   0.810   4.673
  526SOL    HW1 1603   0.412   0.846   4.678
  526SOL    HW2 1604   0.313   0.725   4.725
  527SOL     OW 1605   0.339   0.509   4.730
  527SOL    HW1 1606   0.287   0.426   4.713
  527SOL    HW2 1607   0.416   0.514   4.666
  528SOL     OW 1608   1.160   0.207   5.201
  528SOL    HW1 1609   1.160   0.271   5.278
  528SOL    HW2 1610   1.188   0.255   5.118
  529SOL     OW 1611   0.008   1.326   3.924
  529SOL    HW1 1612  -0.085   1.347   3.893
  529SOL    HW2 1613   0.018   1.227   3.937
  530SOL     OW 1614   0.088   1.801   4.651
  530SOL    HW1 1615   0.046   1.715   4.624
  530SOL    HW2 1616   0.182   1.804   4.617
  531SOL     OW 1617   0.504   1.568   4.634
  531SOL    HW1 1618   0.570   1.642   4.643
  531SOL    HW2 1619   0.548   1.489   4.592
  532SOL     OW 1620   1.002   0.796   4.962
  532SOL    HW1 1621   1.043   0.764   5.048
  532SOL    HW2 1622   0.906   0.769   4.959
  533SOL     OW 1623   0.040   0.544   4.838
  533SOL    HW1 1624   0.125   0.511   4.797
  533SOL    HW2 1625   0.053   0.559   4.936
  534SOL     OW 1626   0.815   0.572   4.049
  534SOL    HW1 1627   0.822   0.483   4.003
  534SOL    HW2 1628   0.721   0.606   4.041
  535SOL     OW 1629   1.657   0.604   4.930
  535SOL    HW1 1630   1.619   0.535   4.992
  535SOL    HW2 1631   1.739   0.568   4.886
  536SOL     OW 1632   0.671   0.464   4.993
  536SOL    HW1 1633   0.637   0.375   4.963
  536SOL    HW2 1634   0.697   0.518   4.913
  537SOL     OW 1635   0.930   1.678   5.189
  537SOL    HW1 1636   0.906   1.660   5.094
  537SOL    HW2 1637   0.960   1.772   5.199
  538SOL     OW 1638   0.473   0.500   3.915
  538SOL    HW1 1639   0.534   0.580   3.919
  538SOL    HW2 1640   0.378   0.531   3.922
  539SOL     OW 1641   0.159   1.137   5.190
  539SOL    HW1 1642   0.181   1.076   5.266
  539SOL    HW2 1643   0.169   1.088   5.104
  540SOL     OW 1644   1.347   1.059   4.958
  540SOL    HW1 1645   1.371   0.996   4.884
  540SOL    HW2 1646   1.257   1.099   4.940
  541SOL     OW 1647   1.302   0.855   4.033
  541SOL    HW1 1648   1.216   0.824   4.075
  541SOL    HW2 1649   1.298   0.841   3.934
  542SOL     OW 1650   1.759   1.747   4.878
  542SOL    HW1 1651   1.820   1.777   4.805
  542SOL    HW2 1652   1.721   1.658   4.856
  543SOL     OW 1653   1.252   1.731   4.852
  543SOL    HW1 1654   1.336   1.736   4.798
  543SOL    HW2 1655   1.229   1.635   4.870
  544SOL     OW 1656   0.083   1.258   4.746
  544SOL    HW1 1657   0.078   1.257   4.846
  544SOL    HW2 1658   0.000   1.217   4.708
  545SOL     OW 1659   1.726   0.135   4.247
  545SOL    HW1 1660   1.799   0.118   4.180
  545SOL    HW2 1661   1.695   0.048   4.285
  546SOL     OW 1662   1.388   1.573   4.201
  546SOL    HW1 1663   1.455   1.585   4.127
  546SOL    HW2 1664   1.348   1.662   4.224
  547SOL     OW 1665   1.280   0.927   4.396
  547SOL    HW1 1666   1.340   0.846   4.398
  547SOL    HW2 1667   1.320   0.996   4.336
  548SOL     OW 1668   0.672   1.616   3.878
  548SOL    HW1 1669   0.681   1.626   3.779
  548SOL    HW2 1670   0.632   1.527   3.899
  549SOL     OW 1671   1.841   0.175   4.687
  549SOL    HW1 1672   1.880   0.090   4.651
  549SOL    HW2 1673   1.743   0.177   4.668
  550SOL     OW 1674   0.263   0.326   4.444
  550SOL    HW1 1675   0.184   0.377   4.410
  550SOL    HW2 1676   0.254   0.311   4.542
  551SOL     OW 1677   1.194   1.612   3.755
  551SOL    HW1 1678   1.200   1.519   3.792
  551SOL    HW2 1679   1.135   1.612   3.675
  552SOL     OW 1680   0.822   1.002   5.096
  552SOL    HW1 1681   0.862   1.001   5.004
  552SOL    HW2 1682   0.832   1.094   5.136
  553SOL     OW 1683   0.916   0.910   4.015
  553SOL    HW1 1684   0.979   0.948   3.947
  553SOL    HW2 1685   0.956   0.827   4.054
  554SOL     OW 1686   1.504   1.607   3.768
  554SOL    HW1 1687   1.412   1.644   3.775
  554SOL    HW2 1688   1.542   1.627   3.678
  555SOL     OW 1689   0.372   1.288   5.214
  555SOL    HW1 1690   0.359   1.381   5.180
  555SOL    HW2 1691   0.288   1.236   5.201
  556SOL     OW 1692   1.614   1.292   5.013
  556SOL    HW1 1693   1.674   1.295   5.093
  556SOL    HW2 1694   1.539   1.356   5.026
  557SOL     OW 1695   1.039   1.098   4.420
  557SOL    HW1 1696   0.969   1.051   4.474
  557SOL    HW2 1697   1.098   1.030   4.377
  558SOL     OW 1698   1.014   0.236   4.695
  558SOL    HW1 1699   1.006   0.200   4.602
  558SOL    HW2 1700   1.012   0.160   4.760
  559SOL     OW 1701   0.590   1.487   4.215
  559SOL    HW1 1702   0.632   1.429   4.145
  559SOL    HW2 1703   0.546   1.566   4.171
  560SOL     OW 1704   1.709   0.385   5.105
  560SOL    HW1 1705   1.782   0.454   5.109
  560SOL    HW2 1706   1.737   0.310   5.046
  561SOL     OW 1707   0.255   1.348   4.014
  561SOL    HW1 1708   0.159   1.349   3.987
  561SOL    HW2 1709   0.267   1.401   4.098
  562SOL     OW 1710   0.075   0.345   3.757
  562SOL    HW1 1711  -0.017   0.317   3.728
  562SOL    HW2 1712   0.106   0.422   3.701
  563SOL     OW 1713   0.072   0.166   4.042
  563SOL    HW1 1714   0.055   0.249   3.988
  563SOL    HW2 1715   0.162   0.129   4.020
  564SOL     OW 1716   1.183   1.335   3.843
  564SOL    HW1 1717   1.084   1.324   3.845
  564SOL    HW2 1718   1.217   1.350   3.936
  565SOL     OW 1719   0.613   0.842   5.155
  565SOL    HW1 1720   0.669   0.923   5.138
  565SOL    HW2 1721   0.672   0.762   5.158
  566SOL     OW 1722   1.493   1.767   4.683
  566SOL    HW1 1723   1.526   1.831   4.614
  566SOL    HW2 1724   1.559   1.761   4.758
  567SOL     OW 1725   0.390   1.741   5.284
  567SOL    HW1 1726   0.299   1.782   5.282
  567SOL    HW2 1727   0.383   1.647   5.316
  568SOL     OW 1728   1.674   0.883   4.978
  568SOL    HW1 1729   1.647   0.794   4.941
  568SOL    HW2 1730   1.675   0.951   4.905
  569SOL     OW 1731   1.225   0.325   4.173
  569SOL    HW1 1732   1.290   0.251   4.162
  569SOL    HW2 1733   1.245   0.375   4.257
  570SOL     OW 1734   0.594   0.745   4.376
  570SOL    HW1 1735   0.644   0.830   4.357
  570SOL    HW2 1736   0.506   0.747   4.328
  571SOL     OW 1737   1.730   0.934   5.241
  571SOL    HW1 1738   1.768   1.025   5.256
  571SOL    HW2 1739   1.722   0.917   5.142
  572SOL     OW 1740   0.859   1.374   3.740
  572SOL    HW1 1741   0.813   1.389   3.828
  572SOL    HW2 1742   0.903   1.459   3.710
  573SOL     OW 1743   0.661   1.790   4.677
  573SOL    HW1 1744   0.615   1.878   4.664
  573SOL    HW2 1745   0.760   1.802   4.670
  574SOL     OW 1746   0.859   0.956   4.585
  574SOL    HW1 1747   0.913   0.887   4.633
  574SOL    HW2 1748   0.827   1.025   4.651
  575SOL     OW 1749   1.083   0.984   3.811
  575SOL    HW1 1750   1.060   1.037   3.729
  575SOL    HW2 1751   1.164   0.928   3.792
  576SOL     OW 1752   1.861   1.569   4.575
  576SOL    HW1 1753   1.790   1.557   4.505
  576SOL    HW2 1754   1.862   1.490   4.635
  577SOL     OW 1755   0.079   1.240   4.377
  577SOL    HW1 1756   0.078   1.193   4.465
  577SOL    HW2 1757   0.161   1.212   4.326
  578SOL     OW 1758   1.824   0.192   4.951
  578SOL    HW1 1759   1.820   0.102   4.995
  578SOL    HW2 1760   1.827   0.181   4.852
  579SOL     OW 1761   0.428   0.424   4.244
  579SOL    HW1 1762   0.458   0.352   4.182
  579SOL    HW2 1763   0.389   0.384   4.327
  580SOL     OW 1764   1.705   1.487   4.828
  580SOL    HW1 1765   1.612   1.462   4.801
  580SOL    HW2 1766   1.731   1.437   4.910
  581SOL     OW 1767   0.317   0.547   5.004
  581SOL    HW1 1768   0.355   0.488   5.076
  581SOL    HW2 1769   0.357   0.521   4.916
  582SOL     OW 1770   0.812   1.586   4.411
  582SOL    HW1 1771   0.844   1.596   4.317
  582SOL    HW2 1772   0.733   1.524   4.413
  583SOL     OW 1773   1.424   0.214   4.836
  583SOL    HW1 1774   1.476   0.149   4.891
  583SOL    HW2 1775   1.375   0.277   4.897
  584SOL     OW 1776   1.001   0.034   4.878
  584SOL    HW1 1777   0.938  -0.038   4.847
  584SOL    HW2 1778   1.094  -0.002   4.878
  585SOL     OW 1779   0.770   1.330   4.025
  585SOL    HW1 1780   0.724   1.243   4.042
  585SOL    HW2 1781   0.861   1.327   4.066
  586SOL     OW 1782   0.618   1.567   5.008
  586SOL    HW1 1783   0.613   1.649   5.065
  586SOL    HW2 1784   0.707   1.564   4.963
  587SOL     OW 1785   1.352   0.052   3.892
  587SOL    HW1 1786   1.387   0.011   3.808
  587SOL    HW2 1787   1.262   0.014   3.912
  588SOL     OW 1788   1.300   0.453   4.415
  588SOL    HW1 1789   1.241   0.533   4.419
  588SOL    HW2 1790   1.315   0.418   4.508
  589SOL     OW 1791   1.593   0.221   4.606
  589SOL    HW1 1792   1.509   0.220   4.660
  589SOL    HW2 1793   1.595   0.304   4.550
  590SOL     OW 1794   0.039   1.077   4.024
  590SOL    HW1 1795   0.138   1.066   4.015
  590SOL    HW2 1796  -0.001   0.991   4.056
  591SOL     OW 1797   0.875   1.646   4.061
  591SOL    HW1 1798   0.798   1.611   4.007
  591SOL    HW2 1799   0.843   1.717   4.123
  592SOL     OW 1800   0.230   2.490   0.113
  592SOL    HW1 1801   0.137   2.488   0.150
  592SOL    HW2 1802   0.231   2.451   0.021
  593SOL     OW 1803   0.225   2.137   0.996
  593SOL    HW1 1804   0.260   2.120   1.088
  593SOL    HW2 1805   0.137   2.092   0.984
  594SOL     OW 1806   0.019   2.230   0.647
  594SOL    HW1 1807  -0.063   2.273   0.686
  594SOL    HW2 1808  -0.009   2.157   0.584
  595SOL     OW 1809   0.569   3.137   1.165
  595SOL    HW1 1810   0.476   3.130   1.128
  595SOL    HW2 1811   0.580   3.226   1.209
  596SOL     OW 1812   1.555   3.373   0.703
  596SOL    HW1 1813   1.498   3.357   0.784
  596SOL    HW2 1814   1.496   3.383   0.623
  597SOL     OW 1815   1.135   2.565   0.717
  597SOL    HW1 1816   1.192   2.643   0.692
  597SOL    HW2 1817   1.075   2.591   0.793
  598SOL     OW 1818   1.755   2.469   0.231
  598SOL    HW1 1819   1.743   2.456   0.132
  598SOL    HW2 1820   1.725   2.388   0.280
  599SOL     OW 1821   0.768   3.006   1.023
  599SOL    HW1 1822   0.690   3.023   1.083
  599SOL    HW2 1823   0.802   3.093   0.987
  600SOL     OW 1824   0.850   2.660   1.823
  600SOL    HW1 1825   0.846   2.736   1.888
  600SOL    HW2 1826   0.872   2.696   1.732
  601SOL     OW 1827   0.685   2.874   0.665
  601SOL    HW1 1828   0.754   2.858   0.735
  601SOL    HW2 1829   0.612   2.931   0.703
  602SOL     OW 1830   0.686   3.023   1.803
  602SOL    HW1 1831   0.746   3.102   1.817
  602SOL    HW2 1832   0.600   3.054   1.762
  603SOL     OW 1833   0.335   3.297   1.061
  603SOL    HW1 1834   0.257   3.266   1.008
  603SOL    HW2 1835   0.393   3.355   1.004
  604SOL     OW 1836   1.460   3.367   1.339
  604SOL    HW1 1837   1.484   3.461   1.365
  604SOL    HW2 1838   1.444   3.313   1.421
  605SOL     OW 1839   0.438   2.254   1.499
  605SOL    HW1 1840   0.520   2.198   1.508
  605SOL    HW2 1841   0.357   2.196   1.503
  606SOL     OW 1842   1.603   2.309   0.737
  606SOL    HW1 1843   1.529   2.355   0.687
  606SOL    HW2 1844   1.654   2.377   0.790
  607SOL     OW 1845   0.231   3.575   0.483
  607SOL    HW1 1846   0.265   3.652   0.537
  607SOL    HW2 1847   0.275   3.575   0.393
  608SOL     OW 1848   1.127   3.203   1.690
  608SOL    HW1 1849   1.174   3.203   1.778
  608SOL    HW2 1850   1.079   3.116   1.679
  609SOL     OW 1851   0.230   3.296   0.538
  609SOL    HW1 1852   0.204   3.392   0.538
  609SOL    HW2 1853   0.159   3.242   0.583
  610SOL     OW 1854   0.240   2.953   0.886
  610SOL    HW1 1855   0.254   2.869   0.938
  610SOL    HW2 1856   0.185   3.017   0.941
  611SOL     OW 1857   0.620   3.648   1.439
  611SOL    HW1 1858   0.528   3.631   1.474
  611SOL    HW2 1859   0.648   3.740   1.465
  612SOL     OW 1860   0.606   2.826   0.123
  612SOL    HW1 1861   0.613   2.910   0.069
  612SOL    HW2 1862   0.652   2.839   0.211
  613SOL     OW 1863   1.594   1.976   1.480
  613SOL    HW1 1864   1.576   2.043   1.408
  613SOL    HW2 1865   1.591   2.022   1.569
  614SOL     OW 1866   0.122   2.505   0.563
  614SOL    HW1 1867   0.077   2.417   0.580
  614SOL    HW2 1868   0.121   2.559   0.647
  615SOL     OW 1869   1.842   3.629   0.359
  615SOL    HW1 1870   1.896   3.600   0.439
  615SOL    HW2 1871   1.872   3.719   0.330
  616SOL     OW 1872   0.027   3.458   0.117
  616SOL    HW1 1873   0.008   3.362   0.138
  616SOL    HW2 1874  -0.006   3.516   0.192
  617SOL     OW 1875   1.689   2.784   0.612
  617SOL    HW1 1876   1.784   2.755   0.620
  617SOL    HW2 1877   1.681   2.849   0.537
  618SOL     OW 1878   1.641   2.970   0.432
  618SOL    HW1 1879   1.727   2.972   0.380
  618SOL    HW2 1880   1.655   3.017   0.520
  619SOL     OW 1881   0.113   2.599   1.597
  619SOL    HW1 1882   0.201   2.586   1.642
  619SOL    HW2 1883   0.100   2.696   1.575
  620SOL     OW 1884   0.613   3.227   0.726
  620SOL    HW1 1885   0.564   3.140   0.735
  620SOL    HW2 1886   0.590   3.270   0.639
  621SOL     OW 1887   1.293   3.090   1.423
  621SOL    HW1 1888   1.330   3.017   1.365
  621SOL    HW2 1889   1.345   3.095   1.508
  622SOL     OW 1890   0.809   1.866   0.502
  622SOL    HW1 1891   0.849   1.957   0.493
  622SOL    HW2 1892   0.709   1.874   0.508
  623SOL     OW 1893   0.197   2.838   1.264
  623SOL    HW1 1894   0.286   2.793   1.250
  623SOL    HW2 1895   0.124   2.773   1.245
  624SOL     OW 1896   1.525   2.861   0.190
  624SOL    HW1 1897   1.462   2.785   0.203
  624SOL    HW2 1898   1.573   2.879   0.276
  625SOL     OW 1899   1.187   3.654   1.616
  625SOL    HW1 1900   1.211   3.714   1.540
  625SOL    HW2 1901   1.194   3.559   1.586
  626SOL     OW 1902   0.317   2.113   1.801
  626SOL    HW1 1903   0.388   2.184   1.807
  626SOL    HW2 1904   0.229   2.152   1.829
  627SOL     OW 1905   1.466   3.279   0.953
  627SOL    HW1 1906   1.407   3.285   1.033
  627SOL    HW2 1907   1.451   3.191   0.907
  628SOL     OW 1908   1.667   3.576   0.572
  628SOL    HW1 1909   1.626   3.553   0.484
  628SOL    HW2 1910   1.649   3.502   0.637
  629SOL     OW 1911   0.598   2.591   0.270
  629SOL    HW1 1912   0.622   2.660   0.202
  629SOL    HW2 1913   0.520   2.624   0.324
  630SOL     OW 1914   1.281   2.207   0.944
  630SOL    HW1 1915   1.195   2.157   0.931
  630SOL    HW2 1916   1.343   2.153   1.000
  631SOL     OW 1917   1.576   3.524   0.307
  631SOL    HW1 1918   1.665   3.570   0.310
  631SOL    HW2 1919   1.555   3.500   0.212
  632SOL     OW 1920   0.807   2.467   1.465
  632SOL    HW1 1921   0.760   2.464   1.554
  632SOL    HW2 1922   0.756   2.412   1.399
  633SOL     OW 1923   1.394   2.331   1.674
  633SOL    HW1 1924   1.374   2.374   1.762
  633SOL    HW2 1925   1.472   2.269   1.683
  634SOL     OW 1926   0.973   2.752   1.572
  634SOL    HW1 1927   1.019   2.668   1.543
  634SOL    HW2 1928   0.917   2.786   1.497
  635SOL     OW 1929   0.991   2.272   1.242
  635SOL    HW1 1930   0.914   2.306   1.296
  635SOL    HW2 1931   0.957   2.221   1.163
  636SOL     OW 1932   1.041   2.563   0.429
  636SOL    HW1 1933   1.067   2.559   0.525
  636SOL    HW2 1934   0.956   2.512   0.415
  637SOL     OW 1935   0.076   2.673   0.789
  637SOL    HW1 1936   0.175   2.661   0.798
  637SOL    HW2 1937   0.052   2.768   0.810
  638SOL     OW 1938   0.130   3.683   1.571
  638SOL    HW1 1939   0.120   3.668   1.670
  638SOL    HW2 1940   0.044   3.719   1.535
  639SOL     OW 1941   0.865   2.210   0.195
  639SOL    HW1 1942   0.924   2.273   0.146
  639SOL    HW2 1943   0.884   2.116   0.166
  640SOL     OW 1944   1.719   2.447   1.831
  640SOL    HW1 1945   1.693   2.536   1.795
  640SOL    HW2 1946   1.717   2.379   1.758
  641SOL     OW 1947   1.362   3.006   0.545
  641SOL    HW1 1948   1.445   2.977   0.497
  641SOL    HW2 1949   1.313   3.073   0.489
  642SOL     OW 1950   0.550   2.058   0.885
  642SOL    HW1 1951   0.545   2.053   0.985
  642SOL    HW2 1952   0.552   2.154   0.856
  643SOL     OW 1953   1.008   3.318   0.477
  643SOL    HW1 1954   0.962   3.390   0.425
  643SOL    HW2 1955   1.004   3.338   0.575
  644SOL     OW 1956   0.351   3.663   0.853
  644SOL    HW1 1957   0.401   3.577   0.859
  644SOL    HW2 1958   0.416   3.740   0.850
  645SOL     OW 1959   1.795   2.928   0.873
  645SOL    HW1 1960   1.733   2.913   0.797
  645SOL    HW2 1961   1.743   2.939   0.958
  646SOL     OW 1962   1.227   3.412   1.506
  646SOL    HW1 1963   1.233   3.335   1.570
  646SOL    HW2 1964   1.175   3.386   1.426
  647SOL     OW 1965   0.321   2.805   0.242
  647SOL    HW1 1966   0.403   2.844   0.200
  647SOL    HW2 1967   0.294   2.723   0.193
  648SOL     OW 1968   1.458   2.597   0.728
  648SOL    HW1 1969   1.453   2.532   0.803
  648SOL    HW2 1970   1.538   2.656   0.741
  649SOL     OW 1971   0.461   3.128   1.727
  649SOL    HW1 1972   0.411   3.129   1.641
  649SOL    HW2 1973   0.398   3.110   1.803
  650SOL     OW 1974   1.111   3.638   0.237
  650SOL    HW1 1975   1.051   3.576   0.287
  650SOL    HW2 1976   1.142   3.594   0.152
  651SOL     OW 1977   0.202   2.147   1.498
  651SOL    HW1 1978   0.122   2.207   1.485
  651SOL    HW2 1979   0.192   2.098   1.584
  652SOL     OW 1980   1.632   3.239   0.081
  652SOL    HW1 1981   1.600   3.333   0.071
  652SOL    HW2 1982   1.556   3.176   0.069
  653SOL     OW 1983   0.464   3.605   0.323
  653SOL    HW1 1984   0.497   3.644   0.409
  653SOL    HW2 1985   0.540   3.598   0.258
  654SOL     OW 1986   1.400   1.969   0.426
  654SOL    HW1 1987   1.376   1.932   0.336
  654SOL    HW2 1988   1.499   1.985   0.430
  655SOL     OW 1989   0.249   3.647   1.241
  655SOL    HW1 1990   0.306   3.582   1.291
  655SOL    HW2 1991   0.233   3.614   1.148
  656SOL     OW 1992   0.940   3.560   0.904
  656SOL    HW1 1993   1.020   3.503   0.925
  656SOL    HW2 1994   0.891   3.520   0.827
  657SOL     OW 1995   0.382   2.562   0.480
  657SOL    HW1 1996   0.427   2.472   0.477
  657SOL    HW2 1997   0.288   2.551   0.513
  658SOL     OW 1998   1.547   2.084   1.729
  658SOL    HW1 1999   1.542   2.121   1.821
  658SOL    HW2 2000   1.475   2.015   1.717
  659SOL     OW 2001   0.781   2.126   1.749
  659SOL    HW1 2002   0.848   2.065   1.792
  659SOL    HW2 2003   0.708   2.145   1.814
  660SOL     OW 2004   0.888   3.376   1.195
  660SOL    HW1 2005   0.865   3.351   1.101
  660SOL    HW2 2006   0.949   3.307   1.234
  661SOL     OW 2007   1.351   2.452   1.433
  661SOL    HW1 2008   1.379   2.409   1.518
  661SOL    HW2 2009   1.376   2.548   1.434
  662SOL     OW 2010   0.803   3.264   0.924
  662SOL    HW1 2011   0.893   3.278   0.882
  662SOL    HW2 2012   0.732   3.266   0.853
  663SOL     OW 2013   0.922   2.365   0.899
  663SOL    HW1 2014   0.897   2.356   0.803
  663SOL    HW2 2015   0.970   2.283   0.930
  664SOL     OW 2016   0.539   1.926   0.512
  664SOL    HW1 2017   0.458   1.927   0.570
  664SOL    HW2 2018   0.542   2.009   0.457
  665SOL     OW 2019   1.434   3.050   0.041
  665SOL    HW1 2020   1.466   2.974   0.098
  665SOL    HW2 2021   1.342   3.077   0.071
  666SOL     OW 2022   0.935   2.098   0.480
  666SOL    HW1 2023   0.887   2.139   0.402
  666SOL    HW2 2024   1.034   2.096   0.461
  667SOL     OW 2025   1.076   2.545   1.464
  667SOL    HW1 2026   0.996   2.484   1.467
  667SOL    HW2 2027   1.157   2.492   1.440
  668SOL     OW 2028   1.227   3.432   0.793
  668SOL    HW1 2029   1.248   3.506   0.728
  668SOL    HW2 2030   1.295   3.432   0.866
  669SOL     OW 2031   0.459   3.014   0.741
  669SOL    HW1 2032   0.388   2.987   0.806
  669SOL    HW2 2033   0.433   2.986   0.648
  670SOL     OW 2034   1.271   3.659   0.591
  670SOL    HW1 2035   1.315   3.723   0.527
  670SOL    HW2 2036   1.221   3.711   0.661
  671SOL     OW 2037   1.032   2.411   0.016
  671SOL    HW1 2038   0.991   2.493  -0.023
  671SOL    HW2 2039   1.096   2.437   0.089
  672SOL     OW 2040   0.078   2.418   1.386
  672SOL    HW1 2041   0.170   2.417   1.345
  672SOL    HW2 2042   0.072   2.492   1.453
  673SOL     OW 2043   0.561   2.084   1.147
  673SOL    HW1 2044   0.599   2.000   1.184
  673SOL    HW2 2045   0.473   2.103   1.191
  674SOL     OW 2046   0.866   2.316   0.642
  674SOL    HW1 2047   0.834   2.388   0.580
  674SOL    HW2 2048   0.890   2.235   0.589
  675SOL     OW 2049   1.017   1.901   0.753
  675SOL    HW1 2050   0.945   1.906   0.684
  675SOL    HW2 2051   0.993   1.832   0.822
  676SOL     OW 2052   1.429   3.035   0.867
  676SOL    HW1 2053   1.374   2.951   0.860
  676SOL    HW2 2054   1.455   3.064   0.775
  677SOL     OW 2055   1.466   2.452   0.992
  677SOL    HW1 2056   1.436   2.357   0.999
  677SOL    HW2 2057   1.539   2.468   1.058
  678SOL     OW 2058   1.857   2.695   0.377
  678SOL    HW1 2059   1.899   2.631   0.441
  678SOL    HW2 2060   1.819   2.644   0.299
  679SOL     OW 2061   0.488   3.247   0.174
  679SOL    HW1 2062   0.401   3.232   0.221
  679SOL    HW2 2063   0.471   3.273   0.079
  680SOL     OW 2064   1.664   3.142   0.657
  680SOL    HW1 2065   1.763   3.150   0.671
  680SOL    HW2 2066   1.619   3.226   0.688
  681SOL     OW 2067   1.390   2.437   0.078
  681SOL    HW1 2068   1.336   2.416   0.159
  681SOL    HW2 2069   1.481   2.396   0.087
  682SOL     OW 2070   0.527   2.118   0.328
  682SOL    HW1 2071   0.554   2.059   0.253
  682SOL    HW2 2072   0.527   2.213   0.297
  683SOL     OW 2073   1.754   3.085   1.588
  683SOL    HW1 2074   1.845   3.046   1.575
  683SOL    HW2 2075   1.762   3.181   1.612
  684SOL     OW 2076   1.064   3.209   1.340
  684SOL    HW1 2077   0.984   3.186   1.395
  684SOL    HW2 2078   1.147   3.183   1.389
  685SOL     OW 2079   1.592   3.491   1.625
  685SOL    HW1 2080   1.619   3.525   1.535
  685SOL    HW2 2081   1.671   3.453   1.671
  686SOL     OW 2082   1.111   3.057   1.100
  686SOL    HW1 2083   1.071   3.101   1.181
  686SOL    HW2 2084   1.070   3.094   1.017
  687SOL     OW 2085   1.638   2.961   1.079
  687SOL    HW1 2086   1.643   3.042   1.138
  687SOL    HW2 2087   1.552   2.963   1.028
  688SOL     OW 2088   0.915   1.951   1.402
  688SOL    HW1 2089   0.940   1.931   1.307
  688SOL    HW2 2090   0.987   2.007   1.444
  689SOL     OW 2091   0.980   2.978   1.719
  689SOL    HW1 2092   0.881   2.984   1.729
  689SOL    HW2 2093   1.003   2.898   1.663
  690SOL     OW 2094   0.705   2.912   0.368
  690SOL    HW1 2095   0.691   2.919   0.467
  690SOL    HW2 2096   0.789   2.861   0.350
  691SOL     OW 2097   0.410   2.675   1.251
  691SOL    HW1 2098   0.496   2.687   1.301
  691SOL    HW2 2099   0.368   2.588   1.278
  692SOL     OW 2100   1.274   2.248   1.262
  692SOL    HW1 2101   1.295   2.322   1.326
  692SOL    HW2 2102   1.185   2.265   1.219
  693SOL     OW 2103   0.064   3.426   1.331
  693SOL    HW1 2104   0.018   3.508   1.297
  693SOL    HW2 2105   0.162   3.445   1.340
  694SOL     OW 2106   0.367   2.962   0.501
  694SOL    HW1 2107   0.360   3.045   0.445
  694SOL    HW2 2108   0.371   2.882   0.441
  695SOL     OW 2109   0.566   2.399   0.865
  695SOL    HW1 2110   0.578   2.465   0.791
  695SOL    HW2 2111   0.612   2.433   0.948
  696SOL     OW 2112   1.252   3.210   0.388
  696SOL    HW1 2113   1.302   3.287   0.428
  696SOL    HW2 2114   1.157   3.212   0.420
  697SOL     OW 2115   1.272   3.307   1.142
  697SOL    HW1 2116   1.319   3.320   1.229
  697SOL    HW2 2117   1.206   3.233   1.151
  698SOL     OW 2118   1.582   2.501   0.472
  698SOL    HW1 2119   1.551   2.562   0.545
  698SOL    HW2 2120   1.632   2.553   0.403
  699SOL     OW 2121   0.354   3.372   1.329
  699SOL    HW1 2122   0.333   3.328   1.242
  699SOL    HW2 2123   0.451   3.398   1.332
  700SOL     OW 2124   0.402   2.613   1.598
  700SOL    HW1 2125   0.470   2.668   1.551
  700SOL    HW2 2126   0.442   2.525   1.625
  701SOL     OW 2127   1.587   2.641   1.670
  701SOL    HW1 2128   1.495   2.679   1.665
  701SOL    HW2 2129   1.647   2.688   1.605
  702SOL     OW 2130   1.013   1.967   1.770
  702SOL    HW1 2131   1.019   2.052   1.718
  702SOL    HW2 2132   1.045   1.891   1.713
  703SOL     OW 2133   0.504   1.912   1.740
  703SOL    HW1 2134   0.462   1.855   1.670
  703SOL    HW2 2135   0.438   1.981   1.772
  704SOL     OW 2136   0.573   2.732   1.029
  704SOL    HW1 2137   0.617   2.821   1.020
  704SOL    HW2 2138   0.510   2.732   1.106
  705SOL     OW 2139   1.360   2.724   1.045
  705SOL    HW1 2140   1.285   2.724   0.979
  705SOL    HW2 2141   1.397   2.632   1.054
  706SOL     OW 2142   1.209   2.387   0.275
  706SOL    HW1 2143   1.222   2.303   0.329
  706SOL    HW2 2144   1.180   2.461   0.335
  707SOL     OW 2145   0.307   2.075   1.231
  707SOL    HW1 2146   0.284   2.112   1.321
  707SOL    HW2 2147   0.277   1.980   1.225
  708SOL     OW 2148   0.037   3.172   1.282
  708SOL    HW1 2149   0.090   3.123   1.350
  708SOL    HW2 2150   0.059   3.270   1.287
  709SOL     OW 2151   0.732   2.496   1.064
  709SOL    HW1 2152   0.791   2.470   0.988
  709SOL    HW2 2153   0.704   2.592   1.053
  710SOL     OW 2154   1.728   2.797   1.854
  710SOL    HW1 2155   1.682   2.790   1.765
  710SOL    HW2 2156   1.666   2.841   1.920
  711SOL     OW 2157   0.307   1.925   0.618
  711SOL    HW1 2158   0.296   2.019   0.651
  711SOL    HW2 2159   0.302   1.862   0.695
  712SOL     OW 2160   1.622   2.229   0.374
  712SOL    HW1 2161   1.624   2.153   0.438
  712SOL    HW2 2162   1.574   2.306   0.414
  713SOL     OW 2163   1.023   2.628   0.966
  713SOL    HW1 2164   1.038   2.649   1.062
  713SOL    HW2 2165   0.993   2.533   0.957
  714SOL     OW 2166   0.980   3.435   1.700
  714SOL    HW1 2167   0.960   3.479   1.612
  714SOL    HW2 2168   1.019   3.344   1.684
  715SOL     OW 2169   1.859   3.380   1.605
  715SOL    HW1 2170   1.873   3.407   1.510
  715SOL    HW2 2171   1.942   3.402   1.658
  716SOL     OW 2172   0.350   2.760   1.804
  716SOL    HW1 2173   0.426   2.804   1.852
  716SOL    HW2 2174   0.385   2.713   1.722
  717SOL     OW 2175   1.540   2.136   0.125
  717SOL    HW1 2176   1.479   2.061   0.148
  717SOL    HW2 2177   1.562   2.188   0.208
  718SOL     OW 2178   1.303   2.700   0.042
  718SOL    HW1 2179   1.337   2.607   0.057
  718SOL    HW2 2180   1.321   2.727  -0.053
  719SOL     OW 2181   1.068   3.195   0.849
  719SOL    HW1 2182   1.075   3.111   0.794
  719SOL    HW2 2183   1.130   3.264   0.813
  720SOL     OW 2184   0.319   2.672   0.949
  720SOL    HW1 2185   0.412   2.708   0.954
  720SOL    HW2 2186   0.313   2.587   1.001
  721SOL     OW 2187   0.339   2.371   1.006
  721SOL    HW1 2188   0.287   2.288   0.989
  721SOL    HW2 2189   0.416   2.376   0.942
  722SOL     OW 2190   1.138   2.242   1.678
  722SOL    HW1 2191   1.093   2.305   1.742
  722SOL    HW2 2192   1.231   2.273   1.661
  723SOL     OW 2193   1.160   2.069   1.477
  723SOL    HW1 2194   1.160   2.133   1.554
  723SOL    HW2 2195   1.188   2.117   1.394
  724SOL     OW 2196   0.008   3.188   0.200
  724SOL    HW1 2197  -0.085   3.209   0.169
  724SOL    HW2 2198   0.018   3.089   0.213
  725SOL     OW 2199   0.088   3.663   0.927
  725SOL    HW1 2200   0.046   3.577   0.900
  725SOL    HW2 2201   0.182   3.666   0.893
  726SOL     OW 2202   0.504   3.430   0.910
  726SOL    HW1 2203   0.570   3.504   0.919
  726SOL    HW2 2204   0.548   3.351   0.868
  727SOL     OW 2205   1.002   2.658   1.238
  727SOL    HW1 2206   1.043   2.626   1.324
  727SOL    HW2 2207   0.906   2.631   1.235
  728SOL     OW 2208   0.040   2.406   1.114
  728SOL    HW1 2209   0.125   2.373   1.073
  728SOL    HW2 2210   0.053   2.421   1.212
  729SOL     OW 2211   0.189   2.382   1.722
  729SOL    HW1 2212   0.248   2.342   1.652
  729SOL    HW2 2213   0.131   2.453   1.681
  730SOL     OW 2214   1.369   2.812   1.660
  730SOL    HW1 2215   1.408   2.901   1.680
  730SOL    HW2 2216   1.379   2.792   1.563
  731SOL     OW 2217   0.815   2.434   0.325
  731SOL    HW1 2218   0.822   2.345   0.279
  731SOL    HW2 2219   0.721   2.468   0.317
  732SOL     OW 2220   1.657   2.466   1.206
  732SOL    HW1 2221   1.619   2.397   1.268
  732SOL    HW2 2222   1.739   2.430   1.162
  733SOL     OW 2223   0.252   3.426   1.744
  733SOL    HW1 2224   0.222   3.483   1.820
  733SOL    HW2 2225   0.245   3.329   1.770
  734SOL     OW 2226   0.671   2.326   1.269
  734SOL    HW1 2227   0.637   2.237   1.239
  734SOL    HW2 2228   0.697   2.380   1.189
  735SOL     OW 2229   0.930   3.540   1.465
  735SOL    HW1 2230   0.906   3.522   1.370
  735SOL    HW2 2231   0.960   3.634   1.475
  736SOL     OW 2232   0.473   2.362   0.191
  736SOL    HW1 2233   0.534   2.442   0.195
  736SOL    HW2 2234   0.378   2.393   0.198
  737SOL     OW 2235   0.159   2.999   1.466
  737SOL    HW1 2236   0.181   2.938   1.542
  737SOL    HW2 2237   0.169   2.950   1.380
  738SOL     OW 2238   1.347   2.921   1.234
  738SOL    HW1 2239   1.371   2.858   1.160
  738SOL    HW2 2240   1.257   2.961   1.216
  739SOL     OW 2241   1.302   2.717   0.309
  739SOL    HW1 2242   1.216   2.686   0.351
  739SOL    HW2 2243   1.298   2.703   0.210
  740SOL     OW 2244   1.759   3.609   1.154
  740SOL    HW1 2245   1.820   3.639   1.081
  740SOL    HW2 2246   1.721   3.520   1.132
  741SOL     OW 2247   1.252   3.593   1.128
  741SOL    HW1 2248   1.336   3.598   1.074
  741SOL    HW2 2249   1.229   3.497   1.146
  742SOL     OW 2250   0.083   3.120   1.022
  742SOL    HW1 2251   0.078   3.119   1.122
  742SOL    HW2 2252   0.000   3.079   0.984
  743SOL     OW 2253   0.688   3.524   1.716
  743SOL    HW1 2254   0.632   3.605   1.725
  743SOL    HW2 2255   0.740   3.528   1.630
  744SOL     OW 2256   0.903   1.948   0.133
  744SOL    HW1 2257   0.954   1.949   0.047
  744SOL    HW2 2258   0.959   1.906   0.204
  745SOL     OW 2259   1.726   1.997   0.523
  745SOL    HW1 2260   1.799   1.980   0.456
  745SOL    HW2 2261   1.695   1.910   0.561
  746SOL     OW 2262   1.388   3.435   0.477
  746SOL    HW1 2263   1.455   3.447   0.403
  746SOL    HW2 2264   1.348   3.524   0.500
  747SOL     OW 2265   0.130   3.656   1.851
  747SOL    HW1 2266   0.089   3.582   1.904
  747SOL    HW2 2267   0.194   3.707   1.909
  748SOL     OW 2268   1.280   2.789   0.672
  748SOL    HW1 2269   1.340   2.708   0.674
  748SOL    HW2 2270   1.320   2.858   0.612
  749SOL     OW 2271   0.830   3.135   1.422
  749SOL    HW1 2272   0.825   3.168   1.517
  749SOL    HW2 2273   0.744   3.154   1.376
  750SOL     OW 2274   0.672   3.478   0.154
  750SOL    HW1 2275   0.681   3.488   0.055
  750SOL    HW2 2276   0.632   3.389   0.175
  751SOL     OW 2277   1.650   3.582   1.394
  751SOL    HW1 2278   1.703   3.592   1.310
  751SOL    HW2 2279   1.623   3.672   1.428
  752SOL     OW 2280   1.841   2.037   0.963
  752SOL    HW1 2281   1.880   1.952   0.927
  752SOL    HW2 2282   1.743   2.039   0.944
  753SOL     OW 2283   0.263   2.188   0.720
  753SOL    HW1 2284   0.184   2.239   0.686
  753SOL    HW2 2285   0.254   2.173   0.818
  754SOL     OW 2286   1.194   3.474   0.031
  754SOL    HW1 2287   1.200   3.381   0.068
  754SOL    HW2 2288   1.135   3.474  -0.049
  755SOL     OW 2289   0.822   2.864   1.372
  755SOL    HW1 2290   0.862   2.863   1.280
  755SOL    HW2 2291   0.832   2.956   1.412
  756SOL     OW 2292   0.916   2.772   0.291
  756SOL    HW1 2293   0.979   2.810   0.223
  756SOL    HW2 2294   0.956   2.689   0.330
  757SOL     OW 2295   1.504   3.469   0.044
  757SOL    HW1 2296   1.412   3.506   0.051
  757SOL    HW2 2297   1.542   3.489  -0.046
  758SOL     OW 2298   0.372   3.150   1.490
  758SOL    HW1 2299   0.359   3.243   1.456
  758SOL    HW2 2300   0.288   3.098   1.477
  759SOL     OW 2301   1.614   3.154   1.289
  759SOL    HW1 2302   1.674   3.157   1.369
  759SOL    HW2 2303   1.539   3.218   1.302
  760SOL     OW 2304   1.039   2.960   0.696
  760SOL    HW1 2305   0.969   2.913   0.750
  760SOL    HW2 2306   1.098   2.892   0.653
  761SOL     OW 2307   1.014   2.098   0.971
  761SOL    HW1 2308   1.006   2.062   0.878
  761SOL    HW2 2309   1.012   2.022   1.036
  762SOL     OW 2310   0.590   3.349   0.491
  762SOL    HW1 2311   0.632   3.291   0.421
  762SOL    HW2 2312   0.546   3.428   0.447
  763SOL     OW 2313   1.709   2.247   1.381
  763SOL    HW1 2314   1.782   2.316   1.385
  763SOL    HW2 2315   1.737   2.172   1.322
  764SOL     OW 2316   0.255   3.210   0.290
  764SOL    HW1 2317   0.159   3.211   0.263
  764SOL    HW2 2318   0.267   3.263   0.374
  765SOL     OW 2319   0.105   2.875   1.726
  765SOL    HW1 2320   0.028   2.842   1.780
  765SOL    HW2 2321   0.190   2.845   1.768
  766SOL     OW 2322   0.672   2.065   1.489
  766SOL    HW1 2323   0.762   2.049   1.449
  766SOL    HW2 2324   0.680   2.070   1.588
  767SOL     OW 2325   0.075   2.207   0.033
  767SOL    HW1 2326  -0.017   2.179   0.004
  767SOL    HW2 2327   0.106   2.284  -0.023
  768SOL     OW 2328   1.440   2.718   1.398
  768SOL    HW1 2329   1.383   2.770   1.335
  768SOL    HW2 2330   1.536   2.730   1.374
  769SOL     OW 2331   0.072   2.028   0.318
  769SOL    HW1 2332   0.055   2.111   0.264
  769SOL    HW2 2333   0.162   1.991   0.296
  770SOL     OW 2334   1.183   3.197   0.119
  770SOL    HW1 2335   1.084   3.186   0.121
  770SOL    HW2 2336   1.217   3.212   0.212
  771SOL     OW 2337   0.613   2.704   1.431
  771SOL    HW1 2338   0.669   2.785   1.414
  771SOL    HW2 2339   0.672   2.624   1.434
  772SOL     OW 2340   1.493   3.629   0.959
  772SOL    HW1 2341   1.526   3.693   0.890
  772SOL    HW2 2342   1.559   3.623   1.034
  773SOL     OW 2343   0.716   2.427   1.708
  773SOL    HW1 2344   0.735   2.492   1.782
  773SOL    HW2 2345   0.776   2.347   1.717
  774SOL     OW 2346   1.450   3.082   1.633
  774SOL    HW1 2347   1.441   3.072   1.732
  774SOL    HW2 2348   1.546   3.075   1.607
  775SOL     OW 2349   0.390   3.603   1.560
  775SOL    HW1 2350   0.299   3.644   1.558
  775SOL    HW2 2351   0.383   3.509   1.592
  776SOL     OW 2352   1.674   2.745   1.254
  776SOL    HW1 2353   1.647   2.656   1.217
  776SOL    HW2 2354   1.675   2.813   1.181
  777SOL     OW 2355   1.225   2.187   0.449
  777SOL    HW1 2356   1.290   2.113   0.438
  777SOL    HW2 2357   1.245   2.237   0.533
  778SOL     OW 2358   0.594   2.607   0.652
  778SOL    HW1 2359   0.644   2.692   0.633
  778SOL    HW2 2360   0.506   2.609   0.604
  779SOL     OW 2361   1.777   2.204   1.642
  779SOL    HW1 2362   1.760   2.235   1.548
  779SOL    HW2 2363   1.693   2.167   1.680
  780SOL     OW 2364   1.730   2.796   1.517
  780SOL    HW1 2365   1.768   2.887   1.532
  780SOL    HW2 2366   1.722   2.779   1.418
  781SOL     OW 2367   0.859   3.236   0.016
  781SOL    HW1 2368   0.813   3.251   0.104
  781SOL    HW2 2369   0.903   3.321  -0.014
  782SOL     OW 2370   0.661   3.652   0.953
  782SOL    HW1 2371   0.615   3.740   0.940
  782SOL    HW2 2372   0.760   3.664   0.946
  783SOL     OW 2373   0.859   2.818   0.861
  783SOL    HW1 2374   0.913   2.749   0.909
  783SOL    HW2 2375   0.827   2.887   0.927
  784SOL     OW 2376   1.083   2.846   0.087
  784SOL    HW1 2377   1.060   2.899   0.005
  784SOL    HW2 2378   1.164   2.790   0.068
  785SOL     OW 2379   1.861   3.431   0.851
  785SOL    HW1 2380   1.790   3.419   0.781
  785SOL    HW2 2381   1.862   3.352   0.911
  786SOL     OW 2382   0.221   3.176   1.844
  786SOL    HW1 2383   0.156   3.103   1.823
  786SOL    HW2 2384   0.225   3.190   1.942
  787SOL     OW 2385   0.079   3.102   0.653
  787SOL    HW1 2386   0.078   3.055   0.741
  787SOL    HW2 2387   0.161   3.074   0.602
  788SOL     OW 2388   0.672   3.253   1.624
  788SOL    HW1 2389   0.594   3.203   1.662
  788SOL    HW2 2390   0.669   3.348   1.655
  789SOL     OW 2391   1.824   2.054   1.227
  789SOL    HW1 2392   1.820   1.964   1.271
  789SOL    HW2 2393   1.827   2.043   1.128
  790SOL     OW 2394   0.428   2.286   0.520
  790SOL    HW1 2395   0.458   2.214   0.458
  790SOL    HW2 2396   0.389   2.246   0.603
  791SOL     OW 2397   1.705   3.349   1.104
  791SOL    HW1 2398   1.612   3.324   1.077
  791SOL    HW2 2399   1.731   3.299   1.186
  792SOL     OW 2400   0.317   2.409   1.280
  792SOL    HW1 2401   0.355   2.350   1.352
  792SOL    HW2 2402   0.357   2.383   1.192
  793SOL     OW 2403   0.812   3.448   0.687
  793SOL    HW1 2404   0.844   3.458   0.593
  793SOL    HW2 2405   0.733   3.386   0.689
  794SOL     OW 2406   1.424   2.076   1.112
  794SOL    HW1 2407   1.476   2.011   1.167
  794SOL    HW2 2408   1.375   2.139   1.173
  795SOL     OW 2409   1.001   1.896   1.154
  795SOL    HW1 2410   0.938   1.824   1.123
  795SOL    HW2 2411   1.094   1.860   1.154
  796SOL     OW 2412   0.770   3.192   0.301
  796SOL    HW1 2413   0.724   3.105   0.318
  796SOL    HW2 2414   0.861   3.189   0.342
  797SOL     OW 2415   0.618   3.429   1.284
  797SOL    HW1 2416   0.613   3.511   1.341
  797SOL    HW2 2417   0.707   3.426   1.239
  798SOL     OW 2418   1.352   1.914   0.168
  798SOL    HW1 2419   1.387   1.873   0.084
  798SOL    HW2 2420   1.262   1.876   0.188
  799SOL     OW 2421   1.300   2.315   0.691
  799SOL    HW1 2422   1.241   2.395   0.695
  799SOL    HW2 2423   1.315   2.280   0.784
  800SOL     OW 2424   1.593   2.083   0.882
  800SOL    HW1 2425   1.509   2.082   0.936
  800SOL    HW2 2426   1.595   2.166   0.826
  801SOL     OW 2427   0.039   2.939   0.300
  801SOL    HW1 2428   0.138   2.928   0.291
  801SOL    HW2 2429  -0.001   2.853   0.332
  802SOL     OW 2430   0.875   3.508   0.337
  802SOL    HW1 2431   0.798   3.473   0.283
  802SOL    HW2 2432   0.843   3.579   0.399
  803SOL     OW 2433   0.230   2.490   1.975
  803SOL    HW1 2434   0.137   2.488   2.012
  803SOL    HW2 2435   0.231   2.451   1.883
  804SOL     OW 2436   0.225   2.137   2.858
  804SOL    HW1 2437   0.260   2.120   2.950
  804SOL    HW2 2438   0.137   2.092   2.846
  805SOL     OW 2439   0.019   2.230   2.509
  805SOL    HW1 2440  -0.063   2.273   2.548
  805SOL    HW2 2441  -0.009   2.157   2.446
  806SOL     OW 2442   0.569   3.137   3.027
  806SOL    HW1 2443   0.476   3.130   2.990
  806SOL    HW2 2444   0.580   3.226   3.071
  807SOL     OW 2445   1.555   3.373   2.565
  807SOL    HW1 2446   1.498   3.357   2.646
  807SOL    HW2 2447   1.496   3.383   2.485
  808SOL     OW 2448   1.135   2.565   2.579
  808SOL    HW1 2449   1.192   2.643   2.554
  808SOL    HW2 2450   1.075   2.591   2.655
  809SOL     OW 2451   1.755   2.469   2.093
  809SOL    HW1 2452   1.743   2.456   1.994
  809SOL    HW2 2453   1.725   2.388   2.142
  810SOL     OW 2454   0.768   3.006   2.885
  810SOL    HW1 2455   0.690   3.023   2.945
  810SOL    HW2 2456   0.802   3.093   2.849
  811SOL     OW 2457   0.850   2.660   3.685
  811SOL    HW1 2458   0.846   2.736   3.750
  811SOL    HW2 2459   0.872   2.696   3.594
  812SOL     OW 2460   0.685   2.874   2.527
  812SOL    HW1 2461   0.754   2.858   2.597
  812SOL    HW2 2462   0.612   2.931   2.565
  813SOL     OW 2463   0.686   3.023   3.665
  813SOL    HW1 2464   0.746   3.102   3.679
  813SOL    HW2 2465   0.600   3.054   3.624
  814SOL     OW 2466   0.335   3.297   2.923
  814SOL    HW1 2467   0.257   3.266   2.870
  814SOL    HW2 2468   0.393   3.355   2.866
  815SOL     OW 2469   1.460   3.367   3.201
  815SOL    HW1 2470   1.484   3.461   3.227
  815SOL    HW2 2471   1.444   3.313   3.283
  816SOL     OW 2472   0.438   2.254   3.361
  816SOL    HW1 2473   0.520   2.198   3.370
  816SOL    HW2 2474   0.357   2.196   3.365
  817SOL     OW 2475   1.603   2.309   2.599
  817SOL    HW1 2476   1.529   2.355   2.549
  817SOL    HW2 2477   1.654   2.377   2.652
  818SOL     OW 2478   0.231   3.575   2.345
  818SOL    HW1 2479   0.265   3.652   2.399
  818SOL    HW2 2480   0.275   3.575   2.255
  819SOL     OW 2481   1.127   3.203   3.552
  819SOL    HW1 2482   1.174   3.203   3.640
  819SOL    HW2 2483   1.079   3.116   3.541
  820SOL     OW 2484   0.230   3.296   2.400
  820SOL    HW1 2485   0.204   3.392   2.400
  820SOL    HW2 2486   0.159   3.242   2.445
  821SOL     OW 2487   0.240   2.953   2.748
  821SOL    HW1 2488   0.254   2.869   2.800
  821SOL    HW2 2489   0.185   3.017   2.803
  822SOL     OW 2490   0.620   3.648   3.301
  822SOL    HW1 2491   0.528   3.631   3.336
  822SOL    HW2 2492   0.648   3.740   3.327
  823SOL     OW 2493   0.606   2.826   1.985
  823SOL    HW1 2494   0.613   2.910   1.931
  823SOL    HW2 2495   0.652   2.839   2.073
  824SOL     OW 2496   1.594   1.976   3.342
  824SOL    HW1 2497   1.576   2.043   3.270
  824SOL    HW2 2498   1.591   2.022   3.431
  825SOL     OW 2499   0.122   2.505   2.425
  825SOL    HW1 2500   0.077   2.417   2.442
  825SOL    HW2 2501   0.121   2.559   2.509
  826SOL     OW 2502   1.842   3.629   2.221
  826SOL    HW1 2503   1.896   3.600   2.301
  826SOL    HW2 2504   1.872   3.719   2.192
  827SOL     OW 2505   0.027   3.458   1.979
  827SOL    HW1 2506   0.008   3.362   2.000
  827SOL    HW2 2507  -0.006   3.516   2.054
  828SOL     OW 2508   1.689   2.784   2.474
  828SOL    HW1 2509   1.784   2.755   2.482
  828SOL    HW2 2510   1.681   2.849   2.399
  829SOL     OW 2511   1.641   2.970   2.294
  829SOL    HW1 2512   1.727   2.972   2.242
  829SOL    HW2 2513   1.655   3.017   2.382
  830SOL     OW 2514   0.113   2.599   3.459
  830SOL    HW1 2515   0.201   2.586   3.504
  830SOL    HW2 2516   0.100   2.696   3.437
  831SOL     OW 2517   0.613   3.227   2.588
  831SOL    HW1 2518   0.564   3.140   2.597
  831SOL    HW2 2519   0.590   3.270   2.501
  832SOL     OW 2520   1.293   3.090   3.285
  832SOL    HW1 2521   1.330   3.017   3.227
  832SOL    HW2 2522   1.345   3.095   3.370
  833SOL     OW 2523   0.809   1.866   2.364
  833SOL    HW1 2524   0.849   1.957   2.355
  833SOL    HW2 2525   0.709   1.874   2.370
  834SOL     OW 2526   0.197   2.838   3.126
  834SOL    HW1 2527   0.286   2.793   3.112
  834SOL    HW2 2528   0.124   2.773   3.107
  835SOL     OW 2529   1.525   2.861   2.052
  835SOL    HW1 2530   1.462   2.785   2.065
  835SOL    HW2 2531   1.573   2.879   2.138
  836SOL     OW 2532   1.187   3.654   3.478
  836SOL    HW1 2533   1.211   3.714   3.402
  836SOL    HW2 2534   1.194   3.559   3.448
  837SOL     OW 2535   0.317   2.113   3.663
  837SOL    HW1 2536   0.388   2.184   3.669
  837SOL    HW2 2537   0.229   2.152   3.691
  838SOL     OW 2538   1.466   3.279   2.815
  838SOL    HW1 2539   1.407   3.285   2.895
  838SOL    HW2 2540   1.451   3.191   2.769
  839SOL     OW 2541   1.667   3.576   2.434
  839SOL    HW1 2542   1.626   3.553   2.346
  839SOL    HW2 2543   1.649   3.502   2.499
  840SOL     OW 2544   0.598   2.591   2.132
  840SOL    HW1 2545   0.622   2.660   2.064
  840SOL    HW2 2546   0.520   2.624   2.186
  841SOL     OW 2547   1.281   2.207   2.806
  841SOL    HW1 2548   1.195   2.157   2.793
  841SOL    HW2 2549   1.343   2.153   2.862
  842SOL     OW 2550   1.576   3.524   2.169
  842SOL    HW1 2551   1.665   3.570   2.172
  842SOL    HW2 2552   1.555   3.500   2.074
  843SOL     OW 2553   0.807   2.467   3.327
  843SOL    HW1 2554   0.760   2.464   3.416
  843SOL    HW2 2555   0.756   2.412   3.261
  844SOL     OW 2556   1.394   2.331   3.536
  844SOL    HW1 2557   1.374   2.374   3.624
  844SOL    HW2 2558   1.472   2.269   3.545
  845SOL     OW 2559   0.973   2.752   3.434
  845SOL    HW1 2560   1.019   2.668   3.405
  845SOL    HW2 2561   0.917   2.786   3.359
  846SOL     OW 2562   0.991   2.272   3.104
  846SOL    HW1 2563   0.914   2.306   3.158
  846SOL    HW2 2564   0.957   2.221   3.025
  847SOL     OW 2565   1.041   2.563   2.291
  847SOL    HW1 2566   1.067   2.559   2.387
  847SOL    HW2 2567   0.956   2.512   2.277
  848SOL     OW 2568   0.076   2.673   2.651
  848SOL    HW1 2569   0.175   2.661   2.660
  848SOL    HW2 2570   0.052   2.768   2.672
  849SOL     OW 2571   0.130   3.683   3.433
  849SOL    HW1 2572   0.120   3.668   3.532
  849SOL    HW2 2573   0.044   3.719   3.397
  850SOL     OW 2574   0.865   2.210   2.057
  850SOL    HW1 2575   0.924   2.273   2.008
  850SOL    HW2 2576   0.884   2.116   2.028
  851SOL     OW 2577   1.719   2.447   3.693
  851SOL    HW1 2578   1.693   2.536   3.657
  851SOL    HW2 2579   1.717   2.379   3.620
  852SOL     OW 2580   1.362   3.006   2.407
  852SOL    HW1 2581   1.445   2.977   2.359
  852SOL    HW2 2582   1.313   3.073   2.351
  853SOL     OW 2583   0.550   2.058   2.747
  853SOL    HW1 2584   0.545   2.053   2.847
  853SOL    HW2 2585   0.552   2.154   2.718
  854SOL     OW 2586   1.008   3.318   2.339
  854SOL    HW1 2587   0.962   3.390   2.287
  854SOL    HW2 2588   1.004   3.338   2.437
  855SOL     OW 2589   0.351   3.663   2.715
  855SOL    HW1 2590   0.401   3.577   2.721
  855SOL    HW2 2591   0.416   3.740   2.712
  856SOL     OW 2592   1.795   2.928   2.735
  856SOL    HW1 2593   1.733   2.913   2.659
  856SOL    HW2 2594   1.743   2.939   2.820
  857SOL     OW 2595   1.227   3.412   3.368
  857SOL    HW1 2596   1.233   3.335   3.432
  857SOL    HW2 2597   1.175   3.386   3.288
  858SOL     OW 2598   0.321   2.805   2.104
  858SOL    HW1 2599   0.403   2.844   2.062
  858SOL    HW2 2600   0.294   2.723   2.055
  859SOL     OW 2601   1.458   2.597   2.590
  859SOL    HW1 2602   1.453   2.532   2.665
  859SOL    HW2 2603   1.538   2.656   2.603
  860SOL     OW 2604   0.461   3.128   3.589
  860SOL    HW1 2605   0.411   3.129   3.503
  860SOL    HW2 2606   0.398   3.110   3.665
  861SOL     OW 2607   1.111   3.638   2.099
  861SOL    HW1 2608   1.051   3.576   2.149
  861SOL    HW2 2609   1.142   3.594   2.014
  862SOL     OW 2610   0.202   2.147   3.360
  862SOL    HW1 2611   0.122   2.207   3.347
  862SOL    HW2 2612   0.192   2.098   3.446
  863SOL     OW 2613   1.632   3.239   1.943
  863SOL    HW1 2614   1.600   3.333   1.933
  863SOL    HW2 2615   1.556   3.176   1.931
  864SOL     OW 2616   0.464   3.605   2.185
  864SOL    HW1 2617   0.497   3.644   2.271
  864SOL    HW2 2618   0.540   3.598   2.120
  865SOL     OW 2619   1.400   1.969   2.288
  865SOL    HW1 2620   1.376   1.932   2.198
  865SOL    HW2 2621   1.499   1.985   2.292
  866SOL     OW 2622   0.249   3.647   3.103
  866SOL    HW1 2623   0.306   3.582   3.153
  866SOL    HW2 2624   0.233   3.614   3.010
  867SOL     OW 2625   0.940   3.560   2.766
  867SOL    HW1 2626   1.020   3.503   2.787
  867SOL    HW2 2627   0.891   3.520   2.689
  868SOL     OW 2628   0.382   2.562   2.342
  868SOL    HW1 2629   0.427   2.472   2.339
  868SOL    HW2 2630   0.288   2.551   2.375
  869SOL     OW 2631   1.547   2.084   3.591
  869SOL    HW1 2632   1.542   2.121   3.683
  869SOL    HW2 2633   1.475   2.015   3.579
  870SOL     OW 2634   0.614   1.984   1.979
  870SOL    HW1 2635   0.712   1.962   1.986
  870SOL    HW2 2636   0.583   1.967   1.886
  871SOL     OW 2637   0.781   2.126   3.611
  871SOL    HW1 2638   0.848   2.065   3.654
  871SOL    HW2 2639   0.708   2.145   3.676
  872SOL     OW 2640   0.888   3.376   3.057
  872SOL    HW1 2641   0.865   3.351   2.963
  872SOL    HW2 2642   0.949   3.307   3.096
  873SOL     OW 2643   1.351   2.452   3.295
  873SOL    HW1 2644   1.379   2.409   3.380
  873SOL    HW2 2645   1.376   2.548   3.296
  874SOL     OW 2646   0.803   3.264   2.786
  874SOL    HW1 2647   0.893   3.278   2.744
  874SOL    HW2 2648   0.732   3.266   2.715
  875SOL     OW 2649   0.922   2.365   2.761
  875SOL    HW1 2650   0.897   2.356   2.665
  875SOL    HW2 2651   0.970   2.283   2.792
  876SOL     OW 2652   0.539   1.926   2.374
  876SOL    HW1 2653   0.458   1.927   2.432
  876SOL    HW2 2654   0.542   2.009   2.319
  877SOL     OW 2655   1.434   3.050   1.903
  877SOL    HW1 2656   1.466   2.974   1.960
  877SOL    HW2 2657   1.342   3.077   1.933
  878SOL     OW 2658   0.297   1.897   2.033
  878SOL    HW1 2659   0.346   1.981   2.012
  878SOL    HW2 2660   0.359   1.832   2.078
  879SOL     OW 2661   0.935   2.098   2.342
  879SOL    HW1 2662   0.887   2.139   2.264
  879SOL    HW2 2663   1.034   2.096   2.323
  880SOL     OW 2664   1.076   2.545   3.326
  880SOL    HW1 2665   0.996   2.484   3.329
  880SOL    HW2 2666   1.157   2.492   3.302
  881SOL     OW 2667   1.227   3.432   2.655
  881SOL    HW1 2668   1.248   3.506   2.590
  881SOL    HW2 2669   1.295   3.432   2.728
  882SOL     OW 2670   0.459   3.014   2.603
  882SOL    HW1 2671   0.388   2.987   2.668
  882SOL    HW2 2672   0.433   2.986   2.510
  883SOL     OW 2673   1.271   3.659   2.453
  883SOL    HW1 2674   1.315   3.723   2.389
  883SOL    HW2 2675   1.221   3.711   2.523
  884SOL     OW 2676   1.032   2.411   1.878
  884SOL    HW1 2677   0.991   2.493   1.839
  884SOL    HW2 2678   1.096   2.437   1.951
  885SOL     OW 2679   0.078   2.418   3.248
  885SOL    HW1 2680   0.170   2.417   3.207
  885SOL    HW2 2681   0.072   2.492   3.315
  886SOL     OW 2682   0.561   2.084   3.009
  886SOL    HW1 2683   0.599   2.000   3.046
  886SOL    HW2 2684   0.473   2.103   3.053
  887SOL     OW 2685   0.866   2.316   2.504
  887SOL    HW1 2686   0.834   2.388   2.442
  887SOL    HW2 2687   0.890   2.235   2.451
  888SOL     OW 2688   1.017   1.901   2.615
  888SOL    HW1 2689   0.945   1.906   2.546
  888SOL    HW2 2690   0.993   1.832   2.684
  889SOL     OW 2691   1.429   3.035   2.729
  889SOL    HW1 2692   1.374   2.951   2.722
  889SOL    HW2 2693   1.455   3.064   2.637
  890SOL     OW 2694   1.466   2.452   2.854
  890SOL    HW1 2695   1.436   2.357   2.861
  890SOL    HW2 2696   1.539   2.468   2.920
  891SOL     OW 2697   1.857   2.695   2.239
  891SOL    HW1 2698   1.899   2.631   2.303
  891SOL    HW2 2699   1.819   2.644   2.161
  892SOL     OW 2700   0.488   3.247   2.036
  892SOL    HW1 2701   0.401   3.232   2.083
  892SOL    HW2 2702   0.471   3.273   1.941
  893SOL     OW 2703   1.664   3.142   2.519
  893SOL    HW1 2704   1.763   3.150   2.533
  893SOL    HW2 2705   1.619   3.226   2.550
  894SOL     OW 2706   1.390   2.437   1.940
  894SOL    HW1 2707   1.336   2.416   2.021
  894SOL    HW2 2708   1.481   2.396   1.949
  895SOL     OW 2709   0.527   2.118   2.190
  895SOL    HW1 2710   0.554   2.059   2.115
  895SOL    HW2 2711   0.527   2.213   2.159
  896SOL     OW 2712   1.754   3.085   3.450
  896SOL    HW1 2713   1.845   3.046   3.437
  896SOL    HW2 2714   1.762   3.181   3.474
  897SOL     OW 2715   1.064   3.209   3.202
  897SOL    HW1 2716   0.984   3.186   3.257
  897SOL    HW2 2717   1.147   3.183   3.251
  898SOL     OW 2718   1.592   3.491   3.487
  898SOL    HW1 2719   1.619   3.525   3.397
  898SOL    HW2 2720   1.671   3.453   3.533
  899SOL     OW 2721   1.111   3.057   2.962
  899SOL    HW1 2722   1.071   3.101   3.043
  899SOL    HW2 2723   1.070   3.094   2.879
  900SOL     OW 2724   1.638   2.961   2.941
  900SOL    HW1 2725   1.643   3.042   3.000
  900SOL    HW2 2726   1.552   2.963   2.890
  901SOL     OW 2727   0.915   1.951   3.264
  901SOL    HW1 2728   0.940   1.931   3.169
  901SOL    HW2 2729   0.987   2.007   3.306
  902SOL     OW 2730   0.980   2.978   3.581
  902SOL    HW1 2731   0.881   2.984   3.591
  902SOL    HW2 2732   1.003   2.898   3.525
  903SOL     OW 2733   0.705   2.912   2.230
  903SOL    HW1 2734   0.691   2.919   2.329
  903SOL    HW2 2735   0.789   2.861   2.212
  904SOL     OW 2736   0.410   2.675   3.113
  904SOL    HW1 2737   0.496   2.687   3.163
  904SOL    HW2 2738   0.368   2.588   3.140
  905SOL     OW 2739   1.274   2.248   3.124
  905SOL    HW1 2740   1.295   2.322   3.188
  905SOL    HW2 2741   1.185   2.265   3.081
  906SOL     OW 2742   0.064   3.426   3.193
  906SOL    HW1 2743   0.018   3.508   3.159
  906SOL    HW2 2744   0.162   3.445   3.202
  907SOL     OW 2745   0.367   2.962   2.363
  907SOL    HW1 2746   0.360   3.045   2.307
  907SOL    HW2 2747   0.371   2.882   2.303
  908SOL     OW 2748   0.566   2.399   2.727
  908SOL    HW1 2749   0.578   2.465   2.653
  908SOL    HW2 2750   0.612   2.433   2.810
  909SOL     OW 2751   1.252   3.210   2.250
  909SOL    HW1 2752   1.302   3.287   2.290
  909SOL    HW2 2753   1.157   3.212   2.282
  910SOL     OW 2754   1.272   3.307   3.004
  910SOL    HW1 2755   1.319   3.320   3.091
  910SOL    HW2 2756   1.206   3.233   3.013
  911SOL     OW 2757   1.582   2.501   2.334
  911SOL    HW1 2758   1.551   2.562   2.407
  911SOL    HW2 2759   1.632   2.553   2.265
  912SOL     OW 2760   0.354   3.372   3.191
  912SOL    HW1 2761   0.333   3.328   3.104
  912SOL    HW2 2762   0.451   3.398   3.194
  913SOL     OW 2763   0.402   2.613   3.460
  913SOL    HW1 2764   0.470   2.668   3.413
  913SOL    HW2 2765   0.442   2.525   3.487
  914SOL     OW 2766   1.587   2.641   3.532
  914SOL    HW1 2767   1.495   2.679   3.527
  914SOL    HW2 2768   1.647   2.688   3.467
  915SOL     OW 2769   1.013   1.967   3.632
  915SOL    HW1 2770   1.019   2.052   3.580
  915SOL    HW2 2771   1.045   1.891   3.575
  916SOL     OW 2772   0.504   1.912   3.602
  916SOL    HW1 2773   0.462   1.855   3.532
  916SOL    HW2 2774   0.438   1.981   3.634
  917SOL     OW 2775   0.573   2.732   2.891
  917SOL    HW1 2776   0.617   2.821   2.882
  917SOL    HW2 2777   0.510   2.732   2.968
  918SOL     OW 2778   1.360   2.724   2.907
  918SOL    HW1 2779   1.285   2.724   2.841
  918SOL    HW2 2780   1.397   2.632   2.916
  919SOL     OW 2781   1.209   2.387   2.137
  919SOL    HW1 2782   1.222   2.303   2.191
  919SOL    HW2 2783   1.180   2.461   2.197
  920SOL     OW 2784   0.307   2.075   3.093
  920SOL    HW1 2785   0.284   2.112   3.183
  920SOL    HW2 2786   0.277   1.980   3.087
  921SOL     OW 2787   0.037   3.172   3.144
  921SOL    HW1 2788   0.090   3.123   3.212
  921SOL    HW2 2789   0.059   3.270   3.149
  922SOL     OW 2790   0.732   2.496   2.926
  922SOL    HW1 2791   0.791   2.470   2.850
  922SOL    HW2 2792   0.704   2.592   2.915
  923SOL     OW 2793   1.728   2.797   3.716
  923SOL    HW1 2794   1.682   2.790   3.627
  923SOL    HW2 2795   1.666   2.841   3.782
  924SOL     OW 2796   0.307   1.925   2.480
  924SOL    HW1 2797   0.296   2.019   2.513
  924SOL    HW2 2798   0.302   1.862   2.557
  925SOL     OW 2799   1.622   2.229   2.236
  925SOL    HW1 2800   1.624   2.153   2.300
  925SOL    HW2 2801   1.574   2.306   2.276
  926SOL     OW 2802   1.023   2.628   2.828
  926SOL    HW1 2803   1.038   2.649   2.924
  926SOL    HW2 2804   0.993   2.533   2.819
  927SOL     OW 2805   0.980   3.435   3.562
  927SOL    HW1 2806   0.960   3.479   3.474
  927SOL    HW2 2807   1.019   3.344   3.546
  928SOL     OW 2808   1.859   3.380   3.467
  928SOL    HW1 2809   1.873   3.407   3.372
  928SOL    HW2 2810   1.942   3.402   3.520
  929SOL     OW 2811   0.350   2.760   3.666
  929SOL    HW1 2812   0.426   2.804   3.714
  929SOL    HW2 2813   0.385   2.713   3.584
  930SOL     OW 2814   1.540   2.136   1.987
  930SOL    HW1 2815   1.479   2.061   2.010
  930SOL    HW2 2816   1.562   2.188   2.070
  931SOL     OW 2817   1.303   2.700   1.904
  931SOL    HW1 2818   1.337   2.607   1.919
  931SOL    HW2 2819   1.321   2.727   1.809
  932SOL     OW 2820   1.068   3.195   2.711
  932SOL    HW1 2821   1.075   3.111   2.656
  932SOL    HW2 2822   1.130   3.264   2.675
  933SOL     OW 2823   0.319   2.672   2.811
  933SOL    HW1 2824   0.412   2.708   2.816
  933SOL    HW2 2825   0.313   2.587   2.863
  934SOL     OW 2826   0.339   2.371   2.868
  934SOL    HW1 2827   0.287   2.288   2.851
  934SOL    HW2 2828   0.416   2.376   2.804
  935SOL     OW 2829   1.138   2.242   3.540
  935SOL    HW1 2830   1.093   2.305   3.604
  935SOL    HW2 2831   1.231   2.273   3.523
  936SOL     OW 2832   1.160   2.069   3.339
  936SOL    HW1 2833   1.160   2.133   3.416
  936SOL    HW2 2834   1.188   2.117   3.256
  937SOL     OW 2835   0.008   3.188   2.062
  937SOL    HW1 2836  -0.085   3.209   2.031
  937SOL    HW2 2837   0.018   3.089   2.075
  938SOL     OW 2838   0.088   3.663   2.789
  938SOL    HW1 2839   0.046   3.577   2.762
  938SOL    HW2 2840   0.182   3.666   2.755
  939SOL     OW 2841   0.504   3.430   2.772
  939SOL    HW1 2842   0.570   3.504   2.781
  939SOL    HW2 2843   0.548   3.351   2.730
  940SOL     OW 2844   1.002   2.658   3.100
  940SOL    HW1 2845   1.043   2.626   3.186
  940SOL    HW2 2846   0.906   2.631   3.097
  941SOL     OW 2847   0.040   2.406   2.976
  941SOL    HW1 2848   0.125   2.373   2.935
  941SOL    HW2 2849   0.053   2.421   3.074
  942SOL     OW 2850   0.189   2.382   3.584
  942SOL    HW1 2851   0.248   2.342   3.514
  942SOL    HW2 2852   0.131   2.453   3.543
  943SOL     OW 2853   1.369   2.812   3.522
  943SOL    HW1 2854   1.408   2.901   3.542
  943SOL    HW2 2855   1.379   2.792   3.425
  944SOL     OW 2856   0.815   2.434   2.187
  944SOL    HW1 2857   0.822   2.345   2.141
  944SOL    HW2 2858   0.721   2.468   2.179
  945SOL     OW 2859   1.657   2.466   3.068
  945SOL    HW1 2860   1.619   2.397   3.130
  945SOL    HW2 2861   1.739   2.430   3.024
  946SOL     OW 2862   0.252   3.426   3.606
  946SOL    HW1 2863   0.222   3.483   3.682
  946SOL    HW2 2864   0.245   3.329   3.632
  947SOL     OW 2865   0.671   2.326   3.131
  947SOL    HW1 2866   0.637   2.237   3.101
  947SOL    HW2 2867   0.697   2.380   3.051
  948SOL     OW 2868   0.930   3.540   3.327
  948SOL    HW1 2869   0.906   3.522   3.232
  948SOL    HW2 2870   0.960   3.634   3.337
  949SOL     OW 2871   0.473   2.362   2.053
  949SOL    HW1 2872   0.534   2.442   2.057
  949SOL    HW2 2873   0.378   2.393   2.060
  950SOL     OW 2874   0.159   2.999   3.328
  950SOL    HW1 2875   0.181   2.938   3.404
  950SOL    HW2 2876   0.169   2.950   3.242
  951SOL     OW 2877   1.347   2.921   3.096
  951SOL    HW1 2878   1.371   2.858   3.022
  951SOL    HW2 2879   1.257   2.961   3.078
  952SOL     OW 2880   1.302   2.717   2.171
  952SOL    HW1 2881   1.216   2.686   2.213
  952SOL    HW2 2882   1.298   2.703   2.072
  953SOL     OW 2883   1.759   3.609   3.016
  953SOL    HW1 2884   1.820   3.639   2.943
  953SOL    HW2 2885   1.721   3.520   2.994
  954SOL     OW 2886   1.252   3.593   2.990
  954SOL    HW1 2887   1.336   3.598   2.936
  954SOL    HW2 2888   1.229   3.497   3.008
  955SOL     OW 2889   0.083   3.120   2.884
  955SOL    HW1 2890   0.078   3.119   2.984
  955SOL    HW2 2891   0.000   3.079   2.846
  956SOL     OW 2892   0.688   3.524   3.578
  956SOL    HW1 2893   0.632   3.605   3.587
  956SOL    HW2 2894   0.740   3.528   3.492
  957SOL     OW 2895   1.726   1.997   2.385
  957SOL    HW1 2896   1.799   1.980   2.318
  957SOL    HW2 2897   1.695   1.910   2.423
  958SOL     OW 2898   1.388   3.435   2.339
  958SOL    HW1 2899   1.455   3.447   2.265
  958SOL    HW2 2900   1.348   3.524   2.362
  959SOL     OW 2901   0.130   3.656   3.713
  959SOL    HW1 2902   0.089   3.582   3.766
  959SOL    HW2 2903   0.194   3.707   3.771
  960SOL     OW 2904   1.280   2.789   2.534
  960SOL    HW1 2905   1.340   2.708   2.536
  960SOL    HW2 2906   1.320   2.858   2.474
  961SOL     OW 2907   0.830   3.135   3.284
  961SOL    HW1 2908   0.825   3.168   3.379
  961SOL    HW2 2909   0.744   3.154   3.238
  962SOL     OW 2910   0.672   3.478   2.016
  962SOL    HW1 2911   0.681   3.488   1.917
  962SOL    HW2 2912   0.632   3.389   2.037
  963SOL     OW 2913   1.650   3.582   3.256
  963SOL    HW1 2914   1.703   3.592   3.172
  963SOL    HW2 2915   1.623   3.672   3.290
  964SOL     OW 2916   1.841   2.037   2.825
  964SOL    HW1 2917   1.880   1.952   2.789
  964SOL    HW2 2918   1.743   2.039   2.806
  965SOL     OW 2919   0.263   2.188   2.582
  965SOL    HW1 2920   0.184   2.239   2.548
  965SOL    HW2 2921   0.254   2.173   2.680
  966SOL     OW 2922   1.194   3.474   1.893
  966SOL    HW1 2923   1.200   3.381   1.930
  966SOL    HW2 2924   1.135   3.474   1.813
  967SOL     OW 2925   0.822   2.864   3.234
  967SOL    HW1 2926   0.862   2.863   3.142
  967SOL    HW2 2927   0.832   2.956   3.274
  968SOL     OW 2928   0.916   2.772   2.153
  968SOL    HW1 2929   0.979   2.810   2.085
  968SOL    HW2 2930   0.956   2.689   2.192
  969SOL     OW 2931   1.504   3.469   1.906
  969SOL    HW1 2932   1.412   3.506   1.913
  969SOL    HW2 2933   1.542   3.489   1.816
  970SOL     OW 2934   0.372   3.150   3.352
  970SOL    HW1 2935   0.359   3.243   3.318
  970SOL    HW2 2936   0.288   3.098   3.339
  971SOL     OW 2937   1.614   3.154   3.151
  971SOL    HW1 2938   1.674   3.157   3.231
  971SOL    HW2 2939   1.539   3.218   3.164
  972SOL     OW 2940   1.039   2.960   2.558
  972SOL    HW1 2941   0.969   2.913   2.612
  972SOL    HW2 2942   1.098   2.892   2.515
  973SOL     OW 2943   1.014   2.098   2.833
  973SOL    HW1 2944   1.006   2.062   2.740
  973SOL    HW2 2945   1.012   2.022   2.898
  974SOL     OW 2946   0.590   3.349   2.353
  974SOL    HW1 2947   0.632   3.291   2.283
  974SOL    HW2 2948   0.546   3.428   2.309
  975SOL     OW 2949   1.709   2.247   3.243
  975SOL    HW1 2950   1.782   2.316   3.247
  975SOL    HW2 2951   1.737   2.172   3.184
  976SOL     OW 2952   0.255   3.210   2.152
  976SOL    HW1 2953   0.159   3.211   2.125
  976SOL    HW2 2954   0.267   3.263   2.236
  977SOL     OW 2955   0.105   2.875   3.588
  977SOL    HW1 2956   0.028   2.842   3.642
  977SOL    HW2 2957   0.190   2.845   3.630
  978SOL     OW 2958   0.672   2.065   3.351
  978SOL    HW1 2959   0.762   2.049   3.311
  978SOL    HW2 2960   0.680   2.070   3.450
  979SOL     OW 2961   0.075   2.207   1.895
  979SOL    HW1 2962  -0.017   2.179   1.866
  979SOL    HW2 2963   0.106   2.284   1.839
  980SOL     OW 2964   1.440   2.718   3.260
  980SOL    HW1 2965   1.383   2.770   3.197
  980SOL    HW2 2966   1.536   2.730   3.236
  981SOL     OW 2967   0.072   2.028   2.180
  981SOL    HW1 2968   0.055   2.111   2.126
  981SOL    HW2 2969   0.162   1.991   2.158
  982SOL     OW 2970   1.183   3.197   1.981
  982SOL    HW1 2971   1.084   3.186   1.983
  982SOL    HW2 2972   1.217   3.212   2.074
  983SOL     OW 2973   0.613   2.704   3.293
  983SOL    HW1 2974   0.669   2.785   3.276
  983SOL    HW2 2975   0.672   2.624   3.296
  984SOL     OW 2976   1.493   3.629   2.821
  984SOL    HW1 2977   1.526   3.693   2.752
  984SOL    HW2 2978   1.559   3.623   2.896
  985SOL     OW 2979   0.716   2.427   3.570
  985SOL    HW1 2980   0.735   2.492   3.644
  985SOL    HW2 2981   0.776   2.347   3.579
  986SOL     OW 2982   1.450   3.082   3.495
  986SOL    HW1 2983   1.441   3.072   3.594
  986SOL    HW2 2984   1.546   3.075   3.469
  987SOL     OW 2985   0.390   3.603   3.422
  987SOL    HW1 2986   0.299   3.644   3.420
  987SOL    HW2 2987   0.383   3.509   3.454
  988SOL     OW 2988   1.674   2.745   3.116
  988SOL    HW1 2989   1.647   2.656   3.079
  988SOL    HW2 2990   1.675   2.813   3.043
  989SOL     OW 2991   1.225   2.187   2.311
  989SOL    HW1 2992   1.290   2.113   2.300
  989SOL    HW2 2993   1.245   2.237   2.395
  990SOL     OW 2994   0.594   2.607   2.514
  990SOL    HW1 2995   0.644   2.692   2.495
  990SOL    HW2 2996   0.506   2.609   2.466
  991SOL     OW 2997   1.777   2.204   3.504
  991SOL    HW1 2998   1.760   2.235   3.410
  991SOL    HW2 2999   1.693   2.167   3.542
  992SOL     OW 3000   1.730   2.796   3.379
  992SOL    HW1 3001   1.768   2.887   3.394
  992SOL    HW2 3002   1.722   2.779   3.280
  993SOL     OW 3003   0.859   3.236   1.878
  993SOL    HW1 3004   0.813   3.251   1.966
  993SOL    HW2 3005   0.903   3.321   1.848
  994SOL     OW 3006   0.661   3.652   2.815
  994SOL    HW1 3007   0.615   3.740   2.802
  994SOL    HW2 3008   0.760   3.664   2.808
  995SOL     OW 3009   0.859   2.818   2.723
  995SOL    HW1 3010   0.913   2.749   2.771
  995SOL    HW2 3011   0.827   2.887   2.789
  996SOL     OW 3012   1.083   2.846   1.949
  996SOL    HW1 3013   1.060   2.899   1.867
  996SOL    HW2 3014   1.164   2.790   1.930
  997SOL     OW 3015   1.861   3.431   2.713
  997SOL    HW1 3016   1.790   3.419   2.643
  997SOL    HW2 3017   1.862   3.352   2.773
  998SOL     OW 3018   0.221   3.176   3.706
  998SOL    HW1 3019   0.156   3.103   3.685
  998SOL    HW2 3020   0.225   3.190   3.804
  999SOL     OW 3021   0.079   3.102   2.515
  999SOL    HW1 3022   0.078   3.055   2.603
  999SOL    HW2 3023   0.161   3.074   2.464
 1000SOL     OW 3024   0.672   3.253   3.486
 1000SOL    HW1 3025   0.594   3.203   3.524
 1000SOL    HW2 3026   0.669   3.348   3.517
 1001SOL     OW 3027   1.824   2.054   3.089
 1001SOL    HW1 3028   1.820   1.964   3.133
 1001SOL    HW2 3029   1.827   2.043   2.990
 1002SOL     OW 3030   0.428   2.286   2.382
 1002SOL    HW1 3031   0.458   2.214   2.320
 1002SOL    HW2 3032   0.389   2.246   2.465
 1003SOL     OW 3033   1.705   3.349   2.966
 1003SOL    HW1 3034   1.612   3.324   2.939
 1003SOL    HW2 3035   1.731   3.299   3.048
 1004SOL     OW 3036   0.317   2.409   3.142
 1004SOL    HW1 3037   0.355   2.350   3.214
 1004SOL    HW2 3038   0.357   2.383   3.054
 1005SOL     OW 3039   0.812   3.448   2.549
 1005SOL    HW1 3040   0.844   3.458   2.455
 1005SOL    HW2 3041   0.733   3.386   2.551
 1006SOL     OW 3042   1.424   2.076   2.974
 1006SOL    HW1 3043   1.476   2.011   3.029
 1006SOL    HW2 3044   1.375   2.139   3.035
 1007SOL     OW 3045   1.001   1.896   3.016
 1007SOL    HW1 3046   0.938   1.824   2.985
 1007SOL    HW2 3047   1.094   1.860   3.016
 1008SOL     OW 3048   0.770   3.192   2.163
 1008SOL    HW1 3049   0.724   3.105   2.180
 1008SOL    HW2 3050   0.861   3.189   2.204
 1009SOL     OW 3051   0.618   3.429   3.146
 1009SOL    HW1 3052   0.613   3.511   3.203
 1009SOL    HW2 3053   0.707   3.426   3.101
 1010SOL     OW 3054   1.352   1.914   2.030
 1010SOL    HW1 3055   1.387   1.873   1.946
 1010SOL    HW2 3056   1.262   1.876   2.050
 1011SOL     OW 3057   1.300   2.315   2.553
 1011SOL    HW1 3058   1.241   2.395   2.557
 1011SOL    HW2 3059   1.315   2.280   2.646
 1012SOL     OW 3060   1.593   2.083   2.744
 1012SOL    HW1 3061   1.509   2.082   2.798
 1012SOL    HW2 3062   1.595   2.166   2.688
 1013SOL     OW 3063   0.039   2.939   2.162
 1013SOL    HW1 3064   0.138   2.928   2.153
 1013SOL    HW2 3065  -0.001   2.853   2.194
 1014SOL     OW 3066   0.875   3.508   2.199
 1014SOL    HW1 3067   0.798   3.473   2.145
 1014SOL    HW2 3068   0.843   3.579   2.261
 1015SOL     OW 3069   0.230   2.490   3.837
 1015SOL    HW1 3070   0.137   2.488   3.874
 1015SOL    HW2 3071   0.231   2.451   3.745
 1016SOL     OW 3072   0.225   2.137   4.720
 1016SOL    HW1 3073   0.260   2.120   4.812
 1016SOL    HW2 3074   0.137   2.092   4.708
 1017SOL     OW 3075   0.019   2.230   4.371
 1017SOL    HW1 3076  -0.063   2.273   4.410
 1017SOL    HW2 3077  -0.009   2.157   4.308
 1018SOL     OW 3078   0.569   3.137   4.889
 1018SOL    HW1 3079   0.476   3.130   4.852
 1018SOL    HW2 3080   0.580   3.226   4.933
 1019SOL     OW 3081   1.555   3.373   4.427
 1019SOL    HW1 3082   1.498   3.357   4.508
 1019SOL    HW2 3083   1.496   3.383   4.347
 1020SOL     OW 3084   1.135   2.565   4.441
 1020SOL    HW1 3085   1.192   2.643   4.416
 1020SOL    HW2 3086   1.075   2.591   4.517
 1021SOL     OW 3087   1.755   2.469   3.955
 1021SOL    HW1 3088   1.743   2.456   3.856
 1021SOL    HW2 3089   1.725   2.388   4.004
 1022SOL     OW 3090   0.768   3.006   4.747
 1022SOL    HW1 3091   0.690   3.023   4.807
 1022SOL    HW2 3092   0.802   3.093   4.711
 1023SOL     OW 3093   0.685   2.874   4.389
 1023SOL    HW1 3094   0.754   2.858   4.459
 1023SOL    HW2 3095   0.612   2.931   4.427
 1024SOL     OW 3096   0.335   3.297   4.785
 1024SOL    HW1 3097   0.257   3.266   4.732
 1024SOL    HW2 3098   0.393   3.355   4.728
 1025SOL     OW 3099   0.438   2.254   5.223
 1025SOL    HW1 3100   0.520   2.198   5.232
 1025SOL    HW2 3101   0.357   2.196   5.227
 1026SOL     OW 3102   1.603   2.309   4.461
 1026SOL    HW1 3103   1.529   2.355   4.411
 1026SOL    HW2 3104   1.654   2.377   4.514
 1027SOL     OW 3105   0.231   3.575   4.207
 1027SOL    HW1 3106   0.265   3.652   4.261
 1027SOL    HW2 3107   0.275   3.575   4.117
 1028SOL     OW 3108   0.230   3.296   4.262
 1028SOL    HW1 3109   0.204   3.392   4.262
 1028SOL    HW2 3110   0.159   3.242   4.307
 1029SOL     OW 3111   0.240   2.953   4.610
 1029SOL    HW1 3112   0.254   2.869   4.662
 1029SOL    HW2 3113   0.185   3.017   4.665
 1030SOL     OW 3114   0.620   3.648   5.163
 1030SOL    HW1 3115   0.528   3.631   5.198
 1030SOL    HW2 3116   0.648   3.740   5.189
 1031SOL     OW 3117   0.606   2.826   3.847
 1031SOL    HW1 3118   0.613   2.910   3.793
 1031SOL    HW2 3119   0.652   2.839   3.935
 1032SOL     OW 3120   0.122   2.505   4.287
 1032SOL    HW1 3121   0.077   2.417   4.304
 1032SOL    HW2 3122   0.121   2.559   4.371
 1033SOL     OW 3123   1.842   3.629   4.083
 1033SOL    HW1 3124   1.896   3.600   4.163
 1033SOL    HW2 3125   1.872   3.719   4.054
 1034SOL     OW 3126   0.027   3.458   3.841
 1034SOL    HW1 3127   0.008   3.362   3.862
 1034SOL    HW2 3128  -0.006   3.516   3.916
 1035SOL     OW 3129   1.689   2.784   4.336
 1035SOL    HW1 3130   1.784   2.755   4.344
 1035SOL    HW2 3131   1.681   2.849   4.261
 1036SOL     OW 3132   1.641   2.970   4.156
 1036SOL    HW1 3133   1.727   2.972   4.104
 1036SOL    HW2 3134   1.655   3.017   4.244
 1037SOL     OW 3135   0.613   3.227   4.450
 1037SOL    HW1 3136   0.564   3.140   4.459
 1037SOL    HW2 3137   0.590   3.270   4.363
 1038SOL     OW 3138   0.809   1.866   4.226
 1038SOL    HW1 3139   0.849   1.957   4.217
 1038SOL    HW2 3140   0.709   1.874   4.232
 1039SOL     OW 3141   0.197   2.838   4.988
 1039SOL    HW1 3142   0.286   2.793   4.974
 1039SOL    HW2 3143   0.124   2.773   4.969
 1040SOL     OW 3144   1.525   2.861   3.914
 1040SOL    HW1 3145   1.462   2.785   3.927
 1040SOL    HW2 3146   1.573   2.879   4.000
 1041SOL     OW 3147   1.466   3.279   4.677
 1041SOL    HW1 3148   1.407   3.285   4.757
 1041SOL    HW2 3149   1.451   3.191   4.631
 1042SOL     OW 3150   1.667   3.576   4.296
 1042SOL    HW1 3151   1.626   3.553   4.208
 1042SOL    HW2 3152   1.649   3.502   4.361
 1043SOL     OW 3153   0.598   2.591   3.994
 1043SOL    HW1 3154   0.622   2.660   3.926
 1043SOL    HW2 3155   0.520   2.624   4.048
 1044SOL     OW 3156   1.281   2.207   4.668
 1044SOL    HW1 3157   1.195   2.157   4.655
 1044SOL    HW2 3158   1.343   2.153   4.724
 1045SOL     OW 3159   1.576   3.524   4.031
 1045SOL    HW1 3160   1.665   3.570   4.034
 1045SOL    HW2 3161   1.555   3.500   3.936
 1046SOL     OW 3162   0.807   2.467   5.189
 1046SOL    HW1 3163   0.760   2.464   5.278
 1046SOL    HW2 3164   0.756   2.412   5.123
 1047SOL     OW 3165   0.991   2.272   4.966
 1047SOL    HW1 3166   0.914   2.306   5.020
 1047SOL    HW2 3167   0.957   2.221   4.887
 1048SOL     OW 3168   1.041   2.563   4.153
 1048SOL    HW1 3169   1.067   2.559   4.249
 1048SOL    HW2 3170   0.956   2.512   4.139
 1049SOL     OW 3171   0.076   2.673   4.513
 1049SOL    HW1 3172   0.175   2.661   4.522
 1049SOL    HW2 3173   0.052   2.768   4.534
 1050SOL     OW 3174   0.130   3.683   5.295
 1050SOL    HW1 3175   0.120   3.668   5.394
 1050SOL    HW2 3176   0.044   3.719   5.259
 1051SOL     OW 3177   0.865   2.210   3.919
 1051SOL    HW1 3178   0.924   2.273   3.870
 1051SOL    HW2 3179   0.884   2.116   3.890
 1052SOL     OW 3180   1.362   3.006   4.269
 1052SOL    HW1 3181   1.445   2.977   4.221
 1052SOL    HW2 3182   1.313   3.073   4.213
 1053SOL     OW 3183   0.550   2.058   4.609
 1053SOL    HW1 3184   0.545   2.053   4.709
 1053SOL    HW2 3185   0.552   2.154   4.580
 1054SOL     OW 3186   1.008   3.318   4.201
 1054SOL    HW1 3187   0.962   3.390   4.149
 1054SOL    HW2 3188   1.004   3.338   4.299
 1055SOL     OW 3189   0.351   3.663   4.577
 1055SOL    HW1 3190   0.401   3.577   4.583
 1055SOL    HW2 3191   0.416   3.740   4.574
 1056SOL     OW 3192   1.795   2.928   4.597
 1056SOL    HW1 3193   1.733   2.913   4.521
 1056SOL    HW2 3194   1.743   2.939   4.682
 1057SOL     OW 3195   0.321   2.805   3.966
 1057SOL    HW1 3196   0.403   2.844   3.924
 1057SOL    HW2 3197   0.294   2.723   3.917
 1058SOL     OW 3198   1.458   2.597   4.452
 1058SOL    HW1 3199   1.453   2.532   4.527
 1058SOL    HW2 3200   1.538   2.656   4.465
 1059SOL     OW 3201   1.111   3.638   3.961
 1059SOL    HW1 3202   1.051   3.576   4.011
 1059SOL    HW2 3203   1.142   3.594   3.876
 1060SOL     OW 3204   1.632   3.239   3.805
 1060SOL    HW1 3205   1.600   3.333   3.795
 1060SOL    HW2 3206   1.556   3.176   3.793
 1061SOL     OW 3207   0.464   3.605   4.047
 1061SOL    HW1 3208   0.497   3.644   4.133
 1061SOL    HW2 3209   0.540   3.598   3.982
 1062SOL     OW 3210   1.400   1.969   4.150
 1062SOL    HW1 3211   1.376   1.932   4.060
 1062SOL    HW2 3212   1.499   1.985   4.154
 1063SOL     OW 3213   0.249   3.647   4.965
 1063SOL    HW1 3214   0.306   3.582   5.015
 1063SOL    HW2 3215   0.233   3.614   4.872
 1064SOL     OW 3216   0.940   3.560   4.628
 1064SOL    HW1 3217   1.020   3.503   4.649
 1064SOL    HW2 3218   0.891   3.520   4.551
 1065SOL     OW 3219   0.382   2.562   4.204
 1065SOL    HW1 3220   0.427   2.472   4.201
 1065SOL    HW2 3221   0.288   2.551   4.237
 1066SOL     OW 3222   0.614   1.984   3.841
 1066SOL    HW1 3223   0.712   1.962   3.848
 1066SOL    HW2 3224   0.583   1.967   3.748
 1067SOL     OW 3225   0.888   3.376   4.919
 1067SOL    HW1 3226   0.865   3.351   4.825
 1067SOL    HW2 3227   0.949   3.307   4.958
 1068SOL     OW 3228   0.803   3.264   4.648
 1068SOL    HW1 3229   0.893   3.278   4.606
 1068SOL    HW2 3230   0.732   3.266   4.577
 1069SOL     OW 3231   0.922   2.365   4.623
 1069SOL    HW1 3232   0.897   2.356   4.527
 1069SOL    HW2 3233   0.970   2.283   4.654
 1070SOL     OW 3234   0.539   1.926   4.236
 1070SOL    HW1 3235   0.458   1.927   4.294
 1070SOL    HW2 3236   0.542   2.009   4.181
 1071SOL     OW 3237   1.434   3.050   3.765
 1071SOL    HW1 3238   1.466   2.974   3.822
 1071SOL    HW2 3239   1.342   3.077   3.795
 1072SOL     OW 3240   0.297   1.897   3.895
 1072SOL    HW1 3241   0.346   1.981   3.874
 1072SOL    HW2 3242   0.359   1.832   3.940
 1073SOL     OW 3243   0.935   2.098   4.204
 1073SOL    HW1 3244   0.887   2.139   4.126
 1073SOL    HW2 3245   1.034   2.096   4.185
 1074SOL     OW 3246   1.227   3.432   4.517
 1074SOL    HW1 3247   1.248   3.506   4.452
 1074SOL    HW2 3248   1.295   3.432   4.590
 1075SOL     OW 3249   0.459   3.014   4.465
 1075SOL    HW1 3250   0.388   2.987   4.530
 1075SOL    HW2 3251   0.433   2.986   4.372
 1076SOL     OW 3252   1.271   3.659   4.315
 1076SOL    HW1 3253   1.315   3.723   4.251
 1076SOL    HW2 3254   1.221   3.711   4.385
 1077SOL     OW 3255   1.032   2.411   3.740
 1077SOL    HW1 3256   0.991   2.493   3.701
 1077SOL    HW2 3257   1.096   2.437   3.813
 1078SOL     OW 3258   0.561   2.084   4.871
 1078SOL    HW1 3259   0.599   2.000   4.908
 1078SOL    HW2 3260   0.473   2.103   4.915
 1079SOL     OW 3261   0.866   2.316   4.366
 1079SOL    HW1 3262   0.834   2.388   4.304
 1079SOL    HW2 3263   0.890   2.235   4.313
 1080SOL     OW 3264   1.017   1.901   4.477
 1080SOL    HW1 3265   0.945   1.906   4.408
 1080SOL    HW2 3266   0.993   1.832   4.546
 1081SOL     OW 3267   1.429   3.035   4.591
 1081SOL    HW1 3268   1.374   2.951   4.584
 1081SOL    HW2 3269   1.455   3.064   4.499
 1082SOL     OW 3270   1.466   2.452   4.716
 1082SOL    HW1 3271   1.436   2.357   4.723
 1082SOL    HW2 3272   1.539   2.468   4.782
 1083SOL     OW 3273   1.857   2.695   4.101
 1083SOL    HW1 3274   1.899   2.631   4.165
 1083SOL    HW2 3275   1.819   2.644   4.023
 1084SOL     OW 3276   0.488   3.247   3.898
 1084SOL    HW1 3277   0.401   3.232   3.945
 1084SOL    HW2 3278   0.471   3.273   3.803
 1085SOL     OW 3279   1.664   3.142   4.381
 1085SOL    HW1 3280   1.763   3.150   4.395
 1085SOL    HW2 3281   1.619   3.226   4.412
 1086SOL     OW 3282   1.390   2.437   3.802
 1086SOL    HW1 3283   1.336   2.416   3.883
 1086SOL    HW2 3284   1.481   2.396   3.811
 1087SOL     OW 3285   0.527   2.118   4.052
 1087SOL    HW1 3286   0.554   2.059   3.977
 1087SOL    HW2 3287   0.527   2.213   4.021
 1088SOL     OW 3288   1.754   3.085   5.312
 1088SOL    HW1 3289   1.845   3.046   5.299
 1088SOL    HW2 3290   1.762   3.181   5.336
 1089SOL     OW 3291   1.064   3.209   5.064
 1089SOL    HW1 3292   0.984   3.186   5.119
 1089SOL    HW2 3293   1.147   3.183   5.113
 1090SOL     OW 3294   1.111   3.057   4.824
 1090SOL    HW1 3295   1.071   3.101   4.905
 1090SOL    HW2 3296   1.070   3.094   4.741
 1091SOL     OW 3297   1.638   2.961   4.803
 1091SOL    HW1 3298   1.643   3.042   4.862
 1091SOL    HW2 3299   1.552   2.963   4.752
 1092SOL     OW 3300   0.705   2.912   4.092
 1092SOL    HW1 3301   0.691   2.919   4.191
 1092SOL    HW2 3302   0.789   2.861   4.074
 1093SOL     OW 3303   0.410   2.675   4.975
 1093SOL    HW1 3304   0.496   2.687   5.025
 1093SOL    HW2 3305   0.368   2.588   5.002
 1094SOL     OW 3306   1.274   2.248   4.986
 1094SOL    HW1 3307   1.295   2.322   5.050
 1094SOL    HW2 3308   1.185   2.265   4.943
 1095SOL     OW 3309   0.064   3.426   5.055
 1095SOL    HW1 3310   0.018   3.508   5.021
 1095SOL    HW2 3311   0.162   3.445   5.064
 1096SOL     OW 3312   0.367   2.962   4.225
 1096SOL    HW1 3313   0.360   3.045   4.169
 1096SOL    HW2 3314   0.371   2.882   4.165
 1097SOL     OW 3315   0.566   2.399   4.589
 1097SOL    HW1 3316   0.578   2.465   4.515
 1097SOL    HW2 3317   0.612   2.433   4.672
 1098SOL     OW 3318   1.252   3.210   4.112
 1098SOL    HW1 3319   1.302   3.287   4.152
 1098SOL    HW2 3320   1.157   3.212   4.144
 1099SOL     OW 3321   1.272   3.307   4.866
 1099SOL    HW1 3322   1.319   3.320   4.953
 1099SOL    HW2 3323   1.206   3.233   4.875
 1100SOL     OW 3324   1.582   2.501   4.196
 1100SOL    HW1 3325   1.551   2.562   4.269
 1100SOL    HW2 3326   1.632   2.553   4.127
 1101SOL     OW 3327   0.354   3.372   5.053
 1101SOL    HW1 3328   0.333   3.328   4.966
 1101SOL    HW2 3329   0.451   3.398   5.056
 1102SOL     OW 3330   0.504   1.912   5.464
 1102SOL    HW1 3331   0.462   1.855   5.394
 1102SOL    HW2 3332   0.438   1.981   5.496
 1103SOL     OW 3333   0.573   2.732   4.753
 1103SOL    HW1 3334   0.617   2.821   4.744
 1103SOL    HW2 3335   0.510   2.732   4.830
 1104SOL     OW 3336   1.360   2.724   4.769
 1104SOL    HW1 3337   1.285   2.724   4.703
 1104SOL    HW2 3338   1.397   2.632   4.778
 1105SOL     OW 3339   1.209   2.387   3.999
 1105SOL    HW1 3340   1.222   2.303   4.053
 1105SOL    HW2 3341   1.180   2.461   4.059
 1106SOL     OW 3342   0.307   2.075   4.955
 1106SOL    HW1 3343   0.284   2.112   5.045
 1106SOL    HW2 3344   0.277   1.980   4.949
 1107SOL     OW 3345   0.037   3.172   5.006
 1107SOL    HW1 3346   0.090   3.123   5.074
 1107SOL    HW2 3347   0.059   3.270   5.011
 1108SOL     OW 3348   0.732   2.496   4.788
 1108SOL    HW1 3349   0.791   2.470   4.712
 1108SOL    HW2 3350   0.704   2.592   4.777
 1109SOL     OW 3351   0.307   1.925   4.342
 1109SOL    HW1 3352   0.296   2.019   4.375
 1109SOL    HW2 3353   0.302   1.862   4.419
 1110SOL     OW 3354   1.622   2.229   4.098
 1110SOL    HW1 3355   1.624   2.153   4.162
 1110SOL    HW2 3356   1.574   2.306   4.138
 1111SOL     OW 3357   1.023   2.628   4.690
 1111SOL    HW1 3358   1.038   2.649   4.786
 1111SOL    HW2 3359   0.993   2.533   4.681
 1112SOL     OW 3360   1.540   2.136   3.849
 1112SOL    HW1 3361   1.479   2.061   3.872
 1112SOL    HW2 3362   1.562   2.188   3.932
 1113SOL     OW 3363   1.303   2.700   3.766
 1113SOL    HW1 3364   1.337   2.607   3.781
 1113SOL    HW2 3365   1.321   2.727   3.671
 1114SOL     OW 3366   1.068   3.195   4.573
 1114SOL    HW1 3367   1.075   3.111   4.518
 1114SOL    HW2 3368   1.130   3.264   4.537
 1115SOL     OW 3369   0.319   2.672   4.673
 1115SOL    HW1 3370   0.412   2.708   4.678
 1115SOL    HW2 3371   0.313   2.587   4.725
 1116SOL     OW 3372   0.339   2.371   4.730
 1116SOL    HW1 3373   0.287   2.288   4.713
 1116SOL    HW2 3374   0.416   2.376   4.666
 1117SOL     OW 3375   1.160   2.069   5.201
 1117SOL    HW1 3376   1.160   2.133   5.278
 1117SOL    HW2 3377   1.188   2.117   5.118
 1118SOL     OW 3378   0.008   3.188   3.924
 1118SOL    HW1 3379  -0.085   3.209   3.893
 1118SOL    HW2 3380   0.018   3.089   3.937
 1119SOL     OW 3381   0.088   3.663   4.651
 1119SOL    HW1 3382   0.046   3.577   4.624
 1119SOL    HW2 3383   0.182   3.666   4.617
 1120SOL     OW 3384   0.504   3.430   4.634
 1120SOL    HW1 3385   0.570   3.504   4.643
 1120SOL    HW2 3386   0.548   3.351   4.592
 1121SOL     OW 3387   1.002   2.658   4.962
 1121SOL    HW1 3388   1.043   2.626   5.048
 1121SOL    HW2 3389   0.906   2.631   4.959
 1122SOL     OW 3390   0.040   2.406   4.838
 1122SOL    HW1 3391   0.125   2.373   4.797
 1122SOL    HW2 3392   0.053   2.421   4.936
 1123SOL     OW 3393   0.815   2.434   4.049
 1123SOL    HW1 3394   0.822   2.345   4.003
 1123SOL    HW2 3395   0.721   2.468   4.041
 1124SOL     OW 3396   1.657   2.466   4.930
 1124SOL    HW1 3397   1.619   2.397   4.992
 1124SOL    HW2 3398   1.739   2.430   4.886
 1125SOL     OW 3399   0.671   2.326   4.993
 1125SOL    HW1 3400   0.637   2.237   4.963
 1125SOL    HW2 3401   0.697   2.380   4.913
 1126SOL     OW 3402   0.930   3.540   5.189
 1126SOL    HW1 3403   0.906   3.522   5.094
 1126SOL    HW2 3404   0.960   3.634   5.199
 1127SOL     OW 3405   0.473   2.362   3.915
 1127SOL    HW1 3406   0.534   2.442   3.919
 1127SOL    HW2 3407   0.378   2.393   3.922
 1128SOL     OW 3408   0.159   2.999   5.190
 1128SOL    HW1 3409   0.181   2.938   5.266
 1128SOL    HW2 3410   0.169   2.950   5.104
 1129SOL     OW 3411   1.347   2.921   4.958
 1129SOL    HW1 3412   1.371   2.858   4.884
 1129SOL    HW2 3413   1.257   2.961   4.940
 1130SOL     OW 3414   1.302   2.717   4.033
 1130SOL    HW1 3415   1.216   2.686   4.075
 1130SOL    HW2 3416   1.298   2.703   3.934
 1131SOL     OW 3417   1.759   3.609   4.878
 1131SOL    HW1 3418   1.820   3.639   4.805
 1131SOL    HW2 3419   1.721   3.520   4.856
 1132SOL     OW 3420   1.252   3.593   4.852
 1132SOL    HW1 3421   1.336   3.598   4.798
 1132SOL    HW2 3422   1.229   3.497   4.870
 1133SOL     OW 3423   0.083   3.120   4.746
 1133SOL    HW1 3424   0.078   3.119   4.846
 1133SOL    HW2 3425   0.000   3.079   4.708
 1134SOL     OW 3426   1.726   1.997   4.247
 1134SOL    HW1 3427   1.799   1.980   4.180
 1134SOL    HW2 3428   1.695   1.910   4.285
 1135SOL     OW 3429   1.388   3.435   4.201
 1135SOL    HW1 3430   1.455   3.447   4.127
 1135SOL    HW2 3431   1.348   3.524   4.224
 1136SOL     OW 3432   1.280   2.789   4.396
 1136SOL    HW1 3433   1.340   2.708   4.398
 1136SOL    HW2 3434   1.320   2.858   4.336
 1137SOL     OW 3435   0.672   3.478   3.878
 1137SOL    HW1 3436   0.681   3.488   3.779
 1137SOL    HW2 3437   0.632   3.389   3.899
 1138SOL     OW 3438   1.841   2.037   4.687
 1138SOL    HW1 3439   1.880   1.952   4.651
 1138SOL    HW2 3440   1.743   2.039   4.668
 1139SOL     OW 3441   0.263   2.188   4.444
 1139SOL    HW1 3442   0.184   2.239   4.410
 1139SOL    HW2 3443   0.254   2.173   4.542
 1140SOL     OW 3444   1.194   3.474   3.755
 1140SOL    HW1 3445   1.200   3.381   3.792
 1140SOL    HW2 3446   1.135   3.474   3.675
 1141SOL     OW 3447   0.822   2.864   5.096
 1141SOL    HW1 3448   0.862   2.863   5.004
 1141SOL    HW2 3449   0.832   2.956   5.136
 1142SOL     OW 3450   0.916   2.772   4.015
 1142SOL    HW1 3451   0.979   2.810   3.947
 1142SOL    HW2 3452   0.956   2.689   4.054
 1143SOL     OW 3453   1.504   3.469   3.768
 1143SOL    HW1 3454   1.412   3.506   3.775
 1143SOL    HW2 3455   1.542   3.489   3.678
 1144SOL     OW 3456   0.372   3.150   5.214
 1144SOL    HW1 3457   0.359   3.243   5.180
 1144SOL    HW2 3458   0.288   3.098   5.201
 1145SOL     OW 3459   1.614   3.154   5.013
 1145SOL    HW1 3460   1.674   3.157   5.093
 1145SOL    HW2 3461   1.539   3.218   5.026
 1146SOL     OW 3462   1.039   2.960   4.420
 1146SOL    HW1 3463   0.969   2.913   4.474
 1146SOL    HW2 3464   1.098   2.892   4.377
 1147SOL     OW 3465   1.014   2.098   4.695
 1147SOL    HW1 3466   1.006   2.062   4.602
 1147SOL    HW2 3467   1.012   2.022   4.760
 1148SOL     OW 3468   0.590   3.349   4.215
 1148SOL    HW1 3469   0.632   3.291   4.145
 1148SOL    HW2 3470   0.546   3.428   4.171
 1149SOL     OW 3471   1.709   2.247   5.105
 1149SOL    HW1 3472   1.782   2.316   5.109
 1149SOL    HW2 3473   1.737   2.172   5.046
 1150SOL     OW 3474   0.255   3.210   4.014
 1150SOL    HW1 3475   0.159   3.211   3.987
 1150SOL    HW2 3476   0.267   3.263   4.098
 1151SOL     OW 3477   0.672   2.065   5.213
 1151SOL    HW1 3478   0.762   2.049   5.173
 1151SOL    HW2 3479   0.680   2.070   5.312
 1152SOL     OW 3480   0.075   2.207   3.757
 1152SOL    HW1 3481  -0.017   2.179   3.728
 1152SOL    HW2 3482   0.106   2.284   3.701
 1153SOL     OW 3483   0.072   2.028   4.042
 1153SOL    HW1 3484   0.055   2.111   3.988
 1153SOL    HW2 3485   0.162   1.991   4.020
 1154SOL     OW 3486   1.183   3.197   3.843
 1154SOL    HW1 3487   1.084   3.186   3.845
 1154SOL    HW2 3488   1.217   3.212   3.936
 1155SOL     OW 3489   0.613   2.704   5.155
 1155SOL    HW1 3490   0.669   2.785   5.138
 1155SOL    HW2 3491   0.672   2.624   5.158
 1156SOL     OW 3492   1.493   3.629   4.683
 1156SOL    HW1 3493   1.526   3.693   4.614
 1156SOL    HW2 3494   1.559   3.623   4.758
 1157SOL     OW 3495   0.390   3.603   5.284
 1157SOL    HW1 3496   0.299   3.644   5.282
 1157SOL    HW2 3497   0.383   3.509   5.316
 1158SOL     OW 3498   1.674   2.745   4.978
 1158SOL    HW1 3499   1.647   2.656   4.941
 1158SOL    HW2 3500   1.675   2.813   4.905
 1159SOL     OW 3501   1.225   2.187   4.173
 1159SOL    HW1 3502   1.290   2.113   4.162
 1159SOL    HW2 3503   1.245   2.237   4.257
 1160SOL     OW 3504   0.594   2.607   4.376
 1160SOL    HW1 3505   0.644   2.692   4.357
 1160SOL    HW2 3506   0.506   2.609   4.328
 1161SOL     OW 3507   1.730   2.796   5.241
 1161SOL    HW1 3508   1.768   2.887   5.256
 1161SOL    HW2 3509   1.722   2.779   5.142
 1162SOL     OW 3510   0.859   3.236   3.740
 1162SOL    HW1 3511   0.813   3.251   3.828
 1162SOL    HW2 3512   0.903   3.321   3.710
 1163SOL     OW 3513   0.661   3.652   4.677
 1163SOL    HW1 3514   0.615   3.740   4.664
 1163SOL    HW2 3515   0.760   3.664   4.670
 1164SOL     OW 3516   0.859   2.818   4.585
 1164SOL    HW1 3517   0.913   2.749   4.633
 1164SOL    HW2 3518   0.827   2.887   4.651
 1165SOL     OW 3519   1.083   2.846   3.811
 1165SOL    HW1 3520   1.060   2.899   3.729
 1165SOL    HW2 3521   1.164   2.790   3.792
 1166SOL     OW 3522   1.861   3.431   4.575
 1166SOL    HW1 3523   1.790   3.419   4.505
 1166SOL    HW2 3524   1.862   3.352   4.635
 1167SOL     OW 3525   0.079   3.102   4.377
 1167SOL    HW1 3526   0.078   3.055   4.465
 1167SOL    HW2 3527   0.161   3.074   4.326
 1168SOL     OW 3528   1.824   2.054   4.951
 1168SOL    HW1 3529   1.820   1.964   4.995
 1168SOL    HW2 3530   1.827   2.043   4.852
 1169SOL     OW 3531   0.428   2.286   4.244
 1169SOL    HW1 3532   0.458   2.214   4.182
 1169SOL    HW2 3533   0.389   2.246   4.327
 1170SOL     OW 3534   1.705   3.349   4.828
 1170SOL    HW1 3535   1.612   3.324   4.801
 1170SOL    HW2 3536   1.731   3.299   4.910
 1171SOL     OW 3537   0.317   2.409   5.004
 1171SOL    HW1 3538   0.355   2.350   5.076
 1171SOL    HW2 3539   0.357   2.383   4.916
 1172SOL     OW 3540   0.812   3.448   4.411
 1172SOL    HW1 3541   0.844   3.458   4.317
 1172SOL    HW2 3542   0.733   3.386   4.413
 1173SOL     OW 3543   1.424   2.076   4.836
 1173SOL    HW1 3544   1.476   2.011   4.891
 1173SOL    HW2 3545   1.375   2.139   4.897
 1174SOL     OW 3546   1.001   1.896   4.878
 1174SOL    HW1 3547   0.938   1.824   4.847
 1174SOL    HW2 3548   1.094   1.860   4.878
 1175SOL     OW 3549   0.770   3.192   4.025
 1175SOL    HW1 3550   0.724   3.105   4.042
 1175SOL    HW2 3551   0.861   3.189   4.066
 1176SOL     OW 3552   0.618   3.429   5.008
 1176SOL    HW1 3553   0.613   3.511   5.065
 1176SOL    HW2 3554   0.707   3.426   4.963
 1177SOL     OW 3555   1.352   1.914   3.892
 1177SOL    HW1 3556   1.387   1.873   3.808
 1177SOL    HW2 3557   1.262   1.876   3.912
 1178SOL     OW 3558   1.300   2.315   4.415
 1178SOL    HW1 3559   1.241   2.395   4.419
 1178SOL    HW2 3560   1.315   2.280   4.508
 1179SOL     OW 3561   1.593   2.083   4.606
 1179SOL    HW1 3562   1.509   2.082   4.660
 1179SOL    HW2 3563   1.595   2.166   4.550
 1180SOL     OW 3564   0.039   2.939   4.024
 1180SOL    HW1 3565   0.138   2.928   4.015
 1180SOL    HW2 3566  -0.001   2.853   4.056
 1181SOL     OW 3567   0.875   3.508   4.061
 1181SOL    HW1 3568   0.798   3.473   4.007
 1181SOL    HW2 3569   0.843   3.579   4.123
 1182SOL     OW 3570   0.230   4.352   0.113
 1182SOL    HW1 3571   0.137   4.350   0.150
 1182SOL    HW2 3572   0.231   4.313   0.021
 1183SOL     OW 3573   0.225   3.999   0.996
 1183SOL    HW1 3574   0.260   3.982   1.088
 1183SOL    HW2 3575   0.137   3.954   0.984
 1184SOL     OW 3576   0.019   4.092   0.647
 1184SOL    HW1 3577  -0.063   4.135   0.686
 1184SOL    HW2 3578  -0.009   4.019   0.584
 1185SOL     OW 3579   0.569   4.999   1.165
 1185SOL    HW1 3580   0.476   4.992   1.128
 1185SOL    HW2 3581   0.580   5.088   1.209
 1186SOL     OW 3582   1.555   5.235   0.703
 1186SOL    HW1 3583   1.498   5.219   0.784
 1186SOL    HW2 3584   1.496   5.245   0.623
 1187SOL     OW 3585   1.135   4.427   0.717
 1187SOL    HW1 3586   1.192   4.505   0.692
 1187SOL    HW2 3587   1.075   4.453   0.793
 1188SOL     OW 3588   1.755   4.331   0.231
 1188SOL    HW1 3589   1.743   4.318   0.132
 1188SOL    HW2 3590   1.725   4.250   0.280
 1189SOL     OW 3591   0.768   4.868   1.023
 1189SOL    HW1 3592   0.690   4.885   1.083
 1189SOL    HW2 3593   0.802   4.955   0.987
 1190SOL     OW 3594   0.850   4.522   1.823
 1190SOL    HW1 3595   0.846   4.598   1.888
 1190SOL    HW2 3596   0.872   4.558   1.732
 1191SOL     OW 3597   0.685   4.736   0.665
 1191SOL    HW1 3598   0.754   4.720   0.735
 1191SOL    HW2 3599   0.612   4.793   0.703
 1192SOL     OW 3600   0.686   4.885   1.803
 1192SOL    HW1 3601   0.746   4.964   1.817
 1192SOL    HW2 3602   0.600   4.916   1.762
 1193SOL     OW 3603   0.335   5.159   1.061
 1193SOL    HW1 3604   0.257   5.128   1.008
 1193SOL    HW2 3605   0.393   5.217   1.004
 1194SOL     OW 3606   0.438   4.116   1.499
 1194SOL    HW1 3607   0.520   4.060   1.508
 1194SOL    HW2 3608   0.357   4.058   1.503
 1195SOL     OW 3609   1.603   4.171   0.737
 1195SOL    HW1 3610   1.529   4.217   0.687
 1195SOL    HW2 3611   1.654   4.239   0.790
 1196SOL     OW 3612   0.231   5.437   0.483
 1196SOL    HW1 3613   0.265   5.514   0.537
 1196SOL    HW2 3614   0.275   5.437   0.393
 1197SOL     OW 3615   1.127   5.065   1.690
 1197SOL    HW1 3616   1.174   5.065   1.778
 1197SOL    HW2 3617   1.079   4.978   1.679
 1198SOL     OW 3618   0.240   4.815   0.886
 1198SOL    HW1 3619   0.254   4.731   0.938
 1198SOL    HW2 3620   0.185   4.879   0.941
 1199SOL     OW 3621   0.606   4.688   0.123
 1199SOL    HW1 3622   0.613   4.772   0.069
 1199SOL    HW2 3623   0.652   4.701   0.211
 1200SOL     OW 3624   1.594   3.838   1.480
 1200SOL    HW1 3625   1.576   3.905   1.408
 1200SOL    HW2 3626   1.591   3.884   1.569
 1201SOL     OW 3627   0.122   4.367   0.563
 1201SOL    HW1 3628   0.077   4.279   0.580
 1201SOL    HW2 3629   0.121   4.421   0.647
 1202SOL     OW 3630   1.689   4.646   0.612
 1202SOL    HW1 3631   1.784   4.617   0.620
 1202SOL    HW2 3632   1.681   4.711   0.537
 1203SOL     OW 3633   1.641   4.832   0.432
 1203SOL    HW1 3634   1.727   4.834   0.380
 1203SOL    HW2 3635   1.655   4.879   0.520
 1204SOL     OW 3636   0.113   4.461   1.597
 1204SOL    HW1 3637   0.201   4.448   1.642
 1204SOL    HW2 3638   0.100   4.558   1.575
 1205SOL     OW 3639   0.613   5.089   0.726
 1205SOL    HW1 3640   0.564   5.002   0.735
 1205SOL    HW2 3641   0.590   5.132   0.639
 1206SOL     OW 3642   1.293   4.952   1.423
 1206SOL    HW1 3643   1.330   4.879   1.365
 1206SOL    HW2 3644   1.345   4.957   1.508
 1207SOL     OW 3645   0.809   3.728   0.502
 1207SOL    HW1 3646   0.849   3.819   0.493
 1207SOL    HW2 3647   0.709   3.736   0.508
 1208SOL     OW 3648   0.197   4.700   1.264
 1208SOL    HW1 3649   0.286   4.655   1.250
 1208SOL    HW2 3650   0.124   4.635   1.245
 1209SOL     OW 3651   1.525   4.723   0.190
 1209SOL    HW1 3652   1.462   4.647   0.203
 1209SOL    HW2 3653   1.573   4.741   0.276
 1210SOL     OW 3654   0.317   3.975   1.801
 1210SOL    HW1 3655   0.388   4.046   1.807
 1210SOL    HW2 3656   0.229   4.014   1.829
 1211SOL     OW 3657   1.466   5.141   0.953
 1211SOL    HW1 3658   1.407   5.147   1.033
 1211SOL    HW2 3659   1.451   5.053   0.907
 1212SOL     OW 3660   0.598   4.453   0.270
 1212SOL    HW1 3661   0.622   4.522   0.202
 1212SOL    HW2 3662   0.520   4.486   0.324
 1213SOL     OW 3663   1.281   4.069   0.944
 1213SOL    HW1 3664   1.195   4.019   0.931
 1213SOL    HW2 3665   1.343   4.015   1.000
 1214SOL     OW 3666   0.807   4.329   1.465
 1214SOL    HW1 3667   0.760   4.326   1.554
 1214SOL    HW2 3668   0.756   4.274   1.399
 1215SOL     OW 3669   1.394   4.193   1.674
 1215SOL    HW1 3670   1.374   4.236   1.762
 1215SOL    HW2 3671   1.472   4.131   1.683
 1216SOL     OW 3672   0.973   4.614   1.572
 1216SOL    HW1 3673   1.019   4.530   1.543
 1216SOL    HW2 3674   0.917   4.648   1.497
 1217SOL     OW 3675   0.991   4.134   1.242
 1217SOL    HW1 3676   0.914   4.168   1.296
 1217SOL    HW2 3677   0.957   4.083   1.163
 1218SOL     OW 3678   1.041   4.425   0.429
 1218SOL    HW1 3679   1.067   4.421   0.525
 1218SOL    HW2 3680   0.956   4.374   0.415
 1219SOL     OW 3681   0.076   4.535   0.789
 1219SOL    HW1 3682   0.175   4.523   0.798
 1219SOL    HW2 3683   0.052   4.630   0.810
 1220SOL     OW 3684   0.865   4.072   0.195
 1220SOL    HW1 3685   0.924   4.135   0.146
 1220SOL    HW2 3686   0.884   3.978   0.166
 1221SOL     OW 3687   1.719   4.309   1.831
 1221SOL    HW1 3688   1.693   4.398   1.795
 1221SOL    HW2 3689   1.717   4.241   1.758
 1222SOL     OW 3690   1.362   4.868   0.545
 1222SOL    HW1 3691   1.445   4.839   0.497
 1222SOL    HW2 3692   1.313   4.935   0.489
 1223SOL     OW 3693   0.550   3.920   0.885
 1223SOL    HW1 3694   0.545   3.915   0.985
 1223SOL    HW2 3695   0.552   4.016   0.856
 1224SOL     OW 3696   1.795   4.790   0.873
 1224SOL    HW1 3697   1.733   4.775   0.797
 1224SOL    HW2 3698   1.743   4.801   0.958
 1225SOL     OW 3699   0.321   4.667   0.242
 1225SOL    HW1 3700   0.403   4.706   0.200
 1225SOL    HW2 3701   0.294   4.585   0.193
 1226SOL     OW 3702   1.458   4.459   0.728
 1226SOL    HW1 3703   1.453   4.394   0.803
 1226SOL    HW2 3704   1.538   4.518   0.741
 1227SOL     OW 3705   0.461   4.990   1.727
 1227SOL    HW1 3706   0.411   4.991   1.641
 1227SOL    HW2 3707   0.398   4.972   1.803
 1228SOL     OW 3708   0.202   4.009   1.498
 1228SOL    HW1 3709   0.122   4.069   1.485
 1228SOL    HW2 3710   0.192   3.960   1.584
 1229SOL     OW 3711   1.632   5.101   0.081
 1229SOL    HW1 3712   1.600   5.195   0.071
 1229SOL    HW2 3713   1.556   5.038   0.069
 1230SOL     OW 3714   1.400   3.831   0.426
 1230SOL    HW1 3715   1.376   3.794   0.336
 1230SOL    HW2 3716   1.499   3.847   0.430
 1231SOL     OW 3717   0.382   4.424   0.480
 1231SOL    HW1 3718   0.427   4.334   0.477
 1231SOL    HW2 3719   0.288   4.413   0.513
 1232SOL     OW 3720   1.547   3.946   1.729
 1232SOL    HW1 3721   1.542   3.983   1.821
 1232SOL    HW2 3722   1.475   3.877   1.717
 1233SOL     OW 3723   0.781   3.988   1.749
 1233SOL    HW1 3724   0.848   3.927   1.792
 1233SOL    HW2 3725   0.708   4.007   1.814
 1234SOL     OW 3726   1.351   4.314   1.433
 1234SOL    HW1 3727   1.379   4.271   1.518
 1234SOL    HW2 3728   1.376   4.410   1.434
 1235SOL     OW 3729   0.922   4.227   0.899
 1235SOL    HW1 3730   0.897   4.218   0.803
 1235SOL    HW2 3731   0.970   4.145   0.930
 1236SOL     OW 3732   0.539   3.788   0.512
 1236SOL    HW1 3733   0.458   3.789   0.570
 1236SOL    HW2 3734   0.542   3.871   0.457
 1237SOL     OW 3735   1.434   4.912   0.041
 1237SOL    HW1 3736   1.466   4.836   0.098
 1237SOL    HW2 3737   1.342   4.939   0.071
 1238SOL     OW 3738   0.935   3.960   0.480
 1238SOL    HW1 3739   0.887   4.001   0.402
 1238SOL    HW2 3740   1.034   3.958   0.461
 1239SOL     OW 3741   1.076   4.407   1.464
 1239SOL    HW1 3742   0.996   4.346   1.467
 1239SOL    HW2 3743   1.157   4.354   1.440
 1240SOL     OW 3744   1.227   5.294   0.793
 1240SOL    HW1 3745   1.248   5.368   0.728
 1240SOL    HW2 3746   1.295   5.294   0.866
 1241SOL     OW 3747   0.459   4.876   0.741
 1241SOL    HW1 3748   0.388   4.849   0.806
 1241SOL    HW2 3749   0.433   4.848   0.648
 1242SOL     OW 3750   1.032   4.273   0.016
 1242SOL    HW1 3751   0.991   4.355  -0.023
 1242SOL    HW2 3752   1.096   4.299   0.089
 1243SOL     OW 3753   0.078   4.280   1.386
 1243SOL    HW1 3754   0.170   4.279   1.345
 1243SOL    HW2 3755   0.072   4.354   1.453
 1244SOL     OW 3756   0.561   3.946   1.147
 1244SOL    HW1 3757   0.599   3.862   1.184
 1244SOL    HW2 3758   0.473   3.965   1.191
 1245SOL     OW 3759   0.866   4.178   0.642
 1245SOL    HW1 3760   0.834   4.250   0.580
 1245SOL    HW2 3761   0.890   4.097   0.589
 1246SOL     OW 3762   1.017   3.763   0.753
 1246SOL    HW1 3763   0.945   3.768   0.684
 1246SOL    HW2 3764   0.993   3.694   0.822
 1247SOL     OW 3765   1.429   4.897   0.867
 1247SOL    HW1 3766   1.374   4.813   0.860
 1247SOL    HW2 3767   1.455   4.926   0.775
 1248SOL     OW 3768   1.466   4.314   0.992
 1248SOL    HW1 3769   1.436   4.219   0.999
 1248SOL    HW2 3770   1.539   4.330   1.058
 1249SOL     OW 3771   1.857   4.557   0.377
 1249SOL    HW1 3772   1.899   4.493   0.441
 1249SOL    HW2 3773   1.819   4.506   0.299
 1250SOL     OW 3774   1.664   5.004   0.657
 1250SOL    HW1 3775   1.763   5.012   0.671
 1250SOL    HW2 3776   1.619   5.088   0.688
 1251SOL     OW 3777   1.390   4.299   0.078
 1251SOL    HW1 3778   1.336   4.278   0.159
 1251SOL    HW2 3779   1.481   4.258   0.087
 1252SOL     OW 3780   0.527   3.980   0.328
 1252SOL    HW1 3781   0.554   3.921   0.253
 1252SOL    HW2 3782   0.527   4.075   0.297
 1253SOL     OW 3783   1.754   4.947   1.588
 1253SOL    HW1 3784   1.845   4.908   1.575
 1253SOL    HW2 3785   1.762   5.043   1.612
 1254SOL     OW 3786   1.064   5.071   1.340
 1254SOL    HW1 3787   0.984   5.048   1.395
 1254SOL    HW2 3788   1.147   5.045   1.389
 1255SOL     OW 3789   1.111   4.919   1.100
 1255SOL    HW1 3790   1.071   4.963   1.181
 1255SOL    HW2 3791   1.070   4.956   1.017
 1256SOL     OW 3792   1.638   4.823   1.079
 1256SOL    HW1 3793   1.643   4.904   1.138
 1256SOL    HW2 3794   1.552   4.825   1.028
 1257SOL     OW 3795   0.915   3.813   1.402
 1257SOL    HW1 3796   0.940   3.793   1.307
 1257SOL    HW2 3797   0.987   3.869   1.444
 1258SOL     OW 3798   0.980   4.840   1.719
 1258SOL    HW1 3799   0.881   4.846   1.729
 1258SOL    HW2 3800   1.003   4.760   1.663
 1259SOL     OW 3801   0.705   4.774   0.368
 1259SOL    HW1 3802   0.691   4.781   0.467
 1259SOL    HW2 3803   0.789   4.723   0.350
 1260SOL     OW 3804   0.410   4.537   1.251
 1260SOL    HW1 3805   0.496   4.549   1.301
 1260SOL    HW2 3806   0.368   4.450   1.278
 1261SOL     OW 3807   1.274   4.110   1.262
 1261SOL    HW1 3808   1.295   4.184   1.326
 1261SOL    HW2 3809   1.185   4.127   1.219
 1262SOL     OW 3810   0.064   5.288   1.331
 1262SOL    HW1 3811   0.018   5.370   1.297
 1262SOL    HW2 3812   0.162   5.307   1.340
 1263SOL     OW 3813   0.367   4.824   0.501
 1263SOL    HW1 3814   0.360   4.907   0.445
 1263SOL    HW2 3815   0.371   4.744   0.441
 1264SOL     OW 3816   0.566   4.261   0.865
 1264SOL    HW1 3817   0.578   4.327   0.791
 1264SOL    HW2 3818   0.612   4.295   0.948
 1265SOL     OW 3819   1.252   5.072   0.388
 1265SOL    HW1 3820   1.302   5.149   0.428
 1265SOL    HW2 3821   1.157   5.074   0.420
 1266SOL     OW 3822   1.272   5.169   1.142
 1266SOL    HW1 3823   1.319   5.182   1.229
 1266SOL    HW2 3824   1.206   5.095   1.151
 1267SOL     OW 3825   1.582   4.363   0.472
 1267SOL    HW1 3826   1.551   4.424   0.545
 1267SOL    HW2 3827   1.632   4.415   0.403
 1268SOL     OW 3828   0.402   4.475   1.598
 1268SOL    HW1 3829   0.470   4.530   1.551
 1268SOL    HW2 3830   0.442   4.387   1.625
 1269SOL     OW 3831   1.587   4.503   1.670
 1269SOL    HW1 3832   1.495   4.541   1.665
 1269SOL    HW2 3833   1.647   4.550   1.605
 1270SOL     OW 3834   1.013   3.829   1.770
 1270SOL    HW1 3835   1.019   3.914   1.718
 1270SOL    HW2 3836   1.045   3.753   1.713
 1271SOL     OW 3837   0.504   3.774   1.740
 1271SOL    HW1 3838   0.462   3.717   1.670
 1271SOL    HW2 3839   0.438   3.843   1.772
 1272SOL     OW 3840   0.573   4.594   1.029
 1272SOL    HW1 3841   0.617   4.683   1.020
 1272SOL    HW2 3842   0.510   4.594   1.106
 1273SOL     OW 3843   1.360   4.586   1.045
 1273SOL    HW1 3844   1.285   4.586   0.979
 1273SOL    HW2 3845   1.397   4.494   1.054
 1274SOL     OW 3846   1.209   4.249   0.275
 1274SOL    HW1 3847   1.222   4.165   0.329
 1274SOL    HW2 3848   1.180   4.323   0.335
 1275SOL     OW 3849   0.307   3.937   1.231
 1275SOL    HW1 3850   0.284   3.974   1.321
 1275SOL    HW2 3851   0.277   3.842   1.225
 1276SOL     OW 3852   0.037   5.034   1.282
 1276SOL    HW1 3853   0.090   4.985   1.350
 1276SOL    HW2 3854   0.059   5.132   1.287
 1277SOL     OW 3855   0.732   4.358   1.064
 1277SOL    HW1 3856   0.791   4.332   0.988
 1277SOL    HW2 3857   0.704   4.454   1.053
 1278SOL     OW 3858   1.728   4.659   1.854
 1278SOL    HW1 3859   1.682   4.652   1.765
 1278SOL    HW2 3860   1.666   4.703   1.920
 1279SOL     OW 3861   0.307   3.787   0.618
 1279SOL    HW1 3862   0.296   3.881   0.651
 1279SOL    HW2 3863   0.302   3.724   0.695
 1280SOL     OW 3864   1.622   4.091   0.374
 1280SOL    HW1 3865   1.624   4.015   0.438
 1280SOL    HW2 3866   1.574   4.168   0.414
 1281SOL     OW 3867   1.023   4.490   0.966
 1281SOL    HW1 3868   1.038   4.511   1.062
 1281SOL    HW2 3869   0.993   4.395   0.957
 1282SOL     OW 3870   1.859   5.242   1.605
 1282SOL    HW1 3871   1.873   5.269   1.510
 1282SOL    HW2 3872   1.942   5.264   1.658
 1283SOL     OW 3873   0.350   4.622   1.804
 1283SOL    HW1 3874   0.426   4.666   1.852
 1283SOL    HW2 3875   0.385   4.575   1.722
 1284SOL     OW 3876   1.540   3.998   0.125
 1284SOL    HW1 3877   1.479   3.923   0.148
 1284SOL    HW2 3878   1.562   4.050   0.208
 1285SOL     OW 3879   1.303   4.562   0.042
 1285SOL    HW1 3880   1.337   4.469   0.057
 1285SOL    HW2 3881   1.321   4.589  -0.053
 1286SOL     OW 3882   0.319   4.534   0.949
 1286SOL    HW1 3883   0.412   4.570   0.954
 1286SOL    HW2 3884   0.313   4.449   1.001
 1287SOL     OW 3885   0.339   4.233   1.006
 1287SOL    HW1 3886   0.287   4.150   0.989
 1287SOL    HW2 3887   0.416   4.238   0.942
 1288SOL     OW 3888   1.138   4.104   1.678
 1288SOL    HW1 3889   1.093   4.167   1.742
 1288SOL    HW2 3890   1.231   4.135   1.661
 1289SOL     OW 3891   1.160   3.931   1.477
 1289SOL    HW1 3892   1.160   3.995   1.554
 1289SOL    HW2 3893   1.188   3.979   1.394
 1290SOL     OW 3894   0.008   5.050   0.200
 1290SOL    HW1 3895  -0.085   5.071   0.169
 1290SOL    HW2 3896   0.018   4.951   0.213
 1291SOL     OW 3897   1.002   4.520   1.238
 1291SOL    HW1 3898   1.043   4.488   1.324
 1291SOL    HW2 3899   0.906   4.493   1.235
 1292SOL     OW 3900   0.040   4.268   1.114
 1292SOL    HW1 3901   0.125   4.235   1.073
 1292SOL    HW2 3902   0.053   4.283   1.212
 1293SOL     OW 3903   0.189   4.244   1.722
 1293SOL    HW1 3904   0.248   4.204   1.652
 1293SOL    HW2 3905   0.131   4.315   1.681
 1294SOL     OW 3906   1.369   4.674   1.660
 1294SOL    HW1 3907   1.408   4.763   1.680
 1294SOL    HW2 3908   1.379   4.654   1.563
 1295SOL     OW 3909   0.815   4.296   0.325
 1295SOL    HW1 3910   0.822   4.207   0.279
 1295SOL    HW2 3911   0.721   4.330   0.317
 1296SOL     OW 3912   1.657   4.328   1.206
 1296SOL    HW1 3913   1.619   4.259   1.268
 1296SOL    HW2 3914   1.739   4.292   1.162
 1297SOL     OW 3915   0.671   4.188   1.269
 1297SOL    HW1 3916   0.637   4.099   1.239
 1297SOL    HW2 3917   0.697   4.242   1.189
 1298SOL     OW 3918   0.473   4.224   0.191
 1298SOL    HW1 3919   0.534   4.304   0.195
 1298SOL    HW2 3920   0.378   4.255   0.198
 1299SOL     OW 3921   0.159   4.861   1.466
 1299SOL    HW1 3922   0.181   4.800   1.542
 1299SOL    HW2 3923   0.169   4.812   1.380
 1300SOL     OW 3924   1.347   4.783   1.234
 1300SOL    HW1 3925   1.371   4.720   1.160
 1300SOL    HW2 3926   1.257   4.823   1.216
 1301SOL     OW 3927   1.302   4.579   0.309
 1301SOL    HW1 3928   1.216   4.548   0.351
 1301SOL    HW2 3929   1.298   4.565   0.210
 1302SOL     OW 3930   0.083   4.982   1.022
 1302SOL    HW1 3931   0.078   4.981   1.122
 1302SOL    HW2 3932   0.000   4.941   0.984
 1303SOL     OW 3933   0.903   3.810   0.133
 1303SOL    HW1 3934   0.954   3.811   0.047
 1303SOL    HW2 3935   0.959   3.768   0.204
 1304SOL     OW 3936   1.726   3.859   0.523
 1304SOL    HW1 3937   1.799   3.842   0.456
 1304SOL    HW2 3938   1.695   3.772   0.561
 1305SOL     OW 3939   1.280   4.651   0.672
 1305SOL    HW1 3940   1.340   4.570   0.674
 1305SOL    HW2 3941   1.320   4.720   0.612
 1306SOL     OW 3942   0.830   4.997   1.422
 1306SOL    HW1 3943   0.825   5.030   1.517
 1306SOL    HW2 3944   0.744   5.016   1.376
 1307SOL     OW 3945   1.841   3.899   0.963
 1307SOL    HW1 3946   1.880   3.814   0.927
 1307SOL    HW2 3947   1.743   3.901   0.944
 1308SOL     OW 3948   0.263   4.050   0.720
 1308SOL    HW1 3949   0.184   4.101   0.686
 1308SOL    HW2 3950   0.254   4.035   0.818
 1309SOL     OW 3951   0.822   4.726   1.372
 1309SOL    HW1 3952   0.862   4.725   1.280
 1309SOL    HW2 3953   0.832   4.818   1.412
 1310SOL     OW 3954   0.916   4.634   0.291
 1310SOL    HW1 3955   0.979   4.672   0.223
 1310SOL    HW2 3956   0.956   4.551   0.330
 1311SOL     OW 3957   0.372   5.012   1.490
 1311SOL    HW1 3958   0.359   5.105   1.456
 1311SOL    HW2 3959   0.288   4.960   1.477
 1312SOL     OW 3960   1.614   5.016   1.289
 1312SOL    HW1 3961   1.674   5.019   1.369
 1312SOL    HW2 3962   1.539   5.080   1.302
 1313SOL     OW 3963   1.039   4.822   0.696
 1313SOL    HW1 3964   0.969   4.775   0.750
 1313SOL    HW2 3965   1.098   4.754   0.653
 1314SOL     OW 3966   1.014   3.960   0.971
 1314SOL    HW1 3967   1.006   3.924   0.878
 1314SOL    HW2 3968   1.012   3.884   1.036
 1315SOL     OW 3969   1.709   4.109   1.381
 1315SOL    HW1 3970   1.782   4.178   1.385
 1315SOL    HW2 3971   1.737   4.034   1.322
 1316SOL     OW 3972   0.105   4.737   1.726
 1316SOL    HW1 3973   0.028   4.704   1.780
 1316SOL    HW2 3974   0.190   4.707   1.768
 1317SOL     OW 3975   0.672   3.927   1.489
 1317SOL    HW1 3976   0.762   3.911   1.449
 1317SOL    HW2 3977   0.680   3.932   1.588
 1318SOL     OW 3978   0.075   4.069   0.033
 1318SOL    HW1 3979  -0.017   4.041   0.004
 1318SOL    HW2 3980   0.106   4.146  -0.023
 1319SOL     OW 3981   1.440   4.580   1.398
 1319SOL    HW1 3982   1.383   4.632   1.335
 1319SOL    HW2 3983   1.536   4.592   1.374
 1320SOL     OW 3984   0.072   3.890   0.318
 1320SOL    HW1 3985   0.055   3.973   0.264
 1320SOL    HW2 3986   0.162   3.853   0.296
 1321SOL     OW 3987   1.183   5.059   0.119
 1321SOL    HW1 3988   1.084   5.048   0.121
 1321SOL    HW2 3989   1.217   5.074   0.212
 1322SOL     OW 3990   0.613   4.566   1.431
 1322SOL    HW1 3991   0.669   4.647   1.414
 1322SOL    HW2 3992   0.672   4.486   1.434
 1323SOL     OW 3993   0.716   4.289   1.708
 1323SOL    HW1 3994   0.735   4.354   1.782
 1323SOL    HW2 3995   0.776   4.209   1.717
 1324SOL     OW 3996   1.450   4.944   1.633
 1324SOL    HW1 3997   1.441   4.934   1.732
 1324SOL    HW2 3998   1.546   4.937   1.607
 1325SOL     OW 3999   1.674   4.607   1.254
 1325SOL    HW1 4000   1.647   4.518   1.217
 1325SOL    HW2 4001   1.675   4.675   1.181
 1326SOL     OW 4002   1.225   4.049   0.449
 1326SOL    HW1 4003   1.290   3.975   0.438
 1326SOL    HW2 4004   1.245   4.099   0.533
 1327SOL     OW 4005   0.594   4.469   0.652
 1327SOL    HW1 4006   0.644   4.554   0.633
 1327SOL    HW2 4007   0.506   4.471   0.604
 1328SOL     OW 4008   1.777   4.066   1.642
 1328SOL    HW1 4009   1.760   4.097   1.548
 1328SOL    HW2 4010   1.693   4.029   1.680
 1329SOL     OW 4011   1.730   4.658   1.517
 1329SOL    HW1 4012   1.768   4.749   1.532
 1329SOL    HW2 4013   1.722   4.641   1.418
 1330SOL     OW 4014   0.859   4.680   0.861
 1330SOL    HW1 4015   0.913   4.611   0.909
 1330SOL    HW2 4016   0.827   4.749   0.927
 1331SOL     OW 4017   1.083   4.708   0.087
 1331SOL    HW1 4018   1.060   4.761   0.005
 1331SOL    HW2 4019   1.164   4.652   0.068
 1332SOL     OW 4020   0.221   5.038   1.844
 1332SOL    HW1 4021   0.156   4.965   1.823
 1332SOL    HW2 4022   0.225   5.052   1.942
 1333SOL     OW 4023   0.079   4.964   0.653
 1333SOL    HW1 4024   0.078   4.917   0.741
 1333SOL    HW2 4025   0.161   4.936   0.602
 1334SOL     OW 4026   0.672   5.115   1.624
 1334SOL    HW1 4027   0.594   5.065   1.662
 1334SOL    HW2 4028   0.669   5.210   1.655
 1335SOL     OW 4029   1.824   3.916   1.227
 1335SOL    HW1 4030   1.820   3.826   1.271
 1335SOL    HW2 4031   1.827   3.905   1.128
 1336SOL     OW 4032   0.428   4.148   0.520
 1336SOL    HW1 4033   0.458   4.076   0.458
 1336SOL    HW2 4034   0.389   4.108   0.603
 1337SOL     OW 4035   1.705   5.211   1.104
 1337SOL    HW1 4036   1.612   5.186   1.077
 1337SOL    HW2 4037   1.731   5.161   1.186
 1338SOL     OW 4038   0.317   4.271   1.280
 1338SOL    HW1 4039   0.355   4.212   1.352
 1338SOL    HW2 4040   0.357   4.245   1.192
 1339SOL     OW 4041   1.424   3.938   1.112
 1339SOL    HW1 4042   1.476   3.873   1.167
 1339SOL    HW2 4043   1.375   4.001   1.173
 1340SOL     OW 4044   1.001   3.758   1.154
 1340SOL    HW1 4045   0.938   3.686   1.123
 1340SOL    HW2 4046   1.094   3.722   1.154
 1341SOL     OW 4047   0.770   5.054   0.301
 1341SOL    HW1 4048   0.724   4.967   0.318
 1341SOL    HW2 4049   0.861   5.051   0.342
 1342SOL     OW 4050   1.352   3.776   0.168
 1342SOL    HW1 4051   1.387   3.735   0.084
 1342SOL    HW2 4052   1.262   3.738   0.188
 1343SOL     OW 4053   1.300   4.177   0.691
 1343SOL    HW1 4054   1.241   4.257   0.695
 1343SOL    HW2 4055   1.315   4.142   0.784
 1344SOL     OW 4056   1.593   3.945   0.882
 1344SOL    HW1 4057   1.509   3.944   0.936
 1344SOL    HW2 4058   1.595   4.028   0.826
 1345SOL     OW 4059   0.039   4.801   0.300
 1345SOL    HW1 4060   0.138   4.790   0.291
 1345SOL    HW2 4061  -0.001   4.715   0.332
 1346SOL     OW 4062   0.230   4.352   1.975
 1346SOL    HW1 4063   0.137   4.350   2.012
 1346SOL    HW2 4064   0.231   4.313   1.883
 1347SOL     OW 4065   0.225   3.999   2.858
 1347SOL    HW1 4066   0.260   3.982   2.950
 1347SOL    HW2 4067   0.137   3.954   2.846
 1348SOL     OW 4068   0.019   4.092   2.509
 1348SOL    HW1 4069  -0.063   4.135   2.548
 1348SOL    HW2 4070  -0.009   4.019   2.446
 1349SOL     OW 4071   0.569   4.999   3.027
 1349SOL    HW1 4072   0.476   4.992   2.990
 1349SOL    HW2 4073   0.580   5.088   3.071
 1350SOL     OW 4074   1.555   5.235   2.565
 1350SOL    HW1 4075   1.498   5.219   2.646
 1350SOL    HW2 4076   1.496   5.245   2.485
 1351SOL     OW 4077   1.135   4.427   2.579
 1351SOL    HW1 4078   1.192   4.505   2.554
 1351SOL    HW2 4079   1.075   4.453   2.655
 1352SOL     OW 4080   1.755   4.331   2.093
 1352SOL    HW1 4081   1.743   4.318   1.994
 1352SOL    HW2 4082   1.725   4.250   2.142
 1353SOL     OW 4083   0.768   4.868   2.885
 1353SOL    HW1 4084   0.690   4.885   2.945
 1353SOL    HW2 4085   0.802   4.955   2.849
 1354SOL     OW 4086   0.850   4.522   3.685
 1354SOL    HW1 4087   0.846   4.598   3.750
 1354SOL    HW2 4088   0.872   4.558   3.594
 1355SOL     OW 4089   0.685   4.736   2.527
 1355SOL    HW1 4090   0.754   4.720   2.597
 1355SOL    HW2 4091   0.612   4.793   2.565
 1356SOL     OW 4092   0.686   4.885   3.665
 1356SOL    HW1 4093   0.746   4.964   3.679
 1356SOL    HW2 4094   0.600   4.916   3.624
 1357SOL     OW 4095   0.335   5.159   2.923
 1357SOL    HW1 4096   0.257   5.128   2.870
 1357SOL    HW2 4097   0.393   5.217   2.866
 1358SOL     OW 4098   0.438   4.116   3.361
 1358SOL    HW1 4099   0.520   4.060   3.370
 1358SOL    HW2 4100   0.357   4.058   3.365
 1359SOL     OW 4101   1.603   4.171   2.599
 1359SOL    HW1 4102   1.529   4.217   2.549
 1359SOL    HW2 4103   1.654   4.239   2.652
 1360SOL     OW 4104   0.231   5.437   2.345
 1360SOL    HW1 4105   0.265   5.514   2.399
 1360SOL    HW2 4106   0.275   5.437   2.255
 1361SOL     OW 4107   1.127   5.065   3.552
 1361SOL    HW1 4108   1.174   5.065   3.640
 1361SOL    HW2 4109   1.079   4.978   3.541
 1362SOL     OW 4110   0.240   4.815   2.748
 1362SOL    HW1 4111   0.254   4.731   2.800
 1362SOL    HW2 4112   0.185   4.879   2.803
 1363SOL     OW 4113   0.606   4.688   1.985
 1363SOL    HW1 4114   0.613   4.772   1.931
 1363SOL    HW2 4115   0.652   4.701   2.073
 1364SOL     OW 4116   1.594   3.838   3.342
 1364SOL    HW1 4117   1.576   3.905   3.270
 1364SOL    HW2 4118   1.591   3.884   3.431
 1365SOL     OW 4119   0.122   4.367   2.425
 1365SOL    HW1 4120   0.077   4.279   2.442
 1365SOL    HW2 4121   0.121   4.421   2.509
 1366SOL     OW 4122   1.689   4.646   2.474
 1366SOL    HW1 4123   1.784   4.617   2.482
 1366SOL    HW2 4124   1.681   4.711   2.399
 1367SOL     OW 4125   1.641   4.832   2.294
 1367SOL    HW1 4126   1.727   4.834   2.242
 1367SOL    HW2 4127   1.655   4.879   2.382
 1368SOL     OW 4128   0.113   4.461   3.459
 1368SOL    HW1 4129   0.201   4.448   3.504
 1368SOL    HW2 4130   0.100   4.558   3.437
 1369SOL     OW 4131   0.613   5.089   2.588
 1369SOL    HW1 4132   0.564   5.002   2.597
 1369SOL    HW2 4133   0.590   5.132   2.501
 1370SOL     OW 4134   1.293   4.952   3.285
 1370SOL    HW1 4135   1.330   4.879   3.227
 1370SOL    HW2 4136   1.345   4.957   3.370
 1371SOL     OW 4137   0.809   3.728   2.364
 1371SOL    HW1 4138   0.849   3.819   2.355
 1371SOL    HW2 4139   0.709   3.736   2.370
 1372SOL     OW 4140   0.197   4.700   3.126
 1372SOL    HW1 4141   0.286   4.655   3.112
 1372SOL    HW2 4142   0.124   4.635   3.107
 1373SOL     OW 4143   1.525   4.723   2.052
 1373SOL    HW1 4144   1.462   4.647   2.065
 1373SOL    HW2 4145   1.573   4.741   2.138
 1374SOL     OW 4146   0.317   3.975   3.663
 1374SOL    HW1 4147   0.388   4.046   3.669
 1374SOL    HW2 4148   0.229   4.014   3.691
 1375SOL     OW 4149   1.466   5.141   2.815
 1375SOL    HW1 4150   1.407   5.147   2.895
 1375SOL    HW2 4151   1.451   5.053   2.769
 1376SOL     OW 4152   0.598   4.453   2.132
 1376SOL    HW1 4153   0.622   4.522   2.064
 1376SOL    HW2 4154   0.520   4.486   2.186
 1377SOL     OW 4155   1.281   4.069   2.806
 1377SOL    HW1 4156   1.195   4.019   2.793
 1377SOL    HW2 4157   1.343   4.015   2.862
 1378SOL     OW 4158   0.807   4.329   3.327
 1378SOL    HW1 4159   0.760   4.326   3.416
 1378SOL    HW2 4160   0.756   4.274   3.261
 1379SOL     OW 4161   1.394   4.193   3.536
 1379SOL    HW1 4162   1.374   4.236   3.624
 1379SOL    HW2 4163   1.472   4.131   3.545
 1380SOL     OW 4164   0.973   4.614   3.434
 1380SOL    HW1 4165   1.019   4.530   3.405
 1380SOL    HW2 4166   0.917   4.648   3.359
 1381SOL     OW 4167   0.991   4.134   3.104
 1381SOL    HW1 4168   0.914   4.168   3.158
 1381SOL    HW2 4169   0.957   4.083   3.025
 1382SOL     OW 4170   1.041   4.425   2.291
 1382SOL    HW1 4171   1.067   4.421   2.387
 1382SOL    HW2 4172   0.956   4.374   2.277
 1383SOL     OW 4173   0.076   4.535   2.651
 1383SOL    HW1 4174   0.175   4.523   2.660
 1383SOL    HW2 4175   0.052   4.630   2.672
 1384SOL     OW 4176   0.865   4.072   2.057
 1384SOL    HW1 4177   0.924   4.135   2.008
 1384SOL    HW2 4178   0.884   3.978   2.028
 1385SOL     OW 4179   1.719   4.309   3.693
 1385SOL    HW1 4180   1.693   4.398   3.657
 1385SOL    HW2 4181   1.717   4.241   3.620
 1386SOL     OW 4182   1.362   4.868   2.407
 1386SOL    HW1 4183   1.445   4.839   2.359
 1386SOL    HW2 4184   1.313   4.935   2.351
 1387SOL     OW 4185   0.550   3.920   2.747
 1387SOL    HW1 4186   0.545   3.915   2.847
 1387SOL    HW2 4187   0.552   4.016   2.718
 1388SOL     OW 4188   1.795   4.790   2.735
 1388SOL    HW1 4189   1.733   4.775   2.659
 1388SOL    HW2 4190   1.743   4.801   2.820
 1389SOL     OW 4191   0.321   4.667   2.104
 1389SOL    HW1 4192   0.403   4.706   2.062
 1389SOL    HW2 4193   0.294   4.585   2.055
 1390SOL     OW 4194   1.458   4.459   2.590
 1390SOL    HW1 4195   1.453   4.394   2.665
 1390SOL    HW2 4196   1.538   4.518   2.603
 1391SOL     OW 4197   0.461   4.990   3.589
 1391SOL    HW1 4198   0.411   4.991   3.503
 1391SOL    HW2 4199   0.398   4.972   3.665
 1392SOL     OW 4200   1.111   5.500   2.099
 1392SOL    HW1 4201   1.051   5.438   2.149
 1392SOL    HW2 4202   1.142   5.456   2.014
 1393SOL     OW 4203   0.202   4.009   3.360
 1393SOL    HW1 4204   0.122   4.069   3.347
 1393SOL    HW2 4205   0.192   3.960   3.446
 1394SOL     OW 4206   1.632   5.101   1.943
 1394SOL    HW1 4207   1.600   5.195   1.933
 1394SOL    HW2 4208   1.556   5.038   1.931
 1395SOL     OW 4209   1.400   3.831   2.288
 1395SOL    HW1 4210   1.376   3.794   2.198
 1395SOL    HW2 4211   1.499   3.847   2.292
 1396SOL     OW 4212   0.382   4.424   2.342
 1396SOL    HW1 4213   0.427   4.334   2.339
 1396SOL    HW2 4214   0.288   4.413   2.375
 1397SOL     OW 4215   1.547   3.946   3.591
 1397SOL    HW1 4216   1.542   3.983   3.683
 1397SOL    HW2 4217   1.475   3.877   3.579
 1398SOL     OW 4218   0.614   3.846   1.979
 1398SOL    HW1 4219   0.712   3.824   1.986
 1398SOL    HW2 4220   0.583   3.829   1.886
 1399SOL     OW 4221   0.781   3.988   3.611
 1399SOL    HW1 4222   0.848   3.927   3.654
 1399SOL    HW2 4223   0.708   4.007   3.676
 1400SOL     OW 4224   1.351   4.314   3.295
 1400SOL    HW1 4225   1.379   4.271   3.380
 1400SOL    HW2 4226   1.376   4.410   3.296
 1401SOL     OW 4227   0.922   4.227   2.761
 1401SOL    HW1 4228   0.897   4.218   2.665
 1401SOL    HW2 4229   0.970   4.145   2.792
 1402SOL     OW 4230   0.539   3.788   2.374
 1402SOL    HW1 4231   0.458   3.789   2.432
 1402SOL    HW2 4232   0.542   3.871   2.319
 1403SOL     OW 4233   1.434   4.912   1.903
 1403SOL    HW1 4234   1.466   4.836   1.960
 1403SOL    HW2 4235   1.342   4.939   1.933
 1404SOL     OW 4236   0.297   3.759   2.033
 1404SOL    HW1 4237   0.346   3.843   2.012
 1404SOL    HW2 4238   0.359   3.694   2.078
 1405SOL     OW 4239   0.935   3.960   2.342
 1405SOL    HW1 4240   0.887   4.001   2.264
 1405SOL    HW2 4241   1.034   3.958   2.323
 1406SOL     OW 4242   1.076   4.407   3.326
 1406SOL    HW1 4243   0.996   4.346   3.329
 1406SOL    HW2 4244   1.157   4.354   3.302
 1407SOL     OW 4245   1.227   5.294   2.655
 1407SOL    HW1 4246   1.248   5.368   2.590
 1407SOL    HW2 4247   1.295   5.294   2.728
 1408SOL     OW 4248   0.459   4.876   2.603
 1408SOL    HW1 4249   0.388   4.849   2.668
 1408SOL    HW2 4250   0.433   4.848   2.510
 1409SOL     OW 4251   1.032   4.273   1.878
 1409SOL    HW1 4252   0.991   4.355   1.839
 1409SOL    HW2 4253   1.096   4.299   1.951
 1410SOL     OW 4254   0.078   4.280   3.248
 1410SOL    HW1 4255   0.170   4.279   3.207
 1410SOL    HW2 4256   0.072   4.354   3.315
 1411SOL     OW 4257   0.561   3.946   3.009
 1411SOL    HW1 4258   0.599   3.862   3.046
 1411SOL    HW2 4259   0.473   3.965   3.053
 1412SOL     OW 4260   0.866   4.178   2.504
 1412SOL    HW1 4261   0.834   4.250   2.442
 1412SOL    HW2 4262   0.890   4.097   2.451
 1413SOL     OW 4263   1.017   3.763   2.615
 1413SOL    HW1 4264   0.945   3.768   2.546
 1413SOL    HW2 4265   0.993   3.694   2.684
 1414SOL     OW 4266   1.429   4.897   2.729
 1414SOL    HW1 4267   1.374   4.813   2.722
 1414SOL    HW2 4268   1.455   4.926   2.637
 1415SOL     OW 4269   1.466   4.314   2.854
 1415SOL    HW1 4270   1.436   4.219   2.861
 1415SOL    HW2 4271   1.539   4.330   2.920
 1416SOL     OW 4272   1.857   4.557   2.239
 1416SOL    HW1 4273   1.899   4.493   2.303
 1416SOL    HW2 4274   1.819   4.506   2.161
 1417SOL     OW 4275   1.664   5.004   2.519
 1417SOL    HW1 4276   1.763   5.012   2.533
 1417SOL    HW2 4277   1.619   5.088   2.550
 1418SOL     OW 4278   1.390   4.299   1.940
 1418SOL    HW1 4279   1.336   4.278   2.021
 1418SOL    HW2 4280   1.481   4.258   1.949
 1419SOL     OW 4281   0.527   3.980   2.190
 1419SOL    HW1 4282   0.554   3.921   2.115
 1419SOL    HW2 4283   0.527   4.075   2.159
 1420SOL     OW 4284   1.754   4.947   3.450
 1420SOL    HW1 4285   1.845   4.908   3.437
 1420SOL    HW2 4286   1.762   5.043   3.474
 1421SOL     OW 4287   1.064   5.071   3.202
 1421SOL    HW1 4288   0.984   5.048   3.257
 1421SOL    HW2 4289   1.147   5.045   3.251
 1422SOL     OW 4290   1.111   4.919   2.962
 1422SOL    HW1 4291   1.071   4.963   3.043
 1422SOL    HW2 4292   1.070   4.956   2.879
 1423SOL     OW 4293   1.638   4.823   2.941
 1423SOL    HW1 4294   1.643   4.904   3.000
 1423SOL    HW2 4295   1.552   4.825   2.890
 1424SOL     OW 4296   0.915   3.813   3.264
 1424SOL    HW1 4297   0.940   3.793   3.169
 1424SOL    HW2 4298   0.987   3.869   3.306
 1425SOL     OW 4299   0.980   4.840   3.581
 1425SOL    HW1 4300   0.881   4.846   3.591
 1425SOL    HW2 4301   1.003   4.760   3.525
 1426SOL     OW 4302   0.705   4.774   2.230
 1426SOL    HW1 4303   0.691   4.781   2.329
 1426SOL    HW2 4304   0.789   4.723   2.212
 1427SOL     OW 4305   0.410   4.537   3.113
 1427SOL    HW1 4306   0.496   4.549   3.163
 1427SOL    HW2 4307   0.368   4.450   3.140
 1428SOL     OW 4308   1.274   4.110   3.124
 1428SOL    HW1 4309   1.295   4.184   3.188
 1428SOL    HW2 4310   1.185   4.127   3.081
 1429SOL     OW 4311   0.064   5.288   3.193
 1429SOL    HW1 4312   0.018   5.370   3.159
 1429SOL    HW2 4313   0.162   5.307   3.202
 1430SOL     OW 4314   0.367   4.824   2.363
 1430SOL    HW1 4315   0.360   4.907   2.307
 1430SOL    HW2 4316   0.371   4.744   2.303
 1431SOL     OW 4317   0.566   4.261   2.727
 1431SOL    HW1 4318   0.578   4.327   2.653
 1431SOL    HW2 4319   0.612   4.295   2.810
 1432SOL     OW 4320   1.252   5.072   2.250
 1432SOL    HW1 4321   1.302   5.149   2.290
 1432SOL    HW2 4322   1.157   5.074   2.282
 1433SOL     OW 4323   1.272   5.169   3.004
 1433SOL    HW1 4324   1.319   5.182   3.091
 1433SOL    HW2 4325   1.206   5.095   3.013
 1434SOL     OW 4326   1.582   4.363   2.334
 1434SOL    HW1 4327   1.551   4.424   2.407
 1434SOL    HW2 4328   1.632   4.415   2.265
 1435SOL     OW 4329   0.402   4.475   3.460
 1435SOL    HW1 4330   0.470   4.530   3.413
 1435SOL    HW2 4331   0.442   4.387   3.487
 1436SOL     OW 4332   1.587   4.503   3.532
 1436SOL    HW1 4333   1.495   4.541   3.527
 1436SOL    HW2 4334   1.647   4.550   3.467
 1437SOL     OW 4335   1.013   3.829   3.632
 1437SOL    HW1 4336   1.019   3.914   3.580
 1437SOL    HW2 4337   1.045   3.753   3.575
 1438SOL     OW 4338   0.504   3.774   3.602
 1438SOL    HW1 4339   0.462   3.717   3.532
 1438SOL    HW2 4340   0.438   3.843   3.634
 1439SOL     OW 4341   0.573   4.594   2.891
 1439SOL    HW1 4342   0.617   4.683   2.882
 1439SOL    HW2 4343   0.510   4.594   2.968
 1440SOL     OW 4344   1.360   4.586   2.907
 1440SOL    HW1 4345   1.285   4.586   2.841
 1440SOL    HW2 4346   1.397   4.494   2.916
 1441SOL     OW 4347   1.209   4.249   2.137
 1441SOL    HW1 4348   1.222   4.165   2.191
 1441SOL    HW2 4349   1.180   4.323   2.197
 1442SOL     OW 4350   0.307   3.937   3.093
 1442SOL    HW1 4351   0.284   3.974   3.183
 1442SOL    HW2 4352   0.277   3.842   3.087
 1443SOL     OW 4353   0.037   5.034   3.144
 1443SOL    HW1 4354   0.090   4.985   3.212
 1443SOL    HW2 4355   0.059   5.132   3.149
 1444SOL     OW 4356   0.732   4.358   2.926
 1444SOL    HW1 4357   0.791   4.332   2.850
 1444SOL    HW2 4358   0.704   4.454   2.915
 1445SOL     OW 4359   1.728   4.659   3.716
 1445SOL    HW1 4360   1.682   4.652   3.627
 1445SOL    HW2 4361   1.666   4.703   3.782
 1446SOL     OW 4362   0.307   3.787   2.480
 1446SOL    HW1 4363   0.296   3.881   2.513
 1446SOL    HW2 4364   0.302   3.724   2.557
 1447SOL     OW 4365   1.622   4.091   2.236
 1447SOL    HW1 4366   1.624   4.015   2.300
 1447SOL    HW2 4367   1.574   4.168   2.276
 1448SOL     OW 4368   1.023   4.490   2.828
 1448SOL    HW1 4369   1.038   4.511   2.924
 1448SOL    HW2 4370   0.993   4.395   2.819
 1449SOL     OW 4371   1.859   5.242   3.467
 1449SOL    HW1 4372   1.873   5.269   3.372
 1449SOL    HW2 4373   1.942   5.264   3.520
 1450SOL     OW 4374   0.350   4.622   3.666
 1450SOL    HW1 4375   0.426   4.666   3.714
 1450SOL    HW2 4376   0.385   4.575   3.584
 1451SOL     OW 4377   1.540   3.998   1.987
 1451SOL    HW1 4378   1.479   3.923   2.010
 1451SOL    HW2 4379   1.562   4.050   2.070
 1452SOL     OW 4380   1.303   4.562   1.904
 1452SOL    HW1 4381   1.337   4.469   1.919
 1452SOL    HW2 4382   1.321   4.589   1.809
 1453SOL     OW 4383   0.319   4.534   2.811
 1453SOL    HW1 4384   0.412   4.570   2.816
 1453SOL    HW2 4385   0.313   4.449   2.863
 1454SOL     OW 4386   0.339   4.233   2.868
 1454SOL    HW1 4387   0.287   4.150   2.851
 1454SOL    HW2 4388   0.416   4.238   2.804
 1455SOL     OW 4389   1.138   4.104   3.540
 1455SOL    HW1 4390   1.093   4.167   3.604
 1455SOL    HW2 4391   1.231   4.135   3.523
 1456SOL     OW 4392   1.160   3.931   3.339
 1456SOL    HW1 4393   1.160   3.995   3.416
 1456SOL    HW2 4394   1.188   3.979   3.256
 1457SOL     OW 4395   0.008   5.050   2.062
 1457SOL    HW1 4396  -0.085   5.071   2.031
 1457SOL    HW2 4397   0.018   4.951   2.075
 1458SOL     OW 4398   1.002   4.520   3.100
 1458SOL    HW1 4399   1.043   4.488   3.186
 1458SOL    HW2 4400   0.906   4.493   3.097
 1459SOL     OW 4401   0.040   4.268   2.976
 1459SOL    HW1 4402   0.125   4.235   2.935
 1459SOL    HW2 4403   0.053   4.283   3.074
 1460SOL     OW 4404   0.189   4.244   3.584
 1460SOL    HW1 4405   0.248   4.204   3.514
 1460SOL    HW2 4406   0.131   4.315   3.543
 1461SOL     OW 4407   1.369   4.674   3.522
 1461SOL    HW1 4408   1.408   4.763   3.542
 1461SOL    HW2 4409   1.379   4.654   3.425
 1462SOL     OW 4410   0.815   4.296   2.187
 1462SOL    HW1 4411   0.822   4.207   2.141
 1462SOL    HW2 4412   0.721   4.330   2.179
 1463SOL     OW 4413   1.657   4.328   3.068
 1463SOL    HW1 4414   1.619   4.259   3.130
 1463SOL    HW2 4415   1.739   4.292   3.024
 1464SOL     OW 4416   0.671   4.188   3.131
 1464SOL    HW1 4417   0.637   4.099   3.101
 1464SOL    HW2 4418   0.697   4.242   3.051
 1465SOL     OW 4419   0.473   4.224   2.053
 1465SOL    HW1 4420   0.534   4.304   2.057
 1465SOL    HW2 4421   0.378   4.255   2.060
 1466SOL     OW 4422   0.159   4.861   3.328
 1466SOL    HW1 4423   0.181   4.800   3.404
 1466SOL    HW2 4424   0.169   4.812   3.242
 1467SOL     OW 4425   1.347   4.783   3.096
 1467SOL    HW1 4426   1.371   4.720   3.022
 1467SOL    HW2 4427   1.257   4.823   3.078
 1468SOL     OW 4428   1.302   4.579   2.171
 1468SOL    HW1 4429   1.216   4.548   2.213
 1468SOL    HW2 4430   1.298   4.565   2.072
 1469SOL     OW 4431   0.083   4.982   2.884
 1469SOL    HW1 4432   0.078   4.981   2.984
 1469SOL    HW2 4433   0.000   4.941   2.846
 1470SOL     OW 4434   1.726   3.859   2.385
 1470SOL    HW1 4435   1.799   3.842   2.318
 1470SOL    HW2 4436   1.695   3.772   2.423
 1471SOL     OW 4437   1.280   4.651   2.534
 1471SOL    HW1 4438   1.340   4.570   2.536
 1471SOL    HW2 4439   1.320   4.720   2.474
 1472SOL     OW 4440   0.830   4.997   3.284
 1472SOL    HW1 4441   0.825   5.030   3.379
 1472SOL    HW2 4442   0.744   5.016   3.238
 1473SOL     OW 4443   1.841   3.899   2.825
 1473SOL    HW1 4444   1.880   3.814   2.789
 1473SOL    HW2 4445   1.743   3.901   2.806
 1474SOL     OW 4446   0.263   4.050   2.582
 1474SOL    HW1 4447   0.184   4.101   2.548
 1474SOL    HW2 4448   0.254   4.035   2.680
 1475SOL     OW 4449   0.822   4.726   3.234
 1475SOL    HW1 4450   0.862   4.725   3.142
 1475SOL    HW2 4451   0.832   4.818   3.274
 1476SOL     OW 4452   0.916   4.634   2.153
 1476SOL    HW1 4453   0.979   4.672   2.085
 1476SOL    HW2 4454   0.956   4.551   2.192
 1477SOL     OW 4455   0.372   5.012   3.352
 1477SOL    HW1 4456   0.359   5.105   3.318
 1477SOL    HW2 4457   0.288   4.960   3.339
 1478SOL     OW 4458   1.614   5.016   3.151
 1478SOL    HW1 4459   1.674   5.019   3.231
 1478SOL    HW2 4460   1.539   5.080   3.164
 1479SOL     OW 4461   1.039   4.822   2.558
 1479SOL    HW1 4462   0.969   4.775   2.612
 1479SOL    HW2 4463   1.098   4.754   2.515
 1480SOL     OW 4464   1.014   3.960   2.833
 1480SOL    HW1 4465   1.006   3.924   2.740
 1480SOL    HW2 4466   1.012   3.884   2.898
 1481SOL     OW 4467   1.709   4.109   3.243
 1481SOL    HW1 4468   1.782   4.178   3.247
 1481SOL    HW2 4469   1.737   4.034   3.184
 1482SOL     OW 4470   0.105   4.737   3.588
 1482SOL    HW1 4471   0.028   4.704   3.642
 1482SOL    HW2 4472   0.190   4.707   3.630
 1483SOL     OW 4473   0.672   3.927   3.351
 1483SOL    HW1 4474   0.762   3.911   3.311
 1483SOL    HW2 4475   0.680   3.932   3.450
 1484SOL     OW 4476   0.075   4.069   1.895
 1484SOL    HW1 4477  -0.017   4.041   1.866
 1484SOL    HW2 4478   0.106   4.146   1.839
 1485SOL     OW 4479   1.440   4.580   3.260
 1485SOL    HW1 4480   1.383   4.632   3.197
 1485SOL    HW2 4481   1.536   4.592   3.236
 1486SOL     OW 4482   0.072   3.890   2.180
 1486SOL    HW1 4483   0.055   3.973   2.126
 1486SOL    HW2 4484   0.162   3.853   2.158
 1487SOL     OW 4485   1.183   5.059   1.981
 1487SOL    HW1 4486   1.084   5.048   1.983
 1487SOL    HW2 4487   1.217   5.074   2.074
 1488SOL     OW 4488   0.613   4.566   3.293
 1488SOL    HW1 4489   0.669   4.647   3.276
 1488SOL    HW2 4490   0.672   4.486   3.296
 1489SOL     OW 4491   0.716   4.289   3.570
 1489SOL    HW1 4492   0.735   4.354   3.644
 1489SOL    HW2 4493   0.776   4.209   3.579
 1490SOL     OW 4494   1.450   4.944   3.495
 1490SOL    HW1 4495   1.441   4.934   3.594
 1490SOL    HW2 4496   1.546   4.937   3.469
 1491SOL     OW 4497   1.674   4.607   3.116
 1491SOL    HW1 4498   1.647   4.518   3.079
 1491SOL    HW2 4499   1.675   4.675   3.043
 1492SOL     OW 4500   1.225   4.049   2.311
 1492SOL    HW1 4501   1.290   3.975   2.300
 1492SOL    HW2 4502   1.245   4.099   2.395
 1493SOL     OW 4503   0.594   4.469   2.514
 1493SOL    HW1 4504   0.644   4.554   2.495
 1493SOL    HW2 4505   0.506   4.471   2.466
 1494SOL     OW 4506   1.777   4.066   3.504
 1494SOL    HW1 4507   1.760   4.097   3.410
 1494SOL    HW2 4508   1.693   4.029   3.542
 1495SOL     OW 4509   1.730   4.658   3.379
 1495SOL    HW1 4510   1.768   4.749   3.394
 1495SOL    HW2 4511   1.722   4.641   3.280
 1496SOL     OW 4512   0.859   5.098   1.878
 1496SOL    HW1 4513   0.813   5.113   1.966
 1496SOL    HW2 4514   0.903   5.183   1.848
 1497SOL     OW 4515   0.859   4.680   2.723
 1497SOL    HW1 4516   0.913   4.611   2.771
 1497SOL    HW2 4517   0.827   4.749   2.789
 1498SOL     OW 4518   1.083   4.708   1.949
 1498SOL    HW1 4519   1.060   4.761   1.867
 1498SOL    HW2 4520   1.164   4.652   1.930
 1499SOL     OW 4521   0.221   5.038   3.706
 1499SOL    HW1 4522   0.156   4.965   3.685
 1499SOL    HW2 4523   0.225   5.052   3.804
 1500SOL     OW 4524   0.079   4.964   2.515
 1500SOL    HW1 4525   0.078   4.917   2.603
 1500SOL    HW2 4526   0.161   4.936   2.464
 1501SOL     OW 4527   0.672   5.115   3.486
 1501SOL    HW1 4528   0.594   5.065   3.524
 1501SOL    HW2 4529   0.669   5.210   3.517
 1502SOL     OW 4530   1.824   3.916   3.089
 1502SOL    HW1 4531   1.820   3.826   3.133
 1502SOL    HW2 4532   1.827   3.905   2.990
 1503SOL     OW 4533   0.428   4.148   2.382
 1503SOL    HW1 4534   0.458   4.076   2.320
 1503SOL    HW2 4535   0.389   4.108   2.465
 1504SOL     OW 4536   1.705   5.211   2.966
 1504SOL    HW1 4537   1.612   5.186   2.939
 1504SOL    HW2 4538   1.731   5.161   3.048
 1505SOL     OW 4539   0.317   4.271   3.142
 1505SOL    HW1 4540   0.355   4.212   3.214
 1505SOL    HW2 4541   0.357   4.245   3.054
 1506SOL     OW 4542   1.424   3.938   2.974
 1506SOL    HW1 4543   1.476   3.873   3.029
 1506SOL    HW2 4544   1.375   4.001   3.035
 1507SOL     OW 4545   1.001   3.758   3.016
 1507SOL    HW1 4546   0.938   3.686   2.985
 1507SOL    HW2 4547   1.094   3.722   3.016
 1508SOL     OW 4548   0.770   5.054   2.163
 1508SOL    HW1 4549   0.724   4.967   2.180
 1508SOL    HW2 4550   0.861   5.051   2.204
 1509SOL     OW 4551   1.352   3.776   2.030
 1509SOL    HW1 4552   1.387   3.735   1.946
 1509SOL    HW2 4553   1.262   3.738   2.050
 1510SOL     OW 4554   1.300   4.177   2.553
 1510SOL    HW1 4555   1.241   4.257   2.557
 1510SOL    HW2 4556   1.315   4.142   2.646
 1511SOL     OW 4557   1.593   3.945   2.744
 1511SOL    HW1 4558   1.509   3.944   2.798
 1511SOL    HW2 4559   1.595   4.028   2.688
 1512SOL     OW 4560   0.039   4.801   2.162
 1512SOL    HW1 4561   0.138   4.790   2.153
 1512SOL    HW2 4562  -0.001   4.715   2.194
 1513SOL     OW 4563   0.230   4.352   3.837
 1513SOL    HW1 4564   0.137   4.350   3.874
 1513SOL    HW2 4565   0.231   4.313   3.745
 1514SOL     OW 4566   0.225   3.999   4.720
 1514SOL    HW1 4567   0.260   3.982   4.812
 1514SOL    HW2 4568   0.137   3.954   4.708
 1515SOL     OW 4569   0.019   4.092   4.371
 1515SOL    HW1 4570  -0.063   4.135   4.410
 1515SOL    HW2 4571  -0.009   4.019   4.308
 1516SOL     OW 4572   0.569   4.999   4.889
 1516SOL    HW1 4573   0.476   4.992   4.852
 1516SOL    HW2 4574   0.580   5.088   4.933
 1517SOL     OW 4575   1.555   5.235   4.427
 1517SOL    HW1 4576   1.498   5.219   4.508
 1517SOL    HW2 4577   1.496   5.245   4.347
 1518SOL     OW 4578   1.135   4.427   4.441
 1518SOL    HW1 4579   1.192   4.505   4.416
 1518SOL    HW2 4580   1.075   4.453   4.517
 1519SOL     OW 4581   1.755   4.331   3.955
 1519SOL    HW1 4582   1.743   4.318   3.856
 1519SOL    HW2 4583   1.725   4.250   4.004
 1520SOL     OW 4584   0.768   4.868   4.747
 1520SOL    HW1 4585   0.690   4.885   4.807
 1520SOL    HW2 4586   0.802   4.955   4.711
 1521SOL     OW 4587   0.685   4.736   4.389
 1521SOL    HW1 4588   0.754   4.720   4.459
 1521SOL    HW2 4589   0.612   4.793   4.427
 1522SOL     OW 4590   0.335   5.159   4.785
 1522SOL    HW1 4591   0.257   5.128   4.732
 1522SOL    HW2 4592   0.393   5.217   4.728
 1523SOL     OW 4593   1.460   5.229   5.063
 1523SOL    HW1 4594   1.484   5.323   5.089
 1523SOL    HW2 4595   1.444   5.175   5.145
 1524SOL     OW 4596   0.438   4.116   5.223
 1524SOL    HW1 4597   0.520   4.060   5.232
 1524SOL    HW2 4598   0.357   4.058   5.227
 1525SOL     OW 4599   1.603   4.171   4.461
 1525SOL    HW1 4600   1.529   4.217   4.411
 1525SOL    HW2 4601   1.654   4.239   4.514
 1526SOL     OW 4602   0.231   5.437   4.207
 1526SOL    HW1 4603   0.265   5.514   4.261
 1526SOL    HW2 4604   0.275   5.437   4.117
 1527SOL     OW 4605   0.240   4.815   4.610
 1527SOL    HW1 4606   0.254   4.731   4.662
 1527SOL    HW2 4607   0.185   4.879   4.665
 1528SOL     OW 4608   0.606   4.688   3.847
 1528SOL    HW1 4609   0.613   4.772   3.793
 1528SOL    HW2 4610   0.652   4.701   3.935
 1529SOL     OW 4611   0.122   4.367   4.287
 1529SOL    HW1 4612   0.077   4.279   4.304
 1529SOL    HW2 4613   0.121   4.421   4.371
 1530SOL     OW 4614   1.689   4.646   4.336
 1530SOL    HW1 4615   1.784   4.617   4.344
 1530SOL    HW2 4616   1.681   4.711   4.261
 1531SOL     OW 4617   1.641   4.832   4.156
 1531SOL    HW1 4618   1.727   4.834   4.104
 1531SOL    HW2 4619   1.655   4.879   4.244
 1532SOL     OW 4620   0.613   5.089   4.450
 1532SOL    HW1 4621   0.564   5.002   4.459
 1532SOL    HW2 4622   0.590   5.132   4.363
 1533SOL     OW 4623   0.809   3.728   4.226
 1533SOL    HW1 4624   0.849   3.819   4.217
 1533SOL    HW2 4625   0.709   3.736   4.232
 1534SOL     OW 4626   0.197   4.700   4.988
 1534SOL    HW1 4627   0.286   4.655   4.974
 1534SOL    HW2 4628   0.124   4.635   4.969
 1535SOL     OW 4629   1.525   4.723   3.914
 1535SOL    HW1 4630   1.462   4.647   3.927
 1535SOL    HW2 4631   1.573   4.741   4.000
 1536SOL     OW 4632   1.466   5.141   4.677
 1536SOL    HW1 4633   1.407   5.147   4.757
 1536SOL    HW2 4634   1.451   5.053   4.631
 1537SOL     OW 4635   0.598   4.453   3.994
 1537SOL    HW1 4636   0.622   4.522   3.926
 1537SOL    HW2 4637   0.520   4.486   4.048
 1538SOL     OW 4638   1.281   4.069   4.668
 1538SOL    HW1 4639   1.195   4.019   4.655
 1538SOL    HW2 4640   1.343   4.015   4.724
 1539SOL     OW 4641   0.807   4.329   5.189
 1539SOL    HW1 4642   0.760   4.326   5.278
 1539SOL    HW2 4643   0.756   4.274   5.123
 1540SOL     OW 4644   0.991   4.134   4.966
 1540SOL    HW1 4645   0.914   4.168   5.020
 1540SOL    HW2 4646   0.957   4.083   4.887
 1541SOL     OW 4647   1.041   4.425   4.153
 1541SOL    HW1 4648   1.067   4.421   4.249
 1541SOL    HW2 4649   0.956   4.374   4.139
 1542SOL     OW 4650   0.076   4.535   4.513
 1542SOL    HW1 4651   0.175   4.523   4.522
 1542SOL    HW2 4652   0.052   4.630   4.534
 1543SOL     OW 4653   0.865   4.072   3.919
 1543SOL    HW1 4654   0.924   4.135   3.870
 1543SOL    HW2 4655   0.884   3.978   3.890
 1544SOL     OW 4656   1.362   4.868   4.269
 1544SOL    HW1 4657   1.445   4.839   4.221
 1544SOL    HW2 4658   1.313   4.935   4.213
 1545SOL     OW 4659   0.550   3.920   4.609
 1545SOL    HW1 4660   0.545   3.915   4.709
 1545SOL    HW2 4661   0.552   4.016   4.580
 1546SOL     OW 4662   1.795   4.790   4.597
 1546SOL    HW1 4663   1.733   4.775   4.521
 1546SOL    HW2 4664   1.743   4.801   4.682
 1547SOL     OW 4665   0.321   4.667   3.966
 1547SOL    HW1 4666   0.403   4.706   3.924
 1547SOL    HW2 4667   0.294   4.585   3.917
 1548SOL     OW 4668   1.458   4.459   4.452
 1548SOL    HW1 4669   1.453   4.394   4.527
 1548SOL    HW2 4670   1.538   4.518   4.465
 1549SOL     OW 4671   1.111   5.500   3.961
 1549SOL    HW1 4672   1.051   5.438   4.011
 1549SOL    HW2 4673   1.142   5.456   3.876
 1550SOL     OW 4674   1.632   5.101   3.805
 1550SOL    HW1 4675   1.600   5.195   3.795
 1550SOL    HW2 4676   1.556   5.038   3.793
 1551SOL     OW 4677   1.400   3.831   4.150
 1551SOL    HW1 4678   1.376   3.794   4.060
 1551SOL    HW2 4679   1.499   3.847   4.154
 1552SOL     OW 4680   0.382   4.424   4.204
 1552SOL    HW1 4681   0.427   4.334   4.201
 1552SOL    HW2 4682   0.288   4.413   4.237
 1553SOL     OW 4683   0.614   3.846   3.841
 1553SOL    HW1 4684   0.712   3.824   3.848
 1553SOL    HW2 4685   0.583   3.829   3.748
 1554SOL     OW 4686   0.922   4.227   4.623
 1554SOL    HW1 4687   0.897   4.218   4.527
 1554SOL    HW2 4688   0.970   4.145   4.654
 1555SOL     OW 4689   0.539   3.788   4.236
 1555SOL    HW1 4690   0.458   3.789   4.294
 1555SOL    HW2 4691   0.542   3.871   4.181
 1556SOL     OW 4692   1.434   4.912   3.765
 1556SOL    HW1 4693   1.466   4.836   3.822
 1556SOL    HW2 4694   1.342   4.939   3.795
 1557SOL     OW 4695   0.297   3.759   3.895
 1557SOL    HW1 4696   0.346   3.843   3.874
 1557SOL    HW2 4697   0.359   3.694   3.940
 1558SOL     OW 4698   0.935   3.960   4.204
 1558SOL    HW1 4699   0.887   4.001   4.126
 1558SOL    HW2 4700   1.034   3.958   4.185
 1559SOL     OW 4701   1.227   5.294   4.517
 1559SOL    HW1 4702   1.248   5.368   4.452
 1559SOL    HW2 4703   1.295   5.294   4.590
 1560SOL     OW 4704   0.459   4.876   4.465
 1560SOL    HW1 4705   0.388   4.849   4.530
 1560SOL    HW2 4706   0.433   4.848   4.372
 1561SOL     OW 4707   1.032   4.273   3.740
 1561SOL    HW1 4708   0.991   4.355   3.701
 1561SOL    HW2 4709   1.096   4.299   3.813
 1562SOL     OW 4710   0.561   3.946   4.871
 1562SOL    HW1 4711   0.599   3.862   4.908
 1562SOL    HW2 4712   0.473   3.965   4.915
 1563SOL     OW 4713   0.866   4.178   4.366
 1563SOL    HW1 4714   0.834   4.250   4.304
 1563SOL    HW2 4715   0.890   4.097   4.313
 1564SOL     OW 4716   1.017   3.763   4.477
 1564SOL    HW1 4717   0.945   3.768   4.408
 1564SOL    HW2 4718   0.993   3.694   4.546
 1565SOL     OW 4719   1.429   4.897   4.591
 1565SOL    HW1 4720   1.374   4.813   4.584
 1565SOL    HW2 4721   1.455   4.926   4.499
 1566SOL     OW 4722   1.466   4.314   4.716
 1566SOL    HW1 4723   1.436   4.219   4.723
 1566SOL    HW2 4724   1.539   4.330   4.782
 1567SOL     OW 4725   1.857   4.557   4.101
 1567SOL    HW1 4726   1.899   4.493   4.165
 1567SOL    HW2 4727   1.819   4.506   4.023
 1568SOL     OW 4728   1.664   5.004   4.381
 1568SOL    HW1 4729   1.763   5.012   4.395
 1568SOL    HW2 4730   1.619   5.088   4.412
 1569SOL     OW 4731   1.390   4.299   3.802
 1569SOL    HW1 4732   1.336   4.278   3.883
 1569SOL    HW2 4733   1.481   4.258   3.811
 1570SOL     OW 4734   0.527   3.980   4.052
 1570SOL    HW1 4735   0.554   3.921   3.977
 1570SOL    HW2 4736   0.527   4.075   4.021
 1571SOL     OW 4737   1.754   4.947   5.312
 1571SOL    HW1 4738   1.845   4.908   5.299
 1571SOL    HW2 4739   1.762   5.043   5.336
 1572SOL     OW 4740   1.064   5.071   5.064
 1572SOL    HW1 4741   0.984   5.048   5.119
 1572SOL    HW2 4742   1.147   5.045   5.113
 1573SOL     OW 4743   1.111   4.919   4.824
 1573SOL    HW1 4744   1.071   4.963   4.905
 1573SOL    HW2 4745   1.070   4.956   4.741
 1574SOL     OW 4746   1.638   4.823   4.803
 1574SOL    HW1 4747   1.643   4.904   4.862
 1574SOL    HW2 4748   1.552   4.825   4.752
 1575SOL     OW 4749   0.705   4.774   4.092
 1575SOL    HW1 4750   0.691   4.781   4.191
 1575SOL    HW2 4751   0.789   4.723   4.074
 1576SOL     OW 4752   0.410   4.537   4.975
 1576SOL    HW1 4753   0.496   4.549   5.025
 1576SOL    HW2 4754   0.368   4.450   5.002
 1577SOL     OW 4755   1.274   4.110   4.986
 1577SOL    HW1 4756   1.295   4.184   5.050
 1577SOL    HW2 4757   1.185   4.127   4.943
 1578SOL     OW 4758   0.064   5.288   5.055
 1578SOL    HW1 4759   0.018   5.370   5.021
 1578SOL    HW2 4760   0.162   5.307   5.064
 1579SOL     OW 4761   0.367   4.824   4.225
 1579SOL    HW1 4762   0.360   4.907   4.169
 1579SOL    HW2 4763   0.371   4.744   4.165
 1580SOL     OW 4764   0.566   4.261   4.589
 1580SOL    HW1 4765   0.578   4.327   4.515
 1580SOL    HW2 4766   0.612   4.295   4.672
 1581SOL     OW 4767   1.252   5.072   4.112
 1581SOL    HW1 4768   1.302   5.149   4.152
 1581SOL    HW2 4769   1.157   5.074   4.144
 1582SOL     OW 4770   1.272   5.169   4.866
 1582SOL    HW1 4771   1.319   5.182   4.953
 1582SOL    HW2 4772   1.206   5.095   4.875
 1583SOL     OW 4773   1.582   4.363   4.196
 1583SOL    HW1 4774   1.551   4.424   4.269
 1583SOL    HW2 4775   1.632   4.415   4.127
 1584SOL     OW 4776   0.504   3.774   5.464
 1584SOL    HW1 4777   0.462   3.717   5.394
 1584SOL    HW2 4778   0.438   3.843   5.496
 1585SOL     OW 4779   0.573   4.594   4.753
 1585SOL    HW1 4780   0.617   4.683   4.744
 1585SOL    HW2 4781   0.510   4.594   4.830
 1586SOL     OW 4782   1.360   4.586   4.769
 1586SOL    HW1 4783   1.285   4.586   4.703
 1586SOL    HW2 4784   1.397   4.494   4.778
 1587SOL     OW 4785   1.209   4.249   3.999
 1587SOL    HW1 4786   1.222   4.165   4.053
 1587SOL    HW2 4787   1.180   4.323   4.059
 1588SOL     OW 4788   0.307   3.937   4.955
 1588SOL    HW1 4789   0.284   3.974   5.045
 1588SOL    HW2 4790   0.277   3.842   4.949
 1589SOL     OW 4791   0.037   5.034   5.006
 1589SOL    HW1 4792   0.090   4.985   5.074
 1589SOL    HW2 4793   0.059   5.132   5.011
 1590SOL     OW 4794   0.732   4.358   4.788
 1590SOL    HW1 4795   0.791   4.332   4.712
 1590SOL    HW2 4796   0.704   4.454   4.777
 1591SOL     OW 4797   0.307   3.787   4.342
 1591SOL    HW1 4798   0.296   3.881   4.375
 1591SOL    HW2 4799   0.302   3.724   4.419
 1592SOL     OW 4800   1.622   4.091   4.098
 1592SOL    HW1 4801   1.624   4.015   4.162
 1592SOL    HW2 4802   1.574   4.168   4.138
 1593SOL     OW 4803   1.023   4.490   4.690
 1593SOL    HW1 4804   1.038   4.511   4.786
 1593SOL    HW2 4805   0.993   4.395   4.681
 1594SOL     OW 4806   1.540   3.998   3.849
 1594SOL    HW1 4807   1.479   3.923   3.872
 1594SOL    HW2 4808   1.562   4.050   3.932
 1595SOL     OW 4809   1.303   4.562   3.766
 1595SOL    HW1 4810   1.337   4.469   3.781
 1595SOL    HW2 4811   1.321   4.589   3.671
 1596SOL     OW 4812   0.319   4.534   4.673
 1596SOL    HW1 4813   0.412   4.570   4.678
 1596SOL    HW2 4814   0.313   4.449   4.725
 1597SOL     OW 4815   0.339   4.233   4.730
 1597SOL    HW1 4816   0.287   4.150   4.713
 1597SOL    HW2 4817   0.416   4.238   4.666
 1598SOL     OW 4818   1.160   3.931   5.201
 1598SOL    HW1 4819   1.160   3.995   5.278
 1598SOL    HW2 4820   1.188   3.979   5.118
 1599SOL     OW 4821   0.008   5.050   3.924
 1599SOL    HW1 4822  -0.085   5.071   3.893
 1599SOL    HW2 4823   0.018   4.951   3.937
 1600SOL     OW 4824   1.002   4.520   4.962
 1600SOL    HW1 4825   1.043   4.488   5.048
 1600SOL    HW2 4826   0.906   4.493   4.959
 1601SOL     OW 4827   0.040   4.268   4.838
 1601SOL    HW1 4828   0.125   4.235   4.797
 1601SOL    HW2 4829   0.053   4.283   4.936
 1602SOL     OW 4830   0.815   4.296   4.049
 1602SOL    HW1 4831   0.822   4.207   4.003
 1602SOL    HW2 4832   0.721   4.330   4.041
 1603SOL     OW 4833   1.657   4.328   4.930
 1603SOL    HW1 4834   1.619   4.259   4.992
 1603SOL    HW2 4835   1.739   4.292   4.886
 1604SOL     OW 4836   0.671   4.188   4.993
 1604SOL    HW1 4837   0.637   4.099   4.963
 1604SOL    HW2 4838   0.697   4.242   4.913
 1605SOL     OW 4839   0.473   4.224   3.915
 1605SOL    HW1 4840   0.534   4.304   3.919
 1605SOL    HW2 4841   0.378   4.255   3.922
 1606SOL     OW 4842   0.159   4.861   5.190
 1606SOL    HW1 4843   0.181   4.800   5.266
 1606SOL    HW2 4844   0.169   4.812   5.104
 1607SOL     OW 4845   1.347   4.783   4.958
 1607SOL    HW1 4846   1.371   4.720   4.884
 1607SOL    HW2 4847   1.257   4.823   4.940
 1608SOL     OW 4848   1.302   4.579   4.033
 1608SOL    HW1 4849   1.216   4.548   4.075
 1608SOL    HW2 4850   1.298   4.565   3.934
 1609SOL     OW 4851   0.083   4.982   4.746
 1609SOL    HW1 4852   0.078   4.981   4.846
 1609SOL    HW2 4853   0.000   4.941   4.708
 1610SOL     OW 4854   1.726   3.859   4.247
 1610SOL    HW1 4855   1.799   3.842   4.180
 1610SOL    HW2 4856   1.695   3.772   4.285
 1611SOL     OW 4857   1.280   4.651   4.396
 1611SOL    HW1 4858   1.340   4.570   4.398
 1611SOL    HW2 4859   1.320   4.720   4.336
 1612SOL     OW 4860   0.830   4.997   5.146
 1612SOL    HW1 4861   0.825   5.030   5.241
 1612SOL    HW2 4862   0.744   5.016   5.100
 1613SOL     OW 4863   1.841   3.899   4.687
 1613SOL    HW1 4864   1.880   3.814   4.651
 1613SOL    HW2 4865   1.743   3.901   4.668
 1614SOL     OW 4866   0.263   4.050   4.444
 1614SOL    HW1 4867   0.184   4.101   4.410
 1614SOL    HW2 4868   0.254   4.035   4.542
 1615SOL     OW 4869   0.822   4.726   5.096
 1615SOL    HW1 4870   0.862   4.725   5.004
 1615SOL    HW2 4871   0.832   4.818   5.136
 1616SOL     OW 4872   0.916   4.634   4.015
 1616SOL    HW1 4873   0.979   4.672   3.947
 1616SOL    HW2 4874   0.956   4.551   4.054
 1617SOL     OW 4875   0.372   5.012   5.214
 1617SOL    HW1 4876   0.359   5.105   5.180
 1617SOL    HW2 4877   0.288   4.960   5.201
 1618SOL     OW 4878   1.614   5.016   5.013
 1618SOL    HW1 4879   1.674   5.019   5.093
 1618SOL    HW2 4880   1.539   5.080   5.026
 1619SOL     OW 4881   1.039   4.822   4.420
 1619SOL    HW1 4882   0.969   4.775   4.474
 1619SOL    HW2 4883   1.098   4.754   4.377
 1620SOL     OW 4884   1.014   3.960   4.695
 1620SOL    HW1 4885   1.006   3.924   4.602
 1620SOL    HW2 4886   1.012   3.884   4.760
 1621SOL     OW 4887   1.709   4.109   5.105
 1621SOL    HW1 4888   1.782   4.178   5.109
 1621SOL    HW2 4889   1.737   4.034   5.046
 1622SOL     OW 4890   0.672   3.927   5.213
 1622SOL    HW1 4891   0.762   3.911   5.173
 1622SOL    HW2 4892   0.680   3.932   5.312
 1623SOL     OW 4893   0.075   4.069   3.757
 1623SOL    HW1 4894  -0.017   4.041   3.728
 1623SOL    HW2 4895   0.106   4.146   3.701
 1624SOL     OW 4896   0.072   3.890   4.042
 1624SOL    HW1 4897   0.055   3.973   3.988
 1624SOL    HW2 4898   0.162   3.853   4.020
 1625SOL     OW 4899   1.183   5.059   3.843
 1625SOL    HW1 4900   1.084   5.048   3.845
 1625SOL    HW2 4901   1.217   5.074   3.936
 1626SOL     OW 4902   0.613   4.566   5.155
 1626SOL    HW1 4903   0.669   4.647   5.138
 1626SOL    HW2 4904   0.672   4.486   5.158
 1627SOL     OW 4905   1.674   4.607   4.978
 1627SOL    HW1 4906   1.647   4.518   4.941
 1627SOL    HW2 4907   1.675   4.675   4.905
 1628SOL     OW 4908   1.225   4.049   4.173
 1628SOL    HW1 4909   1.290   3.975   4.162
 1628SOL    HW2 4910   1.245   4.099   4.257
 1629SOL     OW 4911   0.594   4.469   4.376
 1629SOL    HW1 4912   0.644   4.554   4.357
 1629SOL    HW2 4913   0.506   4.471   4.328
 1630SOL     OW 4914   1.730   4.658   5.241
 1630SOL    HW1 4915   1.768   4.749   5.256
 1630SOL    HW2 4916   1.722   4.641   5.142
 1631SOL     OW 4917   0.859   5.098   3.740
 1631SOL    HW1 4918   0.813   5.113   3.828
 1631SOL    HW2 4919   0.903   5.183   3.710
 1632SOL     OW 4920   0.859   4.680   4.585
 1632SOL    HW1 4921   0.913   4.611   4.633
 1632SOL    HW2 4922   0.827   4.749   4.651
 1633SOL     OW 4923   1.083   4.708   3.811
 1633SOL    HW1 4924   1.060   4.761   3.729
 1633SOL    HW2 4925   1.164   4.652   3.792
 1634SOL     OW 4926   0.079   4.964   4.377
 1634SOL    HW1 4927   0.078   4.917   4.465
 1634SOL    HW2 4928   0.161   4.936   4.326
 1635SOL     OW 4929   1.824   3.916   4.951
 1635SOL    HW1 4930   1.820   3.826   4.995
 1635SOL    HW2 4931   1.827   3.905   4.852
 1636SOL     OW 4932   0.428   4.148   4.244
 1636SOL    HW1 4933   0.458   4.076   4.182
 1636SOL    HW2 4934   0.389   4.108   4.327
 1637SOL     OW 4935   1.705   5.211   4.828
 1637SOL    HW1 4936   1.612   5.186   4.801
 1637SOL    HW2 4937   1.731   5.161   4.910
 1638SOL     OW 4938   0.317   4.271   5.004
 1638SOL    HW1 4939   0.355   4.212   5.076
 1638SOL    HW2 4940   0.357   4.245   4.916
 1639SOL     OW 4941   1.424   3.938   4.836
 1639SOL    HW1 4942   1.476   3.873   4.891
 1639SOL    HW2 4943   1.375   4.001   4.897
 1640SOL     OW 4944   1.001   3.758   4.878
 1640SOL    HW1 4945   0.938   3.686   4.847
 1640SOL    HW2 4946   1.094   3.722   4.878
 1641SOL     OW 4947   0.770   5.054   4.025
 1641SOL    HW1 4948   0.724   4.967   4.042
 1641SOL    HW2 4949   0.861   5.051   4.066
 1642SOL     OW 4950   1.352   3.776   3.892
 1642SOL    HW1 4951   1.387   3.735   3.808
 1642SOL    HW2 4952   1.262   3.738   3.912
 1643SOL     OW 4953   1.300   4.177   4.415
 1643SOL    HW1 4954   1.241   4.257   4.419
 1643SOL    HW2 4955   1.315   4.142   4.508
 1644SOL     OW 4956   1.593   3.945   4.606
 1644SOL    HW1 4957   1.509   3.944   4.660
 1644SOL    HW2 4958   1.595   4.028   4.550
 1645SOL     OW 4959   0.039   4.801   4.024
 1645SOL    HW1 4960   0.138   4.790   4.015
 1645SOL    HW2 4961  -0.001   4.715   4.056
 1646SOL     OW 4962   2.092   0.628   0.113
 1646SOL    HW1 4963   1.999   0.626   0.150
 1646SOL    HW2 4964   2.093   0.589   0.021
 1647SOL     OW 4965   2.087   0.275   0.996
 1647SOL    HW1 4966   2.122   0.258   1.088
 1647SOL    HW2 4967   1.999   0.230   0.984
 1648SOL     OW 4968   1.881   0.368   0.647
 1648SOL    HW1 4969   1.799   0.411   0.686
 1648SOL    HW2 4970   1.853   0.295   0.584
 1649SOL     OW 4971   2.431   1.275   1.165
 1649SOL    HW1 4972   2.338   1.268   1.128
 1649SOL    HW2 4973   2.442   1.364   1.209
 1650SOL     OW 4974   3.417   1.511   0.703
 1650SOL    HW1 4975   3.360   1.495   0.784
 1650SOL    HW2 4976   3.358   1.521   0.623
 1651SOL     OW 4977   2.997   0.703   0.717
 1651SOL    HW1 4978   3.054   0.781   0.692
 1651SOL    HW2 4979   2.937   0.729   0.793
 1652SOL     OW 4980   3.617   0.607   0.231
 1652SOL    HW1 4981   3.605   0.594   0.132
 1652SOL    HW2 4982   3.587   0.526   0.280
 1653SOL     OW 4983   2.630   1.144   1.023
 1653SOL    HW1 4984   2.552   1.161   1.083
 1653SOL    HW2 4985   2.664   1.231   0.987
 1654SOL     OW 4986   2.712   0.798   1.823
 1654SOL    HW1 4987   2.708   0.874   1.888
 1654SOL    HW2 4988   2.734   0.834   1.732
 1655SOL     OW 4989   2.547   1.012   0.665
 1655SOL    HW1 4990   2.616   0.996   0.735
 1655SOL    HW2 4991   2.474   1.069   0.703
 1656SOL     OW 4992   2.548   1.161   1.803
 1656SOL    HW1 4993   2.608   1.240   1.817
 1656SOL    HW2 4994   2.462   1.192   1.762
 1657SOL     OW 4995   2.197   1.435   1.061
 1657SOL    HW1 4996   2.119   1.404   1.008
 1657SOL    HW2 4997   2.255   1.493   1.004
 1658SOL     OW 4998   3.322   1.505   1.339
 1658SOL    HW1 4999   3.346   1.599   1.365
 1658SOL    HW2 5000   3.306   1.451   1.421
 1659SOL     OW 5001   2.300   0.392   1.499
 1659SOL    HW1 5002   2.382   0.336   1.508
 1659SOL    HW2 5003   2.219   0.334   1.503
 1660SOL     OW 5004   3.465   0.447   0.737
 1660SOL    HW1 5005   3.391   0.493   0.687
 1660SOL    HW2 5006   3.516   0.515   0.790
 1661SOL     OW 5007   2.093   1.713   0.483
 1661SOL    HW1 5008   2.127   1.790   0.537
 1661SOL    HW2 5009   2.137   1.713   0.393
 1662SOL     OW 5010   2.989   1.341   1.690
 1662SOL    HW1 5011   3.036   1.341   1.778
 1662SOL    HW2 5012   2.941   1.254   1.679
 1663SOL     OW 5013   2.092   1.434   0.538
 1663SOL    HW1 5014   2.066   1.530   0.538
 1663SOL    HW2 5015   2.021   1.380   0.583
 1664SOL     OW 5016   2.102   1.091   0.886
 1664SOL    HW1 5017   2.116   1.007   0.938
 1664SOL    HW2 5018   2.047   1.155   0.941
 1665SOL     OW 5019   2.482   1.786   1.439
 1665SOL    HW1 5020   2.390   1.769   1.474
 1665SOL    HW2 5021   2.510   1.878   1.465
 1666SOL     OW 5022   2.468   0.964   0.123
 1666SOL    HW1 5023   2.475   1.048   0.069
 1666SOL    HW2 5024   2.514   0.977   0.211
 1667SOL     OW 5025   3.456   0.114   1.480
 1667SOL    HW1 5026   3.438   0.181   1.408
 1667SOL    HW2 5027   3.453   0.160   1.569
 1668SOL     OW 5028   1.984   0.643   0.563
 1668SOL    HW1 5029   1.939   0.555   0.580
 1668SOL    HW2 5030   1.983   0.697   0.647
 1669SOL     OW 5031   3.704   1.767   0.359
 1669SOL    HW1 5032   3.758   1.738   0.439
 1669SOL    HW2 5033   3.734   1.857   0.330
 1670SOL     OW 5034   1.889   1.596   0.117
 1670SOL    HW1 5035   1.870   1.500   0.138
 1670SOL    HW2 5036   1.856   1.654   0.192
 1671SOL     OW 5037   3.551   0.922   0.612
 1671SOL    HW1 5038   3.646   0.893   0.620
 1671SOL    HW2 5039   3.543   0.987   0.537
 1672SOL     OW 5040   3.503   1.108   0.432
 1672SOL    HW1 5041   3.589   1.110   0.380
 1672SOL    HW2 5042   3.517   1.155   0.520
 1673SOL     OW 5043   1.975   0.737   1.597
 1673SOL    HW1 5044   2.063   0.724   1.642
 1673SOL    HW2 5045   1.962   0.834   1.575
 1674SOL     OW 5046   2.475   1.365   0.726
 1674SOL    HW1 5047   2.426   1.278   0.735
 1674SOL    HW2 5048   2.452   1.408   0.639
 1675SOL     OW 5049   3.155   1.228   1.423
 1675SOL    HW1 5050   3.192   1.155   1.365
 1675SOL    HW2 5051   3.207   1.233   1.508
 1676SOL     OW 5052   2.671   0.004   0.502
 1676SOL    HW1 5053   2.711   0.095   0.493
 1676SOL    HW2 5054   2.571   0.012   0.508
 1677SOL     OW 5055   2.059   0.976   1.264
 1677SOL    HW1 5056   2.148   0.931   1.250
 1677SOL    HW2 5057   1.986   0.911   1.245
 1678SOL     OW 5058   3.387   0.999   0.190
 1678SOL    HW1 5059   3.324   0.923   0.203
 1678SOL    HW2 5060   3.435   1.017   0.276
 1679SOL     OW 5061   3.049   1.792   1.616
 1679SOL    HW1 5062   3.073   1.852   1.540
 1679SOL    HW2 5063   3.056   1.697   1.586
 1680SOL     OW 5064   2.179   0.251   1.801
 1680SOL    HW1 5065   2.250   0.322   1.807
 1680SOL    HW2 5066   2.091   0.290   1.829
 1681SOL     OW 5067   3.328   1.417   0.953
 1681SOL    HW1 5068   3.269   1.423   1.033
 1681SOL    HW2 5069   3.313   1.329   0.907
 1682SOL     OW 5070   3.529   1.714   0.572
 1682SOL    HW1 5071   3.488   1.691   0.484
 1682SOL    HW2 5072   3.511   1.640   0.637
 1683SOL     OW 5073   2.460   0.729   0.270
 1683SOL    HW1 5074   2.484   0.798   0.202
 1683SOL    HW2 5075   2.382   0.762   0.324
 1684SOL     OW 5076   3.143   0.345   0.944
 1684SOL    HW1 5077   3.057   0.295   0.931
 1684SOL    HW2 5078   3.205   0.291   1.000
 1685SOL     OW 5079   3.438   1.662   0.307
 1685SOL    HW1 5080   3.527   1.708   0.310
 1685SOL    HW2 5081   3.417   1.638   0.212
 1686SOL     OW 5082   2.669   0.605   1.465
 1686SOL    HW1 5083   2.622   0.602   1.554
 1686SOL    HW2 5084   2.618   0.550   1.399
 1687SOL     OW 5085   3.256   0.469   1.674
 1687SOL    HW1 5086   3.236   0.512   1.762
 1687SOL    HW2 5087   3.334   0.407   1.683
 1688SOL     OW 5088   2.835   0.890   1.572
 1688SOL    HW1 5089   2.881   0.806   1.543
 1688SOL    HW2 5090   2.779   0.924   1.497
 1689SOL     OW 5091   2.853   0.410   1.242
 1689SOL    HW1 5092   2.776   0.444   1.296
 1689SOL    HW2 5093   2.819   0.359   1.163
 1690SOL     OW 5094   2.903   0.701   0.429
 1690SOL    HW1 5095   2.929   0.697   0.525
 1690SOL    HW2 5096   2.818   0.650   0.415
 1691SOL     OW 5097   1.938   0.811   0.789
 1691SOL    HW1 5098   2.037   0.799   0.798
 1691SOL    HW2 5099   1.914   0.906   0.810
 1692SOL     OW 5100   1.992   1.821   1.571
 1692SOL    HW1 5101   1.982   1.806   1.670
 1692SOL    HW2 5102   1.906   1.857   1.535
 1693SOL     OW 5103   2.727   0.348   0.195
 1693SOL    HW1 5104   2.786   0.411   0.146
 1693SOL    HW2 5105   2.746   0.254   0.166
 1694SOL     OW 5106   3.581   0.585   1.831
 1694SOL    HW1 5107   3.555   0.674   1.795
 1694SOL    HW2 5108   3.579   0.517   1.758
 1695SOL     OW 5109   3.224   1.144   0.545
 1695SOL    HW1 5110   3.307   1.115   0.497
 1695SOL    HW2 5111   3.175   1.211   0.489
 1696SOL     OW 5112   2.412   0.196   0.885
 1696SOL    HW1 5113   2.407   0.191   0.985
 1696SOL    HW2 5114   2.414   0.292   0.856
 1697SOL     OW 5115   2.870   1.456   0.477
 1697SOL    HW1 5116   2.824   1.528   0.425
 1697SOL    HW2 5117   2.866   1.476   0.575
 1698SOL     OW 5118   2.213   1.801   0.853
 1698SOL    HW1 5119   2.263   1.715   0.859
 1698SOL    HW2 5120   2.278   1.878   0.850
 1699SOL     OW 5121   3.657   1.066   0.873
 1699SOL    HW1 5122   3.595   1.051   0.797
 1699SOL    HW2 5123   3.605   1.077   0.958
 1700SOL     OW 5124   3.089   1.550   1.506
 1700SOL    HW1 5125   3.095   1.473   1.570
 1700SOL    HW2 5126   3.037   1.524   1.426
 1701SOL     OW 5127   2.183   0.943   0.242
 1701SOL    HW1 5128   2.265   0.982   0.200
 1701SOL    HW2 5129   2.156   0.861   0.193
 1702SOL     OW 5130   3.320   0.735   0.728
 1702SOL    HW1 5131   3.315   0.670   0.803
 1702SOL    HW2 5132   3.400   0.794   0.741
 1703SOL     OW 5133   2.323   1.266   1.727
 1703SOL    HW1 5134   2.273   1.267   1.641
 1703SOL    HW2 5135   2.260   1.248   1.803
 1704SOL     OW 5136   2.973   1.776   0.237
 1704SOL    HW1 5137   2.913   1.714   0.287
 1704SOL    HW2 5138   3.004   1.732   0.152
 1705SOL     OW 5139   2.064   0.285   1.498
 1705SOL    HW1 5140   1.984   0.345   1.485
 1705SOL    HW2 5141   2.054   0.236   1.584
 1706SOL     OW 5142   3.494   1.377   0.081
 1706SOL    HW1 5143   3.462   1.471   0.071
 1706SOL    HW2 5144   3.418   1.314   0.069
 1707SOL     OW 5145   2.326   1.743   0.323
 1707SOL    HW1 5146   2.359   1.782   0.409
 1707SOL    HW2 5147   2.402   1.736   0.258
 1708SOL     OW 5148   3.262   0.107   0.426
 1708SOL    HW1 5149   3.238   0.070   0.336
 1708SOL    HW2 5150   3.361   0.123   0.430
 1709SOL     OW 5151   2.111   1.785   1.241
 1709SOL    HW1 5152   2.168   1.720   1.291
 1709SOL    HW2 5153   2.095   1.752   1.148
 1710SOL     OW 5154   2.802   1.698   0.904
 1710SOL    HW1 5155   2.882   1.641   0.925
 1710SOL    HW2 5156   2.753   1.658   0.827
 1711SOL     OW 5157   2.244   0.700   0.480
 1711SOL    HW1 5158   2.289   0.610   0.477
 1711SOL    HW2 5159   2.150   0.689   0.513
 1712SOL     OW 5160   3.409   0.222   1.729
 1712SOL    HW1 5161   3.404   0.259   1.821
 1712SOL    HW2 5162   3.337   0.153   1.717
 1713SOL     OW 5163   2.476   0.122   0.117
 1713SOL    HW1 5164   2.574   0.100   0.124
 1713SOL    HW2 5165   2.445   0.105   0.024
 1714SOL     OW 5166   2.643   0.264   1.749
 1714SOL    HW1 5167   2.710   0.203   1.792
 1714SOL    HW2 5168   2.570   0.283   1.814
 1715SOL     OW 5169   2.750   1.514   1.195
 1715SOL    HW1 5170   2.727   1.489   1.101
 1715SOL    HW2 5171   2.811   1.445   1.234
 1716SOL     OW 5172   3.213   0.590   1.433
 1716SOL    HW1 5173   3.241   0.547   1.518
 1716SOL    HW2 5174   3.238   0.686   1.434
 1717SOL     OW 5175   2.665   1.402   0.924
 1717SOL    HW1 5176   2.755   1.416   0.882
 1717SOL    HW2 5177   2.594   1.404   0.853
 1718SOL     OW 5178   2.784   0.503   0.899
 1718SOL    HW1 5179   2.759   0.494   0.803
 1718SOL    HW2 5180   2.832   0.421   0.930
 1719SOL     OW 5181   2.401   0.064   0.512
 1719SOL    HW1 5182   2.320   0.065   0.570
 1719SOL    HW2 5183   2.404   0.147   0.457
 1720SOL     OW 5184   3.296   1.188   0.041
 1720SOL    HW1 5185   3.328   1.112   0.098
 1720SOL    HW2 5186   3.204   1.215   0.071
 1721SOL     OW 5187   2.159   0.035   0.171
 1721SOL    HW1 5188   2.208   0.119   0.150
 1721SOL    HW2 5189   2.221  -0.030   0.216
 1722SOL     OW 5190   2.797   0.236   0.480
 1722SOL    HW1 5191   2.749   0.277   0.402
 1722SOL    HW2 5192   2.896   0.234   0.461
 1723SOL     OW 5193   2.938   0.683   1.464
 1723SOL    HW1 5194   2.858   0.622   1.467
 1723SOL    HW2 5195   3.019   0.630   1.440
 1724SOL     OW 5196   3.089   1.570   0.793
 1724SOL    HW1 5197   3.110   1.644   0.728
 1724SOL    HW2 5198   3.157   1.570   0.866
 1725SOL     OW 5199   2.321   1.152   0.741
 1725SOL    HW1 5200   2.250   1.125   0.806
 1725SOL    HW2 5201   2.295   1.124   0.648
 1726SOL     OW 5202   3.133   1.797   0.591
 1726SOL    HW1 5203   3.177   1.861   0.527
 1726SOL    HW2 5204   3.083   1.849   0.661
 1727SOL     OW 5205   2.894   0.549   0.016
 1727SOL    HW1 5206   2.853   0.631  -0.023
 1727SOL    HW2 5207   2.958   0.575   0.089
 1728SOL     OW 5208   1.940   0.556   1.386
 1728SOL    HW1 5209   2.032   0.555   1.345
 1728SOL    HW2 5210   1.934   0.630   1.453
 1729SOL     OW 5211   2.423   0.222   1.147
 1729SOL    HW1 5212   2.461   0.138   1.184
 1729SOL    HW2 5213   2.335   0.241   1.191
 1730SOL     OW 5214   2.728   0.454   0.642
 1730SOL    HW1 5215   2.696   0.526   0.580
 1730SOL    HW2 5216   2.752   0.373   0.589
 1731SOL     OW 5217   2.879   0.039   0.753
 1731SOL    HW1 5218   2.807   0.044   0.684
 1731SOL    HW2 5219   2.855  -0.030   0.822
 1732SOL     OW 5220   3.291   1.173   0.867
 1732SOL    HW1 5221   3.236   1.089   0.860
 1732SOL    HW2 5222   3.317   1.202   0.775
 1733SOL     OW 5223   3.328   0.590   0.992
 1733SOL    HW1 5224   3.298   0.495   0.999
 1733SOL    HW2 5225   3.401   0.606   1.058
 1734SOL     OW 5226   3.719   0.833   0.377
 1734SOL    HW1 5227   3.761   0.769   0.441
 1734SOL    HW2 5228   3.681   0.782   0.299
 1735SOL     OW 5229   2.350   1.385   0.174
 1735SOL    HW1 5230   2.263   1.370   0.221
 1735SOL    HW2 5231   2.333   1.411   0.079
 1736SOL     OW 5232   3.526   1.280   0.657
 1736SOL    HW1 5233   3.625   1.288   0.671
 1736SOL    HW2 5234   3.481   1.364   0.688
 1737SOL     OW 5235   3.252   0.575   0.078
 1737SOL    HW1 5236   3.198   0.554   0.159
 1737SOL    HW2 5237   3.343   0.534   0.087
 1738SOL     OW 5238   2.389   0.256   0.328
 1738SOL    HW1 5239   2.416   0.197   0.253
 1738SOL    HW2 5240   2.389   0.351   0.297
 1739SOL     OW 5241   3.616   1.223   1.588
 1739SOL    HW1 5242   3.707   1.184   1.575
 1739SOL    HW2 5243   3.624   1.319   1.612
 1740SOL     OW 5244   2.926   1.347   1.340
 1740SOL    HW1 5245   2.846   1.324   1.395
 1740SOL    HW2 5246   3.009   1.321   1.389
 1741SOL     OW 5247   3.454   1.629   1.625
 1741SOL    HW1 5248   3.481   1.663   1.535
 1741SOL    HW2 5249   3.533   1.591   1.671
 1742SOL     OW 5250   2.973   1.195   1.100
 1742SOL    HW1 5251   2.933   1.239   1.181
 1742SOL    HW2 5252   2.932   1.232   1.017
 1743SOL     OW 5253   3.500   1.099   1.079
 1743SOL    HW1 5254   3.505   1.180   1.138
 1743SOL    HW2 5255   3.414   1.101   1.028
 1744SOL     OW 5256   2.777   0.089   1.402
 1744SOL    HW1 5257   2.802   0.069   1.307
 1744SOL    HW2 5258   2.849   0.145   1.444
 1745SOL     OW 5259   2.842   1.116   1.719
 1745SOL    HW1 5260   2.743   1.122   1.729
 1745SOL    HW2 5261   2.865   1.036   1.663
 1746SOL     OW 5262   2.567   1.050   0.368
 1746SOL    HW1 5263   2.553   1.057   0.467
 1746SOL    HW2 5264   2.651   0.999   0.350
 1747SOL     OW 5265   2.272   0.813   1.251
 1747SOL    HW1 5266   2.358   0.825   1.301
 1747SOL    HW2 5267   2.230   0.726   1.278
 1748SOL     OW 5268   3.136   0.386   1.262
 1748SOL    HW1 5269   3.157   0.460   1.326
 1748SOL    HW2 5270   3.047   0.403   1.219
 1749SOL     OW 5271   1.926   1.564   1.331
 1749SOL    HW1 5272   1.880   1.646   1.297
 1749SOL    HW2 5273   2.024   1.583   1.340
 1750SOL     OW 5274   2.229   1.100   0.501
 1750SOL    HW1 5275   2.222   1.183   0.445
 1750SOL    HW2 5276   2.233   1.020   0.441
 1751SOL     OW 5277   2.428   0.537   0.865
 1751SOL    HW1 5278   2.440   0.603   0.791
 1751SOL    HW2 5279   2.474   0.571   0.948
 1752SOL     OW 5280   3.114   1.348   0.388
 1752SOL    HW1 5281   3.164   1.425   0.428
 1752SOL    HW2 5282   3.019   1.350   0.420
 1753SOL     OW 5283   3.134   1.445   1.142
 1753SOL    HW1 5284   3.181   1.458   1.229
 1753SOL    HW2 5285   3.068   1.371   1.151
 1754SOL     OW 5286   3.444   0.639   0.472
 1754SOL    HW1 5287   3.413   0.700   0.545
 1754SOL    HW2 5288   3.494   0.691   0.403
 1755SOL     OW 5289   2.216   1.510   1.329
 1755SOL    HW1 5290   2.195   1.466   1.242
 1755SOL    HW2 5291   2.313   1.536   1.332
 1756SOL     OW 5292   2.264   0.751   1.598
 1756SOL    HW1 5293   2.332   0.806   1.551
 1756SOL    HW2 5294   2.304   0.663   1.625
 1757SOL     OW 5295   3.449   0.779   1.670
 1757SOL    HW1 5296   3.357   0.817   1.665
 1757SOL    HW2 5297   3.509   0.826   1.605
 1758SOL     OW 5298   2.875   0.105   1.770
 1758SOL    HW1 5299   2.881   0.190   1.718
 1758SOL    HW2 5300   2.907   0.029   1.713
 1759SOL     OW 5301   2.366   0.050   1.740
 1759SOL    HW1 5302   2.324  -0.007   1.670
 1759SOL    HW2 5303   2.300   0.119   1.772
 1760SOL     OW 5304   2.435   0.870   1.029
 1760SOL    HW1 5305   2.479   0.959   1.020
 1760SOL    HW2 5306   2.372   0.870   1.106
 1761SOL     OW 5307   3.222   0.862   1.045
 1761SOL    HW1 5308   3.147   0.862   0.979
 1761SOL    HW2 5309   3.259   0.770   1.054
 1762SOL     OW 5310   3.071   0.525   0.275
 1762SOL    HW1 5311   3.084   0.441   0.329
 1762SOL    HW2 5312   3.042   0.599   0.335
 1763SOL     OW 5313   2.169   0.213   1.231
 1763SOL    HW1 5314   2.146   0.250   1.321
 1763SOL    HW2 5315   2.139   0.118   1.225
 1764SOL     OW 5316   1.899   1.310   1.282
 1764SOL    HW1 5317   1.952   1.261   1.350
 1764SOL    HW2 5318   1.921   1.408   1.287
 1765SOL     OW 5319   2.594   0.634   1.064
 1765SOL    HW1 5320   2.653   0.608   0.988
 1765SOL    HW2 5321   2.566   0.730   1.053
 1766SOL     OW 5322   3.590   0.935   1.854
 1766SOL    HW1 5323   3.544   0.928   1.765
 1766SOL    HW2 5324   3.528   0.979   1.920
 1767SOL     OW 5325   2.169   0.063   0.618
 1767SOL    HW1 5326   2.158   0.157   0.651
 1767SOL    HW2 5327   2.164   0.000   0.695
 1768SOL     OW 5328   3.484   0.367   0.374
 1768SOL    HW1 5329   3.486   0.291   0.438
 1768SOL    HW2 5330   3.436   0.444   0.414
 1769SOL     OW 5331   2.885   0.766   0.966
 1769SOL    HW1 5332   2.900   0.787   1.062
 1769SOL    HW2 5333   2.855   0.671   0.957
 1770SOL     OW 5334   2.842   1.573   1.700
 1770SOL    HW1 5335   2.822   1.617   1.612
 1770SOL    HW2 5336   2.881   1.482   1.684
 1771SOL     OW 5337   3.721   1.518   1.605
 1771SOL    HW1 5338   3.735   1.545   1.510
 1771SOL    HW2 5339   3.804   1.540   1.658
 1772SOL     OW 5340   2.212   0.898   1.804
 1772SOL    HW1 5341   2.288   0.942   1.852
 1772SOL    HW2 5342   2.247   0.851   1.722
 1773SOL     OW 5343   3.402   0.274   0.125
 1773SOL    HW1 5344   3.341   0.199   0.148
 1773SOL    HW2 5345   3.424   0.326   0.208
 1774SOL     OW 5346   3.165   0.838   0.042
 1774SOL    HW1 5347   3.199   0.745   0.057
 1774SOL    HW2 5348   3.183   0.865  -0.053
 1775SOL     OW 5349   2.930   1.333   0.849
 1775SOL    HW1 5350   2.937   1.249   0.794
 1775SOL    HW2 5351   2.992   1.402   0.813
 1776SOL     OW 5352   2.181   0.810   0.949
 1776SOL    HW1 5353   2.274   0.846   0.954
 1776SOL    HW2 5354   2.175   0.725   1.001
 1777SOL     OW 5355   2.201   0.509   1.006
 1777SOL    HW1 5356   2.149   0.426   0.989
 1777SOL    HW2 5357   2.278   0.514   0.942
 1778SOL     OW 5358   3.000   0.380   1.678
 1778SOL    HW1 5359   2.955   0.443   1.742
 1778SOL    HW2 5360   3.093   0.411   1.661
 1779SOL     OW 5361   3.022   0.207   1.477
 1779SOL    HW1 5362   3.022   0.271   1.554
 1779SOL    HW2 5363   3.050   0.255   1.394
 1780SOL     OW 5364   1.950   1.801   0.927
 1780SOL    HW1 5365   1.908   1.715   0.900
 1780SOL    HW2 5366   2.044   1.804   0.893
 1781SOL     OW 5367   2.366   1.568   0.910
 1781SOL    HW1 5368   2.432   1.642   0.919
 1781SOL    HW2 5369   2.410   1.489   0.868
 1782SOL     OW 5370   2.864   0.796   1.238
 1782SOL    HW1 5371   2.905   0.764   1.324
 1782SOL    HW2 5372   2.768   0.769   1.235
 1783SOL     OW 5373   1.902   0.544   1.114
 1783SOL    HW1 5374   1.987   0.511   1.073
 1783SOL    HW2 5375   1.915   0.559   1.212
 1784SOL     OW 5376   2.051   0.520   1.722
 1784SOL    HW1 5377   2.110   0.480   1.652
 1784SOL    HW2 5378   1.993   0.591   1.681
 1785SOL     OW 5379   3.231   0.950   1.660
 1785SOL    HW1 5380   3.270   1.039   1.680
 1785SOL    HW2 5381   3.241   0.930   1.563
 1786SOL     OW 5382   2.677   0.572   0.325
 1786SOL    HW1 5383   2.684   0.483   0.279
 1786SOL    HW2 5384   2.583   0.606   0.317
 1787SOL     OW 5385   3.519   0.604   1.206
 1787SOL    HW1 5386   3.481   0.535   1.268
 1787SOL    HW2 5387   3.601   0.568   1.162
 1788SOL     OW 5388   2.114   1.564   1.744
 1788SOL    HW1 5389   2.084   1.621   1.820
 1788SOL    HW2 5390   2.107   1.467   1.770
 1789SOL     OW 5391   2.533   0.464   1.269
 1789SOL    HW1 5392   2.499   0.375   1.239
 1789SOL    HW2 5393   2.559   0.518   1.189
 1790SOL     OW 5394   2.792   1.678   1.465
 1790SOL    HW1 5395   2.768   1.660   1.370
 1790SOL    HW2 5396   2.822   1.772   1.475
 1791SOL     OW 5397   2.335   0.500   0.191
 1791SOL    HW1 5398   2.396   0.580   0.195
 1791SOL    HW2 5399   2.240   0.531   0.198
 1792SOL     OW 5400   2.021   1.137   1.466
 1792SOL    HW1 5401   2.043   1.076   1.542
 1792SOL    HW2 5402   2.031   1.088   1.380
 1793SOL     OW 5403   3.209   1.059   1.234
 1793SOL    HW1 5404   3.233   0.996   1.160
 1793SOL    HW2 5405   3.119   1.099   1.216
 1794SOL     OW 5406   3.164   0.855   0.309
 1794SOL    HW1 5407   3.078   0.824   0.351
 1794SOL    HW2 5408   3.160   0.841   0.210
 1795SOL     OW 5409   3.621   1.747   1.154
 1795SOL    HW1 5410   3.682   1.777   1.081
 1795SOL    HW2 5411   3.583   1.658   1.132
 1796SOL     OW 5412   3.114   1.731   1.128
 1796SOL    HW1 5413   3.198   1.736   1.074
 1796SOL    HW2 5414   3.091   1.635   1.146
 1797SOL     OW 5415   1.945   1.258   1.022
 1797SOL    HW1 5416   1.940   1.257   1.122
 1797SOL    HW2 5417   1.862   1.217   0.984
 1798SOL     OW 5418   2.550   1.662   1.716
 1798SOL    HW1 5419   2.494   1.743   1.725
 1798SOL    HW2 5420   2.602   1.666   1.630
 1799SOL     OW 5421   2.765   0.086   0.133
 1799SOL    HW1 5422   2.816   0.087   0.047
 1799SOL    HW2 5423   2.821   0.044   0.204
 1800SOL     OW 5424   3.588   0.135   0.523
 1800SOL    HW1 5425   3.661   0.118   0.456
 1800SOL    HW2 5426   3.557   0.048   0.561
 1801SOL     OW 5427   3.250   1.573   0.477
 1801SOL    HW1 5428   3.317   1.585   0.403
 1801SOL    HW2 5429   3.210   1.662   0.500
 1802SOL     OW 5430   1.992   1.794   1.851
 1802SOL    HW1 5431   1.951   1.720   1.904
 1802SOL    HW2 5432   2.056   1.845   1.909
 1803SOL     OW 5433   3.142   0.927   0.672
 1803SOL    HW1 5434   3.202   0.846   0.674
 1803SOL    HW2 5435   3.182   0.996   0.612
 1804SOL     OW 5436   2.692   1.273   1.422
 1804SOL    HW1 5437   2.687   1.306   1.517
 1804SOL    HW2 5438   2.606   1.292   1.376
 1805SOL     OW 5439   2.534   1.616   0.154
 1805SOL    HW1 5440   2.543   1.626   0.055
 1805SOL    HW2 5441   2.494   1.527   0.175
 1806SOL     OW 5442   3.512   1.720   1.394
 1806SOL    HW1 5443   3.565   1.730   1.310
 1806SOL    HW2 5444   3.485   1.810   1.428
 1807SOL     OW 5445   3.703   0.175   0.963
 1807SOL    HW1 5446   3.742   0.090   0.927
 1807SOL    HW2 5447   3.605   0.177   0.944
 1808SOL     OW 5448   2.125   0.326   0.720
 1808SOL    HW1 5449   2.046   0.377   0.686
 1808SOL    HW2 5450   2.116   0.311   0.818
 1809SOL     OW 5451   3.056   1.612   0.031
 1809SOL    HW1 5452   3.062   1.519   0.068
 1809SOL    HW2 5453   2.997   1.612  -0.049
 1810SOL     OW 5454   2.684   1.002   1.372
 1810SOL    HW1 5455   2.724   1.001   1.280
 1810SOL    HW2 5456   2.694   1.094   1.412
 1811SOL     OW 5457   2.778   0.910   0.291
 1811SOL    HW1 5458   2.841   0.948   0.223
 1811SOL    HW2 5459   2.818   0.827   0.330
 1812SOL     OW 5460   3.366   1.607   0.044
 1812SOL    HW1 5461   3.274   1.644   0.051
 1812SOL    HW2 5462   3.404   1.627  -0.046
 1813SOL     OW 5463   2.234   1.288   1.490
 1813SOL    HW1 5464   2.221   1.381   1.456
 1813SOL    HW2 5465   2.150   1.236   1.477
 1814SOL     OW 5466   3.476   1.292   1.289
 1814SOL    HW1 5467   3.536   1.295   1.369
 1814SOL    HW2 5468   3.401   1.356   1.302
 1815SOL     OW 5469   2.901   1.098   0.696
 1815SOL    HW1 5470   2.831   1.051   0.750
 1815SOL    HW2 5471   2.960   1.030   0.653
 1816SOL     OW 5472   2.876   0.236   0.971
 1816SOL    HW1 5473   2.868   0.200   0.878
 1816SOL    HW2 5474   2.874   0.160   1.036
 1817SOL     OW 5475   2.452   1.487   0.491
 1817SOL    HW1 5476   2.494   1.429   0.421
 1817SOL    HW2 5477   2.408   1.566   0.447
 1818SOL     OW 5478   3.571   0.385   1.381
 1818SOL    HW1 5479   3.644   0.454   1.385
 1818SOL    HW2 5480   3.599   0.310   1.322
 1819SOL     OW 5481   2.117   1.348   0.290
 1819SOL    HW1 5482   2.021   1.349   0.263
 1819SOL    HW2 5483   2.129   1.401   0.374
 1820SOL     OW 5484   1.967   1.013   1.726
 1820SOL    HW1 5485   1.890   0.980   1.780
 1820SOL    HW2 5486   2.052   0.983   1.768
 1821SOL     OW 5487   2.534   0.203   1.489
 1821SOL    HW1 5488   2.624   0.187   1.449
 1821SOL    HW2 5489   2.542   0.208   1.588
 1822SOL     OW 5490   1.937   0.345   0.033
 1822SOL    HW1 5491   1.845   0.317   0.004
 1822SOL    HW2 5492   1.968   0.422  -0.023
 1823SOL     OW 5493   3.302   0.856   1.398
 1823SOL    HW1 5494   3.245   0.908   1.335
 1823SOL    HW2 5495   3.398   0.868   1.374
 1824SOL     OW 5496   1.934   0.166   0.318
 1824SOL    HW1 5497   1.917   0.249   0.264
 1824SOL    HW2 5498   2.024   0.129   0.296
 1825SOL     OW 5499   3.045   1.335   0.119
 1825SOL    HW1 5500   2.946   1.324   0.121
 1825SOL    HW2 5501   3.079   1.350   0.212
 1826SOL     OW 5502   2.475   0.842   1.431
 1826SOL    HW1 5503   2.531   0.923   1.414
 1826SOL    HW2 5504   2.534   0.762   1.434
 1827SOL     OW 5505   3.355   1.767   0.959
 1827SOL    HW1 5506   3.388   1.831   0.890
 1827SOL    HW2 5507   3.421   1.761   1.034
 1828SOL     OW 5508   2.578   0.565   1.708
 1828SOL    HW1 5509   2.597   0.630   1.782
 1828SOL    HW2 5510   2.638   0.485   1.717
 1829SOL     OW 5511   3.312   1.220   1.633
 1829SOL    HW1 5512   3.303   1.210   1.732
 1829SOL    HW2 5513   3.408   1.213   1.607
 1830SOL     OW 5514   2.252   1.741   1.560
 1830SOL    HW1 5515   2.161   1.782   1.558
 1830SOL    HW2 5516   2.245   1.647   1.592
 1831SOL     OW 5517   3.536   0.883   1.254
 1831SOL    HW1 5518   3.509   0.794   1.217
 1831SOL    HW2 5519   3.537   0.951   1.181
 1832SOL     OW 5520   3.087   0.325   0.449
 1832SOL    HW1 5521   3.152   0.251   0.438
 1832SOL    HW2 5522   3.107   0.375   0.533
 1833SOL     OW 5523   2.456   0.745   0.652
 1833SOL    HW1 5524   2.506   0.830   0.633
 1833SOL    HW2 5525   2.368   0.747   0.604
 1834SOL     OW 5526   3.639   0.342   1.642
 1834SOL    HW1 5527   3.622   0.373   1.548
 1834SOL    HW2 5528   3.555   0.305   1.680
 1835SOL     OW 5529   3.592   0.934   1.517
 1835SOL    HW1 5530   3.630   1.025   1.532
 1835SOL    HW2 5531   3.584   0.917   1.418
 1836SOL     OW 5532   2.721   1.374   0.016
 1836SOL    HW1 5533   2.675   1.389   0.104
 1836SOL    HW2 5534   2.765   1.459  -0.014
 1837SOL     OW 5535   2.523   1.790   0.953
 1837SOL    HW1 5536   2.477   1.878   0.940
 1837SOL    HW2 5537   2.622   1.802   0.946
 1838SOL     OW 5538   2.721   0.956   0.861
 1838SOL    HW1 5539   2.775   0.887   0.909
 1838SOL    HW2 5540   2.689   1.025   0.927
 1839SOL     OW 5541   2.945   0.984   0.087
 1839SOL    HW1 5542   2.922   1.037   0.005
 1839SOL    HW2 5543   3.026   0.928   0.068
 1840SOL     OW 5544   3.723   1.569   0.851
 1840SOL    HW1 5545   3.652   1.557   0.781
 1840SOL    HW2 5546   3.724   1.490   0.911
 1841SOL     OW 5547   2.083   1.314   1.844
 1841SOL    HW1 5548   2.018   1.241   1.823
 1841SOL    HW2 5549   2.087   1.328   1.942
 1842SOL     OW 5550   1.941   1.240   0.653
 1842SOL    HW1 5551   1.940   1.193   0.741
 1842SOL    HW2 5552   2.023   1.212   0.602
 1843SOL     OW 5553   2.534   1.391   1.624
 1843SOL    HW1 5554   2.456   1.341   1.662
 1843SOL    HW2 5555   2.531   1.486   1.655
 1844SOL     OW 5556   3.686   0.192   1.227
 1844SOL    HW1 5557   3.682   0.102   1.271
 1844SOL    HW2 5558   3.689   0.181   1.128
 1845SOL     OW 5559   2.290   0.424   0.520
 1845SOL    HW1 5560   2.320   0.352   0.458
 1845SOL    HW2 5561   2.251   0.384   0.603
 1846SOL     OW 5562   3.567   1.487   1.104
 1846SOL    HW1 5563   3.474   1.462   1.077
 1846SOL    HW2 5564   3.593   1.437   1.186
 1847SOL     OW 5565   2.179   0.547   1.280
 1847SOL    HW1 5566   2.217   0.488   1.352
 1847SOL    HW2 5567   2.219   0.521   1.192
 1848SOL     OW 5568   2.674   1.586   0.687
 1848SOL    HW1 5569   2.706   1.596   0.593
 1848SOL    HW2 5570   2.595   1.524   0.689
 1849SOL     OW 5571   3.286   0.214   1.112
 1849SOL    HW1 5572   3.338   0.149   1.167
 1849SOL    HW2 5573   3.237   0.277   1.173
 1850SOL     OW 5574   2.863   0.034   1.154
 1850SOL    HW1 5575   2.800  -0.038   1.123
 1850SOL    HW2 5576   2.956  -0.002   1.154
 1851SOL     OW 5577   2.632   1.330   0.301
 1851SOL    HW1 5578   2.586   1.243   0.318
 1851SOL    HW2 5579   2.723   1.327   0.342
 1852SOL     OW 5580   2.480   1.567   1.284
 1852SOL    HW1 5581   2.475   1.649   1.341
 1852SOL    HW2 5582   2.569   1.564   1.239
 1853SOL     OW 5583   3.214   0.052   0.168
 1853SOL    HW1 5584   3.249   0.011   0.084
 1853SOL    HW2 5585   3.124   0.014   0.188
 1854SOL     OW 5586   3.162   0.453   0.691
 1854SOL    HW1 5587   3.103   0.533   0.695
 1854SOL    HW2 5588   3.177   0.418   0.784
 1855SOL     OW 5589   3.455   0.221   0.882
 1855SOL    HW1 5590   3.371   0.220   0.936
 1855SOL    HW2 5591   3.457   0.304   0.826
 1856SOL     OW 5592   1.901   1.077   0.300
 1856SOL    HW1 5593   2.000   1.066   0.291
 1856SOL    HW2 5594   1.861   0.991   0.332
 1857SOL     OW 5595   2.737   1.646   0.337
 1857SOL    HW1 5596   2.660   1.611   0.283
 1857SOL    HW2 5597   2.705   1.717   0.399
 1858SOL     OW 5598   2.092   0.628   1.975
 1858SOL    HW1 5599   1.999   0.626   2.012
 1858SOL    HW2 5600   2.093   0.589   1.883
 1859SOL     OW 5601   2.087   0.275   2.858
 1859SOL    HW1 5602   2.122   0.258   2.950
 1859SOL    HW2 5603   1.999   0.230   2.846
 1860SOL     OW 5604   1.881   0.368   2.509
 1860SOL    HW1 5605   1.799   0.411   2.548
 1860SOL    HW2 5606   1.853   0.295   2.446
 1861SOL     OW 5607   2.431   1.275   3.027
 1861SOL    HW1 5608   2.338   1.268   2.990
 1861SOL    HW2 5609   2.442   1.364   3.071
 1862SOL     OW 5610   3.417   1.511   2.565
 1862SOL    HW1 5611   3.360   1.495   2.646
 1862SOL    HW2 5612   3.358   1.521   2.485
 1863SOL     OW 5613   2.997   0.703   2.579
 1863SOL    HW1 5614   3.054   0.781   2.554
 1863SOL    HW2 5615   2.937   0.729   2.655
 1864SOL     OW 5616   3.617   0.607   2.093
 1864SOL    HW1 5617   3.605   0.594   1.994
 1864SOL    HW2 5618   3.587   0.526   2.142
 1865SOL     OW 5619   2.630   1.144   2.885
 1865SOL    HW1 5620   2.552   1.161   2.945
 1865SOL    HW2 5621   2.664   1.231   2.849
 1866SOL     OW 5622   2.712   0.798   3.685
 1866SOL    HW1 5623   2.708   0.874   3.750
 1866SOL    HW2 5624   2.734   0.834   3.594
 1867SOL     OW 5625   2.547   1.012   2.527
 1867SOL    HW1 5626   2.616   0.996   2.597
 1867SOL    HW2 5627   2.474   1.069   2.565
 1868SOL     OW 5628   2.548   1.161   3.665
 1868SOL    HW1 5629   2.608   1.240   3.679
 1868SOL    HW2 5630   2.462   1.192   3.624
 1869SOL     OW 5631   2.197   1.435   2.923
 1869SOL    HW1 5632   2.119   1.404   2.870
 1869SOL    HW2 5633   2.255   1.493   2.866
 1870SOL     OW 5634   3.322   1.505   3.201
 1870SOL    HW1 5635   3.346   1.599   3.227
 1870SOL    HW2 5636   3.306   1.451   3.283
 1871SOL     OW 5637   2.300   0.392   3.361
 1871SOL    HW1 5638   2.382   0.336   3.370
 1871SOL    HW2 5639   2.219   0.334   3.365
 1872SOL     OW 5640   3.465   0.447   2.599
 1872SOL    HW1 5641   3.391   0.493   2.549
 1872SOL    HW2 5642   3.516   0.515   2.652
 1873SOL     OW 5643   2.093   1.713   2.345
 1873SOL    HW1 5644   2.127   1.790   2.399
 1873SOL    HW2 5645   2.137   1.713   2.255
 1874SOL     OW 5646   2.989   1.341   3.552
 1874SOL    HW1 5647   3.036   1.341   3.640
 1874SOL    HW2 5648   2.941   1.254   3.541
 1875SOL     OW 5649   2.092   1.434   2.400
 1875SOL    HW1 5650   2.066   1.530   2.400
 1875SOL    HW2 5651   2.021   1.380   2.445
 1876SOL     OW 5652   2.102   1.091   2.748
 1876SOL    HW1 5653   2.116   1.007   2.800
 1876SOL    HW2 5654   2.047   1.155   2.803
 1877SOL     OW 5655   2.482   1.786   3.301
 1877SOL    HW1 5656   2.390   1.769   3.336
 1877SOL    HW2 5657   2.510   1.878   3.327
 1878SOL     OW 5658   2.468   0.964   1.985
 1878SOL    HW1 5659   2.475   1.048   1.931
 1878SOL    HW2 5660   2.514   0.977   2.073
 1879SOL     OW 5661   3.456   0.114   3.342
 1879SOL    HW1 5662   3.438   0.181   3.270
 1879SOL    HW2 5663   3.453   0.160   3.431
 1880SOL     OW 5664   1.984   0.643   2.425
 1880SOL    HW1 5665   1.939   0.555   2.442
 1880SOL    HW2 5666   1.983   0.697   2.509
 1881SOL     OW 5667   3.704   1.767   2.221
 1881SOL    HW1 5668   3.758   1.738   2.301
 1881SOL    HW2 5669   3.734   1.857   2.192
 1882SOL     OW 5670   1.889   1.596   1.979
 1882SOL    HW1 5671   1.870   1.500   2.000
 1882SOL    HW2 5672   1.856   1.654   2.054
 1883SOL     OW 5673   3.551   0.922   2.474
 1883SOL    HW1 5674   3.646   0.893   2.482
 1883SOL    HW2 5675   3.543   0.987   2.399
 1884SOL     OW 5676   3.503   1.108   2.294
 1884SOL    HW1 5677   3.589   1.110   2.242
 1884SOL    HW2 5678   3.517   1.155   2.382
 1885SOL     OW 5679   1.975   0.737   3.459
 1885SOL    HW1 5680   2.063   0.724   3.504
 1885SOL    HW2 5681   1.962   0.834   3.437
 1886SOL     OW 5682   2.475   1.365   2.588
 1886SOL    HW1 5683   2.426   1.278   2.597
 1886SOL    HW2 5684   2.452   1.408   2.501
 1887SOL     OW 5685   3.155   1.228   3.285
 1887SOL    HW1 5686   3.192   1.155   3.227
 1887SOL    HW2 5687   3.207   1.233   3.370
 1888SOL     OW 5688   2.671   0.004   2.364
 1888SOL    HW1 5689   2.711   0.095   2.355
 1888SOL    HW2 5690   2.571   0.012   2.370
 1889SOL     OW 5691   2.059   0.976   3.126
 1889SOL    HW1 5692   2.148   0.931   3.112
 1889SOL    HW2 5693   1.986   0.911   3.107
 1890SOL     OW 5694   3.387   0.999   2.052
 1890SOL    HW1 5695   3.324   0.923   2.065
 1890SOL    HW2 5696   3.435   1.017   2.138
 1891SOL     OW 5697   3.049   1.792   3.478
 1891SOL    HW1 5698   3.073   1.852   3.402
 1891SOL    HW2 5699   3.056   1.697   3.448
 1892SOL     OW 5700   2.179   0.251   3.663
 1892SOL    HW1 5701   2.250   0.322   3.669
 1892SOL    HW2 5702   2.091   0.290   3.691
 1893SOL     OW 5703   3.328   1.417   2.815
 1893SOL    HW1 5704   3.269   1.423   2.895
 1893SOL    HW2 5705   3.313   1.329   2.769
 1894SOL     OW 5706   3.529   1.714   2.434
 1894SOL    HW1 5707   3.488   1.691   2.346
 1894SOL    HW2 5708   3.511   1.640   2.499
 1895SOL     OW 5709   2.460   0.729   2.132
 1895SOL    HW1 5710   2.484   0.798   2.064
 1895SOL    HW2 5711   2.382   0.762   2.186
 1896SOL     OW 5712   3.143   0.345   2.806
 1896SOL    HW1 5713   3.057   0.295   2.793
 1896SOL    HW2 5714   3.205   0.291   2.862
 1897SOL     OW 5715   3.438   1.662   2.169
 1897SOL    HW1 5716   3.527   1.708   2.172
 1897SOL    HW2 5717   3.417   1.638   2.074
 1898SOL     OW 5718   2.669   0.605   3.327
 1898SOL    HW1 5719   2.622   0.602   3.416
 1898SOL    HW2 5720   2.618   0.550   3.261
 1899SOL     OW 5721   3.256   0.469   3.536
 1899SOL    HW1 5722   3.236   0.512   3.624
 1899SOL    HW2 5723   3.334   0.407   3.545
 1900SOL     OW 5724   2.835   0.890   3.434
 1900SOL    HW1 5725   2.881   0.806   3.405
 1900SOL    HW2 5726   2.779   0.924   3.359
 1901SOL     OW 5727   2.853   0.410   3.104
 1901SOL    HW1 5728   2.776   0.444   3.158
 1901SOL    HW2 5729   2.819   0.359   3.025
 1902SOL     OW 5730   2.903   0.701   2.291
 1902SOL    HW1 5731   2.929   0.697   2.387
 1902SOL    HW2 5732   2.818   0.650   2.277
 1903SOL     OW 5733   1.938   0.811   2.651
 1903SOL    HW1 5734   2.037   0.799   2.660
 1903SOL    HW2 5735   1.914   0.906   2.672
 1904SOL     OW 5736   1.992   1.821   3.433
 1904SOL    HW1 5737   1.982   1.806   3.532
 1904SOL    HW2 5738   1.906   1.857   3.397
 1905SOL     OW 5739   2.727   0.348   2.057
 1905SOL    HW1 5740   2.786   0.411   2.008
 1905SOL    HW2 5741   2.746   0.254   2.028
 1906SOL     OW 5742   3.581   0.585   3.693
 1906SOL    HW1 5743   3.555   0.674   3.657
 1906SOL    HW2 5744   3.579   0.517   3.620
 1907SOL     OW 5745   3.224   1.144   2.407
 1907SOL    HW1 5746   3.307   1.115   2.359
 1907SOL    HW2 5747   3.175   1.211   2.351
 1908SOL     OW 5748   2.412   0.196   2.747
 1908SOL    HW1 5749   2.407   0.191   2.847
 1908SOL    HW2 5750   2.414   0.292   2.718
 1909SOL     OW 5751   2.870   1.456   2.339
 1909SOL    HW1 5752   2.824   1.528   2.287
 1909SOL    HW2 5753   2.866   1.476   2.437
 1910SOL     OW 5754   2.213   1.801   2.715
 1910SOL    HW1 5755   2.263   1.715   2.721
 1910SOL    HW2 5756   2.278   1.878   2.712
 1911SOL     OW 5757   3.657   1.066   2.735
 1911SOL    HW1 5758   3.595   1.051   2.659
 1911SOL    HW2 5759   3.605   1.077   2.820
 1912SOL     OW 5760   3.089   1.550   3.368
 1912SOL    HW1 5761   3.095   1.473   3.432
 1912SOL    HW2 5762   3.037   1.524   3.288
 1913SOL     OW 5763   2.183   0.943   2.104
 1913SOL    HW1 5764   2.265   0.982   2.062
 1913SOL    HW2 5765   2.156   0.861   2.055
 1914SOL     OW 5766   3.320   0.735   2.590
 1914SOL    HW1 5767   3.315   0.670   2.665
 1914SOL    HW2 5768   3.400   0.794   2.603
 1915SOL     OW 5769   2.323   1.266   3.589
 1915SOL    HW1 5770   2.273   1.267   3.503
 1915SOL    HW2 5771   2.260   1.248   3.665
 1916SOL     OW 5772   2.973   1.776   2.099
 1916SOL    HW1 5773   2.913   1.714   2.149
 1916SOL    HW2 5774   3.004   1.732   2.014
 1917SOL     OW 5775   2.064   0.285   3.360
 1917SOL    HW1 5776   1.984   0.345   3.347
 1917SOL    HW2 5777   2.054   0.236   3.446
 1918SOL     OW 5778   3.494   1.377   1.943
 1918SOL    HW1 5779   3.462   1.471   1.933
 1918SOL    HW2 5780   3.418   1.314   1.931
 1919SOL     OW 5781   2.326   1.743   2.185
 1919SOL    HW1 5782   2.359   1.782   2.271
 1919SOL    HW2 5783   2.402   1.736   2.120
 1920SOL     OW 5784   3.262   0.107   2.288
 1920SOL    HW1 5785   3.238   0.070   2.198
 1920SOL    HW2 5786   3.361   0.123   2.292
 1921SOL     OW 5787   2.111   1.785   3.103
 1921SOL    HW1 5788   2.168   1.720   3.153
 1921SOL    HW2 5789   2.095   1.752   3.010
 1922SOL     OW 5790   2.802   1.698   2.766
 1922SOL    HW1 5791   2.882   1.641   2.787
 1922SOL    HW2 5792   2.753   1.658   2.689
 1923SOL     OW 5793   2.244   0.700   2.342
 1923SOL    HW1 5794   2.289   0.610   2.339
 1923SOL    HW2 5795   2.150   0.689   2.375
 1924SOL     OW 5796   3.409   0.222   3.591
 1924SOL    HW1 5797   3.404   0.259   3.683
 1924SOL    HW2 5798   3.337   0.153   3.579
 1925SOL     OW 5799   2.476   0.122   1.979
 1925SOL    HW1 5800   2.574   0.100   1.986
 1925SOL    HW2 5801   2.445   0.105   1.886
 1926SOL     OW 5802   2.643   0.264   3.611
 1926SOL    HW1 5803   2.710   0.203   3.654
 1926SOL    HW2 5804   2.570   0.283   3.676
 1927SOL     OW 5805   2.750   1.514   3.057
 1927SOL    HW1 5806   2.727   1.489   2.963
 1927SOL    HW2 5807   2.811   1.445   3.096
 1928SOL     OW 5808   3.213   0.590   3.295
 1928SOL    HW1 5809   3.241   0.547   3.380
 1928SOL    HW2 5810   3.238   0.686   3.296
 1929SOL     OW 5811   2.665   1.402   2.786
 1929SOL    HW1 5812   2.755   1.416   2.744
 1929SOL    HW2 5813   2.594   1.404   2.715
 1930SOL     OW 5814   2.784   0.503   2.761
 1930SOL    HW1 5815   2.759   0.494   2.665
 1930SOL    HW2 5816   2.832   0.421   2.792
 1931SOL     OW 5817   2.401   0.064   2.374
 1931SOL    HW1 5818   2.320   0.065   2.432
 1931SOL    HW2 5819   2.404   0.147   2.319
 1932SOL     OW 5820   3.296   1.188   1.903
 1932SOL    HW1 5821   3.328   1.112   1.960
 1932SOL    HW2 5822   3.204   1.215   1.933
 1933SOL     OW 5823   2.159   0.035   2.033
 1933SOL    HW1 5824   2.208   0.119   2.012
 1933SOL    HW2 5825   2.221  -0.030   2.078
 1934SOL     OW 5826   2.797   0.236   2.342
 1934SOL    HW1 5827   2.749   0.277   2.264
 1934SOL    HW2 5828   2.896   0.234   2.323
 1935SOL     OW 5829   2.938   0.683   3.326
 1935SOL    HW1 5830   2.858   0.622   3.329
 1935SOL    HW2 5831   3.019   0.630   3.302
 1936SOL     OW 5832   3.089   1.570   2.655
 1936SOL    HW1 5833   3.110   1.644   2.590
 1936SOL    HW2 5834   3.157   1.570   2.728
 1937SOL     OW 5835   2.321   1.152   2.603
 1937SOL    HW1 5836   2.250   1.125   2.668
 1937SOL    HW2 5837   2.295   1.124   2.510
 1938SOL     OW 5838   3.133   1.797   2.453
 1938SOL    HW1 5839   3.177   1.861   2.389
 1938SOL    HW2 5840   3.083   1.849   2.523
 1939SOL     OW 5841   2.894   0.549   1.878
 1939SOL    HW1 5842   2.853   0.631   1.839
 1939SOL    HW2 5843   2.958   0.575   1.951
 1940SOL     OW 5844   1.940   0.556   3.248
 1940SOL    HW1 5845   2.032   0.555   3.207
 1940SOL    HW2 5846   1.934   0.630   3.315
 1941SOL     OW 5847   2.423   0.222   3.009
 1941SOL    HW1 5848   2.461   0.138   3.046
 1941SOL    HW2 5849   2.335   0.241   3.053
 1942SOL     OW 5850   2.728   0.454   2.504
 1942SOL    HW1 5851   2.696   0.526   2.442
 1942SOL    HW2 5852   2.752   0.373   2.451
 1943SOL     OW 5853   2.879   0.039   2.615
 1943SOL    HW1 5854   2.807   0.044   2.546
 1943SOL    HW2 5855   2.855  -0.030   2.684
 1944SOL     OW 5856   3.291   1.173   2.729
 1944SOL    HW1 5857   3.236   1.089   2.722
 1944SOL    HW2 5858   3.317   1.202   2.637
 1945SOL     OW 5859   3.328   0.590   2.854
 1945SOL    HW1 5860   3.298   0.495   2.861
 1945SOL    HW2 5861   3.401   0.606   2.920
 1946SOL     OW 5862   3.719   0.833   2.239
 1946SOL    HW1 5863   3.761   0.769   2.303
 1946SOL    HW2 5864   3.681   0.782   2.161
 1947SOL     OW 5865   2.350   1.385   2.036
 1947SOL    HW1 5866   2.263   1.370   2.083
 1947SOL    HW2 5867   2.333   1.411   1.941
 1948SOL     OW 5868   3.526   1.280   2.519
 1948SOL    HW1 5869   3.625   1.288   2.533
 1948SOL    HW2 5870   3.481   1.364   2.550
 1949SOL     OW 5871   3.252   0.575   1.940
 1949SOL    HW1 5872   3.198   0.554   2.021
 1949SOL    HW2 5873   3.343   0.534   1.949
 1950SOL     OW 5874   2.389   0.256   2.190
 1950SOL    HW1 5875   2.416   0.197   2.115
 1950SOL    HW2 5876   2.389   0.351   2.159
 1951SOL     OW 5877   3.616   1.223   3.450
 1951SOL    HW1 5878   3.707   1.184   3.437
 1951SOL    HW2 5879   3.624   1.319   3.474
 1952SOL     OW 5880   2.926   1.347   3.202
 1952SOL    HW1 5881   2.846   1.324   3.257
 1952SOL    HW2 5882   3.009   1.321   3.251
 1953SOL     OW 5883   3.454   1.629   3.487
 1953SOL    HW1 5884   3.481   1.663   3.397
 1953SOL    HW2 5885   3.533   1.591   3.533
 1954SOL     OW 5886   2.973   1.195   2.962
 1954SOL    HW1 5887   2.933   1.239   3.043
 1954SOL    HW2 5888   2.932   1.232   2.879
 1955SOL     OW 5889   3.500   1.099   2.941
 1955SOL    HW1 5890   3.505   1.180   3.000
 1955SOL    HW2 5891   3.414   1.101   2.890
 1956SOL     OW 5892   2.777   0.089   3.264
 1956SOL    HW1 5893   2.802   0.069   3.169
 1956SOL    HW2 5894   2.849   0.145   3.306
 1957SOL     OW 5895   2.842   1.116   3.581
 1957SOL    HW1 5896   2.743   1.122   3.591
 1957SOL    HW2 5897   2.865   1.036   3.525
 1958SOL     OW 5898   2.567   1.050   2.230
 1958SOL    HW1 5899   2.553   1.057   2.329
 1958SOL    HW2 5900   2.651   0.999   2.212
 1959SOL     OW 5901   2.272   0.813   3.113
 1959SOL    HW1 5902   2.358   0.825   3.163
 1959SOL    HW2 5903   2.230   0.726   3.140
 1960SOL     OW 5904   3.136   0.386   3.124
 1960SOL    HW1 5905   3.157   0.460   3.188
 1960SOL    HW2 5906   3.047   0.403   3.081
 1961SOL     OW 5907   1.926   1.564   3.193
 1961SOL    HW1 5908   1.880   1.646   3.159
 1961SOL    HW2 5909   2.024   1.583   3.202
 1962SOL     OW 5910   2.229   1.100   2.363
 1962SOL    HW1 5911   2.222   1.183   2.307
 1962SOL    HW2 5912   2.233   1.020   2.303
 1963SOL     OW 5913   2.428   0.537   2.727
 1963SOL    HW1 5914   2.440   0.603   2.653
 1963SOL    HW2 5915   2.474   0.571   2.810
 1964SOL     OW 5916   3.114   1.348   2.250
 1964SOL    HW1 5917   3.164   1.425   2.290
 1964SOL    HW2 5918   3.019   1.350   2.282
 1965SOL     OW 5919   3.134   1.445   3.004
 1965SOL    HW1 5920   3.181   1.458   3.091
 1965SOL    HW2 5921   3.068   1.371   3.013
 1966SOL     OW 5922   3.444   0.639   2.334
 1966SOL    HW1 5923   3.413   0.700   2.407
 1966SOL    HW2 5924   3.494   0.691   2.265
 1967SOL     OW 5925   2.216   1.510   3.191
 1967SOL    HW1 5926   2.195   1.466   3.104
 1967SOL    HW2 5927   2.313   1.536   3.194
 1968SOL     OW 5928   2.264   0.751   3.460
 1968SOL    HW1 5929   2.332   0.806   3.413
 1968SOL    HW2 5930   2.304   0.663   3.487
 1969SOL     OW 5931   3.449   0.779   3.532
 1969SOL    HW1 5932   3.357   0.817   3.527
 1969SOL    HW2 5933   3.509   0.826   3.467
 1970SOL     OW 5934   2.875   0.105   3.632
 1970SOL    HW1 5935   2.881   0.190   3.580
 1970SOL    HW2 5936   2.907   0.029   3.575
 1971SOL     OW 5937   2.366   0.050   3.602
 1971SOL    HW1 5938   2.324  -0.007   3.532
 1971SOL    HW2 5939   2.300   0.119   3.634
 1972SOL     OW 5940   2.435   0.870   2.891
 1972SOL    HW1 5941   2.479   0.959   2.882
 1972SOL    HW2 5942   2.372   0.870   2.968
 1973SOL     OW 5943   3.222   0.862   2.907
 1973SOL    HW1 5944   3.147   0.862   2.841
 1973SOL    HW2 5945   3.259   0.770   2.916
 1974SOL     OW 5946   3.071   0.525   2.137
 1974SOL    HW1 5947   3.084   0.441   2.191
 1974SOL    HW2 5948   3.042   0.599   2.197
 1975SOL     OW 5949   2.169   0.213   3.093
 1975SOL    HW1 5950   2.146   0.250   3.183
 1975SOL    HW2 5951   2.139   0.118   3.087
 1976SOL     OW 5952   1.899   1.310   3.144
 1976SOL    HW1 5953   1.952   1.261   3.212
 1976SOL    HW2 5954   1.921   1.408   3.149
 1977SOL     OW 5955   2.594   0.634   2.926
 1977SOL    HW1 5956   2.653   0.608   2.850
 1977SOL    HW2 5957   2.566   0.730   2.915
 1978SOL     OW 5958   3.590   0.935   3.716
 1978SOL    HW1 5959   3.544   0.928   3.627
 1978SOL    HW2 5960   3.528   0.979   3.782
 1979SOL     OW 5961   2.169   0.063   2.480
 1979SOL    HW1 5962   2.158   0.157   2.513
 1979SOL    HW2 5963   2.164   0.000   2.557
 1980SOL     OW 5964   3.484   0.367   2.236
 1980SOL    HW1 5965   3.486   0.291   2.300
 1980SOL    HW2 5966   3.436   0.444   2.276
 1981SOL     OW 5967   2.885   0.766   2.828
 1981SOL    HW1 5968   2.900   0.787   2.924
 1981SOL    HW2 5969   2.855   0.671   2.819
 1982SOL     OW 5970   2.842   1.573   3.562
 1982SOL    HW1 5971   2.822   1.617   3.474
 1982SOL    HW2 5972   2.881   1.482   3.546
 1983SOL     OW 5973   3.721   1.518   3.467
 1983SOL    HW1 5974   3.735   1.545   3.372
 1983SOL    HW2 5975   3.804   1.540   3.520
 1984SOL     OW 5976   2.212   0.898   3.666
 1984SOL    HW1 5977   2.288   0.942   3.714
 1984SOL    HW2 5978   2.247   0.851   3.584
 1985SOL     OW 5979   3.402   0.274   1.987
 1985SOL    HW1 5980   3.341   0.199   2.010
 1985SOL    HW2 5981   3.424   0.326   2.070
 1986SOL     OW 5982   3.165   0.838   1.904
 1986SOL    HW1 5983   3.199   0.745   1.919
 1986SOL    HW2 5984   3.183   0.865   1.809
 1987SOL     OW 5985   2.930   1.333   2.711
 1987SOL    HW1 5986   2.937   1.249   2.656
 1987SOL    HW2 5987   2.992   1.402   2.675
 1988SOL     OW 5988   2.181   0.810   2.811
 1988SOL    HW1 5989   2.274   0.846   2.816
 1988SOL    HW2 5990   2.175   0.725   2.863
 1989SOL     OW 5991   2.201   0.509   2.868
 1989SOL    HW1 5992   2.149   0.426   2.851
 1989SOL    HW2 5993   2.278   0.514   2.804
 1990SOL     OW 5994   3.000   0.380   3.540
 1990SOL    HW1 5995   2.955   0.443   3.604
 1990SOL    HW2 5996   3.093   0.411   3.523
 1991SOL     OW 5997   3.022   0.207   3.339
 1991SOL    HW1 5998   3.022   0.271   3.416
 1991SOL    HW2 5999   3.050   0.255   3.256
 1992SOL     OW 6000   1.870   1.326   2.062
 1992SOL    HW1 6001   1.777   1.347   2.031
 1992SOL    HW2 6002   1.880   1.227   2.075
 1993SOL     OW 6003   1.950   1.801   2.789
 1993SOL    HW1 6004   1.908   1.715   2.762
 1993SOL    HW2 6005   2.044   1.804   2.755
 1994SOL     OW 6006   2.366   1.568   2.772
 1994SOL    HW1 6007   2.432   1.642   2.781
 1994SOL    HW2 6008   2.410   1.489   2.730
 1995SOL     OW 6009   2.864   0.796   3.100
 1995SOL    HW1 6010   2.905   0.764   3.186
 1995SOL    HW2 6011   2.768   0.769   3.097
 1996SOL     OW 6012   1.902   0.544   2.976
 1996SOL    HW1 6013   1.987   0.511   2.935
 1996SOL    HW2 6014   1.915   0.559   3.074
 1997SOL     OW 6015   2.051   0.520   3.584
 1997SOL    HW1 6016   2.110   0.480   3.514
 1997SOL    HW2 6017   1.993   0.591   3.543
 1998SOL     OW 6018   3.231   0.950   3.522
 1998SOL    HW1 6019   3.270   1.039   3.542
 1998SOL    HW2 6020   3.241   0.930   3.425
 1999SOL     OW 6021   2.677   0.572   2.187
 1999SOL    HW1 6022   2.684   0.483   2.141
 1999SOL    HW2 6023   2.583   0.606   2.179
 2000SOL     OW 6024   3.519   0.604   3.068
 2000SOL    HW1 6025   3.481   0.535   3.130
 2000SOL    HW2 6026   3.601   0.568   3.024
 2001SOL     OW 6027   2.114   1.564   3.606
 2001SOL    HW1 6028   2.084   1.621   3.682
 2001SOL    HW2 6029   2.107   1.467   3.632
 2002SOL     OW 6030   2.533   0.464   3.131
 2002SOL    HW1 6031   2.499   0.375   3.101
 2002SOL    HW2 6032   2.559   0.518   3.051
 2003SOL     OW 6033   2.792   1.678   3.327
 2003SOL    HW1 6034   2.768   1.660   3.232
 2003SOL    HW2 6035   2.822   1.772   3.337
 2004SOL     OW 6036   2.335   0.500   2.053
 2004SOL    HW1 6037   2.396   0.580   2.057
 2004SOL    HW2 6038   2.240   0.531   2.060
 2005SOL     OW 6039   2.021   1.137   3.328
 2005SOL    HW1 6040   2.043   1.076   3.404
 2005SOL    HW2 6041   2.031   1.088   3.242
 2006SOL     OW 6042   3.209   1.059   3.096
 2006SOL    HW1 6043   3.233   0.996   3.022
 2006SOL    HW2 6044   3.119   1.099   3.078
 2007SOL     OW 6045   3.164   0.855   2.171
 2007SOL    HW1 6046   3.078   0.824   2.213
 2007SOL    HW2 6047   3.160   0.841   2.072
 2008SOL     OW 6048   3.621   1.747   3.016
 2008SOL    HW1 6049   3.682   1.777   2.943
 2008SOL    HW2 6050   3.583   1.658   2.994
 2009SOL     OW 6051   3.114   1.731   2.990
 2009SOL    HW1 6052   3.198   1.736   2.936
 2009SOL    HW2 6053   3.091   1.635   3.008
 2010SOL     OW 6054   1.945   1.258   2.884
 2010SOL    HW1 6055   1.940   1.257   2.984
 2010SOL    HW2 6056   1.862   1.217   2.846
 2011SOL     OW 6057   2.550   1.662   3.578
 2011SOL    HW1 6058   2.494   1.743   3.587
 2011SOL    HW2 6059   2.602   1.666   3.492
 2012SOL     OW 6060   3.588   0.135   2.385
 2012SOL    HW1 6061   3.661   0.118   2.318
 2012SOL    HW2 6062   3.557   0.048   2.423
 2013SOL     OW 6063   3.250   1.573   2.339
 2013SOL    HW1 6064   3.317   1.585   2.265
 2013SOL    HW2 6065   3.210   1.662   2.362
 2014SOL     OW 6066   1.992   1.794   3.713
 2014SOL    HW1 6067   1.951   1.720   3.766
 2014SOL    HW2 6068   2.056   1.845   3.771
 2015SOL     OW 6069   3.142   0.927   2.534
 2015SOL    HW1 6070   3.202   0.846   2.536
 2015SOL    HW2 6071   3.182   0.996   2.474
 2016SOL     OW 6072   2.692   1.273   3.284
 2016SOL    HW1 6073   2.687   1.306   3.379
 2016SOL    HW2 6074   2.606   1.292   3.238
 2017SOL     OW 6075   2.534   1.616   2.016
 2017SOL    HW1 6076   2.543   1.626   1.917
 2017SOL    HW2 6077   2.494   1.527   2.037
 2018SOL     OW 6078   3.512   1.720   3.256
 2018SOL    HW1 6079   3.565   1.730   3.172
 2018SOL    HW2 6080   3.485   1.810   3.290
 2019SOL     OW 6081   3.703   0.175   2.825
 2019SOL    HW1 6082   3.742   0.090   2.789
 2019SOL    HW2 6083   3.605   0.177   2.806
 2020SOL     OW 6084   2.125   0.326   2.582
 2020SOL    HW1 6085   2.046   0.377   2.548
 2020SOL    HW2 6086   2.116   0.311   2.680
 2021SOL     OW 6087   3.056   1.612   1.893
 2021SOL    HW1 6088   3.062   1.519   1.930
 2021SOL    HW2 6089   2.997   1.612   1.813
 2022SOL     OW 6090   2.684   1.002   3.234
 2022SOL    HW1 6091   2.724   1.001   3.142
 2022SOL    HW2 6092   2.694   1.094   3.274
 2023SOL     OW 6093   2.778   0.910   2.153
 2023SOL    HW1 6094   2.841   0.948   2.085
 2023SOL    HW2 6095   2.818   0.827   2.192
 2024SOL     OW 6096   3.366   1.607   1.906
 2024SOL    HW1 6097   3.274   1.644   1.913
 2024SOL    HW2 6098   3.404   1.627   1.816
 2025SOL     OW 6099   2.234   1.288   3.352
 2025SOL    HW1 6100   2.221   1.381   3.318
 2025SOL    HW2 6101   2.150   1.236   3.339
 2026SOL     OW 6102   3.476   1.292   3.151
 2026SOL    HW1 6103   3.536   1.295   3.231
 2026SOL    HW2 6104   3.401   1.356   3.164
 2027SOL     OW 6105   2.901   1.098   2.558
 2027SOL    HW1 6106   2.831   1.051   2.612
 2027SOL    HW2 6107   2.960   1.030   2.515
 2028SOL     OW 6108   2.876   0.236   2.833
 2028SOL    HW1 6109   2.868   0.200   2.740
 2028SOL    HW2 6110   2.874   0.160   2.898
 2029SOL     OW 6111   2.452   1.487   2.353
 2029SOL    HW1 6112   2.494   1.429   2.283
 2029SOL    HW2 6113   2.408   1.566   2.309
 2030SOL     OW 6114   3.571   0.385   3.243
 2030SOL    HW1 6115   3.644   0.454   3.247
 2030SOL    HW2 6116   3.599   0.310   3.184
 2031SOL     OW 6117   2.117   1.348   2.152
 2031SOL    HW1 6118   2.021   1.349   2.125
 2031SOL    HW2 6119   2.129   1.401   2.236
 2032SOL     OW 6120   1.967   1.013   3.588
 2032SOL    HW1 6121   1.890   0.980   3.642
 2032SOL    HW2 6122   2.052   0.983   3.630
 2033SOL     OW 6123   2.534   0.203   3.351
 2033SOL    HW1 6124   2.624   0.187   3.311
 2033SOL    HW2 6125   2.542   0.208   3.450
 2034SOL     OW 6126   1.937   0.345   1.895
 2034SOL    HW1 6127   1.845   0.317   1.866
 2034SOL    HW2 6128   1.968   0.422   1.839
 2035SOL     OW 6129   3.302   0.856   3.260
 2035SOL    HW1 6130   3.245   0.908   3.197
 2035SOL    HW2 6131   3.398   0.868   3.236
 2036SOL     OW 6132   1.934   0.166   2.180
 2036SOL    HW1 6133   1.917   0.249   2.126
 2036SOL    HW2 6134   2.024   0.129   2.158
 2037SOL     OW 6135   3.045   1.335   1.981
 2037SOL    HW1 6136   2.946   1.324   1.983
 2037SOL    HW2 6137   3.079   1.350   2.074
 2038SOL     OW 6138   2.475   0.842   3.293
 2038SOL    HW1 6139   2.531   0.923   3.276
 2038SOL    HW2 6140   2.534   0.762   3.296
 2039SOL     OW 6141   3.355   1.767   2.821
 2039SOL    HW1 6142   3.388   1.831   2.752
 2039SOL    HW2 6143   3.421   1.761   2.896
 2040SOL     OW 6144   2.578   0.565   3.570
 2040SOL    HW1 6145   2.597   0.630   3.644
 2040SOL    HW2 6146   2.638   0.485   3.579
 2041SOL     OW 6147   3.312   1.220   3.495
 2041SOL    HW1 6148   3.303   1.210   3.594
 2041SOL    HW2 6149   3.408   1.213   3.469
 2042SOL     OW 6150   2.252   1.741   3.422
 2042SOL    HW1 6151   2.161   1.782   3.420
 2042SOL    HW2 6152   2.245   1.647   3.454
 2043SOL     OW 6153   3.536   0.883   3.116
 2043SOL    HW1 6154   3.509   0.794   3.079
 2043SOL    HW2 6155   3.537   0.951   3.043
 2044SOL     OW 6156   3.087   0.325   2.311
 2044SOL    HW1 6157   3.152   0.251   2.300
 2044SOL    HW2 6158   3.107   0.375   2.395
 2045SOL     OW 6159   2.456   0.745   2.514
 2045SOL    HW1 6160   2.506   0.830   2.495
 2045SOL    HW2 6161   2.368   0.747   2.466
 2046SOL     OW 6162   3.639   0.342   3.504
 2046SOL    HW1 6163   3.622   0.373   3.410
 2046SOL    HW2 6164   3.555   0.305   3.542
 2047SOL     OW 6165   3.592   0.934   3.379
 2047SOL    HW1 6166   3.630   1.025   3.394
 2047SOL    HW2 6167   3.584   0.917   3.280
 2048SOL     OW 6168   2.721   1.374   1.878
 2048SOL    HW1 6169   2.675   1.389   1.966
 2048SOL    HW2 6170   2.765   1.459   1.848
 2049SOL     OW 6171   2.523   1.790   2.815
 2049SOL    HW1 6172   2.477   1.878   2.802
 2049SOL    HW2 6173   2.622   1.802   2.808
 2050SOL     OW 6174   2.721   0.956   2.723
 2050SOL    HW1 6175   2.775   0.887   2.771
 2050SOL    HW2 6176   2.689   1.025   2.789
 2051SOL     OW 6177   2.945   0.984   1.949
 2051SOL    HW1 6178   2.922   1.037   1.867
 2051SOL    HW2 6179   3.026   0.928   1.930
 2052SOL     OW 6180   3.723   1.569   2.713
 2052SOL    HW1 6181   3.652   1.557   2.643
 2052SOL    HW2 6182   3.724   1.490   2.773
 2053SOL     OW 6183   2.083   1.314   3.706
 2053SOL    HW1 6184   2.018   1.241   3.685
 2053SOL    HW2 6185   2.087   1.328   3.804
 2054SOL     OW 6186   1.941   1.240   2.515
 2054SOL    HW1 6187   1.940   1.193   2.603
 2054SOL    HW2 6188   2.023   1.212   2.464
 2055SOL     OW 6189   2.534   1.391   3.486
 2055SOL    HW1 6190   2.456   1.341   3.524
 2055SOL    HW2 6191   2.531   1.486   3.517
 2056SOL     OW 6192   3.686   0.192   3.089
 2056SOL    HW1 6193   3.682   0.102   3.133
 2056SOL    HW2 6194   3.689   0.181   2.990
 2057SOL     OW 6195   2.290   0.424   2.382
 2057SOL    HW1 6196   2.320   0.352   2.320
 2057SOL    HW2 6197   2.251   0.384   2.465
 2058SOL     OW 6198   3.567   1.487   2.966
 2058SOL    HW1 6199   3.474   1.462   2.939
 2058SOL    HW2 6200   3.593   1.437   3.048
 2059SOL     OW 6201   2.179   0.547   3.142
 2059SOL    HW1 6202   2.217   0.488   3.214
 2059SOL    HW2 6203   2.219   0.521   3.054
 2060SOL     OW 6204   2.674   1.586   2.549
 2060SOL    HW1 6205   2.706   1.596   2.455
 2060SOL    HW2 6206   2.595   1.524   2.551
 2061SOL     OW 6207   3.286   0.214   2.974
 2061SOL    HW1 6208   3.338   0.149   3.029
 2061SOL    HW2 6209   3.237   0.277   3.035
 2062SOL     OW 6210   2.863   0.034   3.016
 2062SOL    HW1 6211   2.800  -0.038   2.985
 2062SOL    HW2 6212   2.956  -0.002   3.016
 2063SOL     OW 6213   2.632   1.330   2.163
 2063SOL    HW1 6214   2.586   1.243   2.180
 2063SOL    HW2 6215   2.723   1.327   2.204
 2064SOL     OW 6216   2.480   1.567   3.146
 2064SOL    HW1 6217   2.475   1.649   3.203
 2064SOL    HW2 6218   2.569   1.564   3.101
 2065SOL     OW 6219   3.214   0.052   2.030
 2065SOL    HW1 6220   3.249   0.011   1.946
 2065SOL    HW2 6221   3.124   0.014   2.050
 2066SOL     OW 6222   3.162   0.453   2.553
 2066SOL    HW1 6223   3.103   0.533   2.557
 2066SOL    HW2 6224   3.177   0.418   2.646
 2067SOL     OW 6225   3.455   0.221   2.744
 2067SOL    HW1 6226   3.371   0.220   2.798
 2067SOL    HW2 6227   3.457   0.304   2.688
 2068SOL     OW 6228   1.901   1.077   2.162
 2068SOL    HW1 6229   2.000   1.066   2.153
 2068SOL    HW2 6230   1.861   0.991   2.194
 2069SOL     OW 6231   2.737   1.646   2.199
 2069SOL    HW1 6232   2.660   1.611   2.145
 2069SOL    HW2 6233   2.705   1.717   2.261
 2070SOL     OW 6234   2.092   0.628   3.837
 2070SOL    HW1 6235   1.999   0.626   3.874
 2070SOL    HW2 6236   2.093   0.589   3.745
 2071SOL     OW 6237   2.087   0.275   4.720
 2071SOL    HW1 6238   2.122   0.258   4.812
 2071SOL    HW2 6239   1.999   0.230   4.708
 2072SOL     OW 6240   1.881   0.368   4.371
 2072SOL    HW1 6241   1.799   0.411   4.410
 2072SOL    HW2 6242   1.853   0.295   4.308
 2073SOL     OW 6243   2.431   1.275   4.889
 2073SOL    HW1 6244   2.338   1.268   4.852
 2073SOL    HW2 6245   2.442   1.364   4.933
 2074SOL     OW 6246   3.417   1.511   4.427
 2074SOL    HW1 6247   3.360   1.495   4.508
 2074SOL    HW2 6248   3.358   1.521   4.347
 2075SOL     OW 6249   2.997   0.703   4.441
 2075SOL    HW1 6250   3.054   0.781   4.416
 2075SOL    HW2 6251   2.937   0.729   4.517
 2076SOL     OW 6252   3.617   0.607   3.955
 2076SOL    HW1 6253   3.605   0.594   3.856
 2076SOL    HW2 6254   3.587   0.526   4.004
 2077SOL     OW 6255   2.630   1.144   4.747
 2077SOL    HW1 6256   2.552   1.161   4.807
 2077SOL    HW2 6257   2.664   1.231   4.711
 2078SOL     OW 6258   2.547   1.012   4.389
 2078SOL    HW1 6259   2.616   0.996   4.459
 2078SOL    HW2 6260   2.474   1.069   4.427
 2079SOL     OW 6261   2.197   1.435   4.785
 2079SOL    HW1 6262   2.119   1.404   4.732
 2079SOL    HW2 6263   2.255   1.493   4.728
 2080SOL     OW 6264   2.300   0.392   5.223
 2080SOL    HW1 6265   2.382   0.336   5.232
 2080SOL    HW2 6266   2.219   0.334   5.227
 2081SOL     OW 6267   3.465   0.447   4.461
 2081SOL    HW1 6268   3.391   0.493   4.411
 2081SOL    HW2 6269   3.516   0.515   4.514
 2082SOL     OW 6270   2.093   1.713   4.207
 2082SOL    HW1 6271   2.127   1.790   4.261
 2082SOL    HW2 6272   2.137   1.713   4.117
 2083SOL     OW 6273   2.092   1.434   4.262
 2083SOL    HW1 6274   2.066   1.530   4.262
 2083SOL    HW2 6275   2.021   1.380   4.307
 2084SOL     OW 6276   2.102   1.091   4.610
 2084SOL    HW1 6277   2.116   1.007   4.662
 2084SOL    HW2 6278   2.047   1.155   4.665
 2085SOL     OW 6279   2.482   1.786   5.163
 2085SOL    HW1 6280   2.390   1.769   5.198
 2085SOL    HW2 6281   2.510   1.878   5.189
 2086SOL     OW 6282   2.468   0.964   3.847
 2086SOL    HW1 6283   2.475   1.048   3.793
 2086SOL    HW2 6284   2.514   0.977   3.935
 2087SOL     OW 6285   1.984   0.643   4.287
 2087SOL    HW1 6286   1.939   0.555   4.304
 2087SOL    HW2 6287   1.983   0.697   4.371
 2088SOL     OW 6288   3.704   1.767   4.083
 2088SOL    HW1 6289   3.758   1.738   4.163
 2088SOL    HW2 6290   3.734   1.857   4.054
 2089SOL     OW 6291   1.889   1.596   3.841
 2089SOL    HW1 6292   1.870   1.500   3.862
 2089SOL    HW2 6293   1.856   1.654   3.916
 2090SOL     OW 6294   3.551   0.922   4.336
 2090SOL    HW1 6295   3.646   0.893   4.344
 2090SOL    HW2 6296   3.543   0.987   4.261
 2091SOL     OW 6297   3.503   1.108   4.156
 2091SOL    HW1 6298   3.589   1.110   4.104
 2091SOL    HW2 6299   3.517   1.155   4.244
 2092SOL     OW 6300   2.475   1.365   4.450
 2092SOL    HW1 6301   2.426   1.278   4.459
 2092SOL    HW2 6302   2.452   1.408   4.363
 2093SOL     OW 6303   2.671   0.004   4.226
 2093SOL    HW1 6304   2.711   0.095   4.217
 2093SOL    HW2 6305   2.571   0.012   4.232
 2094SOL     OW 6306   2.059   0.976   4.988
 2094SOL    HW1 6307   2.148   0.931   4.974
 2094SOL    HW2 6308   1.986   0.911   4.969
 2095SOL     OW 6309   3.387   0.999   3.914
 2095SOL    HW1 6310   3.324   0.923   3.927
 2095SOL    HW2 6311   3.435   1.017   4.000
 2096SOL     OW 6312   3.328   1.417   4.677
 2096SOL    HW1 6313   3.269   1.423   4.757
 2096SOL    HW2 6314   3.313   1.329   4.631
 2097SOL     OW 6315   3.529   1.714   4.296
 2097SOL    HW1 6316   3.488   1.691   4.208
 2097SOL    HW2 6317   3.511   1.640   4.361
 2098SOL     OW 6318   2.460   0.729   3.994
 2098SOL    HW1 6319   2.484   0.798   3.926
 2098SOL    HW2 6320   2.382   0.762   4.048
 2099SOL     OW 6321   3.143   0.345   4.668
 2099SOL    HW1 6322   3.057   0.295   4.655
 2099SOL    HW2 6323   3.205   0.291   4.724
 2100SOL     OW 6324   3.438   1.662   4.031
 2100SOL    HW1 6325   3.527   1.708   4.034
 2100SOL    HW2 6326   3.417   1.638   3.936
 2101SOL     OW 6327   2.669   0.605   5.189
 2101SOL    HW1 6328   2.622   0.602   5.278
 2101SOL    HW2 6329   2.618   0.550   5.123
 2102SOL     OW 6330   2.853   0.410   4.966
 2102SOL    HW1 6331   2.776   0.444   5.020
 2102SOL    HW2 6332   2.819   0.359   4.887
 2103SOL     OW 6333   2.903   0.701   4.153
 2103SOL    HW1 6334   2.929   0.697   4.249
 2103SOL    HW2 6335   2.818   0.650   4.139
 2104SOL     OW 6336   1.938   0.811   4.513
 2104SOL    HW1 6337   2.037   0.799   4.522
 2104SOL    HW2 6338   1.914   0.906   4.534
 2105SOL     OW 6339   1.992   1.821   5.295
 2105SOL    HW1 6340   1.982   1.806   5.394
 2105SOL    HW2 6341   1.906   1.857   5.259
 2106SOL     OW 6342   2.727   0.348   3.919
 2106SOL    HW1 6343   2.786   0.411   3.870
 2106SOL    HW2 6344   2.746   0.254   3.890
 2107SOL     OW 6345   3.224   1.144   4.269
 2107SOL    HW1 6346   3.307   1.115   4.221
 2107SOL    HW2 6347   3.175   1.211   4.213
 2108SOL     OW 6348   2.412   0.196   4.609
 2108SOL    HW1 6349   2.407   0.191   4.709
 2108SOL    HW2 6350   2.414   0.292   4.580
 2109SOL     OW 6351   2.870   1.456   4.201
 2109SOL    HW1 6352   2.824   1.528   4.149
 2109SOL    HW2 6353   2.866   1.476   4.299
 2110SOL     OW 6354   2.213   1.801   4.577
 2110SOL    HW1 6355   2.263   1.715   4.583
 2110SOL    HW2 6356   2.278   1.878   4.574
 2111SOL     OW 6357   3.657   1.066   4.597
 2111SOL    HW1 6358   3.595   1.051   4.521
 2111SOL    HW2 6359   3.605   1.077   4.682
 2112SOL     OW 6360   2.183   0.943   3.966
 2112SOL    HW1 6361   2.265   0.982   3.924
 2112SOL    HW2 6362   2.156   0.861   3.917
 2113SOL     OW 6363   3.320   0.735   4.452
 2113SOL    HW1 6364   3.315   0.670   4.527
 2113SOL    HW2 6365   3.400   0.794   4.465
 2114SOL     OW 6366   2.973   1.776   3.961
 2114SOL    HW1 6367   2.913   1.714   4.011
 2114SOL    HW2 6368   3.004   1.732   3.876
 2115SOL     OW 6369   3.494   1.377   3.805
 2115SOL    HW1 6370   3.462   1.471   3.795
 2115SOL    HW2 6371   3.418   1.314   3.793
 2116SOL     OW 6372   2.326   1.743   4.047
 2116SOL    HW1 6373   2.359   1.782   4.133
 2116SOL    HW2 6374   2.402   1.736   3.982
 2117SOL     OW 6375   3.262   0.107   4.150
 2117SOL    HW1 6376   3.238   0.070   4.060
 2117SOL    HW2 6377   3.361   0.123   4.154
 2118SOL     OW 6378   2.111   1.785   4.965
 2118SOL    HW1 6379   2.168   1.720   5.015
 2118SOL    HW2 6380   2.095   1.752   4.872
 2119SOL     OW 6381   2.802   1.698   4.628
 2119SOL    HW1 6382   2.882   1.641   4.649
 2119SOL    HW2 6383   2.753   1.658   4.551
 2120SOL     OW 6384   2.244   0.700   4.204
 2120SOL    HW1 6385   2.289   0.610   4.201
 2120SOL    HW2 6386   2.150   0.689   4.237
 2121SOL     OW 6387   2.476   0.122   3.841
 2121SOL    HW1 6388   2.574   0.100   3.848
 2121SOL    HW2 6389   2.445   0.105   3.748
 2122SOL     OW 6390   2.750   1.514   4.919
 2122SOL    HW1 6391   2.727   1.489   4.825
 2122SOL    HW2 6392   2.811   1.445   4.958
 2123SOL     OW 6393   2.665   1.402   4.648
 2123SOL    HW1 6394   2.755   1.416   4.606
 2123SOL    HW2 6395   2.594   1.404   4.577
 2124SOL     OW 6396   2.784   0.503   4.623
 2124SOL    HW1 6397   2.759   0.494   4.527
 2124SOL    HW2 6398   2.832   0.421   4.654
 2125SOL     OW 6399   2.401   0.064   4.236
 2125SOL    HW1 6400   2.320   0.065   4.294
 2125SOL    HW2 6401   2.404   0.147   4.181
 2126SOL     OW 6402   3.296   1.188   3.765
 2126SOL    HW1 6403   3.328   1.112   3.822
 2126SOL    HW2 6404   3.204   1.215   3.795
 2127SOL     OW 6405   2.159   0.035   3.895
 2127SOL    HW1 6406   2.208   0.119   3.874
 2127SOL    HW2 6407   2.221  -0.030   3.940
 2128SOL     OW 6408   2.797   0.236   4.204
 2128SOL    HW1 6409   2.749   0.277   4.126
 2128SOL    HW2 6410   2.896   0.234   4.185
 2129SOL     OW 6411   3.089   1.570   4.517
 2129SOL    HW1 6412   3.110   1.644   4.452
 2129SOL    HW2 6413   3.157   1.570   4.590
 2130SOL     OW 6414   2.321   1.152   4.465
 2130SOL    HW1 6415   2.250   1.125   4.530
 2130SOL    HW2 6416   2.295   1.124   4.372
 2131SOL     OW 6417   3.133   1.797   4.315
 2131SOL    HW1 6418   3.177   1.861   4.251
 2131SOL    HW2 6419   3.083   1.849   4.385
 2132SOL     OW 6420   2.894   0.549   3.740
 2132SOL    HW1 6421   2.853   0.631   3.701
 2132SOL    HW2 6422   2.958   0.575   3.813
 2133SOL     OW 6423   2.423   0.222   4.871
 2133SOL    HW1 6424   2.461   0.138   4.908
 2133SOL    HW2 6425   2.335   0.241   4.915
 2134SOL     OW 6426   2.728   0.454   4.366
 2134SOL    HW1 6427   2.696   0.526   4.304
 2134SOL    HW2 6428   2.752   0.373   4.313
 2135SOL     OW 6429   2.879   0.039   4.477
 2135SOL    HW1 6430   2.807   0.044   4.408
 2135SOL    HW2 6431   2.855  -0.030   4.546
 2136SOL     OW 6432   3.291   1.173   4.591
 2136SOL    HW1 6433   3.236   1.089   4.584
 2136SOL    HW2 6434   3.317   1.202   4.499
 2137SOL     OW 6435   3.328   0.590   4.716
 2137SOL    HW1 6436   3.298   0.495   4.723
 2137SOL    HW2 6437   3.401   0.606   4.782
 2138SOL     OW 6438   3.719   0.833   4.101
 2138SOL    HW1 6439   3.761   0.769   4.165
 2138SOL    HW2 6440   3.681   0.782   4.023
 2139SOL     OW 6441   2.350   1.385   3.898
 2139SOL    HW1 6442   2.263   1.370   3.945
 2139SOL    HW2 6443   2.333   1.411   3.803
 2140SOL     OW 6444   3.526   1.280   4.381
 2140SOL    HW1 6445   3.625   1.288   4.395
 2140SOL    HW2 6446   3.481   1.364   4.412
 2141SOL     OW 6447   3.252   0.575   3.802
 2141SOL    HW1 6448   3.198   0.554   3.883
 2141SOL    HW2 6449   3.343   0.534   3.811
 2142SOL     OW 6450   2.389   0.256   4.052
 2142SOL    HW1 6451   2.416   0.197   3.977
 2142SOL    HW2 6452   2.389   0.351   4.021
 2143SOL     OW 6453   3.616   1.223   5.312
 2143SOL    HW1 6454   3.707   1.184   5.299
 2143SOL    HW2 6455   3.624   1.319   5.336
 2144SOL     OW 6456   2.926   1.347   5.064
 2144SOL    HW1 6457   2.846   1.324   5.119
 2144SOL    HW2 6458   3.009   1.321   5.113
 2145SOL     OW 6459   2.973   1.195   4.824
 2145SOL    HW1 6460   2.933   1.239   4.905
 2145SOL    HW2 6461   2.932   1.232   4.741
 2146SOL     OW 6462   3.500   1.099   4.803
 2146SOL    HW1 6463   3.505   1.180   4.862
 2146SOL    HW2 6464   3.414   1.101   4.752
 2147SOL     OW 6465   2.567   1.050   4.092
 2147SOL    HW1 6466   2.553   1.057   4.191
 2147SOL    HW2 6467   2.651   0.999   4.074
 2148SOL     OW 6468   2.272   0.813   4.975
 2148SOL    HW1 6469   2.358   0.825   5.025
 2148SOL    HW2 6470   2.230   0.726   5.002
 2149SOL     OW 6471   3.136   0.386   4.986
 2149SOL    HW1 6472   3.157   0.460   5.050
 2149SOL    HW2 6473   3.047   0.403   4.943
 2150SOL     OW 6474   1.926   1.564   5.055
 2150SOL    HW1 6475   1.880   1.646   5.021
 2150SOL    HW2 6476   2.024   1.583   5.064
 2151SOL     OW 6477   2.229   1.100   4.225
 2151SOL    HW1 6478   2.222   1.183   4.169
 2151SOL    HW2 6479   2.233   1.020   4.165
 2152SOL     OW 6480   2.428   0.537   4.589
 2152SOL    HW1 6481   2.440   0.603   4.515
 2152SOL    HW2 6482   2.474   0.571   4.672
 2153SOL     OW 6483   3.114   1.348   4.112
 2153SOL    HW1 6484   3.164   1.425   4.152
 2153SOL    HW2 6485   3.019   1.350   4.144
 2154SOL     OW 6486   3.134   1.445   4.866
 2154SOL    HW1 6487   3.181   1.458   4.953
 2154SOL    HW2 6488   3.068   1.371   4.875
 2155SOL     OW 6489   3.444   0.639   4.196
 2155SOL    HW1 6490   3.413   0.700   4.269
 2155SOL    HW2 6491   3.494   0.691   4.127
 2156SOL     OW 6492   2.216   1.510   5.053
 2156SOL    HW1 6493   2.195   1.466   4.966
 2156SOL    HW2 6494   2.313   1.536   5.056
 2157SOL     OW 6495   2.435   0.870   4.753
 2157SOL    HW1 6496   2.479   0.959   4.744
 2157SOL    HW2 6497   2.372   0.870   4.830
 2158SOL     OW 6498   3.222   0.862   4.769
 2158SOL    HW1 6499   3.147   0.862   4.703
 2158SOL    HW2 6500   3.259   0.770   4.778
 2159SOL     OW 6501   3.071   0.525   3.999
 2159SOL    HW1 6502   3.084   0.441   4.053
 2159SOL    HW2 6503   3.042   0.599   4.059
 2160SOL     OW 6504   2.169   0.213   4.955
 2160SOL    HW1 6505   2.146   0.250   5.045
 2160SOL    HW2 6506   2.139   0.118   4.949
 2161SOL     OW 6507   1.899   1.310   5.006
 2161SOL    HW1 6508   1.952   1.261   5.074
 2161SOL    HW2 6509   1.921   1.408   5.011
 2162SOL     OW 6510   2.594   0.634   4.788
 2162SOL    HW1 6511   2.653   0.608   4.712
 2162SOL    HW2 6512   2.566   0.730   4.777
 2163SOL     OW 6513   2.169   0.063   4.342
 2163SOL    HW1 6514   2.158   0.157   4.375
 2163SOL    HW2 6515   2.164   0.000   4.419
 2164SOL     OW 6516   3.484   0.367   4.098
 2164SOL    HW1 6517   3.486   0.291   4.162
 2164SOL    HW2 6518   3.436   0.444   4.138
 2165SOL     OW 6519   2.885   0.766   4.690
 2165SOL    HW1 6520   2.900   0.787   4.786
 2165SOL    HW2 6521   2.855   0.671   4.681
 2166SOL     OW 6522   3.402   0.274   3.849
 2166SOL    HW1 6523   3.341   0.199   3.872
 2166SOL    HW2 6524   3.424   0.326   3.932
 2167SOL     OW 6525   3.165   0.838   3.766
 2167SOL    HW1 6526   3.199   0.745   3.781
 2167SOL    HW2 6527   3.183   0.865   3.671
 2168SOL     OW 6528   2.930   1.333   4.573
 2168SOL    HW1 6529   2.937   1.249   4.518
 2168SOL    HW2 6530   2.992   1.402   4.537
 2169SOL     OW 6531   2.181   0.810   4.673
 2169SOL    HW1 6532   2.274   0.846   4.678
 2169SOL    HW2 6533   2.175   0.725   4.725
 2170SOL     OW 6534   2.201   0.509   4.730
 2170SOL    HW1 6535   2.149   0.426   4.713
 2170SOL    HW2 6536   2.278   0.514   4.666
 2171SOL     OW 6537   3.022   0.207   5.201
 2171SOL    HW1 6538   3.022   0.271   5.278
 2171SOL    HW2 6539   3.050   0.255   5.118
 2172SOL     OW 6540   1.870   1.326   3.924
 2172SOL    HW1 6541   1.777   1.347   3.893
 2172SOL    HW2 6542   1.880   1.227   3.937
 2173SOL     OW 6543   1.950   1.801   4.651
 2173SOL    HW1 6544   1.908   1.715   4.624
 2173SOL    HW2 6545   2.044   1.804   4.617
 2174SOL     OW 6546   2.366   1.568   4.634
 2174SOL    HW1 6547   2.432   1.642   4.643
 2174SOL    HW2 6548   2.410   1.489   4.592
 2175SOL     OW 6549   2.864   0.796   4.962
 2175SOL    HW1 6550   2.905   0.764   5.048
 2175SOL    HW2 6551   2.768   0.769   4.959
 2176SOL     OW 6552   1.902   0.544   4.838
 2176SOL    HW1 6553   1.987   0.511   4.797
 2176SOL    HW2 6554   1.915   0.559   4.936
 2177SOL     OW 6555   2.677   0.572   4.049
 2177SOL    HW1 6556   2.684   0.483   4.003
 2177SOL    HW2 6557   2.583   0.606   4.041
 2178SOL     OW 6558   3.519   0.604   4.930
 2178SOL    HW1 6559   3.481   0.535   4.992
 2178SOL    HW2 6560   3.601   0.568   4.886
 2179SOL     OW 6561   2.533   0.464   4.993
 2179SOL    HW1 6562   2.499   0.375   4.963
 2179SOL    HW2 6563   2.559   0.518   4.913
 2180SOL     OW 6564   2.792   1.678   5.189
 2180SOL    HW1 6565   2.768   1.660   5.094
 2180SOL    HW2 6566   2.822   1.772   5.199
 2181SOL     OW 6567   2.335   0.500   3.915
 2181SOL    HW1 6568   2.396   0.580   3.919
 2181SOL    HW2 6569   2.240   0.531   3.922
 2182SOL     OW 6570   2.021   1.137   5.190
 2182SOL    HW1 6571   2.043   1.076   5.266
 2182SOL    HW2 6572   2.031   1.088   5.104
 2183SOL     OW 6573   3.209   1.059   4.958
 2183SOL    HW1 6574   3.233   0.996   4.884
 2183SOL    HW2 6575   3.119   1.099   4.940
 2184SOL     OW 6576   3.164   0.855   4.033
 2184SOL    HW1 6577   3.078   0.824   4.075
 2184SOL    HW2 6578   3.160   0.841   3.934
 2185SOL     OW 6579   3.621   1.747   4.878
 2185SOL    HW1 6580   3.682   1.777   4.805
 2185SOL    HW2 6581   3.583   1.658   4.856
 2186SOL     OW 6582   3.114   1.731   4.852
 2186SOL    HW1 6583   3.198   1.736   4.798
 2186SOL    HW2 6584   3.091   1.635   4.870
 2187SOL     OW 6585   1.945   1.258   4.746
 2187SOL    HW1 6586   1.940   1.257   4.846
 2187SOL    HW2 6587   1.862   1.217   4.708
 2188SOL     OW 6588   3.588   0.135   4.247
 2188SOL    HW1 6589   3.661   0.118   4.180
 2188SOL    HW2 6590   3.557   0.048   4.285
 2189SOL     OW 6591   3.250   1.573   4.201
 2189SOL    HW1 6592   3.317   1.585   4.127
 2189SOL    HW2 6593   3.210   1.662   4.224
 2190SOL     OW 6594   3.142   0.927   4.396
 2190SOL    HW1 6595   3.202   0.846   4.398
 2190SOL    HW2 6596   3.182   0.996   4.336
 2191SOL     OW 6597   2.534   1.616   3.878
 2191SOL    HW1 6598   2.543   1.626   3.779
 2191SOL    HW2 6599   2.494   1.527   3.899
 2192SOL     OW 6600   3.703   0.175   4.687
 2192SOL    HW1 6601   3.742   0.090   4.651
 2192SOL    HW2 6602   3.605   0.177   4.668
 2193SOL     OW 6603   2.125   0.326   4.444
 2193SOL    HW1 6604   2.046   0.377   4.410
 2193SOL    HW2 6605   2.116   0.311   4.542
 2194SOL     OW 6606   3.056   1.612   3.755
 2194SOL    HW1 6607   3.062   1.519   3.792
 2194SOL    HW2 6608   2.997   1.612   3.675
 2195SOL     OW 6609   2.684   1.002   5.096
 2195SOL    HW1 6610   2.724   1.001   5.004
 2195SOL    HW2 6611   2.694   1.094   5.136
 2196SOL     OW 6612   2.778   0.910   4.015
 2196SOL    HW1 6613   2.841   0.948   3.947
 2196SOL    HW2 6614   2.818   0.827   4.054
 2197SOL     OW 6615   3.366   1.607   3.768
 2197SOL    HW1 6616   3.274   1.644   3.775
 2197SOL    HW2 6617   3.404   1.627   3.678
 2198SOL     OW 6618   2.234   1.288   5.214
 2198SOL    HW1 6619   2.221   1.381   5.180
 2198SOL    HW2 6620   2.150   1.236   5.201
 2199SOL     OW 6621   3.476   1.292   5.013
 2199SOL    HW1 6622   3.536   1.295   5.093
 2199SOL    HW2 6623   3.401   1.356   5.026
 2200SOL     OW 6624   2.901   1.098   4.420
 2200SOL    HW1 6625   2.831   1.051   4.474
 2200SOL    HW2 6626   2.960   1.030   4.377
 2201SOL     OW 6627   2.876   0.236   4.695
 2201SOL    HW1 6628   2.868   0.200   4.602
 2201SOL    HW2 6629   2.874   0.160   4.760
 2202SOL     OW 6630   2.452   1.487   4.215
 2202SOL    HW1 6631   2.494   1.429   4.145
 2202SOL    HW2 6632   2.408   1.566   4.171
 2203SOL     OW 6633   3.571   0.385   5.105
 2203SOL    HW1 6634   3.644   0.454   5.109
 2203SOL    HW2 6635   3.599   0.310   5.046
 2204SOL     OW 6636   2.117   1.348   4.014
 2204SOL    HW1 6637   2.021   1.349   3.987
 2204SOL    HW2 6638   2.129   1.401   4.098
 2205SOL     OW 6639   1.937   0.345   3.757
 2205SOL    HW1 6640   1.845   0.317   3.728
 2205SOL    HW2 6641   1.968   0.422   3.701
 2206SOL     OW 6642   1.934   0.166   4.042
 2206SOL    HW1 6643   1.917   0.249   3.988
 2206SOL    HW2 6644   2.024   0.129   4.020
 2207SOL     OW 6645   3.045   1.335   3.843
 2207SOL    HW1 6646   2.946   1.324   3.845
 2207SOL    HW2 6647   3.079   1.350   3.936
 2208SOL     OW 6648   2.475   0.842   5.155
 2208SOL    HW1 6649   2.531   0.923   5.138
 2208SOL    HW2 6650   2.534   0.762   5.158
 2209SOL     OW 6651   3.355   1.767   4.683
 2209SOL    HW1 6652   3.388   1.831   4.614
 2209SOL    HW2 6653   3.421   1.761   4.758
 2210SOL     OW 6654   2.252   1.741   5.284
 2210SOL    HW1 6655   2.161   1.782   5.282
 2210SOL    HW2 6656   2.245   1.647   5.316
 2211SOL     OW 6657   3.536   0.883   4.978
 2211SOL    HW1 6658   3.509   0.794   4.941
 2211SOL    HW2 6659   3.537   0.951   4.905
 2212SOL     OW 6660   3.087   0.325   4.173
 2212SOL    HW1 6661   3.152   0.251   4.162
 2212SOL    HW2 6662   3.107   0.375   4.257
 2213SOL     OW 6663   2.456   0.745   4.376
 2213SOL    HW1 6664   2.506   0.830   4.357
 2213SOL    HW2 6665   2.368   0.747   4.328
 2214SOL     OW 6666   3.592   0.934   5.241
 2214SOL    HW1 6667   3.630   1.025   5.256
 2214SOL    HW2 6668   3.584   0.917   5.142
 2215SOL     OW 6669   2.721   1.374   3.740
 2215SOL    HW1 6670   2.675   1.389   3.828
 2215SOL    HW2 6671   2.765   1.459   3.710
 2216SOL     OW 6672   2.523   1.790   4.677
 2216SOL    HW1 6673   2.477   1.878   4.664
 2216SOL    HW2 6674   2.622   1.802   4.670
 2217SOL     OW 6675   2.721   0.956   4.585
 2217SOL    HW1 6676   2.775   0.887   4.633
 2217SOL    HW2 6677   2.689   1.025   4.651
 2218SOL     OW 6678   2.945   0.984   3.811
 2218SOL    HW1 6679   2.922   1.037   3.729
 2218SOL    HW2 6680   3.026   0.928   3.792
 2219SOL     OW 6681   3.723   1.569   4.575
 2219SOL    HW1 6682   3.652   1.557   4.505
 2219SOL    HW2 6683   3.724   1.490   4.635
 2220SOL     OW 6684   1.941   1.240   4.377
 2220SOL    HW1 6685   1.940   1.193   4.465
 2220SOL    HW2 6686   2.023   1.212   4.326
 2221SOL     OW 6687   3.686   0.192   4.951
 2221SOL    HW1 6688   3.682   0.102   4.995
 2221SOL    HW2 6689   3.689   0.181   4.852
 2222SOL     OW 6690   2.290   0.424   4.244
 2222SOL    HW1 6691   2.320   0.352   4.182
 2222SOL    HW2 6692   2.251   0.384   4.327
 2223SOL     OW 6693   3.567   1.487   4.828
 2223SOL    HW1 6694   3.474   1.462   4.801
 2223SOL    HW2 6695   3.593   1.437   4.910
 2224SOL     OW 6696   2.179   0.547   5.004
 2224SOL    HW1 6697   2.217   0.488   5.076
 2224SOL    HW2 6698   2.219   0.521   4.916
 2225SOL     OW 6699   2.674   1.586   4.411
 2225SOL    HW1 6700   2.706   1.596   4.317
 2225SOL    HW2 6701   2.595   1.524   4.413
 2226SOL     OW 6702   3.286   0.214   4.836
 2226SOL    HW1 6703   3.338   0.149   4.891
 2226SOL    HW2 6704   3.237   0.277   4.897
 2227SOL     OW 6705   2.863   0.034   4.878
 2227SOL    HW1 6706   2.800  -0.038   4.847
 2227SOL    HW2 6707   2.956  -0.002   4.878
 2228SOL     OW 6708   2.632   1.330   4.025
 2228SOL    HW1 6709   2.586   1.243   4.042
 2228SOL    HW2 6710   2.723   1.327   4.066
 2229SOL     OW 6711   2.480   1.567   5.008
 2229SOL    HW1 6712   2.475   1.649   5.065
 2229SOL    HW2 6713   2.569   1.564   4.963
 2230SOL     OW 6714   3.214   0.052   3.892
 2230SOL    HW1 6715   3.249   0.011   3.808
 2230SOL    HW2 6716   3.124   0.014   3.912
 2231SOL     OW 6717   3.162   0.453   4.415
 2231SOL    HW1 6718   3.103   0.533   4.419
 2231SOL    HW2 6719   3.177   0.418   4.508
 2232SOL     OW 6720   3.455   0.221   4.606
 2232SOL    HW1 6721   3.371   0.220   4.660
 2232SOL    HW2 6722   3.457   0.304   4.550
 2233SOL     OW 6723   1.901   1.077   4.024
 2233SOL    HW1 6724   2.000   1.066   4.015
 2233SOL    HW2 6725   1.861   0.991   4.056
 2234SOL     OW 6726   2.737   1.646   4.061
 2234SOL    HW1 6727   2.660   1.611   4.007
 2234SOL    HW2 6728   2.705   1.717   4.123
 2235SOL     OW 6729   2.092   2.490   0.113
 2235SOL    HW1 6730   1.999   2.488   0.150
 2235SOL    HW2 6731   2.093   2.451   0.021
 2236SOL     OW 6732   2.087   2.137   0.996
 2236SOL    HW1 6733   2.122   2.120   1.088
 2236SOL    HW2 6734   1.999   2.092   0.984
 2237SOL     OW 6735   1.881   2.230   0.647
 2237SOL    HW1 6736   1.799   2.273   0.686
 2237SOL    HW2 6737   1.853   2.157   0.584
 2238SOL     OW 6738   2.431   3.137   1.165
 2238SOL    HW1 6739   2.338   3.130   1.128
 2238SOL    HW2 6740   2.442   3.226   1.209
 2239SOL     OW 6741   3.417   3.373   0.703
 2239SOL    HW1 6742   3.360   3.357   0.784
 2239SOL    HW2 6743   3.358   3.383   0.623
 2240SOL     OW 6744   2.997   2.565   0.717
 2240SOL    HW1 6745   3.054   2.643   0.692
 2240SOL    HW2 6746   2.937   2.591   0.793
 2241SOL     OW 6747   3.617   2.469   0.231
 2241SOL    HW1 6748   3.605   2.456   0.132
 2241SOL    HW2 6749   3.587   2.388   0.280
 2242SOL     OW 6750   2.630   3.006   1.023
 2242SOL    HW1 6751   2.552   3.023   1.083
 2242SOL    HW2 6752   2.664   3.093   0.987
 2243SOL     OW 6753   2.712   2.660   1.823
 2243SOL    HW1 6754   2.708   2.736   1.888
 2243SOL    HW2 6755   2.734   2.696   1.732
 2244SOL     OW 6756   2.547   2.874   0.665
 2244SOL    HW1 6757   2.616   2.858   0.735
 2244SOL    HW2 6758   2.474   2.931   0.703
 2245SOL     OW 6759   2.548   3.023   1.803
 2245SOL    HW1 6760   2.608   3.102   1.817
 2245SOL    HW2 6761   2.462   3.054   1.762
 2246SOL     OW 6762   2.197   3.297   1.061
 2246SOL    HW1 6763   2.119   3.266   1.008
 2246SOL    HW2 6764   2.255   3.355   1.004
 2247SOL     OW 6765   3.322   3.367   1.339
 2247SOL    HW1 6766   3.346   3.461   1.365
 2247SOL    HW2 6767   3.306   3.313   1.421
 2248SOL     OW 6768   2.300   2.254   1.499
 2248SOL    HW1 6769   2.382   2.198   1.508
 2248SOL    HW2 6770   2.219   2.196   1.503
 2249SOL     OW 6771   3.465   2.309   0.737
 2249SOL    HW1 6772   3.391   2.355   0.687
 2249SOL    HW2 6773   3.516   2.377   0.790
 2250SOL     OW 6774   2.093   3.575   0.483
 2250SOL    HW1 6775   2.127   3.652   0.537
 2250SOL    HW2 6776   2.137   3.575   0.393
 2251SOL     OW 6777   2.989   3.203   1.690
 2251SOL    HW1 6778   3.036   3.203   1.778
 2251SOL    HW2 6779   2.941   3.116   1.679
 2252SOL     OW 6780   2.092   3.296   0.538
 2252SOL    HW1 6781   2.066   3.392   0.538
 2252SOL    HW2 6782   2.021   3.242   0.583
 2253SOL     OW 6783   2.102   2.953   0.886
 2253SOL    HW1 6784   2.116   2.869   0.938
 2253SOL    HW2 6785   2.047   3.017   0.941
 2254SOL     OW 6786   2.482   3.648   1.439
 2254SOL    HW1 6787   2.390   3.631   1.474
 2254SOL    HW2 6788   2.510   3.740   1.465
 2255SOL     OW 6789   2.468   2.826   0.123
 2255SOL    HW1 6790   2.475   2.910   0.069
 2255SOL    HW2 6791   2.514   2.839   0.211
 2256SOL     OW 6792   3.456   1.976   1.480
 2256SOL    HW1 6793   3.438   2.043   1.408
 2256SOL    HW2 6794   3.453   2.022   1.569
 2257SOL     OW 6795   1.984   2.505   0.563
 2257SOL    HW1 6796   1.939   2.417   0.580
 2257SOL    HW2 6797   1.983   2.559   0.647
 2258SOL     OW 6798   3.704   3.629   0.359
 2258SOL    HW1 6799   3.758   3.600   0.439
 2258SOL    HW2 6800   3.734   3.719   0.330
 2259SOL     OW 6801   1.889   3.458   0.117
 2259SOL    HW1 6802   1.870   3.362   0.138
 2259SOL    HW2 6803   1.856   3.516   0.192
 2260SOL     OW 6804   3.551   2.784   0.612
 2260SOL    HW1 6805   3.646   2.755   0.620
 2260SOL    HW2 6806   3.543   2.849   0.537
 2261SOL     OW 6807   3.503   2.970   0.432
 2261SOL    HW1 6808   3.589   2.972   0.380
 2261SOL    HW2 6809   3.517   3.017   0.520
 2262SOL     OW 6810   1.975   2.599   1.597
 2262SOL    HW1 6811   2.063   2.586   1.642
 2262SOL    HW2 6812   1.962   2.696   1.575
 2263SOL     OW 6813   2.475   3.227   0.726
 2263SOL    HW1 6814   2.426   3.140   0.735
 2263SOL    HW2 6815   2.452   3.270   0.639
 2264SOL     OW 6816   3.155   3.090   1.423
 2264SOL    HW1 6817   3.192   3.017   1.365
 2264SOL    HW2 6818   3.207   3.095   1.508
 2265SOL     OW 6819   2.671   1.866   0.502
 2265SOL    HW1 6820   2.711   1.957   0.493
 2265SOL    HW2 6821   2.571   1.874   0.508
 2266SOL     OW 6822   2.059   2.838   1.264
 2266SOL    HW1 6823   2.148   2.793   1.250
 2266SOL    HW2 6824   1.986   2.773   1.245
 2267SOL     OW 6825   3.387   2.861   0.190
 2267SOL    HW1 6826   3.324   2.785   0.203
 2267SOL    HW2 6827   3.435   2.879   0.276
 2268SOL     OW 6828   3.049   3.654   1.616
 2268SOL    HW1 6829   3.073   3.714   1.540
 2268SOL    HW2 6830   3.056   3.559   1.586
 2269SOL     OW 6831   2.179   2.113   1.801
 2269SOL    HW1 6832   2.250   2.184   1.807
 2269SOL    HW2 6833   2.091   2.152   1.829
 2270SOL     OW 6834   3.328   3.279   0.953
 2270SOL    HW1 6835   3.269   3.285   1.033
 2270SOL    HW2 6836   3.313   3.191   0.907
 2271SOL     OW 6837   3.529   3.576   0.572
 2271SOL    HW1 6838   3.488   3.553   0.484
 2271SOL    HW2 6839   3.511   3.502   0.637
 2272SOL     OW 6840   2.460   2.591   0.270
 2272SOL    HW1 6841   2.484   2.660   0.202
 2272SOL    HW2 6842   2.382   2.624   0.324
 2273SOL     OW 6843   3.143   2.207   0.944
 2273SOL    HW1 6844   3.057   2.157   0.931
 2273SOL    HW2 6845   3.205   2.153   1.000
 2274SOL     OW 6846   3.438   3.524   0.307
 2274SOL    HW1 6847   3.527   3.570   0.310
 2274SOL    HW2 6848   3.417   3.500   0.212
 2275SOL     OW 6849   2.669   2.467   1.465
 2275SOL    HW1 6850   2.622   2.464   1.554
 2275SOL    HW2 6851   2.618   2.412   1.399
 2276SOL     OW 6852   3.256   2.331   1.674
 2276SOL    HW1 6853   3.236   2.374   1.762
 2276SOL    HW2 6854   3.334   2.269   1.683
 2277SOL     OW 6855   2.835   2.752   1.572
 2277SOL    HW1 6856   2.881   2.668   1.543
 2277SOL    HW2 6857   2.779   2.786   1.497
 2278SOL     OW 6858   2.853   2.272   1.242
 2278SOL    HW1 6859   2.776   2.306   1.296
 2278SOL    HW2 6860   2.819   2.221   1.163
 2279SOL     OW 6861   2.903   2.563   0.429
 2279SOL    HW1 6862   2.929   2.559   0.525
 2279SOL    HW2 6863   2.818   2.512   0.415
 2280SOL     OW 6864   1.938   2.673   0.789
 2280SOL    HW1 6865   2.037   2.661   0.798
 2280SOL    HW2 6866   1.914   2.768   0.810
 2281SOL     OW 6867   1.992   3.683   1.571
 2281SOL    HW1 6868   1.982   3.668   1.670
 2281SOL    HW2 6869   1.906   3.719   1.535
 2282SOL     OW 6870   2.727   2.210   0.195
 2282SOL    HW1 6871   2.786   2.273   0.146
 2282SOL    HW2 6872   2.746   2.116   0.166
 2283SOL     OW 6873   3.581   2.447   1.831
 2283SOL    HW1 6874   3.555   2.536   1.795
 2283SOL    HW2 6875   3.579   2.379   1.758
 2284SOL     OW 6876   3.224   3.006   0.545
 2284SOL    HW1 6877   3.307   2.977   0.497
 2284SOL    HW2 6878   3.175   3.073   0.489
 2285SOL     OW 6879   2.412   2.058   0.885
 2285SOL    HW1 6880   2.407   2.053   0.985
 2285SOL    HW2 6881   2.414   2.154   0.856
 2286SOL     OW 6882   2.870   3.318   0.477
 2286SOL    HW1 6883   2.824   3.390   0.425
 2286SOL    HW2 6884   2.866   3.338   0.575
 2287SOL     OW 6885   2.213   3.663   0.853
 2287SOL    HW1 6886   2.263   3.577   0.859
 2287SOL    HW2 6887   2.278   3.740   0.850
 2288SOL     OW 6888   3.657   2.928   0.873
 2288SOL    HW1 6889   3.595   2.913   0.797
 2288SOL    HW2 6890   3.605   2.939   0.958
 2289SOL     OW 6891   3.089   3.412   1.506
 2289SOL    HW1 6892   3.095   3.335   1.570
 2289SOL    HW2 6893   3.037   3.386   1.426
 2290SOL     OW 6894   2.183   2.805   0.242
 2290SOL    HW1 6895   2.265   2.844   0.200
 2290SOL    HW2 6896   2.156   2.723   0.193
 2291SOL     OW 6897   3.320   2.597   0.728
 2291SOL    HW1 6898   3.315   2.532   0.803
 2291SOL    HW2 6899   3.400   2.656   0.741
 2292SOL     OW 6900   2.323   3.128   1.727
 2292SOL    HW1 6901   2.273   3.129   1.641
 2292SOL    HW2 6902   2.260   3.110   1.803
 2293SOL     OW 6903   2.973   3.638   0.237
 2293SOL    HW1 6904   2.913   3.576   0.287
 2293SOL    HW2 6905   3.004   3.594   0.152
 2294SOL     OW 6906   2.064   2.147   1.498
 2294SOL    HW1 6907   1.984   2.207   1.485
 2294SOL    HW2 6908   2.054   2.098   1.584
 2295SOL     OW 6909   3.494   3.239   0.081
 2295SOL    HW1 6910   3.462   3.333   0.071
 2295SOL    HW2 6911   3.418   3.176   0.069
 2296SOL     OW 6912   2.326   3.605   0.323
 2296SOL    HW1 6913   2.359   3.644   0.409
 2296SOL    HW2 6914   2.402   3.598   0.258
 2297SOL     OW 6915   3.262   1.969   0.426
 2297SOL    HW1 6916   3.238   1.932   0.336
 2297SOL    HW2 6917   3.361   1.985   0.430
 2298SOL     OW 6918   2.111   3.647   1.241
 2298SOL    HW1 6919   2.168   3.582   1.291
 2298SOL    HW2 6920   2.095   3.614   1.148
 2299SOL     OW 6921   2.802   3.560   0.904
 2299SOL    HW1 6922   2.882   3.503   0.925
 2299SOL    HW2 6923   2.753   3.520   0.827
 2300SOL     OW 6924   2.244   2.562   0.480
 2300SOL    HW1 6925   2.289   2.472   0.477
 2300SOL    HW2 6926   2.150   2.551   0.513
 2301SOL     OW 6927   3.409   2.084   1.729
 2301SOL    HW1 6928   3.404   2.121   1.821
 2301SOL    HW2 6929   3.337   2.015   1.717
 2302SOL     OW 6930   2.643   2.126   1.749
 2302SOL    HW1 6931   2.710   2.065   1.792
 2302SOL    HW2 6932   2.570   2.145   1.814
 2303SOL     OW 6933   2.750   3.376   1.195
 2303SOL    HW1 6934   2.727   3.351   1.101
 2303SOL    HW2 6935   2.811   3.307   1.234
 2304SOL     OW 6936   3.213   2.452   1.433
 2304SOL    HW1 6937   3.241   2.409   1.518
 2304SOL    HW2 6938   3.238   2.548   1.434
 2305SOL     OW 6939   2.665   3.264   0.924
 2305SOL    HW1 6940   2.755   3.278   0.882
 2305SOL    HW2 6941   2.594   3.266   0.853
 2306SOL     OW 6942   2.784   2.365   0.899
 2306SOL    HW1 6943   2.759   2.356   0.803
 2306SOL    HW2 6944   2.832   2.283   0.930
 2307SOL     OW 6945   2.401   1.926   0.512
 2307SOL    HW1 6946   2.320   1.927   0.570
 2307SOL    HW2 6947   2.404   2.009   0.457
 2308SOL     OW 6948   3.296   3.050   0.041
 2308SOL    HW1 6949   3.328   2.974   0.098
 2308SOL    HW2 6950   3.204   3.077   0.071
 2309SOL     OW 6951   2.797   2.098   0.480
 2309SOL    HW1 6952   2.749   2.139   0.402
 2309SOL    HW2 6953   2.896   2.096   0.461
 2310SOL     OW 6954   2.938   2.545   1.464
 2310SOL    HW1 6955   2.858   2.484   1.467
 2310SOL    HW2 6956   3.019   2.492   1.440
 2311SOL     OW 6957   3.089   3.432   0.793
 2311SOL    HW1 6958   3.110   3.506   0.728
 2311SOL    HW2 6959   3.157   3.432   0.866
 2312SOL     OW 6960   2.321   3.014   0.741
 2312SOL    HW1 6961   2.250   2.987   0.806
 2312SOL    HW2 6962   2.295   2.986   0.648
 2313SOL     OW 6963   3.133   3.659   0.591
 2313SOL    HW1 6964   3.177   3.723   0.527
 2313SOL    HW2 6965   3.083   3.711   0.661
 2314SOL     OW 6966   2.894   2.411   0.016
 2314SOL    HW1 6967   2.853   2.493  -0.023
 2314SOL    HW2 6968   2.958   2.437   0.089
 2315SOL     OW 6969   1.940   2.418   1.386
 2315SOL    HW1 6970   2.032   2.417   1.345
 2315SOL    HW2 6971   1.934   2.492   1.453
 2316SOL     OW 6972   2.423   2.084   1.147
 2316SOL    HW1 6973   2.461   2.000   1.184
 2316SOL    HW2 6974   2.335   2.103   1.191
 2317SOL     OW 6975   2.728   2.316   0.642
 2317SOL    HW1 6976   2.696   2.388   0.580
 2317SOL    HW2 6977   2.752   2.235   0.589
 2318SOL     OW 6978   2.879   1.901   0.753
 2318SOL    HW1 6979   2.807   1.906   0.684
 2318SOL    HW2 6980   2.855   1.832   0.822
 2319SOL     OW 6981   3.291   3.035   0.867
 2319SOL    HW1 6982   3.236   2.951   0.860
 2319SOL    HW2 6983   3.317   3.064   0.775
 2320SOL     OW 6984   3.328   2.452   0.992
 2320SOL    HW1 6985   3.298   2.357   0.999
 2320SOL    HW2 6986   3.401   2.468   1.058
 2321SOL     OW 6987   3.719   2.695   0.377
 2321SOL    HW1 6988   3.761   2.631   0.441
 2321SOL    HW2 6989   3.681   2.644   0.299
 2322SOL     OW 6990   2.350   3.247   0.174
 2322SOL    HW1 6991   2.263   3.232   0.221
 2322SOL    HW2 6992   2.333   3.273   0.079
 2323SOL     OW 6993   3.526   3.142   0.657
 2323SOL    HW1 6994   3.625   3.150   0.671
 2323SOL    HW2 6995   3.481   3.226   0.688
 2324SOL     OW 6996   3.252   2.437   0.078
 2324SOL    HW1 6997   3.198   2.416   0.159
 2324SOL    HW2 6998   3.343   2.396   0.087
 2325SOL     OW 6999   2.389   2.118   0.328
 2325SOL    HW1 7000   2.416   2.059   0.253
 2325SOL    HW2 7001   2.389   2.213   0.297
 2326SOL     OW 7002   3.616   3.085   1.588
 2326SOL    HW1 7003   3.707   3.046   1.575
 2326SOL    HW2 7004   3.624   3.181   1.612
 2327SOL     OW 7005   2.926   3.209   1.340
 2327SOL    HW1 7006   2.846   3.186   1.395
 2327SOL    HW2 7007   3.009   3.183   1.389
 2328SOL     OW 7008   3.454   3.491   1.625
 2328SOL    HW1 7009   3.481   3.525   1.535
 2328SOL    HW2 7010   3.533   3.453   1.671
 2329SOL     OW 7011   2.973   3.057   1.100
 2329SOL    HW1 7012   2.933   3.101   1.181
 2329SOL    HW2 7013   2.932   3.094   1.017
 2330SOL     OW 7014   3.500   2.961   1.079
 2330SOL    HW1 7015   3.505   3.042   1.138
 2330SOL    HW2 7016   3.414   2.963   1.028
 2331SOL     OW 7017   2.777   1.951   1.402
 2331SOL    HW1 7018   2.802   1.931   1.307
 2331SOL    HW2 7019   2.849   2.007   1.444
 2332SOL     OW 7020   2.842   2.978   1.719
 2332SOL    HW1 7021   2.743   2.984   1.729
 2332SOL    HW2 7022   2.865   2.898   1.663
 2333SOL     OW 7023   2.567   2.912   0.368
 2333SOL    HW1 7024   2.553   2.919   0.467
 2333SOL    HW2 7025   2.651   2.861   0.350
 2334SOL     OW 7026   2.272   2.675   1.251
 2334SOL    HW1 7027   2.358   2.687   1.301
 2334SOL    HW2 7028   2.230   2.588   1.278
 2335SOL     OW 7029   3.136   2.248   1.262
 2335SOL    HW1 7030   3.157   2.322   1.326
 2335SOL    HW2 7031   3.047   2.265   1.219
 2336SOL     OW 7032   1.926   3.426   1.331
 2336SOL    HW1 7033   1.880   3.508   1.297
 2336SOL    HW2 7034   2.024   3.445   1.340
 2337SOL     OW 7035   2.229   2.962   0.501
 2337SOL    HW1 7036   2.222   3.045   0.445
 2337SOL    HW2 7037   2.233   2.882   0.441
 2338SOL     OW 7038   2.428   2.399   0.865
 2338SOL    HW1 7039   2.440   2.465   0.791
 2338SOL    HW2 7040   2.474   2.433   0.948
 2339SOL     OW 7041   3.114   3.210   0.388
 2339SOL    HW1 7042   3.164   3.287   0.428
 2339SOL    HW2 7043   3.019   3.212   0.420
 2340SOL     OW 7044   3.134   3.307   1.142
 2340SOL    HW1 7045   3.181   3.320   1.229
 2340SOL    HW2 7046   3.068   3.233   1.151
 2341SOL     OW 7047   3.444   2.501   0.472
 2341SOL    HW1 7048   3.413   2.562   0.545
 2341SOL    HW2 7049   3.494   2.553   0.403
 2342SOL     OW 7050   2.216   3.372   1.329
 2342SOL    HW1 7051   2.195   3.328   1.242
 2342SOL    HW2 7052   2.313   3.398   1.332
 2343SOL     OW 7053   2.264   2.613   1.598
 2343SOL    HW1 7054   2.332   2.668   1.551
 2343SOL    HW2 7055   2.304   2.525   1.625
 2344SOL     OW 7056   3.449   2.641   1.670
 2344SOL    HW1 7057   3.357   2.679   1.665
 2344SOL    HW2 7058   3.509   2.688   1.605
 2345SOL     OW 7059   2.875   1.967   1.770
 2345SOL    HW1 7060   2.881   2.052   1.718
 2345SOL    HW2 7061   2.907   1.891   1.713
 2346SOL     OW 7062   2.366   1.912   1.740
 2346SOL    HW1 7063   2.324   1.855   1.670
 2346SOL    HW2 7064   2.300   1.981   1.772
 2347SOL     OW 7065   2.435   2.732   1.029
 2347SOL    HW1 7066   2.479   2.821   1.020
 2347SOL    HW2 7067   2.372   2.732   1.106
 2348SOL     OW 7068   3.222   2.724   1.045
 2348SOL    HW1 7069   3.147   2.724   0.979
 2348SOL    HW2 7070   3.259   2.632   1.054
 2349SOL     OW 7071   3.071   2.387   0.275
 2349SOL    HW1 7072   3.084   2.303   0.329
 2349SOL    HW2 7073   3.042   2.461   0.335
 2350SOL     OW 7074   2.169   2.075   1.231
 2350SOL    HW1 7075   2.146   2.112   1.321
 2350SOL    HW2 7076   2.139   1.980   1.225
 2351SOL     OW 7077   1.899   3.172   1.282
 2351SOL    HW1 7078   1.952   3.123   1.350
 2351SOL    HW2 7079   1.921   3.270   1.287
 2352SOL     OW 7080   2.594   2.496   1.064
 2352SOL    HW1 7081   2.653   2.470   0.988
 2352SOL    HW2 7082   2.566   2.592   1.053
 2353SOL     OW 7083   3.590   2.797   1.854
 2353SOL    HW1 7084   3.544   2.790   1.765
 2353SOL    HW2 7085   3.528   2.841   1.920
 2354SOL     OW 7086   2.169   1.925   0.618
 2354SOL    HW1 7087   2.158   2.019   0.651
 2354SOL    HW2 7088   2.164   1.862   0.695
 2355SOL     OW 7089   3.484   2.229   0.374
 2355SOL    HW1 7090   3.486   2.153   0.438
 2355SOL    HW2 7091   3.436   2.306   0.414
 2356SOL     OW 7092   2.885   2.628   0.966
 2356SOL    HW1 7093   2.900   2.649   1.062
 2356SOL    HW2 7094   2.855   2.533   0.957
 2357SOL     OW 7095   2.842   3.435   1.700
 2357SOL    HW1 7096   2.822   3.479   1.612
 2357SOL    HW2 7097   2.881   3.344   1.684
 2358SOL     OW 7098   3.721   3.380   1.605
 2358SOL    HW1 7099   3.735   3.407   1.510
 2358SOL    HW2 7100   3.804   3.402   1.658
 2359SOL     OW 7101   2.212   2.760   1.804
 2359SOL    HW1 7102   2.288   2.804   1.852
 2359SOL    HW2 7103   2.247   2.713   1.722
 2360SOL     OW 7104   3.402   2.136   0.125
 2360SOL    HW1 7105   3.341   2.061   0.148
 2360SOL    HW2 7106   3.424   2.188   0.208
 2361SOL     OW 7107   3.165   2.700   0.042
 2361SOL    HW1 7108   3.199   2.607   0.057
 2361SOL    HW2 7109   3.183   2.727  -0.053
 2362SOL     OW 7110   2.930   3.195   0.849
 2362SOL    HW1 7111   2.937   3.111   0.794
 2362SOL    HW2 7112   2.992   3.264   0.813
 2363SOL     OW 7113   2.181   2.672   0.949
 2363SOL    HW1 7114   2.274   2.708   0.954
 2363SOL    HW2 7115   2.175   2.587   1.001
 2364SOL     OW 7116   2.201   2.371   1.006
 2364SOL    HW1 7117   2.149   2.288   0.989
 2364SOL    HW2 7118   2.278   2.376   0.942
 2365SOL     OW 7119   3.000   2.242   1.678
 2365SOL    HW1 7120   2.955   2.305   1.742
 2365SOL    HW2 7121   3.093   2.273   1.661
 2366SOL     OW 7122   3.022   2.069   1.477
 2366SOL    HW1 7123   3.022   2.133   1.554
 2366SOL    HW2 7124   3.050   2.117   1.394
 2367SOL     OW 7125   1.950   3.663   0.927
 2367SOL    HW1 7126   1.908   3.577   0.900
 2367SOL    HW2 7127   2.044   3.666   0.893
 2368SOL     OW 7128   2.366   3.430   0.910
 2368SOL    HW1 7129   2.432   3.504   0.919
 2368SOL    HW2 7130   2.410   3.351   0.868
 2369SOL     OW 7131   2.864   2.658   1.238
 2369SOL    HW1 7132   2.905   2.626   1.324
 2369SOL    HW2 7133   2.768   2.631   1.235
 2370SOL     OW 7134   1.902   2.406   1.114
 2370SOL    HW1 7135   1.987   2.373   1.073
 2370SOL    HW2 7136   1.915   2.421   1.212
 2371SOL     OW 7137   2.051   2.382   1.722
 2371SOL    HW1 7138   2.110   2.342   1.652
 2371SOL    HW2 7139   1.993   2.453   1.681
 2372SOL     OW 7140   3.231   2.812   1.660
 2372SOL    HW1 7141   3.270   2.901   1.680
 2372SOL    HW2 7142   3.241   2.792   1.563
 2373SOL     OW 7143   2.677   2.434   0.325
 2373SOL    HW1 7144   2.684   2.345   0.279
 2373SOL    HW2 7145   2.583   2.468   0.317
 2374SOL     OW 7146   3.519   2.466   1.206
 2374SOL    HW1 7147   3.481   2.397   1.268
 2374SOL    HW2 7148   3.601   2.430   1.162
 2375SOL     OW 7149   2.114   3.426   1.744
 2375SOL    HW1 7150   2.084   3.483   1.820
 2375SOL    HW2 7151   2.107   3.329   1.770
 2376SOL     OW 7152   2.533   2.326   1.269
 2376SOL    HW1 7153   2.499   2.237   1.239
 2376SOL    HW2 7154   2.559   2.380   1.189
 2377SOL     OW 7155   2.792   3.540   1.465
 2377SOL    HW1 7156   2.768   3.522   1.370
 2377SOL    HW2 7157   2.822   3.634   1.475
 2378SOL     OW 7158   2.335   2.362   0.191
 2378SOL    HW1 7159   2.396   2.442   0.195
 2378SOL    HW2 7160   2.240   2.393   0.198
 2379SOL     OW 7161   2.021   2.999   1.466
 2379SOL    HW1 7162   2.043   2.938   1.542
 2379SOL    HW2 7163   2.031   2.950   1.380
 2380SOL     OW 7164   3.209   2.921   1.234
 2380SOL    HW1 7165   3.233   2.858   1.160
 2380SOL    HW2 7166   3.119   2.961   1.216
 2381SOL     OW 7167   3.164   2.717   0.309
 2381SOL    HW1 7168   3.078   2.686   0.351
 2381SOL    HW2 7169   3.160   2.703   0.210
 2382SOL     OW 7170   3.621   3.609   1.154
 2382SOL    HW1 7171   3.682   3.639   1.081
 2382SOL    HW2 7172   3.583   3.520   1.132
 2383SOL     OW 7173   3.114   3.593   1.128
 2383SOL    HW1 7174   3.198   3.598   1.074
 2383SOL    HW2 7175   3.091   3.497   1.146
 2384SOL     OW 7176   1.945   3.120   1.022
 2384SOL    HW1 7177   1.940   3.119   1.122
 2384SOL    HW2 7178   1.862   3.079   0.984
 2385SOL     OW 7179   2.550   3.524   1.716
 2385SOL    HW1 7180   2.494   3.605   1.725
 2385SOL    HW2 7181   2.602   3.528   1.630
 2386SOL     OW 7182   2.765   1.948   0.133
 2386SOL    HW1 7183   2.816   1.949   0.047
 2386SOL    HW2 7184   2.821   1.906   0.204
 2387SOL     OW 7185   3.588   1.997   0.523
 2387SOL    HW1 7186   3.661   1.980   0.456
 2387SOL    HW2 7187   3.557   1.910   0.561
 2388SOL     OW 7188   3.250   3.435   0.477
 2388SOL    HW1 7189   3.317   3.447   0.403
 2388SOL    HW2 7190   3.210   3.524   0.500
 2389SOL     OW 7191   1.992   3.656   1.851
 2389SOL    HW1 7192   1.951   3.582   1.904
 2389SOL    HW2 7193   2.056   3.707   1.909
 2390SOL     OW 7194   3.142   2.789   0.672
 2390SOL    HW1 7195   3.202   2.708   0.674
 2390SOL    HW2 7196   3.182   2.858   0.612
 2391SOL     OW 7197   2.692   3.135   1.422
 2391SOL    HW1 7198   2.687   3.168   1.517
 2391SOL    HW2 7199   2.606   3.154   1.376
 2392SOL     OW 7200   2.534   3.478   0.154
 2392SOL    HW1 7201   2.543   3.488   0.055
 2392SOL    HW2 7202   2.494   3.389   0.175
 2393SOL     OW 7203   3.512   3.582   1.394
 2393SOL    HW1 7204   3.565   3.592   1.310
 2393SOL    HW2 7205   3.485   3.672   1.428
 2394SOL     OW 7206   3.703   2.037   0.963
 2394SOL    HW1 7207   3.742   1.952   0.927
 2394SOL    HW2 7208   3.605   2.039   0.944
 2395SOL     OW 7209   2.125   2.188   0.720
 2395SOL    HW1 7210   2.046   2.239   0.686
 2395SOL    HW2 7211   2.116   2.173   0.818
 2396SOL     OW 7212   3.056   3.474   0.031
 2396SOL    HW1 7213   3.062   3.381   0.068
 2396SOL    HW2 7214   2.997   3.474  -0.049
 2397SOL     OW 7215   2.684   2.864   1.372
 2397SOL    HW1 7216   2.724   2.863   1.280
 2397SOL    HW2 7217   2.694   2.956   1.412
 2398SOL     OW 7218   2.778   2.772   0.291
 2398SOL    HW1 7219   2.841   2.810   0.223
 2398SOL    HW2 7220   2.818   2.689   0.330
 2399SOL     OW 7221   3.366   3.469   0.044
 2399SOL    HW1 7222   3.274   3.506   0.051
 2399SOL    HW2 7223   3.404   3.489  -0.046
 2400SOL     OW 7224   2.234   3.150   1.490
 2400SOL    HW1 7225   2.221   3.243   1.456
 2400SOL    HW2 7226   2.150   3.098   1.477
 2401SOL     OW 7227   3.476   3.154   1.289
 2401SOL    HW1 7228   3.536   3.157   1.369
 2401SOL    HW2 7229   3.401   3.218   1.302
 2402SOL     OW 7230   2.901   2.960   0.696
 2402SOL    HW1 7231   2.831   2.913   0.750
 2402SOL    HW2 7232   2.960   2.892   0.653
 2403SOL     OW 7233   2.876   2.098   0.971
 2403SOL    HW1 7234   2.868   2.062   0.878
 2403SOL    HW2 7235   2.874   2.022   1.036
 2404SOL     OW 7236   2.452   3.349   0.491
 2404SOL    HW1 7237   2.494   3.291   0.421
 2404SOL    HW2 7238   2.408   3.428   0.447
 2405SOL     OW 7239   3.571   2.247   1.381
 2405SOL    HW1 7240   3.644   2.316   1.385
 2405SOL    HW2 7241   3.599   2.172   1.322
 2406SOL     OW 7242   2.117   3.210   0.290
 2406SOL    HW1 7243   2.021   3.211   0.263
 2406SOL    HW2 7244   2.129   3.263   0.374
 2407SOL     OW 7245   1.967   2.875   1.726
 2407SOL    HW1 7246   1.890   2.842   1.780
 2407SOL    HW2 7247   2.052   2.845   1.768
 2408SOL     OW 7248   2.534   2.065   1.489
 2408SOL    HW1 7249   2.624   2.049   1.449
 2408SOL    HW2 7250   2.542   2.070   1.588
 2409SOL     OW 7251   1.937   2.207   0.033
 2409SOL    HW1 7252   1.845   2.179   0.004
 2409SOL    HW2 7253   1.968   2.284  -0.023
 2410SOL     OW 7254   3.302   2.718   1.398
 2410SOL    HW1 7255   3.245   2.770   1.335
 2410SOL    HW2 7256   3.398   2.730   1.374
 2411SOL     OW 7257   1.934   2.028   0.318
 2411SOL    HW1 7258   1.917   2.111   0.264
 2411SOL    HW2 7259   2.024   1.991   0.296
 2412SOL     OW 7260   3.045   3.197   0.119
 2412SOL    HW1 7261   2.946   3.186   0.121
 2412SOL    HW2 7262   3.079   3.212   0.212
 2413SOL     OW 7263   2.475   2.704   1.431
 2413SOL    HW1 7264   2.531   2.785   1.414
 2413SOL    HW2 7265   2.534   2.624   1.434
 2414SOL     OW 7266   3.355   3.629   0.959
 2414SOL    HW1 7267   3.388   3.693   0.890
 2414SOL    HW2 7268   3.421   3.623   1.034
 2415SOL     OW 7269   2.578   2.427   1.708
 2415SOL    HW1 7270   2.597   2.492   1.782
 2415SOL    HW2 7271   2.638   2.347   1.717
 2416SOL     OW 7272   3.312   3.082   1.633
 2416SOL    HW1 7273   3.303   3.072   1.732
 2416SOL    HW2 7274   3.408   3.075   1.607
 2417SOL     OW 7275   2.252   3.603   1.560
 2417SOL    HW1 7276   2.161   3.644   1.558
 2417SOL    HW2 7277   2.245   3.509   1.592
 2418SOL     OW 7278   3.536   2.745   1.254
 2418SOL    HW1 7279   3.509   2.656   1.217
 2418SOL    HW2 7280   3.537   2.813   1.181
 2419SOL     OW 7281   3.087   2.187   0.449
 2419SOL    HW1 7282   3.152   2.113   0.438
 2419SOL    HW2 7283   3.107   2.237   0.533
 2420SOL     OW 7284   2.456   2.607   0.652
 2420SOL    HW1 7285   2.506   2.692   0.633
 2420SOL    HW2 7286   2.368   2.609   0.604
 2421SOL     OW 7287   3.639   2.204   1.642
 2421SOL    HW1 7288   3.622   2.235   1.548
 2421SOL    HW2 7289   3.555   2.167   1.680
 2422SOL     OW 7290   3.592   2.796   1.517
 2422SOL    HW1 7291   3.630   2.887   1.532
 2422SOL    HW2 7292   3.584   2.779   1.418
 2423SOL     OW 7293   2.721   3.236   0.016
 2423SOL    HW1 7294   2.675   3.251   0.104
 2423SOL    HW2 7295   2.765   3.321  -0.014
 2424SOL     OW 7296   2.523   3.652   0.953
 2424SOL    HW1 7297   2.477   3.740   0.940
 2424SOL    HW2 7298   2.622   3.664   0.946
 2425SOL     OW 7299   2.721   2.818   0.861
 2425SOL    HW1 7300   2.775   2.749   0.909
 2425SOL    HW2 7301   2.689   2.887   0.927
 2426SOL     OW 7302   2.945   2.846   0.087
 2426SOL    HW1 7303   2.922   2.899   0.005
 2426SOL    HW2 7304   3.026   2.790   0.068
 2427SOL     OW 7305   3.723   3.431   0.851
 2427SOL    HW1 7306   3.652   3.419   0.781
 2427SOL    HW2 7307   3.724   3.352   0.911
 2428SOL     OW 7308   2.083   3.176   1.844
 2428SOL    HW1 7309   2.018   3.103   1.823
 2428SOL    HW2 7310   2.087   3.190   1.942
 2429SOL     OW 7311   1.941   3.102   0.653
 2429SOL    HW1 7312   1.940   3.055   0.741
 2429SOL    HW2 7313   2.023   3.074   0.602
 2430SOL     OW 7314   2.534   3.253   1.624
 2430SOL    HW1 7315   2.456   3.203   1.662
 2430SOL    HW2 7316   2.531   3.348   1.655
 2431SOL     OW 7317   3.686   2.054   1.227
 2431SOL    HW1 7318   3.682   1.964   1.271
 2431SOL    HW2 7319   3.689   2.043   1.128
 2432SOL     OW 7320   2.290   2.286   0.520
 2432SOL    HW1 7321   2.320   2.214   0.458
 2432SOL    HW2 7322   2.251   2.246   0.603
 2433SOL     OW 7323   3.567   3.349   1.104
 2433SOL    HW1 7324   3.474   3.324   1.077
 2433SOL    HW2 7325   3.593   3.299   1.186
 2434SOL     OW 7326   2.179   2.409   1.280
 2434SOL    HW1 7327   2.217   2.350   1.352
 2434SOL    HW2 7328   2.219   2.383   1.192
 2435SOL     OW 7329   2.674   3.448   0.687
 2435SOL    HW1 7330   2.706   3.458   0.593
 2435SOL    HW2 7331   2.595   3.386   0.689
 2436SOL     OW 7332   3.286   2.076   1.112
 2436SOL    HW1 7333   3.338   2.011   1.167
 2436SOL    HW2 7334   3.237   2.139   1.173
 2437SOL     OW 7335   2.863   1.896   1.154
 2437SOL    HW1 7336   2.800   1.824   1.123
 2437SOL    HW2 7337   2.956   1.860   1.154
 2438SOL     OW 7338   2.632   3.192   0.301
 2438SOL    HW1 7339   2.586   3.105   0.318
 2438SOL    HW2 7340   2.723   3.189   0.342
 2439SOL     OW 7341   2.480   3.429   1.284
 2439SOL    HW1 7342   2.475   3.511   1.341
 2439SOL    HW2 7343   2.569   3.426   1.239
 2440SOL     OW 7344   3.214   1.914   0.168
 2440SOL    HW1 7345   3.249   1.873   0.084
 2440SOL    HW2 7346   3.124   1.876   0.188
 2441SOL     OW 7347   3.162   2.315   0.691
 2441SOL    HW1 7348   3.103   2.395   0.695
 2441SOL    HW2 7349   3.177   2.280   0.784
 2442SOL     OW 7350   3.455   2.083   0.882
 2442SOL    HW1 7351   3.371   2.082   0.936
 2442SOL    HW2 7352   3.457   2.166   0.826
 2443SOL     OW 7353   1.901   2.939   0.300
 2443SOL    HW1 7354   2.000   2.928   0.291
 2443SOL    HW2 7355   1.861   2.853   0.332
 2444SOL     OW 7356   2.737   3.508   0.337
 2444SOL    HW1 7357   2.660   3.473   0.283
 2444SOL    HW2 7358   2.705   3.579   0.399
 2445SOL     OW 7359   2.092   2.490   1.975
 2445SOL    HW1 7360   1.999   2.488   2.012
 2445SOL    HW2 7361   2.093   2.451   1.883
 2446SOL     OW 7362   2.087   2.137   2.858
 2446SOL    HW1 7363   2.122   2.120   2.950
 2446SOL    HW2 7364   1.999   2.092   2.846
 2447SOL     OW 7365   1.881   2.230   2.509
 2447SOL    HW1 7366   1.799   2.273   2.548
 2447SOL    HW2 7367   1.853   2.157   2.446
 2448SOL     OW 7368   2.431   3.137   3.027
 2448SOL    HW1 7369   2.338   3.130   2.990
 2448SOL    HW2 7370   2.442   3.226   3.071
 2449SOL     OW 7371   3.417   3.373   2.565
 2449SOL    HW1 7372   3.360   3.357   2.646
 2449SOL    HW2 7373   3.358   3.383   2.485
 2450SOL     OW 7374   3.617   2.469   2.093
 2450SOL    HW1 7375   3.605   2.456   1.994
 2450SOL    HW2 7376   3.587   2.388   2.142
 2451SOL     OW 7377   2.630   3.006   2.885
 2451SOL    HW1 7378   2.552   3.023   2.945
 2451SOL    HW2 7379   2.664   3.093   2.849
 2452SOL     OW 7380   2.712   2.660   3.685
 2452SOL    HW1 7381   2.708   2.736   3.750
 2452SOL    HW2 7382   2.734   2.696   3.594
 2453SOL     OW 7383   2.548   3.023   3.665
 2453SOL    HW1 7384   2.608   3.102   3.679
 2453SOL    HW2 7385   2.462   3.054   3.624
 2454SOL     OW 7386   2.197   3.297   2.923
 2454SOL    HW1 7387   2.119   3.266   2.870
 2454SOL    HW2 7388   2.255   3.355   2.866
 2455SOL     OW 7389   3.322   3.367   3.201
 2455SOL    HW1 7390   3.346   3.461   3.227
 2455SOL    HW2 7391   3.306   3.313   3.283
 2456SOL     OW 7392   2.300   2.254   3.361
 2456SOL    HW1 7393   2.382   2.198   3.370
 2456SOL    HW2 7394   2.219   2.196   3.365
 2457SOL     OW 7395   3.465   2.309   2.599
 2457SOL    HW1 7396   3.391   2.355   2.549
 2457SOL    HW2 7397   3.516   2.377   2.652
 2458SOL     OW 7398   2.093   3.575   2.345
 2458SOL    HW1 7399   2.127   3.652   2.399
 2458SOL    HW2 7400   2.137   3.575   2.255
 2459SOL     OW 7401   2.989   3.203   3.552
 2459SOL    HW1 7402   3.036   3.203   3.640
 2459SOL    HW2 7403   2.941   3.116   3.541
 2460SOL     OW 7404   2.092   3.296   2.400
 2460SOL    HW1 7405   2.066   3.392   2.400
 2460SOL    HW2 7406   2.021   3.242   2.445
 2461SOL     OW 7407   2.102   2.953   2.748
 2461SOL    HW1 7408   2.116   2.869   2.800
 2461SOL    HW2 7409   2.047   3.017   2.803
 2462SOL     OW 7410   2.482   3.648   3.301
 2462SOL    HW1 7411   2.390   3.631   3.336
 2462SOL    HW2 7412   2.510   3.740   3.327
 2463SOL     OW 7413   2.468   2.826   1.985
 2463SOL    HW1 7414   2.475   2.910   1.931
 2463SOL    HW2 7415   2.514   2.839   2.073
 2464SOL     OW 7416   3.456   1.976   3.342
 2464SOL    HW1 7417   3.438   2.043   3.270
 2464SOL    HW2 7418   3.453   2.022   3.431
 2465SOL     OW 7419   1.984   2.505   2.425
 2465SOL    HW1 7420   1.939   2.417   2.442
 2465SOL    HW2 7421   1.983   2.559   2.509
 2466SOL     OW 7422   3.704   3.629   2.221
 2466SOL    HW1 7423   3.758   3.600   2.301
 2466SOL    HW2 7424   3.734   3.719   2.192
 2467SOL     OW 7425   1.889   3.458   1.979
 2467SOL    HW1 7426   1.870   3.362   2.000
 2467SOL    HW2 7427   1.856   3.516   2.054
 2468SOL     OW 7428   3.551   2.784   2.474
 2468SOL    HW1 7429   3.646   2.755   2.482
 2468SOL    HW2 7430   3.543   2.849   2.399
 2469SOL     OW 7431   3.503   2.970   2.294
 2469SOL    HW1 7432   3.589   2.972   2.242
 2469SOL    HW2 7433   3.517   3.017   2.382
 2470SOL     OW 7434   1.975   2.599   3.459
 2470SOL    HW1 7435   2.063   2.586   3.504
 2470SOL    HW2 7436   1.962   2.696   3.437
 2471SOL     OW 7437   2.475   3.227   2.588
 2471SOL    HW1 7438   2.426   3.140   2.597
 2471SOL    HW2 7439   2.452   3.270   2.501
 2472SOL     OW 7440   3.155   3.090   3.285
 2472SOL    HW1 7441   3.192   3.017   3.227
 2472SOL    HW2 7442   3.207   3.095   3.370
 2473SOL     OW 7443   2.671   1.866   2.364
 2473SOL    HW1 7444   2.711   1.957   2.355
 2473SOL    HW2 7445   2.571   1.874   2.370
 2474SOL     OW 7446   2.059   2.838   3.126
 2474SOL    HW1 7447   2.148   2.793   3.112
 2474SOL    HW2 7448   1.986   2.773   3.107
 2475SOL     OW 7449   3.387   2.861   2.052
 2475SOL    HW1 7450   3.324   2.785   2.065
 2475SOL    HW2 7451   3.435   2.879   2.138
 2476SOL     OW 7452   3.049   3.654   3.478
 2476SOL    HW1 7453   3.073   3.714   3.402
 2476SOL    HW2 7454   3.056   3.559   3.448
 2477SOL     OW 7455   2.179   2.113   3.663
 2477SOL    HW1 7456   2.250   2.184   3.669
 2477SOL    HW2 7457   2.091   2.152   3.691
 2478SOL     OW 7458   3.328   3.279   2.815
 2478SOL    HW1 7459   3.269   3.285   2.895
 2478SOL    HW2 7460   3.313   3.191   2.769
 2479SOL     OW 7461   3.529   3.576   2.434
 2479SOL    HW1 7462   3.488   3.553   2.346
 2479SOL    HW2 7463   3.511   3.502   2.499
 2480SOL     OW 7464   3.143   2.207   2.806
 2480SOL    HW1 7465   3.057   2.157   2.793
 2480SOL    HW2 7466   3.205   2.153   2.862
 2481SOL     OW 7467   3.438   3.524   2.169
 2481SOL    HW1 7468   3.527   3.570   2.172
 2481SOL    HW2 7469   3.417   3.500   2.074
 2482SOL     OW 7470   2.669   2.467   3.327
 2482SOL    HW1 7471   2.622   2.464   3.416
 2482SOL    HW2 7472   2.618   2.412   3.261
 2483SOL     OW 7473   3.256   2.331   3.536
 2483SOL    HW1 7474   3.236   2.374   3.624
 2483SOL    HW2 7475   3.334   2.269   3.545
 2484SOL     OW 7476   2.835   2.752   3.434
 2484SOL    HW1 7477   2.881   2.668   3.405
 2484SOL    HW2 7478   2.779   2.786   3.359
 2485SOL     OW 7479   2.853   2.272   3.104
 2485SOL    HW1 7480   2.776   2.306   3.158
 2485SOL    HW2 7481   2.819   2.221   3.025
 2486SOL     OW 7482   2.903   2.563   2.291
 2486SOL    HW1 7483   2.929   2.559   2.387
 2486SOL    HW2 7484   2.818   2.512   2.277
 2487SOL     OW 7485   1.938   2.673   2.651
 2487SOL    HW1 7486   2.037   2.661   2.660
 2487SOL    HW2 7487   1.914   2.768   2.672
 2488SOL     OW 7488   1.992   3.683   3.433
 2488SOL    HW1 7489   1.982   3.668   3.532
 2488SOL    HW2 7490   1.906   3.719   3.397
 2489SOL     OW 7491   2.727   2.210   2.057
 2489SOL    HW1 7492   2.786   2.273   2.008
 2489SOL    HW2 7493   2.746   2.116   2.028
 2490SOL     OW 7494   3.581   2.447   3.693
 2490SOL    HW1 7495   3.555   2.536   3.657
 2490SOL    HW2 7496   3.579   2.379   3.620
 2491SOL     OW 7497   3.224   3.006   2.407
 2491SOL    HW1 7498   3.307   2.977   2.359
 2491SOL    HW2 7499   3.175   3.073   2.351
 2492SOL     OW 7500   2.412   2.058   2.747
 2492SOL    HW1 7501   2.407   2.053   2.847
 2492SOL    HW2 7502   2.414   2.154   2.718
 2493SOL     OW 7503   2.870   3.318   2.339
 2493SOL    HW1 7504   2.824   3.390   2.287
 2493SOL    HW2 7505   2.866   3.338   2.437
 2494SOL     OW 7506   2.213   3.663   2.715
 2494SOL    HW1 7507   2.263   3.577   2.721
 2494SOL    HW2 7508   2.278   3.740   2.712
 2495SOL     OW 7509   3.657   2.928   2.735
 2495SOL    HW1 7510   3.595   2.913   2.659
 2495SOL    HW2 7511   3.605   2.939   2.820
 2496SOL     OW 7512   3.089   3.412   3.368
 2496SOL    HW1 7513   3.095   3.335   3.432
 2496SOL    HW2 7514   3.037   3.386   3.288
 2497SOL     OW 7515   3.320   2.597   2.590
 2497SOL    HW1 7516   3.315   2.532   2.665
 2497SOL    HW2 7517   3.400   2.656   2.603
 2498SOL     OW 7518   2.323   3.128   3.589
 2498SOL    HW1 7519   2.273   3.129   3.503
 2498SOL    HW2 7520   2.260   3.110   3.665
 2499SOL     OW 7521   2.973   3.638   2.099
 2499SOL    HW1 7522   2.913   3.576   2.149
 2499SOL    HW2 7523   3.004   3.594   2.014
 2500SOL     OW 7524   2.064   2.147   3.360
 2500SOL    HW1 7525   1.984   2.207   3.347
 2500SOL    HW2 7526   2.054   2.098   3.446
 2501SOL     OW 7527   3.494   3.239   1.943
 2501SOL    HW1 7528   3.462   3.333   1.933
 2501SOL    HW2 7529   3.418   3.176   1.931
 2502SOL     OW 7530   2.326   3.605   2.185
 2502SOL    HW1 7531   2.359   3.644   2.271
 2502SOL    HW2 7532   2.402   3.598   2.120
 2503SOL     OW 7533   3.262   1.969   2.288
 2503SOL    HW1 7534   3.238   1.932   2.198
 2503SOL    HW2 7535   3.361   1.985   2.292
 2504SOL     OW 7536   2.111   3.647   3.103
 2504SOL    HW1 7537   2.168   3.582   3.153
 2504SOL    HW2 7538   2.095   3.614   3.010
 2505SOL     OW 7539   2.802   3.560   2.766
 2505SOL    HW1 7540   2.882   3.503   2.787
 2505SOL    HW2 7541   2.753   3.520   2.689
 2506SOL     OW 7542   2.244   2.562   2.342
 2506SOL    HW1 7543   2.289   2.472   2.339
 2506SOL    HW2 7544   2.150   2.551   2.375
 2507SOL     OW 7545   3.409   2.084   3.591
 2507SOL    HW1 7546   3.404   2.121   3.683
 2507SOL    HW2 7547   3.337   2.015   3.579
 2508SOL     OW 7548   2.476   1.984   1.979
 2508SOL    HW1 7549   2.574   1.962   1.986
 2508SOL    HW2 7550   2.445   1.967   1.886
 2509SOL     OW 7551   2.643   2.126   3.611
 2509SOL    HW1 7552   2.710   2.065   3.654
 2509SOL    HW2 7553   2.570   2.145   3.676
 2510SOL     OW 7554   2.750   3.376   3.057
 2510SOL    HW1 7555   2.727   3.351   2.963
 2510SOL    HW2 7556   2.811   3.307   3.096
 2511SOL     OW 7557   3.213   2.452   3.295
 2511SOL    HW1 7558   3.241   2.409   3.380
 2511SOL    HW2 7559   3.238   2.548   3.296
 2512SOL     OW 7560   2.665   3.264   2.786
 2512SOL    HW1 7561   2.755   3.278   2.744
 2512SOL    HW2 7562   2.594   3.266   2.715
 2513SOL     OW 7563   2.401   1.926   2.374
 2513SOL    HW1 7564   2.320   1.927   2.432
 2513SOL    HW2 7565   2.404   2.009   2.319
 2514SOL     OW 7566   3.296   3.050   1.903
 2514SOL    HW1 7567   3.328   2.974   1.960
 2514SOL    HW2 7568   3.204   3.077   1.933
 2515SOL     OW 7569   2.159   1.897   2.033
 2515SOL    HW1 7570   2.208   1.981   2.012
 2515SOL    HW2 7571   2.221   1.832   2.078
 2516SOL     OW 7572   2.797   2.098   2.342
 2516SOL    HW1 7573   2.749   2.139   2.264
 2516SOL    HW2 7574   2.896   2.096   2.323
 2517SOL     OW 7575   2.938   2.545   3.326
 2517SOL    HW1 7576   2.858   2.484   3.329
 2517SOL    HW2 7577   3.019   2.492   3.302
 2518SOL     OW 7578   3.089   3.432   2.655
 2518SOL    HW1 7579   3.110   3.506   2.590
 2518SOL    HW2 7580   3.157   3.432   2.728
 2519SOL     OW 7581   2.321   3.014   2.603
 2519SOL    HW1 7582   2.250   2.987   2.668
 2519SOL    HW2 7583   2.295   2.986   2.510
 2520SOL     OW 7584   3.133   3.659   2.453
 2520SOL    HW1 7585   3.177   3.723   2.389
 2520SOL    HW2 7586   3.083   3.711   2.523
 2521SOL     OW 7587   2.894   2.411   1.878
 2521SOL    HW1 7588   2.853   2.493   1.839
 2521SOL    HW2 7589   2.958   2.437   1.951
 2522SOL     OW 7590   1.940   2.418   3.248
 2522SOL    HW1 7591   2.032   2.417   3.207
 2522SOL    HW2 7592   1.934   2.492   3.315
 2523SOL     OW 7593   2.423   2.084   3.009
 2523SOL    HW1 7594   2.461   2.000   3.046
 2523SOL    HW2 7595   2.335   2.103   3.053
 2524SOL     OW 7596   2.728   2.316   2.504
 2524SOL    HW1 7597   2.696   2.388   2.442
 2524SOL    HW2 7598   2.752   2.235   2.451
 2525SOL     OW 7599   2.879   1.901   2.615
 2525SOL    HW1 7600   2.807   1.906   2.546
 2525SOL    HW2 7601   2.855   1.832   2.684
 2526SOL     OW 7602   3.291   3.035   2.729
 2526SOL    HW1 7603   3.236   2.951   2.722
 2526SOL    HW2 7604   3.317   3.064   2.637
 2527SOL     OW 7605   3.328   2.452   2.854
 2527SOL    HW1 7606   3.298   2.357   2.861
 2527SOL    HW2 7607   3.401   2.468   2.920
 2528SOL     OW 7608   3.719   2.695   2.239
 2528SOL    HW1 7609   3.761   2.631   2.303
 2528SOL    HW2 7610   3.681   2.644   2.161
 2529SOL     OW 7611   2.350   3.247   2.036
 2529SOL    HW1 7612   2.263   3.232   2.083
 2529SOL    HW2 7613   2.333   3.273   1.941
 2530SOL     OW 7614   3.526   3.142   2.519
 2530SOL    HW1 7615   3.625   3.150   2.533
 2530SOL    HW2 7616   3.481   3.226   2.550
 2531SOL     OW 7617   3.252   2.437   1.940
 2531SOL    HW1 7618   3.198   2.416   2.021
 2531SOL    HW2 7619   3.343   2.396   1.949
 2532SOL     OW 7620   2.389   2.118   2.190
 2532SOL    HW1 7621   2.416   2.059   2.115
 2532SOL    HW2 7622   2.389   2.213   2.159
 2533SOL     OW 7623   3.616   3.085   3.450
 2533SOL    HW1 7624   3.707   3.046   3.437
 2533SOL    HW2 7625   3.624   3.181   3.474
 2534SOL     OW 7626   2.926   3.209   3.202
 2534SOL    HW1 7627   2.846   3.186   3.257
 2534SOL    HW2 7628   3.009   3.183   3.251
 2535SOL     OW 7629   3.454   3.491   3.487
 2535SOL    HW1 7630   3.481   3.525   3.397
 2535SOL    HW2 7631   3.533   3.453   3.533
 2536SOL     OW 7632   2.973   3.057   2.962
 2536SOL    HW1 7633   2.933   3.101   3.043
 2536SOL    HW2 7634   2.932   3.094   2.879
 2537SOL     OW 7635   3.500   2.961   2.941
 2537SOL    HW1 7636   3.505   3.042   3.000
 2537SOL    HW2 7637   3.414   2.963   2.890
 2538SOL     OW 7638   2.777   1.951   3.264
 2538SOL    HW1 7639   2.802   1.931   3.169
 2538SOL    HW2 7640   2.849   2.007   3.306
 2539SOL     OW 7641   2.842   2.978   3.581
 2539SOL    HW1 7642   2.743   2.984   3.591
 2539SOL    HW2 7643   2.865   2.898   3.525
 2540SOL     OW 7644   2.567   2.912   2.230
 2540SOL    HW1 7645   2.553   2.919   2.329
 2540SOL    HW2 7646   2.651   2.861   2.212
 2541SOL     OW 7647   2.272   2.675   3.113
 2541SOL    HW1 7648   2.358   2.687   3.163
 2541SOL    HW2 7649   2.230   2.588   3.140
 2542SOL     OW 7650   3.136   2.248   3.124
 2542SOL    HW1 7651   3.157   2.322   3.188
 2542SOL    HW2 7652   3.047   2.265   3.081
 2543SOL     OW 7653   1.926   3.426   3.193
 2543SOL    HW1 7654   1.880   3.508   3.159
 2543SOL    HW2 7655   2.024   3.445   3.202
 2544SOL     OW 7656   2.229   2.962   2.363
 2544SOL    HW1 7657   2.222   3.045   2.307
 2544SOL    HW2 7658   2.233   2.882   2.303
 2545SOL     OW 7659   2.428   2.399   2.727
 2545SOL    HW1 7660   2.440   2.465   2.653
 2545SOL    HW2 7661   2.474   2.433   2.810
 2546SOL     OW 7662   3.114   3.210   2.250
 2546SOL    HW1 7663   3.164   3.287   2.290
 2546SOL    HW2 7664   3.019   3.212   2.282
 2547SOL     OW 7665   3.134   3.307   3.004
 2547SOL    HW1 7666   3.181   3.320   3.091
 2547SOL    HW2 7667   3.068   3.233   3.013
 2548SOL     OW 7668   3.444   2.501   2.334
 2548SOL    HW1 7669   3.413   2.562   2.407
 2548SOL    HW2 7670   3.494   2.553   2.265
 2549SOL     OW 7671   2.216   3.372   3.191
 2549SOL    HW1 7672   2.195   3.328   3.104
 2549SOL    HW2 7673   2.313   3.398   3.194
 2550SOL     OW 7674   2.264   2.613   3.460
 2550SOL    HW1 7675   2.332   2.668   3.413
 2550SOL    HW2 7676   2.304   2.525   3.487
 2551SOL     OW 7677   3.449   2.641   3.532
 2551SOL    HW1 7678   3.357   2.679   3.527
 2551SOL    HW2 7679   3.509   2.688   3.467
 2552SOL     OW 7680   2.875   1.967   3.632
 2552SOL    HW1 7681   2.881   2.052   3.580
 2552SOL    HW2 7682   2.907   1.891   3.575
 2553SOL     OW 7683   2.366   1.912   3.602
 2553SOL    HW1 7684   2.324   1.855   3.532
 2553SOL    HW2 7685   2.300   1.981   3.634
 2554SOL     OW 7686   2.435   2.732   2.891
 2554SOL    HW1 7687   2.479   2.821   2.882
 2554SOL    HW2 7688   2.372   2.732   2.968
 2555SOL     OW 7689   3.222   2.724   2.907
 2555SOL    HW1 7690   3.147   2.724   2.841
 2555SOL    HW2 7691   3.259   2.632   2.916
 2556SOL     OW 7692   3.071   2.387   2.137
 2556SOL    HW1 7693   3.084   2.303   2.191
 2556SOL    HW2 7694   3.042   2.461   2.197
 2557SOL     OW 7695   2.169   2.075   3.093
 2557SOL    HW1 7696   2.146   2.112   3.183
 2557SOL    HW2 7697   2.139   1.980   3.087
 2558SOL     OW 7698   1.899   3.172   3.144
 2558SOL    HW1 7699   1.952   3.123   3.212
 2558SOL    HW2 7700   1.921   3.270   3.149
 2559SOL     OW 7701   3.590   2.797   3.716
 2559SOL    HW1 7702   3.544   2.790   3.627
 2559SOL    HW2 7703   3.528   2.841   3.782
 2560SOL     OW 7704   2.169   1.925   2.480
 2560SOL    HW1 7705   2.158   2.019   2.513
 2560SOL    HW2 7706   2.164   1.862   2.557
 2561SOL     OW 7707   3.484   2.229   2.236
 2561SOL    HW1 7708   3.486   2.153   2.300
 2561SOL    HW2 7709   3.436   2.306   2.276
 2562SOL     OW 7710   2.842   3.435   3.562
 2562SOL    HW1 7711   2.822   3.479   3.474
 2562SOL    HW2 7712   2.881   3.344   3.546
 2563SOL     OW 7713   3.721   3.380   3.467
 2563SOL    HW1 7714   3.735   3.407   3.372
 2563SOL    HW2 7715   3.804   3.402   3.520
 2564SOL     OW 7716   2.212   2.760   3.666
 2564SOL    HW1 7717   2.288   2.804   3.714
 2564SOL    HW2 7718   2.247   2.713   3.584
 2565SOL     OW 7719   3.402   2.136   1.987
 2565SOL    HW1 7720   3.341   2.061   2.010
 2565SOL    HW2 7721   3.424   2.188   2.070
 2566SOL     OW 7722   3.165   2.700   1.904
 2566SOL    HW1 7723   3.199   2.607   1.919
 2566SOL    HW2 7724   3.183   2.727   1.809
 2567SOL     OW 7725   2.930   3.195   2.711
 2567SOL    HW1 7726   2.937   3.111   2.656
 2567SOL    HW2 7727   2.992   3.264   2.675
 2568SOL     OW 7728   2.181   2.672   2.811
 2568SOL    HW1 7729   2.274   2.708   2.816
 2568SOL    HW2 7730   2.175   2.587   2.863
 2569SOL     OW 7731   2.201   2.371   2.868
 2569SOL    HW1 7732   2.149   2.288   2.851
 2569SOL    HW2 7733   2.278   2.376   2.804
 2570SOL     OW 7734   3.000   2.242   3.540
 2570SOL    HW1 7735   2.955   2.305   3.604
 2570SOL    HW2 7736   3.093   2.273   3.523
 2571SOL     OW 7737   3.022   2.069   3.339
 2571SOL    HW1 7738   3.022   2.133   3.416
 2571SOL    HW2 7739   3.050   2.117   3.256
 2572SOL     OW 7740   1.870   3.188   2.062
 2572SOL    HW1 7741   1.777   3.209   2.031
 2572SOL    HW2 7742   1.880   3.089   2.075
 2573SOL     OW 7743   1.950   3.663   2.789
 2573SOL    HW1 7744   1.908   3.577   2.762
 2573SOL    HW2 7745   2.044   3.666   2.755
 2574SOL     OW 7746   2.366   3.430   2.772
 2574SOL    HW1 7747   2.432   3.504   2.781
 2574SOL    HW2 7748   2.410   3.351   2.730
 2575SOL     OW 7749   2.864   2.658   3.100
 2575SOL    HW1 7750   2.905   2.626   3.186
 2575SOL    HW2 7751   2.768   2.631   3.097
 2576SOL     OW 7752   1.902   2.406   2.976
 2576SOL    HW1 7753   1.987   2.373   2.935
 2576SOL    HW2 7754   1.915   2.421   3.074
 2577SOL     OW 7755   2.051   2.382   3.584
 2577SOL    HW1 7756   2.110   2.342   3.514
 2577SOL    HW2 7757   1.993   2.453   3.543
 2578SOL     OW 7758   3.231   2.812   3.522
 2578SOL    HW1 7759   3.270   2.901   3.542
 2578SOL    HW2 7760   3.241   2.792   3.425
 2579SOL     OW 7761   2.677   2.434   2.187
 2579SOL    HW1 7762   2.684   2.345   2.141
 2579SOL    HW2 7763   2.583   2.468   2.179
 2580SOL     OW 7764   3.519   2.466   3.068
 2580SOL    HW1 7765   3.481   2.397   3.130
 2580SOL    HW2 7766   3.601   2.430   3.024
 2581SOL     OW 7767   2.114   3.426   3.606
 2581SOL    HW1 7768   2.084   3.483   3.682
 2581SOL    HW2 7769   2.107   3.329   3.632
 2582SOL     OW 7770   2.533   2.326   3.131
 2582SOL    HW1 7771   2.499   2.237   3.101
 2582SOL    HW2 7772   2.559   2.380   3.051
 2583SOL     OW 7773   2.792   3.540   3.327
 2583SOL    HW1 7774   2.768   3.522   3.232
 2583SOL    HW2 7775   2.822   3.634   3.337
 2584SOL     OW 7776   2.335   2.362   2.053
 2584SOL    HW1 7777   2.396   2.442   2.057
 2584SOL    HW2 7778   2.240   2.393   2.060
 2585SOL     OW 7779   2.021   2.999   3.328
 2585SOL    HW1 7780   2.043   2.938   3.404
 2585SOL    HW2 7781   2.031   2.950   3.242
 2586SOL     OW 7782   3.209   2.921   3.096
 2586SOL    HW1 7783   3.233   2.858   3.022
 2586SOL    HW2 7784   3.119   2.961   3.078
 2587SOL     OW 7785   3.164   2.717   2.171
 2587SOL    HW1 7786   3.078   2.686   2.213
 2587SOL    HW2 7787   3.160   2.703   2.072
 2588SOL     OW 7788   3.621   3.609   3.016
 2588SOL    HW1 7789   3.682   3.639   2.943
 2588SOL    HW2 7790   3.583   3.520   2.994
 2589SOL     OW 7791   3.114   3.593   2.990
 2589SOL    HW1 7792   3.198   3.598   2.936
 2589SOL    HW2 7793   3.091   3.497   3.008
 2590SOL     OW 7794   1.945   3.120   2.884
 2590SOL    HW1 7795   1.940   3.119   2.984
 2590SOL    HW2 7796   1.862   3.079   2.846
 2591SOL     OW 7797   2.550   3.524   3.578
 2591SOL    HW1 7798   2.494   3.605   3.587
 2591SOL    HW2 7799   2.602   3.528   3.492
 2592SOL     OW 7800   3.588   1.997   2.385
 2592SOL    HW1 7801   3.661   1.980   2.318
 2592SOL    HW2 7802   3.557   1.910   2.423
 2593SOL     OW 7803   3.250   3.435   2.339
 2593SOL    HW1 7804   3.317   3.447   2.265
 2593SOL    HW2 7805   3.210   3.524   2.362
 2594SOL     OW 7806   1.992   3.656   3.713
 2594SOL    HW1 7807   1.951   3.582   3.766
 2594SOL    HW2 7808   2.056   3.707   3.771
 2595SOL     OW 7809   3.142   2.789   2.534
 2595SOL    HW1 7810   3.202   2.708   2.536
 2595SOL    HW2 7811   3.182   2.858   2.474
 2596SOL     OW 7812   2.692   3.135   3.284
 2596SOL    HW1 7813   2.687   3.168   3.379
 2596SOL    HW2 7814   2.606   3.154   3.238
 2597SOL     OW 7815   2.534   3.478   2.016
 2597SOL    HW1 7816   2.543   3.488   1.917
 2597SOL    HW2 7817   2.494   3.389   2.037
 2598SOL     OW 7818   3.512   3.582   3.256
 2598SOL    HW1 7819   3.565   3.592   3.172
 2598SOL    HW2 7820   3.485   3.672   3.290
 2599SOL     OW 7821   3.703   2.037   2.825
 2599SOL    HW1 7822   3.742   1.952   2.789
 2599SOL    HW2 7823   3.605   2.039   2.806
 2600SOL     OW 7824   2.125   2.188   2.582
 2600SOL    HW1 7825   2.046   2.239   2.548
 2600SOL    HW2 7826   2.116   2.173   2.680
 2601SOL     OW 7827   3.056   3.474   1.893
 2601SOL    HW1 7828   3.062   3.381   1.930
 2601SOL    HW2 7829   2.997   3.474   1.813
 2602SOL     OW 7830   2.684   2.864   3.234
 2602SOL    HW1 7831   2.724   2.863   3.142
 2602SOL    HW2 7832   2.694   2.956   3.274
 2603SOL     OW 7833   2.778   2.772   2.153
 2603SOL    HW1 7834   2.841   2.810   2.085
 2603SOL    HW2 7835   2.818   2.689   2.192
 2604SOL     OW 7836   3.366   3.469   1.906
 2604SOL    HW1 7837   3.274   3.506   1.913
 2604SOL    HW2 7838   3.404   3.489   1.816
 2605SOL     OW 7839   2.234   3.150   3.352
 2605SOL    HW1 7840   2.221   3.243   3.318
 2605SOL    HW2 7841   2.150   3.098   3.339
 2606SOL     OW 7842   3.476   3.154   3.151
 2606SOL    HW1 7843   3.536   3.157   3.231
 2606SOL    HW2 7844   3.401   3.218   3.164
 2607SOL     OW 7845   2.901   2.960   2.558
 2607SOL    HW1 7846   2.831   2.913   2.612
 2607SOL    HW2 7847   2.960   2.892   2.515
 2608SOL     OW 7848   2.876   2.098   2.833
 2608SOL    HW1 7849   2.868   2.062   2.740
 2608SOL    HW2 7850   2.874   2.022   2.898
 2609SOL     OW 7851   2.452   3.349   2.353
 2609SOL    HW1 7852   2.494   3.291   2.283
 2609SOL    HW2 7853   2.408   3.428   2.309
 2610SOL     OW 7854   3.571   2.247   3.243
 2610SOL    HW1 7855   3.644   2.316   3.247
 2610SOL    HW2 7856   3.599   2.172   3.184
 2611SOL     OW 7857   2.117   3.210   2.152
 2611SOL    HW1 7858   2.021   3.211   2.125
 2611SOL    HW2 7859   2.129   3.263   2.236
 2612SOL     OW 7860   1.967   2.875   3.588
 2612SOL    HW1 7861   1.890   2.842   3.642
 2612SOL    HW2 7862   2.052   2.845   3.630
 2613SOL     OW 7863   2.534   2.065   3.351
 2613SOL    HW1 7864   2.624   2.049   3.311
 2613SOL    HW2 7865   2.542   2.070   3.450
 2614SOL     OW 7866   1.937   2.207   1.895
 2614SOL    HW1 7867   1.845   2.179   1.866
 2614SOL    HW2 7868   1.968   2.284   1.839
 2615SOL     OW 7869   3.302   2.718   3.260
 2615SOL    HW1 7870   3.245   2.770   3.197
 2615SOL    HW2 7871   3.398   2.730   3.236
 2616SOL     OW 7872   1.934   2.028   2.180
 2616SOL    HW1 7873   1.917   2.111   2.126
 2616SOL    HW2 7874   2.024   1.991   2.158
 2617SOL     OW 7875   3.045   3.197   1.981
 2617SOL    HW1 7876   2.946   3.186   1.983
 2617SOL    HW2 7877   3.079   3.212   2.074
 2618SOL     OW 7878   2.475   2.704   3.293
 2618SOL    HW1 7879   2.531   2.785   3.276
 2618SOL    HW2 7880   2.534   2.624   3.296
 2619SOL     OW 7881   3.355   3.629   2.821
 2619SOL    HW1 7882   3.388   3.693   2.752
 2619SOL    HW2 7883   3.421   3.623   2.896
 2620SOL     OW 7884   2.578   2.427   3.570
 2620SOL    HW1 7885   2.597   2.492   3.644
 2620SOL    HW2 7886   2.638   2.347   3.579
 2621SOL     OW 7887   3.312   3.082   3.495
 2621SOL    HW1 7888   3.303   3.072   3.594
 2621SOL    HW2 7889   3.408   3.075   3.469
 2622SOL     OW 7890   2.252   3.603   3.422
 2622SOL    HW1 7891   2.161   3.644   3.420
 2622SOL    HW2 7892   2.245   3.509   3.454
 2623SOL     OW 7893   3.536   2.745   3.116
 2623SOL    HW1 7894   3.509   2.656   3.079
 2623SOL    HW2 7895   3.537   2.813   3.043
 2624SOL     OW 7896   3.087   2.187   2.311
 2624SOL    HW1 7897   3.152   2.113   2.300
 2624SOL    HW2 7898   3.107   2.237   2.395
 2625SOL     OW 7899   3.639   2.204   3.504
 2625SOL    HW1 7900   3.622   2.235   3.410
 2625SOL    HW2 7901   3.555   2.167   3.542
 2626SOL     OW 7902   3.592   2.796   3.379
 2626SOL    HW1 7903   3.630   2.887   3.394
 2626SOL    HW2 7904   3.584   2.779   3.280
 2627SOL     OW 7905   2.721   3.236   1.878
 2627SOL    HW1 7906   2.675   3.251   1.966
 2627SOL    HW2 7907   2.765   3.321   1.848
 2628SOL     OW 7908   2.523   3.652   2.815
 2628SOL    HW1 7909   2.477   3.740   2.802
 2628SOL    HW2 7910   2.622   3.664   2.808
 2629SOL     OW 7911   2.945   2.846   1.949
 2629SOL    HW1 7912   2.922   2.899   1.867
 2629SOL    HW2 7913   3.026   2.790   1.930
 2630SOL     OW 7914   3.723   3.431   2.713
 2630SOL    HW1 7915   3.652   3.419   2.643
 2630SOL    HW2 7916   3.724   3.352   2.773
 2631SOL     OW 7917   2.083   3.176   3.706
 2631SOL    HW1 7918   2.018   3.103   3.685
 2631SOL    HW2 7919   2.087   3.190   3.804
 2632SOL     OW 7920   1.941   3.102   2.515
 2632SOL    HW1 7921   1.940   3.055   2.603
 2632SOL    HW2 7922   2.023   3.074   2.464
 2633SOL     OW 7923   2.534   3.253   3.486
 2633SOL    HW1 7924   2.456   3.203   3.524
 2633SOL    HW2 7925   2.531   3.348   3.517
 2634SOL     OW 7926   3.686   2.054   3.089
 2634SOL    HW1 7927   3.682   1.964   3.133
 2634SOL    HW2 7928   3.689   2.043   2.990
 2635SOL     OW 7929   2.290   2.286   2.382
 2635SOL    HW1 7930   2.320   2.214   2.320
 2635SOL    HW2 7931   2.251   2.246   2.465
 2636SOL     OW 7932   3.567   3.349   2.966
 2636SOL    HW1 7933   3.474   3.324   2.939
 2636SOL    HW2 7934   3.593   3.299   3.048
 2637SOL     OW 7935   2.179   2.409   3.142
 2637SOL    HW1 7936   2.217   2.350   3.214
 2637SOL    HW2 7937   2.219   2.383   3.054
 2638SOL     OW 7938   2.674   3.448   2.549
 2638SOL    HW1 7939   2.706   3.458   2.455
 2638SOL    HW2 7940   2.595   3.386   2.551
 2639SOL     OW 7941   3.286   2.076   2.974
 2639SOL    HW1 7942   3.338   2.011   3.029
 2639SOL    HW2 7943   3.237   2.139   3.035
 2640SOL     OW 7944   2.863   1.896   3.016
 2640SOL    HW1 7945   2.800   1.824   2.985
 2640SOL    HW2 7946   2.956   1.860   3.016
 2641SOL     OW 7947   2.632   3.192   2.163
 2641SOL    HW1 7948   2.586   3.105   2.180
 2641SOL    HW2 7949   2.723   3.189   2.204
 2642SOL     OW 7950   2.480   3.429   3.146
 2642SOL    HW1 7951   2.475   3.511   3.203
 2642SOL    HW2 7952   2.569   3.426   3.101
 2643SOL     OW 7953   3.214   1.914   2.030
 2643SOL    HW1 7954   3.249   1.873   1.946
 2643SOL    HW2 7955   3.124   1.876   2.050
 2644SOL     OW 7956   3.162   2.315   2.553
 2644SOL    HW1 7957   3.103   2.395   2.557
 2644SOL    HW2 7958   3.177   2.280   2.646
 2645SOL     OW 7959   3.455   2.083   2.744
 2645SOL    HW1 7960   3.371   2.082   2.798
 2645SOL    HW2 7961   3.457   2.166   2.688
 2646SOL     OW 7962   1.901   2.939   2.162
 2646SOL    HW1 7963   2.000   2.928   2.153
 2646SOL    HW2 7964   1.861   2.853   2.194
 2647SOL     OW 7965   2.737   3.508   2.199
 2647SOL    HW1 7966   2.660   3.473   2.145
 2647SOL    HW2 7967   2.705   3.579   2.261
 2648SOL     OW 7968   2.092   2.490   3.837
 2648SOL    HW1 7969   1.999   2.488   3.874
 2648SOL    HW2 7970   2.093   2.451   3.745
 2649SOL     OW 7971   2.087   2.137   4.720
 2649SOL    HW1 7972   2.122   2.120   4.812
 2649SOL    HW2 7973   1.999   2.092   4.708
 2650SOL     OW 7974   1.881   2.230   4.371
 2650SOL    HW1 7975   1.799   2.273   4.410
 2650SOL    HW2 7976   1.853   2.157   4.308
 2651SOL     OW 7977   2.431   3.137   4.889
 2651SOL    HW1 7978   2.338   3.130   4.852
 2651SOL    HW2 7979   2.442   3.226   4.933
 2652SOL     OW 7980   3.417   3.373   4.427
 2652SOL    HW1 7981   3.360   3.357   4.508
 2652SOL    HW2 7982   3.358   3.383   4.347
 2653SOL     OW 7983   2.997   2.565   4.441
 2653SOL    HW1 7984   3.054   2.643   4.416
 2653SOL    HW2 7985   2.937   2.591   4.517
 2654SOL     OW 7986   3.617   2.469   3.955
 2654SOL    HW1 7987   3.605   2.456   3.856
 2654SOL    HW2 7988   3.587   2.388   4.004
 2655SOL     OW 7989   2.630   3.006   4.747
 2655SOL    HW1 7990   2.552   3.023   4.807
 2655SOL    HW2 7991   2.664   3.093   4.711
 2656SOL     OW 7992   2.547   2.874   4.389
 2656SOL    HW1 7993   2.616   2.858   4.459
 2656SOL    HW2 7994   2.474   2.931   4.427
 2657SOL     OW 7995   2.197   3.297   4.785
 2657SOL    HW1 7996   2.119   3.266   4.732
 2657SOL    HW2 7997   2.255   3.355   4.728
 2658SOL     OW 7998   2.300   2.254   5.223
 2658SOL    HW1 7999   2.382   2.198   5.232
 2658SOL    HW2 8000   2.219   2.196   5.227
 2659SOL     OW 8001   3.465   2.309   4.461
 2659SOL    HW1 8002   3.391   2.355   4.411
 2659SOL    HW2 8003   3.516   2.377   4.514
 2660SOL     OW 8004   2.093   3.575   4.207
 2660SOL    HW1 8005   2.127   3.652   4.261
 2660SOL    HW2 8006   2.137   3.575   4.117
 2661SOL     OW 8007   2.092   3.296   4.262
 2661SOL    HW1 8008   2.066   3.392   4.262
 2661SOL    HW2 8009   2.021   3.242   4.307
 2662SOL     OW 8010   2.102   2.953   4.610
 2662SOL    HW1 8011   2.116   2.869   4.662
 2662SOL    HW2 8012   2.047   3.017   4.665
 2663SOL     OW 8013   2.482   3.648   5.163
 2663SOL    HW1 8014   2.390   3.631   5.198
 2663SOL    HW2 8015   2.510   3.740   5.189
 2664SOL     OW 8016   2.468   2.826   3.847
 2664SOL    HW1 8017   2.475   2.910   3.793
 2664SOL    HW2 8018   2.514   2.839   3.935
 2665SOL     OW 8019   1.984   2.505   4.287
 2665SOL    HW1 8020   1.939   2.417   4.304
 2665SOL    HW2 8021   1.983   2.559   4.371
 2666SOL     OW 8022   3.704   3.629   4.083
 2666SOL    HW1 8023   3.758   3.600   4.163
 2666SOL    HW2 8024   3.734   3.719   4.054
 2667SOL     OW 8025   1.889   3.458   3.841
 2667SOL    HW1 8026   1.870   3.362   3.862
 2667SOL    HW2 8027   1.856   3.516   3.916
 2668SOL     OW 8028   3.551   2.784   4.336
 2668SOL    HW1 8029   3.646   2.755   4.344
 2668SOL    HW2 8030   3.543   2.849   4.261
 2669SOL     OW 8031   3.503   2.970   4.156
 2669SOL    HW1 8032   3.589   2.972   4.104
 2669SOL    HW2 8033   3.517   3.017   4.244
 2670SOL     OW 8034   2.475   3.227   4.450
 2670SOL    HW1 8035   2.426   3.140   4.459
 2670SOL    HW2 8036   2.452   3.270   4.363
 2671SOL     OW 8037   2.671   1.866   4.226
 2671SOL    HW1 8038   2.711   1.957   4.217
 2671SOL    HW2 8039   2.571   1.874   4.232
 2672SOL     OW 8040   2.059   2.838   4.988
 2672SOL    HW1 8041   2.148   2.793   4.974
 2672SOL    HW2 8042   1.986   2.773   4.969
 2673SOL     OW 8043   3.387   2.861   3.914
 2673SOL    HW1 8044   3.324   2.785   3.927
 2673SOL    HW2 8045   3.435   2.879   4.000
 2674SOL     OW 8046   3.328   3.279   4.677
 2674SOL    HW1 8047   3.269   3.285   4.757
 2674SOL    HW2 8048   3.313   3.191   4.631
 2675SOL     OW 8049   3.529   3.576   4.296
 2675SOL    HW1 8050   3.488   3.553   4.208
 2675SOL    HW2 8051   3.511   3.502   4.361
 2676SOL     OW 8052   2.460   2.591   3.994
 2676SOL    HW1 8053   2.484   2.660   3.926
 2676SOL    HW2 8054   2.382   2.624   4.048
 2677SOL     OW 8055   3.143   2.207   4.668
 2677SOL    HW1 8056   3.057   2.157   4.655
 2677SOL    HW2 8057   3.205   2.153   4.724
 2678SOL     OW 8058   3.438   3.524   4.031
 2678SOL    HW1 8059   3.527   3.570   4.034
 2678SOL    HW2 8060   3.417   3.500   3.936
 2679SOL     OW 8061   2.669   2.467   5.189
 2679SOL    HW1 8062   2.622   2.464   5.278
 2679SOL    HW2 8063   2.618   2.412   5.123
 2680SOL     OW 8064   2.853   2.272   4.966
 2680SOL    HW1 8065   2.776   2.306   5.020
 2680SOL    HW2 8066   2.819   2.221   4.887
 2681SOL     OW 8067   2.903   2.563   4.153
 2681SOL    HW1 8068   2.929   2.559   4.249
 2681SOL    HW2 8069   2.818   2.512   4.139
 2682SOL     OW 8070   1.938   2.673   4.513
 2682SOL    HW1 8071   2.037   2.661   4.522
 2682SOL    HW2 8072   1.914   2.768   4.534
 2683SOL     OW 8073   1.992   3.683   5.295
 2683SOL    HW1 8074   1.982   3.668   5.394
 2683SOL    HW2 8075   1.906   3.719   5.259
 2684SOL     OW 8076   2.727   2.210   3.919
 2684SOL    HW1 8077   2.786   2.273   3.870
 2684SOL    HW2 8078   2.746   2.116   3.890
 2685SOL     OW 8079   3.224   3.006   4.269
 2685SOL    HW1 8080   3.307   2.977   4.221
 2685SOL    HW2 8081   3.175   3.073   4.213
 2686SOL     OW 8082   2.412   2.058   4.609
 2686SOL    HW1 8083   2.407   2.053   4.709
 2686SOL    HW2 8084   2.414   2.154   4.580
 2687SOL     OW 8085   2.870   3.318   4.201
 2687SOL    HW1 8086   2.824   3.390   4.149
 2687SOL    HW2 8087   2.866   3.338   4.299
 2688SOL     OW 8088   2.213   3.663   4.577
 2688SOL    HW1 8089   2.263   3.577   4.583
 2688SOL    HW2 8090   2.278   3.740   4.574
 2689SOL     OW 8091   3.657   2.928   4.597
 2689SOL    HW1 8092   3.595   2.913   4.521
 2689SOL    HW2 8093   3.605   2.939   4.682
 2690SOL     OW 8094   2.183   2.805   3.966
 2690SOL    HW1 8095   2.265   2.844   3.924
 2690SOL    HW2 8096   2.156   2.723   3.917
 2691SOL     OW 8097   3.320   2.597   4.452
 2691SOL    HW1 8098   3.315   2.532   4.527
 2691SOL    HW2 8099   3.400   2.656   4.465
 2692SOL     OW 8100   2.973   3.638   3.961
 2692SOL    HW1 8101   2.913   3.576   4.011
 2692SOL    HW2 8102   3.004   3.594   3.876
 2693SOL     OW 8103   3.494   3.239   3.805
 2693SOL    HW1 8104   3.462   3.333   3.795
 2693SOL    HW2 8105   3.418   3.176   3.793
 2694SOL     OW 8106   2.326   3.605   4.047
 2694SOL    HW1 8107   2.359   3.644   4.133
 2694SOL    HW2 8108   2.402   3.598   3.982
 2695SOL     OW 8109   3.262   1.969   4.150
 2695SOL    HW1 8110   3.238   1.932   4.060
 2695SOL    HW2 8111   3.361   1.985   4.154
 2696SOL     OW 8112   2.111   3.647   4.965
 2696SOL    HW1 8113   2.168   3.582   5.015
 2696SOL    HW2 8114   2.095   3.614   4.872
 2697SOL     OW 8115   2.802   3.560   4.628
 2697SOL    HW1 8116   2.882   3.503   4.649
 2697SOL    HW2 8117   2.753   3.520   4.551
 2698SOL     OW 8118   2.244   2.562   4.204
 2698SOL    HW1 8119   2.289   2.472   4.201
 2698SOL    HW2 8120   2.150   2.551   4.237
 2699SOL     OW 8121   2.476   1.984   3.841
 2699SOL    HW1 8122   2.574   1.962   3.848
 2699SOL    HW2 8123   2.445   1.967   3.748
 2700SOL     OW 8124   2.750   3.376   4.919
 2700SOL    HW1 8125   2.727   3.351   4.825
 2700SOL    HW2 8126   2.811   3.307   4.958
 2701SOL     OW 8127   2.665   3.264   4.648
 2701SOL    HW1 8128   2.755   3.278   4.606
 2701SOL    HW2 8129   2.594   3.266   4.577
 2702SOL     OW 8130   2.784   2.365   4.623
 2702SOL    HW1 8131   2.759   2.356   4.527
 2702SOL    HW2 8132   2.832   2.283   4.654
 2703SOL     OW 8133   2.401   1.926   4.236
 2703SOL    HW1 8134   2.320   1.927   4.294
 2703SOL    HW2 8135   2.404   2.009   4.181
 2704SOL     OW 8136   3.296   3.050   3.765
 2704SOL    HW1 8137   3.328   2.974   3.822
 2704SOL    HW2 8138   3.204   3.077   3.795
 2705SOL     OW 8139   2.159   1.897   3.895
 2705SOL    HW1 8140   2.208   1.981   3.874
 2705SOL    HW2 8141   2.221   1.832   3.940
 2706SOL     OW 8142   2.797   2.098   4.204
 2706SOL    HW1 8143   2.749   2.139   4.126
 2706SOL    HW2 8144   2.896   2.096   4.185
 2707SOL     OW 8145   3.089   3.432   4.517
 2707SOL    HW1 8146   3.110   3.506   4.452
 2707SOL    HW2 8147   3.157   3.432   4.590
 2708SOL     OW 8148   2.321   3.014   4.465
 2708SOL    HW1 8149   2.250   2.987   4.530
 2708SOL    HW2 8150   2.295   2.986   4.372
 2709SOL     OW 8151   3.133   3.659   4.315
 2709SOL    HW1 8152   3.177   3.723   4.251
 2709SOL    HW2 8153   3.083   3.711   4.385
 2710SOL     OW 8154   2.894   2.411   3.740
 2710SOL    HW1 8155   2.853   2.493   3.701
 2710SOL    HW2 8156   2.958   2.437   3.813
 2711SOL     OW 8157   2.423   2.084   4.871
 2711SOL    HW1 8158   2.461   2.000   4.908
 2711SOL    HW2 8159   2.335   2.103   4.915
 2712SOL     OW 8160   2.728   2.316   4.366
 2712SOL    HW1 8161   2.696   2.388   4.304
 2712SOL    HW2 8162   2.752   2.235   4.313
 2713SOL     OW 8163   2.879   1.901   4.477
 2713SOL    HW1 8164   2.807   1.906   4.408
 2713SOL    HW2 8165   2.855   1.832   4.546
 2714SOL     OW 8166   3.291   3.035   4.591
 2714SOL    HW1 8167   3.236   2.951   4.584
 2714SOL    HW2 8168   3.317   3.064   4.499
 2715SOL     OW 8169   3.328   2.452   4.716
 2715SOL    HW1 8170   3.298   2.357   4.723
 2715SOL    HW2 8171   3.401   2.468   4.782
 2716SOL     OW 8172   3.719   2.695   4.101
 2716SOL    HW1 8173   3.761   2.631   4.165
 2716SOL    HW2 8174   3.681   2.644   4.023
 2717SOL     OW 8175   2.350   3.247   3.898
 2717SOL    HW1 8176   2.263   3.232   3.945
 2717SOL    HW2 8177   2.333   3.273   3.803
 2718SOL     OW 8178   3.526   3.142   4.381
 2718SOL    HW1 8179   3.625   3.150   4.395
 2718SOL    HW2 8180   3.481   3.226   4.412
 2719SOL     OW 8181   3.252   2.437   3.802
 2719SOL    HW1 8182   3.198   2.416   3.883
 2719SOL    HW2 8183   3.343   2.396   3.811
 2720SOL     OW 8184   2.389   2.118   4.052
 2720SOL    HW1 8185   2.416   2.059   3.977
 2720SOL    HW2 8186   2.389   2.213   4.021
 2721SOL     OW 8187   3.616   3.085   5.312
 2721SOL    HW1 8188   3.707   3.046   5.299
 2721SOL    HW2 8189   3.624   3.181   5.336
 2722SOL     OW 8190   2.926   3.209   5.064
 2722SOL    HW1 8191   2.846   3.186   5.119
 2722SOL    HW2 8192   3.009   3.183   5.113
 2723SOL     OW 8193   2.973   3.057   4.824
 2723SOL    HW1 8194   2.933   3.101   4.905
 2723SOL    HW2 8195   2.932   3.094   4.741
 2724SOL     OW 8196   3.500   2.961   4.803
 2724SOL    HW1 8197   3.505   3.042   4.862
 2724SOL    HW2 8198   3.414   2.963   4.752
 2725SOL     OW 8199   2.567   2.912   4.092
 2725SOL    HW1 8200   2.553   2.919   4.191
 2725SOL    HW2 8201   2.651   2.861   4.074
 2726SOL     OW 8202   2.272   2.675   4.975
 2726SOL    HW1 8203   2.358   2.687   5.025
 2726SOL    HW2 8204   2.230   2.588   5.002
 2727SOL     OW 8205   3.136   2.248   4.986
 2727SOL    HW1 8206   3.157   2.322   5.050
 2727SOL    HW2 8207   3.047   2.265   4.943
 2728SOL     OW 8208   1.926   3.426   5.055
 2728SOL    HW1 8209   1.880   3.508   5.021
 2728SOL    HW2 8210   2.024   3.445   5.064
 2729SOL     OW 8211   2.229   2.962   4.225
 2729SOL    HW1 8212   2.222   3.045   4.169
 2729SOL    HW2 8213   2.233   2.882   4.165
 2730SOL     OW 8214   2.428   2.399   4.589
 2730SOL    HW1 8215   2.440   2.465   4.515
 2730SOL    HW2 8216   2.474   2.433   4.672
 2731SOL     OW 8217   3.114   3.210   4.112
 2731SOL    HW1 8218   3.164   3.287   4.152
 2731SOL    HW2 8219   3.019   3.212   4.144
 2732SOL     OW 8220   3.134   3.307   4.866
 2732SOL    HW1 8221   3.181   3.320   4.953
 2732SOL    HW2 8222   3.068   3.233   4.875
 2733SOL     OW 8223   3.444   2.501   4.196
 2733SOL    HW1 8224   3.413   2.562   4.269
 2733SOL    HW2 8225   3.494   2.553   4.127
 2734SOL     OW 8226   2.216   3.372   5.053
 2734SOL    HW1 8227   2.195   3.328   4.966
 2734SOL    HW2 8228   2.313   3.398   5.056
 2735SOL     OW 8229   2.366   1.912   5.464
 2735SOL    HW1 8230   2.324   1.855   5.394
 2735SOL    HW2 8231   2.300   1.981   5.496
 2736SOL     OW 8232   2.435   2.732   4.753
 2736SOL    HW1 8233   2.479   2.821   4.744
 2736SOL    HW2 8234   2.372   2.732   4.830
 2737SOL     OW 8235   3.222   2.724   4.769
 2737SOL    HW1 8236   3.147   2.724   4.703
 2737SOL    HW2 8237   3.259   2.632   4.778
 2738SOL     OW 8238   3.071   2.387   3.999
 2738SOL    HW1 8239   3.084   2.303   4.053
 2738SOL    HW2 8240   3.042   2.461   4.059
 2739SOL     OW 8241   2.169   2.075   4.955
 2739SOL    HW1 8242   2.146   2.112   5.045
 2739SOL    HW2 8243   2.139   1.980   4.949
 2740SOL     OW 8244   1.899   3.172   5.006
 2740SOL    HW1 8245   1.952   3.123   5.074
 2740SOL    HW2 8246   1.921   3.270   5.011
 2741SOL     OW 8247   2.594   2.496   4.788
 2741SOL    HW1 8248   2.653   2.470   4.712
 2741SOL    HW2 8249   2.566   2.592   4.777
 2742SOL     OW 8250   2.169   1.925   4.342
 2742SOL    HW1 8251   2.158   2.019   4.375
 2742SOL    HW2 8252   2.164   1.862   4.419
 2743SOL     OW 8253   3.484   2.229   4.098
 2743SOL    HW1 8254   3.486   2.153   4.162
 2743SOL    HW2 8255   3.436   2.306   4.138
 2744SOL     OW 8256   2.885   2.628   4.690
 2744SOL    HW1 8257   2.900   2.649   4.786
 2744SOL    HW2 8258   2.855   2.533   4.681
 2745SOL     OW 8259   3.402   2.136   3.849
 2745SOL    HW1 8260   3.341   2.061   3.872
 2745SOL    HW2 8261   3.424   2.188   3.932
 2746SOL     OW 8262   3.165   2.700   3.766
 2746SOL    HW1 8263   3.199   2.607   3.781
 2746SOL    HW2 8264   3.183   2.727   3.671
 2747SOL     OW 8265   2.930   3.195   4.573
 2747SOL    HW1 8266   2.937   3.111   4.518
 2747SOL    HW2 8267   2.992   3.264   4.537
 2748SOL     OW 8268   2.181   2.672   4.673
 2748SOL    HW1 8269   2.274   2.708   4.678
 2748SOL    HW2 8270   2.175   2.587   4.725
 2749SOL     OW 8271   2.201   2.371   4.730
 2749SOL    HW1 8272   2.149   2.288   4.713
 2749SOL    HW2 8273   2.278   2.376   4.666
 2750SOL     OW 8274   3.022   2.069   5.201
 2750SOL    HW1 8275   3.022   2.133   5.278
 2750SOL    HW2 8276   3.050   2.117   5.118
 2751SOL     OW 8277   1.870   3.188   3.924
 2751SOL    HW1 8278   1.777   3.209   3.893
 2751SOL    HW2 8279   1.880   3.089   3.937
 2752SOL     OW 8280   1.950   3.663   4.651
 2752SOL    HW1 8281   1.908   3.577   4.624
 2752SOL    HW2 8282   2.044   3.666   4.617
 2753SOL     OW 8283   2.366   3.430   4.634
 2753SOL    HW1 8284   2.432   3.504   4.643
 2753SOL    HW2 8285   2.410   3.351   4.592
 2754SOL     OW 8286   2.864   2.658   4.962
 2754SOL    HW1 8287   2.905   2.626   5.048
 2754SOL    HW2 8288   2.768   2.631   4.959
 2755SOL     OW 8289   1.902   2.406   4.838
 2755SOL    HW1 8290   1.987   2.373   4.797
 2755SOL    HW2 8291   1.915   2.421   4.936
 2756SOL     OW 8292   2.677   2.434   4.049
 2756SOL    HW1 8293   2.684   2.345   4.003
 2756SOL    HW2 8294   2.583   2.468   4.041
 2757SOL     OW 8295   3.519   2.466   4.930
 2757SOL    HW1 8296   3.481   2.397   4.992
 2757SOL    HW2 8297   3.601   2.430   4.886
 2758SOL     OW 8298   2.533   2.326   4.993
 2758SOL    HW1 8299   2.499   2.237   4.963
 2758SOL    HW2 8300   2.559   2.380   4.913
 2759SOL     OW 8301   2.792   3.540   5.189
 2759SOL    HW1 8302   2.768   3.522   5.094
 2759SOL    HW2 8303   2.822   3.634   5.199
 2760SOL     OW 8304   2.335   2.362   3.915
 2760SOL    HW1 8305   2.396   2.442   3.919
 2760SOL    HW2 8306   2.240   2.393   3.922
 2761SOL     OW 8307   2.021   2.999   5.190
 2761SOL    HW1 8308   2.043   2.938   5.266
 2761SOL    HW2 8309   2.031   2.950   5.104
 2762SOL     OW 8310   3.209   2.921   4.958
 2762SOL    HW1 8311   3.233   2.858   4.884
 2762SOL    HW2 8312   3.119   2.961   4.940
 2763SOL     OW 8313   3.164   2.717   4.033
 2763SOL    HW1 8314   3.078   2.686   4.075
 2763SOL    HW2 8315   3.160   2.703   3.934
 2764SOL     OW 8316   3.621   3.609   4.878
 2764SOL    HW1 8317   3.682   3.639   4.805
 2764SOL    HW2 8318   3.583   3.520   4.856
 2765SOL     OW 8319   3.114   3.593   4.852
 2765SOL    HW1 8320   3.198   3.598   4.798
 2765SOL    HW2 8321   3.091   3.497   4.870
 2766SOL     OW 8322   1.945   3.120   4.746
 2766SOL    HW1 8323   1.940   3.119   4.846
 2766SOL    HW2 8324   1.862   3.079   4.708
 2767SOL     OW 8325   3.588   1.997   4.247
 2767SOL    HW1 8326   3.661   1.980   4.180
 2767SOL    HW2 8327   3.557   1.910   4.285
 2768SOL     OW 8328   3.250   3.435   4.201
 2768SOL    HW1 8329   3.317   3.447   4.127
 2768SOL    HW2 8330   3.210   3.524   4.224
 2769SOL     OW 8331   3.142   2.789   4.396
 2769SOL    HW1 8332   3.202   2.708   4.398
 2769SOL    HW2 8333   3.182   2.858   4.336
 2770SOL     OW 8334   2.534   3.478   3.878
 2770SOL    HW1 8335   2.543   3.488   3.779
 2770SOL    HW2 8336   2.494   3.389   3.899
 2771SOL     OW 8337   3.703   2.037   4.687
 2771SOL    HW1 8338   3.742   1.952   4.651
 2771SOL    HW2 8339   3.605   2.039   4.668
 2772SOL     OW 8340   2.125   2.188   4.444
 2772SOL    HW1 8341   2.046   2.239   4.410
 2772SOL    HW2 8342   2.116   2.173   4.542
 2773SOL     OW 8343   3.056   3.474   3.755
 2773SOL    HW1 8344   3.062   3.381   3.792
 2773SOL    HW2 8345   2.997   3.474   3.675
 2774SOL     OW 8346   2.684   2.864   5.096
 2774SOL    HW1 8347   2.724   2.863   5.004
 2774SOL    HW2 8348   2.694   2.956   5.136
 2775SOL     OW 8349   2.778   2.772   4.015
 2775SOL    HW1 8350   2.841   2.810   3.947
 2775SOL    HW2 8351   2.818   2.689   4.054
 2776SOL     OW 8352   3.366   3.469   3.768
 2776SOL    HW1 8353   3.274   3.506   3.775
 2776SOL    HW2 8354   3.404   3.489   3.678
 2777SOL     OW 8355   2.234   3.150   5.214
 2777SOL    HW1 8356   2.221   3.243   5.180
 2777SOL    HW2 8357   2.150   3.098   5.201
 2778SOL     OW 8358   3.476   3.154   5.013
 2778SOL    HW1 8359   3.536   3.157   5.093
 2778SOL    HW2 8360   3.401   3.218   5.026
 2779SOL     OW 8361   2.901   2.960   4.420
 2779SOL    HW1 8362   2.831   2.913   4.474
 2779SOL    HW2 8363   2.960   2.892   4.377
 2780SOL     OW 8364   2.876   2.098   4.695
 2780SOL    HW1 8365   2.868   2.062   4.602
 2780SOL    HW2 8366   2.874   2.022   4.760
 2781SOL     OW 8367   2.452   3.349   4.215
 2781SOL    HW1 8368   2.494   3.291   4.145
 2781SOL    HW2 8369   2.408   3.428   4.171
 2782SOL     OW 8370   3.571   2.247   5.105
 2782SOL    HW1 8371   3.644   2.316   5.109
 2782SOL    HW2 8372   3.599   2.172   5.046
 2783SOL     OW 8373   2.117   3.210   4.014
 2783SOL    HW1 8374   2.021   3.211   3.987
 2783SOL    HW2 8375   2.129   3.263   4.098
 2784SOL     OW 8376   2.534   2.065   5.213
 2784SOL    HW1 8377   2.624   2.049   5.173
 2784SOL    HW2 8378   2.542   2.070   5.312
 2785SOL     OW 8379   1.937   2.207   3.757
 2785SOL    HW1 8380   1.845   2.179   3.728
 2785SOL    HW2 8381   1.968   2.284   3.701
 2786SOL     OW 8382   1.934   2.028   4.042
 2786SOL    HW1 8383   1.917   2.111   3.988
 2786SOL    HW2 8384   2.024   1.991   4.020
 2787SOL     OW 8385   3.045   3.197   3.843
 2787SOL    HW1 8386   2.946   3.186   3.845
 2787SOL    HW2 8387   3.079   3.212   3.936
 2788SOL     OW 8388   2.475   2.704   5.155
 2788SOL    HW1 8389   2.531   2.785   5.138
 2788SOL    HW2 8390   2.534   2.624   5.158
 2789SOL     OW 8391   3.355   3.629   4.683
 2789SOL    HW1 8392   3.388   3.693   4.614
 2789SOL    HW2 8393   3.421   3.623   4.758
 2790SOL     OW 8394   2.252   3.603   5.284
 2790SOL    HW1 8395   2.161   3.644   5.282
 2790SOL    HW2 8396   2.245   3.509   5.316
 2791SOL     OW 8397   3.536   2.745   4.978
 2791SOL    HW1 8398   3.509   2.656   4.941
 2791SOL    HW2 8399   3.537   2.813   4.905
 2792SOL     OW 8400   3.087   2.187   4.173
 2792SOL    HW1 8401   3.152   2.113   4.162
 2792SOL    HW2 8402   3.107   2.237   4.257
 2793SOL     OW 8403   2.456   2.607   4.376
 2793SOL    HW1 8404   2.506   2.692   4.357
 2793SOL    HW2 8405   2.368   2.609   4.328
 2794SOL     OW 8406   3.592   2.796   5.241
 2794SOL    HW1 8407   3.630   2.887   5.256
 2794SOL    HW2 8408   3.584   2.779   5.142
 2795SOL     OW 8409   2.721   3.236   3.740
 2795SOL    HW1 8410   2.675   3.251   3.828
 2795SOL    HW2 8411   2.765   3.321   3.710
 2796SOL     OW 8412   2.523   3.652   4.677
 2796SOL    HW1 8413   2.477   3.740   4.664
 2796SOL    HW2 8414   2.622   3.664   4.670
 2797SOL     OW 8415   2.721   2.818   4.585
 2797SOL    HW1 8416   2.775   2.749   4.633
 2797SOL    HW2 8417   2.689   2.887   4.651
 2798SOL     OW 8418   2.945   2.846   3.811
 2798SOL    HW1 8419   2.922   2.899   3.729
 2798SOL    HW2 8420   3.026   2.790   3.792
 2799SOL     OW 8421   3.723   3.431   4.575
 2799SOL    HW1 8422   3.652   3.419   4.505
 2799SOL    HW2 8423   3.724   3.352   4.635
 2800SOL     OW 8424   1.941   3.102   4.377
 2800SOL    HW1 8425   1.940   3.055   4.465
 2800SOL    HW2 8426   2.023   3.074   4.326
 2801SOL     OW 8427   3.686   2.054   4.951
 2801SOL    HW1 8428   3.682   1.964   4.995
 2801SOL    HW2 8429   3.689   2.043   4.852
 2802SOL     OW 8430   2.290   2.286   4.244
 2802SOL    HW1 8431   2.320   2.214   4.182
 2802SOL    HW2 8432   2.251   2.246   4.327
 2803SOL     OW 8433   3.567   3.349   4.828
 2803SOL    HW1 8434   3.474   3.324   4.801
 2803SOL    HW2 8435   3.593   3.299   4.910
 2804SOL     OW 8436   2.179   2.409   5.004
 2804SOL    HW1 8437   2.217   2.350   5.076
 2804SOL    HW2 8438   2.219   2.383   4.916
 2805SOL     OW 8439   2.674   3.448   4.411
 2805SOL    HW1 8440   2.706   3.458   4.317
 2805SOL    HW2 8441   2.595   3.386   4.413
 2806SOL     OW 8442   3.286   2.076   4.836
 2806SOL    HW1 8443   3.338   2.011   4.891
 2806SOL    HW2 8444   3.237   2.139   4.897
 2807SOL     OW 8445   2.863   1.896   4.878
 2807SOL    HW1 8446   2.800   1.824   4.847
 2807SOL    HW2 8447   2.956   1.860   4.878
 2808SOL     OW 8448   2.632   3.192   4.025
 2808SOL    HW1 8449   2.586   3.105   4.042
 2808SOL    HW2 8450   2.723   3.189   4.066
 2809SOL     OW 8451   2.480   3.429   5.008
 2809SOL    HW1 8452   2.475   3.511   5.065
 2809SOL    HW2 8453   2.569   3.426   4.963
 2810SOL     OW 8454   3.214   1.914   3.892
 2810SOL    HW1 8455   3.249   1.873   3.808
 2810SOL    HW2 8456   3.124   1.876   3.912
 2811SOL     OW 8457   3.162   2.315   4.415
 2811SOL    HW1 8458   3.103   2.395   4.419
 2811SOL    HW2 8459   3.177   2.280   4.508
 2812SOL     OW 8460   3.455   2.083   4.606
 2812SOL    HW1 8461   3.371   2.082   4.660
 2812SOL    HW2 8462   3.457   2.166   4.550
 2813SOL     OW 8463   1.901   2.939   4.024
 2813SOL    HW1 8464   2.000   2.928   4.015
 2813SOL    HW2 8465   1.861   2.853   4.056
 2814SOL     OW 8466   2.737   3.508   4.061
 2814SOL    HW1 8467   2.660   3.473   4.007
 2814SOL    HW2 8468   2.705   3.579   4.123
 2815SOL     OW 8469   2.092   4.352   0.113
 2815SOL    HW1 8470   1.999   4.350   0.150
 2815SOL    HW2 8471   2.093   4.313   0.021
 2816SOL     OW 8472   2.087   3.999   0.996
 2816SOL    HW1 8473   2.122   3.982   1.088
 2816SOL    HW2 8474   1.999   3.954   0.984
 2817SOL     OW 8475   1.881   4.092   0.647
 2817SOL    HW1 8476   1.799   4.135   0.686
 2817SOL    HW2 8477   1.853   4.019   0.584
 2818SOL     OW 8478   2.431   4.999   1.165
 2818SOL    HW1 8479   2.338   4.992   1.128
 2818SOL    HW2 8480   2.442   5.088   1.209
 2819SOL     OW 8481   3.417   5.235   0.703
 2819SOL    HW1 8482   3.360   5.219   0.784
 2819SOL    HW2 8483   3.358   5.245   0.623
 2820SOL     OW 8484   2.997   4.427   0.717
 2820SOL    HW1 8485   3.054   4.505   0.692
 2820SOL    HW2 8486   2.937   4.453   0.793
 2821SOL     OW 8487   3.617   4.331   0.231
 2821SOL    HW1 8488   3.605   4.318   0.132
 2821SOL    HW2 8489   3.587   4.250   0.280
 2822SOL     OW 8490   2.630   4.868   1.023
 2822SOL    HW1 8491   2.552   4.885   1.083
 2822SOL    HW2 8492   2.664   4.955   0.987
 2823SOL     OW 8493   2.712   4.522   1.823
 2823SOL    HW1 8494   2.708   4.598   1.888
 2823SOL    HW2 8495   2.734   4.558   1.732
 2824SOL     OW 8496   2.547   4.736   0.665
 2824SOL    HW1 8497   2.616   4.720   0.735
 2824SOL    HW2 8498   2.474   4.793   0.703
 2825SOL     OW 8499   2.548   4.885   1.803
 2825SOL    HW1 8500   2.608   4.964   1.817
 2825SOL    HW2 8501   2.462   4.916   1.762
 2826SOL     OW 8502   2.197   5.159   1.061
 2826SOL    HW1 8503   2.119   5.128   1.008
 2826SOL    HW2 8504   2.255   5.217   1.004
 2827SOL     OW 8505   2.300   4.116   1.499
 2827SOL    HW1 8506   2.382   4.060   1.508
 2827SOL    HW2 8507   2.219   4.058   1.503
 2828SOL     OW 8508   3.465   4.171   0.737
 2828SOL    HW1 8509   3.391   4.217   0.687
 2828SOL    HW2 8510   3.516   4.239   0.790
 2829SOL     OW 8511   2.093   5.437   0.483
 2829SOL    HW1 8512   2.127   5.514   0.537
 2829SOL    HW2 8513   2.137   5.437   0.393
 2830SOL     OW 8514   2.989   5.065   1.690
 2830SOL    HW1 8515   3.036   5.065   1.778
 2830SOL    HW2 8516   2.941   4.978   1.679
 2831SOL     OW 8517   2.102   4.815   0.886
 2831SOL    HW1 8518   2.116   4.731   0.938
 2831SOL    HW2 8519   2.047   4.879   0.941
 2832SOL     OW 8520   2.468   4.688   0.123
 2832SOL    HW1 8521   2.475   4.772   0.069
 2832SOL    HW2 8522   2.514   4.701   0.211
 2833SOL     OW 8523   3.456   3.838   1.480
 2833SOL    HW1 8524   3.438   3.905   1.408
 2833SOL    HW2 8525   3.453   3.884   1.569
 2834SOL     OW 8526   1.984   4.367   0.563
 2834SOL    HW1 8527   1.939   4.279   0.580
 2834SOL    HW2 8528   1.983   4.421   0.647
 2835SOL     OW 8529   3.551   4.646   0.612
 2835SOL    HW1 8530   3.646   4.617   0.620
 2835SOL    HW2 8531   3.543   4.711   0.537
 2836SOL     OW 8532   3.503   4.832   0.432
 2836SOL    HW1 8533   3.589   4.834   0.380
 2836SOL    HW2 8534   3.517   4.879   0.520
 2837SOL     OW 8535   1.975   4.461   1.597
 2837SOL    HW1 8536   2.063   4.448   1.642
 2837SOL    HW2 8537   1.962   4.558   1.575
 2838SOL     OW 8538   2.475   5.089   0.726
 2838SOL    HW1 8539   2.426   5.002   0.735
 2838SOL    HW2 8540   2.452   5.132   0.639
 2839SOL     OW 8541   3.155   4.952   1.423
 2839SOL    HW1 8542   3.192   4.879   1.365
 2839SOL    HW2 8543   3.207   4.957   1.508
 2840SOL     OW 8544   2.671   3.728   0.502
 2840SOL    HW1 8545   2.711   3.819   0.493
 2840SOL    HW2 8546   2.571   3.736   0.508
 2841SOL     OW 8547   2.059   4.700   1.264
 2841SOL    HW1 8548   2.148   4.655   1.250
 2841SOL    HW2 8549   1.986   4.635   1.245
 2842SOL     OW 8550   3.387   4.723   0.190
 2842SOL    HW1 8551   3.324   4.647   0.203
 2842SOL    HW2 8552   3.435   4.741   0.276
 2843SOL     OW 8553   2.179   3.975   1.801
 2843SOL    HW1 8554   2.250   4.046   1.807
 2843SOL    HW2 8555   2.091   4.014   1.829
 2844SOL     OW 8556   3.328   5.141   0.953
 2844SOL    HW1 8557   3.269   5.147   1.033
 2844SOL    HW2 8558   3.313   5.053   0.907
 2845SOL     OW 8559   2.460   4.453   0.270
 2845SOL    HW1 8560   2.484   4.522   0.202
 2845SOL    HW2 8561   2.382   4.486   0.324
 2846SOL     OW 8562   3.143   4.069   0.944
 2846SOL    HW1 8563   3.057   4.019   0.931
 2846SOL    HW2 8564   3.205   4.015   1.000
 2847SOL     OW 8565   2.669   4.329   1.465
 2847SOL    HW1 8566   2.622   4.326   1.554
 2847SOL    HW2 8567   2.618   4.274   1.399
 2848SOL     OW 8568   3.256   4.193   1.674
 2848SOL    HW1 8569   3.236   4.236   1.762
 2848SOL    HW2 8570   3.334   4.131   1.683
 2849SOL     OW 8571   2.835   4.614   1.572
 2849SOL    HW1 8572   2.881   4.530   1.543
 2849SOL    HW2 8573   2.779   4.648   1.497
 2850SOL     OW 8574   2.853   4.134   1.242
 2850SOL    HW1 8575   2.776   4.168   1.296
 2850SOL    HW2 8576   2.819   4.083   1.163
 2851SOL     OW 8577   2.903   4.425   0.429
 2851SOL    HW1 8578   2.929   4.421   0.525
 2851SOL    HW2 8579   2.818   4.374   0.415
 2852SOL     OW 8580   1.938   4.535   0.789
 2852SOL    HW1 8581   2.037   4.523   0.798
 2852SOL    HW2 8582   1.914   4.630   0.810
 2853SOL     OW 8583   2.727   4.072   0.195
 2853SOL    HW1 8584   2.786   4.135   0.146
 2853SOL    HW2 8585   2.746   3.978   0.166
 2854SOL     OW 8586   3.581   4.309   1.831
 2854SOL    HW1 8587   3.555   4.398   1.795
 2854SOL    HW2 8588   3.579   4.241   1.758
 2855SOL     OW 8589   3.224   4.868   0.545
 2855SOL    HW1 8590   3.307   4.839   0.497
 2855SOL    HW2 8591   3.175   4.935   0.489
 2856SOL     OW 8592   2.412   3.920   0.885
 2856SOL    HW1 8593   2.407   3.915   0.985
 2856SOL    HW2 8594   2.414   4.016   0.856
 2857SOL     OW 8595   3.657   4.790   0.873
 2857SOL    HW1 8596   3.595   4.775   0.797
 2857SOL    HW2 8597   3.605   4.801   0.958
 2858SOL     OW 8598   2.183   4.667   0.242
 2858SOL    HW1 8599   2.265   4.706   0.200
 2858SOL    HW2 8600   2.156   4.585   0.193
 2859SOL     OW 8601   3.320   4.459   0.728
 2859SOL    HW1 8602   3.315   4.394   0.803
 2859SOL    HW2 8603   3.400   4.518   0.741
 2860SOL     OW 8604   2.323   4.990   1.727
 2860SOL    HW1 8605   2.273   4.991   1.641
 2860SOL    HW2 8606   2.260   4.972   1.803
 2861SOL     OW 8607   2.064   4.009   1.498
 2861SOL    HW1 8608   1.984   4.069   1.485
 2861SOL    HW2 8609   2.054   3.960   1.584
 2862SOL     OW 8610   3.494   5.101   0.081
 2862SOL    HW1 8611   3.462   5.195   0.071
 2862SOL    HW2 8612   3.418   5.038   0.069
 2863SOL     OW 8613   3.262   3.831   0.426
 2863SOL    HW1 8614   3.238   3.794   0.336
 2863SOL    HW2 8615   3.361   3.847   0.430
 2864SOL     OW 8616   2.244   4.424   0.480
 2864SOL    HW1 8617   2.289   4.334   0.477
 2864SOL    HW2 8618   2.150   4.413   0.513
 2865SOL     OW 8619   3.409   3.946   1.729
 2865SOL    HW1 8620   3.404   3.983   1.821
 2865SOL    HW2 8621   3.337   3.877   1.717
 2866SOL     OW 8622   2.643   3.988   1.749
 2866SOL    HW1 8623   2.710   3.927   1.792
 2866SOL    HW2 8624   2.570   4.007   1.814
 2867SOL     OW 8625   3.213   4.314   1.433
 2867SOL    HW1 8626   3.241   4.271   1.518
 2867SOL    HW2 8627   3.238   4.410   1.434
 2868SOL     OW 8628   2.784   4.227   0.899
 2868SOL    HW1 8629   2.759   4.218   0.803
 2868SOL    HW2 8630   2.832   4.145   0.930
 2869SOL     OW 8631   2.401   3.788   0.512
 2869SOL    HW1 8632   2.320   3.789   0.570
 2869SOL    HW2 8633   2.404   3.871   0.457
 2870SOL     OW 8634   3.296   4.912   0.041
 2870SOL    HW1 8635   3.328   4.836   0.098
 2870SOL    HW2 8636   3.204   4.939   0.071
 2871SOL     OW 8637   2.797   3.960   0.480
 2871SOL    HW1 8638   2.749   4.001   0.402
 2871SOL    HW2 8639   2.896   3.958   0.461
 2872SOL     OW 8640   2.938   4.407   1.464
 2872SOL    HW1 8641   2.858   4.346   1.467
 2872SOL    HW2 8642   3.019   4.354   1.440
 2873SOL     OW 8643   3.089   5.294   0.793
 2873SOL    HW1 8644   3.110   5.368   0.728
 2873SOL    HW2 8645   3.157   5.294   0.866
 2874SOL     OW 8646   2.321   4.876   0.741
 2874SOL    HW1 8647   2.250   4.849   0.806
 2874SOL    HW2 8648   2.295   4.848   0.648
 2875SOL     OW 8649   2.894   4.273   0.016
 2875SOL    HW1 8650   2.853   4.355  -0.023
 2875SOL    HW2 8651   2.958   4.299   0.089
 2876SOL     OW 8652   1.940   4.280   1.386
 2876SOL    HW1 8653   2.032   4.279   1.345
 2876SOL    HW2 8654   1.934   4.354   1.453
 2877SOL     OW 8655   2.423   3.946   1.147
 2877SOL    HW1 8656   2.461   3.862   1.184
 2877SOL    HW2 8657   2.335   3.965   1.191
 2878SOL     OW 8658   2.728   4.178   0.642
 2878SOL    HW1 8659   2.696   4.250   0.580
 2878SOL    HW2 8660   2.752   4.097   0.589
 2879SOL     OW 8661   2.879   3.763   0.753
 2879SOL    HW1 8662   2.807   3.768   0.684
 2879SOL    HW2 8663   2.855   3.694   0.822
 2880SOL     OW 8664   3.291   4.897   0.867
 2880SOL    HW1 8665   3.236   4.813   0.860
 2880SOL    HW2 8666   3.317   4.926   0.775
 2881SOL     OW 8667   3.328   4.314   0.992
 2881SOL    HW1 8668   3.298   4.219   0.999
 2881SOL    HW2 8669   3.401   4.330   1.058
 2882SOL     OW 8670   3.719   4.557   0.377
 2882SOL    HW1 8671   3.761   4.493   0.441
 2882SOL    HW2 8672   3.681   4.506   0.299
 2883SOL     OW 8673   3.526   5.004   0.657
 2883SOL    HW1 8674   3.625   5.012   0.671
 2883SOL    HW2 8675   3.481   5.088   0.688
 2884SOL     OW 8676   3.252   4.299   0.078
 2884SOL    HW1 8677   3.198   4.278   0.159
 2884SOL    HW2 8678   3.343   4.258   0.087
 2885SOL     OW 8679   2.389   3.980   0.328
 2885SOL    HW1 8680   2.416   3.921   0.253
 2885SOL    HW2 8681   2.389   4.075   0.297
 2886SOL     OW 8682   3.616   4.947   1.588
 2886SOL    HW1 8683   3.707   4.908   1.575
 2886SOL    HW2 8684   3.624   5.043   1.612
 2887SOL     OW 8685   2.926   5.071   1.340
 2887SOL    HW1 8686   2.846   5.048   1.395
 2887SOL    HW2 8687   3.009   5.045   1.389
 2888SOL     OW 8688   2.973   4.919   1.100
 2888SOL    HW1 8689   2.933   4.963   1.181
 2888SOL    HW2 8690   2.932   4.956   1.017
 2889SOL     OW 8691   3.500   4.823   1.079
 2889SOL    HW1 8692   3.505   4.904   1.138
 2889SOL    HW2 8693   3.414   4.825   1.028
 2890SOL     OW 8694   2.777   3.813   1.402
 2890SOL    HW1 8695   2.802   3.793   1.307
 2890SOL    HW2 8696   2.849   3.869   1.444
 2891SOL     OW 8697   2.842   4.840   1.719
 2891SOL    HW1 8698   2.743   4.846   1.729
 2891SOL    HW2 8699   2.865   4.760   1.663
 2892SOL     OW 8700   2.567   4.774   0.368
 2892SOL    HW1 8701   2.553   4.781   0.467
 2892SOL    HW2 8702   2.651   4.723   0.350
 2893SOL     OW 8703   2.272   4.537   1.251
 2893SOL    HW1 8704   2.358   4.549   1.301
 2893SOL    HW2 8705   2.230   4.450   1.278
 2894SOL     OW 8706   3.136   4.110   1.262
 2894SOL    HW1 8707   3.157   4.184   1.326
 2894SOL    HW2 8708   3.047   4.127   1.219
 2895SOL     OW 8709   2.229   4.824   0.501
 2895SOL    HW1 8710   2.222   4.907   0.445
 2895SOL    HW2 8711   2.233   4.744   0.441
 2896SOL     OW 8712   2.428   4.261   0.865
 2896SOL    HW1 8713   2.440   4.327   0.791
 2896SOL    HW2 8714   2.474   4.295   0.948
 2897SOL     OW 8715   3.114   5.072   0.388
 2897SOL    HW1 8716   3.164   5.149   0.428
 2897SOL    HW2 8717   3.019   5.074   0.420
 2898SOL     OW 8718   3.134   5.169   1.142
 2898SOL    HW1 8719   3.181   5.182   1.229
 2898SOL    HW2 8720   3.068   5.095   1.151
 2899SOL     OW 8721   3.444   4.363   0.472
 2899SOL    HW1 8722   3.413   4.424   0.545
 2899SOL    HW2 8723   3.494   4.415   0.403
 2900SOL     OW 8724   2.264   4.475   1.598
 2900SOL    HW1 8725   2.332   4.530   1.551
 2900SOL    HW2 8726   2.304   4.387   1.625
 2901SOL     OW 8727   3.449   4.503   1.670
 2901SOL    HW1 8728   3.357   4.541   1.665
 2901SOL    HW2 8729   3.509   4.550   1.605
 2902SOL     OW 8730   2.875   3.829   1.770
 2902SOL    HW1 8731   2.881   3.914   1.718
 2902SOL    HW2 8732   2.907   3.753   1.713
 2903SOL     OW 8733   2.366   3.774   1.740
 2903SOL    HW1 8734   2.324   3.717   1.670
 2903SOL    HW2 8735   2.300   3.843   1.772
 2904SOL     OW 8736   2.435   4.594   1.029
 2904SOL    HW1 8737   2.479   4.683   1.020
 2904SOL    HW2 8738   2.372   4.594   1.106
 2905SOL     OW 8739   3.222   4.586   1.045
 2905SOL    HW1 8740   3.147   4.586   0.979
 2905SOL    HW2 8741   3.259   4.494   1.054
 2906SOL     OW 8742   3.071   4.249   0.275
 2906SOL    HW1 8743   3.084   4.165   0.329
 2906SOL    HW2 8744   3.042   4.323   0.335
 2907SOL     OW 8745   2.169   3.937   1.231
 2907SOL    HW1 8746   2.146   3.974   1.321
 2907SOL    HW2 8747   2.139   3.842   1.225
 2908SOL     OW 8748   1.899   5.034   1.282
 2908SOL    HW1 8749   1.952   4.985   1.350
 2908SOL    HW2 8750   1.921   5.132   1.287
 2909SOL     OW 8751   2.594   4.358   1.064
 2909SOL    HW1 8752   2.653   4.332   0.988
 2909SOL    HW2 8753   2.566   4.454   1.053
 2910SOL     OW 8754   3.590   4.659   1.854
 2910SOL    HW1 8755   3.544   4.652   1.765
 2910SOL    HW2 8756   3.528   4.703   1.920
 2911SOL     OW 8757   2.169   3.787   0.618
 2911SOL    HW1 8758   2.158   3.881   0.651
 2911SOL    HW2 8759   2.164   3.724   0.695
 2912SOL     OW 8760   3.484   4.091   0.374
 2912SOL    HW1 8761   3.486   4.015   0.438
 2912SOL    HW2 8762   3.436   4.168   0.414
 2913SOL     OW 8763   2.885   4.490   0.966
 2913SOL    HW1 8764   2.900   4.511   1.062
 2913SOL    HW2 8765   2.855   4.395   0.957
 2914SOL     OW 8766   3.721   5.242   1.605
 2914SOL    HW1 8767   3.735   5.269   1.510
 2914SOL    HW2 8768   3.804   5.264   1.658
 2915SOL     OW 8769   2.212   4.622   1.804
 2915SOL    HW1 8770   2.288   4.666   1.852
 2915SOL    HW2 8771   2.247   4.575   1.722
 2916SOL     OW 8772   3.402   3.998   0.125
 2916SOL    HW1 8773   3.341   3.923   0.148
 2916SOL    HW2 8774   3.424   4.050   0.208
 2917SOL     OW 8775   3.165   4.562   0.042
 2917SOL    HW1 8776   3.199   4.469   0.057
 2917SOL    HW2 8777   3.183   4.589  -0.053
 2918SOL     OW 8778   2.181   4.534   0.949
 2918SOL    HW1 8779   2.274   4.570   0.954
 2918SOL    HW2 8780   2.175   4.449   1.001
 2919SOL     OW 8781   2.201   4.233   1.006
 2919SOL    HW1 8782   2.149   4.150   0.989
 2919SOL    HW2 8783   2.278   4.238   0.942
 2920SOL     OW 8784   3.000   4.104   1.678
 2920SOL    HW1 8785   2.955   4.167   1.742
 2920SOL    HW2 8786   3.093   4.135   1.661
 2921SOL     OW 8787   3.022   3.931   1.477
 2921SOL    HW1 8788   3.022   3.995   1.554
 2921SOL    HW2 8789   3.050   3.979   1.394
 2922SOL     OW 8790   2.864   4.520   1.238
 2922SOL    HW1 8791   2.905   4.488   1.324
 2922SOL    HW2 8792   2.768   4.493   1.235
 2923SOL     OW 8793   1.902   4.268   1.114
 2923SOL    HW1 8794   1.987   4.235   1.073
 2923SOL    HW2 8795   1.915   4.283   1.212
 2924SOL     OW 8796   2.051   4.244   1.722
 2924SOL    HW1 8797   2.110   4.204   1.652
 2924SOL    HW2 8798   1.993   4.315   1.681
 2925SOL     OW 8799   3.231   4.674   1.660
 2925SOL    HW1 8800   3.270   4.763   1.680
 2925SOL    HW2 8801   3.241   4.654   1.563
 2926SOL     OW 8802   2.677   4.296   0.325
 2926SOL    HW1 8803   2.684   4.207   0.279
 2926SOL    HW2 8804   2.583   4.330   0.317
 2927SOL     OW 8805   3.519   4.328   1.206
 2927SOL    HW1 8806   3.481   4.259   1.268
 2927SOL    HW2 8807   3.601   4.292   1.162
 2928SOL     OW 8808   2.533   4.188   1.269
 2928SOL    HW1 8809   2.499   4.099   1.239
 2928SOL    HW2 8810   2.559   4.242   1.189
 2929SOL     OW 8811   2.335   4.224   0.191
 2929SOL    HW1 8812   2.396   4.304   0.195
 2929SOL    HW2 8813   2.240   4.255   0.198
 2930SOL     OW 8814   2.021   4.861   1.466
 2930SOL    HW1 8815   2.043   4.800   1.542
 2930SOL    HW2 8816   2.031   4.812   1.380
 2931SOL     OW 8817   3.209   4.783   1.234
 2931SOL    HW1 8818   3.233   4.720   1.160
 2931SOL    HW2 8819   3.119   4.823   1.216
 2932SOL     OW 8820   3.164   4.579   0.309
 2932SOL    HW1 8821   3.078   4.548   0.351
 2932SOL    HW2 8822   3.160   4.565   0.210
 2933SOL     OW 8823   1.945   4.982   1.022
 2933SOL    HW1 8824   1.940   4.981   1.122
 2933SOL    HW2 8825   1.862   4.941   0.984
 2934SOL     OW 8826   2.765   3.810   0.133
 2934SOL    HW1 8827   2.816   3.811   0.047
 2934SOL    HW2 8828   2.821   3.768   0.204
 2935SOL     OW 8829   3.588   3.859   0.523
 2935SOL    HW1 8830   3.661   3.842   0.456
 2935SOL    HW2 8831   3.557   3.772   0.561
 2936SOL     OW 8832   3.142   4.651   0.672
 2936SOL    HW1 8833   3.202   4.570   0.674
 2936SOL    HW2 8834   3.182   4.720   0.612
 2937SOL     OW 8835   2.692   4.997   1.422
 2937SOL    HW1 8836   2.687   5.030   1.517
 2937SOL    HW2 8837   2.606   5.016   1.376
 2938SOL     OW 8838   3.703   3.899   0.963
 2938SOL    HW1 8839   3.742   3.814   0.927
 2938SOL    HW2 8840   3.605   3.901   0.944
 2939SOL     OW 8841   2.125   4.050   0.720
 2939SOL    HW1 8842   2.046   4.101   0.686
 2939SOL    HW2 8843   2.116   4.035   0.818
 2940SOL     OW 8844   2.684   4.726   1.372
 2940SOL    HW1 8845   2.724   4.725   1.280
 2940SOL    HW2 8846   2.694   4.818   1.412
 2941SOL     OW 8847   2.778   4.634   0.291
 2941SOL    HW1 8848   2.841   4.672   0.223
 2941SOL    HW2 8849   2.818   4.551   0.330
 2942SOL     OW 8850   2.234   5.012   1.490
 2942SOL    HW1 8851   2.221   5.105   1.456
 2942SOL    HW2 8852   2.150   4.960   1.477
 2943SOL     OW 8853   3.476   5.016   1.289
 2943SOL    HW1 8854   3.536   5.019   1.369
 2943SOL    HW2 8855   3.401   5.080   1.302
 2944SOL     OW 8856   2.901   4.822   0.696
 2944SOL    HW1 8857   2.831   4.775   0.750
 2944SOL    HW2 8858   2.960   4.754   0.653
 2945SOL     OW 8859   2.876   3.960   0.971
 2945SOL    HW1 8860   2.868   3.924   0.878
 2945SOL    HW2 8861   2.874   3.884   1.036
 2946SOL     OW 8862   3.571   4.109   1.381
 2946SOL    HW1 8863   3.644   4.178   1.385
 2946SOL    HW2 8864   3.599   4.034   1.322
 2947SOL     OW 8865   1.967   4.737   1.726
 2947SOL    HW1 8866   1.890   4.704   1.780
 2947SOL    HW2 8867   2.052   4.707   1.768
 2948SOL     OW 8868   2.534   3.927   1.489
 2948SOL    HW1 8869   2.624   3.911   1.449
 2948SOL    HW2 8870   2.542   3.932   1.588
 2949SOL     OW 8871   1.937   4.069   0.033
 2949SOL    HW1 8872   1.845   4.041   0.004
 2949SOL    HW2 8873   1.968   4.146  -0.023
 2950SOL     OW 8874   3.302   4.580   1.398
 2950SOL    HW1 8875   3.245   4.632   1.335
 2950SOL    HW2 8876   3.398   4.592   1.374
 2951SOL     OW 8877   1.934   3.890   0.318
 2951SOL    HW1 8878   1.917   3.973   0.264
 2951SOL    HW2 8879   2.024   3.853   0.296
 2952SOL     OW 8880   3.045   5.059   0.119
 2952SOL    HW1 8881   2.946   5.048   0.121
 2952SOL    HW2 8882   3.079   5.074   0.212
 2953SOL     OW 8883   2.475   4.566   1.431
 2953SOL    HW1 8884   2.531   4.647   1.414
 2953SOL    HW2 8885   2.534   4.486   1.434
 2954SOL     OW 8886   2.578   4.289   1.708
 2954SOL    HW1 8887   2.597   4.354   1.782
 2954SOL    HW2 8888   2.638   4.209   1.717
 2955SOL     OW 8889   3.312   4.944   1.633
 2955SOL    HW1 8890   3.303   4.934   1.732
 2955SOL    HW2 8891   3.408   4.937   1.607
 2956SOL     OW 8892   3.536   4.607   1.254
 2956SOL    HW1 8893   3.509   4.518   1.217
 2956SOL    HW2 8894   3.537   4.675   1.181
 2957SOL     OW 8895   3.087   4.049   0.449
 2957SOL    HW1 8896   3.152   3.975   0.438
 2957SOL    HW2 8897   3.107   4.099   0.533
 2958SOL     OW 8898   2.456   4.469   0.652
 2958SOL    HW1 8899   2.506   4.554   0.633
 2958SOL    HW2 8900   2.368   4.471   0.604
 2959SOL     OW 8901   3.639   4.066   1.642
 2959SOL    HW1 8902   3.622   4.097   1.548
 2959SOL    HW2 8903   3.555   4.029   1.680
 2960SOL     OW 8904   3.592   4.658   1.517
 2960SOL    HW1 8905   3.630   4.749   1.532
 2960SOL    HW2 8906   3.584   4.641   1.418
 2961SOL     OW 8907   2.721   4.680   0.861
 2961SOL    HW1 8908   2.775   4.611   0.909
 2961SOL    HW2 8909   2.689   4.749   0.927
 2962SOL     OW 8910   2.945   4.708   0.087
 2962SOL    HW1 8911   2.922   4.761   0.005
 2962SOL    HW2 8912   3.026   4.652   0.068
 2963SOL     OW 8913   2.083   5.038   1.844
 2963SOL    HW1 8914   2.018   4.965   1.823
 2963SOL    HW2 8915   2.087   5.052   1.942
 2964SOL     OW 8916   1.941   4.964   0.653
 2964SOL    HW1 8917   1.940   4.917   0.741
 2964SOL    HW2 8918   2.023   4.936   0.602
 2965SOL     OW 8919   2.534   5.115   1.624
 2965SOL    HW1 8920   2.456   5.065   1.662
 2965SOL    HW2 8921   2.531   5.210   1.655
 2966SOL     OW 8922   3.686   3.916   1.227
 2966SOL    HW1 8923   3.682   3.826   1.271
 2966SOL    HW2 8924   3.689   3.905   1.128
 2967SOL     OW 8925   2.290   4.148   0.520
 2967SOL    HW1 8926   2.320   4.076   0.458
 2967SOL    HW2 8927   2.251   4.108   0.603
 2968SOL     OW 8928   3.567   5.211   1.104
 2968SOL    HW1 8929   3.474   5.186   1.077
 2968SOL    HW2 8930   3.593   5.161   1.186
 2969SOL     OW 8931   2.179   4.271   1.280
 2969SOL    HW1 8932   2.217   4.212   1.352
 2969SOL    HW2 8933   2.219   4.245   1.192
 2970SOL     OW 8934   3.286   3.938   1.112
 2970SOL    HW1 8935   3.338   3.873   1.167
 2970SOL    HW2 8936   3.237   4.001   1.173
 2971SOL     OW 8937   2.863   3.758   1.154
 2971SOL    HW1 8938   2.800   3.686   1.123
 2971SOL    HW2 8939   2.956   3.722   1.154
 2972SOL     OW 8940   2.632   5.054   0.301
 2972SOL    HW1 8941   2.586   4.967   0.318
 2972SOL    HW2 8942   2.723   5.051   0.342
 2973SOL     OW 8943   3.214   3.776   0.168
 2973SOL    HW1 8944   3.249   3.735   0.084
 2973SOL    HW2 8945   3.124   3.738   0.188
 2974SOL     OW 8946   3.162   4.177   0.691
 2974SOL    HW1 8947   3.103   4.257   0.695
 2974SOL    HW2 8948   3.177   4.142   0.784
 2975SOL     OW 8949   3.455   3.945   0.882
 2975SOL    HW1 8950   3.371   3.944   0.936
 2975SOL    HW2 8951   3.457   4.028   0.826
 2976SOL     OW 8952   1.901   4.801   0.300
 2976SOL    HW1 8953   2.000   4.790   0.291
 2976SOL    HW2 8954   1.861   4.715   0.332
 2977SOL     OW 8955   2.092   4.352   1.975
 2977SOL    HW1 8956   1.999   4.350   2.012
 2977SOL    HW2 8957   2.093   4.313   1.883
 2978SOL     OW 8958   2.087   3.999   2.858
 2978SOL    HW1 8959   2.122   3.982   2.950
 2978SOL    HW2 8960   1.999   3.954   2.846
 2979SOL     OW 8961   1.881   4.092   2.509
 2979SOL    HW1 8962   1.799   4.135   2.548
 2979SOL    HW2 8963   1.853   4.019   2.446
 2980SOL     OW 8964   2.431   4.999   3.027
 2980SOL    HW1 8965   2.338   4.992   2.990
 2980SOL    HW2 8966   2.442   5.088   3.071
 2981SOL     OW 8967   3.417   5.235   2.565
 2981SOL    HW1 8968   3.360   5.219   2.646
 2981SOL    HW2 8969   3.358   5.245   2.485
 2982SOL     OW 8970   2.997   4.427   2.579
 2982SOL    HW1 8971   3.054   4.505   2.554
 2982SOL    HW2 8972   2.937   4.453   2.655
 2983SOL     OW 8973   3.617   4.331   2.093
 2983SOL    HW1 8974   3.605   4.318   1.994
 2983SOL    HW2 8975   3.587   4.250   2.142
 2984SOL     OW 8976   2.630   4.868   2.885
 2984SOL    HW1 8977   2.552   4.885   2.945
 2984SOL    HW2 8978   2.664   4.955   2.849
 2985SOL     OW 8979   2.712   4.522   3.685
 2985SOL    HW1 8980   2.708   4.598   3.750
 2985SOL    HW2 8981   2.734   4.558   3.594
 2986SOL     OW 8982   2.547   4.736   2.527
 2986SOL    HW1 8983   2.616   4.720   2.597
 2986SOL    HW2 8984   2.474   4.793   2.565
 2987SOL     OW 8985   2.548   4.885   3.665
 2987SOL    HW1 8986   2.608   4.964   3.679
 2987SOL    HW2 8987   2.462   4.916   3.624
 2988SOL     OW 8988   2.197   5.159   2.923
 2988SOL    HW1 8989   2.119   5.128   2.870
 2988SOL    HW2 8990   2.255   5.217   2.866
 2989SOL     OW 8991   2.300   4.116   3.361
 2989SOL    HW1 8992   2.382   4.060   3.370
 2989SOL    HW2 8993   2.219   4.058   3.365
 2990SOL     OW 8994   3.465   4.171   2.599
 2990SOL    HW1 8995   3.391   4.217   2.549
 2990SOL    HW2 8996   3.516   4.239   2.652
 2991SOL     OW 8997   2.093   5.437   2.345
 2991SOL    HW1 8998   2.127   5.514   2.399
 2991SOL    HW2 8999   2.137   5.437   2.255
 2992SOL     OW 9000   2.989   5.065   3.552
 2992SOL    HW1 9001   3.036   5.065   3.640
 2992SOL    HW2 9002   2.941   4.978   3.541
 2993SOL     OW 9003   2.102   4.815   2.748
 2993SOL    HW1 9004   2.116   4.731   2.800
 2993SOL    HW2 9005   2.047   4.879   2.803
 2994SOL     OW 9006   2.468   4.688   1.985
 2994SOL    HW1 9007   2.475   4.772   1.931
 2994SOL    HW2 9008   2.514   4.701   2.073
 2995SOL     OW 9009   3.456   3.838   3.342
 2995SOL    HW1 9010   3.438   3.905   3.270
 2995SOL    HW2 9011   3.453   3.884   3.431
 2996SOL     OW 9012   1.984   4.367   2.425
 2996SOL    HW1 9013   1.939   4.279   2.442
 2996SOL    HW2 9014   1.983   4.421   2.509
 2997SOL     OW 9015   3.551   4.646   2.474
 2997SOL    HW1 9016   3.646   4.617   2.482
 2997SOL    HW2 9017   3.543   4.711   2.399
 2998SOL     OW 9018   3.503   4.832   2.294
 2998SOL    HW1 9019   3.589   4.834   2.242
 2998SOL    HW2 9020   3.517   4.879   2.382
 2999SOL     OW 9021   1.975   4.461   3.459
 2999SOL    HW1 9022   2.063   4.448   3.504
 2999SOL    HW2 9023   1.962   4.558   3.437
 3000SOL     OW 9024   2.475   5.089   2.588
 3000SOL    HW1 9025   2.426   5.002   2.597
 3000SOL    HW2 9026   2.452   5.132   2.501
 3001SOL     OW 9027   3.155   4.952   3.285
 3001SOL    HW1 9028   3.192   4.879   3.227
 3001SOL    HW2 9029   3.207   4.957   3.370
 3002SOL     OW 9030   2.671   3.728   2.364
 3002SOL    HW1 9031   2.711   3.819   2.355
 3002SOL    HW2 9032   2.571   3.736   2.370
 3003SOL     OW 9033   2.059   4.700   3.126
 3003SOL    HW1 9034   2.148   4.655   3.112
 3003SOL    HW2 9035   1.986   4.635   3.107
 3004SOL     OW 9036   3.387   4.723   2.052
 3004SOL    HW1 9037   3.324   4.647   2.065
 3004SOL    HW2 9038   3.435   4.741   2.138
 3005SOL     OW 9039   2.179   3.975   3.663
 3005SOL    HW1 9040   2.250   4.046   3.669
 3005SOL    HW2 9041   2.091   4.014   3.691
 3006SOL     OW 9042   3.328   5.141   2.815
 3006SOL    HW1 9043   3.269   5.147   2.895
 3006SOL    HW2 9044   3.313   5.053   2.769
 3007SOL     OW 9045   2.460   4.453   2.132
 3007SOL    HW1 9046   2.484   4.522   2.064
 3007SOL    HW2 9047   2.382   4.486   2.186
 3008SOL     OW 9048   3.143   4.069   2.806
 3008SOL    HW1 9049   3.057   4.019   2.793
 3008SOL    HW2 9050   3.205   4.015   2.862
 3009SOL     OW 9051   2.669   4.329   3.327
 3009SOL    HW1 9052   2.622   4.326   3.416
 3009SOL    HW2 9053   2.618   4.274   3.261
 3010SOL     OW 9054   3.256   4.193   3.536
 3010SOL    HW1 9055   3.236   4.236   3.624
 3010SOL    HW2 9056   3.334   4.131   3.545
 3011SOL     OW 9057   2.835   4.614   3.434
 3011SOL    HW1 9058   2.881   4.530   3.405
 3011SOL    HW2 9059   2.779   4.648   3.359
 3012SOL     OW 9060   2.853   4.134   3.104
 3012SOL    HW1 9061   2.776   4.168   3.158
 3012SOL    HW2 9062   2.819   4.083   3.025
 3013SOL     OW 9063   2.903   4.425   2.291
 3013SOL    HW1 9064   2.929   4.421   2.387
 3013SOL    HW2 9065   2.818   4.374   2.277
 3014SOL     OW 9066   1.938   4.535   2.651
 3014SOL    HW1 9067   2.037   4.523   2.660
 3014SOL    HW2 9068   1.914   4.630   2.672
 3015SOL     OW 9069   2.727   4.072   2.057
 3015SOL    HW1 9070   2.786   4.135   2.008
 3015SOL    HW2 9071   2.746   3.978   2.028
 3016SOL     OW 9072   3.581   4.309   3.693
 3016SOL    HW1 9073   3.555   4.398   3.657
 3016SOL    HW2 9074   3.579   4.241   3.620
 3017SOL     OW 9075   3.224   4.868   2.407
 3017SOL    HW1 9076   3.307   4.839   2.359
 3017SOL    HW2 9077   3.175   4.935   2.351
 3018SOL     OW 9078   2.412   3.920   2.747
 3018SOL    HW1 9079   2.407   3.915   2.847
 3018SOL    HW2 9080   2.414   4.016   2.718
 3019SOL     OW 9081   3.657   4.790   2.735
 3019SOL    HW1 9082   3.595   4.775   2.659
 3019SOL    HW2 9083   3.605   4.801   2.820
 3020SOL     OW 9084   2.183   4.667   2.104
 3020SOL    HW1 9085   2.265   4.706   2.062
 3020SOL    HW2 9086   2.156   4.585   2.055
 3021SOL     OW 9087   3.320   4.459   2.590
 3021SOL    HW1 9088   3.315   4.394   2.665
 3021SOL    HW2 9089   3.400   4.518   2.603
 3022SOL     OW 9090   2.323   4.990   3.589
 3022SOL    HW1 9091   2.273   4.991   3.503
 3022SOL    HW2 9092   2.260   4.972   3.665
 3023SOL     OW 9093   2.973   5.500   2.099
 3023SOL    HW1 9094   2.913   5.438   2.149
 3023SOL    HW2 9095   3.004   5.456   2.014
 3024SOL     OW 9096   2.064   4.009   3.360
 3024SOL    HW1 9097   1.984   4.069   3.347
 3024SOL    HW2 9098   2.054   3.960   3.446
 3025SOL     OW 9099   3.494   5.101   1.943
 3025SOL    HW1 9100   3.462   5.195   1.933
 3025SOL    HW2 9101   3.418   5.038   1.931
 3026SOL     OW 9102   3.262   3.831   2.288
 3026SOL    HW1 9103   3.238   3.794   2.198
 3026SOL    HW2 9104   3.361   3.847   2.292
 3027SOL     OW 9105   2.244   4.424   2.342
 3027SOL    HW1 9106   2.289   4.334   2.339
 3027SOL    HW2 9107   2.150   4.413   2.375
 3028SOL     OW 9108   3.409   3.946   3.591
 3028SOL    HW1 9109   3.404   3.983   3.683
 3028SOL    HW2 9110   3.337   3.877   3.579
 3029SOL     OW 9111   2.476   3.846   1.979
 3029SOL    HW1 9112   2.574   3.824   1.986
 3029SOL    HW2 9113   2.445   3.829   1.886
 3030SOL     OW 9114   2.643   3.988   3.611
 3030SOL    HW1 9115   2.710   3.927   3.654
 3030SOL    HW2 9116   2.570   4.007   3.676
 3031SOL     OW 9117   3.213   4.314   3.295
 3031SOL    HW1 9118   3.241   4.271   3.380
 3031SOL    HW2 9119   3.238   4.410   3.296
 3032SOL     OW 9120   2.784   4.227   2.761
 3032SOL    HW1 9121   2.759   4.218   2.665
 3032SOL    HW2 9122   2.832   4.145   2.792
 3033SOL     OW 9123   2.401   3.788   2.374
 3033SOL    HW1 9124   2.320   3.789   2.432
 3033SOL    HW2 9125   2.404   3.871   2.319
 3034SOL     OW 9126   3.296   4.912   1.903
 3034SOL    HW1 9127   3.328   4.836   1.960
 3034SOL    HW2 9128   3.204   4.939   1.933
 3035SOL     OW 9129   2.159   3.759   2.033
 3035SOL    HW1 9130   2.208   3.843   2.012
 3035SOL    HW2 9131   2.221   3.694   2.078
 3036SOL     OW 9132   2.797   3.960   2.342
 3036SOL    HW1 9133   2.749   4.001   2.264
 3036SOL    HW2 9134   2.896   3.958   2.323
 3037SOL     OW 9135   2.938   4.407   3.326
 3037SOL    HW1 9136   2.858   4.346   3.329
 3037SOL    HW2 9137   3.019   4.354   3.302
 3038SOL     OW 9138   3.089   5.294   2.655
 3038SOL    HW1 9139   3.110   5.368   2.590
 3038SOL    HW2 9140   3.157   5.294   2.728
 3039SOL     OW 9141   2.321   4.876   2.603
 3039SOL    HW1 9142   2.250   4.849   2.668
 3039SOL    HW2 9143   2.295   4.848   2.510
 3040SOL     OW 9144   2.894   4.273   1.878
 3040SOL    HW1 9145   2.853   4.355   1.839
 3040SOL    HW2 9146   2.958   4.299   1.951
 3041SOL     OW 9147   1.940   4.280   3.248
 3041SOL    HW1 9148   2.032   4.279   3.207
 3041SOL    HW2 9149   1.934   4.354   3.315
 3042SOL     OW 9150   2.423   3.946   3.009
 3042SOL    HW1 9151   2.461   3.862   3.046
 3042SOL    HW2 9152   2.335   3.965   3.053
 3043SOL     OW 9153   2.728   4.178   2.504
 3043SOL    HW1 9154   2.696   4.250   2.442
 3043SOL    HW2 9155   2.752   4.097   2.451
 3044SOL     OW 9156   2.879   3.763   2.615
 3044SOL    HW1 9157   2.807   3.768   2.546
 3044SOL    HW2 9158   2.855   3.694   2.684
 3045SOL     OW 9159   3.291   4.897   2.729
 3045SOL    HW1 9160   3.236   4.813   2.722
 3045SOL    HW2 9161   3.317   4.926   2.637
 3046SOL     OW 9162   3.328   4.314   2.854
 3046SOL    HW1 9163   3.298   4.219   2.861
 3046SOL    HW2 9164   3.401   4.330   2.920
 3047SOL     OW 9165   3.719   4.557   2.239
 3047SOL    HW1 9166   3.761   4.493   2.303
 3047SOL    HW2 9167   3.681   4.506   2.161
 3048SOL     OW 9168   3.526   5.004   2.519
 3048SOL    HW1 9169   3.625   5.012   2.533
 3048SOL    HW2 9170   3.481   5.088   2.550
 3049SOL     OW 9171   3.252   4.299   1.940
 3049SOL    HW1 9172   3.198   4.278   2.021
 3049SOL    HW2 9173   3.343   4.258   1.949
 3050SOL     OW 9174   2.389   3.980   2.190
 3050SOL    HW1 9175   2.416   3.921   2.115
 3050SOL    HW2 9176   2.389   4.075   2.159
 3051SOL     OW 9177   3.616   4.947   3.450
 3051SOL    HW1 9178   3.707   4.908   3.437
 3051SOL    HW2 9179   3.624   5.043   3.474
 3052SOL     OW 9180   2.926   5.071   3.202
 3052SOL    HW1 9181   2.846   5.048   3.257
 3052SOL    HW2 9182   3.009   5.045   3.251
 3053SOL     OW 9183   2.973   4.919   2.962
 3053SOL    HW1 9184   2.933   4.963   3.043
 3053SOL    HW2 9185   2.932   4.956   2.879
 3054SOL     OW 9186   3.500   4.823   2.941
 3054SOL    HW1 9187   3.505   4.904   3.000
 3054SOL    HW2 9188   3.414   4.825   2.890
 3055SOL     OW 9189   2.777   3.813   3.264
 3055SOL    HW1 9190   2.802   3.793   3.169
 3055SOL    HW2 9191   2.849   3.869   3.306
 3056SOL     OW 9192   2.842   4.840   3.581
 3056SOL    HW1 9193   2.743   4.846   3.591
 3056SOL    HW2 9194   2.865   4.760   3.525
 3057SOL     OW 9195   2.567   4.774   2.230
 3057SOL    HW1 9196   2.553   4.781   2.329
 3057SOL    HW2 9197   2.651   4.723   2.212
 3058SOL     OW 9198   2.272   4.537   3.113
 3058SOL    HW1 9199   2.358   4.549   3.163
 3058SOL    HW2 9200   2.230   4.450   3.140
 3059SOL     OW 9201   3.136   4.110   3.124
 3059SOL    HW1 9202   3.157   4.184   3.188
 3059SOL    HW2 9203   3.047   4.127   3.081
 3060SOL     OW 9204   2.229   4.824   2.363
 3060SOL    HW1 9205   2.222   4.907   2.307
 3060SOL    HW2 9206   2.233   4.744   2.303
 3061SOL     OW 9207   2.428   4.261   2.727
 3061SOL    HW1 9208   2.440   4.327   2.653
 3061SOL    HW2 9209   2.474   4.295   2.810
 3062SOL     OW 9210   3.114   5.072   2.250
 3062SOL    HW1 9211   3.164   5.149   2.290
 3062SOL    HW2 9212   3.019   5.074   2.282
 3063SOL     OW 9213   3.134   5.169   3.004
 3063SOL    HW1 9214   3.181   5.182   3.091
 3063SOL    HW2 9215   3.068   5.095   3.013
 3064SOL     OW 9216   3.444   4.363   2.334
 3064SOL    HW1 9217   3.413   4.424   2.407
 3064SOL    HW2 9218   3.494   4.415   2.265
 3065SOL     OW 9219   2.264   4.475   3.460
 3065SOL    HW1 9220   2.332   4.530   3.413
 3065SOL    HW2 9221   2.304   4.387   3.487
 3066SOL     OW 9222   3.449   4.503   3.532
 3066SOL    HW1 9223   3.357   4.541   3.527
 3066SOL    HW2 9224   3.509   4.550   3.467
 3067SOL     OW 9225   2.875   3.829   3.632
 3067SOL    HW1 9226   2.881   3.914   3.580
 3067SOL    HW2 9227   2.907   3.753   3.575
 3068SOL     OW 9228   2.366   3.774   3.602
 3068SOL    HW1 9229   2.324   3.717   3.532
 3068SOL    HW2 9230   2.300   3.843   3.634
 3069SOL     OW 9231   2.435   4.594   2.891
 3069SOL    HW1 9232   2.479   4.683   2.882
 3069SOL    HW2 9233   2.372   4.594   2.968
 3070SOL     OW 9234   3.222   4.586   2.907
 3070SOL    HW1 9235   3.147   4.586   2.841
 3070SOL    HW2 9236   3.259   4.494   2.916
 3071SOL     OW 9237   3.071   4.249   2.137
 3071SOL    HW1 9238   3.084   4.165   2.191
 3071SOL    HW2 9239   3.042   4.323   2.197
 3072SOL     OW 9240   2.169   3.937   3.093
 3072SOL    HW1 9241   2.146   3.974   3.183
 3072SOL    HW2 9242   2.139   3.842   3.087
 3073SOL     OW 9243   1.899   5.034   3.144
 3073SOL    HW1 9244   1.952   4.985   3.212
 3073SOL    HW2 9245   1.921   5.132   3.149
 3074SOL     OW 9246   2.594   4.358   2.926
 3074SOL    HW1 9247   2.653   4.332   2.850
 3074SOL    HW2 9248   2.566   4.454   2.915
 3075SOL     OW 9249   3.590   4.659   3.716
 3075SOL    HW1 9250   3.544   4.652   3.627
 3075SOL    HW2 9251   3.528   4.703   3.782
 3076SOL     OW 9252   2.169   3.787   2.480
 3076SOL    HW1 9253   2.158   3.881   2.513
 3076SOL    HW2 9254   2.164   3.724   2.557
 3077SOL     OW 9255   3.484   4.091   2.236
 3077SOL    HW1 9256   3.486   4.015   2.300
 3077SOL    HW2 9257   3.436   4.168   2.276
 3078SOL     OW 9258   2.885   4.490   2.828
 3078SOL    HW1 9259   2.900   4.511   2.924
 3078SOL    HW2 9260   2.855   4.395   2.819
 3079SOL     OW 9261   3.721   5.242   3.467
 3079SOL    HW1 9262   3.735   5.269   3.372
 3079SOL    HW2 9263   3.804   5.264   3.520
 3080SOL     OW 9264   2.212   4.622   3.666
 3080SOL    HW1 9265   2.288   4.666   3.714
 3080SOL    HW2 9266   2.247   4.575   3.584
 3081SOL     OW 9267   3.402   3.998   1.987
 3081SOL    HW1 9268   3.341   3.923   2.010
 3081SOL    HW2 9269   3.424   4.050   2.070
 3082SOL     OW 9270   3.165   4.562   1.904
 3082SOL    HW1 9271   3.199   4.469   1.919
 3082SOL    HW2 9272   3.183   4.589   1.809
 3083SOL     OW 9273   2.181   4.534   2.811
 3083SOL    HW1 9274   2.274   4.570   2.816
 3083SOL    HW2 9275   2.175   4.449   2.863
 3084SOL     OW 9276   2.201   4.233   2.868
 3084SOL    HW1 9277   2.149   4.150   2.851
 3084SOL    HW2 9278   2.278   4.238   2.804
 3085SOL     OW 9279   3.000   4.104   3.540
 3085SOL    HW1 9280   2.955   4.167   3.604
 3085SOL    HW2 9281   3.093   4.135   3.523
 3086SOL     OW 9282   3.022   3.931   3.339
 3086SOL    HW1 9283   3.022   3.995   3.416
 3086SOL    HW2 9284   3.050   3.979   3.256
 3087SOL     OW 9285   1.870   5.050   2.062
 3087SOL    HW1 9286   1.777   5.071   2.031
 3087SOL    HW2 9287   1.880   4.951   2.075
 3088SOL     OW 9288   2.864   4.520   3.100
 3088SOL    HW1 9289   2.905   4.488   3.186
 3088SOL    HW2 9290   2.768   4.493   3.097
 3089SOL     OW 9291   1.902   4.268   2.976
 3089SOL    HW1 9292   1.987   4.235   2.935
 3089SOL    HW2 9293   1.915   4.283   3.074
 3090SOL     OW 9294   2.051   4.244   3.584
 3090SOL    HW1 9295   2.110   4.204   3.514
 3090SOL    HW2 9296   1.993   4.315   3.543
 3091SOL     OW 9297   3.231   4.674   3.522
 3091SOL    HW1 9298   3.270   4.763   3.542
 3091SOL    HW2 9299   3.241   4.654   3.425
 3092SOL     OW 9300   2.677   4.296   2.187
 3092SOL    HW1 9301   2.684   4.207   2.141
 3092SOL    HW2 9302   2.583   4.330   2.179
 3093SOL     OW 9303   3.519   4.328   3.068
 3093SOL    HW1 9304   3.481   4.259   3.130
 3093SOL    HW2 9305   3.601   4.292   3.024
 3094SOL     OW 9306   2.533   4.188   3.131
 3094SOL    HW1 9307   2.499   4.099   3.101
 3094SOL    HW2 9308   2.559   4.242   3.051
 3095SOL     OW 9309   2.335   4.224   2.053
 3095SOL    HW1 9310   2.396   4.304   2.057
 3095SOL    HW2 9311   2.240   4.255   2.060
 3096SOL     OW 9312   2.021   4.861   3.328
 3096SOL    HW1 9313   2.043   4.800   3.404
 3096SOL    HW2 9314   2.031   4.812   3.242
 3097SOL     OW 9315   3.209   4.783   3.096
 3097SOL    HW1 9316   3.233   4.720   3.022
 3097SOL    HW2 9317   3.119   4.823   3.078
 3098SOL     OW 9318   3.164   4.579   2.171
 3098SOL    HW1 9319   3.078   4.548   2.213
 3098SOL    HW2 9320   3.160   4.565   2.072
 3099SOL     OW 9321   1.945   4.982   2.884
 3099SOL    HW1 9322   1.940   4.981   2.984
 3099SOL    HW2 9323   1.862   4.941   2.846
 3100SOL     OW 9324   3.588   3.859   2.385
 3100SOL    HW1 9325   3.661   3.842   2.318
 3100SOL    HW2 9326   3.557   3.772   2.423
 3101SOL     OW 9327   3.142   4.651   2.534
 3101SOL    HW1 9328   3.202   4.570   2.536
 3101SOL    HW2 9329   3.182   4.720   2.474
 3102SOL     OW 9330   2.692   4.997   3.284
 3102SOL    HW1 9331   2.687   5.030   3.379
 3102SOL    HW2 9332   2.606   5.016   3.238
 3103SOL     OW 9333   3.703   3.899   2.825
 3103SOL    HW1 9334   3.742   3.814   2.789
 3103SOL    HW2 9335   3.605   3.901   2.806
 3104SOL     OW 9336   2.125   4.050   2.582
 3104SOL    HW1 9337   2.046   4.101   2.548
 3104SOL    HW2 9338   2.116   4.035   2.680
 3105SOL     OW 9339   2.684   4.726   3.234
 3105SOL    HW1 9340   2.724   4.725   3.142
 3105SOL    HW2 9341   2.694   4.818   3.274
 3106SOL     OW 9342   2.778   4.634   2.153
 3106SOL    HW1 9343   2.841   4.672   2.085
 3106SOL    HW2 9344   2.818   4.551   2.192
 3107SOL     OW 9345   2.234   5.012   3.352
 3107SOL    HW1 9346   2.221   5.105   3.318
 3107SOL    HW2 9347   2.150   4.960   3.339
 3108SOL     OW 9348   3.476   5.016   3.151
 3108SOL    HW1 9349   3.536   5.019   3.231
 3108SOL    HW2 9350   3.401   5.080   3.164
 3109SOL     OW 9351   2.901   4.822   2.558
 3109SOL    HW1 9352   2.831   4.775   2.612
 3109SOL    HW2 9353   2.960   4.754   2.515
 3110SOL     OW 9354   2.876   3.960   2.833
 3110SOL    HW1 9355   2.868   3.924   2.740
 3110SOL    HW2 9356   2.874   3.884   2.898
 3111SOL     OW 9357   3.571   4.109   3.243
 3111SOL    HW1 9358   3.644   4.178   3.247
 3111SOL    HW2 9359   3.599   4.034   3.184
 3112SOL     OW 9360   1.967   4.737   3.588
 3112SOL    HW1 9361   1.890   4.704   3.642
 3112SOL    HW2 9362   2.052   4.707   3.630
 3113SOL     OW 9363   2.534   3.927   3.351
 3113SOL    HW1 9364   2.624   3.911   3.311
 3113SOL    HW2 9365   2.542   3.932   3.450
 3114SOL     OW 9366   1.937   4.069   1.895
 3114SOL    HW1 9367   1.845   4.041   1.866
 3114SOL    HW2 9368   1.968   4.146   1.839
 3115SOL     OW 9369   3.302   4.580   3.260
 3115SOL    HW1 9370   3.245   4.632   3.197
 3115SOL    HW2 9371   3.398   4.592   3.236
 3116SOL     OW 9372   1.934   3.890   2.180
 3116SOL    HW1 9373   1.917   3.973   2.126
 3116SOL    HW2 9374   2.024   3.853   2.158
 3117SOL     OW 9375   3.045   5.059   1.981
 3117SOL    HW1 9376   2.946   5.048   1.983
 3117SOL    HW2 9377   3.079   5.074   2.074
 3118SOL     OW 9378   2.475   4.566   3.293
 3118SOL    HW1 9379   2.531   4.647   3.276
 3118SOL    HW2 9380   2.534   4.486   3.296
 3119SOL     OW 9381   2.578   4.289   3.570
 3119SOL    HW1 9382   2.597   4.354   3.644
 3119SOL    HW2 9383   2.638   4.209   3.579
 3120SOL     OW 9384   3.312   4.944   3.495
 3120SOL    HW1 9385   3.303   4.934   3.594
 3120SOL    HW2 9386   3.408   4.937   3.469
 3121SOL     OW 9387   3.536   4.607   3.116
 3121SOL    HW1 9388   3.509   4.518   3.079
 3121SOL    HW2 9389   3.537   4.675   3.043
 3122SOL     OW 9390   3.087   4.049   2.311
 3122SOL    HW1 9391   3.152   3.975   2.300
 3122SOL    HW2 9392   3.107   4.099   2.395
 3123SOL     OW 9393   2.456   4.469   2.514
 3123SOL    HW1 9394   2.506   4.554   2.495
 3123SOL    HW2 9395   2.368   4.471   2.466
 3124SOL     OW 9396   3.639   4.066   3.504
 3124SOL    HW1 9397   3.622   4.097   3.410
 3124SOL    HW2 9398   3.555   4.029   3.542
 3125SOL     OW 9399   3.592   4.658   3.379
 3125SOL    HW1 9400   3.630   4.749   3.394
 3125SOL    HW2 9401   3.584   4.641   3.280
 3126SOL     OW 9402   2.721   5.098   1.878
 3126SOL    HW1 9403   2.675   5.113   1.966
 3126SOL    HW2 9404   2.765   5.183   1.848
 3127SOL     OW 9405   2.721   4.680   2.723
 3127SOL    HW1 9406   2.775   4.611   2.771
 3127SOL    HW2 9407   2.689   4.749   2.789
 3128SOL     OW 9408   2.945   4.708   1.949
 3128SOL    HW1 9409   2.922   4.761   1.867
 3128SOL    HW2 9410   3.026   4.652   1.930
 3129SOL     OW 9411   2.083   5.038   3.706
 3129SOL    HW1 9412   2.018   4.965   3.685
 3129SOL    HW2 9413   2.087   5.052   3.804
 3130SOL     OW 9414   1.941   4.964   2.515
 3130SOL    HW1 9415   1.940   4.917   2.603
 3130SOL    HW2 9416   2.023   4.936   2.464
 3131SOL     OW 9417   2.534   5.115   3.486
 3131SOL    HW1 9418   2.456   5.065   3.524
 3131SOL    HW2 9419   2.531   5.210   3.517
 3132SOL     OW 9420   3.686   3.916   3.089
 3132SOL    HW1 9421   3.682   3.826   3.133
 3132SOL    HW2 9422   3.689   3.905   2.990
 3133SOL     OW 9423   2.290   4.148   2.382
 3133SOL    HW1 9424   2.320   4.076   2.320
 3133SOL    HW2 9425   2.251   4.108   2.465
 3134SOL     OW 9426   3.567   5.211   2.966
 3134SOL    HW1 9427   3.474   5.186   2.939
 3134SOL    HW2 9428   3.593   5.161   3.048
 3135SOL     OW 9429   2.179   4.271   3.142
 3135SOL    HW1 9430   2.217   4.212   3.214
 3135SOL    HW2 9431   2.219   4.245   3.054
 3136SOL     OW 9432   3.286   3.938   2.974
 3136SOL    HW1 9433   3.338   3.873   3.029
 3136SOL    HW2 9434   3.237   4.001   3.035
 3137SOL     OW 9435   2.863   3.758   3.016
 3137SOL    HW1 9436   2.800   3.686   2.985
 3137SOL    HW2 9437   2.956   3.722   3.016
 3138SOL     OW 9438   2.632   5.054   2.163
 3138SOL    HW1 9439   2.586   4.967   2.180
 3138SOL    HW2 9440   2.723   5.051   2.204
 3139SOL     OW 9441   3.214   3.776   2.030
 3139SOL    HW1 9442   3.249   3.735   1.946
 3139SOL    HW2 9443   3.124   3.738   2.050
 3140SOL     OW 9444   3.162   4.177   2.553
 3140SOL    HW1 9445   3.103   4.257   2.557
 3140SOL    HW2 9446   3.177   4.142   2.646
 3141SOL     OW 9447   3.455   3.945   2.744
 3141SOL    HW1 9448   3.371   3.944   2.798
 3141SOL    HW2 9449   3.457   4.028   2.688
 3142SOL     OW 9450   1.901   4.801   2.162
 3142SOL    HW1 9451   2.000   4.790   2.153
 3142SOL    HW2 9452   1.861   4.715   2.194
 3143SOL     OW 9453   2.092   4.352   3.837
 3143SOL    HW1 9454   1.999   4.350   3.874
 3143SOL    HW2 9455   2.093   4.313   3.745
 3144SOL     OW 9456   2.087   3.999   4.720
 3144SOL    HW1 9457   2.122   3.982   4.812
 3144SOL    HW2 9458   1.999   3.954   4.708
 3145SOL     OW 9459   1.881   4.092   4.371
 3145SOL    HW1 9460   1.799   4.135   4.410
 3145SOL    HW2 9461   1.853   4.019   4.308
 3146SOL     OW 9462   2.431   4.999   4.889
 3146SOL    HW1 9463   2.338   4.992   4.852
 3146SOL    HW2 9464   2.442   5.088   4.933
 3147SOL     OW 9465   3.417   5.235   4.427
 3147SOL    HW1 9466   3.360   5.219   4.508
 3147SOL    HW2 9467   3.358   5.245   4.347
 3148SOL     OW 9468   2.997   4.427   4.441
 3148SOL    HW1 9469   3.054   4.505   4.416
 3148SOL    HW2 9470   2.937   4.453   4.517
 3149SOL     OW 9471   3.617   4.331   3.955
 3149SOL    HW1 9472   3.605   4.318   3.856
 3149SOL    HW2 9473   3.587   4.250   4.004
 3150SOL     OW 9474   2.630   4.868   4.747
 3150SOL    HW1 9475   2.552   4.885   4.807
 3150SOL    HW2 9476   2.664   4.955   4.711
 3151SOL     OW 9477   2.547   4.736   4.389
 3151SOL    HW1 9478   2.616   4.720   4.459
 3151SOL    HW2 9479   2.474   4.793   4.427
 3152SOL     OW 9480   2.197   5.159   4.785
 3152SOL    HW1 9481   2.119   5.128   4.732
 3152SOL    HW2 9482   2.255   5.217   4.728
 3153SOL     OW 9483   3.322   5.229   5.063
 3153SOL    HW1 9484   3.346   5.323   5.089
 3153SOL    HW2 9485   3.306   5.175   5.145
 3154SOL     OW 9486   2.300   4.116   5.223
 3154SOL    HW1 9487   2.382   4.060   5.232
 3154SOL    HW2 9488   2.219   4.058   5.227
 3155SOL     OW 9489   3.465   4.171   4.461
 3155SOL    HW1 9490   3.391   4.217   4.411
 3155SOL    HW2 9491   3.516   4.239   4.514
 3156SOL     OW 9492   2.093   5.437   4.207
 3156SOL    HW1 9493   2.127   5.514   4.261
 3156SOL    HW2 9494   2.137   5.437   4.117
 3157SOL     OW 9495   2.102   4.815   4.610
 3157SOL    HW1 9496   2.116   4.731   4.662
 3157SOL    HW2 9497   2.047   4.879   4.665
 3158SOL     OW 9498   2.468   4.688   3.847
 3158SOL    HW1 9499   2.475   4.772   3.793
 3158SOL    HW2 9500   2.514   4.701   3.935
 3159SOL     OW 9501   1.984   4.367   4.287
 3159SOL    HW1 9502   1.939   4.279   4.304
 3159SOL    HW2 9503   1.983   4.421   4.371
 3160SOL     OW 9504   3.551   4.646   4.336
 3160SOL    HW1 9505   3.646   4.617   4.344
 3160SOL    HW2 9506   3.543   4.711   4.261
 3161SOL     OW 9507   3.503   4.832   4.156
 3161SOL    HW1 9508   3.589   4.834   4.104
 3161SOL    HW2 9509   3.517   4.879   4.244
 3162SOL     OW 9510   2.475   5.089   4.450
 3162SOL    HW1 9511   2.426   5.002   4.459
 3162SOL    HW2 9512   2.452   5.132   4.363
 3163SOL     OW 9513   2.671   3.728   4.226
 3163SOL    HW1 9514   2.711   3.819   4.217
 3163SOL    HW2 9515   2.571   3.736   4.232
 3164SOL     OW 9516   2.059   4.700   4.988
 3164SOL    HW1 9517   2.148   4.655   4.974
 3164SOL    HW2 9518   1.986   4.635   4.969
 3165SOL     OW 9519   3.387   4.723   3.914
 3165SOL    HW1 9520   3.324   4.647   3.927
 3165SOL    HW2 9521   3.435   4.741   4.000
 3166SOL     OW 9522   3.328   5.141   4.677
 3166SOL    HW1 9523   3.269   5.147   4.757
 3166SOL    HW2 9524   3.313   5.053   4.631
 3167SOL     OW 9525   2.460   4.453   3.994
 3167SOL    HW1 9526   2.484   4.522   3.926
 3167SOL    HW2 9527   2.382   4.486   4.048
 3168SOL     OW 9528   3.143   4.069   4.668
 3168SOL    HW1 9529   3.057   4.019   4.655
 3168SOL    HW2 9530   3.205   4.015   4.724
 3169SOL     OW 9531   2.669   4.329   5.189
 3169SOL    HW1 9532   2.622   4.326   5.278
 3169SOL    HW2 9533   2.618   4.274   5.123
 3170SOL     OW 9534   2.853   4.134   4.966
 3170SOL    HW1 9535   2.776   4.168   5.020
 3170SOL    HW2 9536   2.819   4.083   4.887
 3171SOL     OW 9537   2.903   4.425   4.153
 3171SOL    HW1 9538   2.929   4.421   4.249
 3171SOL    HW2 9539   2.818   4.374   4.139
 3172SOL     OW 9540   1.938   4.535   4.513
 3172SOL    HW1 9541   2.037   4.523   4.522
 3172SOL    HW2 9542   1.914   4.630   4.534
 3173SOL     OW 9543   2.727   4.072   3.919
 3173SOL    HW1 9544   2.786   4.135   3.870
 3173SOL    HW2 9545   2.746   3.978   3.890
 3174SOL     OW 9546   3.224   4.868   4.269
 3174SOL    HW1 9547   3.307   4.839   4.221
 3174SOL    HW2 9548   3.175   4.935   4.213
 3175SOL     OW 9549   2.412   3.920   4.609
 3175SOL    HW1 9550   2.407   3.915   4.709
 3175SOL    HW2 9551   2.414   4.016   4.580
 3176SOL     OW 9552   3.657   4.790   4.597
 3176SOL    HW1 9553   3.595   4.775   4.521
 3176SOL    HW2 9554   3.605   4.801   4.682
 3177SOL     OW 9555   2.183   4.667   3.966
 3177SOL    HW1 9556   2.265   4.706   3.924
 3177SOL    HW2 9557   2.156   4.585   3.917
 3178SOL     OW 9558   3.320   4.459   4.452
 3178SOL    HW1 9559   3.315   4.394   4.527
 3178SOL    HW2 9560   3.400   4.518   4.465
 3179SOL     OW 9561   2.973   5.500   3.961
 3179SOL    HW1 9562   2.913   5.438   4.011
 3179SOL    HW2 9563   3.004   5.456   3.876
 3180SOL     OW 9564   3.494   5.101   3.805
 3180SOL    HW1 9565   3.462   5.195   3.795
 3180SOL    HW2 9566   3.418   5.038   3.793
 3181SOL     OW 9567   3.262   3.831   4.150
 3181SOL    HW1 9568   3.238   3.794   4.060
 3181SOL    HW2 9569   3.361   3.847   4.154
 3182SOL     OW 9570   2.244   4.424   4.204
 3182SOL    HW1 9571   2.289   4.334   4.201
 3182SOL    HW2 9572   2.150   4.413   4.237
 3183SOL     OW 9573   2.476   3.846   3.841
 3183SOL    HW1 9574   2.574   3.824   3.848
 3183SOL    HW2 9575   2.445   3.829   3.748
 3184SOL     OW 9576   2.784   4.227   4.623
 3184SOL    HW1 9577   2.759   4.218   4.527
 3184SOL    HW2 9578   2.832   4.145   4.654
 3185SOL     OW 9579   2.401   3.788   4.236
 3185SOL    HW1 9580   2.320   3.789   4.294
 3185SOL    HW2 9581   2.404   3.871   4.181
 3186SOL     OW 9582   3.296   4.912   3.765
 3186SOL    HW1 9583   3.328   4.836   3.822
 3186SOL    HW2 9584   3.204   4.939   3.795
 3187SOL     OW 9585   2.159   3.759   3.895
 3187SOL    HW1 9586   2.208   3.843   3.874
 3187SOL    HW2 9587   2.221   3.694   3.940
 3188SOL     OW 9588   2.797   3.960   4.204
 3188SOL    HW1 9589   2.749   4.001   4.126
 3188SOL    HW2 9590   2.896   3.958   4.185
 3189SOL     OW 9591   3.089   5.294   4.517
 3189SOL    HW1 9592   3.110   5.368   4.452
 3189SOL    HW2 9593   3.157   5.294   4.590
 3190SOL     OW 9594   2.321   4.876   4.465
 3190SOL    HW1 9595   2.250   4.849   4.530
 3190SOL    HW2 9596   2.295   4.848   4.372
 3191SOL     OW 9597   2.894   4.273   3.740
 3191SOL    HW1 9598   2.853   4.355   3.701
 3191SOL    HW2 9599   2.958   4.299   3.813
 3192SOL     OW 9600   2.423   3.946   4.871
 3192SOL    HW1 9601   2.461   3.862   4.908
 3192SOL    HW2 9602   2.335   3.965   4.915
 3193SOL     OW 9603   2.728   4.178   4.366
 3193SOL    HW1 9604   2.696   4.250   4.304
 3193SOL    HW2 9605   2.752   4.097   4.313
 3194SOL     OW 9606   2.879   3.763   4.477
 3194SOL    HW1 9607   2.807   3.768   4.408
 3194SOL    HW2 9608   2.855   3.694   4.546
 3195SOL     OW 9609   3.291   4.897   4.591
 3195SOL    HW1 9610   3.236   4.813   4.584
 3195SOL    HW2 9611   3.317   4.926   4.499
 3196SOL     OW 9612   3.328   4.314   4.716
 3196SOL    HW1 9613   3.298   4.219   4.723
 3196SOL    HW2 9614   3.401   4.330   4.782
 3197SOL     OW 9615   3.719   4.557   4.101
 3197SOL    HW1 9616   3.761   4.493   4.165
 3197SOL    HW2 9617   3.681   4.506   4.023
 3198SOL     OW 9618   3.526   5.004   4.381
 3198SOL    HW1 9619   3.625   5.012   4.395
 3198SOL    HW2 9620   3.481   5.088   4.412
 3199SOL     OW 9621   3.252   4.299   3.802
 3199SOL    HW1 9622   3.198   4.278   3.883
 3199SOL    HW2 9623   3.343   4.258   3.811
 3200SOL     OW 9624   2.389   3.980   4.052
 3200SOL    HW1 9625   2.416   3.921   3.977
 3200SOL    HW2 9626   2.389   4.075   4.021
 3201SOL     OW 9627   3.616   4.947   5.312
 3201SOL    HW1 9628   3.707   4.908   5.299
 3201SOL    HW2 9629   3.624   5.043   5.336
 3202SOL     OW 9630   2.926   5.071   5.064
 3202SOL    HW1 9631   2.846   5.048   5.119
 3202SOL    HW2 9632   3.009   5.045   5.113
 3203SOL     OW 9633   2.973   4.919   4.824
 3203SOL    HW1 9634   2.933   4.963   4.905
 3203SOL    HW2 9635   2.932   4.956   4.741
 3204SOL     OW 9636   3.500   4.823   4.803
 3204SOL    HW1 9637   3.505   4.904   4.862
 3204SOL    HW2 9638   3.414   4.825   4.752
 3205SOL     OW 9639   2.567   4.774   4.092
 3205SOL    HW1 9640   2.553   4.781   4.191
 3205SOL    HW2 9641   2.651   4.723   4.074
 3206SOL     OW 9642   2.272   4.537   4.975
 3206SOL    HW1 9643   2.358   4.549   5.025
 3206SOL    HW2 9644   2.230   4.450   5.002
 3207SOL     OW 9645   3.136   4.110   4.986
 3207SOL    HW1 9646   3.157   4.184   5.050
 3207SOL    HW2 9647   3.047   4.127   4.943
 3208SOL     OW 9648   2.229   4.824   4.225
 3208SOL    HW1 9649   2.222   4.907   4.169
 3208SOL    HW2 9650   2.233   4.744   4.165
 3209SOL     OW 9651   2.428   4.261   4.589
 3209SOL    HW1 9652   2.440   4.327   4.515
 3209SOL    HW2 9653   2.474   4.295   4.672
 3210SOL     OW 9654   3.114   5.072   4.112
 3210SOL    HW1 9655   3.164   5.149   4.152
 3210SOL    HW2 9656   3.019   5.074   4.144
 3211SOL     OW 9657   3.134   5.169   4.866
 3211SOL    HW1 9658   3.181   5.182   4.953
 3211SOL    HW2 9659   3.068   5.095   4.875
 3212SOL     OW 9660   3.444   4.363   4.196
 3212SOL    HW1 9661   3.413   4.424   4.269
 3212SOL    HW2 9662   3.494   4.415   4.127
 3213SOL     OW 9663   2.366   3.774   5.464
 3213SOL    HW1 9664   2.324   3.717   5.394
 3213SOL    HW2 9665   2.300   3.843   5.496
 3214SOL     OW 9666   2.435   4.594   4.753
 3214SOL    HW1 9667   2.479   4.683   4.744
 3214SOL    HW2 9668   2.372   4.594   4.830
 3215SOL     OW 9669   3.222   4.586   4.769
 3215SOL    HW1 9670   3.147   4.586   4.703
 3215SOL    HW2 9671   3.259   4.494   4.778
 3216SOL     OW 9672   3.071   4.249   3.999
 3216SOL    HW1 9673   3.084   4.165   4.053
 3216SOL    HW2 9674   3.042   4.323   4.059
 3217SOL     OW 9675   2.169   3.937   4.955
 3217SOL    HW1 9676   2.146   3.974   5.045
 3217SOL    HW2 9677   2.139   3.842   4.949
 3218SOL     OW 9678   1.899   5.034   5.006
 3218SOL    HW1 9679   1.952   4.985   5.074
 3218SOL    HW2 9680   1.921   5.132   5.011
 3219SOL     OW 9681   2.594   4.358   4.788
 3219SOL    HW1 9682   2.653   4.332   4.712
 3219SOL    HW2 9683   2.566   4.454   4.777
 3220SOL     OW 9684   2.169   3.787   4.342
 3220SOL    HW1 9685   2.158   3.881   4.375
 3220SOL    HW2 9686   2.164   3.724   4.419
 3221SOL     OW 9687   3.484   4.091   4.098
 3221SOL    HW1 9688   3.486   4.015   4.162
 3221SOL    HW2 9689   3.436   4.168   4.138
 3222SOL     OW 9690   2.885   4.490   4.690
 3222SOL    HW1 9691   2.900   4.511   4.786
 3222SOL    HW2 9692   2.855   4.395   4.681
 3223SOL     OW 9693   3.402   3.998   3.849
 3223SOL    HW1 9694   3.341   3.923   3.872
 3223SOL    HW2 9695   3.424   4.050   3.932
 3224SOL     OW 9696   3.165   4.562   3.766
 3224SOL    HW1 9697   3.199   4.469   3.781
 3224SOL    HW2 9698   3.183   4.589   3.671
 3225SOL     OW 9699   2.181   4.534   4.673
 3225SOL    HW1 9700   2.274   4.570   4.678
 3225SOL    HW2 9701   2.175   4.449   4.725
 3226SOL     OW 9702   2.201   4.233   4.730
 3226SOL    HW1 9703   2.149   4.150   4.713
 3226SOL    HW2 9704   2.278   4.238   4.666
 3227SOL     OW 9705   3.022   3.931   5.201
 3227SOL    HW1 9706   3.022   3.995   5.278
 3227SOL    HW2 9707   3.050   3.979   5.118
 3228SOL     OW 9708   1.870   5.050   3.924
 3228SOL    HW1 9709   1.777   5.071   3.893
 3228SOL    HW2 9710   1.880   4.951   3.937
 3229SOL     OW 9711   2.864   4.520   4.962
 3229SOL    HW1 9712   2.905   4.488   5.048
 3229SOL    HW2 9713   2.768   4.493   4.959
 3230SOL     OW 9714   1.902   4.268   4.838
 3230SOL    HW1 9715   1.987   4.235   4.797
 3230SOL    HW2 9716   1.915   4.283   4.936
 3231SOL     OW 9717   2.677   4.296   4.049
 3231SOL    HW1 9718   2.684   4.207   4.003
 3231SOL    HW2 9719   2.583   4.330   4.041
 3232SOL     OW 9720   3.519   4.328   4.930
 3232SOL    HW1 9721   3.481   4.259   4.992
 3232SOL    HW2 9722   3.601   4.292   4.886
 3233SOL     OW 9723   2.533   4.188   4.993
 3233SOL    HW1 9724   2.499   4.099   4.963
 3233SOL    HW2 9725   2.559   4.242   4.913
 3234SOL     OW 9726   2.335   4.224   3.915
 3234SOL    HW1 9727   2.396   4.304   3.919
 3234SOL    HW2 9728   2.240   4.255   3.922
 3235SOL     OW 9729   2.021   4.861   5.190
 3235SOL    HW1 9730   2.043   4.800   5.266
 3235SOL    HW2 9731   2.031   4.812   5.104
 3236SOL     OW 9732   3.209   4.783   4.958
 3236SOL    HW1 9733   3.233   4.720   4.884
 3236SOL    HW2 9734   3.119   4.823   4.940
 3237SOL     OW 9735   3.164   4.579   4.033
 3237SOL    HW1 9736   3.078   4.548   4.075
 3237SOL    HW2 9737   3.160   4.565   3.934
 3238SOL     OW 9738   1.945   4.982   4.746
 3238SOL    HW1 9739   1.940   4.981   4.846
 3238SOL    HW2 9740   1.862   4.941   4.708
 3239SOL     OW 9741   3.588   3.859   4.247
 3239SOL    HW1 9742   3.661   3.842   4.180
 3239SOL    HW2 9743   3.557   3.772   4.285
 3240SOL     OW 9744   3.142   4.651   4.396
 3240SOL    HW1 9745   3.202   4.570   4.398
 3240SOL    HW2 9746   3.182   4.720   4.336
 3241SOL     OW 9747   2.692   4.997   5.146
 3241SOL    HW1 9748   2.687   5.030   5.241
 3241SOL    HW2 9749   2.606   5.016   5.100
 3242SOL     OW 9750   3.703   3.899   4.687
 3242SOL    HW1 9751   3.742   3.814   4.651
 3242SOL    HW2 9752   3.605   3.901   4.668
 3243SOL     OW 9753   2.125   4.050   4.444
 3243SOL    HW1 9754   2.046   4.101   4.410
 3243SOL    HW2 9755   2.116   4.035   4.542
 3244SOL     OW 9756   2.684   4.726   5.096
 3244SOL    HW1 9757   2.724   4.725   5.004
 3244SOL    HW2 9758   2.694   4.818   5.136
 3245SOL     OW 9759   2.778   4.634   4.015
 3245SOL    HW1 9760   2.841   4.672   3.947
 3245SOL    HW2 9761   2.818   4.551   4.054
 3246SOL     OW 9762   2.234   5.012   5.214
 3246SOL    HW1 9763   2.221   5.105   5.180
 3246SOL    HW2 9764   2.150   4.960   5.201
 3247SOL     OW 9765   3.476   5.016   5.013
 3247SOL    HW1 9766   3.536   5.019   5.093
 3247SOL    HW2 9767   3.401   5.080   5.026
 3248SOL     OW 9768   2.901   4.822   4.420
 3248SOL    HW1 9769   2.831   4.775   4.474
 3248SOL    HW2 9770   2.960   4.754   4.377
 3249SOL     OW 9771   2.876   3.960   4.695
 3249SOL    HW1 9772   2.868   3.924   4.602
 3249SOL    HW2 9773   2.874   3.884   4.760
 3250SOL     OW 9774   3.571   4.109   5.105
 3250SOL    HW1 9775   3.644   4.178   5.109
 3250SOL    HW2 9776   3.599   4.034   5.046
 3251SOL     OW 9777   2.534   3.927   5.213
 3251SOL    HW1 9778   2.624   3.911   5.173
 3251SOL    HW2 9779   2.542   3.932   5.312
 3252SOL     OW 9780   1.937   4.069   3.757
 3252SOL    HW1 9781   1.845   4.041   3.728
 3252SOL    HW2 9782   1.968   4.146   3.701
 3253SOL     OW 9783   1.934   3.890   4.042
 3253SOL    HW1 9784   1.917   3.973   3.988
 3253SOL    HW2 9785   2.024   3.853   4.020
 3254SOL     OW 9786   3.045   5.059   3.843
 3254SOL    HW1 9787   2.946   5.048   3.845
 3254SOL    HW2 9788   3.079   5.074   3.936
 3255SOL     OW 9789   2.475   4.566   5.155
 3255SOL    HW1 9790   2.531   4.647   5.138
 3255SOL    HW2 9791   2.534   4.486   5.158
 3256SOL     OW 9792   3.536   4.607   4.978
 3256SOL    HW1 9793   3.509   4.518   4.941
 3256SOL    HW2 9794   3.537   4.675   4.905
 3257SOL     OW 9795   3.087   4.049   4.173
 3257SOL    HW1 9796   3.152   3.975   4.162
 3257SOL    HW2 9797   3.107   4.099   4.257
 3258SOL     OW 9798   2.456   4.469   4.376
 3258SOL    HW1 9799   2.506   4.554   4.357
 3258SOL    HW2 9800   2.368   4.471   4.328
 3259SOL     OW 9801   3.592   4.658   5.241
 3259SOL    HW1 9802   3.630   4.749   5.256
 3259SOL    HW2 9803   3.584   4.641   5.142
 3260SOL     OW 9804   2.721   5.098   3.740
 3260SOL    HW1 9805   2.675   5.113   3.828
 3260SOL    HW2 9806   2.765   5.183   3.710
 3261SOL     OW 9807   2.721   4.680   4.585
 3261SOL    HW1 9808   2.775   4.611   4.633
 3261SOL    HW2 9809   2.689   4.749   4.651
 3262SOL     OW 9810   2.945   4.708   3.811
 3262SOL    HW1 9811   2.922   4.761   3.729
 3262SOL    HW2 9812   3.026   4.652   3.792
 3263SOL     OW 9813   1.941   4.964   4.377
 3263SOL    HW1 9814   1.940   4.917   4.465
 3263SOL    HW2 9815   2.023   4.936   4.326
 3264SOL     OW 9816   3.686   3.916   4.951
 3264SOL    HW1 9817   3.682   3.826   4.995
 3264SOL    HW2 9818   3.689   3.905   4.852
 3265SOL     OW 9819   2.290   4.148   4.244
 3265SOL    HW1 9820   2.320   4.076   4.182
 3265SOL    HW2 9821   2.251   4.108   4.327
 3266SOL     OW 9822   3.567   5.211   4.828
 3266SOL    HW1 9823   3.474   5.186   4.801
 3266SOL    HW2 9824   3.593   5.161   4.910
 3267SOL     OW 9825   2.179   4.271   5.004
 3267SOL    HW1 9826   2.217   4.212   5.076
 3267SOL    HW2 9827   2.219   4.245   4.916
 3268SOL     OW 9828   3.286   3.938   4.836
 3268SOL    HW1 9829   3.338   3.873   4.891
 3268SOL    HW2 9830   3.237   4.001   4.897
 3269SOL     OW 9831   2.863   3.758   4.878
 3269SOL    HW1 9832   2.800   3.686   4.847
 3269SOL    HW2 9833   2.956   3.722   4.878
 3270SOL     OW 9834   2.632   5.054   4.025
 3270SOL    HW1 9835   2.586   4.967   4.042
 3270SOL    HW2 9836   2.723   5.051   4.066
 3271SOL     OW 9837   3.214   3.776   3.892
 3271SOL    HW1 9838   3.249   3.735   3.808
 3271SOL    HW2 9839   3.124   3.738   3.912
 3272SOL     OW 9840   3.162   4.177   4.415
 3272SOL    HW1 9841   3.103   4.257   4.419
 3272SOL    HW2 9842   3.177   4.142   4.508
 3273SOL     OW 9843   3.455   3.945   4.606
 3273SOL    HW1 9844   3.371   3.944   4.660
 3273SOL    HW2 9845   3.457   4.028   4.550
 3274SOL     OW 9846   1.901   4.801   4.024
 3274SOL    HW1 9847   2.000   4.790   4.015
 3274SOL    HW2 9848   1.861   4.715   4.056
 3275SOL     OW 9849   3.954   0.628   0.113
 3275SOL    HW1 9850   3.861   0.626   0.150
 3275SOL    HW2 9851   3.955   0.589   0.021
 3276SOL     OW 9852   3.949   0.275   0.996
 3276SOL    HW1 9853   3.984   0.258   1.088
 3276SOL    HW2 9854   3.861   0.230   0.984
 3277SOL     OW 9855   3.743   0.368   0.647
 3277SOL    HW1 9856   3.661   0.411   0.686
 3277SOL    HW2 9857   3.715   0.295   0.584
 3278SOL     OW 9858   4.293   1.275   1.165
 3278SOL    HW1 9859   4.200   1.268   1.128
 3278SOL    HW2 9860   4.304   1.364   1.209
 3279SOL     OW 9861   5.279   1.511   0.703
 3279SOL    HW1 9862   5.222   1.495   0.784
 3279SOL    HW2 9863   5.220   1.521   0.623
 3280SOL     OW 9864   4.859   0.703   0.717
 3280SOL    HW1 9865   4.916   0.781   0.692
 3280SOL    HW2 9866   4.799   0.729   0.793
 3281SOL     OW 9867   4.492   1.144   1.023
 3281SOL    HW1 9868   4.414   1.161   1.083
 3281SOL    HW2 9869   4.526   1.231   0.987
 3282SOL     OW 9870   4.574   0.798   1.823
 3282SOL    HW1 9871   4.570   0.874   1.888
 3282SOL    HW2 9872   4.596   0.834   1.732
 3283SOL     OW 9873   4.409   1.012   0.665
 3283SOL    HW1 9874   4.478   0.996   0.735
 3283SOL    HW2 9875   4.336   1.069   0.703
 3284SOL     OW 9876   4.410   1.161   1.803
 3284SOL    HW1 9877   4.470   1.240   1.817
 3284SOL    HW2 9878   4.324   1.192   1.762
 3285SOL     OW 9879   4.059   1.435   1.061
 3285SOL    HW1 9880   3.981   1.404   1.008
 3285SOL    HW2 9881   4.117   1.493   1.004
 3286SOL     OW 9882   4.162   0.392   1.499
 3286SOL    HW1 9883   4.244   0.336   1.508
 3286SOL    HW2 9884   4.081   0.334   1.503
 3287SOL     OW 9885   3.955   1.713   0.483
 3287SOL    HW1 9886   3.989   1.790   0.537
 3287SOL    HW2 9887   3.999   1.713   0.393
 3288SOL     OW 9888   4.851   1.341   1.690
 3288SOL    HW1 9889   4.898   1.341   1.778
 3288SOL    HW2 9890   4.803   1.254   1.679
 3289SOL     OW 9891   3.954   1.434   0.538
 3289SOL    HW1 9892   3.928   1.530   0.538
 3289SOL    HW2 9893   3.883   1.380   0.583
 3290SOL     OW 9894   3.964   1.091   0.886
 3290SOL    HW1 9895   3.978   1.007   0.938
 3290SOL    HW2 9896   3.909   1.155   0.941
 3291SOL     OW 9897   4.344   1.786   1.439
 3291SOL    HW1 9898   4.252   1.769   1.474
 3291SOL    HW2 9899   4.372   1.878   1.465
 3292SOL     OW 9900   4.330   0.964   0.123
 3292SOL    HW1 9901   4.337   1.048   0.069
 3292SOL    HW2 9902   4.376   0.977   0.211
 3293SOL     OW 9903   3.846   0.643   0.563
 3293SOL    HW1 9904   3.801   0.555   0.580
 3293SOL    HW2 9905   3.845   0.697   0.647
 3294SOL     OW 9906   3.751   1.596   0.117
 3294SOL    HW1 9907   3.732   1.500   0.138
 3294SOL    HW2 9908   3.718   1.654   0.192
 3295SOL     OW 9909   5.413   0.922   0.612
 3295SOL    HW1 9910   5.508   0.893   0.620
 3295SOL    HW2 9911   5.405   0.987   0.537
 3296SOL     OW 9912   3.837   0.737   1.597
 3296SOL    HW1 9913   3.925   0.724   1.642
 3296SOL    HW2 9914   3.824   0.834   1.575
 3297SOL     OW 9915   4.337   1.365   0.726
 3297SOL    HW1 9916   4.288   1.278   0.735
 3297SOL    HW2 9917   4.314   1.408   0.639
 3298SOL     OW 9918   5.017   1.228   1.423
 3298SOL    HW1 9919   5.054   1.155   1.365
 3298SOL    HW2 9920   5.069   1.233   1.508
 3299SOL     OW 9921   4.533   0.004   0.502
 3299SOL    HW1 9922   4.573   0.095   0.493
 3299SOL    HW2 9923   4.433   0.012   0.508
 3300SOL     OW 9924   3.921   0.976   1.264
 3300SOL    HW1 9925   4.010   0.931   1.250
 3300SOL    HW2 9926   3.848   0.911   1.245
 3301SOL     OW 9927   4.911   1.792   1.616
 3301SOL    HW1 9928   4.935   1.852   1.540
 3301SOL    HW2 9929   4.918   1.697   1.586
 3302SOL     OW 9930   4.041   0.251   1.801
 3302SOL    HW1 9931   4.112   0.322   1.807
 3302SOL    HW2 9932   3.953   0.290   1.829
 3303SOL     OW 9933   4.322   0.729   0.270
 3303SOL    HW1 9934   4.346   0.798   0.202
 3303SOL    HW2 9935   4.244   0.762   0.324
 3304SOL     OW 9936   5.005   0.345   0.944
 3304SOL    HW1 9937   4.919   0.295   0.931
 3304SOL    HW2 9938   5.067   0.291   1.000
 3305SOL     OW 9939   4.531   0.605   1.465
 3305SOL    HW1 9940   4.484   0.602   1.554
 3305SOL    HW2 9941   4.480   0.550   1.399
 3306SOL     OW 9942   5.118   0.469   1.674
 3306SOL    HW1 9943   5.098   0.512   1.762
 3306SOL    HW2 9944   5.196   0.407   1.683
 3307SOL     OW 9945   4.697   0.890   1.572
 3307SOL    HW1 9946   4.743   0.806   1.543
 3307SOL    HW2 9947   4.641   0.924   1.497
 3308SOL     OW 9948   4.715   0.410   1.242
 3308SOL    HW1 9949   4.638   0.444   1.296
 3308SOL    HW2 9950   4.681   0.359   1.163
 3309SOL     OW 9951   4.765   0.701   0.429
 3309SOL    HW1 9952   4.791   0.697   0.525
 3309SOL    HW2 9953   4.680   0.650   0.415
 3310SOL     OW 9954   3.800   0.811   0.789
 3310SOL    HW1 9955   3.899   0.799   0.798
 3310SOL    HW2 9956   3.776   0.906   0.810
 3311SOL     OW 9957   3.854   1.821   1.571
 3311SOL    HW1 9958   3.844   1.806   1.670
 3311SOL    HW2 9959   3.768   1.857   1.535
 3312SOL     OW 9960   4.589   0.348   0.195
 3312SOL    HW1 9961   4.648   0.411   0.146
 3312SOL    HW2 9962   4.608   0.254   0.166
 3313SOL     OW 9963   5.086   1.144   0.545
 3313SOL    HW1 9964   5.169   1.115   0.497
 3313SOL    HW2 9965   5.037   1.211   0.489
 3314SOL     OW 9966   4.274   0.196   0.885
 3314SOL    HW1 9967   4.269   0.191   0.985
 3314SOL    HW2 9968   4.276   0.292   0.856
 3315SOL     OW 9969   4.732   1.456   0.477
 3315SOL    HW1 9970   4.686   1.528   0.425
 3315SOL    HW2 9971   4.728   1.476   0.575
 3316SOL     OW 9972   4.075   1.801   0.853
 3316SOL    HW1 9973   4.125   1.715   0.859
 3316SOL    HW2 9974   4.140   1.878   0.850
 3317SOL     OW 9975   4.951   1.550   1.506
 3317SOL    HW1 9976   4.957   1.473   1.570
 3317SOL    HW2 9977   4.899   1.524   1.426
 3318SOL     OW 9978   4.045   0.943   0.242
 3318SOL    HW1 9979   4.127   0.982   0.200
 3318SOL    HW2 9980   4.018   0.861   0.193
 3319SOL     OW 9981   4.185   1.266   1.727
 3319SOL    HW1 9982   4.135   1.267   1.641
 3319SOL    HW2 9983   4.122   1.248   1.803
 3320SOL     OW 9984   4.835   1.776   0.237
 3320SOL    HW1 9985   4.775   1.714   0.287
 3320SOL    HW2 9986   4.866   1.732   0.152
 3321SOL     OW 9987   3.926   0.285   1.498
 3321SOL    HW1 9988   3.846   0.345   1.485
 3321SOL    HW2 9989   3.916   0.236   1.584
 3322SOL     OW 9990   5.356   1.377   0.081
 3322SOL    HW1 9991   5.324   1.471   0.071
 3322SOL    HW2 9992   5.280   1.314   0.069
 3323SOL     OW 9993   4.188   1.743   0.323
 3323SOL    HW1 9994   4.221   1.782   0.409
 3323SOL    HW2 9995   4.264   1.736   0.258
 3324SOL     OW 9996   3.973   1.785   1.241
 3324SOL    HW1 9997   4.030   1.720   1.291
 3324SOL    HW2 9998   3.957   1.752   1.148
 3325SOL     OW 9999   4.664   1.698   0.904
 3325SOL    HW110000   4.744   1.641   0.925
 3325SOL    HW210001   4.615   1.658   0.827
 3326SOL     OW10002   4.106   0.700   0.480
 3326SOL    HW110003   4.151   0.610   0.477
 3326SOL    HW210004   4.012   0.689   0.513
 3327SOL     OW10005   4.338   0.122   0.117
 3327SOL    HW110006   4.436   0.100   0.124
 3327SOL    HW210007   4.307   0.105   0.024
 3328SOL     OW10008   4.505   0.264   1.749
 3328SOL    HW110009   4.572   0.203   1.792
 3328SOL    HW210010   4.432   0.283   1.814
 3329SOL     OW10011   4.612   1.514   1.195
 3329SOL    HW110012   4.589   1.489   1.101
 3329SOL    HW210013   4.673   1.445   1.234
 3330SOL     OW10014   5.075   0.590   1.433
 3330SOL    HW110015   5.103   0.547   1.518
 3330SOL    HW210016   5.100   0.686   1.434
 3331SOL     OW10017   4.527   1.402   0.924
 3331SOL    HW110018   4.617   1.416   0.882
 3331SOL    HW210019   4.456   1.404   0.853
 3332SOL     OW10020   4.646   0.503   0.899
 3332SOL    HW110021   4.621   0.494   0.803
 3332SOL    HW210022   4.694   0.421   0.930
 3333SOL     OW10023   4.263   0.064   0.512
 3333SOL    HW110024   4.182   0.065   0.570
 3333SOL    HW210025   4.266   0.147   0.457
 3334SOL     OW10026   5.158   1.188   0.041
 3334SOL    HW110027   5.190   1.112   0.098
 3334SOL    HW210028   5.066   1.215   0.071
 3335SOL     OW10029   4.021   0.035   0.171
 3335SOL    HW110030   4.070   0.119   0.150
 3335SOL    HW210031   4.083  -0.030   0.216
 3336SOL     OW10032   4.659   0.236   0.480
 3336SOL    HW110033   4.611   0.277   0.402
 3336SOL    HW210034   4.758   0.234   0.461
 3337SOL     OW10035   4.800   0.683   1.464
 3337SOL    HW110036   4.720   0.622   1.467
 3337SOL    HW210037   4.881   0.630   1.440
 3338SOL     OW10038   4.951   1.570   0.793
 3338SOL    HW110039   4.972   1.644   0.728
 3338SOL    HW210040   5.019   1.570   0.866
 3339SOL     OW10041   4.183   1.152   0.741
 3339SOL    HW110042   4.112   1.125   0.806
 3339SOL    HW210043   4.157   1.124   0.648
 3340SOL     OW10044   4.995   1.797   0.591
 3340SOL    HW110045   5.039   1.861   0.527
 3340SOL    HW210046   4.945   1.849   0.661
 3341SOL     OW10047   4.756   0.549   0.016
 3341SOL    HW110048   4.715   0.631  -0.023
 3341SOL    HW210049   4.820   0.575   0.089
 3342SOL     OW10050   3.802   0.556   1.386
 3342SOL    HW110051   3.894   0.555   1.345
 3342SOL    HW210052   3.796   0.630   1.453
 3343SOL     OW10053   4.285   0.222   1.147
 3343SOL    HW110054   4.323   0.138   1.184
 3343SOL    HW210055   4.197   0.241   1.191
 3344SOL     OW10056   4.590   0.454   0.642
 3344SOL    HW110057   4.558   0.526   0.580
 3344SOL    HW210058   4.614   0.373   0.589
 3345SOL     OW10059   4.741   0.039   0.753
 3345SOL    HW110060   4.669   0.044   0.684
 3345SOL    HW210061   4.717  -0.030   0.822
 3346SOL     OW10062   4.212   1.385   0.174
 3346SOL    HW110063   4.125   1.370   0.221
 3346SOL    HW210064   4.195   1.411   0.079
 3347SOL     OW10065   5.114   0.575   0.078
 3347SOL    HW110066   5.060   0.554   0.159
 3347SOL    HW210067   5.205   0.534   0.087
 3348SOL     OW10068   4.251   0.256   0.328
 3348SOL    HW110069   4.278   0.197   0.253
 3348SOL    HW210070   4.251   0.351   0.297
 3349SOL     OW10071   4.788   1.347   1.340
 3349SOL    HW110072   4.708   1.324   1.395
 3349SOL    HW210073   4.871   1.321   1.389
 3350SOL     OW10074   4.835   1.195   1.100
 3350SOL    HW110075   4.795   1.239   1.181
 3350SOL    HW210076   4.794   1.232   1.017
 3351SOL     OW10077   4.639   0.089   1.402
 3351SOL    HW110078   4.664   0.069   1.307
 3351SOL    HW210079   4.711   0.145   1.444
 3352SOL     OW10080   4.704   1.116   1.719
 3352SOL    HW110081   4.605   1.122   1.729
 3352SOL    HW210082   4.727   1.036   1.663
 3353SOL     OW10083   4.429   1.050   0.368
 3353SOL    HW110084   4.415   1.057   0.467
 3353SOL    HW210085   4.513   0.999   0.350
 3354SOL     OW10086   4.134   0.813   1.251
 3354SOL    HW110087   4.220   0.825   1.301
 3354SOL    HW210088   4.092   0.726   1.278
 3355SOL     OW10089   4.998   0.386   1.262
 3355SOL    HW110090   5.019   0.460   1.326
 3355SOL    HW210091   4.909   0.403   1.219
 3356SOL     OW10092   3.788   1.564   1.331
 3356SOL    HW110093   3.742   1.646   1.297
 3356SOL    HW210094   3.886   1.583   1.340
 3357SOL     OW10095   4.091   1.100   0.501
 3357SOL    HW110096   4.084   1.183   0.445
 3357SOL    HW210097   4.095   1.020   0.441
 3358SOL     OW10098   4.290   0.537   0.865
 3358SOL    HW110099   4.302   0.603   0.791
 3358SOL    HW210100   4.336   0.571   0.948
 3359SOL     OW10101   4.976   1.348   0.388
 3359SOL    HW110102   5.026   1.425   0.428
 3359SOL    HW210103   4.881   1.350   0.420
 3360SOL     OW10104   4.996   1.445   1.142
 3360SOL    HW110105   5.043   1.458   1.229
 3360SOL    HW210106   4.930   1.371   1.151
 3361SOL     OW10107   4.078   1.510   1.329
 3361SOL    HW110108   4.057   1.466   1.242
 3361SOL    HW210109   4.175   1.536   1.332
 3362SOL     OW10110   4.126   0.751   1.598
 3362SOL    HW110111   4.194   0.806   1.551
 3362SOL    HW210112   4.166   0.663   1.625
 3363SOL     OW10113   4.737   0.105   1.770
 3363SOL    HW110114   4.743   0.190   1.718
 3363SOL    HW210115   4.769   0.029   1.713
 3364SOL     OW10116   4.228   0.050   1.740
 3364SOL    HW110117   4.186  -0.007   1.670
 3364SOL    HW210118   4.162   0.119   1.772
 3365SOL     OW10119   4.297   0.870   1.029
 3365SOL    HW110120   4.341   0.959   1.020
 3365SOL    HW210121   4.234   0.870   1.106
 3366SOL     OW10122   5.084   0.862   1.045
 3366SOL    HW110123   5.009   0.862   0.979
 3366SOL    HW210124   5.121   0.770   1.054
 3367SOL     OW10125   4.933   0.525   0.275
 3367SOL    HW110126   4.946   0.441   0.329
 3367SOL    HW210127   4.904   0.599   0.335
 3368SOL     OW10128   4.031   0.213   1.231
 3368SOL    HW110129   4.008   0.250   1.321
 3368SOL    HW210130   4.001   0.118   1.225
 3369SOL     OW10131   3.761   1.310   1.282
 3369SOL    HW110132   3.814   1.261   1.350
 3369SOL    HW210133   3.783   1.408   1.287
 3370SOL     OW10134   4.456   0.634   1.064
 3370SOL    HW110135   4.515   0.608   0.988
 3370SOL    HW210136   4.428   0.730   1.053
 3371SOL     OW10137   4.031   0.063   0.618
 3371SOL    HW110138   4.020   0.157   0.651
 3371SOL    HW210139   4.026   0.000   0.695
 3372SOL     OW10140   4.747   0.766   0.966
 3372SOL    HW110141   4.762   0.787   1.062
 3372SOL    HW210142   4.717   0.671   0.957
 3373SOL     OW10143   4.704   1.573   1.700
 3373SOL    HW110144   4.684   1.617   1.612
 3373SOL    HW210145   4.743   1.482   1.684
 3374SOL     OW10146   4.074   0.898   1.804
 3374SOL    HW110147   4.150   0.942   1.852
 3374SOL    HW210148   4.109   0.851   1.722
 3375SOL     OW10149   5.027   0.838   0.042
 3375SOL    HW110150   5.061   0.745   0.057
 3375SOL    HW210151   5.045   0.865  -0.053
 3376SOL     OW10152   4.792   1.333   0.849
 3376SOL    HW110153   4.799   1.249   0.794
 3376SOL    HW210154   4.854   1.402   0.813
 3377SOL     OW10155   4.043   0.810   0.949
 3377SOL    HW110156   4.136   0.846   0.954
 3377SOL    HW210157   4.037   0.725   1.001
 3378SOL     OW10158   4.063   0.509   1.006
 3378SOL    HW110159   4.011   0.426   0.989
 3378SOL    HW210160   4.140   0.514   0.942
 3379SOL     OW10161   4.862   0.380   1.678
 3379SOL    HW110162   4.817   0.443   1.742
 3379SOL    HW210163   4.955   0.411   1.661
 3380SOL     OW10164   4.884   0.207   1.477
 3380SOL    HW110165   4.884   0.271   1.554
 3380SOL    HW210166   4.912   0.255   1.394
 3381SOL     OW10167   3.812   1.801   0.927
 3381SOL    HW110168   3.770   1.715   0.900
 3381SOL    HW210169   3.906   1.804   0.893
 3382SOL     OW10170   4.228   1.568   0.910
 3382SOL    HW110171   4.294   1.642   0.919
 3382SOL    HW210172   4.272   1.489   0.868
 3383SOL     OW10173   4.726   0.796   1.238
 3383SOL    HW110174   4.767   0.764   1.324
 3383SOL    HW210175   4.630   0.769   1.235
 3384SOL     OW10176   3.764   0.544   1.114
 3384SOL    HW110177   3.849   0.511   1.073
 3384SOL    HW210178   3.777   0.559   1.212
 3385SOL     OW10179   3.913   0.520   1.722
 3385SOL    HW110180   3.972   0.480   1.652
 3385SOL    HW210181   3.855   0.591   1.681
 3386SOL     OW10182   5.093   0.950   1.660
 3386SOL    HW110183   5.132   1.039   1.680
 3386SOL    HW210184   5.103   0.930   1.563
 3387SOL     OW10185   4.539   0.572   0.325
 3387SOL    HW110186   4.546   0.483   0.279
 3387SOL    HW210187   4.445   0.606   0.317
 3388SOL     OW10188   3.976   1.564   1.744
 3388SOL    HW110189   3.946   1.621   1.820
 3388SOL    HW210190   3.969   1.467   1.770
 3389SOL     OW10191   4.395   0.464   1.269
 3389SOL    HW110192   4.361   0.375   1.239
 3389SOL    HW210193   4.421   0.518   1.189
 3390SOL     OW10194   4.654   1.678   1.465
 3390SOL    HW110195   4.630   1.660   1.370
 3390SOL    HW210196   4.684   1.772   1.475
 3391SOL     OW10197   4.197   0.500   0.191
 3391SOL    HW110198   4.258   0.580   0.195
 3391SOL    HW210199   4.102   0.531   0.198
 3392SOL     OW10200   3.883   1.137   1.466
 3392SOL    HW110201   3.905   1.076   1.542
 3392SOL    HW210202   3.893   1.088   1.380
 3393SOL     OW10203   5.071   1.059   1.234
 3393SOL    HW110204   5.095   0.996   1.160
 3393SOL    HW210205   4.981   1.099   1.216
 3394SOL     OW10206   5.026   0.855   0.309
 3394SOL    HW110207   4.940   0.824   0.351
 3394SOL    HW210208   5.022   0.841   0.210
 3395SOL     OW10209   4.976   1.731   1.128
 3395SOL    HW110210   5.060   1.736   1.074
 3395SOL    HW210211   4.953   1.635   1.146
 3396SOL     OW10212   3.807   1.258   1.022
 3396SOL    HW110213   3.802   1.257   1.122
 3396SOL    HW210214   3.724   1.217   0.984
 3397SOL     OW10215   4.412   1.662   1.716
 3397SOL    HW110216   4.356   1.743   1.725
 3397SOL    HW210217   4.464   1.666   1.630
 3398SOL     OW10218   4.627   0.086   0.133
 3398SOL    HW110219   4.678   0.087   0.047
 3398SOL    HW210220   4.683   0.044   0.204
 3399SOL     OW10221   5.112   1.573   0.477
 3399SOL    HW110222   5.179   1.585   0.403
 3399SOL    HW210223   5.072   1.662   0.500
 3400SOL     OW10224   3.854   1.794   1.851
 3400SOL    HW110225   3.813   1.720   1.904
 3400SOL    HW210226   3.918   1.845   1.909
 3401SOL     OW10227   5.004   0.927   0.672
 3401SOL    HW110228   5.064   0.846   0.674
 3401SOL    HW210229   5.044   0.996   0.612
 3402SOL     OW10230   4.554   1.273   1.422
 3402SOL    HW110231   4.549   1.306   1.517
 3402SOL    HW210232   4.468   1.292   1.376
 3403SOL     OW10233   4.396   1.616   0.154
 3403SOL    HW110234   4.405   1.626   0.055
 3403SOL    HW210235   4.356   1.527   0.175
 3404SOL     OW10236   3.987   0.326   0.720
 3404SOL    HW110237   3.908   0.377   0.686
 3404SOL    HW210238   3.978   0.311   0.818
 3405SOL     OW10239   4.918   1.612   0.031
 3405SOL    HW110240   4.924   1.519   0.068
 3405SOL    HW210241   4.859   1.612  -0.049
 3406SOL     OW10242   4.546   1.002   1.372
 3406SOL    HW110243   4.586   1.001   1.280
 3406SOL    HW210244   4.556   1.094   1.412
 3407SOL     OW10245   4.640   0.910   0.291
 3407SOL    HW110246   4.703   0.948   0.223
 3407SOL    HW210247   4.680   0.827   0.330
 3408SOL     OW10248   4.096   1.288   1.490
 3408SOL    HW110249   4.083   1.381   1.456
 3408SOL    HW210250   4.012   1.236   1.477
 3409SOL     OW10251   4.763   1.098   0.696
 3409SOL    HW110252   4.693   1.051   0.750
 3409SOL    HW210253   4.822   1.030   0.653
 3410SOL     OW10254   4.738   0.236   0.971
 3410SOL    HW110255   4.730   0.200   0.878
 3410SOL    HW210256   4.736   0.160   1.036
 3411SOL     OW10257   4.314   1.487   0.491
 3411SOL    HW110258   4.356   1.429   0.421
 3411SOL    HW210259   4.270   1.566   0.447
 3412SOL     OW10260   3.979   1.348   0.290
 3412SOL    HW110261   3.883   1.349   0.263
 3412SOL    HW210262   3.991   1.401   0.374
 3413SOL     OW10263   3.829   1.013   1.726
 3413SOL    HW110264   3.752   0.980   1.780
 3413SOL    HW210265   3.914   0.983   1.768
 3414SOL     OW10266   4.396   0.203   1.489
 3414SOL    HW110267   4.486   0.187   1.449
 3414SOL    HW210268   4.404   0.208   1.588
 3415SOL     OW10269   3.799   0.345   0.033
 3415SOL    HW110270   3.707   0.317   0.004
 3415SOL    HW210271   3.830   0.422  -0.023
 3416SOL     OW10272   5.164   0.856   1.398
 3416SOL    HW110273   5.107   0.908   1.335
 3416SOL    HW210274   5.260   0.868   1.374
 3417SOL     OW10275   3.796   0.166   0.318
 3417SOL    HW110276   3.779   0.249   0.264
 3417SOL    HW210277   3.886   0.129   0.296
 3418SOL     OW10278   4.907   1.335   0.119
 3418SOL    HW110279   4.808   1.324   0.121
 3418SOL    HW210280   4.941   1.350   0.212
 3419SOL     OW10281   4.337   0.842   1.431
 3419SOL    HW110282   4.393   0.923   1.414
 3419SOL    HW210283   4.396   0.762   1.434
 3420SOL     OW10284   4.440   0.565   1.708
 3420SOL    HW110285   4.459   0.630   1.782
 3420SOL    HW210286   4.500   0.485   1.717
 3421SOL     OW10287   5.174   1.220   1.633
 3421SOL    HW110288   5.165   1.210   1.732
 3421SOL    HW210289   5.270   1.213   1.607
 3422SOL     OW10290   4.114   1.741   1.560
 3422SOL    HW110291   4.023   1.782   1.558
 3422SOL    HW210292   4.107   1.647   1.592
 3423SOL     OW10293   4.949   0.325   0.449
 3423SOL    HW110294   5.014   0.251   0.438
 3423SOL    HW210295   4.969   0.375   0.533
 3424SOL     OW10296   4.318   0.745   0.652
 3424SOL    HW110297   4.368   0.830   0.633
 3424SOL    HW210298   4.230   0.747   0.604
 3425SOL     OW10299   4.583   1.374   0.016
 3425SOL    HW110300   4.537   1.389   0.104
 3425SOL    HW210301   4.627   1.459  -0.014
 3426SOL     OW10302   4.385   1.790   0.953
 3426SOL    HW110303   4.339   1.878   0.940
 3426SOL    HW210304   4.484   1.802   0.946
 3427SOL     OW10305   4.583   0.956   0.861
 3427SOL    HW110306   4.637   0.887   0.909
 3427SOL    HW210307   4.551   1.025   0.927
 3428SOL     OW10308   4.807   0.984   0.087
 3428SOL    HW110309   4.784   1.037   0.005
 3428SOL    HW210310   4.888   0.928   0.068
 3429SOL     OW10311   3.945   1.314   1.844
 3429SOL    HW110312   3.880   1.241   1.823
 3429SOL    HW210313   3.949   1.328   1.942
 3430SOL     OW10314   3.803   1.240   0.653
 3430SOL    HW110315   3.802   1.193   0.741
 3430SOL    HW210316   3.885   1.212   0.602
 3431SOL     OW10317   4.396   1.391   1.624
 3431SOL    HW110318   4.318   1.341   1.662
 3431SOL    HW210319   4.393   1.486   1.655
 3432SOL     OW10320   4.152   0.424   0.520
 3432SOL    HW110321   4.182   0.352   0.458
 3432SOL    HW210322   4.113   0.384   0.603
 3433SOL     OW10323   4.041   0.547   1.280
 3433SOL    HW110324   4.079   0.488   1.352
 3433SOL    HW210325   4.081   0.521   1.192
 3434SOL     OW10326   4.536   1.586   0.687
 3434SOL    HW110327   4.568   1.596   0.593
 3434SOL    HW210328   4.457   1.524   0.689
 3435SOL     OW10329   4.725   0.034   1.154
 3435SOL    HW110330   4.662  -0.038   1.123
 3435SOL    HW210331   4.818  -0.002   1.154
 3436SOL     OW10332   4.494   1.330   0.301
 3436SOL    HW110333   4.448   1.243   0.318
 3436SOL    HW210334   4.585   1.327   0.342
 3437SOL     OW10335   4.342   1.567   1.284
 3437SOL    HW110336   4.337   1.649   1.341
 3437SOL    HW210337   4.431   1.564   1.239
 3438SOL     OW10338   5.076   0.052   0.168
 3438SOL    HW110339   5.111   0.011   0.084
 3438SOL    HW210340   4.986   0.014   0.188
 3439SOL     OW10341   3.763   1.077   0.300
 3439SOL    HW110342   3.862   1.066   0.291
 3439SOL    HW210343   3.723   0.991   0.332
 3440SOL     OW10344   4.599   1.646   0.337
 3440SOL    HW110345   4.522   1.611   0.283
 3440SOL    HW210346   4.567   1.717   0.399
 3441SOL     OW10347   3.954   0.628   1.975
 3441SOL    HW110348   3.861   0.626   2.012
 3441SOL    HW210349   3.955   0.589   1.883
 3442SOL     OW10350   3.949   0.275   2.858
 3442SOL    HW110351   3.984   0.258   2.950
 3442SOL    HW210352   3.861   0.230   2.846
 3443SOL     OW10353   3.743   0.368   2.509
 3443SOL    HW110354   3.661   0.411   2.548
 3443SOL    HW210355   3.715   0.295   2.446
 3444SOL     OW10356   4.293   1.275   3.027
 3444SOL    HW110357   4.200   1.268   2.990
 3444SOL    HW210358   4.304   1.364   3.071
 3445SOL     OW10359   5.279   1.511   2.565
 3445SOL    HW110360   5.222   1.495   2.646
 3445SOL    HW210361   5.220   1.521   2.485
 3446SOL     OW10362   4.859   0.703   2.579
 3446SOL    HW110363   4.916   0.781   2.554
 3446SOL    HW210364   4.799   0.729   2.655
 3447SOL     OW10365   4.492   1.144   2.885
 3447SOL    HW110366   4.414   1.161   2.945
 3447SOL    HW210367   4.526   1.231   2.849
 3448SOL     OW10368   4.574   0.798   3.685
 3448SOL    HW110369   4.570   0.874   3.750
 3448SOL    HW210370   4.596   0.834   3.594
 3449SOL     OW10371   4.409   1.012   2.527
 3449SOL    HW110372   4.478   0.996   2.597
 3449SOL    HW210373   4.336   1.069   2.565
 3450SOL     OW10374   4.410   1.161   3.665
 3450SOL    HW110375   4.470   1.240   3.679
 3450SOL    HW210376   4.324   1.192   3.624
 3451SOL     OW10377   4.059   1.435   2.923
 3451SOL    HW110378   3.981   1.404   2.870
 3451SOL    HW210379   4.117   1.493   2.866
 3452SOL     OW10380   4.162   0.392   3.361
 3452SOL    HW110381   4.244   0.336   3.370
 3452SOL    HW210382   4.081   0.334   3.365
 3453SOL     OW10383   3.955   1.713   2.345
 3453SOL    HW110384   3.989   1.790   2.399
 3453SOL    HW210385   3.999   1.713   2.255
 3454SOL     OW10386   4.851   1.341   3.552
 3454SOL    HW110387   4.898   1.341   3.640
 3454SOL    HW210388   4.803   1.254   3.541
 3455SOL     OW10389   3.954   1.434   2.400
 3455SOL    HW110390   3.928   1.530   2.400
 3455SOL    HW210391   3.883   1.380   2.445
 3456SOL     OW10392   3.964   1.091   2.748
 3456SOL    HW110393   3.978   1.007   2.800
 3456SOL    HW210394   3.909   1.155   2.803
 3457SOL     OW10395   4.344   1.786   3.301
 3457SOL    HW110396   4.252   1.769   3.336
 3457SOL    HW210397   4.372   1.878   3.327
 3458SOL     OW10398   4.330   0.964   1.985
 3458SOL    HW110399   4.337   1.048   1.931
 3458SOL    HW210400   4.376   0.977   2.073
 3459SOL     OW10401   3.846   0.643   2.425
 3459SOL    HW110402   3.801   0.555   2.442
 3459SOL    HW210403   3.845   0.697   2.509
 3460SOL     OW10404   3.751   1.596   1.979
 3460SOL    HW110405   3.732   1.500   2.000
 3460SOL    HW210406   3.718   1.654   2.054
 3461SOL     OW10407   5.413   0.922   2.474
 3461SOL    HW110408   5.508   0.893   2.482
 3461SOL    HW210409   5.405   0.987   2.399
 3462SOL     OW10410   3.837   0.737   3.459
 3462SOL    HW110411   3.925   0.724   3.504
 3462SOL    HW210412   3.824   0.834   3.437
 3463SOL     OW10413   4.337   1.365   2.588
 3463SOL    HW110414   4.288   1.278   2.597
 3463SOL    HW210415   4.314   1.408   2.501
 3464SOL     OW10416   5.017   1.228   3.285
 3464SOL    HW110417   5.054   1.155   3.227
 3464SOL    HW210418   5.069   1.233   3.370
 3465SOL     OW10419   4.533   0.004   2.364
 3465SOL    HW110420   4.573   0.095   2.355
 3465SOL    HW210421   4.433   0.012   2.370
 3466SOL     OW10422   3.921   0.976   3.126
 3466SOL    HW110423   4.010   0.931   3.112
 3466SOL    HW210424   3.848   0.911   3.107
 3467SOL     OW10425   4.911   1.792   3.478
 3467SOL    HW110426   4.935   1.852   3.402
 3467SOL    HW210427   4.918   1.697   3.448
 3468SOL     OW10428   4.041   0.251   3.663
 3468SOL    HW110429   4.112   0.322   3.669
 3468SOL    HW210430   3.953   0.290   3.691
 3469SOL     OW10431   4.322   0.729   2.132
 3469SOL    HW110432   4.346   0.798   2.064
 3469SOL    HW210433   4.244   0.762   2.186
 3470SOL     OW10434   5.005   0.345   2.806
 3470SOL    HW110435   4.919   0.295   2.793
 3470SOL    HW210436   5.067   0.291   2.862
 3471SOL     OW10437   4.531   0.605   3.327
 3471SOL    HW110438   4.484   0.602   3.416
 3471SOL    HW210439   4.480   0.550   3.261
 3472SOL     OW10440   5.118   0.469   3.536
 3472SOL    HW110441   5.098   0.512   3.624
 3472SOL    HW210442   5.196   0.407   3.545
 3473SOL     OW10443   4.697   0.890   3.434
 3473SOL    HW110444   4.743   0.806   3.405
 3473SOL    HW210445   4.641   0.924   3.359
 3474SOL     OW10446   4.715   0.410   3.104
 3474SOL    HW110447   4.638   0.444   3.158
 3474SOL    HW210448   4.681   0.359   3.025
 3475SOL     OW10449   4.765   0.701   2.291
 3475SOL    HW110450   4.791   0.697   2.387
 3475SOL    HW210451   4.680   0.650   2.277
 3476SOL     OW10452   3.800   0.811   2.651
 3476SOL    HW110453   3.899   0.799   2.660
 3476SOL    HW210454   3.776   0.906   2.672
 3477SOL     OW10455   3.854   1.821   3.433
 3477SOL    HW110456   3.844   1.806   3.532
 3477SOL    HW210457   3.768   1.857   3.397
 3478SOL     OW10458   4.589   0.348   2.057
 3478SOL    HW110459   4.648   0.411   2.008
 3478SOL    HW210460   4.608   0.254   2.028
 3479SOL     OW10461   5.086   1.144   2.407
 3479SOL    HW110462   5.169   1.115   2.359
 3479SOL    HW210463   5.037   1.211   2.351
 3480SOL     OW10464   4.274   0.196   2.747
 3480SOL    HW110465   4.269   0.191   2.847
 3480SOL    HW210466   4.276   0.292   2.718
 3481SOL     OW10467   4.732   1.456   2.339
 3481SOL    HW110468   4.686   1.528   2.287
 3481SOL    HW210469   4.728   1.476   2.437
 3482SOL     OW10470   4.075   1.801   2.715
 3482SOL    HW110471   4.125   1.715   2.721
 3482SOL    HW210472   4.140   1.878   2.712
 3483SOL     OW10473   4.951   1.550   3.368
 3483SOL    HW110474   4.957   1.473   3.432
 3483SOL    HW210475   4.899   1.524   3.288
 3484SOL     OW10476   4.045   0.943   2.104
 3484SOL    HW110477   4.127   0.982   2.062
 3484SOL    HW210478   4.018   0.861   2.055
 3485SOL     OW10479   4.185   1.266   3.589
 3485SOL    HW110480   4.135   1.267   3.503
 3485SOL    HW210481   4.122   1.248   3.665
 3486SOL     OW10482   4.835   1.776   2.099
 3486SOL    HW110483   4.775   1.714   2.149
 3486SOL    HW210484   4.866   1.732   2.014
 3487SOL     OW10485   3.926   0.285   3.360
 3487SOL    HW110486   3.846   0.345   3.347
 3487SOL    HW210487   3.916   0.236   3.446
 3488SOL     OW10488   4.188   1.743   2.185
 3488SOL    HW110489   4.221   1.782   2.271
 3488SOL    HW210490   4.264   1.736   2.120
 3489SOL     OW10491   3.973   1.785   3.103
 3489SOL    HW110492   4.030   1.720   3.153
 3489SOL    HW210493   3.957   1.752   3.010
 3490SOL     OW10494   4.664   1.698   2.766
 3490SOL    HW110495   4.744   1.641   2.787
 3490SOL    HW210496   4.615   1.658   2.689
 3491SOL     OW10497   4.106   0.700   2.342
 3491SOL    HW110498   4.151   0.610   2.339
 3491SOL    HW210499   4.012   0.689   2.375
 3492SOL     OW10500   4.338   0.122   1.979
 3492SOL    HW110501   4.436   0.100   1.986
 3492SOL    HW210502   4.307   0.105   1.886
 3493SOL     OW10503   4.505   0.264   3.611
 3493SOL    HW110504   4.572   0.203   3.654
 3493SOL    HW210505   4.432   0.283   3.676
 3494SOL     OW10506   4.612   1.514   3.057
 3494SOL    HW110507   4.589   1.489   2.963
 3494SOL    HW210508   4.673   1.445   3.096
 3495SOL     OW10509   5.075   0.590   3.295
 3495SOL    HW110510   5.103   0.547   3.380
 3495SOL    HW210511   5.100   0.686   3.296
 3496SOL     OW10512   4.527   1.402   2.786
 3496SOL    HW110513   4.617   1.416   2.744
 3496SOL    HW210514   4.456   1.404   2.715
 3497SOL     OW10515   4.646   0.503   2.761
 3497SOL    HW110516   4.621   0.494   2.665
 3497SOL    HW210517   4.694   0.421   2.792
 3498SOL     OW10518   4.263   0.064   2.374
 3498SOL    HW110519   4.182   0.065   2.432
 3498SOL    HW210520   4.266   0.147   2.319
 3499SOL     OW10521   5.158   1.188   1.903
 3499SOL    HW110522   5.190   1.112   1.960
 3499SOL    HW210523   5.066   1.215   1.933
 3500SOL     OW10524   4.021   0.035   2.033
 3500SOL    HW110525   4.070   0.119   2.012
 3500SOL    HW210526   4.083  -0.030   2.078
 3501SOL     OW10527   4.659   0.236   2.342
 3501SOL    HW110528   4.611   0.277   2.264
 3501SOL    HW210529   4.758   0.234   2.323
 3502SOL     OW10530   4.800   0.683   3.326
 3502SOL    HW110531   4.720   0.622   3.329
 3502SOL    HW210532   4.881   0.630   3.302
 3503SOL     OW10533   4.951   1.570   2.655
 3503SOL    HW110534   4.972   1.644   2.590
 3503SOL    HW210535   5.019   1.570   2.728
 3504SOL     OW10536   4.183   1.152   2.603
 3504SOL    HW110537   4.112   1.125   2.668
 3504SOL    HW210538   4.157   1.124   2.510
 3505SOL     OW10539   4.995   1.797   2.453
 3505SOL    HW110540   5.039   1.861   2.389
 3505SOL    HW210541   4.945   1.849   2.523
 3506SOL     OW10542   4.756   0.549   1.878
 3506SOL    HW110543   4.715   0.631   1.839
 3506SOL    HW210544   4.820   0.575   1.951
 3507SOL     OW10545   3.802   0.556   3.248
 3507SOL    HW110546   3.894   0.555   3.207
 3507SOL    HW210547   3.796   0.630   3.315
 3508SOL     OW10548   4.285   0.222   3.009
 3508SOL    HW110549   4.323   0.138   3.046
 3508SOL    HW210550   4.197   0.241   3.053
 3509SOL     OW10551   4.590   0.454   2.504
 3509SOL    HW110552   4.558   0.526   2.442
 3509SOL    HW210553   4.614   0.373   2.451
 3510SOL     OW10554   4.741   0.039   2.615
 3510SOL    HW110555   4.669   0.044   2.546
 3510SOL    HW210556   4.717  -0.030   2.684
 3511SOL     OW10557   4.212   1.385   2.036
 3511SOL    HW110558   4.125   1.370   2.083
 3511SOL    HW210559   4.195   1.411   1.941
 3512SOL     OW10560   5.114   0.575   1.940
 3512SOL    HW110561   5.060   0.554   2.021
 3512SOL    HW210562   5.205   0.534   1.949
 3513SOL     OW10563   4.251   0.256   2.190
 3513SOL    HW110564   4.278   0.197   2.115
 3513SOL    HW210565   4.251   0.351   2.159
 3514SOL     OW10566   4.788   1.347   3.202
 3514SOL    HW110567   4.708   1.324   3.257
 3514SOL    HW210568   4.871   1.321   3.251
 3515SOL     OW10569   4.835   1.195   2.962
 3515SOL    HW110570   4.795   1.239   3.043
 3515SOL    HW210571   4.794   1.232   2.879
 3516SOL     OW10572   4.639   0.089   3.264
 3516SOL    HW110573   4.664   0.069   3.169
 3516SOL    HW210574   4.711   0.145   3.306
 3517SOL     OW10575   4.704   1.116   3.581
 3517SOL    HW110576   4.605   1.122   3.591
 3517SOL    HW210577   4.727   1.036   3.525
 3518SOL     OW10578   4.429   1.050   2.230
 3518SOL    HW110579   4.415   1.057   2.329
 3518SOL    HW210580   4.513   0.999   2.212
 3519SOL     OW10581   4.134   0.813   3.113
 3519SOL    HW110582   4.220   0.825   3.163
 3519SOL    HW210583   4.092   0.726   3.140
 3520SOL     OW10584   4.998   0.386   3.124
 3520SOL    HW110585   5.019   0.460   3.188
 3520SOL    HW210586   4.909   0.403   3.081
 3521SOL     OW10587   3.788   1.564   3.193
 3521SOL    HW110588   3.742   1.646   3.159
 3521SOL    HW210589   3.886   1.583   3.202
 3522SOL     OW10590   4.091   1.100   2.363
 3522SOL    HW110591   4.084   1.183   2.307
 3522SOL    HW210592   4.095   1.020   2.303
 3523SOL     OW10593   4.290   0.537   2.727
 3523SOL    HW110594   4.302   0.603   2.653
 3523SOL    HW210595   4.336   0.571   2.810
 3524SOL     OW10596   4.976   1.348   2.250
 3524SOL    HW110597   5.026   1.425   2.290
 3524SOL    HW210598   4.881   1.350   2.282
 3525SOL     OW10599   4.996   1.445   3.004
 3525SOL    HW110600   5.043   1.458   3.091
 3525SOL    HW210601   4.930   1.371   3.013
 3526SOL     OW10602   4.078   1.510   3.191
 3526SOL    HW110603   4.057   1.466   3.104
 3526SOL    HW210604   4.175   1.536   3.194
 3527SOL     OW10605   4.126   0.751   3.460
 3527SOL    HW110606   4.194   0.806   3.413
 3527SOL    HW210607   4.166   0.663   3.487
 3528SOL     OW10608   4.737   0.105   3.632
 3528SOL    HW110609   4.743   0.190   3.580
 3528SOL    HW210610   4.769   0.029   3.575
 3529SOL     OW10611   4.228   0.050   3.602
 3529SOL    HW110612   4.186  -0.007   3.532
 3529SOL    HW210613   4.162   0.119   3.634
 3530SOL     OW10614   4.297   0.870   2.891
 3530SOL    HW110615   4.341   0.959   2.882
 3530SOL    HW210616   4.234   0.870   2.968
 3531SOL     OW10617   5.084   0.862   2.907
 3531SOL    HW110618   5.009   0.862   2.841
 3531SOL    HW210619   5.121   0.770   2.916
 3532SOL     OW10620   4.933   0.525   2.137
 3532SOL    HW110621   4.946   0.441   2.191
 3532SOL    HW210622   4.904   0.599   2.197
 3533SOL     OW10623   4.031   0.213   3.093
 3533SOL    HW110624   4.008   0.250   3.183
 3533SOL    HW210625   4.001   0.118   3.087
 3534SOL     OW10626   3.761   1.310   3.144
 3534SOL    HW110627   3.814   1.261   3.212
 3534SOL    HW210628   3.783   1.408   3.149
 3535SOL     OW10629   4.456   0.634   2.926
 3535SOL    HW110630   4.515   0.608   2.850
 3535SOL    HW210631   4.428   0.730   2.915
 3536SOL     OW10632   4.031   0.063   2.480
 3536SOL    HW110633   4.020   0.157   2.513
 3536SOL    HW210634   4.026   0.000   2.557
 3537SOL     OW10635   4.747   0.766   2.828
 3537SOL    HW110636   4.762   0.787   2.924
 3537SOL    HW210637   4.717   0.671   2.819
 3538SOL     OW10638   4.704   1.573   3.562
 3538SOL    HW110639   4.684   1.617   3.474
 3538SOL    HW210640   4.743   1.482   3.546
 3539SOL     OW10641   4.074   0.898   3.666
 3539SOL    HW110642   4.150   0.942   3.714
 3539SOL    HW210643   4.109   0.851   3.584
 3540SOL     OW10644   5.027   0.838   1.904
 3540SOL    HW110645   5.061   0.745   1.919
 3540SOL    HW210646   5.045   0.865   1.809
 3541SOL     OW10647   4.792   1.333   2.711
 3541SOL    HW110648   4.799   1.249   2.656
 3541SOL    HW210649   4.854   1.402   2.675
 3542SOL     OW10650   4.043   0.810   2.811
 3542SOL    HW110651   4.136   0.846   2.816
 3542SOL    HW210652   4.037   0.725   2.863
 3543SOL     OW10653   4.063   0.509   2.868
 3543SOL    HW110654   4.011   0.426   2.851
 3543SOL    HW210655   4.140   0.514   2.804
 3544SOL     OW10656   4.862   0.380   3.540
 3544SOL    HW110657   4.817   0.443   3.604
 3544SOL    HW210658   4.955   0.411   3.523
 3545SOL     OW10659   4.884   0.207   3.339
 3545SOL    HW110660   4.884   0.271   3.416
 3545SOL    HW210661   4.912   0.255   3.256
 3546SOL     OW10662   3.732   1.326   2.062
 3546SOL    HW110663   3.639   1.347   2.031
 3546SOL    HW210664   3.742   1.227   2.075
 3547SOL     OW10665   3.812   1.801   2.789
 3547SOL    HW110666   3.770   1.715   2.762
 3547SOL    HW210667   3.906   1.804   2.755
 3548SOL     OW10668   4.228   1.568   2.772
 3548SOL    HW110669   4.294   1.642   2.781
 3548SOL    HW210670   4.272   1.489   2.730
 3549SOL     OW10671   4.726   0.796   3.100
 3549SOL    HW110672   4.767   0.764   3.186
 3549SOL    HW210673   4.630   0.769   3.097
 3550SOL     OW10674   3.764   0.544   2.976
 3550SOL    HW110675   3.849   0.511   2.935
 3550SOL    HW210676   3.777   0.559   3.074
 3551SOL     OW10677   3.913   0.520   3.584
 3551SOL    HW110678   3.972   0.480   3.514
 3551SOL    HW210679   3.855   0.591   3.543
 3552SOL     OW10680   5.093   0.950   3.522
 3552SOL    HW110681   5.132   1.039   3.542
 3552SOL    HW210682   5.103   0.930   3.425
 3553SOL     OW10683   4.539   0.572   2.187
 3553SOL    HW110684   4.546   0.483   2.141
 3553SOL    HW210685   4.445   0.606   2.179
 3554SOL     OW10686   3.976   1.564   3.606
 3554SOL    HW110687   3.946   1.621   3.682
 3554SOL    HW210688   3.969   1.467   3.632
 3555SOL     OW10689   4.395   0.464   3.131
 3555SOL    HW110690   4.361   0.375   3.101
 3555SOL    HW210691   4.421   0.518   3.051
 3556SOL     OW10692   4.654   1.678   3.327
 3556SOL    HW110693   4.630   1.660   3.232
 3556SOL    HW210694   4.684   1.772   3.337
 3557SOL     OW10695   4.197   0.500   2.053
 3557SOL    HW110696   4.258   0.580   2.057
 3557SOL    HW210697   4.102   0.531   2.060
 3558SOL     OW10698   3.883   1.137   3.328
 3558SOL    HW110699   3.905   1.076   3.404
 3558SOL    HW210700   3.893   1.088   3.242
 3559SOL     OW10701   5.071   1.059   3.096
 3559SOL    HW110702   5.095   0.996   3.022
 3559SOL    HW210703   4.981   1.099   3.078
 3560SOL     OW10704   5.026   0.855   2.171
 3560SOL    HW110705   4.940   0.824   2.213
 3560SOL    HW210706   5.022   0.841   2.072
 3561SOL     OW10707   4.976   1.731   2.990
 3561SOL    HW110708   5.060   1.736   2.936
 3561SOL    HW210709   4.953   1.635   3.008
 3562SOL     OW10710   3.807   1.258   2.884
 3562SOL    HW110711   3.802   1.257   2.984
 3562SOL    HW210712   3.724   1.217   2.846
 3563SOL     OW10713   4.412   1.662   3.578
 3563SOL    HW110714   4.356   1.743   3.587
 3563SOL    HW210715   4.464   1.666   3.492
 3564SOL     OW10716   5.112   1.573   2.339
 3564SOL    HW110717   5.179   1.585   2.265
 3564SOL    HW210718   5.072   1.662   2.362
 3565SOL     OW10719   3.854   1.794   3.713
 3565SOL    HW110720   3.813   1.720   3.766
 3565SOL    HW210721   3.918   1.845   3.771
 3566SOL     OW10722   5.004   0.927   2.534
 3566SOL    HW110723   5.064   0.846   2.536
 3566SOL    HW210724   5.044   0.996   2.474
 3567SOL     OW10725   4.554   1.273   3.284
 3567SOL    HW110726   4.549   1.306   3.379
 3567SOL    HW210727   4.468   1.292   3.238
 3568SOL     OW10728   4.396   1.616   2.016
 3568SOL    HW110729   4.405   1.626   1.917
 3568SOL    HW210730   4.356   1.527   2.037
 3569SOL     OW10731   3.987   0.326   2.582
 3569SOL    HW110732   3.908   0.377   2.548
 3569SOL    HW210733   3.978   0.311   2.680
 3570SOL     OW10734   4.918   1.612   1.893
 3570SOL    HW110735   4.924   1.519   1.930
 3570SOL    HW210736   4.859   1.612   1.813
 3571SOL     OW10737   4.546   1.002   3.234
 3571SOL    HW110738   4.586   1.001   3.142
 3571SOL    HW210739   4.556   1.094   3.274
 3572SOL     OW10740   4.640   0.910   2.153
 3572SOL    HW110741   4.703   0.948   2.085
 3572SOL    HW210742   4.680   0.827   2.192
 3573SOL     OW10743   4.096   1.288   3.352
 3573SOL    HW110744   4.083   1.381   3.318
 3573SOL    HW210745   4.012   1.236   3.339
 3574SOL     OW10746   4.763   1.098   2.558
 3574SOL    HW110747   4.693   1.051   2.612
 3574SOL    HW210748   4.822   1.030   2.515
 3575SOL     OW10749   4.738   0.236   2.833
 3575SOL    HW110750   4.730   0.200   2.740
 3575SOL    HW210751   4.736   0.160   2.898
 3576SOL     OW10752   4.314   1.487   2.353
 3576SOL    HW110753   4.356   1.429   2.283
 3576SOL    HW210754   4.270   1.566   2.309
 3577SOL     OW10755   3.979   1.348   2.152
 3577SOL    HW110756   3.883   1.349   2.125
 3577SOL    HW210757   3.991   1.401   2.236
 3578SOL     OW10758   3.829   1.013   3.588
 3578SOL    HW110759   3.752   0.980   3.642
 3578SOL    HW210760   3.914   0.983   3.630
 3579SOL     OW10761   4.396   0.203   3.351
 3579SOL    HW110762   4.486   0.187   3.311
 3579SOL    HW210763   4.404   0.208   3.450
 3580SOL     OW10764   3.799   0.345   1.895
 3580SOL    HW110765   3.707   0.317   1.866
 3580SOL    HW210766   3.830   0.422   1.839
 3581SOL     OW10767   5.164   0.856   3.260
 3581SOL    HW110768   5.107   0.908   3.197
 3581SOL    HW210769   5.260   0.868   3.236
 3582SOL     OW10770   3.796   0.166   2.180
 3582SOL    HW110771   3.779   0.249   2.126
 3582SOL    HW210772   3.886   0.129   2.158
 3583SOL     OW10773   4.907   1.335   1.981
 3583SOL    HW110774   4.808   1.324   1.983
 3583SOL    HW210775   4.941   1.350   2.074
 3584SOL     OW10776   4.337   0.842   3.293
 3584SOL    HW110777   4.393   0.923   3.276
 3584SOL    HW210778   4.396   0.762   3.296
 3585SOL     OW10779   4.440   0.565   3.570
 3585SOL    HW110780   4.459   0.630   3.644
 3585SOL    HW210781   4.500   0.485   3.579
 3586SOL     OW10782   5.174   1.220   3.495
 3586SOL    HW110783   5.165   1.210   3.594
 3586SOL    HW210784   5.270   1.213   3.469
 3587SOL     OW10785   4.114   1.741   3.422
 3587SOL    HW110786   4.023   1.782   3.420
 3587SOL    HW210787   4.107   1.647   3.454
 3588SOL     OW10788   4.949   0.325   2.311
 3588SOL    HW110789   5.014   0.251   2.300
 3588SOL    HW210790   4.969   0.375   2.395
 3589SOL     OW10791   4.318   0.745   2.514
 3589SOL    HW110792   4.368   0.830   2.495
 3589SOL    HW210793   4.230   0.747   2.466
 3590SOL     OW10794   4.583   1.374   1.878
 3590SOL    HW110795   4.537   1.389   1.966
 3590SOL    HW210796   4.627   1.459   1.848
 3591SOL     OW10797   4.385   1.790   2.815
 3591SOL    HW110798   4.339   1.878   2.802
 3591SOL    HW210799   4.484   1.802   2.808
 3592SOL     OW10800   4.583   0.956   2.723
 3592SOL    HW110801   4.637   0.887   2.771
 3592SOL    HW210802   4.551   1.025   2.789
 3593SOL     OW10803   4.807   0.984   1.949
 3593SOL    HW110804   4.784   1.037   1.867
 3593SOL    HW210805   4.888   0.928   1.930
 3594SOL     OW10806   3.945   1.314   3.706
 3594SOL    HW110807   3.880   1.241   3.685
 3594SOL    HW210808   3.949   1.328   3.804
 3595SOL     OW10809   3.803   1.240   2.515
 3595SOL    HW110810   3.802   1.193   2.603
 3595SOL    HW210811   3.885   1.212   2.464
 3596SOL     OW10812   4.396   1.391   3.486
 3596SOL    HW110813   4.318   1.341   3.524
 3596SOL    HW210814   4.393   1.486   3.517
 3597SOL     OW10815   4.152   0.424   2.382
 3597SOL    HW110816   4.182   0.352   2.320
 3597SOL    HW210817   4.113   0.384   2.465
 3598SOL     OW10818   4.041   0.547   3.142
 3598SOL    HW110819   4.079   0.488   3.214
 3598SOL    HW210820   4.081   0.521   3.054
 3599SOL     OW10821   4.536   1.586   2.549
 3599SOL    HW110822   4.568   1.596   2.455
 3599SOL    HW210823   4.457   1.524   2.551
 3600SOL     OW10824   4.725   0.034   3.016
 3600SOL    HW110825   4.662  -0.038   2.985
 3600SOL    HW210826   4.818  -0.002   3.016
 3601SOL     OW10827   4.494   1.330   2.163
 3601SOL    HW110828   4.448   1.243   2.180
 3601SOL    HW210829   4.585   1.327   2.204
 3602SOL     OW10830   4.342   1.567   3.146
 3602SOL    HW110831   4.337   1.649   3.203
 3602SOL    HW210832   4.431   1.564   3.101
 3603SOL     OW10833   5.076   0.052   2.030
 3603SOL    HW110834   5.111   0.011   1.946
 3603SOL    HW210835   4.986   0.014   2.050
 3604SOL     OW10836   3.763   1.077   2.162
 3604SOL    HW110837   3.862   1.066   2.153
 3604SOL    HW210838   3.723   0.991   2.194
 3605SOL     OW10839   4.599   1.646   2.199
 3605SOL    HW110840   4.522   1.611   2.145
 3605SOL    HW210841   4.567   1.717   2.261
 3606SOL     OW10842   3.954   0.628   3.837
 3606SOL    HW110843   3.861   0.626   3.874
 3606SOL    HW210844   3.955   0.589   3.745
 3607SOL     OW10845   3.949   0.275   4.720
 3607SOL    HW110846   3.984   0.258   4.812
 3607SOL    HW210847   3.861   0.230   4.708
 3608SOL     OW10848   3.743   0.368   4.371
 3608SOL    HW110849   3.661   0.411   4.410
 3608SOL    HW210850   3.715   0.295   4.308
 3609SOL     OW10851   4.293   1.275   4.889
 3609SOL    HW110852   4.200   1.268   4.852
 3609SOL    HW210853   4.304   1.364   4.933
 3610SOL     OW10854   5.279   1.511   4.427
 3610SOL    HW110855   5.222   1.495   4.508
 3610SOL    HW210856   5.220   1.521   4.347
 3611SOL     OW10857   4.859   0.703   4.441
 3611SOL    HW110858   4.916   0.781   4.416
 3611SOL    HW210859   4.799   0.729   4.517
 3612SOL     OW10860   4.492   1.144   4.747
 3612SOL    HW110861   4.414   1.161   4.807
 3612SOL    HW210862   4.526   1.231   4.711
 3613SOL     OW10863   4.409   1.012   4.389
 3613SOL    HW110864   4.478   0.996   4.459
 3613SOL    HW210865   4.336   1.069   4.427
 3614SOL     OW10866   4.059   1.435   4.785
 3614SOL    HW110867   3.981   1.404   4.732
 3614SOL    HW210868   4.117   1.493   4.728
 3615SOL     OW10869   4.162   0.392   5.223
 3615SOL    HW110870   4.244   0.336   5.232
 3615SOL    HW210871   4.081   0.334   5.227
 3616SOL     OW10872   3.955   1.713   4.207
 3616SOL    HW110873   3.989   1.790   4.261
 3616SOL    HW210874   3.999   1.713   4.117
 3617SOL     OW10875   3.954   1.434   4.262
 3617SOL    HW110876   3.928   1.530   4.262
 3617SOL    HW210877   3.883   1.380   4.307
 3618SOL     OW10878   3.964   1.091   4.610
 3618SOL    HW110879   3.978   1.007   4.662
 3618SOL    HW210880   3.909   1.155   4.665
 3619SOL     OW10881   4.344   1.786   5.163
 3619SOL    HW110882   4.252   1.769   5.198
 3619SOL    HW210883   4.372   1.878   5.189
 3620SOL     OW10884   4.330   0.964   3.847
 3620SOL    HW110885   4.337   1.048   3.793
 3620SOL    HW210886   4.376   0.977   3.935
 3621SOL     OW10887   3.846   0.643   4.287
 3621SOL    HW110888   3.801   0.555   4.304
 3621SOL    HW210889   3.845   0.697   4.371
 3622SOL     OW10890   3.751   1.596   3.841
 3622SOL    HW110891   3.732   1.500   3.862
 3622SOL    HW210892   3.718   1.654   3.916
 3623SOL     OW10893   5.413   0.922   4.336
 3623SOL    HW110894   5.508   0.893   4.344
 3623SOL    HW210895   5.405   0.987   4.261
 3624SOL     OW10896   4.337   1.365   4.450
 3624SOL    HW110897   4.288   1.278   4.459
 3624SOL    HW210898   4.314   1.408   4.363
 3625SOL     OW10899   4.533   0.004   4.226
 3625SOL    HW110900   4.573   0.095   4.217
 3625SOL    HW210901   4.433   0.012   4.232
 3626SOL     OW10902   3.921   0.976   4.988
 3626SOL    HW110903   4.010   0.931   4.974
 3626SOL    HW210904   3.848   0.911   4.969
 3627SOL     OW10905   4.322   0.729   3.994
 3627SOL    HW110906   4.346   0.798   3.926
 3627SOL    HW210907   4.244   0.762   4.048
 3628SOL     OW10908   5.005   0.345   4.668
 3628SOL    HW110909   4.919   0.295   4.655
 3628SOL    HW210910   5.067   0.291   4.724
 3629SOL     OW10911   4.531   0.605   5.189
 3629SOL    HW110912   4.484   0.602   5.278
 3629SOL    HW210913   4.480   0.550   5.123
 3630SOL     OW10914   4.715   0.410   4.966
 3630SOL    HW110915   4.638   0.444   5.020
 3630SOL    HW210916   4.681   0.359   4.887
 3631SOL     OW10917   4.765   0.701   4.153
 3631SOL    HW110918   4.791   0.697   4.249
 3631SOL    HW210919   4.680   0.650   4.139
 3632SOL     OW10920   3.800   0.811   4.513
 3632SOL    HW110921   3.899   0.799   4.522
 3632SOL    HW210922   3.776   0.906   4.534
 3633SOL     OW10923   3.854   1.821   5.295
 3633SOL    HW110924   3.844   1.806   5.394
 3633SOL    HW210925   3.768   1.857   5.259
 3634SOL     OW10926   4.589   0.348   3.919
 3634SOL    HW110927   4.648   0.411   3.870
 3634SOL    HW210928   4.608   0.254   3.890
 3635SOL     OW10929   5.086   1.144   4.269
 3635SOL    HW110930   5.169   1.115   4.221
 3635SOL    HW210931   5.037   1.211   4.213
 3636SOL     OW10932   4.274   0.196   4.609
 3636SOL    HW110933   4.269   0.191   4.709
 3636SOL    HW210934   4.276   0.292   4.580
 3637SOL     OW10935   4.732   1.456   4.201
 3637SOL    HW110936   4.686   1.528   4.149
 3637SOL    HW210937   4.728   1.476   4.299
 3638SOL     OW10938   4.075   1.801   4.577
 3638SOL    HW110939   4.125   1.715   4.583
 3638SOL    HW210940   4.140   1.878   4.574
 3639SOL     OW10941   4.045   0.943   3.966
 3639SOL    HW110942   4.127   0.982   3.924
 3639SOL    HW210943   4.018   0.861   3.917
 3640SOL     OW10944   4.835   1.776   3.961
 3640SOL    HW110945   4.775   1.714   4.011
 3640SOL    HW210946   4.866   1.732   3.876
 3641SOL     OW10947   4.188   1.743   4.047
 3641SOL    HW110948   4.221   1.782   4.133
 3641SOL    HW210949   4.264   1.736   3.982
 3642SOL     OW10950   3.973   1.785   4.965
 3642SOL    HW110951   4.030   1.720   5.015
 3642SOL    HW210952   3.957   1.752   4.872
 3643SOL     OW10953   4.664   1.698   4.628
 3643SOL    HW110954   4.744   1.641   4.649
 3643SOL    HW210955   4.615   1.658   4.551
 3644SOL     OW10956   4.106   0.700   4.204
 3644SOL    HW110957   4.151   0.610   4.201
 3644SOL    HW210958   4.012   0.689   4.237
 3645SOL     OW10959   4.338   0.122   3.841
 3645SOL    HW110960   4.436   0.100   3.848
 3645SOL    HW210961   4.307   0.105   3.748
 3646SOL     OW10962   4.612   1.514   4.919
 3646SOL    HW110963   4.589   1.489   4.825
 3646SOL    HW210964   4.673   1.445   4.958
 3647SOL     OW10965   4.527   1.402   4.648
 3647SOL    HW110966   4.617   1.416   4.606
 3647SOL    HW210967   4.456   1.404   4.577
 3648SOL     OW10968   4.646   0.503   4.623
 3648SOL    HW110969   4.621   0.494   4.527
 3648SOL    HW210970   4.694   0.421   4.654
 3649SOL     OW10971   4.263   0.064   4.236
 3649SOL    HW110972   4.182   0.065   4.294
 3649SOL    HW210973   4.266   0.147   4.181
 3650SOL     OW10974   5.158   1.188   3.765
 3650SOL    HW110975   5.190   1.112   3.822
 3650SOL    HW210976   5.066   1.215   3.795
 3651SOL     OW10977   4.021   0.035   3.895
 3651SOL    HW110978   4.070   0.119   3.874
 3651SOL    HW210979   4.083  -0.030   3.940
 3652SOL     OW10980   4.659   0.236   4.204
 3652SOL    HW110981   4.611   0.277   4.126
 3652SOL    HW210982   4.758   0.234   4.185
 3653SOL     OW10983   4.951   1.570   4.517
 3653SOL    HW110984   4.972   1.644   4.452
 3653SOL    HW210985   5.019   1.570   4.590
 3654SOL     OW10986   4.183   1.152   4.465
 3654SOL    HW110987   4.112   1.125   4.530
 3654SOL    HW210988   4.157   1.124   4.372
 3655SOL     OW10989   4.995   1.797   4.315
 3655SOL    HW110990   5.039   1.861   4.251
 3655SOL    HW210991   4.945   1.849   4.385
 3656SOL     OW10992   4.756   0.549   3.740
 3656SOL    HW110993   4.715   0.631   3.701
 3656SOL    HW210994   4.820   0.575   3.813
 3657SOL     OW10995   4.285   0.222   4.871
 3657SOL    HW110996   4.323   0.138   4.908
 3657SOL    HW210997   4.197   0.241   4.915
 3658SOL     OW10998   4.590   0.454   4.366
 3658SOL    HW110999   4.558   0.526   4.304
 3658SOL    HW211000   4.614   0.373   4.313
 3659SOL     OW11001   4.741   0.039   4.477
 3659SOL    HW111002   4.669   0.044   4.408
 3659SOL    HW211003   4.717  -0.030   4.546
 3660SOL     OW11004   4.212   1.385   3.898
 3660SOL    HW111005   4.125   1.370   3.945
 3660SOL    HW211006   4.195   1.411   3.803
 3661SOL     OW11007   5.114   0.575   3.802
 3661SOL    HW111008   5.060   0.554   3.883
 3661SOL    HW211009   5.205   0.534   3.811
 3662SOL     OW11010   4.251   0.256   4.052
 3662SOL    HW111011   4.278   0.197   3.977
 3662SOL    HW211012   4.251   0.351   4.021
 3663SOL     OW11013   4.788   1.347   5.064
 3663SOL    HW111014   4.708   1.324   5.119
 3663SOL    HW211015   4.871   1.321   5.113
 3664SOL     OW11016   4.835   1.195   4.824
 3664SOL    HW111017   4.795   1.239   4.905
 3664SOL    HW211018   4.794   1.232   4.741
 3665SOL     OW11019   4.429   1.050   4.092
 3665SOL    HW111020   4.415   1.057   4.191
 3665SOL    HW211021   4.513   0.999   4.074
 3666SOL     OW11022   4.134   0.813   4.975
 3666SOL    HW111023   4.220   0.825   5.025
 3666SOL    HW211024   4.092   0.726   5.002
 3667SOL     OW11025   4.998   0.386   4.986
 3667SOL    HW111026   5.019   0.460   5.050
 3667SOL    HW211027   4.909   0.403   4.943
 3668SOL     OW11028   3.788   1.564   5.055
 3668SOL    HW111029   3.742   1.646   5.021
 3668SOL    HW211030   3.886   1.583   5.064
 3669SOL     OW11031   4.091   1.100   4.225
 3669SOL    HW111032   4.084   1.183   4.169
 3669SOL    HW211033   4.095   1.020   4.165
 3670SOL     OW11034   4.290   0.537   4.589
 3670SOL    HW111035   4.302   0.603   4.515
 3670SOL    HW211036   4.336   0.571   4.672
 3671SOL     OW11037   4.976   1.348   4.112
 3671SOL    HW111038   5.026   1.425   4.152
 3671SOL    HW211039   4.881   1.350   4.144
 3672SOL     OW11040   4.996   1.445   4.866
 3672SOL    HW111041   5.043   1.458   4.953
 3672SOL    HW211042   4.930   1.371   4.875
 3673SOL     OW11043   4.078   1.510   5.053
 3673SOL    HW111044   4.057   1.466   4.966
 3673SOL    HW211045   4.175   1.536   5.056
 3674SOL     OW11046   4.297   0.870   4.753
 3674SOL    HW111047   4.341   0.959   4.744
 3674SOL    HW211048   4.234   0.870   4.830
 3675SOL     OW11049   5.084   0.862   4.769
 3675SOL    HW111050   5.009   0.862   4.703
 3675SOL    HW211051   5.121   0.770   4.778
 3676SOL     OW11052   4.933   0.525   3.999
 3676SOL    HW111053   4.946   0.441   4.053
 3676SOL    HW211054   4.904   0.599   4.059
 3677SOL     OW11055   4.031   0.213   4.955
 3677SOL    HW111056   4.008   0.250   5.045
 3677SOL    HW211057   4.001   0.118   4.949
 3678SOL     OW11058   3.761   1.310   5.006
 3678SOL    HW111059   3.814   1.261   5.074
 3678SOL    HW211060   3.783   1.408   5.011
 3679SOL     OW11061   4.456   0.634   4.788
 3679SOL    HW111062   4.515   0.608   4.712
 3679SOL    HW211063   4.428   0.730   4.777
 3680SOL     OW11064   4.031   0.063   4.342
 3680SOL    HW111065   4.020   0.157   4.375
 3680SOL    HW211066   4.026   0.000   4.419
 3681SOL     OW11067   4.747   0.766   4.690
 3681SOL    HW111068   4.762   0.787   4.786
 3681SOL    HW211069   4.717   0.671   4.681
 3682SOL     OW11070   5.027   0.838   3.766
 3682SOL    HW111071   5.061   0.745   3.781
 3682SOL    HW211072   5.045   0.865   3.671
 3683SOL     OW11073   4.792   1.333   4.573
 3683SOL    HW111074   4.799   1.249   4.518
 3683SOL    HW211075   4.854   1.402   4.537
 3684SOL     OW11076   4.043   0.810   4.673
 3684SOL    HW111077   4.136   0.846   4.678
 3684SOL    HW211078   4.037   0.725   4.725
 3685SOL     OW11079   4.063   0.509   4.730
 3685SOL    HW111080   4.011   0.426   4.713
 3685SOL    HW211081   4.140   0.514   4.666
 3686SOL     OW11082   4.884   0.207   5.201
 3686SOL    HW111083   4.884   0.271   5.278
 3686SOL    HW211084   4.912   0.255   5.118
 3687SOL     OW11085   3.732   1.326   3.924
 3687SOL    HW111086   3.639   1.347   3.893
 3687SOL    HW211087   3.742   1.227   3.937
 3688SOL     OW11088   3.812   1.801   4.651
 3688SOL    HW111089   3.770   1.715   4.624
 3688SOL    HW211090   3.906   1.804   4.617
 3689SOL     OW11091   4.228   1.568   4.634
 3689SOL    HW111092   4.294   1.642   4.643
 3689SOL    HW211093   4.272   1.489   4.592
 3690SOL     OW11094   4.726   0.796   4.962
 3690SOL    HW111095   4.767   0.764   5.048
 3690SOL    HW211096   4.630   0.769   4.959
 3691SOL     OW11097   3.764   0.544   4.838
 3691SOL    HW111098   3.849   0.511   4.797
 3691SOL    HW211099   3.777   0.559   4.936
 3692SOL     OW11100   4.539   0.572   4.049
 3692SOL    HW111101   4.546   0.483   4.003
 3692SOL    HW211102   4.445   0.606   4.041
 3693SOL     OW11103   4.395   0.464   4.993
 3693SOL    HW111104   4.361   0.375   4.963
 3693SOL    HW211105   4.421   0.518   4.913
 3694SOL     OW11106   4.654   1.678   5.189
 3694SOL    HW111107   4.630   1.660   5.094
 3694SOL    HW211108   4.684   1.772   5.199
 3695SOL     OW11109   4.197   0.500   3.915
 3695SOL    HW111110   4.258   0.580   3.919
 3695SOL    HW211111   4.102   0.531   3.922
 3696SOL     OW11112   3.883   1.137   5.190
 3696SOL    HW111113   3.905   1.076   5.266
 3696SOL    HW211114   3.893   1.088   5.104
 3697SOL     OW11115   5.071   1.059   4.958
 3697SOL    HW111116   5.095   0.996   4.884
 3697SOL    HW211117   4.981   1.099   4.940
 3698SOL     OW11118   5.026   0.855   4.033
 3698SOL    HW111119   4.940   0.824   4.075
 3698SOL    HW211120   5.022   0.841   3.934
 3699SOL     OW11121   4.976   1.731   4.852
 3699SOL    HW111122   5.060   1.736   4.798
 3699SOL    HW211123   4.953   1.635   4.870
 3700SOL     OW11124   3.807   1.258   4.746
 3700SOL    HW111125   3.802   1.257   4.846
 3700SOL    HW211126   3.724   1.217   4.708
 3701SOL     OW11127   5.112   1.573   4.201
 3701SOL    HW111128   5.179   1.585   4.127
 3701SOL    HW211129   5.072   1.662   4.224
 3702SOL     OW11130   5.004   0.927   4.396
 3702SOL    HW111131   5.064   0.846   4.398
 3702SOL    HW211132   5.044   0.996   4.336
 3703SOL     OW11133   4.396   1.616   3.878
 3703SOL    HW111134   4.405   1.626   3.779
 3703SOL    HW211135   4.356   1.527   3.899
 3704SOL     OW11136   3.987   0.326   4.444
 3704SOL    HW111137   3.908   0.377   4.410
 3704SOL    HW211138   3.978   0.311   4.542
 3705SOL     OW11139   4.918   1.612   3.755
 3705SOL    HW111140   4.924   1.519   3.792
 3705SOL    HW211141   4.859   1.612   3.675
 3706SOL     OW11142   4.546   1.002   5.096
 3706SOL    HW111143   4.586   1.001   5.004
 3706SOL    HW211144   4.556   1.094   5.136
 3707SOL     OW11145   4.640   0.910   4.015
 3707SOL    HW111146   4.703   0.948   3.947
 3707SOL    HW211147   4.680   0.827   4.054
 3708SOL     OW11148   4.096   1.288   5.214
 3708SOL    HW111149   4.083   1.381   5.180
 3708SOL    HW211150   4.012   1.236   5.201
 3709SOL     OW11151   4.763   1.098   4.420
 3709SOL    HW111152   4.693   1.051   4.474
 3709SOL    HW211153   4.822   1.030   4.377
 3710SOL     OW11154   4.738   0.236   4.695
 3710SOL    HW111155   4.730   0.200   4.602
 3710SOL    HW211156   4.736   0.160   4.760
 3711SOL     OW11157   4.314   1.487   4.215
 3711SOL    HW111158   4.356   1.429   4.145
 3711SOL    HW211159   4.270   1.566   4.171
 3712SOL     OW11160   3.979   1.348   4.014
 3712SOL    HW111161   3.883   1.349   3.987
 3712SOL    HW211162   3.991   1.401   4.098
 3713SOL     OW11163   3.799   0.345   3.757
 3713SOL    HW111164   3.707   0.317   3.728
 3713SOL    HW211165   3.830   0.422   3.701
 3714SOL     OW11166   3.796   0.166   4.042
 3714SOL    HW111167   3.779   0.249   3.988
 3714SOL    HW211168   3.886   0.129   4.020
 3715SOL     OW11169   4.907   1.335   3.843
 3715SOL    HW111170   4.808   1.324   3.845
 3715SOL    HW211171   4.941   1.350   3.936
 3716SOL     OW11172   4.337   0.842   5.155
 3716SOL    HW111173   4.393   0.923   5.138
 3716SOL    HW211174   4.396   0.762   5.158
 3717SOL     OW11175   4.114   1.741   5.284
 3717SOL    HW111176   4.023   1.782   5.282
 3717SOL    HW211177   4.107   1.647   5.316
 3718SOL     OW11178   4.949   0.325   4.173
 3718SOL    HW111179   5.014   0.251   4.162
 3718SOL    HW211180   4.969   0.375   4.257
 3719SOL     OW11181   4.318   0.745   4.376
 3719SOL    HW111182   4.368   0.830   4.357
 3719SOL    HW211183   4.230   0.747   4.328
 3720SOL     OW11184   4.583   1.374   3.740
 3720SOL    HW111185   4.537   1.389   3.828
 3720SOL    HW211186   4.627   1.459   3.710
 3721SOL     OW11187   4.385   1.790   4.677
 3721SOL    HW111188   4.339   1.878   4.664
 3721SOL    HW211189   4.484   1.802   4.670
 3722SOL     OW11190   4.583   0.956   4.585
 3722SOL    HW111191   4.637   0.887   4.633
 3722SOL    HW211192   4.551   1.025   4.651
 3723SOL     OW11193   4.807   0.984   3.811
 3723SOL    HW111194   4.784   1.037   3.729
 3723SOL    HW211195   4.888   0.928   3.792
 3724SOL     OW11196   3.803   1.240   4.377
 3724SOL    HW111197   3.802   1.193   4.465
 3724SOL    HW211198   3.885   1.212   4.326
 3725SOL     OW11199   4.152   0.424   4.244
 3725SOL    HW111200   4.182   0.352   4.182
 3725SOL    HW211201   4.113   0.384   4.327
 3726SOL     OW11202   4.041   0.547   5.004
 3726SOL    HW111203   4.079   0.488   5.076
 3726SOL    HW211204   4.081   0.521   4.916
 3727SOL     OW11205   4.536   1.586   4.411
 3727SOL    HW111206   4.568   1.596   4.317
 3727SOL    HW211207   4.457   1.524   4.413
 3728SOL     OW11208   4.725   0.034   4.878
 3728SOL    HW111209   4.662  -0.038   4.847
 3728SOL    HW211210   4.818  -0.002   4.878
 3729SOL     OW11211   4.494   1.330   4.025
 3729SOL    HW111212   4.448   1.243   4.042
 3729SOL    HW211213   4.585   1.327   4.066
 3730SOL     OW11214   4.342   1.567   5.008
 3730SOL    HW111215   4.337   1.649   5.065
 3730SOL    HW211216   4.431   1.564   4.963
 3731SOL     OW11217   5.076   0.052   3.892
 3731SOL    HW111218   5.111   0.011   3.808
 3731SOL    HW211219   4.986   0.014   3.912
 3732SOL     OW11220   3.763   1.077   4.024
 3732SOL    HW111221   3.862   1.066   4.015
 3732SOL    HW211222   3.723   0.991   4.056
 3733SOL     OW11223   4.599   1.646   4.061
 3733SOL    HW111224   4.522   1.611   4.007
 3733SOL    HW211225   4.567   1.717   4.123
 3734SOL     OW11226   3.954   2.490   0.113
 3734SOL    HW111227   3.861   2.488   0.150
 3734SOL    HW211228   3.955   2.451   0.021
 3735SOL     OW11229   3.949   2.137   0.996
 3735SOL    HW111230   3.984   2.120   1.088
 3735SOL    HW211231   3.861   2.092   0.984
 3736SOL     OW11232   3.743   2.230   0.647
 3736SOL    HW111233   3.661   2.273   0.686
 3736SOL    HW211234   3.715   2.157   0.584
 3737SOL     OW11235   4.293   3.137   1.165
 3737SOL    HW111236   4.200   3.130   1.128
 3737SOL    HW211237   4.304   3.226   1.209
 3738SOL     OW11238   5.279   3.373   0.703
 3738SOL    HW111239   5.222   3.357   0.784
 3738SOL    HW211240   5.220   3.383   0.623
 3739SOL     OW11241   4.859   2.565   0.717
 3739SOL    HW111242   4.916   2.643   0.692
 3739SOL    HW211243   4.799   2.591   0.793
 3740SOL     OW11244   4.492   3.006   1.023
 3740SOL    HW111245   4.414   3.023   1.083
 3740SOL    HW211246   4.526   3.093   0.987
 3741SOL     OW11247   4.574   2.660   1.823
 3741SOL    HW111248   4.570   2.736   1.888
 3741SOL    HW211249   4.596   2.696   1.732
 3742SOL     OW11250   4.409   2.874   0.665
 3742SOL    HW111251   4.478   2.858   0.735
 3742SOL    HW211252   4.336   2.931   0.703
 3743SOL     OW11253   4.410   3.023   1.803
 3743SOL    HW111254   4.470   3.102   1.817
 3743SOL    HW211255   4.324   3.054   1.762
 3744SOL     OW11256   4.059   3.297   1.061
 3744SOL    HW111257   3.981   3.266   1.008
 3744SOL    HW211258   4.117   3.355   1.004
 3745SOL     OW11259   4.162   2.254   1.499
 3745SOL    HW111260   4.244   2.198   1.508
 3745SOL    HW211261   4.081   2.196   1.503
 3746SOL     OW11262   3.955   3.575   0.483
 3746SOL    HW111263   3.989   3.652   0.537
 3746SOL    HW211264   3.999   3.575   0.393
 3747SOL     OW11265   4.851   3.203   1.690
 3747SOL    HW111266   4.898   3.203   1.778
 3747SOL    HW211267   4.803   3.116   1.679
 3748SOL     OW11268   3.954   3.296   0.538
 3748SOL    HW111269   3.928   3.392   0.538
 3748SOL    HW211270   3.883   3.242   0.583
 3749SOL     OW11271   3.964   2.953   0.886
 3749SOL    HW111272   3.978   2.869   0.938
 3749SOL    HW211273   3.909   3.017   0.941
 3750SOL     OW11274   4.344   3.648   1.439
 3750SOL    HW111275   4.252   3.631   1.474
 3750SOL    HW211276   4.372   3.740   1.465
 3751SOL     OW11277   4.330   2.826   0.123
 3751SOL    HW111278   4.337   2.910   0.069
 3751SOL    HW211279   4.376   2.839   0.211
 3752SOL     OW11280   3.846   2.505   0.563
 3752SOL    HW111281   3.801   2.417   0.580
 3752SOL    HW211282   3.845   2.559   0.647
 3753SOL     OW11283   3.751   3.458   0.117
 3753SOL    HW111284   3.732   3.362   0.138
 3753SOL    HW211285   3.718   3.516   0.192
 3754SOL     OW11286   5.413   2.784   0.612
 3754SOL    HW111287   5.508   2.755   0.620
 3754SOL    HW211288   5.405   2.849   0.537
 3755SOL     OW11289   3.837   2.599   1.597
 3755SOL    HW111290   3.925   2.586   1.642
 3755SOL    HW211291   3.824   2.696   1.575
 3756SOL     OW11292   4.337   3.227   0.726
 3756SOL    HW111293   4.288   3.140   0.735
 3756SOL    HW211294   4.314   3.270   0.639
 3757SOL     OW11295   5.017   3.090   1.423
 3757SOL    HW111296   5.054   3.017   1.365
 3757SOL    HW211297   5.069   3.095   1.508
 3758SOL     OW11298   4.533   1.866   0.502
 3758SOL    HW111299   4.573   1.957   0.493
 3758SOL    HW211300   4.433   1.874   0.508
 3759SOL     OW11301   3.921   2.838   1.264
 3759SOL    HW111302   4.010   2.793   1.250
 3759SOL    HW211303   3.848   2.773   1.245
 3760SOL     OW11304   4.911   3.654   1.616
 3760SOL    HW111305   4.935   3.714   1.540
 3760SOL    HW211306   4.918   3.559   1.586
 3761SOL     OW11307   4.041   2.113   1.801
 3761SOL    HW111308   4.112   2.184   1.807
 3761SOL    HW211309   3.953   2.152   1.829
 3762SOL     OW11310   4.322   2.591   0.270
 3762SOL    HW111311   4.346   2.660   0.202
 3762SOL    HW211312   4.244   2.624   0.324
 3763SOL     OW11313   5.005   2.207   0.944
 3763SOL    HW111314   4.919   2.157   0.931
 3763SOL    HW211315   5.067   2.153   1.000
 3764SOL     OW11316   4.531   2.467   1.465
 3764SOL    HW111317   4.484   2.464   1.554
 3764SOL    HW211318   4.480   2.412   1.399
 3765SOL     OW11319   5.118   2.331   1.674
 3765SOL    HW111320   5.098   2.374   1.762
 3765SOL    HW211321   5.196   2.269   1.683
 3766SOL     OW11322   4.697   2.752   1.572
 3766SOL    HW111323   4.743   2.668   1.543
 3766SOL    HW211324   4.641   2.786   1.497
 3767SOL     OW11325   4.715   2.272   1.242
 3767SOL    HW111326   4.638   2.306   1.296
 3767SOL    HW211327   4.681   2.221   1.163
 3768SOL     OW11328   4.765   2.563   0.429
 3768SOL    HW111329   4.791   2.559   0.525
 3768SOL    HW211330   4.680   2.512   0.415
 3769SOL     OW11331   3.800   2.673   0.789
 3769SOL    HW111332   3.899   2.661   0.798
 3769SOL    HW211333   3.776   2.768   0.810
 3770SOL     OW11334   3.854   3.683   1.571
 3770SOL    HW111335   3.844   3.668   1.670
 3770SOL    HW211336   3.768   3.719   1.535
 3771SOL     OW11337   4.589   2.210   0.195
 3771SOL    HW111338   4.648   2.273   0.146
 3771SOL    HW211339   4.608   2.116   0.166
 3772SOL     OW11340   5.086   3.006   0.545
 3772SOL    HW111341   5.169   2.977   0.497
 3772SOL    HW211342   5.037   3.073   0.489
 3773SOL     OW11343   4.274   2.058   0.885
 3773SOL    HW111344   4.269   2.053   0.985
 3773SOL    HW211345   4.276   2.154   0.856
 3774SOL     OW11346   4.732   3.318   0.477
 3774SOL    HW111347   4.686   3.390   0.425
 3774SOL    HW211348   4.728   3.338   0.575
 3775SOL     OW11349   4.075   3.663   0.853
 3775SOL    HW111350   4.125   3.577   0.859
 3775SOL    HW211351   4.140   3.740   0.850
 3776SOL     OW11352   4.951   3.412   1.506
 3776SOL    HW111353   4.957   3.335   1.570
 3776SOL    HW211354   4.899   3.386   1.426
 3777SOL     OW11355   4.045   2.805   0.242
 3777SOL    HW111356   4.127   2.844   0.200
 3777SOL    HW211357   4.018   2.723   0.193
 3778SOL     OW11358   4.185   3.128   1.727
 3778SOL    HW111359   4.135   3.129   1.641
 3778SOL    HW211360   4.122   3.110   1.803
 3779SOL     OW11361   4.835   3.638   0.237
 3779SOL    HW111362   4.775   3.576   0.287
 3779SOL    HW211363   4.866   3.594   0.152
 3780SOL     OW11364   3.926   2.147   1.498
 3780SOL    HW111365   3.846   2.207   1.485
 3780SOL    HW211366   3.916   2.098   1.584
 3781SOL     OW11367   5.356   3.239   0.081
 3781SOL    HW111368   5.324   3.333   0.071
 3781SOL    HW211369   5.280   3.176   0.069
 3782SOL     OW11370   4.188   3.605   0.323
 3782SOL    HW111371   4.221   3.644   0.409
 3782SOL    HW211372   4.264   3.598   0.258
 3783SOL     OW11373   3.973   3.647   1.241
 3783SOL    HW111374   4.030   3.582   1.291
 3783SOL    HW211375   3.957   3.614   1.148
 3784SOL     OW11376   4.664   3.560   0.904
 3784SOL    HW111377   4.744   3.503   0.925
 3784SOL    HW211378   4.615   3.520   0.827
 3785SOL     OW11379   4.106   2.562   0.480
 3785SOL    HW111380   4.151   2.472   0.477
 3785SOL    HW211381   4.012   2.551   0.513
 3786SOL     OW11382   4.505   2.126   1.749
 3786SOL    HW111383   4.572   2.065   1.792
 3786SOL    HW211384   4.432   2.145   1.814
 3787SOL     OW11385   4.612   3.376   1.195
 3787SOL    HW111386   4.589   3.351   1.101
 3787SOL    HW211387   4.673   3.307   1.234
 3788SOL     OW11388   5.075   2.452   1.433
 3788SOL    HW111389   5.103   2.409   1.518
 3788SOL    HW211390   5.100   2.548   1.434
 3789SOL     OW11391   4.527   3.264   0.924
 3789SOL    HW111392   4.617   3.278   0.882
 3789SOL    HW211393   4.456   3.266   0.853
 3790SOL     OW11394   4.646   2.365   0.899
 3790SOL    HW111395   4.621   2.356   0.803
 3790SOL    HW211396   4.694   2.283   0.930
 3791SOL     OW11397   4.263   1.926   0.512
 3791SOL    HW111398   4.182   1.927   0.570
 3791SOL    HW211399   4.266   2.009   0.457
 3792SOL     OW11400   5.158   3.050   0.041
 3792SOL    HW111401   5.190   2.974   0.098
 3792SOL    HW211402   5.066   3.077   0.071
 3793SOL     OW11403   4.659   2.098   0.480
 3793SOL    HW111404   4.611   2.139   0.402
 3793SOL    HW211405   4.758   2.096   0.461
 3794SOL     OW11406   4.800   2.545   1.464
 3794SOL    HW111407   4.720   2.484   1.467
 3794SOL    HW211408   4.881   2.492   1.440
 3795SOL     OW11409   4.951   3.432   0.793
 3795SOL    HW111410   4.972   3.506   0.728
 3795SOL    HW211411   5.019   3.432   0.866
 3796SOL     OW11412   4.183   3.014   0.741
 3796SOL    HW111413   4.112   2.987   0.806
 3796SOL    HW211414   4.157   2.986   0.648
 3797SOL     OW11415   4.995   3.659   0.591
 3797SOL    HW111416   5.039   3.723   0.527
 3797SOL    HW211417   4.945   3.711   0.661
 3798SOL     OW11418   4.756   2.411   0.016
 3798SOL    HW111419   4.715   2.493  -0.023
 3798SOL    HW211420   4.820   2.437   0.089
 3799SOL     OW11421   3.802   2.418   1.386
 3799SOL    HW111422   3.894   2.417   1.345
 3799SOL    HW211423   3.796   2.492   1.453
 3800SOL     OW11424   4.285   2.084   1.147
 3800SOL    HW111425   4.323   2.000   1.184
 3800SOL    HW211426   4.197   2.103   1.191
 3801SOL     OW11427   4.590   2.316   0.642
 3801SOL    HW111428   4.558   2.388   0.580
 3801SOL    HW211429   4.614   2.235   0.589
 3802SOL     OW11430   4.741   1.901   0.753
 3802SOL    HW111431   4.669   1.906   0.684
 3802SOL    HW211432   4.717   1.832   0.822
 3803SOL     OW11433   4.212   3.247   0.174
 3803SOL    HW111434   4.125   3.232   0.221
 3803SOL    HW211435   4.195   3.273   0.079
 3804SOL     OW11436   5.114   2.437   0.078
 3804SOL    HW111437   5.060   2.416   0.159
 3804SOL    HW211438   5.205   2.396   0.087
 3805SOL     OW11439   4.251   2.118   0.328
 3805SOL    HW111440   4.278   2.059   0.253
 3805SOL    HW211441   4.251   2.213   0.297
 3806SOL     OW11442   4.788   3.209   1.340
 3806SOL    HW111443   4.708   3.186   1.395
 3806SOL    HW211444   4.871   3.183   1.389
 3807SOL     OW11445   4.835   3.057   1.100
 3807SOL    HW111446   4.795   3.101   1.181
 3807SOL    HW211447   4.794   3.094   1.017
 3808SOL     OW11448   4.639   1.951   1.402
 3808SOL    HW111449   4.664   1.931   1.307
 3808SOL    HW211450   4.711   2.007   1.444
 3809SOL     OW11451   4.704   2.978   1.719
 3809SOL    HW111452   4.605   2.984   1.729
 3809SOL    HW211453   4.727   2.898   1.663
 3810SOL     OW11454   4.429   2.912   0.368
 3810SOL    HW111455   4.415   2.919   0.467
 3810SOL    HW211456   4.513   2.861   0.350
 3811SOL     OW11457   4.134   2.675   1.251
 3811SOL    HW111458   4.220   2.687   1.301
 3811SOL    HW211459   4.092   2.588   1.278
 3812SOL     OW11460   4.998   2.248   1.262
 3812SOL    HW111461   5.019   2.322   1.326
 3812SOL    HW211462   4.909   2.265   1.219
 3813SOL     OW11463   3.788   3.426   1.331
 3813SOL    HW111464   3.742   3.508   1.297
 3813SOL    HW211465   3.886   3.445   1.340
 3814SOL     OW11466   4.091   2.962   0.501
 3814SOL    HW111467   4.084   3.045   0.445
 3814SOL    HW211468   4.095   2.882   0.441
 3815SOL     OW11469   4.290   2.399   0.865
 3815SOL    HW111470   4.302   2.465   0.791
 3815SOL    HW211471   4.336   2.433   0.948
 3816SOL     OW11472   4.976   3.210   0.388
 3816SOL    HW111473   5.026   3.287   0.428
 3816SOL    HW211474   4.881   3.212   0.420
 3817SOL     OW11475   4.996   3.307   1.142
 3817SOL    HW111476   5.043   3.320   1.229
 3817SOL    HW211477   4.930   3.233   1.151
 3818SOL     OW11478   4.078   3.372   1.329
 3818SOL    HW111479   4.057   3.328   1.242
 3818SOL    HW211480   4.175   3.398   1.332
 3819SOL     OW11481   4.126   2.613   1.598
 3819SOL    HW111482   4.194   2.668   1.551
 3819SOL    HW211483   4.166   2.525   1.625
 3820SOL     OW11484   4.737   1.967   1.770
 3820SOL    HW111485   4.743   2.052   1.718
 3820SOL    HW211486   4.769   1.891   1.713
 3821SOL     OW11487   4.228   1.912   1.740
 3821SOL    HW111488   4.186   1.855   1.670
 3821SOL    HW211489   4.162   1.981   1.772
 3822SOL     OW11490   4.297   2.732   1.029
 3822SOL    HW111491   4.341   2.821   1.020
 3822SOL    HW211492   4.234   2.732   1.106
 3823SOL     OW11493   5.084   2.724   1.045
 3823SOL    HW111494   5.009   2.724   0.979
 3823SOL    HW211495   5.121   2.632   1.054
 3824SOL     OW11496   4.933   2.387   0.275
 3824SOL    HW111497   4.946   2.303   0.329
 3824SOL    HW211498   4.904   2.461   0.335
 3825SOL     OW11499   4.031   2.075   1.231
 3825SOL    HW111500   4.008   2.112   1.321
 3825SOL    HW211501   4.001   1.980   1.225
 3826SOL     OW11502   3.761   3.172   1.282
 3826SOL    HW111503   3.814   3.123   1.350
 3826SOL    HW211504   3.783   3.270   1.287
 3827SOL     OW11505   4.456   2.496   1.064
 3827SOL    HW111506   4.515   2.470   0.988
 3827SOL    HW211507   4.428   2.592   1.053
 3828SOL     OW11508   4.031   1.925   0.618
 3828SOL    HW111509   4.020   2.019   0.651
 3828SOL    HW211510   4.026   1.862   0.695
 3829SOL     OW11511   5.346   2.229   0.374
 3829SOL    HW111512   5.348   2.153   0.438
 3829SOL    HW211513   5.298   2.306   0.414
 3830SOL     OW11514   4.747   2.628   0.966
 3830SOL    HW111515   4.762   2.649   1.062
 3830SOL    HW211516   4.717   2.533   0.957
 3831SOL     OW11517   4.704   3.435   1.700
 3831SOL    HW111518   4.684   3.479   1.612
 3831SOL    HW211519   4.743   3.344   1.684
 3832SOL     OW11520   4.074   2.760   1.804
 3832SOL    HW111521   4.150   2.804   1.852
 3832SOL    HW211522   4.109   2.713   1.722
 3833SOL     OW11523   5.027   2.700   0.042
 3833SOL    HW111524   5.061   2.607   0.057
 3833SOL    HW211525   5.045   2.727  -0.053
 3834SOL     OW11526   4.792   3.195   0.849
 3834SOL    HW111527   4.799   3.111   0.794
 3834SOL    HW211528   4.854   3.264   0.813
 3835SOL     OW11529   4.043   2.672   0.949
 3835SOL    HW111530   4.136   2.708   0.954
 3835SOL    HW211531   4.037   2.587   1.001
 3836SOL     OW11532   4.063   2.371   1.006
 3836SOL    HW111533   4.011   2.288   0.989
 3836SOL    HW211534   4.140   2.376   0.942
 3837SOL     OW11535   4.862   2.242   1.678
 3837SOL    HW111536   4.817   2.305   1.742
 3837SOL    HW211537   4.955   2.273   1.661
 3838SOL     OW11538   4.884   2.069   1.477
 3838SOL    HW111539   4.884   2.133   1.554
 3838SOL    HW211540   4.912   2.117   1.394
 3839SOL     OW11541   3.812   3.663   0.927
 3839SOL    HW111542   3.770   3.577   0.900
 3839SOL    HW211543   3.906   3.666   0.893
 3840SOL     OW11544   4.228   3.430   0.910
 3840SOL    HW111545   4.294   3.504   0.919
 3840SOL    HW211546   4.272   3.351   0.868
 3841SOL     OW11547   4.726   2.658   1.238
 3841SOL    HW111548   4.767   2.626   1.324
 3841SOL    HW211549   4.630   2.631   1.235
 3842SOL     OW11550   3.764   2.406   1.114
 3842SOL    HW111551   3.849   2.373   1.073
 3842SOL    HW211552   3.777   2.421   1.212
 3843SOL     OW11553   3.913   2.382   1.722
 3843SOL    HW111554   3.972   2.342   1.652
 3843SOL    HW211555   3.855   2.453   1.681
 3844SOL     OW11556   5.093   2.812   1.660
 3844SOL    HW111557   5.132   2.901   1.680
 3844SOL    HW211558   5.103   2.792   1.563
 3845SOL     OW11559   4.539   2.434   0.325
 3845SOL    HW111560   4.546   2.345   0.279
 3845SOL    HW211561   4.445   2.468   0.317
 3846SOL     OW11562   3.976   3.426   1.744
 3846SOL    HW111563   3.946   3.483   1.820
 3846SOL    HW211564   3.969   3.329   1.770
 3847SOL     OW11565   4.395   2.326   1.269
 3847SOL    HW111566   4.361   2.237   1.239
 3847SOL    HW211567   4.421   2.380   1.189
 3848SOL     OW11568   4.654   3.540   1.465
 3848SOL    HW111569   4.630   3.522   1.370
 3848SOL    HW211570   4.684   3.634   1.475
 3849SOL     OW11571   4.197   2.362   0.191
 3849SOL    HW111572   4.258   2.442   0.195
 3849SOL    HW211573   4.102   2.393   0.198
 3850SOL     OW11574   3.883   2.999   1.466
 3850SOL    HW111575   3.905   2.938   1.542
 3850SOL    HW211576   3.893   2.950   1.380
 3851SOL     OW11577   5.071   2.921   1.234
 3851SOL    HW111578   5.095   2.858   1.160
 3851SOL    HW211579   4.981   2.961   1.216
 3852SOL     OW11580   5.026   2.717   0.309
 3852SOL    HW111581   4.940   2.686   0.351
 3852SOL    HW211582   5.022   2.703   0.210
 3853SOL     OW11583   4.976   3.593   1.128
 3853SOL    HW111584   5.060   3.598   1.074
 3853SOL    HW211585   4.953   3.497   1.146
 3854SOL     OW11586   3.807   3.120   1.022
 3854SOL    HW111587   3.802   3.119   1.122
 3854SOL    HW211588   3.724   3.079   0.984
 3855SOL     OW11589   4.412   3.524   1.716
 3855SOL    HW111590   4.356   3.605   1.725
 3855SOL    HW211591   4.464   3.528   1.630
 3856SOL     OW11592   4.627   1.948   0.133
 3856SOL    HW111593   4.678   1.949   0.047
 3856SOL    HW211594   4.683   1.906   0.204
 3857SOL     OW11595   5.112   3.435   0.477
 3857SOL    HW111596   5.179   3.447   0.403
 3857SOL    HW211597   5.072   3.524   0.500
 3858SOL     OW11598   3.854   3.656   1.851
 3858SOL    HW111599   3.813   3.582   1.904
 3858SOL    HW211600   3.918   3.707   1.909
 3859SOL     OW11601   5.004   2.789   0.672
 3859SOL    HW111602   5.064   2.708   0.674
 3859SOL    HW211603   5.044   2.858   0.612
 3860SOL     OW11604   4.554   3.135   1.422
 3860SOL    HW111605   4.549   3.168   1.517
 3860SOL    HW211606   4.468   3.154   1.376
 3861SOL     OW11607   4.396   3.478   0.154
 3861SOL    HW111608   4.405   3.488   0.055
 3861SOL    HW211609   4.356   3.389   0.175
 3862SOL     OW11610   3.987   2.188   0.720
 3862SOL    HW111611   3.908   2.239   0.686
 3862SOL    HW211612   3.978   2.173   0.818
 3863SOL     OW11613   4.918   3.474   0.031
 3863SOL    HW111614   4.924   3.381   0.068
 3863SOL    HW211615   4.859   3.474  -0.049
 3864SOL     OW11616   4.546   2.864   1.372
 3864SOL    HW111617   4.586   2.863   1.280
 3864SOL    HW211618   4.556   2.956   1.412
 3865SOL     OW11619   4.640   2.772   0.291
 3865SOL    HW111620   4.703   2.810   0.223
 3865SOL    HW211621   4.680   2.689   0.330
 3866SOL     OW11622   4.096   3.150   1.490
 3866SOL    HW111623   4.083   3.243   1.456
 3866SOL    HW211624   4.012   3.098   1.477
 3867SOL     OW11625   4.763   2.960   0.696
 3867SOL    HW111626   4.693   2.913   0.750
 3867SOL    HW211627   4.822   2.892   0.653
 3868SOL     OW11628   4.738   2.098   0.971
 3868SOL    HW111629   4.730   2.062   0.878
 3868SOL    HW211630   4.736   2.022   1.036
 3869SOL     OW11631   4.314   3.349   0.491
 3869SOL    HW111632   4.356   3.291   0.421
 3869SOL    HW211633   4.270   3.428   0.447
 3870SOL     OW11634   3.979   3.210   0.290
 3870SOL    HW111635   3.883   3.211   0.263
 3870SOL    HW211636   3.991   3.263   0.374
 3871SOL     OW11637   3.829   2.875   1.726
 3871SOL    HW111638   3.752   2.842   1.780
 3871SOL    HW211639   3.914   2.845   1.768
 3872SOL     OW11640   4.396   2.065   1.489
 3872SOL    HW111641   4.486   2.049   1.449
 3872SOL    HW211642   4.404   2.070   1.588
 3873SOL     OW11643   3.799   2.207   0.033
 3873SOL    HW111644   3.707   2.179   0.004
 3873SOL    HW211645   3.830   2.284  -0.023
 3874SOL     OW11646   5.164   2.718   1.398
 3874SOL    HW111647   5.107   2.770   1.335
 3874SOL    HW211648   5.260   2.730   1.374
 3875SOL     OW11649   3.796   2.028   0.318
 3875SOL    HW111650   3.779   2.111   0.264
 3875SOL    HW211651   3.886   1.991   0.296
 3876SOL     OW11652   4.907   3.197   0.119
 3876SOL    HW111653   4.808   3.186   0.121
 3876SOL    HW211654   4.941   3.212   0.212
 3877SOL     OW11655   4.337   2.704   1.431
 3877SOL    HW111656   4.393   2.785   1.414
 3877SOL    HW211657   4.396   2.624   1.434
 3878SOL     OW11658   4.440   2.427   1.708
 3878SOL    HW111659   4.459   2.492   1.782
 3878SOL    HW211660   4.500   2.347   1.717
 3879SOL     OW11661   5.174   3.082   1.633
 3879SOL    HW111662   5.165   3.072   1.732
 3879SOL    HW211663   5.270   3.075   1.607
 3880SOL     OW11664   4.114   3.603   1.560
 3880SOL    HW111665   4.023   3.644   1.558
 3880SOL    HW211666   4.107   3.509   1.592
 3881SOL     OW11667   4.949   2.187   0.449
 3881SOL    HW111668   5.014   2.113   0.438
 3881SOL    HW211669   4.969   2.237   0.533
 3882SOL     OW11670   4.318   2.607   0.652
 3882SOL    HW111671   4.368   2.692   0.633
 3882SOL    HW211672   4.230   2.609   0.604
 3883SOL     OW11673   4.583   3.236   0.016
 3883SOL    HW111674   4.537   3.251   0.104
 3883SOL    HW211675   4.627   3.321  -0.014
 3884SOL     OW11676   4.385   3.652   0.953
 3884SOL    HW111677   4.339   3.740   0.940
 3884SOL    HW211678   4.484   3.664   0.946
 3885SOL     OW11679   4.583   2.818   0.861
 3885SOL    HW111680   4.637   2.749   0.909
 3885SOL    HW211681   4.551   2.887   0.927
 3886SOL     OW11682   4.807   2.846   0.087
 3886SOL    HW111683   4.784   2.899   0.005
 3886SOL    HW211684   4.888   2.790   0.068
 3887SOL     OW11685   3.945   3.176   1.844
 3887SOL    HW111686   3.880   3.103   1.823
 3887SOL    HW211687   3.949   3.190   1.942
 3888SOL     OW11688   3.803   3.102   0.653
 3888SOL    HW111689   3.802   3.055   0.741
 3888SOL    HW211690   3.885   3.074   0.602
 3889SOL     OW11691   4.396   3.253   1.624
 3889SOL    HW111692   4.318   3.203   1.662
 3889SOL    HW211693   4.393   3.348   1.655
 3890SOL     OW11694   4.152   2.286   0.520
 3890SOL    HW111695   4.182   2.214   0.458
 3890SOL    HW211696   4.113   2.246   0.603
 3891SOL     OW11697   4.041   2.409   1.280
 3891SOL    HW111698   4.079   2.350   1.352
 3891SOL    HW211699   4.081   2.383   1.192
 3892SOL     OW11700   4.536   3.448   0.687
 3892SOL    HW111701   4.568   3.458   0.593
 3892SOL    HW211702   4.457   3.386   0.689
 3893SOL     OW11703   5.148   2.076   1.112
 3893SOL    HW111704   5.200   2.011   1.167
 3893SOL    HW211705   5.099   2.139   1.173
 3894SOL     OW11706   4.725   1.896   1.154
 3894SOL    HW111707   4.662   1.824   1.123
 3894SOL    HW211708   4.818   1.860   1.154
 3895SOL     OW11709   4.494   3.192   0.301
 3895SOL    HW111710   4.448   3.105   0.318
 3895SOL    HW211711   4.585   3.189   0.342
 3896SOL     OW11712   4.342   3.429   1.284
 3896SOL    HW111713   4.337   3.511   1.341
 3896SOL    HW211714   4.431   3.426   1.239
 3897SOL     OW11715   3.763   2.939   0.300
 3897SOL    HW111716   3.862   2.928   0.291
 3897SOL    HW211717   3.723   2.853   0.332
 3898SOL     OW11718   4.599   3.508   0.337
 3898SOL    HW111719   4.522   3.473   0.283
 3898SOL    HW211720   4.567   3.579   0.399
 3899SOL     OW11721   3.954   2.490   1.975
 3899SOL    HW111722   3.861   2.488   2.012
 3899SOL    HW211723   3.955   2.451   1.883
 3900SOL     OW11724   3.949   2.137   2.858
 3900SOL    HW111725   3.984   2.120   2.950
 3900SOL    HW211726   3.861   2.092   2.846
 3901SOL     OW11727   3.743   2.230   2.509
 3901SOL    HW111728   3.661   2.273   2.548
 3901SOL    HW211729   3.715   2.157   2.446
 3902SOL     OW11730   4.293   3.137   3.027
 3902SOL    HW111731   4.200   3.130   2.990
 3902SOL    HW211732   4.304   3.226   3.071
 3903SOL     OW11733   5.279   3.373   2.565
 3903SOL    HW111734   5.222   3.357   2.646
 3903SOL    HW211735   5.220   3.383   2.485
 3904SOL     OW11736   4.859   2.565   2.579
 3904SOL    HW111737   4.916   2.643   2.554
 3904SOL    HW211738   4.799   2.591   2.655
 3905SOL     OW11739   4.492   3.006   2.885
 3905SOL    HW111740   4.414   3.023   2.945
 3905SOL    HW211741   4.526   3.093   2.849
 3906SOL     OW11742   4.574   2.660   3.685
 3906SOL    HW111743   4.570   2.736   3.750
 3906SOL    HW211744   4.596   2.696   3.594
 3907SOL     OW11745   4.409   2.874   2.527
 3907SOL    HW111746   4.478   2.858   2.597
 3907SOL    HW211747   4.336   2.931   2.565
 3908SOL     OW11748   4.410   3.023   3.665
 3908SOL    HW111749   4.470   3.102   3.679
 3908SOL    HW211750   4.324   3.054   3.624
 3909SOL     OW11751   4.059   3.297   2.923
 3909SOL    HW111752   3.981   3.266   2.870
 3909SOL    HW211753   4.117   3.355   2.866
 3910SOL     OW11754   4.162   2.254   3.361
 3910SOL    HW111755   4.244   2.198   3.370
 3910SOL    HW211756   4.081   2.196   3.365
 3911SOL     OW11757   3.955   3.575   2.345
 3911SOL    HW111758   3.989   3.652   2.399
 3911SOL    HW211759   3.999   3.575   2.255
 3912SOL     OW11760   4.851   3.203   3.552
 3912SOL    HW111761   4.898   3.203   3.640
 3912SOL    HW211762   4.803   3.116   3.541
 3913SOL     OW11763   3.954   3.296   2.400
 3913SOL    HW111764   3.928   3.392   2.400
 3913SOL    HW211765   3.883   3.242   2.445
 3914SOL     OW11766   3.964   2.953   2.748
 3914SOL    HW111767   3.978   2.869   2.800
 3914SOL    HW211768   3.909   3.017   2.803
 3915SOL     OW11769   4.344   3.648   3.301
 3915SOL    HW111770   4.252   3.631   3.336
 3915SOL    HW211771   4.372   3.740   3.327
 3916SOL     OW11772   4.330   2.826   1.985
 3916SOL    HW111773   4.337   2.910   1.931
 3916SOL    HW211774   4.376   2.839   2.073
 3917SOL     OW11775   3.846   2.505   2.425
 3917SOL    HW111776   3.801   2.417   2.442
 3917SOL    HW211777   3.845   2.559   2.509
 3918SOL     OW11778   3.751   3.458   1.979
 3918SOL    HW111779   3.732   3.362   2.000
 3918SOL    HW211780   3.718   3.516   2.054
 3919SOL     OW11781   5.413   2.784   2.474
 3919SOL    HW111782   5.508   2.755   2.482
 3919SOL    HW211783   5.405   2.849   2.399
 3920SOL     OW11784   3.837   2.599   3.459
 3920SOL    HW111785   3.925   2.586   3.504
 3920SOL    HW211786   3.824   2.696   3.437
 3921SOL     OW11787   4.337   3.227   2.588
 3921SOL    HW111788   4.288   3.140   2.597
 3921SOL    HW211789   4.314   3.270   2.501
 3922SOL     OW11790   5.017   3.090   3.285
 3922SOL    HW111791   5.054   3.017   3.227
 3922SOL    HW211792   5.069   3.095   3.370
 3923SOL     OW11793   4.533   1.866   2.364
 3923SOL    HW111794   4.573   1.957   2.355
 3923SOL    HW211795   4.433   1.874   2.370
 3924SOL     OW11796   3.921   2.838   3.126
 3924SOL    HW111797   4.010   2.793   3.112
 3924SOL    HW211798   3.848   2.773   3.107
 3925SOL     OW11799   4.911   3.654   3.478
 3925SOL    HW111800   4.935   3.714   3.402
 3925SOL    HW211801   4.918   3.559   3.448
 3926SOL     OW11802   4.041   2.113   3.663
 3926SOL    HW111803   4.112   2.184   3.669
 3926SOL    HW211804   3.953   2.152   3.691
 3927SOL     OW11805   4.322   2.591   2.132
 3927SOL    HW111806   4.346   2.660   2.064
 3927SOL    HW211807   4.244   2.624   2.186
 3928SOL     OW11808   5.005   2.207   2.806
 3928SOL    HW111809   4.919   2.157   2.793
 3928SOL    HW211810   5.067   2.153   2.862
 3929SOL     OW11811   4.531   2.467   3.327
 3929SOL    HW111812   4.484   2.464   3.416
 3929SOL    HW211813   4.480   2.412   3.261
 3930SOL     OW11814   5.118   2.331   3.536
 3930SOL    HW111815   5.098   2.374   3.624
 3930SOL    HW211816   5.196   2.269   3.545
 3931SOL     OW11817   4.697   2.752   3.434
 3931SOL    HW111818   4.743   2.668   3.405
 3931SOL    HW211819   4.641   2.786   3.359
 3932SOL     OW11820   4.715   2.272   3.104
 3932SOL    HW111821   4.638   2.306   3.158
 3932SOL    HW211822   4.681   2.221   3.025
 3933SOL     OW11823   4.765   2.563   2.291
 3933SOL    HW111824   4.791   2.559   2.387
 3933SOL    HW211825   4.680   2.512   2.277
 3934SOL     OW11826   3.800   2.673   2.651
 3934SOL    HW111827   3.899   2.661   2.660
 3934SOL    HW211828   3.776   2.768   2.672
 3935SOL     OW11829   3.854   3.683   3.433
 3935SOL    HW111830   3.844   3.668   3.532
 3935SOL    HW211831   3.768   3.719   3.397
 3936SOL     OW11832   4.589   2.210   2.057
 3936SOL    HW111833   4.648   2.273   2.008
 3936SOL    HW211834   4.608   2.116   2.028
 3937SOL     OW11835   5.086   3.006   2.407
 3937SOL    HW111836   5.169   2.977   2.359
 3937SOL    HW211837   5.037   3.073   2.351
 3938SOL     OW11838   4.274   2.058   2.747
 3938SOL    HW111839   4.269   2.053   2.847
 3938SOL    HW211840   4.276   2.154   2.718
 3939SOL     OW11841   4.732   3.318   2.339
 3939SOL    HW111842   4.686   3.390   2.287
 3939SOL    HW211843   4.728   3.338   2.437
 3940SOL     OW11844   4.075   3.663   2.715
 3940SOL    HW111845   4.125   3.577   2.721
 3940SOL    HW211846   4.140   3.740   2.712
 3941SOL     OW11847   4.951   3.412   3.368
 3941SOL    HW111848   4.957   3.335   3.432
 3941SOL    HW211849   4.899   3.386   3.288
 3942SOL     OW11850   4.045   2.805   2.104
 3942SOL    HW111851   4.127   2.844   2.062
 3942SOL    HW211852   4.018   2.723   2.055
 3943SOL     OW11853   4.185   3.128   3.589
 3943SOL    HW111854   4.135   3.129   3.503
 3943SOL    HW211855   4.122   3.110   3.665
 3944SOL     OW11856   4.835   3.638   2.099
 3944SOL    HW111857   4.775   3.576   2.149
 3944SOL    HW211858   4.866   3.594   2.014
 3945SOL     OW11859   3.926   2.147   3.360
 3945SOL    HW111860   3.846   2.207   3.347
 3945SOL    HW211861   3.916   2.098   3.446
 3946SOL     OW11862   4.188   3.605   2.185
 3946SOL    HW111863   4.221   3.644   2.271
 3946SOL    HW211864   4.264   3.598   2.120
 3947SOL     OW11865   3.973   3.647   3.103
 3947SOL    HW111866   4.030   3.582   3.153
 3947SOL    HW211867   3.957   3.614   3.010
 3948SOL     OW11868   4.664   3.560   2.766
 3948SOL    HW111869   4.744   3.503   2.787
 3948SOL    HW211870   4.615   3.520   2.689
 3949SOL     OW11871   4.106   2.562   2.342
 3949SOL    HW111872   4.151   2.472   2.339
 3949SOL    HW211873   4.012   2.551   2.375
 3950SOL     OW11874   4.338   1.984   1.979
 3950SOL    HW111875   4.436   1.962   1.986
 3950SOL    HW211876   4.307   1.967   1.886
 3951SOL     OW11877   4.505   2.126   3.611
 3951SOL    HW111878   4.572   2.065   3.654
 3951SOL    HW211879   4.432   2.145   3.676
 3952SOL     OW11880   4.612   3.376   3.057
 3952SOL    HW111881   4.589   3.351   2.963
 3952SOL    HW211882   4.673   3.307   3.096
 3953SOL     OW11883   5.075   2.452   3.295
 3953SOL    HW111884   5.103   2.409   3.380
 3953SOL    HW211885   5.100   2.548   3.296
 3954SOL     OW11886   4.527   3.264   2.786
 3954SOL    HW111887   4.617   3.278   2.744
 3954SOL    HW211888   4.456   3.266   2.715
 3955SOL     OW11889   4.646   2.365   2.761
 3955SOL    HW111890   4.621   2.356   2.665
 3955SOL    HW211891   4.694   2.283   2.792
 3956SOL     OW11892   4.263   1.926   2.374
 3956SOL    HW111893   4.182   1.927   2.432
 3956SOL    HW211894   4.266   2.009   2.319
 3957SOL     OW11895   5.158   3.050   1.903
 3957SOL    HW111896   5.190   2.974   1.960
 3957SOL    HW211897   5.066   3.077   1.933
 3958SOL     OW11898   4.021   1.897   2.033
 3958SOL    HW111899   4.070   1.981   2.012
 3958SOL    HW211900   4.083   1.832   2.078
 3959SOL     OW11901   4.659   2.098   2.342
 3959SOL    HW111902   4.611   2.139   2.264
 3959SOL    HW211903   4.758   2.096   2.323
 3960SOL     OW11904   4.800   2.545   3.326
 3960SOL    HW111905   4.720   2.484   3.329
 3960SOL    HW211906   4.881   2.492   3.302
 3961SOL     OW11907   4.951   3.432   2.655
 3961SOL    HW111908   4.972   3.506   2.590
 3961SOL    HW211909   5.019   3.432   2.728
 3962SOL     OW11910   4.183   3.014   2.603
 3962SOL    HW111911   4.112   2.987   2.668
 3962SOL    HW211912   4.157   2.986   2.510
 3963SOL     OW11913   4.995   3.659   2.453
 3963SOL    HW111914   5.039   3.723   2.389
 3963SOL    HW211915   4.945   3.711   2.523
 3964SOL     OW11916   4.756   2.411   1.878
 3964SOL    HW111917   4.715   2.493   1.839
 3964SOL    HW211918   4.820   2.437   1.951
 3965SOL     OW11919   3.802   2.418   3.248
 3965SOL    HW111920   3.894   2.417   3.207
 3965SOL    HW211921   3.796   2.492   3.315
 3966SOL     OW11922   4.285   2.084   3.009
 3966SOL    HW111923   4.323   2.000   3.046
 3966SOL    HW211924   4.197   2.103   3.053
 3967SOL     OW11925   4.590   2.316   2.504
 3967SOL    HW111926   4.558   2.388   2.442
 3967SOL    HW211927   4.614   2.235   2.451
 3968SOL     OW11928   4.741   1.901   2.615
 3968SOL    HW111929   4.669   1.906   2.546
 3968SOL    HW211930   4.717   1.832   2.684
 3969SOL     OW11931   4.212   3.247   2.036
 3969SOL    HW111932   4.125   3.232   2.083
 3969SOL    HW211933   4.195   3.273   1.941
 3970SOL     OW11934   5.114   2.437   1.940
 3970SOL    HW111935   5.060   2.416   2.021
 3970SOL    HW211936   5.205   2.396   1.949
 3971SOL     OW11937   4.251   2.118   2.190
 3971SOL    HW111938   4.278   2.059   2.115
 3971SOL    HW211939   4.251   2.213   2.159
 3972SOL     OW11940   4.788   3.209   3.202
 3972SOL    HW111941   4.708   3.186   3.257
 3972SOL    HW211942   4.871   3.183   3.251
 3973SOL     OW11943   4.835   3.057   2.962
 3973SOL    HW111944   4.795   3.101   3.043
 3973SOL    HW211945   4.794   3.094   2.879
 3974SOL     OW11946   4.639   1.951   3.264
 3974SOL    HW111947   4.664   1.931   3.169
 3974SOL    HW211948   4.711   2.007   3.306
 3975SOL     OW11949   4.704   2.978   3.581
 3975SOL    HW111950   4.605   2.984   3.591
 3975SOL    HW211951   4.727   2.898   3.525
 3976SOL     OW11952   4.429   2.912   2.230
 3976SOL    HW111953   4.415   2.919   2.329
 3976SOL    HW211954   4.513   2.861   2.212
 3977SOL     OW11955   4.134   2.675   3.113
 3977SOL    HW111956   4.220   2.687   3.163
 3977SOL    HW211957   4.092   2.588   3.140
 3978SOL     OW11958   4.998   2.248   3.124
 3978SOL    HW111959   5.019   2.322   3.188
 3978SOL    HW211960   4.909   2.265   3.081
 3979SOL     OW11961   3.788   3.426   3.193
 3979SOL    HW111962   3.742   3.508   3.159
 3979SOL    HW211963   3.886   3.445   3.202
 3980SOL     OW11964   4.091   2.962   2.363
 3980SOL    HW111965   4.084   3.045   2.307
 3980SOL    HW211966   4.095   2.882   2.303
 3981SOL     OW11967   4.290   2.399   2.727
 3981SOL    HW111968   4.302   2.465   2.653
 3981SOL    HW211969   4.336   2.433   2.810
 3982SOL     OW11970   4.976   3.210   2.250
 3982SOL    HW111971   5.026   3.287   2.290
 3982SOL    HW211972   4.881   3.212   2.282
 3983SOL     OW11973   4.996   3.307   3.004
 3983SOL    HW111974   5.043   3.320   3.091
 3983SOL    HW211975   4.930   3.233   3.013
 3984SOL     OW11976   4.078   3.372   3.191
 3984SOL    HW111977   4.057   3.328   3.104
 3984SOL    HW211978   4.175   3.398   3.194
 3985SOL     OW11979   4.126   2.613   3.460
 3985SOL    HW111980   4.194   2.668   3.413
 3985SOL    HW211981   4.166   2.525   3.487
 3986SOL     OW11982   4.737   1.967   3.632
 3986SOL    HW111983   4.743   2.052   3.580
 3986SOL    HW211984   4.769   1.891   3.575
 3987SOL     OW11985   4.228   1.912   3.602
 3987SOL    HW111986   4.186   1.855   3.532
 3987SOL    HW211987   4.162   1.981   3.634
 3988SOL     OW11988   4.297   2.732   2.891
 3988SOL    HW111989   4.341   2.821   2.882
 3988SOL    HW211990   4.234   2.732   2.968
 3989SOL     OW11991   5.084   2.724   2.907
 3989SOL    HW111992   5.009   2.724   2.841
 3989SOL    HW211993   5.121   2.632   2.916
 3990SOL     OW11994   4.933   2.387   2.137
 3990SOL    HW111995   4.946   2.303   2.191
 3990SOL    HW211996   4.904   2.461   2.197
 3991SOL     OW11997   4.031   2.075   3.093
 3991SOL    HW111998   4.008   2.112   3.183
 3991SOL    HW211999   4.001   1.980   3.087
 3992SOL     OW12000   3.761   3.172   3.144
 3992SOL    HW112001   3.814   3.123   3.212
 3992SOL    HW212002   3.783   3.270   3.149
 3993SOL     OW12003   4.456   2.496   2.926
 3993SOL    HW112004   4.515   2.470   2.850
 3993SOL    HW212005   4.428   2.592   2.915
 3994SOL     OW12006   4.031   1.925   2.480
 3994SOL    HW112007   4.020   2.019   2.513
 3994SOL    HW212008   4.026   1.862   2.557
 3995SOL     OW12009   5.346   2.229   2.236
 3995SOL    HW112010   5.348   2.153   2.300
 3995SOL    HW212011   5.298   2.306   2.276
 3996SOL     OW12012   4.747   2.628   2.828
 3996SOL    HW112013   4.762   2.649   2.924
 3996SOL    HW212014   4.717   2.533   2.819
 3997SOL     OW12015   4.704   3.435   3.562
 3997SOL    HW112016   4.684   3.479   3.474
 3997SOL    HW212017   4.743   3.344   3.546
 3998SOL     OW12018   4.074   2.760   3.666
 3998SOL    HW112019   4.150   2.804   3.714
 3998SOL    HW212020   4.109   2.713   3.584
 3999SOL     OW12021   5.027   2.700   1.904
 3999SOL    HW112022   5.061   2.607   1.919
 3999SOL    HW212023   5.045   2.727   1.809
 4000SOL     OW12024   4.792   3.195   2.711
 4000SOL    HW112025   4.799   3.111   2.656
 4000SOL    HW212026   4.854   3.264   2.675
 4001SOL     OW12027   4.043   2.672   2.811
 4001SOL    HW112028   4.136   2.708   2.816
 4001SOL    HW212029   4.037   2.587   2.863
 4002SOL     OW12030   4.063   2.371   2.868
 4002SOL    HW112031   4.011   2.288   2.851
 4002SOL    HW212032   4.140   2.376   2.804
 4003SOL     OW12033   4.862   2.242   3.540
 4003SOL    HW112034   4.817   2.305   3.604
 4003SOL    HW212035   4.955   2.273   3.523
 4004SOL     OW12036   4.884   2.069   3.339
 4004SOL    HW112037   4.884   2.133   3.416
 4004SOL    HW212038   4.912   2.117   3.256
 4005SOL     OW12039   3.732   3.188   2.062
 4005SOL    HW112040   3.639   3.209   2.031
 4005SOL    HW212041   3.742   3.089   2.075
 4006SOL     OW12042   3.812   3.663   2.789
 4006SOL    HW112043   3.770   3.577   2.762
 4006SOL    HW212044   3.906   3.666   2.755
 4007SOL     OW12045   4.228   3.430   2.772
 4007SOL    HW112046   4.294   3.504   2.781
 4007SOL    HW212047   4.272   3.351   2.730
 4008SOL     OW12048   4.726   2.658   3.100
 4008SOL    HW112049   4.767   2.626   3.186
 4008SOL    HW212050   4.630   2.631   3.097
 4009SOL     OW12051   3.764   2.406   2.976
 4009SOL    HW112052   3.849   2.373   2.935
 4009SOL    HW212053   3.777   2.421   3.074
 4010SOL     OW12054   3.913   2.382   3.584
 4010SOL    HW112055   3.972   2.342   3.514
 4010SOL    HW212056   3.855   2.453   3.543
 4011SOL     OW12057   5.093   2.812   3.522
 4011SOL    HW112058   5.132   2.901   3.542
 4011SOL    HW212059   5.103   2.792   3.425
 4012SOL     OW12060   4.539   2.434   2.187
 4012SOL    HW112061   4.546   2.345   2.141
 4012SOL    HW212062   4.445   2.468   2.179
 4013SOL     OW12063   3.976   3.426   3.606
 4013SOL    HW112064   3.946   3.483   3.682
 4013SOL    HW212065   3.969   3.329   3.632
 4014SOL     OW12066   4.395   2.326   3.131
 4014SOL    HW112067   4.361   2.237   3.101
 4014SOL    HW212068   4.421   2.380   3.051
 4015SOL     OW12069   4.654   3.540   3.327
 4015SOL    HW112070   4.630   3.522   3.232
 4015SOL    HW212071   4.684   3.634   3.337
 4016SOL     OW12072   4.197   2.362   2.053
 4016SOL    HW112073   4.258   2.442   2.057
 4016SOL    HW212074   4.102   2.393   2.060
 4017SOL     OW12075   3.883   2.999   3.328
 4017SOL    HW112076   3.905   2.938   3.404
 4017SOL    HW212077   3.893   2.950   3.242
 4018SOL     OW12078   5.071   2.921   3.096
 4018SOL    HW112079   5.095   2.858   3.022
 4018SOL    HW212080   4.981   2.961   3.078
 4019SOL     OW12081   5.026   2.717   2.171
 4019SOL    HW112082   4.940   2.686   2.213
 4019SOL    HW212083   5.022   2.703   2.072
 4020SOL     OW12084   4.976   3.593   2.990
 4020SOL    HW112085   5.060   3.598   2.936
 4020SOL    HW212086   4.953   3.497   3.008
 4021SOL     OW12087   3.807   3.120   2.884
 4021SOL    HW112088   3.802   3.119   2.984
 4021SOL    HW212089   3.724   3.079   2.846
 4022SOL     OW12090   4.412   3.524   3.578
 4022SOL    HW112091   4.356   3.605   3.587
 4022SOL    HW212092   4.464   3.528   3.492
 4023SOL     OW12093   5.112   3.435   2.339
 4023SOL    HW112094   5.179   3.447   2.265
 4023SOL    HW212095   5.072   3.524   2.362
 4024SOL     OW12096   3.854   3.656   3.713
 4024SOL    HW112097   3.813   3.582   3.766
 4024SOL    HW212098   3.918   3.707   3.771
 4025SOL     OW12099   5.004   2.789   2.534
 4025SOL    HW112100   5.064   2.708   2.536
 4025SOL    HW212101   5.044   2.858   2.474
 4026SOL     OW12102   4.554   3.135   3.284
 4026SOL    HW112103   4.549   3.168   3.379
 4026SOL    HW212104   4.468   3.154   3.238
 4027SOL     OW12105   4.396   3.478   2.016
 4027SOL    HW112106   4.405   3.488   1.917
 4027SOL    HW212107   4.356   3.389   2.037
 4028SOL     OW12108   3.987   2.188   2.582
 4028SOL    HW112109   3.908   2.239   2.548
 4028SOL    HW212110   3.978   2.173   2.680
 4029SOL     OW12111   4.918   3.474   1.893
 4029SOL    HW112112   4.924   3.381   1.930
 4029SOL    HW212113   4.859   3.474   1.813
 4030SOL     OW12114   4.546   2.864   3.234
 4030SOL    HW112115   4.586   2.863   3.142
 4030SOL    HW212116   4.556   2.956   3.274
 4031SOL     OW12117   4.640   2.772   2.153
 4031SOL    HW112118   4.703   2.810   2.085
 4031SOL    HW212119   4.680   2.689   2.192
 4032SOL     OW12120   4.096   3.150   3.352
 4032SOL    HW112121   4.083   3.243   3.318
 4032SOL    HW212122   4.012   3.098   3.339
 4033SOL     OW12123   4.763   2.960   2.558
 4033SOL    HW112124   4.693   2.913   2.612
 4033SOL    HW212125   4.822   2.892   2.515
 4034SOL     OW12126   4.738   2.098   2.833
 4034SOL    HW112127   4.730   2.062   2.740
 4034SOL    HW212128   4.736   2.022   2.898
 4035SOL     OW12129   4.314   3.349   2.353
 4035SOL    HW112130   4.356   3.291   2.283
 4035SOL    HW212131   4.270   3.428   2.309
 4036SOL     OW12132   3.979   3.210   2.152
 4036SOL    HW112133   3.883   3.211   2.125
 4036SOL    HW212134   3.991   3.263   2.236
 4037SOL     OW12135   3.829   2.875   3.588
 4037SOL    HW112136   3.752   2.842   3.642
 4037SOL    HW212137   3.914   2.845   3.630
 4038SOL     OW12138   4.396   2.065   3.351
 4038SOL    HW112139   4.486   2.049   3.311
 4038SOL    HW212140   4.404   2.070   3.450
 4039SOL     OW12141   3.799   2.207   1.895
 4039SOL    HW112142   3.707   2.179   1.866
 4039SOL    HW212143   3.830   2.284   1.839
 4040SOL     OW12144   5.164   2.718   3.260
 4040SOL    HW112145   5.107   2.770   3.197
 4040SOL    HW212146   5.260   2.730   3.236
 4041SOL     OW12147   3.796   2.028   2.180
 4041SOL    HW112148   3.779   2.111   2.126
 4041SOL    HW212149   3.886   1.991   2.158
 4042SOL     OW12150   4.907   3.197   1.981
 4042SOL    HW112151   4.808   3.186   1.983
 4042SOL    HW212152   4.941   3.212   2.074
 4043SOL     OW12153   4.337   2.704   3.293
 4043SOL    HW112154   4.393   2.785   3.276
 4043SOL    HW212155   4.396   2.624   3.296
 4044SOL     OW12156   4.440   2.427   3.570
 4044SOL    HW112157   4.459   2.492   3.644
 4044SOL    HW212158   4.500   2.347   3.579
 4045SOL     OW12159   5.174   3.082   3.495
 4045SOL    HW112160   5.165   3.072   3.594
 4045SOL    HW212161   5.270   3.075   3.469
 4046SOL     OW12162   4.114   3.603   3.422
 4046SOL    HW112163   4.023   3.644   3.420
 4046SOL    HW212164   4.107   3.509   3.454
 4047SOL     OW12165   4.949   2.187   2.311
 4047SOL    HW112166   5.014   2.113   2.300
 4047SOL    HW212167   4.969   2.237   2.395
 4048SOL     OW12168   4.318   2.607   2.514
 4048SOL    HW112169   4.368   2.692   2.495
 4048SOL    HW212170   4.230   2.609   2.466
 4049SOL     OW12171   4.583   3.236   1.878
 4049SOL    HW112172   4.537   3.251   1.966
 4049SOL    HW212173   4.627   3.321   1.848
 4050SOL     OW12174   4.385   3.652   2.815
 4050SOL    HW112175   4.339   3.740   2.802
 4050SOL    HW212176   4.484   3.664   2.808
 4051SOL     OW12177   4.583   2.818   2.723
 4051SOL    HW112178   4.637   2.749   2.771
 4051SOL    HW212179   4.551   2.887   2.789
 4052SOL     OW12180   4.807   2.846   1.949
 4052SOL    HW112181   4.784   2.899   1.867
 4052SOL    HW212182   4.888   2.790   1.930
 4053SOL     OW12183   3.945   3.176   3.706
 4053SOL    HW112184   3.880   3.103   3.685
 4053SOL    HW212185   3.949   3.190   3.804
 4054SOL     OW12186   3.803   3.102   2.515
 4054SOL    HW112187   3.802   3.055   2.603
 4054SOL    HW212188   3.885   3.074   2.464
 4055SOL     OW12189   4.396   3.253   3.486
 4055SOL    HW112190   4.318   3.203   3.524
 4055SOL    HW212191   4.393   3.348   3.517
 4056SOL     OW12192   4.152   2.286   2.382
 4056SOL    HW112193   4.182   2.214   2.320
 4056SOL    HW212194   4.113   2.246   2.465
 4057SOL     OW12195   4.041   2.409   3.142
 4057SOL    HW112196   4.079   2.350   3.214
 4057SOL    HW212197   4.081   2.383   3.054
 4058SOL     OW12198   4.536   3.448   2.549
 4058SOL    HW112199   4.568   3.458   2.455
 4058SOL    HW212200   4.457   3.386   2.551
 4059SOL     OW12201   5.148   2.076   2.974
 4059SOL    HW112202   5.200   2.011   3.029
 4059SOL    HW212203   5.099   2.139   3.035
 4060SOL     OW12204   4.725   1.896   3.016
 4060SOL    HW112205   4.662   1.824   2.985
 4060SOL    HW212206   4.818   1.860   3.016
 4061SOL     OW12207   4.494   3.192   2.163
 4061SOL    HW112208   4.448   3.105   2.180
 4061SOL    HW212209   4.585   3.189   2.204
 4062SOL     OW12210   4.342   3.429   3.146
 4062SOL    HW112211   4.337   3.511   3.203
 4062SOL    HW212212   4.431   3.426   3.101
 4063SOL     OW12213   5.076   1.914   2.030
 4063SOL    HW112214   5.111   1.873   1.946
 4063SOL    HW212215   4.986   1.876   2.050
 4064SOL     OW12216   3.763   2.939   2.162
 4064SOL    HW112217   3.862   2.928   2.153
 4064SOL    HW212218   3.723   2.853   2.194
 4065SOL     OW12219   4.599   3.508   2.199
 4065SOL    HW112220   4.522   3.473   2.145
 4065SOL    HW212221   4.567   3.579   2.261
 4066SOL     OW12222   3.954   2.490   3.837
 4066SOL    HW112223   3.861   2.488   3.874
 4066SOL    HW212224   3.955   2.451   3.745
 4067SOL     OW12225   3.949   2.137   4.720
 4067SOL    HW112226   3.984   2.120   4.812
 4067SOL    HW212227   3.861   2.092   4.708
 4068SOL     OW12228   3.743   2.230   4.371
 4068SOL    HW112229   3.661   2.273   4.410
 4068SOL    HW212230   3.715   2.157   4.308
 4069SOL     OW12231   4.293   3.137   4.889
 4069SOL    HW112232   4.200   3.130   4.852
 4069SOL    HW212233   4.304   3.226   4.933
 4070SOL     OW12234   5.279   3.373   4.427
 4070SOL    HW112235   5.222   3.357   4.508
 4070SOL    HW212236   5.220   3.383   4.347
 4071SOL     OW12237   4.859   2.565   4.441
 4071SOL    HW112238   4.916   2.643   4.416
 4071SOL    HW212239   4.799   2.591   4.517
 4072SOL     OW12240   4.492   3.006   4.747
 4072SOL    HW112241   4.414   3.023   4.807
 4072SOL    HW212242   4.526   3.093   4.711
 4073SOL     OW12243   4.409   2.874   4.389
 4073SOL    HW112244   4.478   2.858   4.459
 4073SOL    HW212245   4.336   2.931   4.427
 4074SOL     OW12246   4.059   3.297   4.785
 4074SOL    HW112247   3.981   3.266   4.732
 4074SOL    HW212248   4.117   3.355   4.728
 4075SOL     OW12249   4.162   2.254   5.223
 4075SOL    HW112250   4.244   2.198   5.232
 4075SOL    HW212251   4.081   2.196   5.227
 4076SOL     OW12252   3.955   3.575   4.207
 4076SOL    HW112253   3.989   3.652   4.261
 4076SOL    HW212254   3.999   3.575   4.117
 4077SOL     OW12255   3.954   3.296   4.262
 4077SOL    HW112256   3.928   3.392   4.262
 4077SOL    HW212257   3.883   3.242   4.307
 4078SOL     OW12258   3.964   2.953   4.610
 4078SOL    HW112259   3.978   2.869   4.662
 4078SOL    HW212260   3.909   3.017   4.665
 4079SOL     OW12261   4.344   3.648   5.163
 4079SOL    HW112262   4.252   3.631   5.198
 4079SOL    HW212263   4.372   3.740   5.189
 4080SOL     OW12264   4.330   2.826   3.847
 4080SOL    HW112265   4.337   2.910   3.793
 4080SOL    HW212266   4.376   2.839   3.935
 4081SOL     OW12267   5.318   1.976   5.204
 4081SOL    HW112268   5.300   2.043   5.132
 4081SOL    HW212269   5.315   2.022   5.293
 4082SOL     OW12270   3.846   2.505   4.287
 4082SOL    HW112271   3.801   2.417   4.304
 4082SOL    HW212272   3.845   2.559   4.371
 4083SOL     OW12273   3.751   3.458   3.841
 4083SOL    HW112274   3.732   3.362   3.862
 4083SOL    HW212275   3.718   3.516   3.916
 4084SOL     OW12276   5.413   2.784   4.336
 4084SOL    HW112277   5.508   2.755   4.344
 4084SOL    HW212278   5.405   2.849   4.261
 4085SOL     OW12279   4.337   3.227   4.450
 4085SOL    HW112280   4.288   3.140   4.459
 4085SOL    HW212281   4.314   3.270   4.363
 4086SOL     OW12282   4.533   1.866   4.226
 4086SOL    HW112283   4.573   1.957   4.217
 4086SOL    HW212284   4.433   1.874   4.232
 4087SOL     OW12285   3.921   2.838   4.988
 4087SOL    HW112286   4.010   2.793   4.974
 4087SOL    HW212287   3.848   2.773   4.969
 4088SOL     OW12288   4.322   2.591   3.994
 4088SOL    HW112289   4.346   2.660   3.926
 4088SOL    HW212290   4.244   2.624   4.048
 4089SOL     OW12291   5.005   2.207   4.668
 4089SOL    HW112292   4.919   2.157   4.655
 4089SOL    HW212293   5.067   2.153   4.724
 4090SOL     OW12294   4.531   2.467   5.189
 4090SOL    HW112295   4.484   2.464   5.278
 4090SOL    HW212296   4.480   2.412   5.123
 4091SOL     OW12297   4.715   2.272   4.966
 4091SOL    HW112298   4.638   2.306   5.020
 4091SOL    HW212299   4.681   2.221   4.887
 4092SOL     OW12300   4.765   2.563   4.153
 4092SOL    HW112301   4.791   2.559   4.249
 4092SOL    HW212302   4.680   2.512   4.139
 4093SOL     OW12303   3.800   2.673   4.513
 4093SOL    HW112304   3.899   2.661   4.522
 4093SOL    HW212305   3.776   2.768   4.534
 4094SOL     OW12306   3.854   3.683   5.295
 4094SOL    HW112307   3.844   3.668   5.394
 4094SOL    HW212308   3.768   3.719   5.259
 4095SOL     OW12309   4.589   2.210   3.919
 4095SOL    HW112310   4.648   2.273   3.870
 4095SOL    HW212311   4.608   2.116   3.890
 4096SOL     OW12312   5.086   3.006   4.269
 4096SOL    HW112313   5.169   2.977   4.221
 4096SOL    HW212314   5.037   3.073   4.213
 4097SOL     OW12315   4.274   2.058   4.609
 4097SOL    HW112316   4.269   2.053   4.709
 4097SOL    HW212317   4.276   2.154   4.580
 4098SOL     OW12318   4.732   3.318   4.201
 4098SOL    HW112319   4.686   3.390   4.149
 4098SOL    HW212320   4.728   3.338   4.299
 4099SOL     OW12321   4.075   3.663   4.577
 4099SOL    HW112322   4.125   3.577   4.583
 4099SOL    HW212323   4.140   3.740   4.574
 4100SOL     OW12324   4.045   2.805   3.966
 4100SOL    HW112325   4.127   2.844   3.924
 4100SOL    HW212326   4.018   2.723   3.917
 4101SOL     OW12327   4.835   3.638   3.961
 4101SOL    HW112328   4.775   3.576   4.011
 4101SOL    HW212329   4.866   3.594   3.876
 4102SOL     OW12330   4.188   3.605   4.047
 4102SOL    HW112331   4.221   3.644   4.133
 4102SOL    HW212332   4.264   3.598   3.982
 4103SOL     OW12333   3.973   3.647   4.965
 4103SOL    HW112334   4.030   3.582   5.015
 4103SOL    HW212335   3.957   3.614   4.872
 4104SOL     OW12336   4.664   3.560   4.628
 4104SOL    HW112337   4.744   3.503   4.649
 4104SOL    HW212338   4.615   3.520   4.551
 4105SOL     OW12339   4.106   2.562   4.204
 4105SOL    HW112340   4.151   2.472   4.201
 4105SOL    HW212341   4.012   2.551   4.237
 4106SOL     OW12342   4.338   1.984   3.841
 4106SOL    HW112343   4.436   1.962   3.848
 4106SOL    HW212344   4.307   1.967   3.748
 4107SOL     OW12345   4.612   3.376   4.919
 4107SOL    HW112346   4.589   3.351   4.825
 4107SOL    HW212347   4.673   3.307   4.958
 4108SOL     OW12348   4.527   3.264   4.648
 4108SOL    HW112349   4.617   3.278   4.606
 4108SOL    HW212350   4.456   3.266   4.577
 4109SOL     OW12351   4.646   2.365   4.623
 4109SOL    HW112352   4.621   2.356   4.527
 4109SOL    HW212353   4.694   2.283   4.654
 4110SOL     OW12354   4.263   1.926   4.236
 4110SOL    HW112355   4.182   1.927   4.294
 4110SOL    HW212356   4.266   2.009   4.181
 4111SOL     OW12357   5.158   3.050   3.765
 4111SOL    HW112358   5.190   2.974   3.822
 4111SOL    HW212359   5.066   3.077   3.795
 4112SOL     OW12360   4.021   1.897   3.895
 4112SOL    HW112361   4.070   1.981   3.874
 4112SOL    HW212362   4.083   1.832   3.940
 4113SOL     OW12363   4.659   2.098   4.204
 4113SOL    HW112364   4.611   2.139   4.126
 4113SOL    HW212365   4.758   2.096   4.185
 4114SOL     OW12366   4.951   3.432   4.517
 4114SOL    HW112367   4.972   3.506   4.452
 4114SOL    HW212368   5.019   3.432   4.590
 4115SOL     OW12369   4.183   3.014   4.465
 4115SOL    HW112370   4.112   2.987   4.530
 4115SOL    HW212371   4.157   2.986   4.372
 4116SOL     OW12372   4.995   3.659   4.315
 4116SOL    HW112373   5.039   3.723   4.251
 4116SOL    HW212374   4.945   3.711   4.385
 4117SOL     OW12375   4.756   2.411   3.740
 4117SOL    HW112376   4.715   2.493   3.701
 4117SOL    HW212377   4.820   2.437   3.813
 4118SOL     OW12378   4.285   2.084   4.871
 4118SOL    HW112379   4.323   2.000   4.908
 4118SOL    HW212380   4.197   2.103   4.915
 4119SOL     OW12381   4.590   2.316   4.366
 4119SOL    HW112382   4.558   2.388   4.304
 4119SOL    HW212383   4.614   2.235   4.313
 4120SOL     OW12384   4.741   1.901   4.477
 4120SOL    HW112385   4.669   1.906   4.408
 4120SOL    HW212386   4.717   1.832   4.546
 4121SOL     OW12387   4.212   3.247   3.898
 4121SOL    HW112388   4.125   3.232   3.945
 4121SOL    HW212389   4.195   3.273   3.803
 4122SOL     OW12390   5.114   2.437   3.802
 4122SOL    HW112391   5.060   2.416   3.883
 4122SOL    HW212392   5.205   2.396   3.811
 4123SOL     OW12393   4.251   2.118   4.052
 4123SOL    HW112394   4.278   2.059   3.977
 4123SOL    HW212395   4.251   2.213   4.021
 4124SOL     OW12396   4.788   3.209   5.064
 4124SOL    HW112397   4.708   3.186   5.119
 4124SOL    HW212398   4.871   3.183   5.113
 4125SOL     OW12399   4.835   3.057   4.824
 4125SOL    HW112400   4.795   3.101   4.905
 4125SOL    HW212401   4.794   3.094   4.741
 4126SOL     OW12402   4.429   2.912   4.092
 4126SOL    HW112403   4.415   2.919   4.191
 4126SOL    HW212404   4.513   2.861   4.074
 4127SOL     OW12405   4.134   2.675   4.975
 4127SOL    HW112406   4.220   2.687   5.025
 4127SOL    HW212407   4.092   2.588   5.002
 4128SOL     OW12408   4.998   2.248   4.986
 4128SOL    HW112409   5.019   2.322   5.050
 4128SOL    HW212410   4.909   2.265   4.943
 4129SOL     OW12411   3.788   3.426   5.055
 4129SOL    HW112412   3.742   3.508   5.021
 4129SOL    HW212413   3.886   3.445   5.064
 4130SOL     OW12414   4.091   2.962   4.225
 4130SOL    HW112415   4.084   3.045   4.169
 4130SOL    HW212416   4.095   2.882   4.165
 4131SOL     OW12417   4.290   2.399   4.589
 4131SOL    HW112418   4.302   2.465   4.515
 4131SOL    HW212419   4.336   2.433   4.672
 4132SOL     OW12420   4.976   3.210   4.112
 4132SOL    HW112421   5.026   3.287   4.152
 4132SOL    HW212422   4.881   3.212   4.144
 4133SOL     OW12423   4.996   3.307   4.866
 4133SOL    HW112424   5.043   3.320   4.953
 4133SOL    HW212425   4.930   3.233   4.875
 4134SOL     OW12426   4.078   3.372   5.053
 4134SOL    HW112427   4.057   3.328   4.966
 4134SOL    HW212428   4.175   3.398   5.056
 4135SOL     OW12429   4.228   1.912   5.464
 4135SOL    HW112430   4.186   1.855   5.394
 4135SOL    HW212431   4.162   1.981   5.496
 4136SOL     OW12432   4.297   2.732   4.753
 4136SOL    HW112433   4.341   2.821   4.744
 4136SOL    HW212434   4.234   2.732   4.830
 4137SOL     OW12435   5.084   2.724   4.769
 4137SOL    HW112436   5.009   2.724   4.703
 4137SOL    HW212437   5.121   2.632   4.778
 4138SOL     OW12438   4.933   2.387   3.999
 4138SOL    HW112439   4.946   2.303   4.053
 4138SOL    HW212440   4.904   2.461   4.059
 4139SOL     OW12441   4.031   2.075   4.955
 4139SOL    HW112442   4.008   2.112   5.045
 4139SOL    HW212443   4.001   1.980   4.949
 4140SOL     OW12444   3.761   3.172   5.006
 4140SOL    HW112445   3.814   3.123   5.074
 4140SOL    HW212446   3.783   3.270   5.011
 4141SOL     OW12447   4.456   2.496   4.788
 4141SOL    HW112448   4.515   2.470   4.712
 4141SOL    HW212449   4.428   2.592   4.777
 4142SOL     OW12450   4.031   1.925   4.342
 4142SOL    HW112451   4.020   2.019   4.375
 4142SOL    HW212452   4.026   1.862   4.419
 4143SOL     OW12453   5.346   2.229   4.098
 4143SOL    HW112454   5.348   2.153   4.162
 4143SOL    HW212455   5.298   2.306   4.138
 4144SOL     OW12456   4.747   2.628   4.690
 4144SOL    HW112457   4.762   2.649   4.786
 4144SOL    HW212458   4.717   2.533   4.681
 4145SOL     OW12459   5.027   2.700   3.766
 4145SOL    HW112460   5.061   2.607   3.781
 4145SOL    HW212461   5.045   2.727   3.671
 4146SOL     OW12462   4.792   3.195   4.573
 4146SOL    HW112463   4.799   3.111   4.518
 4146SOL    HW212464   4.854   3.264   4.537
 4147SOL     OW12465   4.043   2.672   4.673
 4147SOL    HW112466   4.136   2.708   4.678
 4147SOL    HW212467   4.037   2.587   4.725
 4148SOL     OW12468   4.063   2.371   4.730
 4148SOL    HW112469   4.011   2.288   4.713
 4148SOL    HW212470   4.140   2.376   4.666
 4149SOL     OW12471   4.884   2.069   5.201
 4149SOL    HW112472   4.884   2.133   5.278
 4149SOL    HW212473   4.912   2.117   5.118
 4150SOL     OW12474   3.732   3.188   3.924
 4150SOL    HW112475   3.639   3.209   3.893
 4150SOL    HW212476   3.742   3.089   3.937
 4151SOL     OW12477   3.812   3.663   4.651
 4151SOL    HW112478   3.770   3.577   4.624
 4151SOL    HW212479   3.906   3.666   4.617
 4152SOL     OW12480   4.228   3.430   4.634
 4152SOL    HW112481   4.294   3.504   4.643
 4152SOL    HW212482   4.272   3.351   4.592
 4153SOL     OW12483   4.726   2.658   4.962
 4153SOL    HW112484   4.767   2.626   5.048
 4153SOL    HW212485   4.630   2.631   4.959
 4154SOL     OW12486   3.764   2.406   4.838
 4154SOL    HW112487   3.849   2.373   4.797
 4154SOL    HW212488   3.777   2.421   4.936
 4155SOL     OW12489   4.539   2.434   4.049
 4155SOL    HW112490   4.546   2.345   4.003
 4155SOL    HW212491   4.445   2.468   4.041
 4156SOL     OW12492   4.395   2.326   4.993
 4156SOL    HW112493   4.361   2.237   4.963
 4156SOL    HW212494   4.421   2.380   4.913
 4157SOL     OW12495   4.654   3.540   5.189
 4157SOL    HW112496   4.630   3.522   5.094
 4157SOL    HW212497   4.684   3.634   5.199
 4158SOL     OW12498   4.197   2.362   3.915
 4158SOL    HW112499   4.258   2.442   3.919
 4158SOL    HW212500   4.102   2.393   3.922
 4159SOL     OW12501   3.883   2.999   5.190
 4159SOL    HW112502   3.905   2.938   5.266
 4159SOL    HW212503   3.893   2.950   5.104
 4160SOL     OW12504   5.071   2.921   4.958
 4160SOL    HW112505   5.095   2.858   4.884
 4160SOL    HW212506   4.981   2.961   4.940
 4161SOL     OW12507   5.026   2.717   4.033
 4161SOL    HW112508   4.940   2.686   4.075
 4161SOL    HW212509   5.022   2.703   3.934
 4162SOL     OW12510   4.976   3.593   4.852
 4162SOL    HW112511   5.060   3.598   4.798
 4162SOL    HW212512   4.953   3.497   4.870
 4163SOL     OW12513   3.807   3.120   4.746
 4163SOL    HW112514   3.802   3.119   4.846
 4163SOL    HW212515   3.724   3.079   4.708
 4164SOL     OW12516   5.112   3.435   4.201
 4164SOL    HW112517   5.179   3.447   4.127
 4164SOL    HW212518   5.072   3.524   4.224
 4165SOL     OW12519   5.004   2.789   4.396
 4165SOL    HW112520   5.064   2.708   4.398
 4165SOL    HW212521   5.044   2.858   4.336
 4166SOL     OW12522   4.396   3.478   3.878
 4166SOL    HW112523   4.405   3.488   3.779
 4166SOL    HW212524   4.356   3.389   3.899
 4167SOL     OW12525   3.987   2.188   4.444
 4167SOL    HW112526   3.908   2.239   4.410
 4167SOL    HW212527   3.978   2.173   4.542
 4168SOL     OW12528   4.918   3.474   3.755
 4168SOL    HW112529   4.924   3.381   3.792
 4168SOL    HW212530   4.859   3.474   3.675
 4169SOL     OW12531   4.546   2.864   5.096
 4169SOL    HW112532   4.586   2.863   5.004
 4169SOL    HW212533   4.556   2.956   5.136
 4170SOL     OW12534   4.640   2.772   4.015
 4170SOL    HW112535   4.703   2.810   3.947
 4170SOL    HW212536   4.680   2.689   4.054
 4171SOL     OW12537   4.096   3.150   5.214
 4171SOL    HW112538   4.083   3.243   5.180
 4171SOL    HW212539   4.012   3.098   5.201
 4172SOL     OW12540   4.763   2.960   4.420
 4172SOL    HW112541   4.693   2.913   4.474
 4172SOL    HW212542   4.822   2.892   4.377
 4173SOL     OW12543   4.738   2.098   4.695
 4173SOL    HW112544   4.730   2.062   4.602
 4173SOL    HW212545   4.736   2.022   4.760
 4174SOL     OW12546   4.314   3.349   4.215
 4174SOL    HW112547   4.356   3.291   4.145
 4174SOL    HW212548   4.270   3.428   4.171
 4175SOL     OW12549   3.979   3.210   4.014
 4175SOL    HW112550   3.883   3.211   3.987
 4175SOL    HW212551   3.991   3.263   4.098
 4176SOL     OW12552   4.396   2.065   5.213
 4176SOL    HW112553   4.486   2.049   5.173
 4176SOL    HW212554   4.404   2.070   5.312
 4177SOL     OW12555   3.799   2.207   3.757
 4177SOL    HW112556   3.707   2.179   3.728
 4177SOL    HW212557   3.830   2.284   3.701
 4178SOL     OW12558   3.796   2.028   4.042
 4178SOL    HW112559   3.779   2.111   3.988
 4178SOL    HW212560   3.886   1.991   4.020
 4179SOL     OW12561   4.907   3.197   3.843
 4179SOL    HW112562   4.808   3.186   3.845
 4179SOL    HW212563   4.941   3.212   3.936
 4180SOL     OW12564   4.337   2.704   5.155
 4180SOL    HW112565   4.393   2.785   5.138
 4180SOL    HW212566   4.396   2.624   5.158
 4181SOL     OW12567   4.114   3.603   5.284
 4181SOL    HW112568   4.023   3.644   5.282
 4181SOL    HW212569   4.107   3.509   5.316
 4182SOL     OW12570   4.949   2.187   4.173
 4182SOL    HW112571   5.014   2.113   4.162
 4182SOL    HW212572   4.969   2.237   4.257
 4183SOL     OW12573   4.318   2.607   4.376
 4183SOL    HW112574   4.368   2.692   4.357
 4183SOL    HW212575   4.230   2.609   4.328
 4184SOL     OW12576   4.583   3.236   3.740
 4184SOL    HW112577   4.537   3.251   3.828
 4184SOL    HW212578   4.627   3.321   3.710
 4185SOL     OW12579   4.385   3.652   4.677
 4185SOL    HW112580   4.339   3.740   4.664
 4185SOL    HW212581   4.484   3.664   4.670
 4186SOL     OW12582   4.583   2.818   4.585
 4186SOL    HW112583   4.637   2.749   4.633
 4186SOL    HW212584   4.551   2.887   4.651
 4187SOL     OW12585   4.807   2.846   3.811
 4187SOL    HW112586   4.784   2.899   3.729
 4187SOL    HW212587   4.888   2.790   3.792
 4188SOL     OW12588   3.803   3.102   4.377
 4188SOL    HW112589   3.802   3.055   4.465
 4188SOL    HW212590   3.885   3.074   4.326
 4189SOL     OW12591   4.152   2.286   4.244
 4189SOL    HW112592   4.182   2.214   4.182
 4189SOL    HW212593   4.113   2.246   4.327
 4190SOL     OW12594   4.041   2.409   5.004
 4190SOL    HW112595   4.079   2.350   5.076
 4190SOL    HW212596   4.081   2.383   4.916
 4191SOL     OW12597   4.536   3.448   4.411
 4191SOL    HW112598   4.568   3.458   4.317
 4191SOL    HW212599   4.457   3.386   4.413
 4192SOL     OW12600   5.148   2.076   4.836
 4192SOL    HW112601   5.200   2.011   4.891
 4192SOL    HW212602   5.099   2.139   4.897
 4193SOL     OW12603   4.725   1.896   4.878
 4193SOL    HW112604   4.662   1.824   4.847
 4193SOL    HW212605   4.818   1.860   4.878
 4194SOL     OW12606   4.494   3.192   4.025
 4194SOL    HW112607   4.448   3.105   4.042
 4194SOL    HW212608   4.585   3.189   4.066
 4195SOL     OW12609   4.342   3.429   5.008
 4195SOL    HW112610   4.337   3.511   5.065
 4195SOL    HW212611   4.431   3.426   4.963
 4196SOL     OW12612   5.076   1.914   3.892
 4196SOL    HW112613   5.111   1.873   3.808
 4196SOL    HW212614   4.986   1.876   3.912
 4197SOL     OW12615   3.763   2.939   4.024
 4197SOL    HW112616   3.862   2.928   4.015
 4197SOL    HW212617   3.723   2.853   4.056
 4198SOL     OW12618   4.599   3.508   4.061
 4198SOL    HW112619   4.522   3.473   4.007
 4198SOL    HW212620   4.567   3.579   4.123
 4199SOL     OW12621   3.954   4.352   0.113
 4199SOL    HW112622   3.861   4.350   0.150
 4199SOL    HW212623   3.955   4.313   0.021
 4200SOL     OW12624   3.949   3.999   0.996
 4200SOL    HW112625   3.984   3.982   1.088
 4200SOL    HW212626   3.861   3.954   0.984
 4201SOL     OW12627   3.743   4.092   0.647
 4201SOL    HW112628   3.661   4.135   0.686
 4201SOL    HW212629   3.715   4.019   0.584
 4202SOL     OW12630   4.293   4.999   1.165
 4202SOL    HW112631   4.200   4.992   1.128
 4202SOL    HW212632   4.304   5.088   1.209
 4203SOL     OW12633   5.279   5.235   0.703
 4203SOL    HW112634   5.222   5.219   0.784
 4203SOL    HW212635   5.220   5.245   0.623
 4204SOL     OW12636   4.859   4.427   0.717
 4204SOL    HW112637   4.916   4.505   0.692
 4204SOL    HW212638   4.799   4.453   0.793
 4205SOL     OW12639   4.492   4.868   1.023
 4205SOL    HW112640   4.414   4.885   1.083
 4205SOL    HW212641   4.526   4.955   0.987
 4206SOL     OW12642   4.574   4.522   1.823
 4206SOL    HW112643   4.570   4.598   1.888
 4206SOL    HW212644   4.596   4.558   1.732
 4207SOL     OW12645   4.409   4.736   0.665
 4207SOL    HW112646   4.478   4.720   0.735
 4207SOL    HW212647   4.336   4.793   0.703
 4208SOL     OW12648   4.410   4.885   1.803
 4208SOL    HW112649   4.470   4.964   1.817
 4208SOL    HW212650   4.324   4.916   1.762
 4209SOL     OW12651   4.059   5.159   1.061
 4209SOL    HW112652   3.981   5.128   1.008
 4209SOL    HW212653   4.117   5.217   1.004
 4210SOL     OW12654   4.162   4.116   1.499
 4210SOL    HW112655   4.244   4.060   1.508
 4210SOL    HW212656   4.081   4.058   1.503
 4211SOL     OW12657   3.955   5.437   0.483
 4211SOL    HW112658   3.989   5.514   0.537
 4211SOL    HW212659   3.999   5.437   0.393
 4212SOL     OW12660   4.851   5.065   1.690
 4212SOL    HW112661   4.898   5.065   1.778
 4212SOL    HW212662   4.803   4.978   1.679
 4213SOL     OW12663   3.964   4.815   0.886
 4213SOL    HW112664   3.978   4.731   0.938
 4213SOL    HW212665   3.909   4.879   0.941
 4214SOL     OW12666   4.330   4.688   0.123
 4214SOL    HW112667   4.337   4.772   0.069
 4214SOL    HW212668   4.376   4.701   0.211
 4215SOL     OW12669   3.846   4.367   0.563
 4215SOL    HW112670   3.801   4.279   0.580
 4215SOL    HW212671   3.845   4.421   0.647
 4216SOL     OW12672   5.413   4.646   0.612
 4216SOL    HW112673   5.508   4.617   0.620
 4216SOL    HW212674   5.405   4.711   0.537
 4217SOL     OW12675   3.837   4.461   1.597
 4217SOL    HW112676   3.925   4.448   1.642
 4217SOL    HW212677   3.824   4.558   1.575
 4218SOL     OW12678   4.337   5.089   0.726
 4218SOL    HW112679   4.288   5.002   0.735
 4218SOL    HW212680   4.314   5.132   0.639
 4219SOL     OW12681   5.017   4.952   1.423
 4219SOL    HW112682   5.054   4.879   1.365
 4219SOL    HW212683   5.069   4.957   1.508
 4220SOL     OW12684   4.533   3.728   0.502
 4220SOL    HW112685   4.573   3.819   0.493
 4220SOL    HW212686   4.433   3.736   0.508
 4221SOL     OW12687   3.921   4.700   1.264
 4221SOL    HW112688   4.010   4.655   1.250
 4221SOL    HW212689   3.848   4.635   1.245
 4222SOL     OW12690   4.041   3.975   1.801
 4222SOL    HW112691   4.112   4.046   1.807
 4222SOL    HW212692   3.953   4.014   1.829
 4223SOL     OW12693   4.322   4.453   0.270
 4223SOL    HW112694   4.346   4.522   0.202
 4223SOL    HW212695   4.244   4.486   0.324
 4224SOL     OW12696   5.005   4.069   0.944
 4224SOL    HW112697   4.919   4.019   0.931
 4224SOL    HW212698   5.067   4.015   1.000
 4225SOL     OW12699   4.531   4.329   1.465
 4225SOL    HW112700   4.484   4.326   1.554
 4225SOL    HW212701   4.480   4.274   1.399
 4226SOL     OW12702   5.118   4.193   1.674
 4226SOL    HW112703   5.098   4.236   1.762
 4226SOL    HW212704   5.196   4.131   1.683
 4227SOL     OW12705   4.697   4.614   1.572
 4227SOL    HW112706   4.743   4.530   1.543
 4227SOL    HW212707   4.641   4.648   1.497
 4228SOL     OW12708   4.715   4.134   1.242
 4228SOL    HW112709   4.638   4.168   1.296
 4228SOL    HW212710   4.681   4.083   1.163
 4229SOL     OW12711   4.765   4.425   0.429
 4229SOL    HW112712   4.791   4.421   0.525
 4229SOL    HW212713   4.680   4.374   0.415
 4230SOL     OW12714   3.800   4.535   0.789
 4230SOL    HW112715   3.899   4.523   0.798
 4230SOL    HW212716   3.776   4.630   0.810
 4231SOL     OW12717   4.589   4.072   0.195
 4231SOL    HW112718   4.648   4.135   0.146
 4231SOL    HW212719   4.608   3.978   0.166
 4232SOL     OW12720   5.086   4.868   0.545
 4232SOL    HW112721   5.169   4.839   0.497
 4232SOL    HW212722   5.037   4.935   0.489
 4233SOL     OW12723   4.274   3.920   0.885
 4233SOL    HW112724   4.269   3.915   0.985
 4233SOL    HW212725   4.276   4.016   0.856
 4234SOL     OW12726   4.045   4.667   0.242
 4234SOL    HW112727   4.127   4.706   0.200
 4234SOL    HW212728   4.018   4.585   0.193
 4235SOL     OW12729   4.185   4.990   1.727
 4235SOL    HW112730   4.135   4.991   1.641
 4235SOL    HW212731   4.122   4.972   1.803
 4236SOL     OW12732   3.926   4.009   1.498
 4236SOL    HW112733   3.846   4.069   1.485
 4236SOL    HW212734   3.916   3.960   1.584
 4237SOL     OW12735   5.356   5.101   0.081
 4237SOL    HW112736   5.324   5.195   0.071
 4237SOL    HW212737   5.280   5.038   0.069
 4238SOL     OW12738   4.106   4.424   0.480
 4238SOL    HW112739   4.151   4.334   0.477
 4238SOL    HW212740   4.012   4.413   0.513
 4239SOL     OW12741   4.505   3.988   1.749
 4239SOL    HW112742   4.572   3.927   1.792
 4239SOL    HW212743   4.432   4.007   1.814
 4240SOL     OW12744   5.075   4.314   1.433
 4240SOL    HW112745   5.103   4.271   1.518
 4240SOL    HW212746   5.100   4.410   1.434
 4241SOL     OW12747   4.646   4.227   0.899
 4241SOL    HW112748   4.621   4.218   0.803
 4241SOL    HW212749   4.694   4.145   0.930
 4242SOL     OW12750   4.263   3.788   0.512
 4242SOL    HW112751   4.182   3.789   0.570
 4242SOL    HW212752   4.266   3.871   0.457
 4243SOL     OW12753   5.158   4.912   0.041
 4243SOL    HW112754   5.190   4.836   0.098
 4243SOL    HW212755   5.066   4.939   0.071
 4244SOL     OW12756   4.659   3.960   0.480
 4244SOL    HW112757   4.611   4.001   0.402
 4244SOL    HW212758   4.758   3.958   0.461
 4245SOL     OW12759   4.800   4.407   1.464
 4245SOL    HW112760   4.720   4.346   1.467
 4245SOL    HW212761   4.881   4.354   1.440
 4246SOL     OW12762   4.951   5.294   0.793
 4246SOL    HW112763   4.972   5.368   0.728
 4246SOL    HW212764   5.019   5.294   0.866
 4247SOL     OW12765   4.183   4.876   0.741
 4247SOL    HW112766   4.112   4.849   0.806
 4247SOL    HW212767   4.157   4.848   0.648
 4248SOL     OW12768   4.756   4.273   0.016
 4248SOL    HW112769   4.715   4.355  -0.023
 4248SOL    HW212770   4.820   4.299   0.089
 4249SOL     OW12771   3.802   4.280   1.386
 4249SOL    HW112772   3.894   4.279   1.345
 4249SOL    HW212773   3.796   4.354   1.453
 4250SOL     OW12774   4.285   3.946   1.147
 4250SOL    HW112775   4.323   3.862   1.184
 4250SOL    HW212776   4.197   3.965   1.191
 4251SOL     OW12777   4.590   4.178   0.642
 4251SOL    HW112778   4.558   4.250   0.580
 4251SOL    HW212779   4.614   4.097   0.589
 4252SOL     OW12780   4.741   3.763   0.753
 4252SOL    HW112781   4.669   3.768   0.684
 4252SOL    HW212782   4.717   3.694   0.822
 4253SOL     OW12783   5.114   4.299   0.078
 4253SOL    HW112784   5.060   4.278   0.159
 4253SOL    HW212785   5.205   4.258   0.087
 4254SOL     OW12786   4.251   3.980   0.328
 4254SOL    HW112787   4.278   3.921   0.253
 4254SOL    HW212788   4.251   4.075   0.297
 4255SOL     OW12789   4.788   5.071   1.340
 4255SOL    HW112790   4.708   5.048   1.395
 4255SOL    HW212791   4.871   5.045   1.389
 4256SOL     OW12792   4.835   4.919   1.100
 4256SOL    HW112793   4.795   4.963   1.181
 4256SOL    HW212794   4.794   4.956   1.017
 4257SOL     OW12795   4.639   3.813   1.402
 4257SOL    HW112796   4.664   3.793   1.307
 4257SOL    HW212797   4.711   3.869   1.444
 4258SOL     OW12798   4.704   4.840   1.719
 4258SOL    HW112799   4.605   4.846   1.729
 4258SOL    HW212800   4.727   4.760   1.663
 4259SOL     OW12801   4.429   4.774   0.368
 4259SOL    HW112802   4.415   4.781   0.467
 4259SOL    HW212803   4.513   4.723   0.350
 4260SOL     OW12804   4.134   4.537   1.251
 4260SOL    HW112805   4.220   4.549   1.301
 4260SOL    HW212806   4.092   4.450   1.278
 4261SOL     OW12807   4.998   4.110   1.262
 4261SOL    HW112808   5.019   4.184   1.326
 4261SOL    HW212809   4.909   4.127   1.219
 4262SOL     OW12810   4.091   4.824   0.501
 4262SOL    HW112811   4.084   4.907   0.445
 4262SOL    HW212812   4.095   4.744   0.441
 4263SOL     OW12813   4.290   4.261   0.865
 4263SOL    HW112814   4.302   4.327   0.791
 4263SOL    HW212815   4.336   4.295   0.948
 4264SOL     OW12816   4.976   5.072   0.388
 4264SOL    HW112817   5.026   5.149   0.428
 4264SOL    HW212818   4.881   5.074   0.420
 4265SOL     OW12819   4.996   5.169   1.142
 4265SOL    HW112820   5.043   5.182   1.229
 4265SOL    HW212821   4.930   5.095   1.151
 4266SOL     OW12822   4.126   4.475   1.598
 4266SOL    HW112823   4.194   4.530   1.551
 4266SOL    HW212824   4.166   4.387   1.625
 4267SOL     OW12825   4.737   3.829   1.770
 4267SOL    HW112826   4.743   3.914   1.718
 4267SOL    HW212827   4.769   3.753   1.713
 4268SOL     OW12828   4.228   3.774   1.740
 4268SOL    HW112829   4.186   3.717   1.670
 4268SOL    HW212830   4.162   3.843   1.772
 4269SOL     OW12831   4.297   4.594   1.029
 4269SOL    HW112832   4.341   4.683   1.020
 4269SOL    HW212833   4.234   4.594   1.106
 4270SOL     OW12834   5.084   4.586   1.045
 4270SOL    HW112835   5.009   4.586   0.979
 4270SOL    HW212836   5.121   4.494   1.054
 4271SOL     OW12837   4.933   4.249   0.275
 4271SOL    HW112838   4.946   4.165   0.329
 4271SOL    HW212839   4.904   4.323   0.335
 4272SOL     OW12840   4.031   3.937   1.231
 4272SOL    HW112841   4.008   3.974   1.321
 4272SOL    HW212842   4.001   3.842   1.225
 4273SOL     OW12843   3.761   5.034   1.282
 4273SOL    HW112844   3.814   4.985   1.350
 4273SOL    HW212845   3.783   5.132   1.287
 4274SOL     OW12846   4.456   4.358   1.064
 4274SOL    HW112847   4.515   4.332   0.988
 4274SOL    HW212848   4.428   4.454   1.053
 4275SOL     OW12849   4.031   3.787   0.618
 4275SOL    HW112850   4.020   3.881   0.651
 4275SOL    HW212851   4.026   3.724   0.695
 4276SOL     OW12852   5.346   4.091   0.374
 4276SOL    HW112853   5.348   4.015   0.438
 4276SOL    HW212854   5.298   4.168   0.414
 4277SOL     OW12855   4.747   4.490   0.966
 4277SOL    HW112856   4.762   4.511   1.062
 4277SOL    HW212857   4.717   4.395   0.957
 4278SOL     OW12858   4.074   4.622   1.804
 4278SOL    HW112859   4.150   4.666   1.852
 4278SOL    HW212860   4.109   4.575   1.722
 4279SOL     OW12861   5.027   4.562   0.042
 4279SOL    HW112862   5.061   4.469   0.057
 4279SOL    HW212863   5.045   4.589  -0.053
 4280SOL     OW12864   4.043   4.534   0.949
 4280SOL    HW112865   4.136   4.570   0.954
 4280SOL    HW212866   4.037   4.449   1.001
 4281SOL     OW12867   4.063   4.233   1.006
 4281SOL    HW112868   4.011   4.150   0.989
 4281SOL    HW212869   4.140   4.238   0.942
 4282SOL     OW12870   4.862   4.104   1.678
 4282SOL    HW112871   4.817   4.167   1.742
 4282SOL    HW212872   4.955   4.135   1.661
 4283SOL     OW12873   4.884   3.931   1.477
 4283SOL    HW112874   4.884   3.995   1.554
 4283SOL    HW212875   4.912   3.979   1.394
 4284SOL     OW12876   4.726   4.520   1.238
 4284SOL    HW112877   4.767   4.488   1.324
 4284SOL    HW212878   4.630   4.493   1.235
 4285SOL     OW12879   3.764   4.268   1.114
 4285SOL    HW112880   3.849   4.235   1.073
 4285SOL    HW212881   3.777   4.283   1.212
 4286SOL     OW12882   3.913   4.244   1.722
 4286SOL    HW112883   3.972   4.204   1.652
 4286SOL    HW212884   3.855   4.315   1.681
 4287SOL     OW12885   5.093   4.674   1.660
 4287SOL    HW112886   5.132   4.763   1.680
 4287SOL    HW212887   5.103   4.654   1.563
 4288SOL     OW12888   4.539   4.296   0.325
 4288SOL    HW112889   4.546   4.207   0.279
 4288SOL    HW212890   4.445   4.330   0.317
 4289SOL     OW12891   4.395   4.188   1.269
 4289SOL    HW112892   4.361   4.099   1.239
 4289SOL    HW212893   4.421   4.242   1.189
 4290SOL     OW12894   4.197   4.224   0.191
 4290SOL    HW112895   4.258   4.304   0.195
 4290SOL    HW212896   4.102   4.255   0.198
 4291SOL     OW12897   3.883   4.861   1.466
 4291SOL    HW112898   3.905   4.800   1.542
 4291SOL    HW212899   3.893   4.812   1.380
 4292SOL     OW12900   5.071   4.783   1.234
 4292SOL    HW112901   5.095   4.720   1.160
 4292SOL    HW212902   4.981   4.823   1.216
 4293SOL     OW12903   5.026   4.579   0.309
 4293SOL    HW112904   4.940   4.548   0.351
 4293SOL    HW212905   5.022   4.565   0.210
 4294SOL     OW12906   3.807   4.982   1.022
 4294SOL    HW112907   3.802   4.981   1.122
 4294SOL    HW212908   3.724   4.941   0.984
 4295SOL     OW12909   4.627   3.810   0.133
 4295SOL    HW112910   4.678   3.811   0.047
 4295SOL    HW212911   4.683   3.768   0.204
 4296SOL     OW12912   5.004   4.651   0.672
 4296SOL    HW112913   5.064   4.570   0.674
 4296SOL    HW212914   5.044   4.720   0.612
 4297SOL     OW12915   4.554   4.997   1.422
 4297SOL    HW112916   4.549   5.030   1.517
 4297SOL    HW212917   4.468   5.016   1.376
 4298SOL     OW12918   3.987   4.050   0.720
 4298SOL    HW112919   3.908   4.101   0.686
 4298SOL    HW212920   3.978   4.035   0.818
 4299SOL     OW12921   4.546   4.726   1.372
 4299SOL    HW112922   4.586   4.725   1.280
 4299SOL    HW212923   4.556   4.818   1.412
 4300SOL     OW12924   4.640   4.634   0.291
 4300SOL    HW112925   4.703   4.672   0.223
 4300SOL    HW212926   4.680   4.551   0.330
 4301SOL     OW12927   4.096   5.012   1.490
 4301SOL    HW112928   4.083   5.105   1.456
 4301SOL    HW212929   4.012   4.960   1.477
 4302SOL     OW12930   4.763   4.822   0.696
 4302SOL    HW112931   4.693   4.775   0.750
 4302SOL    HW212932   4.822   4.754   0.653
 4303SOL     OW12933   4.738   3.960   0.971
 4303SOL    HW112934   4.730   3.924   0.878
 4303SOL    HW212935   4.736   3.884   1.036
 4304SOL     OW12936   3.829   4.737   1.726
 4304SOL    HW112937   3.752   4.704   1.780
 4304SOL    HW212938   3.914   4.707   1.768
 4305SOL     OW12939   4.396   3.927   1.489
 4305SOL    HW112940   4.486   3.911   1.449
 4305SOL    HW212941   4.404   3.932   1.588
 4306SOL     OW12942   3.799   4.069   0.033
 4306SOL    HW112943   3.707   4.041   0.004
 4306SOL    HW212944   3.830   4.146  -0.023
 4307SOL     OW12945   5.164   4.580   1.398
 4307SOL    HW112946   5.107   4.632   1.335
 4307SOL    HW212947   5.260   4.592   1.374
 4308SOL     OW12948   3.796   3.890   0.318
 4308SOL    HW112949   3.779   3.973   0.264
 4308SOL    HW212950   3.886   3.853   0.296
 4309SOL     OW12951   4.907   5.059   0.119
 4309SOL    HW112952   4.808   5.048   0.121
 4309SOL    HW212953   4.941   5.074   0.212
 4310SOL     OW12954   4.337   4.566   1.431
 4310SOL    HW112955   4.393   4.647   1.414
 4310SOL    HW212956   4.396   4.486   1.434
 4311SOL     OW12957   4.440   4.289   1.708
 4311SOL    HW112958   4.459   4.354   1.782
 4311SOL    HW212959   4.500   4.209   1.717
 4312SOL     OW12960   5.174   4.944   1.633
 4312SOL    HW112961   5.165   4.934   1.732
 4312SOL    HW212962   5.270   4.937   1.607
 4313SOL     OW12963   4.949   4.049   0.449
 4313SOL    HW112964   5.014   3.975   0.438
 4313SOL    HW212965   4.969   4.099   0.533
 4314SOL     OW12966   4.318   4.469   0.652
 4314SOL    HW112967   4.368   4.554   0.633
 4314SOL    HW212968   4.230   4.471   0.604
 4315SOL     OW12969   4.583   4.680   0.861
 4315SOL    HW112970   4.637   4.611   0.909
 4315SOL    HW212971   4.551   4.749   0.927
 4316SOL     OW12972   4.807   4.708   0.087
 4316SOL    HW112973   4.784   4.761   0.005
 4316SOL    HW212974   4.888   4.652   0.068
 4317SOL     OW12975   3.945   5.038   1.844
 4317SOL    HW112976   3.880   4.965   1.823
 4317SOL    HW212977   3.949   5.052   1.942
 4318SOL     OW12978   3.803   4.964   0.653
 4318SOL    HW112979   3.802   4.917   0.741
 4318SOL    HW212980   3.885   4.936   0.602
 4319SOL     OW12981   4.396   5.115   1.624
 4319SOL    HW112982   4.318   5.065   1.662
 4319SOL    HW212983   4.393   5.210   1.655
 4320SOL     OW12984   4.152   4.148   0.520
 4320SOL    HW112985   4.182   4.076   0.458
 4320SOL    HW212986   4.113   4.108   0.603
 4321SOL     OW12987   4.041   4.271   1.280
 4321SOL    HW112988   4.079   4.212   1.352
 4321SOL    HW212989   4.081   4.245   1.192
 4322SOL     OW12990   5.148   3.938   1.112
 4322SOL    HW112991   5.200   3.873   1.167
 4322SOL    HW212992   5.099   4.001   1.173
 4323SOL     OW12993   4.725   3.758   1.154
 4323SOL    HW112994   4.662   3.686   1.123
 4323SOL    HW212995   4.818   3.722   1.154
 4324SOL     OW12996   4.494   5.054   0.301
 4324SOL    HW112997   4.448   4.967   0.318
 4324SOL    HW212998   4.585   5.051   0.342
 4325SOL     OW12999   3.763   4.801   0.300
 4325SOL    HW113000   3.862   4.790   0.291
 4325SOL    HW213001   3.723   4.715   0.332
 4326SOL     OW13002   3.954   4.352   1.975
 4326SOL    HW113003   3.861   4.350   2.012
 4326SOL    HW213004   3.955   4.313   1.883
 4327SOL     OW13005   3.949   3.999   2.858
 4327SOL    HW113006   3.984   3.982   2.950
 4327SOL    HW213007   3.861   3.954   2.846
 4328SOL     OW13008   3.743   4.092   2.509
 4328SOL    HW113009   3.661   4.135   2.548
 4328SOL    HW213010   3.715   4.019   2.446
 4329SOL     OW13011   4.293   4.999   3.027
 4329SOL    HW113012   4.200   4.992   2.990
 4329SOL    HW213013   4.304   5.088   3.071
 4330SOL     OW13014   5.279   5.235   2.565
 4330SOL    HW113015   5.222   5.219   2.646
 4330SOL    HW213016   5.220   5.245   2.485
 4331SOL     OW13017   4.859   4.427   2.579
 4331SOL    HW113018   4.916   4.505   2.554
 4331SOL    HW213019   4.799   4.453   2.655
 4332SOL     OW13020   4.492   4.868   2.885
 4332SOL    HW113021   4.414   4.885   2.945
 4332SOL    HW213022   4.526   4.955   2.849
 4333SOL     OW13023   4.574   4.522   3.685
 4333SOL    HW113024   4.570   4.598   3.750
 4333SOL    HW213025   4.596   4.558   3.594
 4334SOL     OW13026   4.409   4.736   2.527
 4334SOL    HW113027   4.478   4.720   2.597
 4334SOL    HW213028   4.336   4.793   2.565
 4335SOL     OW13029   4.410   4.885   3.665
 4335SOL    HW113030   4.470   4.964   3.679
 4335SOL    HW213031   4.324   4.916   3.624
 4336SOL     OW13032   4.059   5.159   2.923
 4336SOL    HW113033   3.981   5.128   2.870
 4336SOL    HW213034   4.117   5.217   2.866
 4337SOL     OW13035   4.162   4.116   3.361
 4337SOL    HW113036   4.244   4.060   3.370
 4337SOL    HW213037   4.081   4.058   3.365
 4338SOL     OW13038   3.955   5.437   2.345
 4338SOL    HW113039   3.989   5.514   2.399
 4338SOL    HW213040   3.999   5.437   2.255
 4339SOL     OW13041   4.851   5.065   3.552
 4339SOL    HW113042   4.898   5.065   3.640
 4339SOL    HW213043   4.803   4.978   3.541
 4340SOL     OW13044   3.964   4.815   2.748
 4340SOL    HW113045   3.978   4.731   2.800
 4340SOL    HW213046   3.909   4.879   2.803
 4341SOL     OW13047   4.330   4.688   1.985
 4341SOL    HW113048   4.337   4.772   1.931
 4341SOL    HW213049   4.376   4.701   2.073
 4342SOL     OW13050   3.846   4.367   2.425
 4342SOL    HW113051   3.801   4.279   2.442
 4342SOL    HW213052   3.845   4.421   2.509
 4343SOL     OW13053   5.413   4.646   2.474
 4343SOL    HW113054   5.508   4.617   2.482
 4343SOL    HW213055   5.405   4.711   2.399
 4344SOL     OW13056   3.837   4.461   3.459
 4344SOL    HW113057   3.925   4.448   3.504
 4344SOL    HW213058   3.824   4.558   3.437
 4345SOL     OW13059   4.337   5.089   2.588
 4345SOL    HW113060   4.288   5.002   2.597
 4345SOL    HW213061   4.314   5.132   2.501
 4346SOL     OW13062   5.017   4.952   3.285
 4346SOL    HW113063   5.054   4.879   3.227
 4346SOL    HW213064   5.069   4.957   3.370
 4347SOL     OW13065   4.533   3.728   2.364
 4347SOL    HW113066   4.573   3.819   2.355
 4347SOL    HW213067   4.433   3.736   2.370
 4348SOL     OW13068   3.921   4.700   3.126
 4348SOL    HW113069   4.010   4.655   3.112
 4348SOL    HW213070   3.848   4.635   3.107
 4349SOL     OW13071   4.041   3.975   3.663
 4349SOL    HW113072   4.112   4.046   3.669
 4349SOL    HW213073   3.953   4.014   3.691
 4350SOL     OW13074   4.322   4.453   2.132
 4350SOL    HW113075   4.346   4.522   2.064
 4350SOL    HW213076   4.244   4.486   2.186
 4351SOL     OW13077   5.005   4.069   2.806
 4351SOL    HW113078   4.919   4.019   2.793
 4351SOL    HW213079   5.067   4.015   2.862
 4352SOL     OW13080   4.531   4.329   3.327
 4352SOL    HW113081   4.484   4.326   3.416
 4352SOL    HW213082   4.480   4.274   3.261
 4353SOL     OW13083   5.118   4.193   3.536
 4353SOL    HW113084   5.098   4.236   3.624
 4353SOL    HW213085   5.196   4.131   3.545
 4354SOL     OW13086   4.697   4.614   3.434
 4354SOL    HW113087   4.743   4.530   3.405
 4354SOL    HW213088   4.641   4.648   3.359
 4355SOL     OW13089   4.715   4.134   3.104
 4355SOL    HW113090   4.638   4.168   3.158
 4355SOL    HW213091   4.681   4.083   3.025
 4356SOL     OW13092   4.765   4.425   2.291
 4356SOL    HW113093   4.791   4.421   2.387
 4356SOL    HW213094   4.680   4.374   2.277
 4357SOL     OW13095   3.800   4.535   2.651
 4357SOL    HW113096   3.899   4.523   2.660
 4357SOL    HW213097   3.776   4.630   2.672
 4358SOL     OW13098   4.589   4.072   2.057
 4358SOL    HW113099   4.648   4.135   2.008
 4358SOL    HW213100   4.608   3.978   2.028
 4359SOL     OW13101   5.086   4.868   2.407
 4359SOL    HW113102   5.169   4.839   2.359
 4359SOL    HW213103   5.037   4.935   2.351
 4360SOL     OW13104   4.274   3.920   2.747
 4360SOL    HW113105   4.269   3.915   2.847
 4360SOL    HW213106   4.276   4.016   2.718
 4361SOL     OW13107   4.045   4.667   2.104
 4361SOL    HW113108   4.127   4.706   2.062
 4361SOL    HW213109   4.018   4.585   2.055
 4362SOL     OW13110   4.185   4.990   3.589
 4362SOL    HW113111   4.135   4.991   3.503
 4362SOL    HW213112   4.122   4.972   3.665
 4363SOL     OW13113   4.835   5.500   2.099
 4363SOL    HW113114   4.775   5.438   2.149
 4363SOL    HW213115   4.866   5.456   2.014
 4364SOL     OW13116   3.926   4.009   3.360
 4364SOL    HW113117   3.846   4.069   3.347
 4364SOL    HW213118   3.916   3.960   3.446
 4365SOL     OW13119   4.106   4.424   2.342
 4365SOL    HW113120   4.151   4.334   2.339
 4365SOL    HW213121   4.012   4.413   2.375
 4366SOL     OW13122   4.338   3.846   1.979
 4366SOL    HW113123   4.436   3.824   1.986
 4366SOL    HW213124   4.307   3.829   1.886
 4367SOL     OW13125   4.505   3.988   3.611
 4367SOL    HW113126   4.572   3.927   3.654
 4367SOL    HW213127   4.432   4.007   3.676
 4368SOL     OW13128   5.075   4.314   3.295
 4368SOL    HW113129   5.103   4.271   3.380
 4368SOL    HW213130   5.100   4.410   3.296
 4369SOL     OW13131   4.646   4.227   2.761
 4369SOL    HW113132   4.621   4.218   2.665
 4369SOL    HW213133   4.694   4.145   2.792
 4370SOL     OW13134   4.263   3.788   2.374
 4370SOL    HW113135   4.182   3.789   2.432
 4370SOL    HW213136   4.266   3.871   2.319
 4371SOL     OW13137   5.158   4.912   1.903
 4371SOL    HW113138   5.190   4.836   1.960
 4371SOL    HW213139   5.066   4.939   1.933
 4372SOL     OW13140   4.021   3.759   2.033
 4372SOL    HW113141   4.070   3.843   2.012
 4372SOL    HW213142   4.083   3.694   2.078
 4373SOL     OW13143   4.659   3.960   2.342
 4373SOL    HW113144   4.611   4.001   2.264
 4373SOL    HW213145   4.758   3.958   2.323
 4374SOL     OW13146   4.800   4.407   3.326
 4374SOL    HW113147   4.720   4.346   3.329
 4374SOL    HW213148   4.881   4.354   3.302
 4375SOL     OW13149   4.951   5.294   2.655
 4375SOL    HW113150   4.972   5.368   2.590
 4375SOL    HW213151   5.019   5.294   2.728
 4376SOL     OW13152   4.183   4.876   2.603
 4376SOL    HW113153   4.112   4.849   2.668
 4376SOL    HW213154   4.157   4.848   2.510
 4377SOL     OW13155   4.756   4.273   1.878
 4377SOL    HW113156   4.715   4.355   1.839
 4377SOL    HW213157   4.820   4.299   1.951
 4378SOL     OW13158   3.802   4.280   3.248
 4378SOL    HW113159   3.894   4.279   3.207
 4378SOL    HW213160   3.796   4.354   3.315
 4379SOL     OW13161   4.285   3.946   3.009
 4379SOL    HW113162   4.323   3.862   3.046
 4379SOL    HW213163   4.197   3.965   3.053
 4380SOL     OW13164   4.590   4.178   2.504
 4380SOL    HW113165   4.558   4.250   2.442
 4380SOL    HW213166   4.614   4.097   2.451
 4381SOL     OW13167   4.741   3.763   2.615
 4381SOL    HW113168   4.669   3.768   2.546
 4381SOL    HW213169   4.717   3.694   2.684
 4382SOL     OW13170   5.114   4.299   1.940
 4382SOL    HW113171   5.060   4.278   2.021
 4382SOL    HW213172   5.205   4.258   1.949
 4383SOL     OW13173   4.251   3.980   2.190
 4383SOL    HW113174   4.278   3.921   2.115
 4383SOL    HW213175   4.251   4.075   2.159
 4384SOL     OW13176   4.788   5.071   3.202
 4384SOL    HW113177   4.708   5.048   3.257
 4384SOL    HW213178   4.871   5.045   3.251
 4385SOL     OW13179   4.835   4.919   2.962
 4385SOL    HW113180   4.795   4.963   3.043
 4385SOL    HW213181   4.794   4.956   2.879
 4386SOL     OW13182   4.639   3.813   3.264
 4386SOL    HW113183   4.664   3.793   3.169
 4386SOL    HW213184   4.711   3.869   3.306
 4387SOL     OW13185   4.704   4.840   3.581
 4387SOL    HW113186   4.605   4.846   3.591
 4387SOL    HW213187   4.727   4.760   3.525
 4388SOL     OW13188   4.429   4.774   2.230
 4388SOL    HW113189   4.415   4.781   2.329
 4388SOL    HW213190   4.513   4.723   2.212
 4389SOL     OW13191   4.134   4.537   3.113
 4389SOL    HW113192   4.220   4.549   3.163
 4389SOL    HW213193   4.092   4.450   3.140
 4390SOL     OW13194   4.998   4.110   3.124
 4390SOL    HW113195   5.019   4.184   3.188
 4390SOL    HW213196   4.909   4.127   3.081
 4391SOL     OW13197   4.091   4.824   2.363
 4391SOL    HW113198   4.084   4.907   2.307
 4391SOL    HW213199   4.095   4.744   2.303
 4392SOL     OW13200   4.290   4.261   2.727
 4392SOL    HW113201   4.302   4.327   2.653
 4392SOL    HW213202   4.336   4.295   2.810
 4393SOL     OW13203   4.976   5.072   2.250
 4393SOL    HW113204   5.026   5.149   2.290
 4393SOL    HW213205   4.881   5.074   2.282
 4394SOL     OW13206   4.996   5.169   3.004
 4394SOL    HW113207   5.043   5.182   3.091
 4394SOL    HW213208   4.930   5.095   3.013
 4395SOL     OW13209   4.126   4.475   3.460
 4395SOL    HW113210   4.194   4.530   3.413
 4395SOL    HW213211   4.166   4.387   3.487
 4396SOL     OW13212   4.737   3.829   3.632
 4396SOL    HW113213   4.743   3.914   3.580
 4396SOL    HW213214   4.769   3.753   3.575
 4397SOL     OW13215   4.228   3.774   3.602
 4397SOL    HW113216   4.186   3.717   3.532
 4397SOL    HW213217   4.162   3.843   3.634
 4398SOL     OW13218   4.297   4.594   2.891
 4398SOL    HW113219   4.341   4.683   2.882
 4398SOL    HW213220   4.234   4.594   2.968
 4399SOL     OW13221   5.084   4.586   2.907
 4399SOL    HW113222   5.009   4.586   2.841
 4399SOL    HW213223   5.121   4.494   2.916
 4400SOL     OW13224   4.933   4.249   2.137
 4400SOL    HW113225   4.946   4.165   2.191
 4400SOL    HW213226   4.904   4.323   2.197
 4401SOL     OW13227   4.031   3.937   3.093
 4401SOL    HW113228   4.008   3.974   3.183
 4401SOL    HW213229   4.001   3.842   3.087
 4402SOL     OW13230   3.761   5.034   3.144
 4402SOL    HW113231   3.814   4.985   3.212
 4402SOL    HW213232   3.783   5.132   3.149
 4403SOL     OW13233   4.456   4.358   2.926
 4403SOL    HW113234   4.515   4.332   2.850
 4403SOL    HW213235   4.428   4.454   2.915
 4404SOL     OW13236   4.031   3.787   2.480
 4404SOL    HW113237   4.020   3.881   2.513
 4404SOL    HW213238   4.026   3.724   2.557
 4405SOL     OW13239   5.346   4.091   2.236
 4405SOL    HW113240   5.348   4.015   2.300
 4405SOL    HW213241   5.298   4.168   2.276
 4406SOL     OW13242   4.747   4.490   2.828
 4406SOL    HW113243   4.762   4.511   2.924
 4406SOL    HW213244   4.717   4.395   2.819
 4407SOL     OW13245   4.074   4.622   3.666
 4407SOL    HW113246   4.150   4.666   3.714
 4407SOL    HW213247   4.109   4.575   3.584
 4408SOL     OW13248   5.027   4.562   1.904
 4408SOL    HW113249   5.061   4.469   1.919
 4408SOL    HW213250   5.045   4.589   1.809
 4409SOL     OW13251   4.043   4.534   2.811
 4409SOL    HW113252   4.136   4.570   2.816
 4409SOL    HW213253   4.037   4.449   2.863
 4410SOL     OW13254   4.063   4.233   2.868
 4410SOL    HW113255   4.011   4.150   2.851
 4410SOL    HW213256   4.140   4.238   2.804
 4411SOL     OW13257   4.862   4.104   3.540
 4411SOL    HW113258   4.817   4.167   3.604
 4411SOL    HW213259   4.955   4.135   3.523
 4412SOL     OW13260   4.884   3.931   3.339
 4412SOL    HW113261   4.884   3.995   3.416
 4412SOL    HW213262   4.912   3.979   3.256
 4413SOL     OW13263   3.732   5.050   2.062
 4413SOL    HW113264   3.639   5.071   2.031
 4413SOL    HW213265   3.742   4.951   2.075
 4414SOL     OW13266   4.726   4.520   3.100
 4414SOL    HW113267   4.767   4.488   3.186
 4414SOL    HW213268   4.630   4.493   3.097
 4415SOL     OW13269   3.764   4.268   2.976
 4415SOL    HW113270   3.849   4.235   2.935
 4415SOL    HW213271   3.777   4.283   3.074
 4416SOL     OW13272   3.913   4.244   3.584
 4416SOL    HW113273   3.972   4.204   3.514
 4416SOL    HW213274   3.855   4.315   3.543
 4417SOL     OW13275   5.093   4.674   3.522
 4417SOL    HW113276   5.132   4.763   3.542
 4417SOL    HW213277   5.103   4.654   3.425
 4418SOL     OW13278   4.539   4.296   2.187
 4418SOL    HW113279   4.546   4.207   2.141
 4418SOL    HW213280   4.445   4.330   2.179
 4419SOL     OW13281   4.395   4.188   3.131
 4419SOL    HW113282   4.361   4.099   3.101
 4419SOL    HW213283   4.421   4.242   3.051
 4420SOL     OW13284   4.197   4.224   2.053
 4420SOL    HW113285   4.258   4.304   2.057
 4420SOL    HW213286   4.102   4.255   2.060
 4421SOL     OW13287   3.883   4.861   3.328
 4421SOL    HW113288   3.905   4.800   3.404
 4421SOL    HW213289   3.893   4.812   3.242
 4422SOL     OW13290   5.071   4.783   3.096
 4422SOL    HW113291   5.095   4.720   3.022
 4422SOL    HW213292   4.981   4.823   3.078
 4423SOL     OW13293   5.026   4.579   2.171
 4423SOL    HW113294   4.940   4.548   2.213
 4423SOL    HW213295   5.022   4.565   2.072
 4424SOL     OW13296   3.807   4.982   2.884
 4424SOL    HW113297   3.802   4.981   2.984
 4424SOL    HW213298   3.724   4.941   2.846
 4425SOL     OW13299   5.004   4.651   2.534
 4425SOL    HW113300   5.064   4.570   2.536
 4425SOL    HW213301   5.044   4.720   2.474
 4426SOL     OW13302   4.554   4.997   3.284
 4426SOL    HW113303   4.549   5.030   3.379
 4426SOL    HW213304   4.468   5.016   3.238
 4427SOL     OW13305   3.987   4.050   2.582
 4427SOL    HW113306   3.908   4.101   2.548
 4427SOL    HW213307   3.978   4.035   2.680
 4428SOL     OW13308   4.546   4.726   3.234
 4428SOL    HW113309   4.586   4.725   3.142
 4428SOL    HW213310   4.556   4.818   3.274
 4429SOL     OW13311   4.640   4.634   2.153
 4429SOL    HW113312   4.703   4.672   2.085
 4429SOL    HW213313   4.680   4.551   2.192
 4430SOL     OW13314   5.228   5.331   1.906
 4430SOL    HW113315   5.136   5.368   1.913
 4430SOL    HW213316   5.266   5.351   1.816
 4431SOL     OW13317   4.096   5.012   3.352
 4431SOL    HW113318   4.083   5.105   3.318
 4431SOL    HW213319   4.012   4.960   3.339
 4432SOL     OW13320   4.763   4.822   2.558
 4432SOL    HW113321   4.693   4.775   2.612
 4432SOL    HW213322   4.822   4.754   2.515
 4433SOL     OW13323   4.738   3.960   2.833
 4433SOL    HW113324   4.730   3.924   2.740
 4433SOL    HW213325   4.736   3.884   2.898
 4434SOL     OW13326   3.829   4.737   3.588
 4434SOL    HW113327   3.752   4.704   3.642
 4434SOL    HW213328   3.914   4.707   3.630
 4435SOL     OW13329   4.396   3.927   3.351
 4435SOL    HW113330   4.486   3.911   3.311
 4435SOL    HW213331   4.404   3.932   3.450
 4436SOL     OW13332   3.799   4.069   1.895
 4436SOL    HW113333   3.707   4.041   1.866
 4436SOL    HW213334   3.830   4.146   1.839
 4437SOL     OW13335   5.164   4.580   3.260
 4437SOL    HW113336   5.107   4.632   3.197
 4437SOL    HW213337   5.260   4.592   3.236
 4438SOL     OW13338   3.796   3.890   2.180
 4438SOL    HW113339   3.779   3.973   2.126
 4438SOL    HW213340   3.886   3.853   2.158
 4439SOL     OW13341   4.907   5.059   1.981
 4439SOL    HW113342   4.808   5.048   1.983
 4439SOL    HW213343   4.941   5.074   2.074
 4440SOL     OW13344   4.337   4.566   3.293
 4440SOL    HW113345   4.393   4.647   3.276
 4440SOL    HW213346   4.396   4.486   3.296
 4441SOL     OW13347   4.440   4.289   3.570
 4441SOL    HW113348   4.459   4.354   3.644
 4441SOL    HW213349   4.500   4.209   3.579
 4442SOL     OW13350   5.174   4.944   3.495
 4442SOL    HW113351   5.165   4.934   3.594
 4442SOL    HW213352   5.270   4.937   3.469
 4443SOL     OW13353   4.949   4.049   2.311
 4443SOL    HW113354   5.014   3.975   2.300
 4443SOL    HW213355   4.969   4.099   2.395
 4444SOL     OW13356   4.318   4.469   2.514
 4444SOL    HW113357   4.368   4.554   2.495
 4444SOL    HW213358   4.230   4.471   2.466
 4445SOL     OW13359   4.583   5.098   1.878
 4445SOL    HW113360   4.537   5.113   1.966
 4445SOL    HW213361   4.627   5.183   1.848
 4446SOL     OW13362   4.583   4.680   2.723
 4446SOL    HW113363   4.637   4.611   2.771
 4446SOL    HW213364   4.551   4.749   2.789
 4447SOL     OW13365   4.807   4.708   1.949
 4447SOL    HW113366   4.784   4.761   1.867
 4447SOL    HW213367   4.888   4.652   1.930
 4448SOL     OW13368   3.945   5.038   3.706
 4448SOL    HW113369   3.880   4.965   3.685
 4448SOL    HW213370   3.949   5.052   3.804
 4449SOL     OW13371   3.803   4.964   2.515
 4449SOL    HW113372   3.802   4.917   2.603
 4449SOL    HW213373   3.885   4.936   2.464
 4450SOL     OW13374   4.396   5.115   3.486
 4450SOL    HW113375   4.318   5.065   3.524
 4450SOL    HW213376   4.393   5.210   3.517
 4451SOL     OW13377   4.152   4.148   2.382
 4451SOL    HW113378   4.182   4.076   2.320
 4451SOL    HW213379   4.113   4.108   2.465
 4452SOL     OW13380   4.041   4.271   3.142
 4452SOL    HW113381   4.079   4.212   3.214
 4452SOL    HW213382   4.081   4.245   3.054
 4453SOL     OW13383   5.148   3.938   2.974
 4453SOL    HW113384   5.200   3.873   3.029
 4453SOL    HW213385   5.099   4.001   3.035
 4454SOL     OW13386   4.725   3.758   3.016
 4454SOL    HW113387   4.662   3.686   2.985
 4454SOL    HW213388   4.818   3.722   3.016
 4455SOL     OW13389   4.494   5.054   2.163
 4455SOL    HW113390   4.448   4.967   2.180
 4455SOL    HW213391   4.585   5.051   2.204
 4456SOL     OW13392   5.076   3.776   2.030
 4456SOL    HW113393   5.111   3.735   1.946
 4456SOL    HW213394   4.986   3.738   2.050
 4457SOL     OW13395   3.763   4.801   2.162
 4457SOL    HW113396   3.862   4.790   2.153
 4457SOL    HW213397   3.723   4.715   2.194
 4458SOL     OW13398   3.954   4.352   3.837
 4458SOL    HW113399   3.861   4.350   3.874
 4458SOL    HW213400   3.955   4.313   3.745
 4459SOL     OW13401   3.949   3.999   4.720
 4459SOL    HW113402   3.984   3.982   4.812
 4459SOL    HW213403   3.861   3.954   4.708
 4460SOL     OW13404   3.743   4.092   4.371
 4460SOL    HW113405   3.661   4.135   4.410
 4460SOL    HW213406   3.715   4.019   4.308
 4461SOL     OW13407   4.293   4.999   4.889
 4461SOL    HW113408   4.200   4.992   4.852
 4461SOL    HW213409   4.304   5.088   4.933
 4462SOL     OW13410   5.279   5.235   4.427
 4462SOL    HW113411   5.222   5.219   4.508
 4462SOL    HW213412   5.220   5.245   4.347
 4463SOL     OW13413   4.859   4.427   4.441
 4463SOL    HW113414   4.916   4.505   4.416
 4463SOL    HW213415   4.799   4.453   4.517
 4464SOL     OW13416   4.492   4.868   4.747
 4464SOL    HW113417   4.414   4.885   4.807
 4464SOL    HW213418   4.526   4.955   4.711
 4465SOL     OW13419   4.409   4.736   4.389
 4465SOL    HW113420   4.478   4.720   4.459
 4465SOL    HW213421   4.336   4.793   4.427
 4466SOL     OW13422   4.059   5.159   4.785
 4466SOL    HW113423   3.981   5.128   4.732
 4466SOL    HW213424   4.117   5.217   4.728
 4467SOL     OW13425   4.162   4.116   5.223
 4467SOL    HW113426   4.244   4.060   5.232
 4467SOL    HW213427   4.081   4.058   5.227
 4468SOL     OW13428   3.955   5.437   4.207
 4468SOL    HW113429   3.989   5.514   4.261
 4468SOL    HW213430   3.999   5.437   4.117
 4469SOL     OW13431   3.964   4.815   4.610
 4469SOL    HW113432   3.978   4.731   4.662
 4469SOL    HW213433   3.909   4.879   4.665
 4470SOL     OW13434   4.330   4.688   3.847
 4470SOL    HW113435   4.337   4.772   3.793
 4470SOL    HW213436   4.376   4.701   3.935
 4471SOL     OW13437   5.318   3.838   5.204
 4471SOL    HW113438   5.300   3.905   5.132
 4471SOL    HW213439   5.315   3.884   5.293
 4472SOL     OW13440   3.846   4.367   4.287
 4472SOL    HW113441   3.801   4.279   4.304
 4472SOL    HW213442   3.845   4.421   4.371
 4473SOL     OW13443   5.413   4.646   4.336
 4473SOL    HW113444   5.508   4.617   4.344
 4473SOL    HW213445   5.405   4.711   4.261
 4474SOL     OW13446   4.337   5.089   4.450
 4474SOL    HW113447   4.288   5.002   4.459
 4474SOL    HW213448   4.314   5.132   4.363
 4475SOL     OW13449   4.533   3.728   4.226
 4475SOL    HW113450   4.573   3.819   4.217
 4475SOL    HW213451   4.433   3.736   4.232
 4476SOL     OW13452   3.921   4.700   4.988
 4476SOL    HW113453   4.010   4.655   4.974
 4476SOL    HW213454   3.848   4.635   4.969
 4477SOL     OW13455   4.322   4.453   3.994
 4477SOL    HW113456   4.346   4.522   3.926
 4477SOL    HW213457   4.244   4.486   4.048
 4478SOL     OW13458   5.005   4.069   4.668
 4478SOL    HW113459   4.919   4.019   4.655
 4478SOL    HW213460   5.067   4.015   4.724
 4479SOL     OW13461   4.531   4.329   5.189
 4479SOL    HW113462   4.484   4.326   5.278
 4479SOL    HW213463   4.480   4.274   5.123
 4480SOL     OW13464   4.715   4.134   4.966
 4480SOL    HW113465   4.638   4.168   5.020
 4480SOL    HW213466   4.681   4.083   4.887
 4481SOL     OW13467   4.765   4.425   4.153
 4481SOL    HW113468   4.791   4.421   4.249
 4481SOL    HW213469   4.680   4.374   4.139
 4482SOL     OW13470   3.800   4.535   4.513
 4482SOL    HW113471   3.899   4.523   4.522
 4482SOL    HW213472   3.776   4.630   4.534
 4483SOL     OW13473   4.589   4.072   3.919
 4483SOL    HW113474   4.648   4.135   3.870
 4483SOL    HW213475   4.608   3.978   3.890
 4484SOL     OW13476   5.086   4.868   4.269
 4484SOL    HW113477   5.169   4.839   4.221
 4484SOL    HW213478   5.037   4.935   4.213
 4485SOL     OW13479   4.274   3.920   4.609
 4485SOL    HW113480   4.269   3.915   4.709
 4485SOL    HW213481   4.276   4.016   4.580
 4486SOL     OW13482   4.045   4.667   3.966
 4486SOL    HW113483   4.127   4.706   3.924
 4486SOL    HW213484   4.018   4.585   3.917
 4487SOL     OW13485   4.835   5.500   3.961
 4487SOL    HW113486   4.775   5.438   4.011
 4487SOL    HW213487   4.866   5.456   3.876
 4488SOL     OW13488   4.106   4.424   4.204
 4488SOL    HW113489   4.151   4.334   4.201
 4488SOL    HW213490   4.012   4.413   4.237
 4489SOL     OW13491   4.338   3.846   3.841
 4489SOL    HW113492   4.436   3.824   3.848
 4489SOL    HW213493   4.307   3.829   3.748
 4490SOL     OW13494   4.646   4.227   4.623
 4490SOL    HW113495   4.621   4.218   4.527
 4490SOL    HW213496   4.694   4.145   4.654
 4491SOL     OW13497   4.263   3.788   4.236
 4491SOL    HW113498   4.182   3.789   4.294
 4491SOL    HW213499   4.266   3.871   4.181
 4492SOL     OW13500   5.158   4.912   3.765
 4492SOL    HW113501   5.190   4.836   3.822
 4492SOL    HW213502   5.066   4.939   3.795
 4493SOL     OW13503   4.021   3.759   3.895
 4493SOL    HW113504   4.070   3.843   3.874
 4493SOL    HW213505   4.083   3.694   3.940
 4494SOL     OW13506   4.659   3.960   4.204
 4494SOL    HW113507   4.611   4.001   4.126
 4494SOL    HW213508   4.758   3.958   4.185
 4495SOL     OW13509   4.951   5.294   4.517
 4495SOL    HW113510   4.972   5.368   4.452
 4495SOL    HW213511   5.019   5.294   4.590
 4496SOL     OW13512   4.183   4.876   4.465
 4496SOL    HW113513   4.112   4.849   4.530
 4496SOL    HW213514   4.157   4.848   4.372
 4497SOL     OW13515   4.756   4.273   3.740
 4497SOL    HW113516   4.715   4.355   3.701
 4497SOL    HW213517   4.820   4.299   3.813
 4498SOL     OW13518   4.285   3.946   4.871
 4498SOL    HW113519   4.323   3.862   4.908
 4498SOL    HW213520   4.197   3.965   4.915
 4499SOL     OW13521   4.590   4.178   4.366
 4499SOL    HW113522   4.558   4.250   4.304
 4499SOL    HW213523   4.614   4.097   4.313
 4500SOL     OW13524   4.741   3.763   4.477
 4500SOL    HW113525   4.669   3.768   4.408
 4500SOL    HW213526   4.717   3.694   4.546
 4501SOL     OW13527   5.114   4.299   3.802
 4501SOL    HW113528   5.060   4.278   3.883
 4501SOL    HW213529   5.205   4.258   3.811
 4502SOL     OW13530   4.251   3.980   4.052
 4502SOL    HW113531   4.278   3.921   3.977
 4502SOL    HW213532   4.251   4.075   4.021
 4503SOL     OW13533   4.788   5.071   5.064
 4503SOL    HW113534   4.708   5.048   5.119
 4503SOL    HW213535   4.871   5.045   5.113
 4504SOL     OW13536   4.835   4.919   4.824
 4504SOL    HW113537   4.795   4.963   4.905
 4504SOL    HW213538   4.794   4.956   4.741
 4505SOL     OW13539   4.429   4.774   4.092
 4505SOL    HW113540   4.415   4.781   4.191
 4505SOL    HW213541   4.513   4.723   4.074
 4506SOL     OW13542   4.134   4.537   4.975
 4506SOL    HW113543   4.220   4.549   5.025
 4506SOL    HW213544   4.092   4.450   5.002
 4507SOL     OW13545   4.998   4.110   4.986
 4507SOL    HW113546   5.019   4.184   5.050
 4507SOL    HW213547   4.909   4.127   4.943
 4508SOL     OW13548   4.091   4.824   4.225
 4508SOL    HW113549   4.084   4.907   4.169
 4508SOL    HW213550   4.095   4.744   4.165
 4509SOL     OW13551   4.290   4.261   4.589
 4509SOL    HW113552   4.302   4.327   4.515
 4509SOL    HW213553   4.336   4.295   4.672
 4510SOL     OW13554   4.976   5.072   4.112
 4510SOL    HW113555   5.026   5.149   4.152
 4510SOL    HW213556   4.881   5.074   4.144
 4511SOL     OW13557   4.996   5.169   4.866
 4511SOL    HW113558   5.043   5.182   4.953
 4511SOL    HW213559   4.930   5.095   4.875
 4512SOL     OW13560   4.228   3.774   5.464
 4512SOL    HW113561   4.186   3.717   5.394
 4512SOL    HW213562   4.162   3.843   5.496
 4513SOL     OW13563   4.297   4.594   4.753
 4513SOL    HW113564   4.341   4.683   4.744
 4513SOL    HW213565   4.234   4.594   4.830
 4514SOL     OW13566   5.084   4.586   4.769
 4514SOL    HW113567   5.009   4.586   4.703
 4514SOL    HW213568   5.121   4.494   4.778
 4515SOL     OW13569   4.933   4.249   3.999
 4515SOL    HW113570   4.946   4.165   4.053
 4515SOL    HW213571   4.904   4.323   4.059
 4516SOL     OW13572   4.031   3.937   4.955
 4516SOL    HW113573   4.008   3.974   5.045
 4516SOL    HW213574   4.001   3.842   4.949
 4517SOL     OW13575   3.761   5.034   5.006
 4517SOL    HW113576   3.814   4.985   5.074
 4517SOL    HW213577   3.783   5.132   5.011
 4518SOL     OW13578   4.456   4.358   4.788
 4518SOL    HW113579   4.515   4.332   4.712
 4518SOL    HW213580   4.428   4.454   4.777
 4519SOL     OW13581   4.031   3.787   4.342
 4519SOL    HW113582   4.020   3.881   4.375
 4519SOL    HW213583   4.026   3.724   4.419
 4520SOL     OW13584   5.346   4.091   4.098
 4520SOL    HW113585   5.348   4.015   4.162
 4520SOL    HW213586   5.298   4.168   4.138
 4521SOL     OW13587   4.747   4.490   4.690
 4521SOL    HW113588   4.762   4.511   4.786
 4521SOL    HW213589   4.717   4.395   4.681
 4522SOL     OW13590   5.027   4.562   3.766
 4522SOL    HW113591   5.061   4.469   3.781
 4522SOL    HW213592   5.045   4.589   3.671
 4523SOL     OW13593   4.043   4.534   4.673
 4523SOL    HW113594   4.136   4.570   4.678
 4523SOL    HW213595   4.037   4.449   4.725
 4524SOL     OW13596   4.063   4.233   4.730
 4524SOL    HW113597   4.011   4.150   4.713
 4524SOL    HW213598   4.140   4.238   4.666
 4525SOL     OW13599   4.884   3.931   5.201
 4525SOL    HW113600   4.884   3.995   5.278
 4525SOL    HW213601   4.912   3.979   5.118
 4526SOL     OW13602   3.732   5.050   3.924
 4526SOL    HW113603   3.639   5.071   3.893
 4526SOL    HW213604   3.742   4.951   3.937
 4527SOL     OW13605   4.726   4.520   4.962
 4527SOL    HW113606   4.767   4.488   5.048
 4527SOL    HW213607   4.630   4.493   4.959
 4528SOL     OW13608   3.764   4.268   4.838
 4528SOL    HW113609   3.849   4.235   4.797
 4528SOL    HW213610   3.777   4.283   4.936
 4529SOL     OW13611   4.539   4.296   4.049
 4529SOL    HW113612   4.546   4.207   4.003
 4529SOL    HW213613   4.445   4.330   4.041
 4530SOL     OW13614   4.395   4.188   4.993
 4530SOL    HW113615   4.361   4.099   4.963
 4530SOL    HW213616   4.421   4.242   4.913
 4531SOL     OW13617   4.197   4.224   3.915
 4531SOL    HW113618   4.258   4.304   3.919
 4531SOL    HW213619   4.102   4.255   3.922
 4532SOL     OW13620   3.883   4.861   5.190
 4532SOL    HW113621   3.905   4.800   5.266
 4532SOL    HW213622   3.893   4.812   5.104
 4533SOL     OW13623   5.071   4.783   4.958
 4533SOL    HW113624   5.095   4.720   4.884
 4533SOL    HW213625   4.981   4.823   4.940
 4534SOL     OW13626   5.026   4.579   4.033
 4534SOL    HW113627   4.940   4.548   4.075
 4534SOL    HW213628   5.022   4.565   3.934
 4535SOL     OW13629   3.807   4.982   4.746
 4535SOL    HW113630   3.802   4.981   4.846
 4535SOL    HW213631   3.724   4.941   4.708
 4536SOL     OW13632   5.004   4.651   4.396
 4536SOL    HW113633   5.064   4.570   4.398
 4536SOL    HW213634   5.044   4.720   4.336
 4537SOL     OW13635   4.554   4.997   5.146
 4537SOL    HW113636   4.549   5.030   5.241
 4537SOL    HW213637   4.468   5.016   5.100
 4538SOL     OW13638   3.987   4.050   4.444
 4538SOL    HW113639   3.908   4.101   4.410
 4538SOL    HW213640   3.978   4.035   4.542
 4539SOL     OW13641   4.546   4.726   5.096
 4539SOL    HW113642   4.586   4.725   5.004
 4539SOL    HW213643   4.556   4.818   5.136
 4540SOL     OW13644   4.640   4.634   4.015
 4540SOL    HW113645   4.703   4.672   3.947
 4540SOL    HW213646   4.680   4.551   4.054
 4541SOL     OW13647   5.228   5.331   3.768
 4541SOL    HW113648   5.136   5.368   3.775
 4541SOL    HW213649   5.266   5.351   3.678
 4542SOL     OW13650   4.096   5.012   5.214
 4542SOL    HW113651   4.083   5.105   5.180
 4542SOL    HW213652   4.012   4.960   5.201
 4543SOL     OW13653   4.763   4.822   4.420
 4543SOL    HW113654   4.693   4.775   4.474
 4543SOL    HW213655   4.822   4.754   4.377
 4544SOL     OW13656   4.738   3.960   4.695
 4544SOL    HW113657   4.730   3.924   4.602
 4544SOL    HW213658   4.736   3.884   4.760
 4545SOL     OW13659   4.396   3.927   5.213
 4545SOL    HW113660   4.486   3.911   5.173
 4545SOL    HW213661   4.404   3.932   5.312
 4546SOL     OW13662   3.799   4.069   3.757
 4546SOL    HW113663   3.707   4.041   3.728
 4546SOL    HW213664   3.830   4.146   3.701
 4547SOL     OW13665   3.796   3.890   4.042
 4547SOL    HW113666   3.779   3.973   3.988
 4547SOL    HW213667   3.886   3.853   4.020
 4548SOL     OW13668   4.907   5.059   3.843
 4548SOL    HW113669   4.808   5.048   3.845
 4548SOL    HW213670   4.941   5.074   3.936
 4549SOL     OW13671   4.337   4.566   5.155
 4549SOL    HW113672   4.393   4.647   5.138
 4549SOL    HW213673   4.396   4.486   5.158
 4550SOL     OW13674   4.949   4.049   4.173
 4550SOL    HW113675   5.014   3.975   4.162
 4550SOL    HW213676   4.969   4.099   4.257
 4551SOL     OW13677   4.318   4.469   4.376
 4551SOL    HW113678   4.368   4.554   4.357
 4551SOL    HW213679   4.230   4.471   4.328
 4552SOL     OW13680   4.583   5.098   3.740
 4552SOL    HW113681   4.537   5.113   3.828
 4552SOL    HW213682   4.627   5.183   3.710
 4553SOL     OW13683   4.583   4.680   4.585
 4553SOL    HW113684   4.637   4.611   4.633
 4553SOL    HW213685   4.551   4.749   4.651
 4554SOL     OW13686   4.807   4.708   3.811
 4554SOL    HW113687   4.784   4.761   3.729
 4554SOL    HW213688   4.888   4.652   3.792
 4555SOL     OW13689   3.803   4.964   4.377
 4555SOL    HW113690   3.802   4.917   4.465
 4555SOL    HW213691   3.885   4.936   4.326
 4556SOL     OW13692   4.152   4.148   4.244
 4556SOL    HW113693   4.182   4.076   4.182
 4556SOL    HW213694   4.113   4.108   4.327
 4557SOL     OW13695   4.041   4.271   5.004
 4557SOL    HW113696   4.079   4.212   5.076
 4557SOL    HW213697   4.081   4.245   4.916
 4558SOL     OW13698   5.148   3.938   4.836
 4558SOL    HW113699   5.200   3.873   4.891
 4558SOL    HW213700   5.099   4.001   4.897
 4559SOL     OW13701   4.725   3.758   4.878
 4559SOL    HW113702   4.662   3.686   4.847
 4559SOL    HW213703   4.818   3.722   4.878
 4560SOL     OW13704   4.494   5.054   4.025
 4560SOL    HW113705   4.448   4.967   4.042
 4560SOL    HW213706   4.585   5.051   4.066
 4561SOL     OW13707   5.076   3.776   3.892
 4561SOL    HW113708   5.111   3.735   3.808
 4561SOL    HW213709   4.986   3.738   3.912
 4562SOL     OW13710   3.763   4.801   4.024
 4562SOL    HW113711   3.862   4.790   4.015
 4562SOL    HW213712   3.723   4.715   4.056
   5.18959   5.18959   5.18959
