mobley_4375719_GMX.gro created by acpype (v: 2023.10.27) on Wed May 20 23:48:28 2026
   29
    1MOL     C1    1   2.316   2.738   2.195
    1MOL     C2    2   2.915   2.417   2.945
    1MOL     C3    3   2.344   2.742   2.344
    1MOL     C4    4   2.796   2.504   2.908
    1MOL     C5    5   2.462   2.654   2.387
    1MOL     C6    6   2.766   2.497   2.759
    1MOL     C7    7   2.491   2.661   2.537
    1MOL     C8    8   2.644   2.582   2.723
    1MOL     C9    9   2.612   2.573   2.573
    1MOL     H1   10   2.301   2.635   2.160
    1MOL     H2   11   2.225   2.795   2.173
    1MOL     H3   12   2.397   2.783   2.138
    1MOL     H4   13   2.935   2.423   3.052
    1MOL     H5   14   3.005   2.450   2.892
    1MOL     H6   15   2.897   2.312   2.920
    1MOL     H7   16   2.362   2.846   2.375
    1MOL     H8   17   2.254   2.708   2.398
    1MOL     H9   18   2.816   2.607   2.938
    1MOL    H10   19   2.708   2.470   2.965
    1MOL    H11   20   2.438   2.550   2.359
    1MOL    H12   21   2.551   2.683   2.330
    1MOL    H13   22   2.853   2.533   2.702
    1MOL    H14   23   2.749   2.393   2.729
    1MOL    H15   24   2.403   2.627   2.593
    1MOL    H16   25   2.512   2.764   2.567
    1MOL    H17   26   2.662   2.687   2.750
    1MOL    H18   27   2.557   2.548   2.781
    1MOL    H19   28   2.591   2.469   2.546
    1MOL    H20   29   2.699   2.605   2.515
   5.18959   5.18959   5.18959
