; mobley_628086_GMX_OPLS.top created by acpype (v: 2023.10.27) on Thu May 21 00:04:06 2026

; Include forcefield parameters
#include "ffoplsaa.itp"

; Include mobley_628086_GMX.itp topology
#include "mobley_628086_GMX.itp"

; Ligand position restraints
#ifdef POSRES_LIG
#include "posre_mobley_628086.itp"
#endif

[ system ]
 mobley_628086

[ molecules ]
; Compound        nmols
 mobley_628086    1     
