111_trifluoropropan_2_ol
    12
   0.0800000   0.6410000  -0.8830000   0.6190000  -0.1280000  -2.0800000
   0.8240000   0.7690000  -3.2820000   1.8730000  -0.7090000  -1.7380000
  -0.3450000   1.3080000  -3.6910000   1.6590000   1.7890000  -2.9850000
   1.3530000   0.0920000  -4.3240000   0.7230000   1.4950000  -0.6420000
   0.0000000   0.0000000   0.0000000  -0.9120000   1.0490000  -1.1060000
  -0.0690000  -0.9380000  -2.3420000   1.7010000  -1.6420000  -1.5360000
