; mobley_628086_GMX_OPLS.itp created by acpype (v: 2023.10.27) on Thu May 21 00:04:06 2026

; For OPLS atomtypes manual fine tuning
; AC_at:OPLS_at:OPLScode: Possible_Alternatives (see ffoplsaa.atp and ffoplsaanb.itp)
; c3:CT:opls_135: ['136', '137', '149', '157', '158', '206', '209', '210', '223B', '224B', '245', '246', '274', '283', '284', '285', '292', '292B', '293B', '296', '307', '308', '505']
; oh:OH:opls_154: ['167']
; f:x:opls_x: []
; hc:HC:opls_140: []
; h1:HC:opls_140: []
; ho:HO:opls_155: ['168']

[ moleculetype ]
;name            nrexcl
 mobley_628086    3

[ atoms ]
;   nr  type  resi  res  atom  cgnr     charge      mass       ; qtot   bond_type
     1 opls_135     1   MOL    C1    1    -0.101100     12.01100 ; qtot -0.101  CT  
     2 opls_135     1   MOL    C2    2     0.127100     12.01100 ; qtot  0.026  CT  
     3 opls_135     1   MOL    C3    3     0.578901     12.01100 ; qtot  0.605  CT  
     4 opls_154     1   MOL    O1    4    -0.570800     15.99940 ; qtot  0.034  OH  
     5 opls_x     1   MOL    F1    5    -0.237967      0.00000 ; qtot -0.204  x   
     6 opls_x     1   MOL    F2    6    -0.237967      0.00000 ; qtot -0.442  x   
     7 opls_x     1   MOL    F3    7    -0.237967      0.00000 ; qtot -0.680  x   
     8 opls_140     1   MOL    H1    8     0.064700      1.00800 ; qtot -0.615  HC  
     9 opls_140     1   MOL    H2    9     0.064700      1.00800 ; qtot -0.550  HC  
    10 opls_140     1   MOL    H3   10     0.064700      1.00800 ; qtot -0.486  HC  
    11 opls_140     1   MOL    H4   11     0.066700      1.00800 ; qtot -0.419  HC  
    12 opls_155     1   MOL    H5   12     0.419000      1.00800 ; qtot -0.000  HO  

[ bonds ]
;   ai     aj funct   r             k
     1      2   1 ;    1.5354e-01    1.9154e+05 ;     C1 - C2         CT - CT    
     1      8   1 ;    1.0962e-01    2.8891e+05 ;     C1 - H1         CT - HC    
     1      9   1 ;    1.0962e-01    2.8891e+05 ;     C1 - H2         CT - HC    
     1     10   1 ;    1.0962e-01    2.8891e+05 ;     C1 - H3         CT - HC    
     2      3   1 ;    1.5354e-01    1.9154e+05 ;     C2 - C3         CT - CT    
     2      4   1 ;    1.4242e-01    2.3861e+05 ;     C2 - O1         CT - OH    
     2     11   1 ;    1.0969e-01    2.8804e+05 ;     C2 - H4         CT - HC    
     3      5   1 ;    1.3512e-01    2.7973e+05 ;     C3 - F1         CT - x     
     3      6   1 ;    1.3512e-01    2.7973e+05 ;     C3 - F2         CT - x     
     3      7   1 ;    1.3512e-01    2.7973e+05 ;     C3 - F3         CT - x     
     4     12   1 ;    9.7250e-02    4.4811e+05 ;     O1 - H5         OH - HO    

[ pairs ]
;   ai     aj    funct
     1      5      1 ;     C1 - F1    
     1      6      1 ;     C1 - F2    
     1      7      1 ;     C1 - F3    
     1     12      1 ;     C1 - H5    
     3     12      1 ;     C3 - H5    
     4      5      1 ;     O1 - F1    
     4      6      1 ;     O1 - F2    
     4      7      1 ;     O1 - F3    
     5     11      1 ;     F1 - H4    
     6     11      1 ;     F2 - H4    
     7     11      1 ;     F3 - H4    
     8      3      1 ;     H1 - C3    
     8      4      1 ;     H1 - O1    
     8     11      1 ;     H1 - H4    
     9      3      1 ;     H2 - C3    
     9      4      1 ;     H2 - O1    
     9     11      1 ;     H2 - H4    
    10      3      1 ;     H3 - C3    
    10      4      1 ;     H3 - O1    
    10     11      1 ;     H3 - H4    
    11     12      1 ;     H4 - H5    

[ angles ]
;   ai     aj     ak    funct   theta         cth
     1      2      3      1 ;    1.1263e+02    5.0099e+02 ;     C1 - C2   - C3       CT -   CT - CT  
     1      2      4      1 ;    1.0966e+02    6.4258e+02 ;     C1 - C2   - O1       CT -   CT - OH  
     1      2     11      1 ;    1.0959e+02    3.6217e+02 ;     C1 - C2   - H4       CT -   CT - HC  
     2      1      8      1 ;    1.0968e+02    3.6208e+02 ;     C2 - C1   - H1       CT -   CT - HC  
     2      1      9      1 ;    1.0968e+02    3.6208e+02 ;     C2 - C1   - H2       CT -   CT - HC  
     2      1     10      1 ;    1.0968e+02    3.6208e+02 ;     C2 - C1   - H3       CT -   CT - HC  
     2      3      5      1 ;    1.0948e+02    6.6408e+02 ;     C2 - C3   - F1       CT -   CT - x   
     2      3      6      1 ;    1.0948e+02    6.6408e+02 ;     C2 - C3   - F2       CT -   CT - x   
     2      3      7      1 ;    1.0948e+02    6.6408e+02 ;     C2 - C3   - F3       CT -   CT - x   
     2      4     12      1 ;    1.0739e+02    5.4501e+02 ;     C2 - O1   - H5       CT -   OH - HO  
     3      2      4      1 ;    1.0966e+02    6.4258e+02 ;     C3 - C2   - O1       CT -   CT - OH  
     3      2     11      1 ;    1.0959e+02    3.6217e+02 ;     C3 - C2   - H4       CT -   CT - HC  
     4      2     11      1 ;    1.1038e+02    4.7103e+02 ;     O1 - C2   - H4       OH -   CT - HC  
     5      3      6      1 ;    1.0737e+02    8.9437e+02 ;     F1 - C3   - F2        x -   CT - x   
     5      3      7      1 ;    1.0737e+02    8.9437e+02 ;     F1 - C3   - F3        x -   CT - x   
     6      3      7      1 ;    1.0737e+02    8.9437e+02 ;     F2 - C3   - F3        x -   CT - x   
     8      1      9      1 ;    1.0773e+02    2.9957e+02 ;     H1 - C1   - H2       HC -   CT - HC  
     8      1     10      1 ;    1.0773e+02    2.9957e+02 ;     H1 - C1   - H3       HC -   CT - HC  
     9      1     10      1 ;    1.0773e+02    2.9957e+02 ;     H2 - C1   - H3       HC -   CT - HC  

[ dihedrals ] ; propers
; for gromacs 4.5 or higher, using funct 9
;    i      j      k      l   func   phase     kd      pn
     1      2      3      5      9 ;     0.00   0.65084   3 ;     C1-    C2-    C3-    F1
     1      2      3      6      9 ;     0.00   0.65084   3 ;     C1-    C2-    C3-    F2
     1      2      3      7      9 ;     0.00   0.65084   3 ;     C1-    C2-    C3-    F3
     1      2      4     12      9 ;     0.00   0.25104   3 ;     C1-    C2-    O1-    H5
     3      2      4     12      9 ;     0.00   0.25104   3 ;     C3-    C2-    O1-    H5
     4      2      3      5      9 ;     0.00   0.65084   3 ;     O1-    C2-    C3-    F1
     4      2      3      6      9 ;     0.00   0.65084   3 ;     O1-    C2-    C3-    F2
     4      2      3      7      9 ;     0.00   0.65084   3 ;     O1-    C2-    C3-    F3
     5      3      2     11      9 ;     0.00   0.00000   0 ;     F1-    C3-    C2-    H4
     5      3      2     11      9 ;     0.00   0.79496   1 ;     F1-    C3-    C2-    H4
     6      3      2     11      9 ;     0.00   0.00000   0 ;     F2-    C3-    C2-    H4
     6      3      2     11      9 ;     0.00   0.79496   1 ;     F2-    C3-    C2-    H4
     7      3      2     11      9 ;     0.00   0.00000   0 ;     F3-    C3-    C2-    H4
     7      3      2     11      9 ;     0.00   0.79496   1 ;     F3-    C3-    C2-    H4
     8      1      2      3      9 ;     0.00   0.54392   3 ;     H1-    C1-    C2-    C3
     8      1      2      4      9 ;     0.00   0.37656   3 ;     H1-    C1-    C2-    O1
     8      1      2     11      9 ;     0.00   0.65084   3 ;     H1-    C1-    C2-    H4
     9      1      2      3      9 ;     0.00   0.54392   3 ;     H2-    C1-    C2-    C3
     9      1      2      4      9 ;     0.00   0.37656   3 ;     H2-    C1-    C2-    O1
     9      1      2     11      9 ;     0.00   0.65084   3 ;     H2-    C1-    C2-    H4
    10      1      2      3      9 ;     0.00   0.54392   3 ;     H3-    C1-    C2-    C3
    10      1      2      4      9 ;     0.00   0.37656   3 ;     H3-    C1-    C2-    O1
    10      1      2     11      9 ;     0.00   0.65084   3 ;     H3-    C1-    C2-    H4
    11      2      4     12      9 ;     0.00   0.51463   3 ;     H4-    C2-    O1-    H5
