%VERSION  VERSION_STAMP = V0001.000  DATE = 05/21/26  00:04:07                  
%FLAG TITLE                                                                     
%FORMAT(20a4)                                                                   
111_trifluoropropan_2_ol                                                        
%FLAG POINTERS                                                                  
%FORMAT(10I8)                                                                   
      12       6       5       6      10       9      18       6       0       0
      52       1       6       9       6       6       9       7       6       0
       0       0       0       0       0       0       0       0      12       0
       0
%FLAG ATOM_NAME                                                                 
%FORMAT(20a4)                                                                   
C1  C2  C3  O1  F1  F2  F3  H1  H2  H3  H4  H5  
%FLAG CHARGE                                                                    
%FORMAT(5E16.8)                                                                 
 -1.84227453E+00  2.31605433E+00  1.05488895E+01 -1.04012888E+01 -4.33630606E+00
 -4.33630606E+00 -4.33630606E+00  1.17898281E+00  1.17898281E+00  1.17898281E+00
  1.21542741E+00  7.63514370E+00
%FLAG ATOMIC_NUMBER                                                             
%FORMAT(10I8)                                                                   
       6       6       6       8       9       9       9       1       1       1
       1       1
%FLAG MASS                                                                      
%FORMAT(5E16.8)                                                                 
  1.20100000E+01  1.20100000E+01  1.20100000E+01  1.60000000E+01  1.90000000E+01
  1.90000000E+01  1.90000000E+01  1.00800000E+00  1.00800000E+00  1.00800000E+00
  1.00800000E+00  1.00800000E+00
%FLAG ATOM_TYPE_INDEX                                                           
%FORMAT(10I8)                                                                   
       1       1       1       2       3       3       3       4       4       4
       5       6
%FLAG NUMBER_EXCLUDED_ATOMS                                                     
%FORMAT(10I8)                                                                   
      11      10       9       8       3       2       1       3       2       1
       1       1
%FLAG NONBONDED_PARM_INDEX                                                      
%FORMAT(10I8)                                                                   
       1       2       4       7      11      16       2       3       5       8
      12      17       4       5       6       9      13      18       7       8
       9      10      14      19      11      12      13      14      15      20
      16      17      18      19      20      21
%FLAG RESIDUE_LABEL                                                             
%FORMAT(20a4)                                                                   
MOL 
%FLAG RESIDUE_POINTER                                                           
%FORMAT(10I8)                                                                   
       1
%FLAG BOND_FORCE_CONSTANT                                                       
%FORMAT(5E16.8)                                                                 
  2.28890000E+02  3.45250000E+02  2.85150000E+02  3.44220000E+02  3.34280000E+02
  5.35510000E+02
%FLAG BOND_EQUIL_VALUE                                                          
%FORMAT(5E16.8)                                                                 
  1.53540000E+00  1.09620000E+00  1.42420000E+00  1.09690000E+00  1.35120000E+00
  9.72500000E-01
%FLAG ANGLE_FORCE_CONSTANT                                                      
%FORMAT(5E16.8)                                                                 
  5.98700000E+01  7.67900000E+01  4.32800000E+01  4.32700000E+01  7.93600000E+01
  6.51300000E+01  5.62900000E+01  1.06880000E+02  3.58000000E+01
%FLAG ANGLE_EQUIL_VALUE                                                         
%FORMAT(5E16.8)                                                                 
  1.96576518E+00  1.91392888E+00  1.91270715E+00  1.91427794E+00  1.91078728E+00
  1.87430989E+00  1.92649525E+00  1.87396082E+00  1.88024401E+00
%FLAG DIHEDRAL_FORCE_CONSTANT                                                   
%FORMAT(5E16.8)                                                                 
  1.55555556E-01  6.00000000E-02  1.30000000E-01  9.00000000E-02  1.90000000E-01
  0.00000000E+00  1.23000000E-01
%FLAG DIHEDRAL_PERIODICITY                                                      
%FORMAT(5E16.8)                                                                 
  3.00000000E+00  3.00000000E+00  3.00000000E+00  3.00000000E+00  1.00000000E+00
  3.00000000E+00  3.00000000E+00
%FLAG DIHEDRAL_PHASE                                                            
%FORMAT(5E16.8)                                                                 
  0.00000000E+00  0.00000000E+00  0.00000000E+00  0.00000000E+00  0.00000000E+00
  0.00000000E+00  0.00000000E+00
%FLAG SCEE_SCALE_FACTOR                                                         
%FORMAT(5E16.8)                                                                 
  1.20000000E+00  1.20000000E+00  1.20000000E+00  1.20000000E+00  1.20000000E+00
  1.20000000E+00  1.20000000E+00
%FLAG SCNB_SCALE_FACTOR                                                         
%FORMAT(5E16.8)                                                                 
  2.00000000E+00  2.00000000E+00  2.00000000E+00  2.00000000E+00  2.00000000E+00
  2.00000000E+00  2.00000000E+00
%FLAG SOLTY                                                                     
%FORMAT(5E16.8)                                                                 
  0.00000000E+00  0.00000000E+00  0.00000000E+00  0.00000000E+00  0.00000000E+00
  0.00000000E+00
%FLAG LENNARD_JONES_ACOEF                                                       
%FORMAT(5E16.8)                                                                 
  1.02073671E+06  7.18991463E+05  5.03152404E+05  4.63627012E+05  3.21445185E+05
  2.02652992E+05  1.00235148E+05  6.80216136E+04  4.15877422E+04  7.94617769E+03
  6.97998263E+04  4.69084694E+04  2.82810778E+04  5.22955465E+03  3.39005767E+03
  3.03553352E+02  1.74176419E+02  8.33610614E+01  8.80612241E+00  4.36660257E+00
  1.10360882E-05
%FLAG LENNARD_JONES_BCOEF                                                       
%FORMAT(5E16.8)                                                                 
  6.63431737E+02  5.36620538E+02  4.32634597E+02  4.19082844E+02  3.36306318E+02
  2.59697739E+02  1.37787728E+02  1.09393126E+02  8.31877412E+01  2.57122925E+01
  1.14981426E+02  9.08431526E+01  6.86000827E+01  2.08590256E+01  1.67944276E+01
  5.22789272E+00  3.81654050E+00  2.56783379E+00  5.90150328E-01  4.15568027E-01
  4.55498033E-04
%FLAG BONDS_INC_HYDROGEN                                                        
%FORMAT(10I8)                                                                   
       0      21       2       0      24       2       0      27       2       3
      30       4       9      33       6
%FLAG BONDS_WITHOUT_HYDROGEN                                                    
%FORMAT(10I8)                                                                   
       0       3       1       3       6       1       3       9       3       6
      12       5       6      15       5       6      18       5
%FLAG ANGLES_INC_HYDROGEN                                                       
%FORMAT(10I8)                                                                   
       0       3      30       3       3       0      21       4       3       0
      24       4       3       0      27       4       3       9      33       6
       6       3      30       3       9       3      30       7      21       0
      24       9      21       0      27       9      24       0      27       9
%FLAG ANGLES_WITHOUT_HYDROGEN                                                   
%FORMAT(10I8)                                                                   
       0       3       6       1       0       3       9       2       3       6
      12       5       3       6      15       5       3       6      18       5
       6       3       9       2      12       6      15       8      12       6
      18       8      15       6      18       8
%FLAG DIHEDRALS_INC_HYDROGEN                                                    
%FORMAT(10I8)                                                                   
       0       3       9      33       2      21       0       3       6       3
      24       0       3       6       3      27       0       3       6       3
       6       3       9      33       2      21       0       3       9       4
      24       0       3       9       4      27       0       3       9       4
      12       6       3      30       5      12       6      -3      30       6
      15       6       3      30       5      15       6      -3      30       6
      18       6       3      30       5      18       6      -3      30       6
      21       0       3      30       1      24       0       3      30       1
      27       0       3      30       1      30       3       9      33       7
%FLAG DIHEDRALS_WITHOUT_HYDROGEN                                                
%FORMAT(10I8)                                                                   
       0       3       6      12       1       0       3       6      15       1
       0       3       6      18       1       9       3       6      12       1
       9       3       6      15       1       9       3       6      18       1
%FLAG EXCLUDED_ATOMS_LIST                                                       
%FORMAT(10I8)                                                                   
       2       3       4       5       6       7       8       9      10      11
      12       3       4       5       6       7       8       9      10      11
      12       4       5       6       7       8       9      10      11      12
       5       6       7       8       9      10      11      12       6       7
      11       7      11      11       9      10      11      10      11      11
      12       0
%FLAG HBOND_ACOEF                                                               
%FORMAT(5E16.8)                                                                 

%FLAG HBOND_BCOEF                                                               
%FORMAT(5E16.8)                                                                 

%FLAG HBCUT                                                                     
%FORMAT(5E16.8)                                                                 

%FLAG AMBER_ATOM_TYPE                                                           
%FORMAT(20a4)                                                                   
c3  c3  c3  oh  f   f   f   hc  hc  hc  h1  ho  
%FLAG TREE_CHAIN_CLASSIFICATION                                                 
%FORMAT(20a4)                                                                   
BLA BLA BLA BLA BLA BLA BLA BLA BLA BLA BLA BLA 
%FLAG JOIN_ARRAY                                                                
%FORMAT(10I8)                                                                   
       0       0       0       0       0       0       0       0       0       0
       0       0
%FLAG IROTAT                                                                    
%FORMAT(10I8)                                                                   
       0       0       0       0       0       0       0       0       0       0
       0       0
%FLAG RADIUS_SET                                                                
%FORMAT(1a80)                                                                   
modified Bondi radii (mbondi)                                                   
%FLAG RADII                                                                     
%FORMAT(5E16.8)                                                                 
  1.70000000E+00  1.70000000E+00  1.70000000E+00  1.50000000E+00  1.50000000E+00
  1.50000000E+00  1.50000000E+00  1.30000000E+00  1.30000000E+00  1.30000000E+00
  1.30000000E+00  8.00000000E-01
%FLAG SCREEN                                                                    
%FORMAT(5E16.8)                                                                 
  7.20000000E-01  7.20000000E-01  7.20000000E-01  8.50000000E-01  8.80000000E-01
  8.80000000E-01  8.80000000E-01  8.50000000E-01  8.50000000E-01  8.50000000E-01
  8.50000000E-01  8.50000000E-01
%FLAG IPOL                                                                      
%FORMAT(1I8)                                                                    
       0
