35_dimethylphenol
    19
   1.8990000  -1.0130000  -0.0780000   0.8130000  -0.3270000   1.9680000
   2.9470000  -1.4560000   2.0530000   0.8260000  -0.4080000   0.5750000
   2.9600000  -1.5370000   0.6600000   1.8740000  -0.8520000   2.7070000
  -0.3080000   0.1510000  -0.2150000   4.1070000  -2.1840000  -0.0390000
   1.8610000  -0.7730000   4.0660000   1.9100000  -1.0760000  -1.1640000
  -0.0230000   0.1430000   2.4800000   3.7720000  -1.8640000   2.6320000
  -1.1960000  -0.4860000  -0.1140000  -0.5670000   1.1640000   0.1200000
  -0.0530000   0.2250000  -1.2810000   4.8780000  -2.4800000   0.6830000
   3.7860000  -3.0770000  -0.5900000   4.5610000  -1.5050000  -0.7730000
   1.1900000  -0.1190000   4.3360000
