; mobley_7009711_GMX_OPLS.itp created by acpype (v: 2023.10.27) on Wed May 20 23:56:45 2026

; For OPLS atomtypes manual fine tuning
; AC_at:OPLS_at:OPLScode: Possible_Alternatives (see ffoplsaa.atp and ffoplsaanb.itp)
; ca:CA:opls_145: ['166', '501', '502']
; c3:CT:opls_135: ['136', '137', '149', '157', '158', '206', '209', '210', '223B', '224B', '245', '246', '274', '283', '284', '285', '292', '292B', '293B', '296', '307', '308', '505']
; oh:OH:opls_154: ['167']
; ha:HA:opls_146: []
; hc:HC:opls_140: []
; ho:HO:opls_155: ['168']

[ moleculetype ]
;name            nrexcl
 mobley_7009711   3

[ atoms ]
;   nr  type  resi  res  atom  cgnr     charge      mass       ; qtot   bond_type
     1 opls_145     1   MOL    C1    1    -0.168000     12.01100 ; qtot -0.168  CA  
     2 opls_145     1   MOL    C2    2    -0.191000     12.01100 ; qtot -0.359  CA  
     3 opls_145     1   MOL    C3    3    -0.191000     12.01100 ; qtot -0.550  CA  
     4 opls_145     1   MOL    C4    4    -0.037800     12.01100 ; qtot -0.588  CA  
     5 opls_145     1   MOL    C5    5    -0.037800     12.01100 ; qtot -0.626  CA  
     6 opls_145     1   MOL    C6    6     0.130100     12.01100 ; qtot -0.496  CA  
     7 opls_135     1   MOL    C7    7    -0.055800     12.01100 ; qtot -0.551  CT  
     8 opls_135     1   MOL    C8    8    -0.055800     12.01100 ; qtot -0.607  CT  
     9 opls_154     1   MOL    O1    9    -0.501098     15.99940 ; qtot -1.108  OH  
    10 opls_146     1   MOL    H1   10     0.133000      1.00800 ; qtot -0.975  HA  
    11 opls_146     1   MOL    H2   11     0.140500      1.00800 ; qtot -0.835  HA  
    12 opls_146     1   MOL    H3   12     0.140500      1.00800 ; qtot -0.694  HA  
    13 opls_140     1   MOL    H4   13     0.046033      1.00800 ; qtot -0.648  HC  
    14 opls_140     1   MOL    H5   14     0.046033      1.00800 ; qtot -0.602  HC  
    15 opls_140     1   MOL    H6   15     0.046033      1.00800 ; qtot -0.556  HC  
    16 opls_140     1   MOL    H7   16     0.046033      1.00800 ; qtot -0.510  HC  
    17 opls_140     1   MOL    H8   17     0.046033      1.00800 ; qtot -0.464  HC  
    18 opls_140     1   MOL    H9   18     0.046033      1.00800 ; qtot -0.418  HC  
    19 opls_155     1   MOL   H10   19     0.418000      1.00800 ; qtot  0.000  HO  

[ bonds ]
;   ai     aj funct   r             k
     1      4   1 ;    1.3986e-01    2.9644e+05 ;     C1 - C4         CA - CA    
     1      5   1 ;    1.3986e-01    2.9644e+05 ;     C1 - C5         CA - CA    
     1     10   1 ;    1.0860e-01    3.0183e+05 ;     C1 - H1         CA - HA    
     2      4   1 ;    1.3986e-01    2.9644e+05 ;     C2 - C4         CA - CA    
     2      6   1 ;    1.3986e-01    2.9644e+05 ;     C2 - C6         CA - CA    
     2     11   1 ;    1.0860e-01    3.0183e+05 ;     C2 - H2         CA - HA    
     3      5   1 ;    1.3986e-01    2.9644e+05 ;     C3 - C5         CA - CA    
     3      6   1 ;    1.3986e-01    2.9644e+05 ;     C3 - C6         CA - CA    
     3     12   1 ;    1.0860e-01    3.0183e+05 ;     C3 - H3         CA - HA    
     4      7   1 ;    1.5147e-01    2.0410e+05 ;     C4 - C7         CA - CT    
     5      8   1 ;    1.5147e-01    2.0410e+05 ;     C5 - C8         CA - CT    
     6      9   1 ;    1.3644e-01    2.9167e+05 ;     C6 - O1         CA - OH    
     7     13   1 ;    1.0962e-01    2.8891e+05 ;     C7 - H4         CT - HC    
     7     14   1 ;    1.0962e-01    2.8891e+05 ;     C7 - H5         CT - HC    
     7     15   1 ;    1.0962e-01    2.8891e+05 ;     C7 - H6         CT - HC    
     8     16   1 ;    1.0962e-01    2.8891e+05 ;     C8 - H7         CT - HC    
     8     17   1 ;    1.0962e-01    2.8891e+05 ;     C8 - H8         CT - HC    
     8     18   1 ;    1.0962e-01    2.8891e+05 ;     C8 - H9         CT - HC    
     9     19   1 ;    9.7250e-02    4.4811e+05 ;     O1 - H10        OH - HO    

[ pairs ]
;   ai     aj    funct
     1      6      1 ;     C1 - C6    
     1     11      1 ;     C1 - H2    
     1     12      1 ;     C1 - H3    
     1     13      1 ;     C1 - H4    
     1     14      1 ;     C1 - H5    
     1     15      1 ;     C1 - H6    
     1     16      1 ;     C1 - H7    
     1     17      1 ;     C1 - H8    
     1     18      1 ;     C1 - H9    
     2     12      1 ;     C2 - H3    
     2     13      1 ;     C2 - H4    
     2     14      1 ;     C2 - H5    
     2     15      1 ;     C2 - H6    
     2     19      1 ;     C2 - H10   
     3     11      1 ;     C3 - H2    
     3     16      1 ;     C3 - H7    
     3     17      1 ;     C3 - H8    
     3     18      1 ;     C3 - H9    
     3     19      1 ;     C3 - H10   
     4      3      1 ;     C4 - C3    
     4      8      1 ;     C4 - C8    
     4      9      1 ;     C4 - O1    
     5      2      1 ;     C5 - C2    
     5      7      1 ;     C5 - C7    
     5      9      1 ;     C5 - O1    
     6      7      1 ;     C6 - C7    
     6      8      1 ;     C6 - C8    
     7     11      1 ;     C7 - H2    
     8     12      1 ;     C8 - H3    
     9     11      1 ;     O1 - H2    
     9     12      1 ;     O1 - H3    
    10      2      1 ;     H1 - C2    
    10      3      1 ;     H1 - C3    
    10      7      1 ;     H1 - C7    
    10      8      1 ;     H1 - C8    

[ angles ]
;   ai     aj     ak    funct   theta         cth
     1      4      2      1 ;    1.2002e+02    5.3279e+02 ;     C1 - C4   - C2       CA -   CA - CA  
     1      4      7      1 ;    1.2083e+02    5.0827e+02 ;     C1 - C4   - C7       CA -   CA - CT  
     1      5      3      1 ;    1.2002e+02    5.3279e+02 ;     C1 - C5   - C3       CA -   CA - CA  
     1      5      8      1 ;    1.2083e+02    5.0827e+02 ;     C1 - C5   - C8       CA -   CA - CT  
     2      4      7      1 ;    1.2083e+02    5.0827e+02 ;     C2 - C4   - C7       CA -   CA - CT  
     2      6      3      1 ;    1.2002e+02    5.3279e+02 ;     C2 - C6   - C3       CA -   CA - CA  
     2      6      9      1 ;    1.1990e+02    6.5990e+02 ;     C2 - C6   - O1       CA -   CA - OH  
     3      5      8      1 ;    1.2083e+02    5.0827e+02 ;     C3 - C5   - C8       CA -   CA - CT  
     3      6      9      1 ;    1.1990e+02    6.5990e+02 ;     C3 - C6   - O1       CA -   CA - OH  
     4      1      5      1 ;    1.2002e+02    5.3279e+02 ;     C4 - C1   - C5       CA -   CA - CA  
     4      1     10      1 ;    1.1988e+02    3.7572e+02 ;     C4 - C1   - H1       CA -   CA - HA  
     4      2      6      1 ;    1.2002e+02    5.3279e+02 ;     C4 - C2   - C6       CA -   CA - CA  
     4      2     11      1 ;    1.1988e+02    3.7572e+02 ;     C4 - C2   - H2       CA -   CA - HA  
     4      7     13      1 ;    1.1063e+02    3.6493e+02 ;     C4 - C7   - H4       CA -   CT - HC  
     4      7     14      1 ;    1.1063e+02    3.6493e+02 ;     C4 - C7   - H5       CA -   CT - HC  
     4      7     15      1 ;    1.1063e+02    3.6493e+02 ;     C4 - C7   - H6       CA -   CT - HC  
     5      1     10      1 ;    1.1988e+02    3.7572e+02 ;     C5 - C1   - H1       CA -   CA - HA  
     5      3      6      1 ;    1.2002e+02    5.3279e+02 ;     C5 - C3   - C6       CA -   CA - CA  
     5      3     12      1 ;    1.1988e+02    3.7572e+02 ;     C5 - C3   - H3       CA -   CA - HA  
     5      8     16      1 ;    1.1063e+02    3.6493e+02 ;     C5 - C8   - H7       CA -   CT - HC  
     5      8     17      1 ;    1.1063e+02    3.6493e+02 ;     C5 - C8   - H8       CA -   CT - HC  
     5      8     18      1 ;    1.1063e+02    3.6493e+02 ;     C5 - C8   - H9       CA -   CT - HC  
     6      2     11      1 ;    1.1988e+02    3.7572e+02 ;     C6 - C2   - H2       CA -   CA - HA  
     6      3     12      1 ;    1.1988e+02    3.7572e+02 ;     C6 - C3   - H3       CA -   CA - HA  
     6      9     19      1 ;    1.0858e+02    5.6409e+02 ;     C6 - O1   - H10      CA -   OH - HO  
    13      7     14      1 ;    1.0773e+02    2.9957e+02 ;     H4 - C7   - H5       HC -   CT - HC  
    13      7     15      1 ;    1.0773e+02    2.9957e+02 ;     H4 - C7   - H6       HC -   CT - HC  
    14      7     15      1 ;    1.0773e+02    2.9957e+02 ;     H5 - C7   - H6       HC -   CT - HC  
    16      8     17      1 ;    1.0773e+02    2.9957e+02 ;     H7 - C8   - H8       HC -   CT - HC  
    16      8     18      1 ;    1.0773e+02    2.9957e+02 ;     H7 - C8   - H9       HC -   CT - HC  
    17      8     18      1 ;    1.0773e+02    2.9957e+02 ;     H8 - C8   - H9       HC -   CT - HC  

[ dihedrals ] ; propers
; for gromacs 4.5 or higher, using funct 9
;    i      j      k      l   func   phase     kd      pn
     1      4      2      6      9 ;   180.00  15.16700   2 ;     C1-    C4-    C2-    C6
     1      4      2     11      9 ;   180.00  15.16700   2 ;     C1-    C4-    C2-    H2
     1      4      7     13      9 ;     0.00   0.00000   0 ;     C1-    C4-    C7-    H4
     1      4      7     14      9 ;     0.00   0.00000   0 ;     C1-    C4-    C7-    H5
     1      4      7     15      9 ;     0.00   0.00000   0 ;     C1-    C4-    C7-    H6
     1      5      3      6      9 ;   180.00  15.16700   2 ;     C1-    C5-    C3-    C6
     1      5      3     12      9 ;   180.00  15.16700   2 ;     C1-    C5-    C3-    H3
     1      5      8     16      9 ;     0.00   0.00000   0 ;     C1-    C5-    C8-    H7
     1      5      8     17      9 ;     0.00   0.00000   0 ;     C1-    C5-    C8-    H8
     1      5      8     18      9 ;     0.00   0.00000   0 ;     C1-    C5-    C8-    H9
     2      4      7     13      9 ;     0.00   0.00000   0 ;     C2-    C4-    C7-    H4
     2      4      7     14      9 ;     0.00   0.00000   0 ;     C2-    C4-    C7-    H5
     2      4      7     15      9 ;     0.00   0.00000   0 ;     C2-    C4-    C7-    H6
     2      6      3      5      9 ;   180.00  15.16700   2 ;     C2-    C6-    C3-    C5
     2      6      3     12      9 ;   180.00  15.16700   2 ;     C2-    C6-    C3-    H3
     2      6      9     19      9 ;   180.00   3.57732   2 ;     C2-    C6-    O1-   H10
     3      5      8     16      9 ;     0.00   0.00000   0 ;     C3-    C5-    C8-    H7
     3      5      8     17      9 ;     0.00   0.00000   0 ;     C3-    C5-    C8-    H8
     3      5      8     18      9 ;     0.00   0.00000   0 ;     C3-    C5-    C8-    H9
     3      6      2      4      9 ;   180.00  15.16700   2 ;     C3-    C6-    C2-    C4
     3      6      2     11      9 ;   180.00  15.16700   2 ;     C3-    C6-    C2-    H2
     3      6      9     19      9 ;   180.00   3.57732   2 ;     C3-    C6-    O1-   H10
     4      1      5      3      9 ;   180.00  15.16700   2 ;     C4-    C1-    C5-    C3
     4      1      5      8      9 ;   180.00  15.16700   2 ;     C4-    C1-    C5-    C8
     4      2      6      9      9 ;   180.00  15.16700   2 ;     C4-    C2-    C6-    O1
     5      1      4      2      9 ;   180.00  15.16700   2 ;     C5-    C1-    C4-    C2
     5      1      4      7      9 ;   180.00  15.16700   2 ;     C5-    C1-    C4-    C7
     5      3      6      9      9 ;   180.00  15.16700   2 ;     C5-    C3-    C6-    O1
     6      2      4      7      9 ;   180.00  15.16700   2 ;     C6-    C2-    C4-    C7
     6      3      5      8      9 ;   180.00  15.16700   2 ;     C6-    C3-    C5-    C8
     7      4      2     11      9 ;   180.00  15.16700   2 ;     C7-    C4-    C2-    H2
     8      5      3     12      9 ;   180.00  15.16700   2 ;     C8-    C5-    C3-    H3
     9      6      2     11      9 ;   180.00  15.16700   2 ;     O1-    C6-    C2-    H2
     9      6      3     12      9 ;   180.00  15.16700   2 ;     O1-    C6-    C3-    H3
    10      1      4      2      9 ;   180.00  15.16700   2 ;     H1-    C1-    C4-    C2
    10      1      4      7      9 ;   180.00  15.16700   2 ;     H1-    C1-    C4-    C7
    10      1      5      3      9 ;   180.00  15.16700   2 ;     H1-    C1-    C5-    C3
    10      1      5      8      9 ;   180.00  15.16700   2 ;     H1-    C1-    C5-    C8

[ dihedrals ] ; impropers
; treated as propers in GROMACS to use correct AMBER analytical function
;    i      j      k      l   func   phase     kd      pn
     1      2      4      7      4 ;   180.00   4.60240   2 ;     C1-    C2-    C4-    C7
     2      3      6      9      4 ;   180.00   4.60240   2 ;     C2-    C3-    C6-    O1
     4      6      2     11      4 ;   180.00   4.60240   2 ;     C4-    C6-    C2-    H2
     5      6      3     12      4 ;   180.00   4.60240   2 ;     C5-    C6-    C3-    H3
     8      1      5      3      4 ;   180.00   4.60240   2 ;     C8-    C1-    C5-    C3
    10      1      5      4      4 ;   180.00   4.60240   2 ;     H1-    C1-    C5-    C4
