mobley_7009711_GMX.gro created by acpype (v: 2023.10.27) on Wed May 20 23:56:45 2026
 19
    1  MOL   C1    1   0.190  -0.101  -0.008
    1  MOL   C2    2   0.081  -0.033   0.197
    1  MOL   C3    3   0.295  -0.146   0.205
    1  MOL   C4    4   0.083  -0.041   0.057
    1  MOL   C5    5   0.296  -0.154   0.066
    1  MOL   C6    6   0.187  -0.085   0.271
    1  MOL   C7    7  -0.031   0.015  -0.022
    1  MOL   C8    8   0.411  -0.218  -0.004
    1  MOL   O1    9   0.186  -0.077   0.407
    1  MOL   H1   10   0.191  -0.108  -0.116
    1  MOL   H2   11  -0.002   0.014   0.248
    1  MOL   H3   12   0.377  -0.186   0.263
    1  MOL   H4   13  -0.120  -0.049  -0.011
    1  MOL   H5   14  -0.057   0.116   0.012
    1  MOL   H6   15  -0.005   0.023  -0.128
    1  MOL   H7   16   0.488  -0.248   0.068
    1  MOL   H8   17   0.379  -0.308  -0.059
    1  MOL   H9   18   0.456  -0.150  -0.077
    1  MOL  H10   19   0.119  -0.012   0.434
   12.14800     8.48200    11.23400
