; mobley_6081058_GMX_OPLS.itp created by acpype (v: 2023.10.27) on Wed May 20 23:45:01 2026

; For OPLS atomtypes manual fine tuning
; AC_at:OPLS_at:OPLScode: Possible_Alternatives (see ffoplsaa.atp and ffoplsaanb.itp)
; ce:x:opls_x: []
; c2:CR:opls_509: ['510']
; c:C:opls_235: ['271']
; c3:CT:opls_135: ['136', '137', '149', '157', '158', '206', '209', '210', '223B', '224B', '245', '246', '274', '283', '284', '285', '292', '292B', '293B', '296', '307', '308', '505']
; o:O:opls_236: ['272']
; ha:HA:opls_146: []
; h4:HA:opls_146: []
; hc:HC:opls_140: []

[ moleculetype ]
;name            nrexcl
 mobley_6081058   3

[ atoms ]
;   nr  type  resi  res  atom  cgnr     charge      mass       ; qtot   bond_type
     1 opls_x     1   MOL    C1    1    -0.280200      0.00000 ; qtot -0.280  x   
     2 opls_509     1   MOL    C2    2    -0.090200     12.01100 ; qtot -0.370  CR  
     3 opls_235     1   MOL    C3    3     0.561101     12.01100 ; qtot  0.191  C   
     4 opls_135     1   MOL    C4    4    -0.093100     12.01100 ; qtot  0.098  CT  
     5 opls_135     1   MOL    C5    5    -0.064200     12.01100 ; qtot  0.033  CT  
     6 opls_135     1   MOL    C6    6    -0.080400     12.01100 ; qtot -0.047  CT  
     7 opls_135     1   MOL    C7    7    -0.077400     12.01100 ; qtot -0.124  CT  
     8 opls_135     1   MOL    C8    8    -0.080400     12.01100 ; qtot -0.205  CT  
     9 opls_236     1   MOL    O1    9    -0.526100     15.99940 ; qtot -0.731  O   
    10 opls_146     1   MOL    H1   10     0.149000      1.00800 ; qtot -0.582  HA  
    11 opls_146     1   MOL    H2   11     0.124000      1.00800 ; qtot -0.458  HA  
    12 opls_146     1   MOL    H3   12    -0.009800      1.00800 ; qtot -0.468  HA  
    13 opls_140     1   MOL    H4   13     0.034033      1.00800 ; qtot -0.434  HC  
    14 opls_140     1   MOL    H5   14     0.034033      1.00800 ; qtot -0.400  HC  
    15 opls_140     1   MOL    H6   15     0.034033      1.00800 ; qtot -0.366  HC  
    16 opls_140     1   MOL    H7   16     0.058200      1.00800 ; qtot -0.307  HC  
    17 opls_140     1   MOL    H8   17     0.058200      1.00800 ; qtot -0.249  HC  
    18 opls_140     1   MOL    H9   18     0.039200      1.00800 ; qtot -0.210  HC  
    19 opls_140     1   MOL   H10   19     0.039200      1.00800 ; qtot -0.171  HC  
    20 opls_140     1   MOL   H11   20     0.043700      1.00800 ; qtot -0.127  HC  
    21 opls_140     1   MOL   H12   21     0.043700      1.00800 ; qtot -0.083  HC  
    22 opls_140     1   MOL   H13   22     0.041700      1.00800 ; qtot -0.042  HC  
    23 opls_140     1   MOL   H14   23     0.041700      1.00800 ; qtot -0.000  HC  

[ bonds ]
;   ai     aj funct   r             k
     1      2   1 ;    1.3457e-01    3.5505e+05 ;     C1 - C2          x - CR    
     1      3   1 ;    1.4848e-01    2.2406e+05 ;     C1 - C3          x - C     
     1     10   1 ;    1.0880e-01    2.9923e+05 ;     C1 - H1          x - HA    
     2      5   1 ;    1.5088e-01    2.0786e+05 ;     C2 - C5         CR - CT    
     2     11   1 ;    1.0882e-01    2.9898e+05 ;     C2 - H2         CR - HA    
     3      9   1 ;    1.2190e-01    4.9421e+05 ;     C3 - O1          C - O     
     3     12   1 ;    1.1123e-01    2.6984e+05 ;     C3 - H3          C - HA    
     4      6   1 ;    1.5354e-01    1.9154e+05 ;     C4 - C6         CT - CT    
     4     13   1 ;    1.0962e-01    2.8891e+05 ;     C4 - H4         CT - HC    
     4     14   1 ;    1.0962e-01    2.8891e+05 ;     C4 - H5         CT - HC    
     4     15   1 ;    1.0962e-01    2.8891e+05 ;     C4 - H6         CT - HC    
     5      7   1 ;    1.5354e-01    1.9154e+05 ;     C5 - C7         CT - CT    
     5     16   1 ;    1.0962e-01    2.8891e+05 ;     C5 - H7         CT - HC    
     5     17   1 ;    1.0962e-01    2.8891e+05 ;     C5 - H8         CT - HC    
     6      8   1 ;    1.5354e-01    1.9154e+05 ;     C6 - C8         CT - CT    
     6     18   1 ;    1.0962e-01    2.8891e+05 ;     C6 - H9         CT - HC    
     6     19   1 ;    1.0962e-01    2.8891e+05 ;     C6 - H10        CT - HC    
     7      8   1 ;    1.5354e-01    1.9154e+05 ;     C7 - C8         CT - CT    
     7     20   1 ;    1.0962e-01    2.8891e+05 ;     C7 - H11        CT - HC    
     7     21   1 ;    1.0962e-01    2.8891e+05 ;     C7 - H12        CT - HC    
     8     22   1 ;    1.0962e-01    2.8891e+05 ;     C8 - H13        CT - HC    
     8     23   1 ;    1.0962e-01    2.8891e+05 ;     C8 - H14        CT - HC    

[ pairs ]
;   ai     aj    funct
     1      7      1 ;     C1 - C7    
     1     16      1 ;     C1 - H7    
     1     17      1 ;     C1 - H8    
     2      8      1 ;     C2 - C8    
     2      9      1 ;     C2 - O1    
     2     12      1 ;     C2 - H3    
     2     20      1 ;     C2 - H11   
     2     21      1 ;     C2 - H12   
     3      5      1 ;     C3 - C5    
     3     11      1 ;     C3 - H2    
     4      7      1 ;     C4 - C7    
     4     22      1 ;     C4 - H13   
     4     23      1 ;     C4 - H14   
     5      6      1 ;     C5 - C6    
     5     22      1 ;     C5 - H13   
     5     23      1 ;     C5 - H14   
     6     20      1 ;     C6 - H11   
     6     21      1 ;     C6 - H12   
     7     11      1 ;     C7 - H2    
     7     18      1 ;     C7 - H9    
     7     19      1 ;     C7 - H10   
     8     13      1 ;     C8 - H4    
     8     14      1 ;     C8 - H5    
     8     15      1 ;     C8 - H6    
     8     16      1 ;     C8 - H7    
     8     17      1 ;     C8 - H8    
    10      5      1 ;     H1 - C5    
    10      9      1 ;     H1 - O1    
    10     11      1 ;     H1 - H2    
    10     12      1 ;     H1 - H3    
    11     16      1 ;     H2 - H7    
    11     17      1 ;     H2 - H8    
    13     18      1 ;     H4 - H9    
    13     19      1 ;     H4 - H10   
    14     18      1 ;     H5 - H9    
    14     19      1 ;     H5 - H10   
    15     18      1 ;     H6 - H9    
    15     19      1 ;     H6 - H10   
    16     20      1 ;     H7 - H11   
    16     21      1 ;     H7 - H12   
    17     20      1 ;     H8 - H11   
    17     21      1 ;     H8 - H12   
    18     22      1 ;     H9 - H13   
    18     23      1 ;     H9 - H14   
    19     22      1 ;    H10 - H13   
    19     23      1 ;    H10 - H14   
    20     22      1 ;    H11 - H13   
    20     23      1 ;    H11 - H14   
    21     22      1 ;    H12 - H13   
    21     23      1 ;    H12 - H14   

[ angles ]
;   ai     aj     ak    funct   theta         cth
     1      2      5      1 ;    1.2558e+02    5.0710e+02 ;     C1 - C2   - C5        x -   CR - CT  
     1      2     11      1 ;    1.2049e+02    3.8618e+02 ;     C1 - C2   - H2        x -   CR - HA  
     1      3      9      1 ;    1.2324e+02    6.5262e+02 ;     C1 - C3   - O1        x -    C - O   
     1      3     12      1 ;    1.1489e+02    3.6376e+02 ;     C1 - C3   - H3        x -    C - HA  
     2      1      3      1 ;    1.2200e+02    5.1974e+02 ;     C2 - C1   - C3       CR -    x - C   
     2      1     10      1 ;    1.2000e+02    3.8694e+02 ;     C2 - C1   - H1       CR -    x - HA  
     2      5      7      1 ;    1.1258e+02    5.0543e+02 ;     C2 - C5   - C7       CR -   CT - CT  
     2      5     16      1 ;    1.1065e+02    3.6618e+02 ;     C2 - C5   - H7       CR -   CT - HC  
     2      5     17      1 ;    1.1065e+02    3.6618e+02 ;     C2 - C5   - H8       CR -   CT - HC  
     3      1     10      1 ;    1.1641e+02    3.6242e+02 ;     C3 - C1   - H1        C -    x - HA  
     4      6      8      1 ;    1.1263e+02    5.0099e+02 ;     C4 - C6   - C8       CT -   CT - CT  
     4      6     18      1 ;    1.0968e+02    3.6208e+02 ;     C4 - C6   - H9       CT -   CT - HC  
     4      6     19      1 ;    1.0968e+02    3.6208e+02 ;     C4 - C6   - H10      CT -   CT - HC  
     5      2     11      1 ;    1.1505e+02    3.5941e+02 ;     C5 - C2   - H2       CT -   CR - HA  
     5      7      8      1 ;    1.1263e+02    5.0099e+02 ;     C5 - C7   - C8       CT -   CT - CT  
     5      7     20      1 ;    1.0968e+02    3.6208e+02 ;     C5 - C7   - H11      CT -   CT - HC  
     5      7     21      1 ;    1.0968e+02    3.6208e+02 ;     C5 - C7   - H12      CT -   CT - HC  
     6      4     13      1 ;    1.0968e+02    3.6208e+02 ;     C6 - C4   - H4       CT -   CT - HC  
     6      4     14      1 ;    1.0968e+02    3.6208e+02 ;     C6 - C4   - H5       CT -   CT - HC  
     6      4     15      1 ;    1.0968e+02    3.6208e+02 ;     C6 - C4   - H6       CT -   CT - HC  
     6      8      7      1 ;    1.1263e+02    5.0099e+02 ;     C6 - C8   - C7       CT -   CT - CT  
     6      8     22      1 ;    1.0968e+02    3.6208e+02 ;     C6 - C8   - H13      CT -   CT - HC  
     6      8     23      1 ;    1.0968e+02    3.6208e+02 ;     C6 - C8   - H14      CT -   CT - HC  
     7      5     16      1 ;    1.0968e+02    3.6208e+02 ;     C7 - C5   - H7       CT -   CT - HC  
     7      5     17      1 ;    1.0968e+02    3.6208e+02 ;     C7 - C5   - H8       CT -   CT - HC  
     7      8     22      1 ;    1.0968e+02    3.6208e+02 ;     C7 - C8   - H13      CT -   CT - HC  
     7      8     23      1 ;    1.0968e+02    3.6208e+02 ;     C7 - C8   - H14      CT -   CT - HC  
     8      6     18      1 ;    1.0968e+02    3.6208e+02 ;     C8 - C6   - H9       CT -   CT - HC  
     8      6     19      1 ;    1.0968e+02    3.6208e+02 ;     C8 - C6   - H10      CT -   CT - HC  
     8      7     20      1 ;    1.0968e+02    3.6208e+02 ;     C8 - C7   - H11      CT -   CT - HC  
     8      7     21      1 ;    1.0968e+02    3.6208e+02 ;     C8 - C7   - H12      CT -   CT - HC  
     9      3     12      1 ;    1.2062e+02    5.0191e+02 ;     O1 - C3   - H3        O -    C - HA  
    13      4     14      1 ;    1.0773e+02    2.9957e+02 ;     H4 - C4   - H5       HC -   CT - HC  
    13      4     15      1 ;    1.0773e+02    2.9957e+02 ;     H4 - C4   - H6       HC -   CT - HC  
    14      4     15      1 ;    1.0773e+02    2.9957e+02 ;     H5 - C4   - H6       HC -   CT - HC  
    16      5     17      1 ;    1.0773e+02    2.9957e+02 ;     H7 - C5   - H8       HC -   CT - HC  
    18      6     19      1 ;    1.0773e+02    2.9957e+02 ;     H9 - C6   - H10      HC -   CT - HC  
    20      7     21      1 ;    1.0773e+02    2.9957e+02 ;    H11 - C7   - H12      HC -   CT - HC  
    22      8     23      1 ;    1.0773e+02    2.9957e+02 ;    H13 - C8   - H14      HC -   CT - HC  

[ dihedrals ] ; propers
; for gromacs 4.5 or higher, using funct 9
;    i      j      k      l   func   phase     kd      pn
     1      2      5      7      9 ;     0.00   0.00000   0 ;     C1-    C2-    C5-    C7
     1      2      5     16      9 ;     0.00   0.00000   0 ;     C1-    C2-    C5-    H7
     1      2      5     17      9 ;     0.00   0.00000   0 ;     C1-    C2-    C5-    H8
     2      1      3      9      9 ;   180.00   9.10020   2 ;     C2-    C1-    C3-    O1
     2      1      3     12      9 ;   180.00   9.10020   2 ;     C2-    C1-    C3-    H3
     2      5      7      8      9 ;     0.00   0.65084   3 ;     C2-    C5-    C7-    C8
     2      5      7     20      9 ;     0.00   0.65084   3 ;     C2-    C5-    C7-   H11
     2      5      7     21      9 ;     0.00   0.65084   3 ;     C2-    C5-    C7-   H12
     3      1      2      5      9 ;   180.00  27.82360   2 ;     C3-    C1-    C2-    C5
     3      1      2     11      9 ;   180.00  27.82360   2 ;     C3-    C1-    C2-    H2
     4      6      8      7      9 ;     0.00   2.17568   3 ;     C4-    C6-    C8-    C7
     4      6      8     22      9 ;     0.00   0.54392   3 ;     C4-    C6-    C8-   H13
     4      6      8     23      9 ;     0.00   0.54392   3 ;     C4-    C6-    C8-   H14
     5      7      8      6      9 ;     0.00   2.17568   3 ;     C5-    C7-    C8-    C6
     5      7      8     22      9 ;     0.00   0.54392   3 ;     C5-    C7-    C8-   H13
     5      7      8     23      9 ;     0.00   0.54392   3 ;     C5-    C7-    C8-   H14
     6      8      7     20      9 ;     0.00   0.54392   3 ;     C6-    C8-    C7-   H11
     6      8      7     21      9 ;     0.00   0.54392   3 ;     C6-    C8-    C7-   H12
     7      5      2     11      9 ;     0.00   0.00000   0 ;     C7-    C5-    C2-    H2
     7      8      6     18      9 ;     0.00   0.54392   3 ;     C7-    C8-    C6-    H9
     7      8      6     19      9 ;     0.00   0.54392   3 ;     C7-    C8-    C6-   H10
     8      6      4     13      9 ;     0.00   0.54392   3 ;     C8-    C6-    C4-    H4
     8      6      4     14      9 ;     0.00   0.54392   3 ;     C8-    C6-    C4-    H5
     8      6      4     15      9 ;     0.00   0.54392   3 ;     C8-    C6-    C4-    H6
     8      7      5     16      9 ;     0.00   0.54392   3 ;     C8-    C7-    C5-    H7
     8      7      5     17      9 ;     0.00   0.54392   3 ;     C8-    C7-    C5-    H8
    10      1      2      5      9 ;   180.00  27.82360   2 ;     H1-    C1-    C2-    C5
    10      1      2     11      9 ;   180.00  27.82360   2 ;     H1-    C1-    C2-    H2
    10      1      3      9      9 ;   180.00   9.10020   2 ;     H1-    C1-    C3-    O1
    10      1      3     12      9 ;   180.00   9.10020   2 ;     H1-    C1-    C3-    H3
    11      2      5     16      9 ;     0.00   0.00000   0 ;     H2-    C2-    C5-    H7
    11      2      5     17      9 ;     0.00   0.00000   0 ;     H2-    C2-    C5-    H8
    13      4      6     18      9 ;     0.00   0.50208   3 ;     H4-    C4-    C6-    H9
    13      4      6     19      9 ;     0.00   0.50208   3 ;     H4-    C4-    C6-   H10
    14      4      6     18      9 ;     0.00   0.50208   3 ;     H5-    C4-    C6-    H9
    14      4      6     19      9 ;     0.00   0.50208   3 ;     H5-    C4-    C6-   H10
    15      4      6     18      9 ;     0.00   0.50208   3 ;     H6-    C4-    C6-    H9
    15      4      6     19      9 ;     0.00   0.50208   3 ;     H6-    C4-    C6-   H10
    16      5      7     20      9 ;     0.00   0.50208   3 ;     H7-    C5-    C7-   H11
    16      5      7     21      9 ;     0.00   0.50208   3 ;     H7-    C5-    C7-   H12
    17      5      7     20      9 ;     0.00   0.50208   3 ;     H8-    C5-    C7-   H11
    17      5      7     21      9 ;     0.00   0.50208   3 ;     H8-    C5-    C7-   H12
    18      6      8     22      9 ;     0.00   0.50208   3 ;     H9-    C6-    C8-   H13
    18      6      8     23      9 ;     0.00   0.50208   3 ;     H9-    C6-    C8-   H14
    19      6      8     22      9 ;     0.00   0.50208   3 ;    H10-    C6-    C8-   H13
    19      6      8     23      9 ;     0.00   0.50208   3 ;    H10-    C6-    C8-   H14
    20      7      8     22      9 ;     0.00   0.50208   3 ;    H11-    C7-    C8-   H13
    20      7      8     23      9 ;     0.00   0.50208   3 ;    H11-    C7-    C8-   H14
    21      7      8     22      9 ;     0.00   0.50208   3 ;    H12-    C7-    C8-   H13
    21      7      8     23      9 ;     0.00   0.50208   3 ;    H12-    C7-    C8-   H14

[ dihedrals ] ; impropers
; treated as propers in GROMACS to use correct AMBER analytical function
;    i      j      k      l   func   phase     kd      pn
     1     12      3      9      4 ;   180.00  43.93200   2 ;     C1-    H3-    C3-    O1
     5      1      2     11      4 ;   180.00   4.60240   2 ;     C5-    C1-    C2-    H2
    10      1      2      3      4 ;   180.00   4.60240   2 ;     H1-    C1-    C2-    C3
