E_oct_2_enal
    23
   2.9380000   3.1240000  -0.6580000   2.6300000   1.8540000  -0.9480000
   4.3460000   3.4820000  -0.4000000  -1.9730000  -0.5820000  -4.6370000
   1.2270000   1.3870000  -1.2150000  -0.5460000  -0.1470000  -4.3420000
   1.0310000   0.8330000  -2.6300000  -0.4150000   0.4250000  -2.9300000
   4.6840000   4.6280000  -0.1310000   2.1930000   3.9090000  -0.6070000
   3.4110000   1.0990000  -0.9800000   5.0780000   2.6600000  -0.4630000
  -2.2990000  -1.3580000  -3.9370000  -2.0430000  -0.9880000  -5.6510000
  -2.6640000   0.2630000  -4.5610000   0.9650000   0.6210000  -0.4760000
   0.5210000   2.2130000  -1.0670000  -0.2410000   0.6050000  -5.0790000
   0.1230000  -1.0070000  -4.4590000   1.6960000  -0.0250000  -2.7890000
   1.3370000   1.6070000  -3.3450000  -1.0720000   1.2980000  -2.8260000
  -0.7530000  -0.3250000  -2.2070000
