%VERSION  VERSION_STAMP = V0001.000  DATE = 05/20/26  23:45:07                  
%FLAG TITLE                                                                     
%FORMAT(20a4)                                                                   
E_oct_2_enal                                                                    
%FLAG POINTERS                                                                  
%FORMAT(10I8)                                                                   
      23       6      14       8      32       7      47       6       0       0
     113       1       8       7       6       9      14       9       8       0
       0       0       0       0       0       0       0       0      23       0
       0
%FLAG ATOM_NAME                                                                 
%FORMAT(20a4)                                                                   
C1  C2  C3  C4  C5  C6  C7  C8  O1  H1  H2  H3  H4  H5  H6  H7  H8  H9  H10 H11 
H12 H13 H14 
%FLAG CHARGE                                                                    
%FORMAT(5E16.8)                                                                 
 -5.10588846E+00 -1.64365146E+00  1.02245325E+01 -1.69649613E+00 -1.16987166E+00
 -1.46507292E+00 -1.41040602E+00 -1.46507292E+00 -9.58675203E+00  2.71512270E+00
  2.25956520E+00 -1.78578540E-01  6.20159536E-01  6.20159536E-01  6.20159536E-01
  1.06053786E+00  1.06053786E+00  7.14314160E-01  7.14314160E-01  7.96314510E-01
  7.96314510E-01  7.59869910E-01  7.59869910E-01
%FLAG ATOMIC_NUMBER                                                             
%FORMAT(10I8)                                                                   
       6       6       6       6       6       6       6       6       8       1
       1       1       1       1       1       1       1       1       1       1
       1       1       1
%FLAG MASS                                                                      
%FORMAT(5E16.8)                                                                 
  1.20100000E+01  1.20100000E+01  1.20100000E+01  1.20100000E+01  1.20100000E+01
  1.20100000E+01  1.20100000E+01  1.20100000E+01  1.60000000E+01  1.00800000E+00
  1.00800000E+00  1.00800000E+00  1.00800000E+00  1.00800000E+00  1.00800000E+00
  1.00800000E+00  1.00800000E+00  1.00800000E+00  1.00800000E+00  1.00800000E+00
  1.00800000E+00  1.00800000E+00  1.00800000E+00
%FLAG ATOM_TYPE_INDEX                                                           
%FORMAT(10I8)                                                                   
       1       1       1       2       2       2       2       2       3       4
       4       5       6       6       6       6       6       6       6       6
       6       6       6
%FLAG NUMBER_EXCLUDED_ATOMS                                                     
%FORMAT(10I8)                                                                   
      10      12       5      10      11      11      10      11       2       2
       2       1       4       3       2       3       2       3       2       3
       2       1       1
%FLAG NONBONDED_PARM_INDEX                                                      
%FORMAT(10I8)                                                                   
       1       2       4       7      11      16       2       3       5       8
      12      17       4       5       6       9      13      18       7       8
       9      10      14      19      11      12      13      14      15      20
      16      17      18      19      20      21
%FLAG RESIDUE_LABEL                                                             
%FORMAT(20a4)                                                                   
MOL 
%FLAG RESIDUE_POINTER                                                           
%FORMAT(10I8)                                                                   
       1
%FLAG BOND_FORCE_CONSTANT                                                       
%FORMAT(5E16.8)                                                                 
  4.24300000E+02  2.67760000E+02  3.57590000E+02  2.48400000E+02  3.57290000E+02
  5.90600000E+02  3.22470000E+02  2.28890000E+02  3.45250000E+02
%FLAG BOND_EQUIL_VALUE                                                          
%FORMAT(5E16.8)                                                                 
  1.34570000E+00  1.48480000E+00  1.08800000E+00  1.50880000E+00  1.08820000E+00
  1.21900000E+00  1.11230000E+00  1.53540000E+00  1.09620000E+00
%FLAG ANGLE_FORCE_CONSTANT                                                      
%FORMAT(5E16.8)                                                                 
  6.06000000E+01  4.61500000E+01  7.79900000E+01  4.34700000E+01  6.21100000E+01
  4.62400000E+01  6.04000000E+01  4.37600000E+01  4.33100000E+01  5.98700000E+01
  4.32700000E+01  4.29500000E+01  5.99800000E+01  3.58000000E+01
%FLAG ANGLE_EQUIL_VALUE                                                         
%FORMAT(5E16.8)                                                                 
  2.19178541E+00  2.10294812E+00  2.15094469E+00  2.00520964E+00  2.12930260E+00
  2.09439600E+00  1.96489251E+00  1.93120765E+00  2.03173865E+00  1.96576518E+00
  1.91427794E+00  2.00800217E+00  2.10521705E+00  1.88024401E+00
%FLAG DIHEDRAL_FORCE_CONSTANT                                                   
%FORMAT(5E16.8)                                                                 
  0.00000000E+00  2.17500000E+00  1.55555556E-01  6.65000000E+00  5.20000000E-01
  1.30000000E-01  1.20000000E-01  1.10000000E+00  1.05000000E+01
%FLAG DIHEDRAL_PERIODICITY                                                      
%FORMAT(5E16.8)                                                                 
  2.00000000E+00  2.00000000E+00  3.00000000E+00  2.00000000E+00  3.00000000E+00
  3.00000000E+00  3.00000000E+00  2.00000000E+00  2.00000000E+00
%FLAG DIHEDRAL_PHASE                                                            
%FORMAT(5E16.8)                                                                 
  0.00000000E+00  3.14159400E+00  0.00000000E+00  3.14159400E+00  0.00000000E+00
  0.00000000E+00  0.00000000E+00  3.14159400E+00  3.14159400E+00
%FLAG SCEE_SCALE_FACTOR                                                         
%FORMAT(5E16.8)                                                                 
  1.20000000E+00  1.20000000E+00  1.20000000E+00  1.20000000E+00  1.20000000E+00
  1.20000000E+00  1.20000000E+00  0.00000000E+00  0.00000000E+00
%FLAG SCNB_SCALE_FACTOR                                                         
%FORMAT(5E16.8)                                                                 
  2.00000000E+00  2.00000000E+00  2.00000000E+00  2.00000000E+00  2.00000000E+00
  2.00000000E+00  2.00000000E+00  0.00000000E+00  0.00000000E+00
%FLAG SOLTY                                                                     
%FORMAT(5E16.8)                                                                 
  0.00000000E+00  0.00000000E+00  0.00000000E+00  0.00000000E+00  0.00000000E+00
  0.00000000E+00  0.00000000E+00  0.00000000E+00
%FLAG LENNARD_JONES_ACOEF                                                       
%FORMAT(5E16.8)                                                                 
  6.96551276E+05  8.43969952E+05  1.02073671E+06  5.17507491E+05  6.30925504E+05
  3.76435470E+05  7.52549148E+04  9.27554496E+04  5.27277400E+04  6.90855956E+03
  6.27751680E+04  7.75673747E+04  4.36069364E+04  5.62610481E+03  4.56536476E+03
  8.12662403E+04  1.00235148E+05  5.68021765E+04  7.41026906E+03  6.02863188E+03
  7.94617769E+03
%FLAG LENNARD_JONES_BCOEF                                                       
%FORMAT(5E16.8)                                                                 
  5.24668528E+02  5.90251928E+02  6.63431737E+02  4.98871431E+02  5.62969425E+02
  4.69350655E+02  1.09570372E+02  1.24325688E+02  1.01173582E+02  2.10929191E+01
  1.00073628E+02  1.13692208E+02  9.20079458E+01  1.90347353E+01  1.71467049E+01
  1.21392023E+02  1.37787728E+02  1.11953944E+02  2.32899892E+01  2.10068861E+01
  2.57122925E+01
%FLAG BONDS_INC_HYDROGEN                                                        
%FORMAT(10I8)                                                                   
       0      27       3       3      30       5       6      33       7       9
      36       9       9      39       9       9      42       9      12      45
       9      12      48       9      15      51       9      15      54       9
      18      57       9      18      60       9      21      63       9      21
      66       9
%FLAG BONDS_WITHOUT_HYDROGEN                                                    
%FORMAT(10I8)                                                                   
       0       3       1       0       6       2       3      12       4       6
      24       6       9      15       8      12      18       8      15      21
       8      18      21       8
%FLAG ANGLES_INC_HYDROGEN                                                       
%FORMAT(10I8)                                                                   
       0       3      30       2       0       6      33       4       3       0
      27       6       3      12      45       8       3      12      48       8
       6       0      27       9       9      15      51      11       9      15
      54      11      12       3      30      12      12      18      57      11
      12      18      60      11      15       9      36      11      15       9
      39      11      15       9      42      11      15      21      63      11
      15      21      66      11      18      12      45      11      18      12
      48      11      18      21      63      11      18      21      66      11
      21      15      51      11      21      15      54      11      21      18
      57      11      21      18      60      11      24       6      33      13
      36       9      39      14      36       9      42      14      39       9
      42      14      45      12      48      14      51      15      54      14
      57      18      60      14      63      21      66      14
%FLAG ANGLES_WITHOUT_HYDROGEN                                                   
%FORMAT(10I8)                                                                   
       0       3      12       1       0       6      24       3       3       0
       6       5       3      12      18       7       9      15      21      10
      12      18      21      10      15      21      18      10
%FLAG DIHEDRALS_INC_HYDROGEN                                                    
%FORMAT(10I8)                                                                   
       0       3      12      45       1       0       3      12      48       1
       3       0       6      33       2       3      12      18      57       3
       3      12      18      60       3       6       0       3      30       4
       9      15      21      63       6       9      15      21      66       6
      27       0       3      12       4      12      18      21      63       6
      12      18      21      66       6      15      21      18      57       6
      15      21      18      60       6      18      12       3      30       1
      18      21      15      51       6      18      21      15      54       6
      21      15       9      36       6      21      15       9      39       6
      21      15       9      42       6      21      18      12      45       6
      21      18      12      48       6      27       0       6      24       2
      27       0       3      30       4      27       0       6      33       2
      30       3      12      45       1      30       3      12      48       1
      36       9      15      51       7      36       9      15      54       7
      39       9      15      51       7      39       9      15      54       7
      42       9      15      51       7      42       9      15      54       7
      45      12      18      57       7      45      12      18      60       7
      48      12      18      57       7      48      12      18      60       7
      51      15      21      63       7      51      15      21      66       7
      54      15      21      63       7      54      15      21      66       7
      57      18      21      63       7      57      18      21      66       7
      60      18      21      63       7      60      18      21      66       7
      27       0      -3      -6       8      12       0      -3     -30       8
       0      33      -6     -24       9
%FLAG DIHEDRALS_WITHOUT_HYDROGEN                                                
%FORMAT(10I8)                                                                   
       0       3      12      18       1       3       0       6      24       2
       3      12      18      21       3       6       0       3      12       4
       9      15      21      18       5      12      18      21      15       5
%FLAG EXCLUDED_ATOMS_LIST                                                       
%FORMAT(10I8)                                                                   
       2       3       5       7       9      10      11      12      16      17
       3       5       7       8       9      10      11      12      16      17
      20      21       5       9      10      11      12       6       7       8
      13      14      15      18      19      22      23       6       7       8
      10      11      16      17      20      21      22      23       7       8
      13      14      15      18      19      20      21      22      23       8
      11      16      17      18      19      20      21      22      23      13
      14      15      16      17      18      19      20      21      22      23
      10      12      11      12      16      17       0      14      15      18
      19      15      18      19      18      19      17      20      21      20
      21      19      22      23      22      23      21      22      23      22
      23      23       0
%FLAG HBOND_ACOEF                                                               
%FORMAT(5E16.8)                                                                 

%FLAG HBOND_BCOEF                                                               
%FORMAT(5E16.8)                                                                 

%FLAG HBCUT                                                                     
%FORMAT(5E16.8)                                                                 

%FLAG AMBER_ATOM_TYPE                                                           
%FORMAT(20a4)                                                                   
ce  c2  c   c3  c3  c3  c3  c3  o   ha  ha  h4  hc  hc  hc  hc  hc  hc  hc  hc  
hc  hc  hc  
%FLAG TREE_CHAIN_CLASSIFICATION                                                 
%FORMAT(20a4)                                                                   
BLA BLA BLA BLA BLA BLA BLA BLA BLA BLA BLA BLA BLA BLA BLA BLA BLA BLA BLA BLA 
BLA BLA BLA 
%FLAG JOIN_ARRAY                                                                
%FORMAT(10I8)                                                                   
       0       0       0       0       0       0       0       0       0       0
       0       0       0       0       0       0       0       0       0       0
       0       0       0
%FLAG IROTAT                                                                    
%FORMAT(10I8)                                                                   
       0       0       0       0       0       0       0       0       0       0
       0       0       0       0       0       0       0       0       0       0
       0       0       0
%FLAG RADIUS_SET                                                                
%FORMAT(1a80)                                                                   
modified Bondi radii (mbondi)                                                   
%FLAG RADII                                                                     
%FORMAT(5E16.8)                                                                 
  1.70000000E+00  1.70000000E+00  1.70000000E+00  1.70000000E+00  1.70000000E+00
  1.70000000E+00  1.70000000E+00  1.70000000E+00  1.50000000E+00  1.30000000E+00
  1.30000000E+00  1.30000000E+00  1.30000000E+00  1.30000000E+00  1.30000000E+00
  1.30000000E+00  1.30000000E+00  1.30000000E+00  1.30000000E+00  1.30000000E+00
  1.30000000E+00  1.30000000E+00  1.30000000E+00
%FLAG SCREEN                                                                    
%FORMAT(5E16.8)                                                                 
  7.20000000E-01  7.20000000E-01  7.20000000E-01  7.20000000E-01  7.20000000E-01
  7.20000000E-01  7.20000000E-01  7.20000000E-01  8.50000000E-01  8.50000000E-01
  8.50000000E-01  8.50000000E-01  8.50000000E-01  8.50000000E-01  8.50000000E-01
  8.50000000E-01  8.50000000E-01  8.50000000E-01  8.50000000E-01  8.50000000E-01
  8.50000000E-01  8.50000000E-01  8.50000000E-01
%FLAG IPOL                                                                      
%FORMAT(1I8)                                                                    
       0
