mobley_6081058_GMX.gro created by acpype (v: 2023.10.27) on Wed May 20 23:45:01 2026
 23
    1  MOL   C1    1   0.294   0.312  -0.066
    1  MOL   C2    2   0.263   0.185  -0.095
    1  MOL   C3    3   0.435   0.348  -0.040
    1  MOL   C4    4  -0.197  -0.058  -0.464
    1  MOL   C5    5   0.123   0.139  -0.122
    1  MOL   C6    6  -0.055  -0.015  -0.434
    1  MOL   C7    7   0.103   0.083  -0.263
    1  MOL   C8    8  -0.042   0.043  -0.293
    1  MOL   O1    9   0.468   0.463  -0.013
    1  MOL   H1   10   0.219   0.391  -0.061
    1  MOL   H2   11   0.341   0.110  -0.098
    1  MOL   H3   12   0.508   0.266  -0.046
    1  MOL   H4   13  -0.230  -0.136  -0.394
    1  MOL   H5   14  -0.204  -0.099  -0.565
    1  MOL   H6   15  -0.266   0.026  -0.456
    1  MOL   H7   16   0.097   0.062  -0.048
    1  MOL   H8   17   0.052   0.221  -0.107
    1  MOL   H9   18  -0.024   0.060  -0.508
    1  MOL  H10   19   0.012  -0.101  -0.446
    1  MOL  H11   20   0.170  -0.003  -0.279
    1  MOL  H12   21   0.134   0.161  -0.335
    1  MOL  H13   22  -0.107   0.130  -0.283
    1  MOL  H14   23  -0.075  -0.033  -0.221
   15.48400    11.97200    11.04000
