; mobley_6081058_GMX_OPLS.top created by acpype (v: 2023.10.27) on Wed May 20 23:45:01 2026

; Include forcefield parameters
#include "ffoplsaa.itp"

; Include mobley_6081058_GMX.itp topology
#include "mobley_6081058_GMX.itp"

; Ligand position restraints
#ifdef POSRES_LIG
#include "posre_mobley_6081058.itp"
#endif

[ system ]
 mobley_6081058

[ molecules ]
; Compound        nmols
 mobley_6081058   1     
