%VERSION  VERSION_STAMP = V0001.000  DATE = 05/20/26  23:42:44                  
%FLAG TITLE                                                                     
%FORMAT(20a4)                                                                   
CUP08008_AM1BCC_v1_0                                                            
%FLAG POINTERS                                                                  
%FORMAT(10I8)                                                                   
      26      11      14      11      28      14      36      13       0       0
     117       1      11      14      13      13      21      13      12       0
       0       0       0       0       0       0       0       0      26       0
       0
%FLAG ATOM_NAME                                                                 
%FORMAT(20a4)                                                                   
C1  C2  C3  C4  C5  C6  C7  N1  N2  O1  O2  S1  H1  H2  H3  H4  H5  H6  H7  H8  
H9  H10 H11 H12 H13 H14 
%FLAG CHARGE                                                                    
%FORMAT(5E16.8)                                                                 
  7.51123206E+00  1.37596587E+01 -1.71471843E+00 -1.71471843E+00  1.53613989E+00
 -6.01335900E-01 -4.40979660E-01 -8.25834636E+00 -1.01479989E+01 -9.73070820E+00
 -3.56428188E+00 -5.83478046E+00  9.25692840E-01  9.84605536E-01  9.84605536E-01
  9.84605536E-01  9.84605536E-01  9.84605536E-01  9.84605536E-01  8.99580284E-01
  8.99580284E-01  8.99580284E-01  1.19113708E+00  1.19113708E+00  1.19113708E+00
  6.11358165E+00
%FLAG ATOMIC_NUMBER                                                             
%FORMAT(10I8)                                                                   
       6       6       6       6       6       6       6       7       7       8
       8      16       1       1       1       1       1       1       1       1
       1       1       1       1       1       1
%FLAG MASS                                                                      
%FORMAT(5E16.8)                                                                 
  1.20100000E+01  1.20100000E+01  1.20100000E+01  1.20100000E+01  1.20100000E+01
  1.20100000E+01  1.20100000E+01  1.40100000E+01  1.40100000E+01  1.60000000E+01
  1.60000000E+01  3.20600000E+01  1.00800000E+00  1.00800000E+00  1.00800000E+00
  1.00800000E+00  1.00800000E+00  1.00800000E+00  1.00800000E+00  1.00800000E+00
  1.00800000E+00  1.00800000E+00  1.00800000E+00  1.00800000E+00  1.00800000E+00
  1.00800000E+00
%FLAG ATOM_TYPE_INDEX                                                           
%FORMAT(10I8)                                                                   
       1       1       2       2       2       2       2       3       4       5
       6       7       8       9       9       9       9       9       9      10
      10      10      10      10      10      11
%FLAG NUMBER_EXCLUDED_ATOMS                                                     
%FORMAT(10I8)                                                                   
      15       9      12      11       7       5      13       5       6       2
       2      10       1       2       1       1       2       1       1       3
       2       1       2       1       1       1
%FLAG NONBONDED_PARM_INDEX                                                      
%FORMAT(10I8)                                                                   
       1       2       4       7      11      16      22      29      37      46
      56       2       3       5       8      12      17      23      30      38
      47      57       4       5       6       9      13      18      24      31
      39      48      58       7       8       9      10      14      19      25
      32      40      49      59      11      12      13      14      15      20
      26      33      41      50      60      16      17      18      19      20
      21      27      34      42      51      61      22      23      24      25
      26      27      28      35      43      52      62      29      30      31
      32      33      34      35      36      44      53      63      37      38
      39      40      41      42      43      44      45      54      64      46
      47      48      49      50      51      52      53      54      55      65
      56      57      58      59      60      61      62      63      64      65
      66
%FLAG RESIDUE_LABEL                                                             
%FORMAT(20a4)                                                                   
MOL 
%FLAG RESIDUE_POINTER                                                           
%FORMAT(10I8)                                                                   
       1
%FLAG BOND_FORCE_CONSTANT                                                       
%FORMAT(5E16.8)                                                                 
  2.48400000E+02  4.75990000E+02  3.59910000E+02  3.36070000E+02  5.90600000E+02
  3.51310000E+02  2.28890000E+02  3.45250000E+02  2.61660000E+02  3.44220000E+02
  1.84740000E+02  1.97470000E+02  4.73590000E+02
%FLAG BOND_EQUIL_VALUE                                                          
%FORMAT(5E16.8)                                                                 
  1.50880000E+00  1.28090000E+00  1.08650000E+00  1.37980000E+00  1.21900000E+00
  1.36210000E+00  1.53540000E+00  1.09620000E+00  1.45560000E+00  1.09690000E+00
  1.84070000E+00  1.40110000E+00  1.01320000E+00
%FLAG ANGLE_FORCE_CONSTANT                                                      
%FORMAT(5E16.8)                                                                 
  6.04000000E+01  6.35600000E+01  1.03900000E+02  7.69000000E+01  5.73700000E+01
  9.74700000E+01  5.98700000E+01  6.29200000E+01  5.46200000E+01  9.26700000E+01
  6.60400000E+01  4.23900000E+01  4.32700000E+01  5.07000000E+01  8.72100000E+01
  8.85400000E+01  4.83900000E+01  1.01260000E+02  4.20600000E+01  3.58000000E+01
  3.56400000E+01
%FLAG ANGLE_EQUIL_VALUE                                                         
%FORMAT(5E16.8)                                                                 
  1.96489251E+00  1.90206063E+00  1.93975976E+00  2.12860447E+00  2.04657396E+00
  1.95703853E+00  1.96576518E+00  1.92300459E+00  2.04936649E+00  1.73904681E+00
  2.14797763E+00  2.06228193E+00  1.91427794E+00  2.11272196E+00  2.14762857E+00
  1.90031530E+00  1.89350852E+00  2.15024656E+00  1.89769731E+00  1.88024401E+00
  1.89455572E+00
%FLAG DIHEDRAL_FORCE_CONSTANT                                                   
%FORMAT(5E16.8)                                                                 
  1.55555556E-01  3.33333333E-01  3.00000000E+00  0.00000000E+00  0.00000000E+00
  1.30000000E-01  2.00000000E-01  2.50000000E+00  4.15000000E+00  2.20000000E-01
  2.70000000E+00  2.00000000E+00  1.10000000E+00
%FLAG DIHEDRAL_PERIODICITY                                                      
%FORMAT(5E16.8)                                                                 
  3.00000000E+00  3.00000000E+00  2.00000000E+00  1.00000000E+00  2.00000000E+00
  3.00000000E+00  1.00000000E+00  2.00000000E+00  2.00000000E+00  3.00000000E+00
  2.00000000E+00  1.00000000E+00  2.00000000E+00
%FLAG DIHEDRAL_PHASE                                                            
%FORMAT(5E16.8)                                                                 
  0.00000000E+00  0.00000000E+00  3.14159400E+00  0.00000000E+00  0.00000000E+00
  0.00000000E+00  3.14159400E+00  3.14159400E+00  3.14159400E+00  0.00000000E+00
  3.14159400E+00  0.00000000E+00  3.14159400E+00
%FLAG SCEE_SCALE_FACTOR                                                         
%FORMAT(5E16.8)                                                                 
  1.20000000E+00  1.20000000E+00  1.20000000E+00  1.20000000E+00  1.20000000E+00
  1.20000000E+00  1.20000000E+00  1.20000000E+00  1.20000000E+00  1.20000000E+00
  1.20000000E+00  1.20000000E+00  0.00000000E+00
%FLAG SCNB_SCALE_FACTOR                                                         
%FORMAT(5E16.8)                                                                 
  2.00000000E+00  2.00000000E+00  2.00000000E+00  2.00000000E+00  2.00000000E+00
  2.00000000E+00  2.00000000E+00  2.00000000E+00  2.00000000E+00  2.00000000E+00
  2.00000000E+00  2.00000000E+00  0.00000000E+00
%FLAG SOLTY                                                                     
%FORMAT(5E16.8)                                                                 
  0.00000000E+00  0.00000000E+00  0.00000000E+00  0.00000000E+00  0.00000000E+00
  0.00000000E+00  0.00000000E+00  0.00000000E+00  0.00000000E+00  0.00000000E+00
  0.00000000E+00  0.00000000E+00
%FLAG LENNARD_JONES_ACOEF                                                       
%FORMAT(5E16.8)                                                                 
  6.96551276E+05  8.43969952E+05  1.02073671E+06  7.69642101E+05  9.31115275E+05
  8.49322032E+05  6.99381362E+05  8.48258258E+05  7.73425391E+05  7.01825028E+05
  5.17507491E+05  6.30925504E+05  5.74782316E+05  5.17814271E+05  3.76435470E+05
  4.46121722E+05  5.42502534E+05  4.94433451E+05  4.47026838E+05  3.27367585E+05
  2.83662575E+05  1.73376823E+06  2.09089895E+06  1.90820499E+06  1.74537186E+06
  1.30884564E+06  1.12086734E+06  4.26366419E+06  6.27751680E+04  7.75673747E+04
  7.05112106E+04  6.23418310E+04  4.36069364E+04  3.86549715E+04  1.64354276E+05
  4.56536476E+03  8.12662403E+04  1.00235148E+05  9.11435380E+04  8.07866982E+04
  5.68021765E+04  5.02224902E+04  2.11783234E+05  6.02863188E+03  7.94617769E+03
  5.63013422E+04  6.97998263E+04  6.34160397E+04  5.58085097E+04  3.86646725E+04
  3.44374471E+04  1.48672098E+05  3.94664935E+03  5.22955465E+03  3.39005767E+03
  1.71458823E+03  2.23577481E+03  2.01475241E+03  1.65195713E+03  9.87857350E+02
  9.46795083E+02  5.15374979E+03  6.76796831E+01  9.47421632E+01  5.24570081E+01
  1.34728399E-01
%FLAG LENNARD_JONES_BCOEF                                                       
%FORMAT(5E16.8)                                                                 
  5.24668528E+02  5.90251928E+02  6.63431737E+02  5.44830041E+02  6.12468585E+02
  5.65406768E+02  5.48900066E+02  6.17825399E+02  5.70234696E+02  5.74088001E+02
  4.98871431E+02  5.62969425E+02  5.19385932E+02  5.21008860E+02  4.69350655E+02
  3.88758656E+02  4.38146883E+02  4.04310927E+02  4.06301077E+02  3.67361018E+02
  2.87011518E+02  1.07629402E+03  1.20800124E+03  1.11546536E+03  1.12747567E+03
  1.03157656E+03  8.01230425E+02  2.19459223E+03  1.00073628E+02  1.13692208E+02
  1.04776275E+02  1.04122183E+02  9.20079458E+01  7.27065100E+01  2.10544132E+02
  1.71467049E+01  1.21392023E+02  1.37787728E+02  1.27000718E+02  1.26366740E+02
  1.11953944E+02  8.83545880E+01  2.54804909E+02  2.10068861E+01  2.57122925E+01
  1.01040256E+02  1.14981426E+02  1.05935811E+02  1.05029928E+02  9.23664132E+01
  7.31636661E+01  2.13489607E+02  1.69967767E+01  2.08590256E+01  1.67944276E+01
  1.46824710E+01  1.71355763E+01  1.57231024E+01  1.50468782E+01  1.22938581E+01
  1.01016461E+01  3.30984635E+01  1.85338491E+00  2.33785449E+00  1.73959275E+00
  7.34107347E-02
%FLAG BONDS_INC_HYDROGEN                                                        
%FORMAT(10I8)                                                                   
       0      36       3       6      39       8       6      42       8       6
      45       8       9      48       8       9      51       8       9      54
       8      12      57      10      12      60      10      12      63      10
      15      66      10      15      69      10      15      72      10      24
      75      13
%FLAG BONDS_WITHOUT_HYDROGEN                                                    
%FORMAT(10I8)                                                                   
       0      18       1       0      21       2       3      24       4       3
      27       5       3      30       6       6      18       7       9      18
       7      12      24       9      15      33      11      18      33      11
      21      30      12
%FLAG ANGLES_INC_HYDROGEN                                                       
%FORMAT(10I8)                                                                   
       3      24      75       5      12      24      75       9      18       0
      36      12      18       6      39      13      18       6      42      13
      18       6      45      13      18       9      48      13      18       9
      51      13      18       9      54      13      21       0      36      14
      24      12      57      17      24      12      60      17      24      12
      63      17      33      15      66      19      33      15      69      19
      33      15      72      19      39       6      42      20      39       6
      45      20      42       6      45      20      48       9      51      20
      48       9      54      20      51       9      54      20      57      12
      60      21      57      12      63      21      60      12      63      21
      66      15      69      21      66      15      72      21      69      15
      72      21
%FLAG ANGLES_WITHOUT_HYDROGEN                                                   
%FORMAT(10I8)                                                                   
       0      18       6       1       0      18       9       1       0      18
      33       2       0      21      30       3       3      24      12       4
       3      30      21       6       6      18       9       7       6      18
      33       8       9      18      33       8      15      33      18      10
      18       0      21      11      24       3      27      15      24       3
      30      16      27       3      30      18
%FLAG DIHEDRALS_INC_HYDROGEN                                                    
%FORMAT(10I8)                                                                   
       0      18       6      39       1       0      18       6      42       1
       0      18       6      45       1       0      18       9      48       1
       0      18       9      51       1       0      18       9      54       1
       3      24      12      57       4       3      24      12      60       4
       3      24      12      63       4      36       0      18       6       5
       6      18       9      48       6       6      18       9      51       6
       6      18       9      54       6      36       0      18       9       5
       9      18       6      39       6       9      18       6      42       6
       9      18       6      45       6      18      33      15      66      10
      18      33      15      69      10      18      33      15      72      10
      27       3      24      75      12      27       3     -24      75       8
      30       3      24      75       8      36       0      21      30       9
      36       0      18      33       5      33      18       6      39       1
      33      18       6      42       1      33      18       6      45       1
      33      18       9      48       1      33      18       9      51       1
      33      18       9      54       1      57      12      24      75       5
      60      12      24      75       5      63      12      24      75       5
      21       0     -36     -18      13       3      12     -24     -75      13
%FLAG DIHEDRALS_WITHOUT_HYDROGEN                                                
%FORMAT(10I8)                                                                   
       0      18      33      15       2       0      21      30       3       3
      21       0      18       6       5       6      18      33      15       7
      21       0      18       9       5       9      18      33      15       7
      12      24       3      27       8      12      24       3      30       8
      18       0      21      30       9      21       0      18      33       5
      21      30       3      24      11      21      30       3      27      11
      24      27      -3     -30      13
%FLAG EXCLUDED_ATOMS_LIST                                                       
%FORMAT(10I8)                                                                   
       2       3       4       6       7       8      11      12      13      14
      15      16      17      18      19       5       8       9      10      11
      20      21      22      26       4       6       7       8      12      13
      14      15      16      17      18      19       6       7       8      12
      13      14      15      16      17      18      19       9      10      11
      20      21      22      26       7      12      23      24      25       8
      11      12      13      14      15      16      17      18      19      23
      24      25       9      10      11      12      13      10      11      20
      21      22      26      11      26      13      26      13      14      15
      16      17      18      19      23      24      25       0      15      16
      16       0      18      19      19       0      21      22      26      22
      26      26      24      25      25       0       0
%FLAG HBOND_ACOEF                                                               
%FORMAT(5E16.8)                                                                 

%FLAG HBOND_BCOEF                                                               
%FORMAT(5E16.8)                                                                 

%FLAG HBCUT                                                                     
%FORMAT(5E16.8)                                                                 

%FLAG AMBER_ATOM_TYPE                                                           
%FORMAT(20a4)                                                                   
c2  c   c3  c3  c3  c3  c3  n2  ns  o   os  ss  h4  hc  hc  hc  hc  hc  hc  h1  
h1  h1  h1  h1  h1  hn  
%FLAG TREE_CHAIN_CLASSIFICATION                                                 
%FORMAT(20a4)                                                                   
BLA BLA BLA BLA BLA BLA BLA BLA BLA BLA BLA BLA BLA BLA BLA BLA BLA BLA BLA BLA 
BLA BLA BLA BLA BLA BLA 
%FLAG JOIN_ARRAY                                                                
%FORMAT(10I8)                                                                   
       0       0       0       0       0       0       0       0       0       0
       0       0       0       0       0       0       0       0       0       0
       0       0       0       0       0       0
%FLAG IROTAT                                                                    
%FORMAT(10I8)                                                                   
       0       0       0       0       0       0       0       0       0       0
       0       0       0       0       0       0       0       0       0       0
       0       0       0       0       0       0
%FLAG RADIUS_SET                                                                
%FORMAT(1a80)                                                                   
modified Bondi radii (mbondi)                                                   
%FLAG RADII                                                                     
%FORMAT(5E16.8)                                                                 
  1.70000000E+00  1.70000000E+00  1.70000000E+00  1.70000000E+00  1.70000000E+00
  1.70000000E+00  1.70000000E+00  1.55000000E+00  1.55000000E+00  1.50000000E+00
  1.50000000E+00  1.80000000E+00  1.30000000E+00  1.30000000E+00  1.30000000E+00
  1.30000000E+00  1.30000000E+00  1.30000000E+00  1.30000000E+00  1.30000000E+00
  1.30000000E+00  1.30000000E+00  1.30000000E+00  1.30000000E+00  1.30000000E+00
  1.30000000E+00
%FLAG SCREEN                                                                    
%FORMAT(5E16.8)                                                                 
  7.20000000E-01  7.20000000E-01  7.20000000E-01  7.20000000E-01  7.20000000E-01
  7.20000000E-01  7.20000000E-01  7.90000000E-01  7.90000000E-01  8.50000000E-01
  8.50000000E-01  9.60000000E-01  8.50000000E-01  8.50000000E-01  8.50000000E-01
  8.50000000E-01  8.50000000E-01  8.50000000E-01  8.50000000E-01  8.50000000E-01
  8.50000000E-01  8.50000000E-01  8.50000000E-01  8.50000000E-01  8.50000000E-01
  8.50000000E-01
%FLAG IPOL                                                                      
%FORMAT(1I8)                                                                    
       0
