CUP08008_AM1BCC_v1_0
    26
   2.4780000  -0.7670000  -0.5650000  -0.0240000  -1.8310000  -2.6920000
   0.6940000   0.4410000   0.7490000   2.0350000   1.6620000  -1.0360000
  -2.0370000  -1.8760000  -4.0900000   2.9300000   2.6730000   1.8000000
   2.0460000   0.5770000   0.0430000   1.8500000  -1.5180000  -1.4240000
  -1.2170000  -1.2740000  -3.0750000   0.3860000  -2.9130000  -3.0930000
   0.6150000  -0.9850000  -1.8180000   3.3460000   0.9720000   1.3350000
   3.4590000  -1.1630000  -0.2490000   0.4120000   1.3500000   1.2890000
  -0.1180000   0.2500000   0.0410000   0.6950000  -0.3940000   1.4600000
   1.7070000   2.6300000  -0.6450000   1.3470000   1.4180000  -1.8520000
   3.0250000   1.7870000  -1.4910000  -1.6210000  -1.6270000  -5.0700000
  -3.0490000  -1.4730000  -4.0050000  -2.0570000  -2.9630000  -3.9700000
   3.5690000   2.9680000   2.6370000   1.8920000   2.7620000   2.1240000
   3.1280000   3.3620000   0.9750000  -1.3800000  -0.3190000  -2.7920000
