; mobley_5200358_GMX_OPLS.itp created by acpype (v: 2023.10.27) on Wed May 20 23:42:30 2026

; For OPLS atomtypes manual fine tuning
; AC_at:OPLS_at:OPLScode: Possible_Alternatives (see ffoplsaa.atp and ffoplsaanb.itp)
; c2:CR:opls_509: ['510']
; c:C:opls_235: ['271']
; c3:CT:opls_135: ['136', '137', '149', '157', '158', '206', '209', '210', '223B', '224B', '245', '246', '274', '283', '284', '285', '292', '292B', '293B', '296', '307', '308', '505']
; n2:x:opls_x: []
; ns:x:opls_x: []
; o:O:opls_236: ['272']
; os:x:opls_x: []
; ss:S:opls_202: []
; h4:HA:opls_146: []
; hc:HC:opls_140: []
; h1:HC:opls_140: []
; hn:H:opls_240: ['241', '290', '301', '304', '310', '504', '513']

[ moleculetype ]
;name            nrexcl
 mobley_5200358   3

[ atoms ]
;   nr  type  resi  res  atom  cgnr     charge      mass       ; qtot   bond_type
     1 opls_509     1   MOL    C1    1     0.412200     12.01100 ; qtot  0.412  CR  
     2 opls_235     1   MOL    C2    2     0.754100     12.01100 ; qtot  1.166  C   
     3 opls_135     1   MOL    C3    3    -0.094100     12.01100 ; qtot  1.072  CT  
     4 opls_135     1   MOL    C4    4    -0.094100     12.01100 ; qtot  0.978  CT  
     5 opls_135     1   MOL    C5    5     0.084300     12.01100 ; qtot  1.062  CT  
     6 opls_135     1   MOL    C6    6    -0.033000     12.01100 ; qtot  1.029  CT  
     7 opls_135     1   MOL    C7    7    -0.024200     12.01100 ; qtot  1.005  CT  
     8 opls_x     1   MOL    N1    8    -0.453200      0.00000 ; qtot  0.552  x   
     9 opls_x     1   MOL    N2    9    -0.556900      0.00000 ; qtot -0.005  x   
    10 opls_236     1   MOL    O1   10    -0.534000     15.99940 ; qtot -0.539  O   
    11 opls_x     1   MOL    O2   11    -0.195600      0.00000 ; qtot -0.734  x   
    12 opls_202     1   MOL    S1   12    -0.320200     32.06000 ; qtot -1.055  S   
    13 opls_146     1   MOL    H1   13     0.050800      1.00800 ; qtot -1.004  HA  
    14 opls_140     1   MOL    H2   14     0.054033      1.00800 ; qtot -0.950  HC  
    15 opls_140     1   MOL    H3   15     0.054033      1.00800 ; qtot -0.896  HC  
    16 opls_140     1   MOL    H4   16     0.054033      1.00800 ; qtot -0.842  HC  
    17 opls_140     1   MOL    H5   17     0.054033      1.00800 ; qtot -0.788  HC  
    18 opls_140     1   MOL    H6   18     0.054033      1.00800 ; qtot -0.734  HC  
    19 opls_140     1   MOL    H7   19     0.054033      1.00800 ; qtot -0.680  HC  
    20 opls_140     1   MOL    H8   20     0.049367      1.00800 ; qtot -0.630  HC  
    21 opls_140     1   MOL    H9   21     0.049367      1.00800 ; qtot -0.581  HC  
    22 opls_140     1   MOL   H10   22     0.049367      1.00800 ; qtot -0.532  HC  
    23 opls_140     1   MOL   H11   23     0.065367      1.00800 ; qtot -0.466  HC  
    24 opls_140     1   MOL   H12   24     0.065367      1.00800 ; qtot -0.401  HC  
    25 opls_140     1   MOL   H13   25     0.065367      1.00800 ; qtot -0.336  HC  
    26 opls_240     1   MOL   H14   26     0.335500      1.00800 ; qtot -0.000  H   

[ bonds ]
;   ai     aj funct   r             k
     1      7   1 ;    1.5088e-01    2.0786e+05 ;     C1 - C7         CR - CT    
     1      8   1 ;    1.2809e-01    3.9831e+05 ;     C1 - N1         CR - x     
     1     13   1 ;    1.0865e-01    3.0117e+05 ;     C1 - H1         CR - HA    
     2      9   1 ;    1.3798e-01    2.8122e+05 ;     C2 - N2          C - x     
     2     10   1 ;    1.2190e-01    4.9421e+05 ;     C2 - O1          C - O     
     2     11   1 ;    1.3621e-01    2.9398e+05 ;     C2 - O2          C - x     
     3      7   1 ;    1.5354e-01    1.9154e+05 ;     C3 - C7         CT - CT    
     3     14   1 ;    1.0962e-01    2.8891e+05 ;     C3 - H2         CT - HC    
     3     15   1 ;    1.0962e-01    2.8891e+05 ;     C3 - H3         CT - HC    
     3     16   1 ;    1.0962e-01    2.8891e+05 ;     C3 - H4         CT - HC    
     4      7   1 ;    1.5354e-01    1.9154e+05 ;     C4 - C7         CT - CT    
     4     17   1 ;    1.0962e-01    2.8891e+05 ;     C4 - H5         CT - HC    
     4     18   1 ;    1.0962e-01    2.8891e+05 ;     C4 - H6         CT - HC    
     4     19   1 ;    1.0962e-01    2.8891e+05 ;     C4 - H7         CT - HC    
     5      9   1 ;    1.4556e-01    2.1896e+05 ;     C5 - N2         CT - x     
     5     20   1 ;    1.0969e-01    2.8804e+05 ;     C5 - H8         CT - HC    
     5     21   1 ;    1.0969e-01    2.8804e+05 ;     C5 - H9         CT - HC    
     5     22   1 ;    1.0969e-01    2.8804e+05 ;     C5 - H10        CT - HC    
     6     12   1 ;    1.8407e-01    1.5459e+05 ;     C6 - S1         CT - S     
     6     23   1 ;    1.0969e-01    2.8804e+05 ;     C6 - H11        CT - HC    
     6     24   1 ;    1.0969e-01    2.8804e+05 ;     C6 - H12        CT - HC    
     6     25   1 ;    1.0969e-01    2.8804e+05 ;     C6 - H13        CT - HC    
     7     12   1 ;    1.8407e-01    1.5459e+05 ;     C7 - S1         CT - S     
     8     11   1 ;    1.4011e-01    1.6524e+05 ;     N1 - O2          x - x     
     9     26   1 ;    1.0132e-01    3.9630e+05 ;     N2 - H14         x - H     

[ pairs ]
;   ai     aj    funct
     1      2      1 ;     C1 - C2    
     1      6      1 ;     C1 - C6    
     1     14      1 ;     C1 - H2    
     1     15      1 ;     C1 - H3    
     1     16      1 ;     C1 - H4    
     1     17      1 ;     C1 - H5    
     1     18      1 ;     C1 - H6    
     1     19      1 ;     C1 - H7    
     2     20      1 ;     C2 - H8    
     2     21      1 ;     C2 - H9    
     2     22      1 ;     C2 - H10   
     3      6      1 ;     C3 - C6    
     3     17      1 ;     C3 - H5    
     3     18      1 ;     C3 - H6    
     3     19      1 ;     C3 - H7    
     4      6      1 ;     C4 - C6    
     4     14      1 ;     C4 - H2    
     4     15      1 ;     C4 - H3    
     4     16      1 ;     C4 - H4    
     5     10      1 ;     C5 - O1    
     5     11      1 ;     C5 - O2    
     7     11      1 ;     C7 - O2    
     7     23      1 ;     C7 - H11   
     7     24      1 ;     C7 - H12   
     7     25      1 ;     C7 - H13   
     8      3      1 ;     N1 - C3    
     8      4      1 ;     N1 - C4    
     8      9      1 ;     N1 - N2    
     8     10      1 ;     N1 - O1    
     8     12      1 ;     N1 - S1    
    10     26      1 ;     O1 - H14   
    11     26      1 ;     O2 - H14   
    12     14      1 ;     S1 - H2    
    12     15      1 ;     S1 - H3    
    12     16      1 ;     S1 - H4    
    12     17      1 ;     S1 - H5    
    12     18      1 ;     S1 - H6    
    12     19      1 ;     S1 - H7    
    13      3      1 ;     H1 - C3    
    13      4      1 ;     H1 - C4    
    13     11      1 ;     H1 - O2    
    13     12      1 ;     H1 - S1    
    20     26      1 ;     H8 - H14   
    21     26      1 ;     H9 - H14   
    22     26      1 ;    H10 - H14   

[ angles ]
;   ai     aj     ak    funct   theta         cth
     1      7      3      1 ;    1.1258e+02    5.0543e+02 ;     C1 - C7   - C3       CR -   CT - CT  
     1      7      4      1 ;    1.1258e+02    5.0543e+02 ;     C1 - C7   - C4       CR -   CT - CT  
     1      7     12      1 ;    1.0898e+02    5.3187e+02 ;     C1 - C7   - S1       CR -   CT - S   
     1      8     11      1 ;    1.1114e+02    8.6944e+02 ;     C1 - N1   - O2       CR -    x - x   
     2      9      5      1 ;    1.2196e+02    6.4350e+02 ;     C2 - N2   - C5        C -    x - CT  
     2      9     26      1 ;    1.1726e+02    4.8007e+02 ;     C2 - N2   - H14       C -    x - H   
     2     11      8      1 ;    1.1213e+02    8.1563e+02 ;     C2 - O2   - N1        C -    x - x   
     3      7      4      1 ;    1.1263e+02    5.0099e+02 ;     C3 - C7   - C4       CT -   CT - CT  
     3      7     12      1 ;    1.1018e+02    5.2651e+02 ;     C3 - C7   - S1       CT -   CT - S   
     4      7     12      1 ;    1.1018e+02    5.2651e+02 ;     C4 - C7   - S1       CT -   CT - S   
     5      9     26      1 ;    1.1742e+02    4.5706e+02 ;     C5 - N2   - H14      CT -    x - H   
     6     12      7      1 ;    9.9640e+01    7.7546e+02 ;     C6 - S1   - C7       CT -    S - CT  
     7      1      8      1 ;    1.2307e+02    5.5262e+02 ;     C7 - C1   - N1       CT -   CR - x   
     7      1     13      1 ;    1.1816e+02    3.5472e+02 ;     C7 - C1   - H1       CT -   CR - HA  
     7      3     14      1 ;    1.0968e+02    3.6208e+02 ;     C7 - C3   - H2       CT -   CT - HC  
     7      3     15      1 ;    1.0968e+02    3.6208e+02 ;     C7 - C3   - H3       CT -   CT - HC  
     7      3     16      1 ;    1.0968e+02    3.6208e+02 ;     C7 - C3   - H4       CT -   CT - HC  
     7      4     17      1 ;    1.0968e+02    3.6208e+02 ;     C7 - C4   - H5       CT -   CT - HC  
     7      4     18      1 ;    1.0968e+02    3.6208e+02 ;     C7 - C4   - H6       CT -   CT - HC  
     7      4     19      1 ;    1.0968e+02    3.6208e+02 ;     C7 - C4   - H7       CT -   CT - HC  
     8      1     13      1 ;    1.2105e+02    4.2426e+02 ;     N1 - C1   - H1        x -   CR - HA  
     9      2     10      1 ;    1.2305e+02    7.2977e+02 ;     N2 - C2   - O1        x -    C - O   
     9      2     11      1 ;    1.0888e+02    7.4090e+02 ;     N2 - C2   - O2        x -    C - x   
     9      5     20      1 ;    1.0849e+02    4.0493e+02 ;     N2 - C5   - H8        x -   CT - HC  
     9      5     21      1 ;    1.0849e+02    4.0493e+02 ;     N2 - C5   - H9        x -   CT - HC  
     9      5     22      1 ;    1.0849e+02    4.0493e+02 ;     N2 - C5   - H10       x -   CT - HC  
    10      2     11      1 ;    1.2320e+02    8.4734e+02 ;     O1 - C2   - O2        O -    C - x   
    12      6     23      1 ;    1.0873e+02    3.5196e+02 ;     S1 - C6   - H11       S -   CT - HC  
    12      6     24      1 ;    1.0873e+02    3.5196e+02 ;     S1 - C6   - H12       S -   CT - HC  
    12      6     25      1 ;    1.0873e+02    3.5196e+02 ;     S1 - C6   - H13       S -   CT - HC  
    14      3     15      1 ;    1.0773e+02    2.9957e+02 ;     H2 - C3   - H3       HC -   CT - HC  
    14      3     16      1 ;    1.0773e+02    2.9957e+02 ;     H2 - C3   - H4       HC -   CT - HC  
    15      3     16      1 ;    1.0773e+02    2.9957e+02 ;     H3 - C3   - H4       HC -   CT - HC  
    17      4     18      1 ;    1.0773e+02    2.9957e+02 ;     H5 - C4   - H6       HC -   CT - HC  
    17      4     19      1 ;    1.0773e+02    2.9957e+02 ;     H5 - C4   - H7       HC -   CT - HC  
    18      4     19      1 ;    1.0773e+02    2.9957e+02 ;     H6 - C4   - H7       HC -   CT - HC  
    20      5     21      1 ;    1.0855e+02    2.9824e+02 ;     H8 - C5   - H9       HC -   CT - HC  
    20      5     22      1 ;    1.0855e+02    2.9824e+02 ;     H8 - C5   - H10      HC -   CT - HC  
    21      5     22      1 ;    1.0855e+02    2.9824e+02 ;     H9 - C5   - H10      HC -   CT - HC  
    23      6     24      1 ;    1.0855e+02    2.9824e+02 ;    H11 - C6   - H12      HC -   CT - HC  
    23      6     25      1 ;    1.0855e+02    2.9824e+02 ;    H11 - C6   - H13      HC -   CT - HC  
    24      6     25      1 ;    1.0855e+02    2.9824e+02 ;    H12 - C6   - H13      HC -   CT - HC  

[ dihedrals ] ; propers
; for gromacs 4.5 or higher, using funct 9
;    i      j      k      l   func   phase     kd      pn
     1      7      3     14      9 ;     0.00   0.65084   3 ;     C1-    C7-    C3-    H2
     1      7      3     15      9 ;     0.00   0.65084   3 ;     C1-    C7-    C3-    H3
     1      7      3     16      9 ;     0.00   0.65084   3 ;     C1-    C7-    C3-    H4
     1      7      4     17      9 ;     0.00   0.65084   3 ;     C1-    C7-    C4-    H5
     1      7      4     18      9 ;     0.00   0.65084   3 ;     C1-    C7-    C4-    H6
     1      7      4     19      9 ;     0.00   0.65084   3 ;     C1-    C7-    C4-    H7
     1      7     12      6      9 ;     0.00   1.39467   3 ;     C1-    C7-    S1-    C6
     1      8     11      2      9 ;   180.00  12.55200   2 ;     C1-    N1-    O2-    C2
     2      9      5     20      9 ;     0.00   0.00000   0 ;     C2-    N2-    C5-    H8
     2      9      5     21      9 ;     0.00   0.00000   0 ;     C2-    N2-    C5-    H9
     2      9      5     22      9 ;     0.00   0.00000   0 ;     C2-    N2-    C5-   H10
     3      7      4     17      9 ;     0.00   0.54392   3 ;     C3-    C7-    C4-    H5
     3      7      4     18      9 ;     0.00   0.54392   3 ;     C3-    C7-    C4-    H6
     3      7      4     19      9 ;     0.00   0.54392   3 ;     C3-    C7-    C4-    H7
     3      7     12      6      9 ;   180.00   0.83680   1 ;     C3-    C7-    S1-    C6
     4      7      3     14      9 ;     0.00   0.54392   3 ;     C4-    C7-    C3-    H2
     4      7      3     15      9 ;     0.00   0.54392   3 ;     C4-    C7-    C3-    H3
     4      7      3     16      9 ;     0.00   0.54392   3 ;     C4-    C7-    C3-    H4
     4      7     12      6      9 ;   180.00   0.83680   1 ;     C4-    C7-    S1-    C6
     5      9      2     10      9 ;   180.00  10.46000   2 ;     C5-    N2-    C2-    O1
     5      9      2     11      9 ;   180.00  10.46000   2 ;     C5-    N2-    C2-    O2
     7      1      8     11      9 ;   180.00  17.36360   2 ;     C7-    C1-    N1-    O2
     7     12      6     23      9 ;     0.00   0.92048   3 ;     C7-    S1-    C6-   H11
     7     12      6     24      9 ;     0.00   0.92048   3 ;     C7-    S1-    C6-   H12
     7     12      6     25      9 ;     0.00   0.92048   3 ;     C7-    S1-    C6-   H13
     8      1      7      3      9 ;     0.00   0.00000   0 ;     N1-    C1-    C7-    C3
     8      1      7      4      9 ;     0.00   0.00000   0 ;     N1-    C1-    C7-    C4
     8      1      7     12      9 ;     0.00   0.00000   0 ;     N1-    C1-    C7-    S1
     8     11      2      9      9 ;   180.00  11.29680   2 ;     N1-    O2-    C2-    N2
     8     11      2     10      9 ;   180.00  11.29680   2 ;     N1-    O2-    C2-    O1
    10      2      9     26      9 ;     0.00   8.36800   1 ;     O1-    C2-    N2-   H14
    10      2      9     26      9 ;   180.00  10.46000   2 ;     O1-    C2-    N2-   H14
    11      2      9     26      9 ;   180.00  10.46000   2 ;     O2-    C2-    N2-   H14
    12      7      3     14      9 ;     0.00   0.65084   3 ;     S1-    C7-    C3-    H2
    12      7      3     15      9 ;     0.00   0.65084   3 ;     S1-    C7-    C3-    H3
    12      7      3     16      9 ;     0.00   0.65084   3 ;     S1-    C7-    C3-    H4
    12      7      4     17      9 ;     0.00   0.65084   3 ;     S1-    C7-    C4-    H5
    12      7      4     18      9 ;     0.00   0.65084   3 ;     S1-    C7-    C4-    H6
    12      7      4     19      9 ;     0.00   0.65084   3 ;     S1-    C7-    C4-    H7
    13      1      7      3      9 ;     0.00   0.00000   0 ;     H1-    C1-    C7-    C3
    13      1      7      4      9 ;     0.00   0.00000   0 ;     H1-    C1-    C7-    C4
    13      1      7     12      9 ;     0.00   0.00000   0 ;     H1-    C1-    C7-    S1
    13      1      8     11      9 ;   180.00  17.36360   2 ;     H1-    C1-    N1-    O2
    20      5      9     26      9 ;     0.00   0.00000   0 ;     H8-    C5-    N2-   H14
    21      5      9     26      9 ;     0.00   0.00000   0 ;     H9-    C5-    N2-   H14
    22      5      9     26      9 ;     0.00   0.00000   0 ;    H10-    C5-    N2-   H14

[ dihedrals ] ; impropers
; treated as propers in GROMACS to use correct AMBER analytical function
;    i      j      k      l   func   phase     kd      pn
     2      5      9     26      4 ;   180.00   4.60240   2 ;     C2-    C5-    N2-   H14
     8      1     13      7      4 ;   180.00   4.60240   2 ;     N1-    C1-    H1-    C7
     9     10      2     11      4 ;   180.00   4.60240   2 ;     N2-    O1-    C2-    O2
