; mobley_5200358_GMX_OPLS.top created by acpype (v: 2023.10.27) on Wed May 20 23:42:30 2026

; Include forcefield parameters
#include "ffoplsaa.itp"

; Include mobley_5200358_GMX.itp topology
#include "mobley_5200358_GMX.itp"

; Ligand position restraints
#ifdef POSRES_LIG
#include "posre_mobley_5200358.itp"
#endif

[ system ]
 mobley_5200358

[ molecules ]
; Compound        nmols
 mobley_5200358   1     
