mobley_5200358_GMX.gro created by acpype (v: 2023.10.27) on Wed May 20 23:42:30 2026
 26
    1  MOL   C1    1   0.248  -0.077  -0.056
    1  MOL   C2    2  -0.002  -0.183  -0.269
    1  MOL   C3    3   0.069   0.044   0.075
    1  MOL   C4    4   0.204   0.166  -0.104
    1  MOL   C5    5  -0.204  -0.188  -0.409
    1  MOL   C6    6   0.293   0.267   0.180
    1  MOL   C7    7   0.205   0.058   0.004
    1  MOL   N1    8   0.185  -0.152  -0.142
    1  MOL   N2    9  -0.122  -0.127  -0.308
    1  MOL   O1   10   0.039  -0.291  -0.309
    1  MOL   O2   11   0.061  -0.099  -0.182
    1  MOL   S1   12   0.335   0.097   0.134
    1  MOL   H1   13   0.346  -0.116  -0.025
    1  MOL   H2   14   0.041   0.135   0.129
    1  MOL   H3   15  -0.012   0.025   0.004
    1  MOL   H4   16   0.069  -0.039   0.146
    1  MOL   H5   17   0.171   0.263  -0.065
    1  MOL   H6   18   0.135   0.142  -0.185
    1  MOL   H7   19   0.302   0.179  -0.149
    1  MOL   H8   20  -0.162  -0.163  -0.507
    1  MOL   H9   21  -0.305  -0.147  -0.401
    1  MOL  H10   22  -0.206  -0.296  -0.397
    1  MOL  H11   23   0.357   0.297   0.264
    1  MOL  H12   24   0.189   0.276   0.212
    1  MOL  H13   25   0.313   0.336   0.098
    1  MOL  H14   26  -0.138  -0.032  -0.279
   13.23600    12.65000    15.41400
