mobley_7010316_GMX.gro created by acpype (v: 2023.10.27) on Thu May 21 00:01:18 2026
   19
    1MOL     C1    1   2.174   2.173   2.309
    1MOL     C2    2   2.288   2.183   2.410
    1MOL     C3    3   2.216   2.226   2.171
    1MOL     C4    4   2.344   2.325   2.419
    1MOL     C5    5   2.271   2.368   2.180
    1MOL     C6    6   2.386   2.377   2.282
    1MOL     O1    7   2.428   2.512   2.293
    1MOL     H1    8   2.141   2.069   2.300
    1MOL     H2    9   2.088   2.231   2.345
    1MOL     H3   10   2.252   2.151   2.508
    1MOL     H4   11   2.368   2.114   2.381
    1MOL     H5   12   2.292   2.160   2.128
    1MOL     H6   13   2.130   2.224   2.103
    1MOL     H7   14   2.268   2.392   2.463
    1MOL     H8   15   2.429   2.327   2.487
    1MOL     H9   16   2.306   2.401   2.082
    1MOL    H10   17   2.191   2.438   2.208
    1MOL    H11   18   2.471   2.319   2.245
    1MOL    H12   19   2.482   2.532   2.215
   4.58127   4.58127   4.58127
