; mobley_7200804_GMX_OPLS.top created by acpype (v: 2023.10.27) on Thu May 21 00:01:19 2026

; Include forcefield parameters
#include "ffoplsaa.itp"

; Include mobley_7200804_GMX.itp topology
#include "mobley_7200804_GMX.itp"

; Ligand position restraints
#ifdef POSRES_LIG
#include "posre_mobley_7200804.itp"
#endif

[ system ]
 mobley_7200804

[ molecules ]
; Compound        nmols
 mobley_7200804   1     
