mobley_755351_GMX.gro created by acpype (v: 2023.10.27) on Wed May 20 23:56:23 2026
   18
    1MOL     C1    1   2.275   2.427   2.247
    1MOL     C2    2   2.382   2.366   2.182
    1MOL     C3    3   2.276   2.439   2.387
    1MOL     C4    4   2.489   2.326   2.395
    1MOL     C5    5   2.489   2.315   2.256
    1MOL     C6    6   2.382   2.388   2.460
    1MOL     C7    7   2.271   2.463   2.656
    1MOL     N1    8   2.597   2.252   2.190
    1MOL     O1    9   2.383   2.399   2.596
    1MOL     H1   10   2.192   2.467   2.190
    1MOL     H2   11   2.381   2.357   2.074
    1MOL     H3   12   2.192   2.487   2.437
    1MOL     H4   13   2.572   2.287   2.453
    1MOL     H5   14   2.192   2.390   2.675
    1MOL     H6   15   2.234   2.542   2.590
    1MOL     H7   16   2.302   2.508   2.751
    1MOL     H8   17   2.578   2.190   2.114
    1MOL     H9   18   2.689   2.264   2.227
   4.76359   4.76359   4.76359
