; mobley_2837389_GMX_OPLS.itp created by acpype (v: 2023.10.27) on Thu May 21 00:02:04 2026

; For OPLS atomtypes manual fine tuning
; AC_at:OPLS_at:OPLScode: Possible_Alternatives (see ffoplsaa.atp and ffoplsaanb.itp)
; cc:C*:opls_500: ['506', '507', '508', '514']
; cd:C*:opls_500: ['506', '507', '508', '514']
; na:NA:opls_503: ['512']
; ha:HA:opls_146: []
; h4:HA:opls_146: []
; hn:H:opls_240: ['241', '290', '301', '304', '310', '504', '513']

[ moleculetype ]
;name            nrexcl
 mobley_2837389   3

[ atoms ]
;   nr  type  resi  res  atom  cgnr     charge      mass       ; qtot   bond_type
     1 opls_500     1   MOL    C1    1    -0.196000     12.01100 ; qtot -0.196  C*  
     2 opls_500     1   MOL    C2    2    -0.196000     12.01100 ; qtot -0.392  C*  
     3 opls_500     1   MOL    C3    3    -0.170300     12.01100 ; qtot -0.562  C*  
     4 opls_500     1   MOL    C4    4    -0.170300     12.01100 ; qtot -0.733  C*  
     5 opls_503     1   MOL    N1    5    -0.182100     14.00670 ; qtot -0.915  NA  
     6 opls_146     1   MOL    H1    6     0.150000      1.00800 ; qtot -0.765  HA  
     7 opls_146     1   MOL    H2    7     0.150000      1.00800 ; qtot -0.615  HA  
     8 opls_146     1   MOL    H3    8     0.162000      1.00800 ; qtot -0.453  HA  
     9 opls_146     1   MOL    H4    9     0.162000      1.00800 ; qtot -0.291  HA  
    10 opls_240     1   MOL    H5   10     0.290700      1.00800 ; qtot  0.000  H   

[ bonds ]
;   ai     aj funct   r             k
     1      2   1 ;    1.4274e-01    2.6947e+05 ;     C1 - C2         C* - C*    
     1      3   1 ;    1.3730e-01    3.2321e+05 ;     C1 - C3         C* - C*    
     1      6   1 ;    1.0838e-01    3.0470e+05 ;     C1 - H1         C* - HA    
     2      4   1 ;    1.3730e-01    3.2321e+05 ;     C2 - C4         C* - C*    
     2      7   1 ;    1.0838e-01    3.0470e+05 ;     C2 - H2         C* - HA    
     3      5   1 ;    1.3830e-01    2.7819e+05 ;     C3 - N1         C* - NA    
     3      8   1 ;    1.0818e-01    3.0735e+05 ;     C3 - H3         C* - HA    
     4      5   1 ;    1.3830e-01    2.7819e+05 ;     C4 - N1         C* - NA    
     4      9   1 ;    1.0818e-01    3.0735e+05 ;     C4 - H4         C* - HA    
     5     10   1 ;    1.0095e-01    4.0315e+05 ;     N1 - H5         NA - H     

[ pairs ]
;   ai     aj    funct
     1      9      1 ;     C1 - H4    
     1     10      1 ;     C1 - H5    
     2      8      1 ;     C2 - H3    
     2     10      1 ;     C2 - H5    
     3      7      1 ;     C3 - H2    
     3      9      1 ;     C3 - H4    
     4      8      1 ;     C4 - H3    
     5      7      1 ;     N1 - H2    
     6      4      1 ;     H1 - C4    
     6      5      1 ;     H1 - N1    
     6      7      1 ;     H1 - H2    
     6      8      1 ;     H1 - H3    
     7      9      1 ;     H2 - H4    
     8     10      1 ;     H3 - H5    
     9     10      1 ;     H4 - H5    

[ angles ]
;   ai     aj     ak    funct   theta         cth
     1      2      4      1 ;    1.1919e+02    5.3363e+02 ;     C1 - C2   - C4       C* -   C* - C*  
     1      2      7      1 ;    1.1971e+02    3.6987e+02 ;     C1 - C2   - H2       C* -   C* - HA  
     1      3      5      1 ;    1.0899e+02    6.0241e+02 ;     C1 - C3   - N1       C* -   C* - NA  
     1      3      8      1 ;    1.2764e+02    3.6987e+02 ;     C1 - C3   - H3       C* -   C* - HA  
     2      1      3      1 ;    1.1919e+02    5.3363e+02 ;     C2 - C1   - C3       C* -   C* - C*  
     2      1      6      1 ;    1.1971e+02    3.6987e+02 ;     C2 - C1   - H1       C* -   C* - HA  
     2      4      5      1 ;    1.0899e+02    6.0241e+02 ;     C2 - C4   - N1       C* -   C* - NA  
     2      4      9      1 ;    1.2764e+02    3.6987e+02 ;     C2 - C4   - H4       C* -   C* - HA  
     3      1      6      1 ;    1.2140e+02    3.7907e+02 ;     C3 - C1   - H1       C* -   C* - HA  
     3      5      4      1 ;    1.1090e+02    6.9279e+02 ;     C3 - N1   - C4       C* -   NA - C*  
     3      5     10      1 ;    1.2524e+02    4.6384e+02 ;     C3 - N1   - H5       C* -   NA - H   
     4      2      7      1 ;    1.2140e+02    3.7907e+02 ;     C4 - C2   - H2       C* -   C* - HA  
     4      5     10      1 ;    1.2524e+02    4.6384e+02 ;     C4 - N1   - H5       C* -   NA - H   
     5      3      8      1 ;    1.2017e+02    4.0233e+02 ;     N1 - C3   - H3       NA -   C* - HA  
     5      4      9      1 ;    1.2017e+02    4.0233e+02 ;     N1 - C4   - H4       NA -   C* - HA  

[ dihedrals ] ; propers
; for gromacs 4.5 or higher, using funct 9
;    i      j      k      l   func   phase     kd      pn
     1      2      4      5      9 ;   180.00  16.73600   2 ;     C1-    C2-    C4-    N1
     1      2      4      9      9 ;   180.00  16.73600   2 ;     C1-    C2-    C4-    H4
     1      3      5      4      9 ;   180.00   7.11280   2 ;     C1-    C3-    N1-    C4
     1      3      5     10      9 ;   180.00   7.11280   2 ;     C1-    C3-    N1-    H5
     2      1      3      5      9 ;   180.00  16.73600   2 ;     C2-    C1-    C3-    N1
     2      1      3      8      9 ;   180.00  16.73600   2 ;     C2-    C1-    C3-    H3
     2      4      5      3      9 ;   180.00   7.11280   2 ;     C2-    C4-    N1-    C3
     2      4      5     10      9 ;   180.00   7.11280   2 ;     C2-    C4-    N1-    H5
     3      1      2      4      9 ;   180.00  16.73600   2 ;     C3-    C1-    C2-    C4
     3      1      2      7      9 ;   180.00  16.73600   2 ;     C3-    C1-    C2-    H2
     3      5      4      9      9 ;   180.00   7.11280   2 ;     C3-    N1-    C4-    H4
     4      5      3      8      9 ;   180.00   7.11280   2 ;     C4-    N1-    C3-    H3
     5      4      2      7      9 ;   180.00  16.73600   2 ;     N1-    C4-    C2-    H2
     6      1      2      4      9 ;   180.00  16.73600   2 ;     H1-    C1-    C2-    C4
     6      1      2      7      9 ;   180.00  16.73600   2 ;     H1-    C1-    C2-    H2
     6      1      3      5      9 ;   180.00  16.73600   2 ;     H1-    C1-    C3-    N1
     6      1      3      8      9 ;   180.00  16.73600   2 ;     H1-    C1-    C3-    H3
     7      2      4      9      9 ;   180.00  16.73600   2 ;     H2-    C2-    C4-    H4
     8      3      5     10      9 ;   180.00   7.11280   2 ;     H3-    C3-    N1-    H5
     9      4      5     10      9 ;   180.00   7.11280   2 ;     H4-    C4-    N1-    H5

[ dihedrals ] ; impropers
; treated as propers in GROMACS to use correct AMBER analytical function
;    i      j      k      l   func   phase     kd      pn
     1      4      2      7      4 ;   180.00   4.60240   2 ;     C1-    C4-    C2-    H2
     1      8      3      5      4 ;   180.00   4.60240   2 ;     C1-    H3-    C3-    N1
     2      9      4      5      4 ;   180.00   4.60240   2 ;     C2-    H4-    C4-    N1
     3      4      5     10      4 ;   180.00   4.60240   2 ;     C3-    C4-    N1-    H5
     6      1      3      2      4 ;   180.00   4.60240   2 ;     H1-    C1-    C3-    C2
