%VERSION  VERSION_STAMP = V0001.000  DATE = 05/21/26  00:02:04                  
%FLAG TITLE                                                                     
%FORMAT(20a4)                                                                   
pyrrole                                                                         
%FLAG POINTERS                                                                  
%FORMAT(10I8)                                                                   
      10       5       5       5      10       5      20       5       0       0
      41       1       5       5       5       6       8       3       6       0
       0       0       0       0       0       0       0       0      10       0
       0
%FLAG ATOM_NAME                                                                 
%FORMAT(20a4)                                                                   
C1  C2  C3  C4  N1  H1  H2  H3  H4  H5  
%FLAG CHARGE                                                                    
%FORMAT(5E16.8)                                                                 
 -3.57157080E+00 -3.57157080E+00 -3.10325769E+00 -3.10325769E+00 -3.31828083E+00
  2.73334500E+00  2.73334500E+00  2.95201260E+00  2.95201260E+00  5.29722261E+00
%FLAG ATOMIC_NUMBER                                                             
%FORMAT(10I8)                                                                   
       6       6       6       6       7       1       1       1       1       1
%FLAG MASS                                                                      
%FORMAT(5E16.8)                                                                 
  1.20100000E+01  1.20100000E+01  1.20100000E+01  1.20100000E+01  1.40100000E+01
  1.00800000E+00  1.00800000E+00  1.00800000E+00  1.00800000E+00  1.00800000E+00
%FLAG ATOM_TYPE_INDEX                                                           
%FORMAT(10I8)                                                                   
       1       1       1       1       2       3       3       4       4       5
%FLAG NUMBER_EXCLUDED_ATOMS                                                     
%FORMAT(10I8)                                                                   
       9       8       7       6       5       2       1       1       1       1
%FLAG NONBONDED_PARM_INDEX                                                      
%FORMAT(10I8)                                                                   
       1       2       4       7      11       2       3       5       8      12
       4       5       6       9      13       7       8       9      10      14
      11      12      13      14      15
%FLAG RESIDUE_LABEL                                                             
%FORMAT(20a4)                                                                   
MOL 
%FLAG RESIDUE_POINTER                                                           
%FORMAT(10I8)                                                                   
       1
%FLAG BOND_FORCE_CONSTANT                                                       
%FORMAT(5E16.8)                                                                 
  3.22020000E+02  3.86240000E+02  3.64120000E+02  3.32450000E+02  3.67290000E+02
  4.81770000E+02
%FLAG BOND_EQUIL_VALUE                                                          
%FORMAT(5E16.8)                                                                 
  1.42740000E+00  1.37300000E+00  1.08380000E+00  1.38300000E+00  1.08180000E+00
  1.00950000E+00
%FLAG ANGLE_FORCE_CONSTANT                                                      
%FORMAT(5E16.8)                                                                 
  6.37700000E+01  4.42000000E+01  7.19900000E+01  4.42000000E+01  4.53000000E+01
  8.27900000E+01  5.54300000E+01  4.80800000E+01
%FLAG ANGLE_EQUIL_VALUE                                                         
%FORMAT(5E16.8)                                                                 
  2.08025883E+00  2.08933454E+00  1.90223517E+00  2.22773921E+00  2.11883062E+00
  1.93557097E+00  2.18585129E+00  2.09736306E+00
%FLAG DIHEDRAL_FORCE_CONSTANT                                                   
%FORMAT(5E16.8)                                                                 
  4.00000000E+00  1.70000000E+00  1.10000000E+00
%FLAG DIHEDRAL_PERIODICITY                                                      
%FORMAT(5E16.8)                                                                 
  2.00000000E+00  2.00000000E+00  2.00000000E+00
%FLAG DIHEDRAL_PHASE                                                            
%FORMAT(5E16.8)                                                                 
  3.14159400E+00  3.14159400E+00  3.14159400E+00
%FLAG SCEE_SCALE_FACTOR                                                         
%FORMAT(5E16.8)                                                                 
  1.20000000E+00  1.20000000E+00  0.00000000E+00
%FLAG SCNB_SCALE_FACTOR                                                         
%FORMAT(5E16.8)                                                                 
  2.00000000E+00  2.00000000E+00  0.00000000E+00
%FLAG SOLTY                                                                     
%FORMAT(5E16.8)                                                                 
  0.00000000E+00  0.00000000E+00  0.00000000E+00  0.00000000E+00  0.00000000E+00
  0.00000000E+00
%FLAG LENNARD_JONES_ACOEF                                                       
%FORMAT(5E16.8)                                                                 
  6.96551276E+05  8.20152428E+05  9.62429652E+05  7.52549148E+04  8.65595848E+04
  6.90855956E+03  6.27751680E+04  7.19580450E+04  5.62610481E+03  4.56536476E+03
  1.71458823E+03  1.82491629E+03  9.04434904E+01  6.76796831E+01  1.34728399E-01
%FLAG LENNARD_JONES_BCOEF                                                       
%FORMAT(5E16.8)                                                                 
  5.24668528E+02  6.82622272E+02  8.86629877E+02  1.09570372E+02  1.40899023E+02
  2.10929191E+01  1.00073628E+02  1.28466555E+02  1.90347353E+01  1.71467049E+01
  1.46824710E+01  1.81620725E+01  2.14252117E+00  1.85338491E+00  7.34107347E-02
%FLAG BONDS_INC_HYDROGEN                                                        
%FORMAT(10I8)                                                                   
       0      15       3       3      18       3       6      21       5       9
      24       5      12      27       6
%FLAG BONDS_WITHOUT_HYDROGEN                                                    
%FORMAT(10I8)                                                                   
       0       3       1       0       6       2       3       9       2       6
      12       4       9      12       4
%FLAG ANGLES_INC_HYDROGEN                                                       
%FORMAT(10I8)                                                                   
       0       3      18       2       0       6      21       4       3       0
      15       2       3       9      24       4       6       0      15       5
       6      12      27       7       9       3      18       5       9      12
      27       7      12       6      21       8      12       9      24       8
%FLAG ANGLES_WITHOUT_HYDROGEN                                                   
%FORMAT(10I8)                                                                   
       0       3       9       1       0       6      12       3       3       0
       6       1       3       9      12       3       6      12       9       6
%FLAG DIHEDRALS_INC_HYDROGEN                                                    
%FORMAT(10I8)                                                                   
       0       3       9      24       1       0       6      12      27       2
       3       0       6      21       1       3       9      12      27       2
       6       0       3      18       1       6      12       9      24       2
      15       0       3       9       1       9      12       6      21       2
      15       0       6      12       1      12       9       3      18       1
      15       0       3      18       1      15       0       6      21       1
      18       3       9      24       1      21       6      12      27       2
      24       9      12      27       2      15       0      -6      -3       3
       0       9      -3     -18       3       0      21      -6     -12       3
       3      24      -9     -12       3       6       9     -12     -27       3
%FLAG DIHEDRALS_WITHOUT_HYDROGEN                                                
%FORMAT(10I8)                                                                   
       0       3      -9      12       1       0       6     -12       9       2
       3       0      -6      12       1       3       9     -12       6       2
       6       0      -3       9       1
%FLAG EXCLUDED_ATOMS_LIST                                                       
%FORMAT(10I8)                                                                   
       2       3       4       5       6       7       8       9      10       3
       4       5       6       7       8       9      10       4       5       6
       7       8       9      10       5       6       7       8       9      10
       6       7       8       9      10       7       8       9      10      10
       0
%FLAG HBOND_ACOEF                                                               
%FORMAT(5E16.8)                                                                 

%FLAG HBOND_BCOEF                                                               
%FORMAT(5E16.8)                                                                 

%FLAG HBCUT                                                                     
%FORMAT(5E16.8)                                                                 

%FLAG AMBER_ATOM_TYPE                                                           
%FORMAT(20a4)                                                                   
cc  cc  cd  cd  na  ha  ha  h4  h4  hn  
%FLAG TREE_CHAIN_CLASSIFICATION                                                 
%FORMAT(20a4)                                                                   
BLA BLA BLA BLA BLA BLA BLA BLA BLA BLA 
%FLAG JOIN_ARRAY                                                                
%FORMAT(10I8)                                                                   
       0       0       0       0       0       0       0       0       0       0
%FLAG IROTAT                                                                    
%FORMAT(10I8)                                                                   
       0       0       0       0       0       0       0       0       0       0
%FLAG RADIUS_SET                                                                
%FORMAT(1a80)                                                                   
modified Bondi radii (mbondi)                                                   
%FLAG RADII                                                                     
%FORMAT(5E16.8)                                                                 
  1.70000000E+00  1.70000000E+00  1.70000000E+00  1.70000000E+00  1.55000000E+00
  1.30000000E+00  1.30000000E+00  1.30000000E+00  1.30000000E+00  1.30000000E+00
%FLAG SCREEN                                                                    
%FORMAT(5E16.8)                                                                 
  7.20000000E-01  7.20000000E-01  7.20000000E-01  7.20000000E-01  7.90000000E-01
  8.50000000E-01  8.50000000E-01  8.50000000E-01  8.50000000E-01  8.50000000E-01
%FLAG IPOL                                                                      
%FORMAT(1I8)                                                                    
       0
