pyrrole
    10
   1.4340000   0.4030000   1.6740000   0.2540000  -0.0700000   1.0480000
   1.3370000   0.1030000   3.0140000  -0.5280000  -0.6450000   2.0260000
   0.1400000  -0.5330000   3.2170000   2.2640000   0.9070000   1.1990000
   0.0010000   0.0000000  -0.0000000   2.0110000   0.2850000   3.8400000
  -1.4980000  -1.1210000   1.9810000  -0.1970000  -0.8690000   4.1090000
