mobley_9717937_GMX.gro created by acpype (v: 2023.10.27) on Wed May 20 23:48:20 2026
   22
    1MOL     C1    1   2.471   2.465   2.110
    1MOL     C2    2   2.363   2.523   2.177
    1MOL     C3    3   2.574   2.406   2.182
    1MOL     C4    4   2.390   2.344   2.735
    1MOL     C5    5   2.445   2.447   2.812
    1MOL     C6    6   2.358   2.521   2.317
    1MOL     C7    7   2.570   2.404   2.321
    1MOL     C8    8   2.396   2.350   2.596
    1MOL     C9    9   2.506   2.555   2.749
    1MOL    C10   10   2.462   2.461   2.389
    1MOL    C11   11   2.457   2.459   2.533
    1MOL    C12   12   2.512   2.562   2.610
    1MOL    CL1   13   2.590   2.699   2.538
    1MOL     H1   14   2.474   2.467   2.001
    1MOL     H2   15   2.282   2.569   2.121
    1MOL     H3   16   2.658   2.361   2.129
    1MOL     H4   17   2.342   2.260   2.783
    1MOL     H5   18   2.440   2.442   2.920
    1MOL     H6   19   2.274   2.566   2.368
    1MOL     H7   20   2.651   2.357   2.376
    1MOL     H8   21   2.353   2.269   2.537
    1MOL     H9   22   2.548   2.635   2.811
   4.91997   4.91997   4.91997
