%VERSION  VERSION_STAMP = V0001.000  DATE = 05/21/26  00:03:05                  
%FLAG TITLE                                                                     
%FORMAT(20a4)                                                                   
SAMPL4_012                                                                      
%FLAG POINTERS                                                                  
%FORMAT(10I8)                                                                   
      27       5      16      11      36      15      60      29       0       0
     152       1      11      15      29      10      20      23       7       0
       0       0       0       0       0       0       0       0      27       0
       0
%FLAG ATOM_NAME                                                                 
%FORMAT(20a4)                                                                   
C1  C2  C3  C4  C5  C6  C7  C8  C9  C10 O1  H1  H2  H3  H4  H5  H6  H7  H8  H9  
H10 H11 H12 H13 H14 H15 H16 
%FLAG CHARGE                                                                    
%FORMAT(5E16.8)                                                                 
  1.03885332E+01 -4.04535060E+00 -2.04818652E+00 -3.23263602E+00 -1.30107222E+00
 -1.41040602E+00 -2.98299051E+00 -4.10001750E-01 -1.12796037E+00 -1.56894003E+00
 -9.64141893E+00  2.06823105E+00  2.06823105E+00  1.30653891E+00  1.30653891E+00
  8.87426010E-01  8.87426010E-01  8.78314860E-01  8.78314860E-01  1.25187201E+00
  1.06964901E+00  7.96314510E-01  7.96314510E-01  7.96314510E-01  7.90246484E-01
  7.90246484E-01  7.90246484E-01
%FLAG ATOMIC_NUMBER                                                             
%FORMAT(10I8)                                                                   
       6       6       6       6       6       6       6       6       6       6
       8       1       1       1       1       1       1       1       1       1
       1       1       1       1       1       1       1
%FLAG MASS                                                                      
%FORMAT(5E16.8)                                                                 
  1.20100000E+01  1.20100000E+01  1.20100000E+01  1.20100000E+01  1.20100000E+01
  1.20100000E+01  1.20100000E+01  1.20100000E+01  1.20100000E+01  1.20100000E+01
  1.60000000E+01  1.00800000E+00  1.00800000E+00  1.00800000E+00  1.00800000E+00
  1.00800000E+00  1.00800000E+00  1.00800000E+00  1.00800000E+00  1.00800000E+00
  1.00800000E+00  1.00800000E+00  1.00800000E+00  1.00800000E+00  1.00800000E+00
  1.00800000E+00  1.00800000E+00
%FLAG ATOM_TYPE_INDEX                                                           
%FORMAT(10I8)                                                                   
       1       1       1       2       2       2       2       2       2       2
       3       4       4       5       5       5       5       5       5       5
       5       5       5       5       5       5       5
%FLAG NUMBER_EXCLUDED_ATOMS                                                     
%FORMAT(10I8)                                                                   
      17      11      15      13      14      12      13      14       6       7
       3       1       1       2       1       4       3       2       1       3
       1       2       1       1       2       1       1
%FLAG NONBONDED_PARM_INDEX                                                      
%FORMAT(10I8)                                                                   
       1       2       4       7      11       2       3       5       8      12
       4       5       6       9      13       7       8       9      10      14
      11      12      13      14      15
%FLAG RESIDUE_LABEL                                                             
%FORMAT(20a4)                                                                   
MOL 
%FLAG RESIDUE_POINTER                                                           
%FORMAT(10I8)                                                                   
       1
%FLAG BOND_FORCE_CONSTANT                                                       
%FORMAT(5E16.8)                                                                 
  2.33630000E+02  5.90600000E+02  4.36000000E+02  3.57290000E+02  2.44960000E+02
  2.48400000E+02  2.26810000E+02  3.42750000E+02  2.23800000E+02  3.45250000E+02
%FLAG BOND_EQUIL_VALUE                                                          
%FORMAT(5E16.8)                                                                 
  1.52870000E+00  1.21900000E+00  1.33790000E+00  1.08820000E+00  1.51330000E+00
  1.50880000E+00  1.53840000E+00  1.09790000E+00  1.54280000E+00  1.09620000E+00
%FLAG ANGLE_FORCE_CONSTANT                                                      
%FORMAT(5E16.8)                                                                 
  6.02700000E+01  4.38400000E+01  6.09300000E+01  6.12400000E+01  6.08800000E+01
  4.63700000E+01  6.05700000E+01  4.39000000E+01  4.37600000E+01  5.93400000E+01
  7.65600000E+01  6.01800000E+01  4.32300000E+01  5.99900000E+01  4.28900000E+01
  5.97700000E+01  4.35200000E+01  3.46600000E+01  3.59300000E+01  3.58000000E+01
%FLAG ANGLE_EQUIL_VALUE                                                         
%FORMAT(5E16.8)                                                                 
  1.94482122E+00  1.87919681E+00  1.89699918E+00  2.14710497E+00  2.18078984E+00
  2.10120279E+00  1.94447215E+00  1.90782022E+00  1.93120765E+00  2.01864868E+00
  2.13523672E+00  1.93836350E+00  1.91026369E+00  1.94482122E+00  1.93085858E+00
  2.03697464E+00  1.87553162E+00  2.03610198E+00  1.86087085E+00  1.88024401E+00
%FLAG DIHEDRAL_FORCE_CONSTANT                                                   
%FORMAT(5E16.8)                                                                 
  1.55555556E-01  4.60000000E-01  4.00000000E-02  0.00000000E+00  0.00000000E+00
  2.60000000E-01  2.62000000E-01  0.00000000E+00  5.20000000E-01  1.30000000E-01
  1.17400000E+01  1.10000000E-01  8.00000000E-02  6.65000000E+00  1.50000000E-01
  6.80000000E-01  2.00000000E-01  4.40000000E-01  4.03000000E+00  3.66000000E+00
  1.20000000E-01  1.05000000E+01  1.10000000E+00
%FLAG DIHEDRAL_PERIODICITY                                                      
%FORMAT(5E16.8)                                                                 
  3.00000000E+00  1.00000000E+00  2.00000000E+00  3.00000000E+00  2.00000000E+00
  3.00000000E+00  2.00000000E+00  3.00000000E+00  3.00000000E+00  3.00000000E+00
  1.00000000E+00  2.00000000E+00  3.00000000E+00  2.00000000E+00  3.00000000E+00
  1.00000000E+00  2.00000000E+00  3.00000000E+00  1.00000000E+00  2.00000000E+00
  3.00000000E+00  2.00000000E+00  2.00000000E+00
%FLAG DIHEDRAL_PHASE                                                            
%FORMAT(5E16.8)                                                                 
  0.00000000E+00  3.14159400E+00  0.00000000E+00  0.00000000E+00  0.00000000E+00
  3.14159400E+00  3.14159400E+00  3.14159400E+00  0.00000000E+00  0.00000000E+00
  0.00000000E+00  0.00000000E+00  3.14159400E+00  3.14159400E+00  0.00000000E+00
  0.00000000E+00  3.14159400E+00  3.14159400E+00  0.00000000E+00  3.14159400E+00
  0.00000000E+00  3.14159400E+00  3.14159400E+00
%FLAG SCEE_SCALE_FACTOR                                                         
%FORMAT(5E16.8)                                                                 
  1.20000000E+00  1.20000000E+00  1.20000000E+00  1.20000000E+00  1.20000000E+00
  1.20000000E+00  1.20000000E+00  1.20000000E+00  1.20000000E+00  1.20000000E+00
  1.20000000E+00  1.20000000E+00  1.20000000E+00  1.20000000E+00  1.20000000E+00
  1.20000000E+00  1.20000000E+00  1.20000000E+00  1.20000000E+00  1.20000000E+00
  1.20000000E+00  0.00000000E+00  0.00000000E+00
%FLAG SCNB_SCALE_FACTOR                                                         
%FORMAT(5E16.8)                                                                 
  2.00000000E+00  2.00000000E+00  2.00000000E+00  2.00000000E+00  2.00000000E+00
  2.00000000E+00  2.00000000E+00  2.00000000E+00  2.00000000E+00  2.00000000E+00
  2.00000000E+00  2.00000000E+00  2.00000000E+00  2.00000000E+00  2.00000000E+00
  2.00000000E+00  2.00000000E+00  2.00000000E+00  2.00000000E+00  2.00000000E+00
  2.00000000E+00  0.00000000E+00  0.00000000E+00
%FLAG SOLTY                                                                     
%FORMAT(5E16.8)                                                                 
  0.00000000E+00  0.00000000E+00  0.00000000E+00  0.00000000E+00  0.00000000E+00
  0.00000000E+00  0.00000000E+00
%FLAG LENNARD_JONES_ACOEF                                                       
%FORMAT(5E16.8)                                                                 
  6.96551276E+05  8.43969952E+05  1.02073671E+06  5.17507491E+05  6.30925504E+05
  3.76435470E+05  7.52549148E+04  9.27554496E+04  5.27277400E+04  6.90855956E+03
  8.12662403E+04  1.00235148E+05  5.68021765E+04  7.41026906E+03  7.94617769E+03
%FLAG LENNARD_JONES_BCOEF                                                       
%FORMAT(5E16.8)                                                                 
  5.24668528E+02  5.90251928E+02  6.63431737E+02  4.98871431E+02  5.62969425E+02
  4.69350655E+02  1.09570372E+02  1.24325688E+02  1.01173582E+02  2.10929191E+01
  1.21392023E+02  1.37787728E+02  1.11953944E+02  2.32899892E+01  2.57122925E+01
%FLAG BONDS_INC_HYDROGEN                                                        
%FORMAT(10I8)                                                                   
       3      33       4       3      36       4       9      39       8       9
      42       8      12      45       8      12      48       8      15      51
       8      15      54       8      18      57       8      21      60       8
      24      63      10      24      66      10      24      69      10      27
      72      10      27      75      10      27      78      10
%FLAG BONDS_WITHOUT_HYDROGEN                                                    
%FORMAT(10I8)                                                                   
       0       9       1       0      18       1       0      30       2       3
       6       3       6      21       5       6      24       6       9      21
       7      12      15       7      12      18       7      15      21       7
      18      27       9
%FLAG ANGLES_INC_HYDROGEN                                                       
%FORMAT(10I8)                                                                   
       0       9      39       2       0       9      42       2       0      18
      57       2       6       3      33       6       6       3      36       6
       6      21      60       8       6      24      63       9       6      24
      66       9       6      24      69       9       9      21      60      13
      12      15      51      13      12      15      54      13      12      18
      57      13      15      12      45      13      15      12      48      13
      15      21      60      13      18      12      45      13      18      12
      48      13      18      27      72      15      18      27      75      15
      18      27      78      15      21       9      39      13      21       9
      42      13      21      15      51      13      21      15      54      13
      27      18      57      17      33       3      36      18      39       9
      42      19      45      12      48      19      51      15      54      19
      63      24      66      20      63      24      69      20      66      24
      69      20      72      27      75      20      72      27      78      20
      75      27      78      20
%FLAG ANGLES_WITHOUT_HYDROGEN                                                   
%FORMAT(10I8)                                                                   
       0       9      21       1       0      18      12       1       0      18
      27       3       3       6      21       4       3       6      24       5
       6      21       9       7       6      21      15       7       9       0
      18      10       9       0      30      11       9      21      15      12
      12      15      21      12      12      18      27      14      15      12
      18      12      18       0      30      11      21       6      24      16
%FLAG DIHEDRALS_INC_HYDROGEN                                                    
%FORMAT(10I8)                                                                   
       0       9      21      60       1       0      18      12      45       1
       0      18      12      48       1       0      18      27      72       1
       0      18      27      75       1       0      18      27      78       1
       3       6      21      60       6       3       6      24      63       6
       3       6      24      66       6       3       6      24      69       6
       6      21       9      39       1       6      21       9      42       1
       6      21      15      51       1       6      21      15      54       1
       9       0      18      57       8       9      21      15      51      10
       9      21      15      54      10      12      15      21      60      10
      12      18      27      72      10      12      18      27      75      10
      12      18      27      78      10      15      12      18      57      10
      15      21       9      39      10      15      21       9      42      10
      18       0       9      39       8      18       0       9      42       8
      18      12      15      51      10      18      12      15      54      10
      21       6       3      33      14      21       6       3      36      14
      21       6      24      63      15      21       6      24      66      15
      21       6      24      69      15      21      15      12      45      10
      21      15      12      48      10      24       6       3      33      14
      24       6       3      36      14      24       6      21      60      15
      27      18      12      45      10      27      18      12      48      10
      30       0       9      39      19      30       0      -9      39      20
      30       0       9      42      19      30       0      -9      42      20
      30       0      18      57      19      30       0     -18      57      20
      39       9      21      60      21      42       9      21      60      21
      45      12      15      51      21      45      12      15      54      21
      45      12      18      57      21      48      12      15      51      21
      48      12      15      54      21      48      12      18      57      21
      51      15      21      60      21      54      15      21      60      21
      57      18      27      72      21      57      18      27      75      21
      57      18      27      78      21       6      33      -3     -36      23
%FLAG DIHEDRALS_WITHOUT_HYDROGEN                                                
%FORMAT(10I8)                                                                   
       0       9      21       6       1       0       9      21      15       2
       0       9     -21      15       3       0       9     -21      15       4
       0      18     -12      15       2       0      18     -12      15       3
       0      18     -12      15       4       3       6      21       9       5
       3       6      21      15       5       6      21      15      12       1
       9       0      18      12       7       9       0      18      27       7
       9      21       6      24       5       9      21     -15      12       9
      30       0      18      12      11      30       0     -18      12      12
      30       0     -18      12      13      15      12      18      27       9
      15      21       6      24       5      18       0       9      21       7
      18      12     -15      21       9      30       0       9      21      11
      30       0      -9      21      12      30       0      -9      21      13
      30       0      18      27      16      30       0     -18      27      17
      30       0     -18      27      18      30       0     -18      -9      22
       3      24      -6     -21      23
%FLAG EXCLUDED_ATOMS_LIST                                                       
%FORMAT(10I8)                                                                   
       3       4       5       6       7       8      10      11      14      15
      16      17      20      21      25      26      27       3       4       6
       8       9      12      13      21      22      23      24       4       5
       6       8       9      12      13      14      15      18      19      21
      22      23      24       5       6       7       8       9      10      11
      14      15      18      19      20      21       6       7       8      10
      11      16      17      18      19      20      21      25      26      27
       7       8       9      10      14      15      16      17      18      19
      20      21       8      10      11      14      15      16      17      18
      19      20      25      26      27       9      11      12      13      14
      15      16      17      18      19      21      22      23      24      12
      13      21      22      23      24      11      16      17      20      25
      26      27      14      15      20      13       0      15      21      21
      17      18      19      20      18      19      20      19      21      21
      25      26      27       0      23      24      24       0      26      27
      27       0
%FLAG HBOND_ACOEF                                                               
%FORMAT(5E16.8)                                                                 

%FLAG HBOND_BCOEF                                                               
%FORMAT(5E16.8)                                                                 

%FLAG HBCUT                                                                     
%FORMAT(5E16.8)                                                                 

%FLAG AMBER_ATOM_TYPE                                                           
%FORMAT(20a4)                                                                   
c   c2  c2  c6  c6  c6  c6  c6  c3  c3  o   ha  ha  hc  hc  hc  hc  hc  hc  hc  
hc  hc  hc  hc  hc  hc  hc  
%FLAG TREE_CHAIN_CLASSIFICATION                                                 
%FORMAT(20a4)                                                                   
BLA BLA BLA BLA BLA BLA BLA BLA BLA BLA BLA BLA BLA BLA BLA BLA BLA BLA BLA BLA 
BLA BLA BLA BLA BLA BLA BLA 
%FLAG JOIN_ARRAY                                                                
%FORMAT(10I8)                                                                   
       0       0       0       0       0       0       0       0       0       0
       0       0       0       0       0       0       0       0       0       0
       0       0       0       0       0       0       0
%FLAG IROTAT                                                                    
%FORMAT(10I8)                                                                   
       0       0       0       0       0       0       0       0       0       0
       0       0       0       0       0       0       0       0       0       0
       0       0       0       0       0       0       0
%FLAG RADIUS_SET                                                                
%FORMAT(1a80)                                                                   
modified Bondi radii (mbondi)                                                   
%FLAG RADII                                                                     
%FORMAT(5E16.8)                                                                 
  1.70000000E+00  1.70000000E+00  1.70000000E+00  1.70000000E+00  1.70000000E+00
  1.70000000E+00  1.70000000E+00  1.70000000E+00  1.70000000E+00  1.70000000E+00
  1.50000000E+00  1.30000000E+00  1.30000000E+00  1.30000000E+00  1.30000000E+00
  1.30000000E+00  1.30000000E+00  1.30000000E+00  1.30000000E+00  1.30000000E+00
  1.30000000E+00  1.30000000E+00  1.30000000E+00  1.30000000E+00  1.30000000E+00
  1.30000000E+00  1.30000000E+00
%FLAG SCREEN                                                                    
%FORMAT(5E16.8)                                                                 
  7.20000000E-01  7.20000000E-01  7.20000000E-01  7.20000000E-01  7.20000000E-01
  7.20000000E-01  7.20000000E-01  7.20000000E-01  7.20000000E-01  7.20000000E-01
  8.50000000E-01  8.50000000E-01  8.50000000E-01  8.50000000E-01  8.50000000E-01
  8.50000000E-01  8.50000000E-01  8.50000000E-01  8.50000000E-01  8.50000000E-01
  8.50000000E-01  8.50000000E-01  8.50000000E-01  8.50000000E-01  8.50000000E-01
  8.50000000E-01  8.50000000E-01
%FLAG IPOL                                                                      
%FORMAT(1I8)                                                                    
       0
