SAMPL4_012
    27
   0.9080000   0.7080000  -0.0010000  -0.8140000  -2.2040000   2.8840000
  -1.3900000  -1.0550000   2.5020000   0.4850000   0.0700000   1.3060000
  -0.8620000  -0.5070000  -1.2700000  -1.2620000  -1.2250000   0.0200000
   0.6130000  -0.0970000  -1.2620000  -0.9860000  -0.3460000   1.2460000
  -2.4770000  -0.4060000   3.3070000   0.9640000   0.6830000  -2.5250000
   1.5300000   1.7690000  -0.0160000  -1.1140000  -2.7100000   3.7960000
  -0.0290000  -2.6650000   2.2950000   1.1420000  -0.7890000   1.4890000
   0.6450000   0.7920000   2.1150000  -1.0610000  -1.1650000  -2.1250000
  -1.4980000   0.3790000  -1.3960000  -2.3270000  -1.4810000  -0.0310000
  -0.7110000  -2.1720000   0.0960000   1.2440000  -0.9940000  -1.2210000
  -1.6020000   0.5590000   1.1630000  -2.0460000   0.2870000   4.0370000
  -3.1520000   0.1540000   2.6520000  -3.0770000  -1.1390000   3.8570000
   0.3500000   1.5800000  -2.5900000   0.7840000   0.0650000  -3.4040000
   2.0140000   0.9710000  -2.5030000
