; mobley_1160109_GMX_OPLS.top created by acpype (v: 2023.10.27) on Thu May 21 00:03:00 2026

; Include forcefield parameters
#include "ffoplsaa.itp"

; Include mobley_1160109_GMX.itp topology
#include "mobley_1160109_GMX.itp"

; Ligand position restraints
#ifdef POSRES_LIG
#include "posre_mobley_1160109.itp"
#endif

[ system ]
 mobley_1160109

[ molecules ]
; Compound        nmols
 mobley_1160109   1     
