; mobley_1160109_GMX_OPLS.itp created by acpype (v: 2023.10.27) on Thu May 21 00:03:00 2026

; For OPLS atomtypes manual fine tuning
; AC_at:OPLS_at:OPLScode: Possible_Alternatives (see ffoplsaa.atp and ffoplsaanb.itp)
; c:C:opls_235: ['271']
; c2:CR:opls_509: ['510']
; c6:x:opls_x: []
; c3:CT:opls_135: ['136', '137', '149', '157', '158', '206', '209', '210', '223B', '224B', '245', '246', '274', '283', '284', '285', '292', '292B', '293B', '296', '307', '308', '505']
; o:O:opls_236: ['272']
; ha:HA:opls_146: []
; hc:HC:opls_140: []

[ moleculetype ]
;name            nrexcl
 mobley_1160109   3

[ atoms ]
;   nr  type  resi  res  atom  cgnr     charge      mass       ; qtot   bond_type
     1 opls_235     1   MOL    C1    1     0.571099     12.01100 ; qtot  0.571  C   
     2 opls_509     1   MOL    C2    2    -0.222000     12.01100 ; qtot  0.349  CR  
     3 opls_509     1   MOL    C3    3    -0.112400     12.01100 ; qtot  0.237  CR  
     4 opls_x     1   MOL    C4    4    -0.177400      0.00000 ; qtot  0.059  x   
     5 opls_x     1   MOL    C5    5    -0.071400      0.00000 ; qtot -0.012  x   
     6 opls_x     1   MOL    C6    6    -0.077400      0.00000 ; qtot -0.090  x   
     7 opls_x     1   MOL    C7    7    -0.163700      0.00000 ; qtot -0.253  x   
     8 opls_x     1   MOL    C8    8    -0.022500      0.00000 ; qtot -0.276  x   
     9 opls_135     1   MOL    C9    9    -0.061900     12.01100 ; qtot -0.338  CT  
    10 opls_135     1   MOL   C10   10    -0.086100     12.01100 ; qtot -0.424  CT  
    11 opls_236     1   MOL    O1   11    -0.529100     15.99940 ; qtot -0.953  O   
    12 opls_146     1   MOL    H1   12     0.113500      1.00800 ; qtot -0.839  HA  
    13 opls_146     1   MOL    H2   13     0.113500      1.00800 ; qtot -0.726  HA  
    14 opls_140     1   MOL    H3   14     0.071700      1.00800 ; qtot -0.654  HC  
    15 opls_140     1   MOL    H4   15     0.071700      1.00800 ; qtot -0.582  HC  
    16 opls_140     1   MOL    H5   16     0.048700      1.00800 ; qtot -0.534  HC  
    17 opls_140     1   MOL    H6   17     0.048700      1.00800 ; qtot -0.485  HC  
    18 opls_140     1   MOL    H7   18     0.048200      1.00800 ; qtot -0.437  HC  
    19 opls_140     1   MOL    H8   19     0.048200      1.00800 ; qtot -0.389  HC  
    20 opls_140     1   MOL    H9   20     0.068700      1.00800 ; qtot -0.320  HC  
    21 opls_140     1   MOL   H10   21     0.058700      1.00800 ; qtot -0.261  HC  
    22 opls_140     1   MOL   H11   22     0.043700      1.00800 ; qtot -0.218  HC  
    23 opls_140     1   MOL   H12   23     0.043700      1.00800 ; qtot -0.174  HC  
    24 opls_140     1   MOL   H13   24     0.043700      1.00800 ; qtot -0.130  HC  
    25 opls_140     1   MOL   H14   25     0.043367      1.00800 ; qtot -0.087  HC  
    26 opls_140     1   MOL   H15   26     0.043367      1.00800 ; qtot -0.043  HC  
    27 opls_140     1   MOL   H16   27     0.043367      1.00800 ; qtot  0.000  HC  

[ bonds ]
;   ai     aj funct   r             k
     1      4   1 ;    1.5287e-01    1.9550e+05 ;     C1 - C4          C - x     
     1      7   1 ;    1.5287e-01    1.9550e+05 ;     C1 - C7          C - x     
     1     11   1 ;    1.2190e-01    4.9421e+05 ;     C1 - O1          C - O     
     2      3   1 ;    1.3379e-01    3.6484e+05 ;     C2 - C3         CR - CR    
     2     12   1 ;    1.0882e-01    2.9898e+05 ;     C2 - H1         CR - HA    
     2     13   1 ;    1.0882e-01    2.9898e+05 ;     C2 - H2         CR - HA    
     3      8   1 ;    1.5133e-01    2.0498e+05 ;     C3 - C8         CR - x     
     3      9   1 ;    1.5088e-01    2.0786e+05 ;     C3 - C9         CR - CT    
     4      8   1 ;    1.5384e-01    1.8979e+05 ;     C4 - C8          x - x     
     4     14   1 ;    1.0979e-01    2.8681e+05 ;     C4 - H3          x - HC    
     4     15   1 ;    1.0979e-01    2.8681e+05 ;     C4 - H4          x - HC    
     5      6   1 ;    1.5384e-01    1.8979e+05 ;     C5 - C6          x - x     
     5      7   1 ;    1.5384e-01    1.8979e+05 ;     C5 - C7          x - x     
     5     16   1 ;    1.0979e-01    2.8681e+05 ;     C5 - H5          x - HC    
     5     17   1 ;    1.0979e-01    2.8681e+05 ;     C5 - H6          x - HC    
     6      8   1 ;    1.5384e-01    1.8979e+05 ;     C6 - C8          x - x     
     6     18   1 ;    1.0979e-01    2.8681e+05 ;     C6 - H7          x - HC    
     6     19   1 ;    1.0979e-01    2.8681e+05 ;     C6 - H8          x - HC    
     7     10   1 ;    1.5428e-01    1.8728e+05 ;     C7 - C10         x - CT    
     7     20   1 ;    1.0979e-01    2.8681e+05 ;     C7 - H9          x - HC    
     8     21   1 ;    1.0979e-01    2.8681e+05 ;     C8 - H10         x - HC    
     9     22   1 ;    1.0962e-01    2.8891e+05 ;     C9 - H11        CT - HC    
     9     23   1 ;    1.0962e-01    2.8891e+05 ;     C9 - H12        CT - HC    
     9     24   1 ;    1.0962e-01    2.8891e+05 ;     C9 - H13        CT - HC    
    10     25   1 ;    1.0962e-01    2.8891e+05 ;    C10 - H14        CT - HC    
    10     26   1 ;    1.0962e-01    2.8891e+05 ;    C10 - H15        CT - HC    
    10     27   1 ;    1.0962e-01    2.8891e+05 ;    C10 - H16        CT - HC    

[ pairs ]
;   ai     aj    funct
     1      3      1 ;     C1 - C3    
     1      6      1 ;     C1 - C6    
     1     16      1 ;     C1 - H5    
     1     17      1 ;     C1 - H6    
     1     21      1 ;     C1 - H10   
     1     25      1 ;     C1 - H14   
     1     26      1 ;     C1 - H15   
     1     27      1 ;     C1 - H16   
     2      4      1 ;     C2 - C4    
     2      6      1 ;     C2 - C6    
     2     21      1 ;     C2 - H10   
     2     22      1 ;     C2 - H11   
     2     23      1 ;     C2 - H12   
     2     24      1 ;     C2 - H13   
     3      5      1 ;     C3 - C5    
     3     14      1 ;     C3 - H3    
     3     15      1 ;     C3 - H4    
     3     18      1 ;     C3 - H7    
     3     19      1 ;     C3 - H8    
     4      5      1 ;     C4 - C5    
     4      9      1 ;     C4 - C9    
     4     10      1 ;     C4 - C10   
     4     18      1 ;     C4 - H7    
     4     19      1 ;     C4 - H8    
     4     20      1 ;     C4 - H9    
     5     21      1 ;     C5 - H10   
     5     25      1 ;     C5 - H14   
     5     26      1 ;     C5 - H15   
     5     27      1 ;     C5 - H16   
     6      9      1 ;     C6 - C9    
     6     10      1 ;     C6 - C10   
     6     14      1 ;     C6 - H3    
     6     15      1 ;     C6 - H4    
     6     20      1 ;     C6 - H9    
     7      8      1 ;     C7 - C8    
     7     14      1 ;     C7 - H3    
     7     15      1 ;     C7 - H4    
     7     18      1 ;     C7 - H7    
     7     19      1 ;     C7 - H8    
     8     12      1 ;     C8 - H1    
     8     13      1 ;     C8 - H2    
     8     16      1 ;     C8 - H5    
     8     17      1 ;     C8 - H6    
     8     22      1 ;     C8 - H11   
     8     23      1 ;     C8 - H12   
     8     24      1 ;     C8 - H13   
     9     12      1 ;     C9 - H1    
     9     13      1 ;     C9 - H2    
     9     21      1 ;     C9 - H10   
    10     16      1 ;    C10 - H5    
    10     17      1 ;    C10 - H6    
    11      5      1 ;     O1 - C5    
    11      8      1 ;     O1 - C8    
    11     10      1 ;     O1 - C10   
    11     14      1 ;     O1 - H3    
    11     15      1 ;     O1 - H4    
    11     20      1 ;     O1 - H9    
    14     21      1 ;     H3 - H10   
    15     21      1 ;     H4 - H10   
    16     18      1 ;     H5 - H7    
    16     19      1 ;     H5 - H8    
    16     20      1 ;     H5 - H9    
    17     18      1 ;     H6 - H7    
    17     19      1 ;     H6 - H8    
    17     20      1 ;     H6 - H9    
    18     21      1 ;     H7 - H10   
    19     21      1 ;     H8 - H10   
    20     25      1 ;     H9 - H14   
    20     26      1 ;     H9 - H15   
    20     27      1 ;     H9 - H16   

[ angles ]
;   ai     aj     ak    funct   theta         cth
     1      4      8      1 ;    1.1143e+02    5.0434e+02 ;     C1 - C4   - C8        C -    x - x   
     1      4     14      1 ;    1.0767e+02    3.6685e+02 ;     C1 - C4   - H3        C -    x - HC  
     1      4     15      1 ;    1.0767e+02    3.6685e+02 ;     C1 - C4   - H4        C -    x - HC  
     1      7      5      1 ;    1.1143e+02    5.0434e+02 ;     C1 - C7   - C5        C -    x - x   
     1      7     10      1 ;    1.0869e+02    5.0986e+02 ;     C1 - C7   - C10       C -    x - CT  
     1      7     20      1 ;    1.0767e+02    3.6685e+02 ;     C1 - C7   - H9        C -    x - HC  
     2      3      8      1 ;    1.2302e+02    5.1246e+02 ;     C2 - C3   - C8       CR -   CR - x   
     2      3      9      1 ;    1.2495e+02    5.0944e+02 ;     C2 - C3   - C9       CR -   CR - CT  
     3      2     12      1 ;    1.2039e+02    3.8802e+02 ;     C3 - C2   - H1       CR -   CR - HA  
     3      2     13      1 ;    1.2039e+02    3.8802e+02 ;     C3 - C2   - H2       CR -   CR - HA  
     3      8      4      1 ;    1.1141e+02    5.0685e+02 ;     C3 - C8   - C4       CR -    x - x   
     3      8      6      1 ;    1.1141e+02    5.0685e+02 ;     C3 - C8   - C6       CR -    x - x   
     3      8     21      1 ;    1.0931e+02    3.6736e+02 ;     C3 - C8   - H10      CR -    x - HC  
     3      9     22      1 ;    1.1065e+02    3.6618e+02 ;     C3 - C9   - H11      CR -   CT - HC  
     3      9     23      1 ;    1.1065e+02    3.6618e+02 ;     C3 - C9   - H12      CR -   CT - HC  
     3      9     24      1 ;    1.1065e+02    3.6618e+02 ;     C3 - C9   - H13      CR -   CT - HC  
     4      1      7      1 ;    1.1566e+02    4.9656e+02 ;     C4 - C1   - C7        x -    C - x   
     4      1     11      1 ;    1.2234e+02    6.4065e+02 ;     C4 - C1   - O1        x -    C - O   
     4      8      6      1 ;    1.1106e+02    5.0359e+02 ;     C4 - C8   - C6        x -    x - x   
     4      8     21      1 ;    1.0945e+02    3.6175e+02 ;     C4 - C8   - H10       x -    x - HC  
     5      6      8      1 ;    1.1106e+02    5.0359e+02 ;     C5 - C6   - C8        x -    x - x   
     5      6     18      1 ;    1.0945e+02    3.6175e+02 ;     C5 - C6   - H7        x -    x - HC  
     5      6     19      1 ;    1.0945e+02    3.6175e+02 ;     C5 - C6   - H8        x -    x - HC  
     5      7     10      1 ;    1.1143e+02    5.0200e+02 ;     C5 - C7   - C10       x -    x - CT  
     5      7     20      1 ;    1.0945e+02    3.6175e+02 ;     C5 - C7   - H9        x -    x - HC  
     6      5      7      1 ;    1.1106e+02    5.0359e+02 ;     C6 - C5   - C7        x -    x - x   
     6      5     16      1 ;    1.0945e+02    3.6175e+02 ;     C6 - C5   - H5        x -    x - HC  
     6      5     17      1 ;    1.0945e+02    3.6175e+02 ;     C6 - C5   - H6        x -    x - HC  
     6      8     21      1 ;    1.0945e+02    3.6175e+02 ;     C6 - C8   - H10       x -    x - HC  
     7      1     11      1 ;    1.2234e+02    6.4065e+02 ;     C7 - C1   - O1        x -    C - O   
     7      5     16      1 ;    1.0945e+02    3.6175e+02 ;     C7 - C5   - H5        x -    x - HC  
     7      5     17      1 ;    1.0945e+02    3.6175e+02 ;     C7 - C5   - H6        x -    x - HC  
     7     10     25      1 ;    1.1063e+02    3.5890e+02 ;     C7 - C10  - H14       x -   CT - HC  
     7     10     26      1 ;    1.1063e+02    3.5890e+02 ;     C7 - C10  - H15       x -   CT - HC  
     7     10     27      1 ;    1.1063e+02    3.5890e+02 ;     C7 - C10  - H16       x -   CT - HC  
     8      3      9      1 ;    1.1671e+02    5.0016e+02 ;     C8 - C3   - C9        x -   CR - CT  
     8      4     14      1 ;    1.0945e+02    3.6175e+02 ;     C8 - C4   - H3        x -    x - HC  
     8      4     15      1 ;    1.0945e+02    3.6175e+02 ;     C8 - C4   - H4        x -    x - HC  
     8      6     18      1 ;    1.0945e+02    3.6175e+02 ;     C8 - C6   - H7        x -    x - HC  
     8      6     19      1 ;    1.0945e+02    3.6175e+02 ;     C8 - C6   - H8        x -    x - HC  
    10      7     20      1 ;    1.0746e+02    3.6418e+02 ;    C10 - C7   - H9       CT -    x - HC  
    12      2     13      1 ;    1.1666e+02    2.9003e+02 ;     H1 - C2   - H2       HA -   CR - HA  
    14      4     15      1 ;    1.0662e+02    3.0066e+02 ;     H3 - C4   - H4       HC -    x - HC  
    16      5     17      1 ;    1.0662e+02    3.0066e+02 ;     H5 - C5   - H6       HC -    x - HC  
    18      6     19      1 ;    1.0662e+02    3.0066e+02 ;     H7 - C6   - H8       HC -    x - HC  
    22      9     23      1 ;    1.0773e+02    2.9957e+02 ;    H11 - C9   - H12      HC -   CT - HC  
    22      9     24      1 ;    1.0773e+02    2.9957e+02 ;    H11 - C9   - H13      HC -   CT - HC  
    23      9     24      1 ;    1.0773e+02    2.9957e+02 ;    H12 - C9   - H13      HC -   CT - HC  
    25     10     26      1 ;    1.0773e+02    2.9957e+02 ;    H14 - C10  - H15      HC -   CT - HC  
    25     10     27      1 ;    1.0773e+02    2.9957e+02 ;    H14 - C10  - H16      HC -   CT - HC  
    26     10     27      1 ;    1.0773e+02    2.9957e+02 ;    H15 - C10  - H16      HC -   CT - HC  

[ dihedrals ] ; propers
; for gromacs 4.5 or higher, using funct 9
;    i      j      k      l   func   phase     kd      pn
     1      4      8      3      9 ;     0.00   0.65084   3 ;     C1-    C4-    C8-    C3
     1      4      8      6      9 ;     0.00   0.00000   0 ;     C1-    C4-    C8-    C6
     1      4      8      6      9 ;     0.00   0.16736   2 ;     C1-    C4-    C8-    C6
     1      4      8      6      9 ;   180.00   1.92464   1 ;     C1-    C4-    C8-    C6
     1      4      8     21      9 ;     0.00   0.65084   3 ;     C1-    C4-    C8-   H10
     1      7      5      6      9 ;     0.00   0.00000   0 ;     C1-    C7-    C5-    C6
     1      7      5      6      9 ;     0.00   0.16736   2 ;     C1-    C7-    C5-    C6
     1      7      5      6      9 ;   180.00   1.92464   1 ;     C1-    C7-    C5-    C6
     1      7      5     16      9 ;     0.00   0.65084   3 ;     C1-    C7-    C5-    H5
     1      7      5     17      9 ;     0.00   0.65084   3 ;     C1-    C7-    C5-    H6
     1      7     10     25      9 ;     0.00   0.65084   3 ;     C1-    C7-   C10-   H14
     1      7     10     26      9 ;     0.00   0.65084   3 ;     C1-    C7-   C10-   H15
     1      7     10     27      9 ;     0.00   0.65084   3 ;     C1-    C7-   C10-   H16
     2      3      8      4      9 ;     0.00   0.00000   0 ;     C2-    C3-    C8-    C4
     2      3      8      6      9 ;     0.00   0.00000   0 ;     C2-    C3-    C8-    C6
     2      3      8     21      9 ;   180.00   1.08784   3 ;     C2-    C3-    C8-   H10
     2      3      9     22      9 ;   180.00   1.08784   3 ;     C2-    C3-    C9-   H11
     2      3      9     23      9 ;   180.00   1.08784   3 ;     C2-    C3-    C9-   H12
     2      3      9     24      9 ;   180.00   1.08784   3 ;     C2-    C3-    C9-   H13
     3      8      4     14      9 ;     0.00   0.65084   3 ;     C3-    C8-    C4-    H3
     3      8      4     15      9 ;     0.00   0.65084   3 ;     C3-    C8-    C4-    H4
     3      8      6      5      9 ;     0.00   0.65084   3 ;     C3-    C8-    C6-    C5
     3      8      6     18      9 ;     0.00   0.65084   3 ;     C3-    C8-    C6-    H7
     3      8      6     19      9 ;     0.00   0.65084   3 ;     C3-    C8-    C6-    H8
     4      1      7      5      9 ;   180.00   1.09621   2 ;     C4-    C1-    C7-    C5
     4      1      7     10      9 ;   180.00   1.09621   2 ;     C4-    C1-    C7-   C10
     4      1      7     20      9 ;   180.00   0.00000   3 ;     C4-    C1-    C7-    H9
     4      8      3      9      9 ;     0.00   0.00000   0 ;     C4-    C8-    C3-    C9
     4      8      6      5      9 ;     0.00   2.17568   3 ;     C4-    C8-    C6-    C5
     4      8      6     18      9 ;     0.00   0.54392   3 ;     C4-    C8-    C6-    H7
     4      8      6     19      9 ;     0.00   0.54392   3 ;     C4-    C8-    C6-    H8
     5      6      8     21      9 ;     0.00   0.54392   3 ;     C5-    C6-    C8-   H10
     5      7     10     25      9 ;     0.00   0.54392   3 ;     C5-    C7-   C10-   H14
     5      7     10     26      9 ;     0.00   0.54392   3 ;     C5-    C7-   C10-   H15
     5      7     10     27      9 ;     0.00   0.54392   3 ;     C5-    C7-   C10-   H16
     6      5      7     10      9 ;     0.00   2.17568   3 ;     C6-    C5-    C7-   C10
     6      5      7     20      9 ;     0.00   0.54392   3 ;     C6-    C5-    C7-    H9
     6      8      3      9      9 ;     0.00   0.00000   0 ;     C6-    C8-    C3-    C9
     6      8      4     14      9 ;     0.00   0.54392   3 ;     C6-    C8-    C4-    H3
     6      8      4     15      9 ;     0.00   0.54392   3 ;     C6-    C8-    C4-    H4
     7      1      4      8      9 ;   180.00   1.09621   2 ;     C7-    C1-    C4-    C8
     7      1      4     14      9 ;   180.00   0.00000   3 ;     C7-    C1-    C4-    H3
     7      1      4     15      9 ;   180.00   0.00000   3 ;     C7-    C1-    C4-    H4
     7      5      6      8      9 ;     0.00   2.17568   3 ;     C7-    C5-    C6-    C8
     7      5      6     18      9 ;     0.00   0.54392   3 ;     C7-    C5-    C6-    H7
     7      5      6     19      9 ;     0.00   0.54392   3 ;     C7-    C5-    C6-    H8
     8      3      2     12      9 ;   180.00  27.82360   2 ;     C8-    C3-    C2-    H1
     8      3      2     13      9 ;   180.00  27.82360   2 ;     C8-    C3-    C2-    H2
     8      3      9     22      9 ;     0.00   0.62760   3 ;     C8-    C3-    C9-   H11
     8      3      9     23      9 ;     0.00   0.62760   3 ;     C8-    C3-    C9-   H12
     8      3      9     24      9 ;     0.00   0.62760   3 ;     C8-    C3-    C9-   H13
     8      6      5     16      9 ;     0.00   0.54392   3 ;     C8-    C6-    C5-    H5
     8      6      5     17      9 ;     0.00   0.54392   3 ;     C8-    C6-    C5-    H6
     9      3      2     12      9 ;   180.00  27.82360   2 ;     C9-    C3-    C2-    H1
     9      3      2     13      9 ;   180.00  27.82360   2 ;     C9-    C3-    C2-    H2
     9      3      8     21      9 ;     0.00   0.62760   3 ;     C9-    C3-    C8-   H10
    10      7      5     16      9 ;     0.00   0.54392   3 ;    C10-    C7-    C5-    H5
    10      7      5     17      9 ;     0.00   0.54392   3 ;    C10-    C7-    C5-    H6
    11      1      4      8      9 ;     0.00   0.46024   2 ;     O1-    C1-    C4-    C8
    11      1      4      8      9 ;     0.00  49.12016   1 ;     O1-    C1-    C4-    C8
    11      1      4      8      9 ;   180.00   0.33472   3 ;     O1-    C1-    C4-    C8
    11      1      4     14      9 ;     0.00  16.86152   1 ;     O1-    C1-    C4-    H3
    11      1      4     14      9 ;   180.00  15.31344   2 ;     O1-    C1-    C4-    H3
    11      1      4     15      9 ;     0.00  16.86152   1 ;     O1-    C1-    C4-    H4
    11      1      4     15      9 ;   180.00  15.31344   2 ;     O1-    C1-    C4-    H4
    11      1      7      5      9 ;     0.00   0.46024   2 ;     O1-    C1-    C7-    C5
    11      1      7      5      9 ;     0.00  49.12016   1 ;     O1-    C1-    C7-    C5
    11      1      7      5      9 ;   180.00   0.33472   3 ;     O1-    C1-    C7-    C5
    11      1      7     10      9 ;     0.00   2.84512   1 ;     O1-    C1-    C7-   C10
    11      1      7     10      9 ;   180.00   0.83680   2 ;     O1-    C1-    C7-   C10
    11      1      7     10      9 ;   180.00   1.84096   3 ;     O1-    C1-    C7-   C10
    11      1      7     20      9 ;     0.00  16.86152   1 ;     O1-    C1-    C7-    H9
    11      1      7     20      9 ;   180.00  15.31344   2 ;     O1-    C1-    C7-    H9
    14      4      8     21      9 ;     0.00   0.50208   3 ;     H3-    C4-    C8-   H10
    15      4      8     21      9 ;     0.00   0.50208   3 ;     H4-    C4-    C8-   H10
    16      5      6     18      9 ;     0.00   0.50208   3 ;     H5-    C5-    C6-    H7
    16      5      6     19      9 ;     0.00   0.50208   3 ;     H5-    C5-    C6-    H8
    16      5      7     20      9 ;     0.00   0.50208   3 ;     H5-    C5-    C7-    H9
    17      5      6     18      9 ;     0.00   0.50208   3 ;     H6-    C5-    C6-    H7
    17      5      6     19      9 ;     0.00   0.50208   3 ;     H6-    C5-    C6-    H8
    17      5      7     20      9 ;     0.00   0.50208   3 ;     H6-    C5-    C7-    H9
    18      6      8     21      9 ;     0.00   0.50208   3 ;     H7-    C6-    C8-   H10
    19      6      8     21      9 ;     0.00   0.50208   3 ;     H8-    C6-    C8-   H10
    20      7     10     25      9 ;     0.00   0.50208   3 ;     H9-    C7-   C10-   H14
    20      7     10     26      9 ;     0.00   0.50208   3 ;     H9-    C7-   C10-   H15
    20      7     10     27      9 ;     0.00   0.50208   3 ;     H9-    C7-   C10-   H16

[ dihedrals ] ; impropers
; treated as propers in GROMACS to use correct AMBER analytical function
;    i      j      k      l   func   phase     kd      pn
     2      9      3      8      4 ;   180.00   4.60240   2 ;     C2-    C9-    C3-    C8
     3     12      2     13      4 ;   180.00   4.60240   2 ;     C3-    H1-    C2-    H2
    11      1      7      4      4 ;   180.00  43.93200   2 ;     O1-    C1-    C7-    C4
