mobley_3105103_GMX.gro created by acpype (v: 2023.10.27) on Wed May 20 23:52:25 2026
 27
    1  MOL   C1    1  -0.166  -0.240  -0.139
    1  MOL   C2    2  -0.149  -0.123  -0.074
    1  MOL   C3    3  -0.293  -0.260  -0.215
    1  MOL   C4    4  -0.357  -0.036  -0.166
    1  MOL   C5    5  -0.033  -0.087   0.013
    1  MOL   C6    6  -0.446  -0.253  -0.466
    1  MOL   C7    7  -0.604  -0.206  -0.276
    1  MOL   C8    8  -0.509  -0.021  -0.417
    1  MOL   C9    9  -0.478  -0.157  -0.348
    1  MOL   N1   10  -0.247  -0.028  -0.085
    1  MOL   N2   11  -0.363  -0.145  -0.252
    1  MOL   O1   12  -0.330  -0.375  -0.240
    1  MOL   O2   13  -0.441   0.053  -0.156
    1  MOL  CL1   14  -0.055  -0.371  -0.132
    1  MOL   H1   15   0.015   0.004  -0.025
    1  MOL   H2   16   0.044  -0.164   0.018
    1  MOL   H3   17  -0.067  -0.067   0.115
    1  MOL   H4   18  -0.348  -0.230  -0.510
    1  MOL   H5   19  -0.446  -0.358  -0.436
    1  MOL   H6   20  -0.521  -0.246  -0.545
    1  MOL   H7   21  -0.634  -0.138  -0.196
    1  MOL   H8   22  -0.588  -0.304  -0.230
    1  MOL   H9   23  -0.689  -0.215  -0.345
    1  MOL  H10   24  -0.559   0.050  -0.351
    1  MOL  H11   25  -0.418   0.026  -0.456
    1  MOL  H12   26  -0.578  -0.034  -0.502
    1  MOL  H13   27  -0.242   0.057  -0.029
   14.65600     8.63400    13.20800
