; mobley_3105103_GMX_OPLS.itp created by acpype (v: 2023.10.27) on Wed May 20 23:52:25 2026

; For OPLS atomtypes manual fine tuning
; AC_at:OPLS_at:OPLScode: Possible_Alternatives (see ffoplsaa.atp and ffoplsaanb.itp)
; cc:C*:opls_500: ['506', '507', '508', '514']
; cd:C*:opls_500: ['506', '507', '508', '514']
; c:C:opls_235: ['271']
; c3:CT:opls_135: ['136', '137', '149', '157', '158', '206', '209', '210', '223B', '224B', '245', '246', '274', '283', '284', '285', '292', '292B', '293B', '296', '307', '308', '505']
; ns:x:opls_x: []
; n:N:opls_237: ['238', '239']
; o:O:opls_236: ['272']
; cl:x:opls_x: []
; hc:HC:opls_140: []
; hn:H:opls_240: ['241', '290', '301', '304', '310', '504', '513']

[ moleculetype ]
;name            nrexcl
 mobley_3105103   3

[ atoms ]
;   nr  type  resi  res  atom  cgnr     charge      mass       ; qtot   bond_type
     1 opls_500     1   MOL    C1    1    -0.193800     12.01100 ; qtot -0.194  C*  
     2 opls_500     1   MOL    C2    2     0.106400     12.01100 ; qtot -0.087  C*  
     3 opls_235     1   MOL    C3    3     0.730700     12.01100 ; qtot  0.643  C   
     4 opls_235     1   MOL    C4    4     0.809499     12.01100 ; qtot  1.453  C   
     5 opls_135     1   MOL    C5    5    -0.076900     12.01100 ; qtot  1.376  CT  
     6 opls_135     1   MOL    C6    6    -0.107433     12.01100 ; qtot  1.268  CT  
     7 opls_135     1   MOL    C7    7    -0.107433     12.01100 ; qtot  1.161  CT  
     8 opls_135     1   MOL    C8    8    -0.107433     12.01100 ; qtot  1.054  CT  
     9 opls_135     1   MOL    C9    9     0.136400     12.01100 ; qtot  1.190  CT  
    10 opls_x     1   MOL    N1   10    -0.469100      0.00000 ; qtot  0.721  x   
    11 opls_237     1   MOL    N2   11    -0.477400     14.00670 ; qtot  0.244  N   
    12 opls_236     1   MOL    O1   12    -0.588500     15.99940 ; qtot -0.345  O   
    13 opls_236     1   MOL    O2   13    -0.642500     15.99940 ; qtot -0.987  O   
    14 opls_x     1   MOL   CL1   14    -0.043400      0.00000 ; qtot -1.031  x   
    15 opls_140     1   MOL    H1   15     0.070367      1.00800 ; qtot -0.961  HC  
    16 opls_140     1   MOL    H2   16     0.070367      1.00800 ; qtot -0.890  HC  
    17 opls_140     1   MOL    H3   17     0.070367      1.00800 ; qtot -0.820  HC  
    18 opls_140     1   MOL    H4   18     0.051811      1.00800 ; qtot -0.768  HC  
    19 opls_140     1   MOL    H5   19     0.051811      1.00800 ; qtot -0.716  HC  
    20 opls_140     1   MOL    H6   20     0.051811      1.00800 ; qtot -0.664  HC  
    21 opls_140     1   MOL    H7   21     0.051811      1.00800 ; qtot -0.613  HC  
    22 opls_140     1   MOL    H8   22     0.051811      1.00800 ; qtot -0.561  HC  
    23 opls_140     1   MOL    H9   23     0.051811      1.00800 ; qtot -0.509  HC  
    24 opls_140     1   MOL   H10   24     0.051811      1.00800 ; qtot -0.457  HC  
    25 opls_140     1   MOL   H11   25     0.051811      1.00800 ; qtot -0.405  HC  
    26 opls_140     1   MOL   H12   26     0.051811      1.00800 ; qtot -0.354  HC  
    27 opls_240     1   MOL   H13   27     0.353500      1.00800 ; qtot -0.000  H   

[ bonds ]
;   ai     aj funct   r             k
     1      2   1 ;    1.3730e-01    3.2321e+05 ;     C1 - C2         C* - C*    
     1      3   1 ;    1.4687e-01    2.3579e+05 ;     C1 - C3         C* - C     
     1     14   1 ;    1.7355e-01    1.6672e+05 ;     C1 - CL1        C* - x     
     2      5   1 ;    1.5018e-01    2.1244e+05 ;     C2 - C5         C* - CT    
     2     10   1 ;    1.3765e-01    2.8439e+05 ;     C2 - N1         C* - x     
     3     11   1 ;    1.3967e-01    2.6565e+05 ;     C3 - N2          C - N     
     3     12   1 ;    1.2190e-01    4.9421e+05 ;     C3 - O1          C - O     
     4     10   1 ;    1.3798e-01    2.8122e+05 ;     C4 - N1          C - x     
     4     11   1 ;    1.3967e-01    2.6565e+05 ;     C4 - N2          C - N     
     4     13   1 ;    1.2190e-01    4.9421e+05 ;     C4 - O2          C - O     
     5     15   1 ;    1.0962e-01    2.8891e+05 ;     C5 - H1         CT - HC    
     5     16   1 ;    1.0962e-01    2.8891e+05 ;     C5 - H2         CT - HC    
     5     17   1 ;    1.0962e-01    2.8891e+05 ;     C5 - H3         CT - HC    
     6      9   1 ;    1.5354e-01    1.9154e+05 ;     C6 - C9         CT - CT    
     6     18   1 ;    1.0962e-01    2.8891e+05 ;     C6 - H4         CT - HC    
     6     19   1 ;    1.0962e-01    2.8891e+05 ;     C6 - H5         CT - HC    
     6     20   1 ;    1.0962e-01    2.8891e+05 ;     C6 - H6         CT - HC    
     7      9   1 ;    1.5354e-01    1.9154e+05 ;     C7 - C9         CT - CT    
     7     21   1 ;    1.0962e-01    2.8891e+05 ;     C7 - H7         CT - HC    
     7     22   1 ;    1.0962e-01    2.8891e+05 ;     C7 - H8         CT - HC    
     7     23   1 ;    1.0962e-01    2.8891e+05 ;     C7 - H9         CT - HC    
     8      9   1 ;    1.5354e-01    1.9154e+05 ;     C8 - C9         CT - CT    
     8     24   1 ;    1.0962e-01    2.8891e+05 ;     C8 - H10        CT - HC    
     8     25   1 ;    1.0962e-01    2.8891e+05 ;     C8 - H11        CT - HC    
     8     26   1 ;    1.0962e-01    2.8891e+05 ;     C8 - H12        CT - HC    
     9     11   1 ;    1.4643e-01    2.1293e+05 ;     C9 - N2         CT - N     
    10     27   1 ;    1.0132e-01    3.9630e+05 ;     N1 - H13         x - H     

[ pairs ]
;   ai     aj    funct
     1      4      1 ;     C1 - C4    
     1      9      1 ;     C1 - C9    
     1     15      1 ;     C1 - H1    
     1     16      1 ;     C1 - H2    
     1     17      1 ;     C1 - H3    
     1     27      1 ;     C1 - H13   
     2     11      1 ;     C2 - N2    
     2     12      1 ;     C2 - O1    
     2     13      1 ;     C2 - O2    
     3      5      1 ;     C3 - C5    
     3      6      1 ;     C3 - C6    
     3      7      1 ;     C3 - C7    
     3      8      1 ;     C3 - C8    
     3     10      1 ;     C3 - N1    
     3     13      1 ;     C3 - O2    
     4      5      1 ;     C4 - C5    
     4      6      1 ;     C4 - C6    
     4      7      1 ;     C4 - C7    
     4      8      1 ;     C4 - C8    
     4     12      1 ;     C4 - O1    
     5     27      1 ;     C5 - H13   
     6     21      1 ;     C6 - H7    
     6     22      1 ;     C6 - H8    
     6     23      1 ;     C6 - H9    
     6     24      1 ;     C6 - H10   
     6     25      1 ;     C6 - H11   
     6     26      1 ;     C6 - H12   
     7     18      1 ;     C7 - H4    
     7     19      1 ;     C7 - H5    
     7     20      1 ;     C7 - H6    
     7     24      1 ;     C7 - H10   
     7     25      1 ;     C7 - H11   
     7     26      1 ;     C7 - H12   
     8     18      1 ;     C8 - H4    
     8     19      1 ;     C8 - H5    
     8     20      1 ;     C8 - H6    
     8     21      1 ;     C8 - H7    
     8     22      1 ;     C8 - H8    
     8     23      1 ;     C8 - H9    
     9     10      1 ;     C9 - N1    
     9     12      1 ;     C9 - O1    
     9     13      1 ;     C9 - O2    
    10     15      1 ;     N1 - H1    
    10     16      1 ;     N1 - H2    
    10     17      1 ;     N1 - H3    
    11     18      1 ;     N2 - H4    
    11     19      1 ;     N2 - H5    
    11     20      1 ;     N2 - H6    
    11     21      1 ;     N2 - H7    
    11     22      1 ;     N2 - H8    
    11     23      1 ;     N2 - H9    
    11     24      1 ;     N2 - H10   
    11     25      1 ;     N2 - H11   
    11     26      1 ;     N2 - H12   
    11     27      1 ;     N2 - H13   
    13     27      1 ;     O2 - H13   
    14      5      1 ;    CL1 - C5    
    14     10      1 ;    CL1 - N1    
    14     11      1 ;    CL1 - N2    
    14     12      1 ;    CL1 - O1    

[ angles ]
;   ai     aj     ak    funct   theta         cth
     1      2      5      1 ;    1.2668e+02    5.0258e+02 ;     C1 - C2   - C5       C* -   C* - CT  
     1      2     10      1 ;    1.2046e+02    5.7438e+02 ;     C1 - C2   - N1       C* -   C* - x   
     1      3     11      1 ;    1.1269e+02    5.6911e+02 ;     C1 - C3   - N2       C* -    C - N   
     1      3     12      1 ;    1.2406e+02    6.5572e+02 ;     C1 - C3   - O1       C* -    C - O   
     2      1      3      1 ;    1.2132e+02    5.2049e+02 ;     C2 - C1   - C3       C* -   C* - C   
     2      1     14      1 ;    1.2321e+02    5.3488e+02 ;     C2 - C1   - CL1      C* -   C* - x   
     2      5     15      1 ;    1.1062e+02    3.6777e+02 ;     C2 - C5   - H1       C* -   CT - HC  
     2      5     16      1 ;    1.1062e+02    3.6777e+02 ;     C2 - C5   - H2       C* -   CT - HC  
     2      5     17      1 ;    1.1062e+02    3.6777e+02 ;     C2 - C5   - H3       C* -   CT - HC  
     2     10      4      1 ;    1.2538e+02    6.5379e+02 ;     C2 - N1   - C4       C* -    x - C   
     2     10     27      1 ;    1.1991e+02    4.7580e+02 ;     C2 - N1   - H13      C* -    x - H   
     3      1     14      1 ;    1.1656e+02    5.4066e+02 ;     C3 - C1   - CL1       C -   C* - x   
     3     11      4      1 ;    1.2521e+02    6.4559e+02 ;     C3 - N2   - C4        C -    N - C   
     3     11      9      1 ;    1.1883e+02    6.4634e+02 ;     C3 - N2   - C9        C -    N - CT  
     4     10     27      1 ;    1.1726e+02    4.8007e+02 ;     C4 - N1   - H13       C -    x - H   
     4     11      9      1 ;    1.1883e+02    6.4634e+02 ;     C4 - N2   - C9        C -    N - CT  
     5      2     10      1 ;    1.1636e+02    5.5614e+02 ;     C5 - C2   - N1       CT -   C* - x   
     6      9      7      1 ;    1.1263e+02    5.0099e+02 ;     C6 - C9   - C7       CT -   CT - CT  
     6      9      8      1 ;    1.1263e+02    5.0099e+02 ;     C6 - C9   - C8       CT -   CT - CT  
     6      9     11      1 ;    1.1278e+02    5.4350e+02 ;     C6 - C9   - N2       CT -   CT - N   
     7      9      8      1 ;    1.1263e+02    5.0099e+02 ;     C7 - C9   - C8       CT -   CT - CT  
     7      9     11      1 ;    1.1278e+02    5.4350e+02 ;     C7 - C9   - N2       CT -   CT - N   
     8      9     11      1 ;    1.1278e+02    5.4350e+02 ;     C8 - C9   - N2       CT -   CT - N   
     9      6     18      1 ;    1.0968e+02    3.6208e+02 ;     C9 - C6   - H4       CT -   CT - HC  
     9      6     19      1 ;    1.0968e+02    3.6208e+02 ;     C9 - C6   - H5       CT -   CT - HC  
     9      6     20      1 ;    1.0968e+02    3.6208e+02 ;     C9 - C6   - H6       CT -   CT - HC  
     9      7     21      1 ;    1.0968e+02    3.6208e+02 ;     C9 - C7   - H7       CT -   CT - HC  
     9      7     22      1 ;    1.0968e+02    3.6208e+02 ;     C9 - C7   - H8       CT -   CT - HC  
     9      7     23      1 ;    1.0968e+02    3.6208e+02 ;     C9 - C7   - H9       CT -   CT - HC  
     9      8     24      1 ;    1.0968e+02    3.6208e+02 ;     C9 - C8   - H10      CT -   CT - HC  
     9      8     25      1 ;    1.0968e+02    3.6208e+02 ;     C9 - C8   - H11      CT -   CT - HC  
     9      8     26      1 ;    1.0968e+02    3.6208e+02 ;     C9 - C8   - H12      CT -   CT - HC  
    10      4     11      1 ;    1.1437e+02    6.1965e+02 ;     N1 - C4   - N2        x -    C - N   
    10      4     13      1 ;    1.2305e+02    7.2977e+02 ;     N1 - C4   - O2        x -    C - O   
    11      3     12      1 ;    1.2257e+02    7.2534e+02 ;     N2 - C3   - O1        N -    C - O   
    11      4     13      1 ;    1.2257e+02    7.2534e+02 ;     N2 - C4   - O2        N -    C - O   
    15      5     16      1 ;    1.0773e+02    2.9957e+02 ;     H1 - C5   - H2       HC -   CT - HC  
    15      5     17      1 ;    1.0773e+02    2.9957e+02 ;     H1 - C5   - H3       HC -   CT - HC  
    16      5     17      1 ;    1.0773e+02    2.9957e+02 ;     H2 - C5   - H3       HC -   CT - HC  
    18      6     19      1 ;    1.0773e+02    2.9957e+02 ;     H4 - C6   - H5       HC -   CT - HC  
    18      6     20      1 ;    1.0773e+02    2.9957e+02 ;     H4 - C6   - H6       HC -   CT - HC  
    19      6     20      1 ;    1.0773e+02    2.9957e+02 ;     H5 - C6   - H6       HC -   CT - HC  
    21      7     22      1 ;    1.0773e+02    2.9957e+02 ;     H7 - C7   - H8       HC -   CT - HC  
    21      7     23      1 ;    1.0773e+02    2.9957e+02 ;     H7 - C7   - H9       HC -   CT - HC  
    22      7     23      1 ;    1.0773e+02    2.9957e+02 ;     H8 - C7   - H9       HC -   CT - HC  
    24      8     25      1 ;    1.0773e+02    2.9957e+02 ;    H10 - C8   - H11      HC -   CT - HC  
    24      8     26      1 ;    1.0773e+02    2.9957e+02 ;    H10 - C8   - H12      HC -   CT - HC  
    25      8     26      1 ;    1.0773e+02    2.9957e+02 ;    H11 - C8   - H12      HC -   CT - HC  

[ dihedrals ] ; propers
; for gromacs 4.5 or higher, using funct 9
;    i      j      k      l   func   phase     kd      pn
     1      2      5     15      9 ;     0.00   0.00000   0 ;     C1-    C2-    C5-    H1
     1      2      5     16      9 ;     0.00   0.00000   0 ;     C1-    C2-    C5-    H2
     1      2      5     17      9 ;     0.00   0.00000   0 ;     C1-    C2-    C5-    H3
     1      2     10      4      9 ;   180.00   6.90360   2 ;     C1-    C2-    N1-    C4
     1      2     10     27      9 ;   180.00   6.90360   2 ;     C1-    C2-    N1-   H13
     1      3     11      4      9 ;   180.00  10.46000   2 ;     C1-    C3-    N2-    C4
     1      3     11      9      9 ;   180.00  10.46000   2 ;     C1-    C3-    N2-    C9
     2      1      3     11      9 ;   180.00  12.02900   2 ;     C2-    C1-    C3-    N2
     2      1      3     12      9 ;   180.00  12.02900   2 ;     C2-    C1-    C3-    O1
     2     10      4     11      9 ;   180.00   3.65054   2 ;     C2-    N1-    C4-    N2
     2     10      4     13      9 ;   180.00  10.46000   2 ;     C2-    N1-    C4-    O2
     3      1      2      5      9 ;   180.00  16.73600   2 ;     C3-    C1-    C2-    C5
     3      1      2     10      9 ;   180.00  16.73600   2 ;     C3-    C1-    C2-    N1
     3     11      4     10      9 ;   180.00  10.46000   2 ;     C3-    N2-    C4-    N1
     3     11      4     13      9 ;   180.00  10.46000   2 ;     C3-    N2-    C4-    O2
     3     11      9      6      9 ;     0.00   9.45584   1 ;     C3-    N2-    C9-    C6
     3     11      9      6      9 ;   180.00   0.12552   3 ;     C3-    N2-    C9-    C6
     3     11      9      6      9 ;   180.00   2.71960   4 ;     C3-    N2-    C9-    C6
     3     11      9      7      9 ;     0.00   9.45584   1 ;     C3-    N2-    C9-    C7
     3     11      9      7      9 ;   180.00   0.12552   3 ;     C3-    N2-    C9-    C7
     3     11      9      7      9 ;   180.00   2.71960   4 ;     C3-    N2-    C9-    C7
     3     11      9      8      9 ;     0.00   9.45584   1 ;     C3-    N2-    C9-    C8
     3     11      9      8      9 ;   180.00   0.12552   3 ;     C3-    N2-    C9-    C8
     3     11      9      8      9 ;   180.00   2.71960   4 ;     C3-    N2-    C9-    C8
     4     10      2      5      9 ;   180.00   6.90360   2 ;     C4-    N1-    C2-    C5
     4     11      3     12      9 ;   180.00  10.46000   2 ;     C4-    N2-    C3-    O1
     4     11      9      6      9 ;     0.00   9.45584   1 ;     C4-    N2-    C9-    C6
     4     11      9      6      9 ;   180.00   0.12552   3 ;     C4-    N2-    C9-    C6
     4     11      9      6      9 ;   180.00   2.71960   4 ;     C4-    N2-    C9-    C6
     4     11      9      7      9 ;     0.00   9.45584   1 ;     C4-    N2-    C9-    C7
     4     11      9      7      9 ;   180.00   0.12552   3 ;     C4-    N2-    C9-    C7
     4     11      9      7      9 ;   180.00   2.71960   4 ;     C4-    N2-    C9-    C7
     4     11      9      8      9 ;     0.00   9.45584   1 ;     C4-    N2-    C9-    C8
     4     11      9      8      9 ;   180.00   0.12552   3 ;     C4-    N2-    C9-    C8
     4     11      9      8      9 ;   180.00   2.71960   4 ;     C4-    N2-    C9-    C8
     5      2     10     27      9 ;   180.00   6.90360   2 ;     C5-    C2-    N1-   H13
     6      9      7     21      9 ;     0.00   0.54392   3 ;     C6-    C9-    C7-    H7
     6      9      7     22      9 ;     0.00   0.54392   3 ;     C6-    C9-    C7-    H8
     6      9      7     23      9 ;     0.00   0.54392   3 ;     C6-    C9-    C7-    H9
     6      9      8     24      9 ;     0.00   0.54392   3 ;     C6-    C9-    C8-   H10
     6      9      8     25      9 ;     0.00   0.54392   3 ;     C6-    C9-    C8-   H11
     6      9      8     26      9 ;     0.00   0.54392   3 ;     C6-    C9-    C8-   H12
     7      9      6     18      9 ;     0.00   0.54392   3 ;     C7-    C9-    C6-    H4
     7      9      6     19      9 ;     0.00   0.54392   3 ;     C7-    C9-    C6-    H5
     7      9      6     20      9 ;     0.00   0.54392   3 ;     C7-    C9-    C6-    H6
     7      9      8     24      9 ;     0.00   0.54392   3 ;     C7-    C9-    C8-   H10
     7      9      8     25      9 ;     0.00   0.54392   3 ;     C7-    C9-    C8-   H11
     7      9      8     26      9 ;     0.00   0.54392   3 ;     C7-    C9-    C8-   H12
     8      9      6     18      9 ;     0.00   0.54392   3 ;     C8-    C9-    C6-    H4
     8      9      6     19      9 ;     0.00   0.54392   3 ;     C8-    C9-    C6-    H5
     8      9      6     20      9 ;     0.00   0.54392   3 ;     C8-    C9-    C6-    H6
     8      9      7     21      9 ;     0.00   0.54392   3 ;     C8-    C9-    C7-    H7
     8      9      7     22      9 ;     0.00   0.54392   3 ;     C8-    C9-    C7-    H8
     8      9      7     23      9 ;     0.00   0.54392   3 ;     C8-    C9-    C7-    H9
     9     11      3     12      9 ;   180.00  10.46000   2 ;     C9-    N2-    C3-    O1
     9     11      4     10      9 ;   180.00  10.46000   2 ;     C9-    N2-    C4-    N1
     9     11      4     13      9 ;   180.00  10.46000   2 ;     C9-    N2-    C4-    O2
    10      2      5     15      9 ;     0.00   0.00000   0 ;     N1-    C2-    C5-    H1
    10      2      5     16      9 ;     0.00   0.00000   0 ;     N1-    C2-    C5-    H2
    10      2      5     17      9 ;     0.00   0.00000   0 ;     N1-    C2-    C5-    H3
    11      4     10     27      9 ;   180.00  10.46000   2 ;     N2-    C4-    N1-   H13
    11      9      6     18      9 ;     0.00   0.65084   3 ;     N2-    C9-    C6-    H4
    11      9      6     19      9 ;     0.00   0.65084   3 ;     N2-    C9-    C6-    H5
    11      9      6     20      9 ;     0.00   0.65084   3 ;     N2-    C9-    C6-    H6
    11      9      7     21      9 ;     0.00   0.65084   3 ;     N2-    C9-    C7-    H7
    11      9      7     22      9 ;     0.00   0.65084   3 ;     N2-    C9-    C7-    H8
    11      9      7     23      9 ;     0.00   0.65084   3 ;     N2-    C9-    C7-    H9
    11      9      8     24      9 ;     0.00   0.65084   3 ;     N2-    C9-    C8-   H10
    11      9      8     25      9 ;     0.00   0.65084   3 ;     N2-    C9-    C8-   H11
    11      9      8     26      9 ;     0.00   0.65084   3 ;     N2-    C9-    C8-   H12
    13      4     10     27      9 ;     0.00   8.36800   1 ;     O2-    C4-    N1-   H13
    13      4     10     27      9 ;   180.00  10.46000   2 ;     O2-    C4-    N1-   H13
    14      1      2      5      9 ;   180.00  16.73600   2 ;    CL1-    C1-    C2-    C5
    14      1      2     10      9 ;   180.00  16.73600   2 ;    CL1-    C1-    C2-    N1
    14      1      3     11      9 ;   180.00  12.02900   2 ;    CL1-    C1-    C3-    N2
    14      1      3     12      9 ;   180.00  12.02900   2 ;    CL1-    C1-    C3-    O1

[ dihedrals ] ; impropers
; treated as propers in GROMACS to use correct AMBER analytical function
;    i      j      k      l   func   phase     kd      pn
     1     11      3     12      4 ;   180.00  43.93200   2 ;     C1-    N2-    C3-    O1
     3      4     11      9      4 ;   180.00   4.60240   2 ;     C3-    C4-    N2-    C9
     4      2     10     27      4 ;   180.00   4.60240   2 ;     C4-    C2-    N1-   H13
     5      1      2     10      4 ;   180.00   4.60240   2 ;     C5-    C1-    C2-    N1
    11     10      4     13      4 ;   180.00  43.93200   2 ;     N2-    N1-    C4-    O2
    14      1      2      3      4 ;   180.00   4.60240   2 ;    CL1-    C1-    C2-    C3
