CUP08052_AM1BCC_v1_0
    27
  -1.6610000  -2.3970000  -1.3850000  -1.4910000  -1.2340000  -0.7440000
  -2.9300000  -2.6040000  -2.1500000  -3.5680000  -0.3600000  -1.6610000
  -0.3250000  -0.8660000   0.1280000  -4.4560000  -2.5310000  -4.6570000
  -6.0400000  -2.0610000  -2.7580000  -5.0930000  -0.2110000  -4.1740000
  -4.7750000  -1.5650000  -3.4830000  -2.4680000  -0.2810000  -0.8490000
  -3.6250000  -1.4510000  -2.5190000  -3.3020000  -3.7500000  -2.3960000
  -4.4120000   0.5250000  -1.5560000  -0.5480000  -3.7080000  -1.3170000
   0.1550000   0.0430000  -0.2490000   0.4430000  -1.6420000   0.1790000
  -0.6660000  -0.6740000   1.1520000  -3.4790000  -2.3010000  -5.0980000
  -4.4560000  -3.5830000  -4.3580000  -5.2080000  -2.4570000  -5.4520000
  -6.3350000  -1.3760000  -1.9560000  -5.8820000  -3.0450000  -2.3030000
  -6.8850000  -2.1470000  -3.4510000  -5.5880000   0.5020000  -3.5100000
  -4.1790000   0.2570000  -4.5590000  -5.7810000  -0.3450000  -5.0180000
  -2.4200000   0.5670000  -0.2930000
