%VERSION  VERSION_STAMP = V0001.000  DATE = 05/20/26  23:52:32                  
%FLAG TITLE                                                                     
%FORMAT(20a4)                                                                   
CUP08052_AM1BCC_v1_0                                                            
%FLAG POINTERS                                                                  
%FORMAT(10I8)                                                                   
      27       8      13      14      26      22      39      43       0       0
     141       1      14      22      43      12      21      14      10       0
       0       0       0       0       0       0       0       0      27       0
       0
%FLAG ATOM_NAME                                                                 
%FORMAT(20a4)                                                                   
C1  C2  C3  C4  C5  C6  C7  C8  C9  N1  N2  O1  O2  Cl1 H1  H2  H3  H4  H5  H6  
H7  H8  H9  H10 H11 H12 H13 
%FLAG CHARGE                                                                    
%FORMAT(5E16.8)                                                                 
 -3.53148174E+00  1.93885272E+00  1.33150346E+01  1.47691742E+01 -1.40129487E+00
 -1.95767636E+00 -1.95767636E+00 -1.95767636E+00  2.48552172E+00 -8.54808093E+00
 -8.69932602E+00 -1.07238236E+01 -1.17078277E+01 -7.90847820E-01  1.28224858E+00
  1.28224858E+00  1.28224858E+00  9.44115585E-01  9.44115585E-01  9.44115585E-01
  9.44115585E-01  9.44115585E-01  9.44115585E-01  9.44115585E-01  9.44115585E-01
  9.44115585E-01  6.44158305E+00
%FLAG ATOMIC_NUMBER                                                             
%FORMAT(10I8)                                                                   
       6       6       6       6       6       6       6       6       6       7
       7       8       8      17       1       1       1       1       1       1
       1       1       1       1       1       1       1
%FLAG MASS                                                                      
%FORMAT(5E16.8)                                                                 
  1.20100000E+01  1.20100000E+01  1.20100000E+01  1.20100000E+01  1.20100000E+01
  1.20100000E+01  1.20100000E+01  1.20100000E+01  1.20100000E+01  1.40100000E+01
  1.40100000E+01  1.60000000E+01  1.60000000E+01  3.54500000E+01  1.00800000E+00
  1.00800000E+00  1.00800000E+00  1.00800000E+00  1.00800000E+00  1.00800000E+00
  1.00800000E+00  1.00800000E+00  1.00800000E+00  1.00800000E+00  1.00800000E+00
  1.00800000E+00  1.00800000E+00
%FLAG ATOM_TYPE_INDEX                                                           
%FORMAT(10I8)                                                                   
       1       1       1       1       2       2       2       2       2       3
       4       5       5       6       7       7       7       7       7       7
       7       7       7       7       7       7       8
%FLAG NUMBER_EXCLUDED_ATOMS                                                     
%FORMAT(10I8)                                                                   
      13      12      11      10       6      13      12      11      13       7
      13       1       1       1       2       1       1       2       1       1
       2       1       1       2       1       1       1
%FLAG NONBONDED_PARM_INDEX                                                      
%FORMAT(10I8)                                                                   
       1       2       4       7      11      16      22      29       2       3
       5       8      12      17      23      30       4       5       6       9
      13      18      24      31       7       8       9      10      14      19
      25      32      11      12      13      14      15      20      26      33
      16      17      18      19      20      21      27      34      22      23
      24      25      26      27      28      35      29      30      31      32
      33      34      35      36
%FLAG RESIDUE_LABEL                                                             
%FORMAT(20a4)                                                                   
MOL 
%FLAG RESIDUE_POINTER                                                           
%FORMAT(10I8)                                                                   
       1
%FLAG BOND_FORCE_CONSTANT                                                       
%FORMAT(5E16.8)                                                                 
  3.86240000E+02  2.81780000E+02  1.99240000E+02  2.53870000E+02  3.39860000E+02
  3.17460000E+02  5.90600000E+02  3.36070000E+02  3.45250000E+02  2.28890000E+02
  2.54460000E+02  4.73590000E+02
%FLAG BOND_EQUIL_VALUE                                                          
%FORMAT(5E16.8)                                                                 
  1.37300000E+00  1.46870000E+00  1.73550000E+00  1.50180000E+00  1.37650000E+00
  1.39670000E+00  1.21900000E+00  1.37980000E+00  1.09620000E+00  1.53540000E+00
  1.46430000E+00  1.01320000E+00
%FLAG ANGLE_FORCE_CONSTANT                                                      
%FORMAT(5E16.8)                                                                 
  6.00600000E+01  6.86400000E+01  6.80100000E+01  7.83600000E+01  6.22000000E+01
  6.39200000E+01  4.39500000E+01  7.81300000E+01  5.68600000E+01  6.46100000E+01
  7.71500000E+01  7.72400000E+01  5.73700000E+01  6.64600000E+01  5.98700000E+01
  6.49500000E+01  4.32700000E+01  7.40500000E+01  8.72100000E+01  8.66800000E+01
  3.58000000E+01
%FLAG ANGLE_EQUIL_VALUE                                                         
%FORMAT(5E16.8)                                                                 
  2.21098404E+00  2.10242452E+00  1.96681238E+00  2.16525640E+00  2.11743436E+00
  2.15042109E+00  1.93068405E+00  2.18829475E+00  2.09282520E+00  2.03435665E+00
  2.18532769E+00  2.07397564E+00  2.04657396E+00  2.03086599E+00  1.96576518E+00
  1.96838317E+00  1.91427794E+00  1.99613392E+00  2.14762857E+00  2.13925098E+00
  1.88024401E+00
%FLAG DIHEDRAL_FORCE_CONSTANT                                                   
%FORMAT(5E16.8)                                                                 
  0.00000000E+00  1.65000000E+00  2.50000000E+00  2.87500000E+00  8.72500000E-01
  4.00000000E+00  2.26000000E+00  3.00000000E-02  6.50000000E-01  1.30000000E-01
  1.55555556E-01  2.00000000E+00  1.10000000E+00  1.05000000E+01
%FLAG DIHEDRAL_PERIODICITY                                                      
%FORMAT(5E16.8)                                                                 
  3.00000000E+00  2.00000000E+00  2.00000000E+00  2.00000000E+00  2.00000000E+00
  2.00000000E+00  1.00000000E+00  3.00000000E+00  4.00000000E+00  3.00000000E+00
  3.00000000E+00  1.00000000E+00  2.00000000E+00  2.00000000E+00
%FLAG DIHEDRAL_PHASE                                                            
%FORMAT(5E16.8)                                                                 
  0.00000000E+00  3.14159400E+00  3.14159400E+00  3.14159400E+00  3.14159400E+00
  3.14159400E+00  0.00000000E+00  3.14159400E+00  3.14159400E+00  0.00000000E+00
  0.00000000E+00  0.00000000E+00  3.14159400E+00  3.14159400E+00
%FLAG SCEE_SCALE_FACTOR                                                         
%FORMAT(5E16.8)                                                                 
  1.20000000E+00  1.20000000E+00  1.20000000E+00  1.20000000E+00  1.20000000E+00
  1.20000000E+00  1.20000000E+00  1.20000000E+00  1.20000000E+00  1.20000000E+00
  1.20000000E+00  1.20000000E+00  0.00000000E+00  0.00000000E+00
%FLAG SCNB_SCALE_FACTOR                                                         
%FORMAT(5E16.8)                                                                 
  2.00000000E+00  2.00000000E+00  2.00000000E+00  2.00000000E+00  2.00000000E+00
  2.00000000E+00  2.00000000E+00  2.00000000E+00  2.00000000E+00  2.00000000E+00
  2.00000000E+00  2.00000000E+00  0.00000000E+00  0.00000000E+00
%FLAG SOLTY                                                                     
%FORMAT(5E16.8)                                                                 
  0.00000000E+00  0.00000000E+00  0.00000000E+00  0.00000000E+00  0.00000000E+00
  0.00000000E+00  0.00000000E+00  0.00000000E+00  0.00000000E+00  0.00000000E+00
%FLAG LENNARD_JONES_ACOEF                                                       
%FORMAT(5E16.8)                                                                 
  6.96551276E+05  8.43969952E+05  1.02073671E+06  6.99381362E+05  8.48258258E+05
  7.01825028E+05  7.01106848E+05  8.52084164E+05  7.02755693E+05  7.02078680E+05
  5.17507491E+05  6.30925504E+05  5.17814271E+05  5.15491878E+05  3.76435470E+05
  1.49062160E+06  1.80018612E+06  1.49942414E+06  1.50866868E+06  1.11993097E+06
  3.17107030E+06  8.12662403E+04  1.00235148E+05  8.07866982E+04  7.93773615E+04
  5.68021765E+04  1.79601155E+05  7.94617769E+03  1.71458823E+03  2.23577481E+03
  1.65195713E+03  1.52360475E+03  9.87857350E+02  4.18912581E+03  9.47421632E+01
  1.34728399E-01
%FLAG LENNARD_JONES_BCOEF                                                       
%FORMAT(5E16.8)                                                                 
  5.24668528E+02  5.90251928E+02  6.63431737E+02  5.48900066E+02  6.17825399E+02
  5.74088001E+02  5.97113873E+02  6.72777963E+02  6.24158704E+02  6.77820248E+02
  4.98871431E+02  5.62969425E+02  5.21008860E+02  5.64804067E+02  4.69350655E+02
  9.81118883E+02  1.10195051E+03  1.02737257E+03  1.11967364E+03  9.38113535E+02
  1.82923847E+03  1.21392023E+02  1.37787728E+02  1.26366740E+02  1.36094315E+02
  1.11953944E+02  2.30684859E+02  2.57122925E+01  1.46824710E+01  1.71355763E+01
  1.50468782E+01  1.57004457E+01  1.22938581E+01  2.93366416E+01  2.33785449E+00
  7.34107347E-02
%FLAG BONDS_INC_HYDROGEN                                                        
%FORMAT(10I8)                                                                   
      12      42       9      12      45       9      12      48       9      15
      51       9      15      54       9      15      57       9      18      60
       9      18      63       9      18      66       9      21      69       9
      21      72       9      21      75       9      27      78      12
%FLAG BONDS_WITHOUT_HYDROGEN                                                    
%FORMAT(10I8)                                                                   
       0       3       1       0       6       2       0      39       3       3
      12       4       3      27       5       6      30       6       6      33
       7       9      27       8       9      30       6       9      36       7
      15      24      10      18      24      10      21      24      10      24
      30      11
%FLAG ANGLES_INC_HYDROGEN                                                       
%FORMAT(10I8)                                                                   
       3      12      42       7       3      12      45       7       3      12
      48       7       3      27      78       9       9      27      78      13
      24      15      51      17      24      15      54      17      24      15
      57      17      24      18      60      17      24      18      63      17
      24      18      66      17      24      21      69      17      24      21
      72      17      24      21      75      17      42      12      45      21
      42      12      48      21      45      12      48      21      51      15
      54      21      51      15      57      21      54      15      57      21
      60      18      63      21      60      18      66      21      63      18
      66      21      69      21      72      21      69      21      75      21
      72      21      75      21
%FLAG ANGLES_WITHOUT_HYDROGEN                                                   
%FORMAT(10I8)                                                                   
       0       3      12       1       0       3      27       2       0       6
      30       3       0       6      33       4       3       0       6       5
       3       0      39       6       3      27       9       8       6       0
      39      10       6      30       9      11       6      30      24      12
       9      30      24      12      12       3      27      14      15      24
      18      15      15      24      21      15      15      24      30      16
      18      24      21      15      18      24      30      16      21      24
      30      16      27       9      30      18      27       9      36      19
      30       6      33      20      30       9      36      20
%FLAG DIHEDRALS_INC_HYDROGEN                                                    
%FORMAT(10I8)                                                                   
       0       3      12      42       1       0       3      12      45       1
       0       3      12      48       1       0       3      27      78       2
      12       3      27      78       2      15      24      18      60      10
      15      24      18      63      10      15      24      18      66      10
      15      24      21      69      10      15      24      21      72      10
      15      24      21      75      10      18      24      15      51      10
      18      24      15      54      10      18      24      15      57      10
      18      24      21      69      10      18      24      21      72      10
      18      24      21      75      10      21      24      15      51      10
      21      24      15      54      10      21      24      15      57      10
      21      24      18      60      10      21      24      18      63      10
      21      24      18      66      10      27       3      12      42       1
      27       3      12      45       1      27       3      12      48       1
      30       9      27      78       3      30      24      15      51      11
      30      24      15      54      11      30      24      15      57      11
      30      24      18      60      11      30      24      18      63      11
      30      24      18      66      11      30      24      21      69      11
      30      24      21      72      11      30      24      21      75      11
      36       9      27      78      12      36       9     -27      78       3
       9       3     -27     -78      13
%FLAG DIHEDRALS_WITHOUT_HYDROGEN                                                
%FORMAT(10I8)                                                                   
       0       3      27       9       2       0       6     -30       9       3
       0       6      30      24       3       3       0       6      30       4
       3       0       6      33       4       3      27      -9      30       5
       3      27       9      36       3       6       0       3      12       6
       6       0       3      27       6       6      30      -9      27       3
       6      30       9      36       3       6      30      24      15       7
       6      30     -24      15       8       6      30     -24      15       9
       6      30      24      18       7       6      30     -24      18       8
       6      30     -24      18       9       6      30      24      21       7
       6      30     -24      21       8       6      30     -24      21       9
       9      27       3      12       2       9      30       6      33       3
       9      30      24      15       7       9      30     -24      15       8
       9      30     -24      15       9       9      30      24      18       7
       9      30     -24      18       8       9      30     -24      18       9
       9      30      24      21       7       9      30     -24      21       8
       9      30     -24      21       9      39       0       3      12       6
      24      30       6      33       3      24      30       9      27       3
      24      30       9      36       3      39       0       3      27       6
      39       0       6      30       4      39       0       6      33       4
      39       0      -3      -6      13      12       0      -3     -27      13
       0      30      -6     -33      14      30      27      -9     -36      14
       6       9     -30     -24      13
%FLAG EXCLUDED_ATOMS_LIST                                                       
%FORMAT(10I8)                                                                   
       2       3       4       5       9      10      11      12      14      15
      16      17      27       3       4       5      10      11      12      13
      14      15      16      17      27       4       5       6       7       8
       9      10      11      12      13      14       5       6       7       8
       9      10      11      12      13      27      10      14      15      16
      17      27       7       8       9      11      18      19      20      21
      22      23      24      25      26       8       9      11      18      19
      20      21      22      23      24      25      26       9      11      18
      19      20      21      22      23      24      25      26      10      11
      12      13      18      19      20      21      22      23      24      25
      26      11      13      14      15      16      17      27      12      13
      14      18      19      20      21      22      23      24      25      26
      27      14      27       0      16      17      17       0      19      20
      20       0      22      23      23       0      25      26      26       0
       0
%FLAG HBOND_ACOEF                                                               
%FORMAT(5E16.8)                                                                 

%FLAG HBOND_BCOEF                                                               
%FORMAT(5E16.8)                                                                 

%FLAG HBCUT                                                                     
%FORMAT(5E16.8)                                                                 

%FLAG AMBER_ATOM_TYPE                                                           
%FORMAT(20a4)                                                                   
cc  cd  c   c   c3  c3  c3  c3  c3  ns  n   o   o   cl  hc  hc  hc  hc  hc  hc  
hc  hc  hc  hc  hc  hc  hn  
%FLAG TREE_CHAIN_CLASSIFICATION                                                 
%FORMAT(20a4)                                                                   
BLA BLA BLA BLA BLA BLA BLA BLA BLA BLA BLA BLA BLA BLA BLA BLA BLA BLA BLA BLA 
BLA BLA BLA BLA BLA BLA BLA 
%FLAG JOIN_ARRAY                                                                
%FORMAT(10I8)                                                                   
       0       0       0       0       0       0       0       0       0       0
       0       0       0       0       0       0       0       0       0       0
       0       0       0       0       0       0       0
%FLAG IROTAT                                                                    
%FORMAT(10I8)                                                                   
       0       0       0       0       0       0       0       0       0       0
       0       0       0       0       0       0       0       0       0       0
       0       0       0       0       0       0       0
%FLAG RADIUS_SET                                                                
%FORMAT(1a80)                                                                   
modified Bondi radii (mbondi)                                                   
%FLAG RADII                                                                     
%FORMAT(5E16.8)                                                                 
  1.70000000E+00  1.70000000E+00  1.70000000E+00  1.70000000E+00  1.70000000E+00
  1.70000000E+00  1.70000000E+00  1.70000000E+00  1.70000000E+00  1.55000000E+00
  1.55000000E+00  1.50000000E+00  1.50000000E+00  1.70000000E+00  1.30000000E+00
  1.30000000E+00  1.30000000E+00  1.30000000E+00  1.30000000E+00  1.30000000E+00
  1.30000000E+00  1.30000000E+00  1.30000000E+00  1.30000000E+00  1.30000000E+00
  1.30000000E+00  1.30000000E+00
%FLAG SCREEN                                                                    
%FORMAT(5E16.8)                                                                 
  7.20000000E-01  7.20000000E-01  7.20000000E-01  7.20000000E-01  7.20000000E-01
  7.20000000E-01  7.20000000E-01  7.20000000E-01  7.20000000E-01  7.90000000E-01
  7.90000000E-01  8.50000000E-01  8.50000000E-01  8.00000000E-01  8.50000000E-01
  8.50000000E-01  8.50000000E-01  8.50000000E-01  8.50000000E-01  8.50000000E-01
  8.50000000E-01  8.50000000E-01  8.50000000E-01  8.50000000E-01  8.50000000E-01
  8.50000000E-01  8.50000000E-01
%FLAG IPOL                                                                      
%FORMAT(1I8)                                                                    
       0
