; mobley_3105103_GMX_OPLS.top created by acpype (v: 2023.10.27) on Wed May 20 23:52:25 2026

; Include forcefield parameters
#include "ffoplsaa.itp"

; Include mobley_3105103_GMX.itp topology
#include "mobley_3105103_GMX.itp"

; Ligand position restraints
#ifdef POSRES_LIG
#include "posre_mobley_3105103.itp"
#endif

[ system ]
 mobley_3105103

[ molecules ]
; Compound        nmols
 mobley_3105103   1     
