3_chloroaniline
    14
   0.8320000  -0.3950000   0.5750000   1.8990000  -1.0140000  -0.0770000
   0.8350000  -0.2830000   1.9660000   2.9710000  -1.4090000   2.0520000
   2.9680000  -1.5200000   0.6620000   1.9040000  -0.7900000   2.7040000
   4.0470000  -2.1450000   0.0020000   1.9070000  -0.6510000   4.4200000
   0.0000000   0.0000000  -0.0000000   1.8870000  -1.0950000  -1.1610000
  -0.0030000   0.2020000   2.4600000   3.8070000  -1.8040000   2.6250000
   3.8600000  -2.7660000  -0.7590000   4.9720000  -2.0310000   0.3640000
