; mobley_6257907_GMX_OPLS.top created by acpype (v: 2023.10.27) on Thu May 21 00:03:06 2026

; Include forcefield parameters
#include "ffoplsaa.itp"

; Include mobley_6257907_GMX.itp topology
#include "mobley_6257907_GMX.itp"

; Ligand position restraints
#ifdef POSRES_LIG
#include "posre_mobley_6257907.itp"
#endif

[ system ]
 mobley_6257907

[ molecules ]
; Compound        nmols
 mobley_6257907   1     
