%VERSION  VERSION_STAMP = V0001.000  DATE = 05/21/26  00:03:06                  
%FLAG TITLE                                                                     
%FORMAT(20a4)                                                                   
3_chloroaniline                                                                 
%FLAG POINTERS                                                                  
%FORMAT(10I8)                                                                   
      14       5       6       8      11      10      23      12       0       0
      64       1       8      10      12       5       6       3       5       0
       0       0       0       0       0       0       0       0      14       0
       0
%FLAG ATOM_NAME                                                                 
%FORMAT(20a4)                                                                   
C1  C2  C3  C4  C5  C6  N1  Cl1 H1  H2  H3  H4  H5  H6  
%FLAG CHARGE                                                                    
%FORMAT(5E16.8)                                                                 
 -1.53067320E+00 -3.51690390E+00 -3.07956870E+00 -3.49868160E+00  2.76250068E+00
  1.04596002E+00 -1.49641528E+01 -1.82951892E+00  2.46001050E+00  2.46001050E+00
  2.67867810E+00  2.66045580E+00  7.17594174E+00  7.17594174E+00
%FLAG ATOMIC_NUMBER                                                             
%FORMAT(10I8)                                                                   
       6       6       6       6       6       6       7      17       1       1
       1       1       1       1
%FLAG MASS                                                                      
%FORMAT(5E16.8)                                                                 
  1.20100000E+01  1.20100000E+01  1.20100000E+01  1.20100000E+01  1.20100000E+01
  1.20100000E+01  1.40100000E+01  3.54500000E+01  1.00800000E+00  1.00800000E+00
  1.00800000E+00  1.00800000E+00  1.00800000E+00  1.00800000E+00
%FLAG ATOM_TYPE_INDEX                                                           
%FORMAT(10I8)                                                                   
       1       1       1       1       1       1       2       3       4       4
       4       4       5       5
%FLAG NUMBER_EXCLUDED_ATOMS                                                     
%FORMAT(10I8)                                                                   
      10      11       8       9       8       5       4       2       2       1
       1       1       1       1
%FLAG NONBONDED_PARM_INDEX                                                      
%FORMAT(10I8)                                                                   
       1       2       4       7      11       2       3       5       8      12
       4       5       6       9      13       7       8       9      10      14
      11      12      13      14      15
%FLAG RESIDUE_LABEL                                                             
%FORMAT(20a4)                                                                   
MOL 
%FLAG RESIDUE_POINTER                                                           
%FORMAT(10I8)                                                                   
       1
%FLAG BOND_FORCE_CONSTANT                                                       
%FORMAT(5E16.8)                                                                 
  3.54250000E+02  3.60690000E+02  3.42300000E+02  1.87980000E+02  4.77540000E+02
%FLAG BOND_EQUIL_VALUE                                                          
%FORMAT(5E16.8)                                                                 
  1.39860000E+00  1.08600000E+00  1.37440000E+00  1.75720000E+00  1.01140000E+00
%FLAG ANGLE_FORCE_CONSTANT                                                      
%FORMAT(5E16.8)                                                                 
  6.36700000E+01  4.49000000E+01  6.79100000E+01  6.40600000E+01  5.77100000E+01
  4.63600000E+01
%FLAG ANGLE_EQUIL_VALUE                                                         
%FORMAT(5E16.8)                                                                 
  2.09474507E+00  2.09230160E+00  2.11080210E+00  2.08357495E+00  2.03732371E+00
  2.01201642E+00
%FLAG DIHEDRAL_FORCE_CONSTANT                                                   
%FORMAT(5E16.8)                                                                 
  3.62500000E+00  1.05000000E+00  1.10000000E+00
%FLAG DIHEDRAL_PERIODICITY                                                      
%FORMAT(5E16.8)                                                                 
  2.00000000E+00  2.00000000E+00  2.00000000E+00
%FLAG DIHEDRAL_PHASE                                                            
%FORMAT(5E16.8)                                                                 
  3.14159400E+00  3.14159400E+00  3.14159400E+00
%FLAG SCEE_SCALE_FACTOR                                                         
%FORMAT(5E16.8)                                                                 
  1.20000000E+00  1.20000000E+00  0.00000000E+00
%FLAG SCNB_SCALE_FACTOR                                                         
%FORMAT(5E16.8)                                                                 
  2.00000000E+00  2.00000000E+00  0.00000000E+00
%FLAG SOLTY                                                                     
%FORMAT(5E16.8)                                                                 
  0.00000000E+00  0.00000000E+00  0.00000000E+00  0.00000000E+00  0.00000000E+00
%FLAG LENNARD_JONES_ACOEF                                                       
%FORMAT(5E16.8)                                                                 
  6.96551276E+05  8.15855629E+05  9.54875571E+05  1.49062160E+06  1.74224911E+06
  3.17107030E+06  7.52549148E+04  8.91217989E+04  1.66104821E+05  6.90855956E+03
  1.71458823E+03  2.10567903E+03  4.18912581E+03  9.04434904E+01  1.34728399E-01
%FLAG LENNARD_JONES_BCOEF                                                       
%FORMAT(5E16.8)                                                                 
  5.24668528E+02  5.85909304E+02  6.54052181E+02  9.81118883E+02  1.09448125E+03
  1.82923847E+03  1.09570372E+02  1.23036209E+02  2.08087638E+02  2.10929191E+01
  1.46824710E+01  1.67892226E+01  2.93366416E+01  2.14252117E+00  7.34107347E-02
%FLAG BONDS_INC_HYDROGEN                                                        
%FORMAT(10I8)                                                                   
       0      24       2       3      27       2       6      30       2       9
      33       2      18      36       5      18      39       5
%FLAG BONDS_WITHOUT_HYDROGEN                                                    
%FORMAT(10I8)                                                                   
       0       3       1       0       6       1       3      12       1       6
      15       1       9      12       1       9      15       1      12      18
       3      15      21       4
%FLAG ANGLES_INC_HYDROGEN                                                       
%FORMAT(10I8)                                                                   
       0       3      27       2       0       6      30       2       3       0
      24       2       6       0      24       2      12       3      27       2
      12       9      33       2      12      18      36       5      12      18
      39       5      15       6      30       2      15       9      33       2
      36      18      39       6
%FLAG ANGLES_WITHOUT_HYDROGEN                                                   
%FORMAT(10I8)                                                                   
       0       3      12       1       0       6      15       1       3       0
       6       1       3      12       9       1       3      12      18       3
       6      15       9       1       6      15      21       4       9      12
      18       3       9      15      21       4      12       9      15       1
%FLAG DIHEDRALS_INC_HYDROGEN                                                    
%FORMAT(10I8)                                                                   
       3       0       6      30       1       3      12       9      33       1
       3      12      18      36       2       3      12      18      39       2
       6       0       3      27       1       6      15       9      33       1
       9      12       3      27       1       9      12      18      36       2
       9      12      18      39       2       9      15       6      30       1
      24       0       3      12       1      24       0       6      15       1
      18      12       3      27       1      18      12       9      33       1
      21      15       6      30       1      21      15       9      33       1
      24       0       3      27       1      24       0       6      30       1
      24       0      -6      -3       3       0      12      -3     -27       3
       0      15      -6     -30       3      12      15      -9     -33       3
      12      36     -18     -39       3
%FLAG DIHEDRALS_WITHOUT_HYDROGEN                                                
%FORMAT(10I8)                                                                   
       0       3      12       9       1       0       3      12      18       1
       0       6     -15       9       1       0       6      15      21       1
       3       0       6      15       1       3      12      -9      15       1
       6       0       3      12       1       6      15      -9      12       1
      12       9      15      21       1      15       9      12      18       1
       3       9     -12     -18       3       6       9     -15     -21       3
%FLAG EXCLUDED_ATOMS_LIST                                                       
%FORMAT(10I8)                                                                   
       2       3       4       5       6       7       8       9      10      11
       3       4       5       6       7       9      10      11      12      13
      14       4       5       6       8       9      10      11      12       5
       6       7       8      10      11      12      13      14       6       7
       8       9      10      12      13      14       7       8       9      11
      12      10      12      13      14      11      12      10      11       0
       0       0      14       0
%FLAG HBOND_ACOEF                                                               
%FORMAT(5E16.8)                                                                 

%FLAG HBOND_BCOEF                                                               
%FORMAT(5E16.8)                                                                 

%FLAG HBCUT                                                                     
%FORMAT(5E16.8)                                                                 

%FLAG AMBER_ATOM_TYPE                                                           
%FORMAT(20a4)                                                                   
ca  ca  ca  ca  ca  ca  nv  cl  ha  ha  ha  ha  hn  hn  
%FLAG TREE_CHAIN_CLASSIFICATION                                                 
%FORMAT(20a4)                                                                   
BLA BLA BLA BLA BLA BLA BLA BLA BLA BLA BLA BLA BLA BLA 
%FLAG JOIN_ARRAY                                                                
%FORMAT(10I8)                                                                   
       0       0       0       0       0       0       0       0       0       0
       0       0       0       0
%FLAG IROTAT                                                                    
%FORMAT(10I8)                                                                   
       0       0       0       0       0       0       0       0       0       0
       0       0       0       0
%FLAG RADIUS_SET                                                                
%FORMAT(1a80)                                                                   
modified Bondi radii (mbondi)                                                   
%FLAG RADII                                                                     
%FORMAT(5E16.8)                                                                 
  1.70000000E+00  1.70000000E+00  1.70000000E+00  1.70000000E+00  1.70000000E+00
  1.70000000E+00  1.55000000E+00  1.70000000E+00  1.30000000E+00  1.30000000E+00
  1.30000000E+00  1.30000000E+00  1.30000000E+00  1.30000000E+00
%FLAG SCREEN                                                                    
%FORMAT(5E16.8)                                                                 
  7.20000000E-01  7.20000000E-01  7.20000000E-01  7.20000000E-01  7.20000000E-01
  7.20000000E-01  7.90000000E-01  8.00000000E-01  8.50000000E-01  8.50000000E-01
  8.50000000E-01  8.50000000E-01  8.50000000E-01  8.50000000E-01
%FLAG IPOL                                                                      
%FORMAT(1I8)                                                                    
       0
