mobley_1034539_GMX.gro created by acpype (v: 2023.10.27) on Wed May 20 23:43:28 2026
   22
    1MOL     C1    1   2.364   2.613   2.486
    1MOL     C2    2   2.256   2.671   2.553
    1MOL     C3    3   2.463   2.552   2.697
    1MOL     C4    4   2.689   2.576   2.460
    1MOL     C5    5   2.467   2.554   2.558
    1MOL     C6    6   2.579   2.494   2.488
    1MOL     C7    7   2.251   2.669   2.693
    1MOL     C8    8   2.355   2.609   2.765
    1MOL     C9    9   2.799   2.524   2.393
    1MOL    C10   10   2.580   2.361   2.448
    1MOL    C11   11   2.800   2.390   2.353
    1MOL    C12   12   2.690   2.308   2.381
    1MOL    CL1   13   2.115   2.742   2.770
    1MOL    CL2   14   2.355   2.604   2.937
    1MOL    CL3   15   2.931   2.631   2.362
    1MOL    CL4   16   2.442   2.261   2.484
    1MOL    CL5   17   2.938   2.326   2.269
    1MOL    CL6   18   2.691   2.141   2.332
    1MOL     H1   19   2.365   2.616   2.377
    1MOL     H2   20   2.176   2.716   2.495
    1MOL     H3   21   2.544   2.505   2.753
    1MOL     H4   22   2.688   2.680   2.491
   5.04947   5.04947   5.04947
