mobley_1967551_GMX.gro created by acpype (v: 2023.10.27) on Wed May 20 23:50:19 2026
    7
    1MOL     C1    1   2.104   2.153   2.222
    1MOL     C2    2   2.195   2.157   2.104
    1MOL     O1    3   2.106   2.064   2.307
    1MOL     H1    4   2.032   2.236   2.230
    1MOL     H2    5   2.254   2.249   2.107
    1MOL     H3    6   2.262   2.071   2.105
    1MOL     H4    7   2.135   2.155   2.012
   4.31008   4.31008   4.31008
