mobley_4759887_GMX.gro created by acpype (v: 2023.10.27) on Wed May 20 23:41:59 2026
 23
    1  MOL   C1    1  -0.065  -0.121  -0.218
    1  MOL   C2    2   0.054  -0.029  -0.194
    1  MOL   C3    3   0.036   0.111  -0.253
    1  MOL   C4    4   0.159   0.201  -0.235
    1  MOL   C5    5   0.134   0.340  -0.292
    1  MOL   C6    6   0.258   0.429  -0.277
    1  MOL   C7    7   0.231   0.570  -0.330
    1  MOL   I1    8   0.406   0.692  -0.312
    1  MOL   H1    9  -0.154  -0.087  -0.164
    1  MOL   H2   10  -0.090  -0.127  -0.325
    1  MOL   H3   11  -0.042  -0.222  -0.183
    1  MOL   H4   12   0.143  -0.075  -0.240
    1  MOL   H5   13   0.074  -0.023  -0.087
    1  MOL   H6   14  -0.052   0.159  -0.207
    1  MOL   H7   15   0.014   0.101  -0.360
    1  MOL   H8   16   0.245   0.155  -0.285
    1  MOL   H9   17   0.183   0.209  -0.128
    1  MOL  H10   18   0.049   0.387  -0.240
    1  MOL  H11   19   0.107   0.333  -0.398
    1  MOL  H12   20   0.342   0.384  -0.331
    1  MOL  H13   21   0.286   0.434  -0.171
    1  MOL  H14   22   0.149   0.616  -0.275
    1  MOL  H15   23   0.201   0.565  -0.436
   11.19200    18.27800     6.97600
