; mobley_4759887_GMX_OPLS.top created by acpype (v: 2023.10.27) on Wed May 20 23:41:59 2026

; Include forcefield parameters
#include "ffoplsaa.itp"

; Include mobley_4759887_GMX.itp topology
#include "mobley_4759887_GMX.itp"

; Ligand position restraints
#ifdef POSRES_LIG
#include "posre_mobley_4759887.itp"
#endif

[ system ]
 mobley_4759887

[ molecules ]
; Compound        nmols
 mobley_4759887   1     
