1_iodoheptane
    23
  -0.6510000  -1.2100000  -2.1830000   0.5390000  -0.2940000  -1.9440000
   0.3570000   1.1090000  -2.5260000   1.5850000   2.0050000  -2.3460000
   1.3380000   3.4040000  -2.9170000   2.5750000   4.2920000  -2.7680000
   2.3110000   5.6990000  -3.3030000   4.0590000   6.9170000  -3.1170000
  -1.5370000  -0.8670000  -1.6410000  -0.8960000  -1.2670000  -3.2480000
  -0.4210000  -2.2220000  -1.8340000   1.4250000  -0.7480000  -2.4040000
   0.7390000  -0.2290000  -0.8680000  -0.5190000   1.5850000  -2.0700000
   0.1400000   1.0100000  -3.5970000   2.4480000   1.5510000  -2.8470000
   1.8340000   2.0910000  -1.2820000   0.4890000   3.8660000  -2.3990000
   1.0680000   3.3260000  -3.9770000   3.4170000   3.8370000  -3.3060000
   2.8630000   4.3410000  -1.7100000   1.4860000   6.1620000  -2.7510000
   2.0140000   5.6510000  -4.3560000
