mobley_9185328_GMX.gro created by acpype (v: 2023.10.27) on Wed May 20 23:46:17 2026
 13
    1  MOL   C1    1   0.100  -0.029   0.035
    1  MOL   C2    2   0.118   0.008   0.182
    1  MOL   C3    3   0.016  -0.062   0.270
    1  MOL   N1    4   0.034  -0.024   0.410
    1  MOL   H1    5   0.112  -0.137   0.020
    1  MOL   H2    6   0.000  -0.000   0.000
    1  MOL   H3    7   0.174   0.023  -0.026
    1  MOL   H4    8   0.108   0.117   0.193
    1  MOL   H5    9   0.220  -0.018   0.213
    1  MOL   H6   10   0.026  -0.171   0.261
    1  MOL   H7   11  -0.086  -0.036   0.239
    1  MOL   H8   12   0.097   0.056   0.414
    1  MOL   H9   13   0.081  -0.100   0.459
    6.11400     5.76200     9.71600
