%VERSION  VERSION_STAMP = V0001.000  DATE = 05/20/26  23:46:17                  
%FLAG TITLE                                                                     
%FORMAT(20a4)                                                                   
n_propylamine                                                                   
%FLAG POINTERS                                                                  
%FORMAT(10I8)                                                                   
      13       5       9       3      19       2      23       1       0       0
      58       1       3       2       1       5       9       7       5       0
       0       0       0       0       0       0       0       0      13       0
       0
%FLAG ATOM_NAME                                                                 
%FORMAT(20a4)                                                                   
C1  C2  C3  N1  H1  H2  H3  H4  H5  H6  H7  H8  H9  
%FLAG CHARGE                                                                    
%FORMAT(5E16.8)                                                                 
 -1.62360693E+00 -2.23040952E+00  2.72970054E+00 -1.65057593E+01  6.26245784E-01
  6.26245784E-01  6.26245784E-01  6.86980710E-01  6.86980710E-01  9.42092910E-01
  9.42092910E-01  6.26482674E+00  6.26482674E+00
%FLAG ATOMIC_NUMBER                                                             
%FORMAT(10I8)                                                                   
       6       6       6       7       1       1       1       1       1       1
       1       1       1
%FLAG MASS                                                                      
%FORMAT(5E16.8)                                                                 
  1.20100000E+01  1.20100000E+01  1.20100000E+01  1.40100000E+01  1.00800000E+00
  1.00800000E+00  1.00800000E+00  1.00800000E+00  1.00800000E+00  1.00800000E+00
  1.00800000E+00  1.00800000E+00  1.00800000E+00
%FLAG ATOM_TYPE_INDEX                                                           
%FORMAT(10I8)                                                                   
       1       1       1       2       3       3       3       3       3       4
       4       5       5
%FLAG NUMBER_EXCLUDED_ATOMS                                                     
%FORMAT(10I8)                                                                   
      10      11      10       6       4       3       2       3       2       3
       2       1       1
%FLAG NONBONDED_PARM_INDEX                                                      
%FORMAT(10I8)                                                                   
       1       2       4       7      11       2       3       5       8      12
       4       5       6       9      13       7       8       9      10      14
      11      12      13      14      15
%FLAG RESIDUE_LABEL                                                             
%FORMAT(20a4)                                                                   
MOL 
%FLAG RESIDUE_POINTER                                                           
%FORMAT(10I8)                                                                   
       1
%FLAG BOND_FORCE_CONSTANT                                                       
%FORMAT(5E16.8)                                                                 
  2.28890000E+02  3.45250000E+02  2.53810000E+02  3.44220000E+02  4.60680000E+02
%FLAG BOND_EQUIL_VALUE                                                          
%FORMAT(5E16.8)                                                                 
  1.53540000E+00  1.09620000E+00  1.46510000E+00  1.09690000E+00  1.01920000E+00
%FLAG ANGLE_FORCE_CONSTANT                                                      
%FORMAT(5E16.8)                                                                 
  5.98700000E+01  4.32700000E+01  6.54800000E+01  4.32800000E+01  5.61700000E+01
  4.82100000E+01  3.58000000E+01  3.56400000E+01  4.78900000E+01
%FLAG ANGLE_EQUIL_VALUE                                                         
%FORMAT(5E16.8)                                                                 
  1.96576518E+00  1.91427794E+00  1.93574550E+00  1.91270715E+00  1.91305621E+00
  1.88705080E+00  1.88024401E+00  1.89455572E+00  1.85668205E+00
%FLAG DIHEDRAL_FORCE_CONSTANT                                                   
%FORMAT(5E16.8)                                                                 
  5.20000000E-01  1.55555556E-01  3.00000000E-02  1.30000000E-01  5.00000000E-02
  1.20000000E-01  3.00000000E-01
%FLAG DIHEDRAL_PERIODICITY                                                      
%FORMAT(5E16.8)                                                                 
  3.00000000E+00  3.00000000E+00  3.00000000E+00  3.00000000E+00  3.00000000E+00
  3.00000000E+00  3.00000000E+00
%FLAG DIHEDRAL_PHASE                                                            
%FORMAT(5E16.8)                                                                 
  0.00000000E+00  0.00000000E+00  3.14159400E+00  0.00000000E+00  0.00000000E+00
  0.00000000E+00  0.00000000E+00
%FLAG SCEE_SCALE_FACTOR                                                         
%FORMAT(5E16.8)                                                                 
  1.20000000E+00  1.20000000E+00  1.20000000E+00  1.20000000E+00  1.20000000E+00
  1.20000000E+00  1.20000000E+00
%FLAG SCNB_SCALE_FACTOR                                                         
%FORMAT(5E16.8)                                                                 
  2.00000000E+00  2.00000000E+00  2.00000000E+00  2.00000000E+00  2.00000000E+00
  2.00000000E+00  2.00000000E+00
%FLAG SOLTY                                                                     
%FORMAT(5E16.8)                                                                 
  0.00000000E+00  0.00000000E+00  0.00000000E+00  0.00000000E+00  0.00000000E+00
%FLAG LENNARD_JONES_ACOEF                                                       
%FORMAT(5E16.8)                                                                 
  1.02073671E+06  8.65620051E+05  7.22850509E+05  1.00235148E+05  8.99910629E+04
  7.94617769E+03  6.97998263E+04  6.36026248E+04  5.22955465E+03  3.39005767E+03
  2.23577481E+03  2.35480845E+03  9.47421632E+01  5.24570081E+01  1.34728399E-01
%FLAG LENNARD_JONES_BCOEF                                                       
%FORMAT(5E16.8)                                                                 
  6.63431737E+02  4.52010965E+02  3.05601515E+02  1.37787728E+02  9.65931103E+01
  2.57122925E+01  1.14981426E+02  8.12052260E+01  2.08590256E+01  1.67944276E+01
  1.71355763E+01  1.30109323E+01  2.33785449E+00  1.73959275E+00  7.34107347E-02
%FLAG BONDS_INC_HYDROGEN                                                        
%FORMAT(10I8)                                                                   
       0      12       2       0      15       2       0      18       2       3
      21       2       3      24       2       6      27       4       6      30
       4       9      33       5       9      36       5
%FLAG BONDS_WITHOUT_HYDROGEN                                                    
%FORMAT(10I8)                                                                   
       0       3       1       3       6       1       6       9       3
%FLAG ANGLES_INC_HYDROGEN                                                       
%FORMAT(10I8)                                                                   
       0       3      21       2       0       3      24       2       3       0
      12       2       3       0      15       2       3       0      18       2
       3       6      27       4       3       6      30       4       6       3
      21       2       6       3      24       2       6       9      33       5
       6       9      36       5       9       6      27       6       9       6
      30       6      12       0      15       7      12       0      18       7
      15       0      18       7      21       3      24       7      27       6
      30       8      33       9      36       9
%FLAG ANGLES_WITHOUT_HYDROGEN                                                   
%FORMAT(10I8)                                                                   
       0       3       6       1       3       6       9       3
%FLAG DIHEDRALS_INC_HYDROGEN                                                    
%FORMAT(10I8)                                                                   
       0       3       6      27       2       0       3       6      30       2
       3       6       9      33       3       3       6       9      36       3
      12       0       3       6       4      15       0       3       6       4
      18       0       3       6       4       9       6       3      21       5
       9       6       3      24       5      12       0       3      21       6
      12       0       3      24       6      15       0       3      21       6
      15       0       3      24       6      18       0       3      21       6
      18       0       3      24       6      21       3       6      27       2
      21       3       6      30       2      24       3       6      27       2
      24       3       6      30       2      27       6       9      33       7
      27       6       9      36       7      30       6       9      33       7
      30       6       9      36       7
%FLAG DIHEDRALS_WITHOUT_HYDROGEN                                                
%FORMAT(10I8)                                                                   
       0       3       6       9       1
%FLAG EXCLUDED_ATOMS_LIST                                                       
%FORMAT(10I8)                                                                   
       2       3       4       5       6       7       8       9      10      11
       3       4       5       6       7       8       9      10      11      12
      13       4       5       6       7       8       9      10      11      12
      13       8       9      10      11      12      13       6       7       8
       9       7       8       9       8       9       9      10      11      10
      11      11      12      13      12      13      13       0
%FLAG HBOND_ACOEF                                                               
%FORMAT(5E16.8)                                                                 

%FLAG HBOND_BCOEF                                                               
%FORMAT(5E16.8)                                                                 

%FLAG HBCUT                                                                     
%FORMAT(5E16.8)                                                                 

%FLAG AMBER_ATOM_TYPE                                                           
%FORMAT(20a4)                                                                   
c3  c3  c3  n8  hc  hc  hc  hc  hc  h1  h1  hn  hn  
%FLAG TREE_CHAIN_CLASSIFICATION                                                 
%FORMAT(20a4)                                                                   
BLA BLA BLA BLA BLA BLA BLA BLA BLA BLA BLA BLA BLA 
%FLAG JOIN_ARRAY                                                                
%FORMAT(10I8)                                                                   
       0       0       0       0       0       0       0       0       0       0
       0       0       0
%FLAG IROTAT                                                                    
%FORMAT(10I8)                                                                   
       0       0       0       0       0       0       0       0       0       0
       0       0       0
%FLAG RADIUS_SET                                                                
%FORMAT(1a80)                                                                   
modified Bondi radii (mbondi)                                                   
%FLAG RADII                                                                     
%FORMAT(5E16.8)                                                                 
  1.70000000E+00  1.70000000E+00  1.70000000E+00  1.55000000E+00  1.30000000E+00
  1.30000000E+00  1.30000000E+00  1.30000000E+00  1.30000000E+00  1.30000000E+00
  1.30000000E+00  1.30000000E+00  1.30000000E+00
%FLAG SCREEN                                                                    
%FORMAT(5E16.8)                                                                 
  7.20000000E-01  7.20000000E-01  7.20000000E-01  7.90000000E-01  8.50000000E-01
  8.50000000E-01  8.50000000E-01  8.50000000E-01  8.50000000E-01  8.50000000E-01
  8.50000000E-01  8.50000000E-01  8.50000000E-01
%FLAG IPOL                                                                      
%FORMAT(1I8)                                                                    
       0
