; mobley_9185328_GMX_OPLS.top created by acpype (v: 2023.10.27) on Wed May 20 23:46:17 2026

; Include forcefield parameters
#include "ffoplsaa.itp"

; Include mobley_9185328_GMX.itp topology
#include "mobley_9185328_GMX.itp"

; Ligand position restraints
#ifdef POSRES_LIG
#include "posre_mobley_9185328.itp"
#endif

[ system ]
 mobley_9185328

[ molecules ]
; Compound        nmols
 mobley_9185328   1     
