n_propylamine
    13
   0.9950000  -0.2870000   0.3540000   1.1800000   0.0830000   1.8180000
   0.1580000  -0.6240000   2.7040000   0.3420000  -0.2370000   4.0980000
   1.1160000  -1.3650000   0.2040000   0.0000000  -0.0000000   0.0000000
   1.7380000   0.2280000  -0.2640000   1.0850000   1.1700000   1.9270000
   2.1980000  -0.1850000   2.1280000   0.2630000  -1.7110000   2.6110000
  -0.8590000  -0.3600000   2.3920000   0.9700000   0.5620000   4.1410000
   0.8050000  -0.9950000   4.5940000
