4_fluorophenol
    13
   0.8180000  -0.4390000   0.5640000   2.9370000  -1.5970000   0.6200000
   0.7990000  -0.4060000   1.9590000   2.9180000  -1.5650000   2.0140000
   1.8870000  -1.0340000  -0.1050000   1.8500000  -0.9690000   2.6840000
   1.9060000  -1.0660000  -1.4660000   1.8320000  -0.9380000   4.0230000
  -0.0040000   0.0020000   0.0060000   3.7720000  -2.0630000   0.1030000
  -0.0330000   0.0580000   2.4810000   3.7360000  -2.0020000   2.5790000
   2.6760000  -1.5860000  -1.7580000
