; mobley_852937_GMX.top created by acpype (v: 2023.10.27) on Thu May 21 00:02:06 2026

[ defaults ]
; nbfunc        comb-rule       gen-pairs       fudgeLJ fudgeQQ
1               2               yes             0.5     0.8333333333

; Include mobley_852937_GMX.itp topology
#include "mobley_852937_GMX.itp"

; Ligand position restraints
#ifdef POSRES_LIG
#include "posre_mobley_852937.itp"
#endif

[ system ]
mobley_852937 in water

[ molecules ]
; Compound        nmols
 mobley_852937    1     
SOL              3144
