mobley_852937_GMX.gro created by acpype (v: 2023.10.27) on Thu May 21 00:02:06 2026
 13
    1  MOL   C1    1   0.082  -0.044   0.056
    1  MOL   C2    2   0.294  -0.160   0.062
    1  MOL   C3    3   0.080  -0.041   0.196
    1  MOL   C4    4   0.292  -0.157   0.201
    1  MOL   C5    5   0.189  -0.103  -0.011
    1  MOL   C6    6   0.185  -0.097   0.268
    1  MOL   O1    7   0.191  -0.107  -0.147
    1  MOL   F1    8   0.183  -0.094   0.402
    1  MOL   H1    9  -0.000   0.000   0.001
    1  MOL   H2   10   0.377  -0.206   0.010
    1  MOL   H3   11  -0.003   0.006   0.248
    1  MOL   H4   12   0.374  -0.200   0.258
    1  MOL   H5   13   0.268  -0.159  -0.176
    7.61000     4.24200    11.56200
