; mobley_852937_GMX_OPLS.top created by acpype (v: 2023.10.27) on Thu May 21 00:02:06 2026

; Include forcefield parameters
#include "ffoplsaa.itp"

; Include mobley_852937_GMX.itp topology
#include "mobley_852937_GMX.itp"

; Ligand position restraints
#ifdef POSRES_LIG
#include "posre_mobley_852937.itp"
#endif

[ system ]
 mobley_852937

[ molecules ]
; Compound        nmols
 mobley_852937    1     
