; mobley_852937_GMX_OPLS.itp created by acpype (v: 2023.10.27) on Thu May 21 00:02:06 2026

; For OPLS atomtypes manual fine tuning
; AC_at:OPLS_at:OPLScode: Possible_Alternatives (see ffoplsaa.atp and ffoplsaanb.itp)
; ca:CA:opls_145: ['166', '501', '502']
; oh:OH:opls_154: ['167']
; f:x:opls_x: []
; ha:HA:opls_146: []
; ho:HO:opls_155: ['168']

[ moleculetype ]
;name            nrexcl
 mobley_852937    3

[ atoms ]
;   nr  type  resi  res  atom  cgnr     charge      mass       ; qtot   bond_type
     1 opls_145     1   MOL    C1    1    -0.161500     12.01100 ; qtot -0.161  CA  
     2 opls_145     1   MOL    C2    2    -0.161500     12.01100 ; qtot -0.323  CA  
     3 opls_145     1   MOL    C3    3    -0.128500     12.01100 ; qtot -0.451  CA  
     4 opls_145     1   MOL    C4    4    -0.128500     12.01100 ; qtot -0.580  CA  
     5 opls_145     1   MOL    C5    5     0.111100     12.01100 ; qtot -0.469  CA  
     6 opls_145     1   MOL    C6    6     0.087900     12.01100 ; qtot -0.381  CA  
     7 opls_154     1   MOL    O1    7    -0.494100     15.99940 ; qtot -0.875  OH  
     8 opls_x     1   MOL    F1    8    -0.141900      0.00000 ; qtot -1.017  x   
     9 opls_146     1   MOL    H1    9     0.147500      1.00800 ; qtot -0.869  HA  
    10 opls_146     1   MOL    H2   10     0.147500      1.00800 ; qtot -0.722  HA  
    11 opls_146     1   MOL    H3   11     0.151000      1.00800 ; qtot -0.571  HA  
    12 opls_146     1   MOL    H4   12     0.151000      1.00800 ; qtot -0.420  HA  
    13 opls_155     1   MOL    H5   13     0.420000      1.00800 ; qtot  0.000  HO  

[ bonds ]
;   ai     aj funct   r             k
     1      3   1 ;    1.3986e-01    2.9644e+05 ;     C1 - C3         CA - CA    
     1      5   1 ;    1.3986e-01    2.9644e+05 ;     C1 - C5         CA - CA    
     1      9   1 ;    1.0860e-01    3.0183e+05 ;     C1 - H1         CA - HA    
     2      4   1 ;    1.3986e-01    2.9644e+05 ;     C2 - C4         CA - CA    
     2      5   1 ;    1.3986e-01    2.9644e+05 ;     C2 - C5         CA - CA    
     2     10   1 ;    1.0860e-01    3.0183e+05 ;     C2 - H2         CA - HA    
     3      6   1 ;    1.3986e-01    2.9644e+05 ;     C3 - C6         CA - CA    
     3     11   1 ;    1.0860e-01    3.0183e+05 ;     C3 - H3         CA - HA    
     4      6   1 ;    1.3986e-01    2.9644e+05 ;     C4 - C6         CA - CA    
     4     12   1 ;    1.0860e-01    3.0183e+05 ;     C4 - H4         CA - HA    
     5      7   1 ;    1.3644e-01    2.9167e+05 ;     C5 - O1         CA - OH    
     6      8   1 ;    1.3502e-01    2.8070e+05 ;     C6 - F1         CA - x     
     7     13   1 ;    9.7250e-02    4.4811e+05 ;     O1 - H5         OH - HO    

[ pairs ]
;   ai     aj    funct
     1      4      1 ;     C1 - C4    
     1      8      1 ;     C1 - F1    
     1     10      1 ;     C1 - H2    
     1     13      1 ;     C1 - H5    
     2      3      1 ;     C2 - C3    
     2      8      1 ;     C2 - F1    
     2     13      1 ;     C2 - H5    
     3      7      1 ;     C3 - O1    
     3     12      1 ;     C3 - H4    
     4      7      1 ;     C4 - O1    
     4     11      1 ;     C4 - H3    
     5      6      1 ;     C5 - C6    
     5     11      1 ;     C5 - H3    
     5     12      1 ;     C5 - H4    
     6     10      1 ;     C6 - H2    
     7     10      1 ;     O1 - H2    
     8     11      1 ;     F1 - H3    
     8     12      1 ;     F1 - H4    
     9      2      1 ;     H1 - C2    
     9      6      1 ;     H1 - C6    
     9      7      1 ;     H1 - O1    
     9     11      1 ;     H1 - H3    
    10     12      1 ;     H2 - H4    

[ angles ]
;   ai     aj     ak    funct   theta         cth
     1      3      6      1 ;    1.2002e+02    5.3279e+02 ;     C1 - C3   - C6       CA -   CA - CA  
     1      3     11      1 ;    1.1988e+02    3.7572e+02 ;     C1 - C3   - H3       CA -   CA - HA  
     1      5      2      1 ;    1.2002e+02    5.3279e+02 ;     C1 - C5   - C2       CA -   CA - CA  
     1      5      7      1 ;    1.1990e+02    6.5990e+02 ;     C1 - C5   - O1       CA -   CA - OH  
     2      4      6      1 ;    1.2002e+02    5.3279e+02 ;     C2 - C4   - C6       CA -   CA - CA  
     2      4     12      1 ;    1.1988e+02    3.7572e+02 ;     C2 - C4   - H4       CA -   CA - HA  
     2      5      7      1 ;    1.1990e+02    6.5990e+02 ;     C2 - C5   - O1       CA -   CA - OH  
     3      1      5      1 ;    1.2002e+02    5.3279e+02 ;     C3 - C1   - C5       CA -   CA - CA  
     3      1      9      1 ;    1.1988e+02    3.7572e+02 ;     C3 - C1   - H1       CA -   CA - HA  
     3      6      4      1 ;    1.2002e+02    5.3279e+02 ;     C3 - C6   - C4       CA -   CA - CA  
     3      6      8      1 ;    1.1896e+02    6.7404e+02 ;     C3 - C6   - F1       CA -   CA - x   
     4      2      5      1 ;    1.2002e+02    5.3279e+02 ;     C4 - C2   - C5       CA -   CA - CA  
     4      2     10      1 ;    1.1988e+02    3.7572e+02 ;     C4 - C2   - H2       CA -   CA - HA  
     4      6      8      1 ;    1.1896e+02    6.7404e+02 ;     C4 - C6   - F1       CA -   CA - x   
     5      1      9      1 ;    1.1988e+02    3.7572e+02 ;     C5 - C1   - H1       CA -   CA - HA  
     5      2     10      1 ;    1.1988e+02    3.7572e+02 ;     C5 - C2   - H2       CA -   CA - HA  
     5      7     13      1 ;    1.0858e+02    5.6409e+02 ;     C5 - O1   - H5       CA -   OH - HO  
     6      3     11      1 ;    1.1988e+02    3.7572e+02 ;     C6 - C3   - H3       CA -   CA - HA  
     6      4     12      1 ;    1.1988e+02    3.7572e+02 ;     C6 - C4   - H4       CA -   CA - HA  

[ dihedrals ] ; propers
; for gromacs 4.5 or higher, using funct 9
;    i      j      k      l   func   phase     kd      pn
     1      3      6      4      9 ;   180.00  15.16700   2 ;     C1-    C3-    C6-    C4
     1      3      6      8      9 ;   180.00  15.16700   2 ;     C1-    C3-    C6-    F1
     1      5      2      4      9 ;   180.00  15.16700   2 ;     C1-    C5-    C2-    C4
     1      5      2     10      9 ;   180.00  15.16700   2 ;     C1-    C5-    C2-    H2
     1      5      7     13      9 ;   180.00   3.57732   2 ;     C1-    C5-    O1-    H5
     2      4      6      3      9 ;   180.00  15.16700   2 ;     C2-    C4-    C6-    C3
     2      4      6      8      9 ;   180.00  15.16700   2 ;     C2-    C4-    C6-    F1
     2      5      7     13      9 ;   180.00   3.57732   2 ;     C2-    C5-    O1-    H5
     3      1      5      2      9 ;   180.00  15.16700   2 ;     C3-    C1-    C5-    C2
     3      1      5      7      9 ;   180.00  15.16700   2 ;     C3-    C1-    C5-    O1
     3      6      4     12      9 ;   180.00  15.16700   2 ;     C3-    C6-    C4-    H4
     4      2      5      7      9 ;   180.00  15.16700   2 ;     C4-    C2-    C5-    O1
     4      6      3     11      9 ;   180.00  15.16700   2 ;     C4-    C6-    C3-    H3
     5      1      3      6      9 ;   180.00  15.16700   2 ;     C5-    C1-    C3-    C6
     5      1      3     11      9 ;   180.00  15.16700   2 ;     C5-    C1-    C3-    H3
     5      2      4      6      9 ;   180.00  15.16700   2 ;     C5-    C2-    C4-    C6
     5      2      4     12      9 ;   180.00  15.16700   2 ;     C5-    C2-    C4-    H4
     6      4      2     10      9 ;   180.00  15.16700   2 ;     C6-    C4-    C2-    H2
     7      5      2     10      9 ;   180.00  15.16700   2 ;     O1-    C5-    C2-    H2
     8      6      3     11      9 ;   180.00  15.16700   2 ;     F1-    C6-    C3-    H3
     8      6      4     12      9 ;   180.00  15.16700   2 ;     F1-    C6-    C4-    H4
     9      1      3      6      9 ;   180.00  15.16700   2 ;     H1-    C1-    C3-    C6
     9      1      3     11      9 ;   180.00  15.16700   2 ;     H1-    C1-    C3-    H3
     9      1      5      2      9 ;   180.00  15.16700   2 ;     H1-    C1-    C5-    C2
     9      1      5      7      9 ;   180.00  15.16700   2 ;     H1-    C1-    C5-    O1
    10      2      4     12      9 ;   180.00  15.16700   2 ;     H2-    C2-    C4-    H4

[ dihedrals ] ; impropers
; treated as propers in GROMACS to use correct AMBER analytical function
;    i      j      k      l   func   phase     kd      pn
     1      2      5      7      4 ;   180.00   4.60240   2 ;     C1-    C2-    C5-    O1
     1      6      3     11      4 ;   180.00   4.60240   2 ;     C1-    C6-    C3-    H3
     2      6      4     12      4 ;   180.00   4.60240   2 ;     C2-    C6-    C4-    H4
     3      4      6      8      4 ;   180.00   4.60240   2 ;     C3-    C4-    C6-    F1
     4      5      2     10      4 ;   180.00   4.60240   2 ;     C4-    C5-    C2-    H2
     9      1      5      3      4 ;   180.00   4.60240   2 ;     H1-    C1-    C5-    C3
