mobley_4639255_GMX.gro created by acpype (v: 2023.10.27) on Wed May 20 23:58:00 2026
   10
    1MOL     C1    1   2.261   2.239   2.188
    1MOL     C2    2   2.135   2.175   2.132
    1MOL     O1    3   2.265   2.218   2.329
    1MOL     O2    4   2.139   2.035   2.158
    1MOL     H1    5   2.261   2.347   2.170
    1MOL     H2    6   2.350   2.194   2.144
    1MOL     H3    7   2.129   2.189   2.024
    1MOL     H4    8   2.046   2.216   2.180
    1MOL     H5    9   2.260   2.305   2.370
    1MOL     H6   10   2.090   2.020   2.240
   4.38773   4.38773   4.38773
