mobley_4678740_GMX.gro created by acpype (v: 2023.10.27) on Wed May 20 23:42:21 2026
   18
    1MOL     C1    1   2.444   2.514   2.344
    1MOL     C2    2   2.513   2.393   2.344
    1MOL     C3    3   2.306   2.514   2.344
    1MOL     C4    4   2.304   2.274   2.344
    1MOL     C5    5   2.443   2.274   2.344
    1MOL     C6    6   2.236   2.394   2.344
    1MOL     C7    7   2.515   2.141   2.344
    1MOL     C8    8   2.086   2.398   2.344
    1MOL     F1    9   2.483   2.069   2.450
    1MOL     F2   10   2.646   2.156   2.344
    1MOL     F3   11   2.483   2.069   2.238
    1MOL     F4   12   2.032   2.277   2.344
    1MOL     F5   13   2.039   2.462   2.450
    1MOL     F6   14   2.039   2.462   2.238
    1MOL     H1   15   2.499   2.606   2.344
    1MOL     H2   16   2.621   2.393   2.344
    1MOL     H3   17   2.253   2.608   2.344
    1MOL     H4   18   2.250   2.181   2.344
   4.68798   4.68798   4.68798
