mobley_4759887_GMX.gro created by acpype (v: 2023.10.27) on Wed May 20 23:41:59 2026
   23
    1MOL     C1    1   2.332   2.175   2.553
    1MOL     C2    2   2.451   2.267   2.577
    1MOL     C3    3   2.433   2.407   2.518
    1MOL     C4    4   2.556   2.497   2.536
    1MOL     C5    5   2.531   2.636   2.479
    1MOL     C6    6   2.655   2.725   2.494
    1MOL     C7    7   2.628   2.866   2.441
    1MOL     I1    8   2.803   2.988   2.459
    1MOL     H1    9   2.243   2.209   2.607
    1MOL     H2   10   2.307   2.169   2.446
    1MOL     H3   11   2.355   2.074   2.588
    1MOL     H4   12   2.540   2.221   2.531
    1MOL     H5   13   2.471   2.273   2.684
    1MOL     H6   14   2.345   2.455   2.564
    1MOL     H7   15   2.411   2.397   2.411
    1MOL     H8   16   2.642   2.451   2.486
    1MOL     H9   17   2.580   2.505   2.643
    1MOL    H10   18   2.446   2.683   2.531
    1MOL    H11   19   2.504   2.629   2.373
    1MOL    H12   20   2.739   2.680   2.440
    1MOL    H13   21   2.683   2.730   2.600
    1MOL    H14   22   2.546   2.912   2.496
    1MOL    H15   23   2.598   2.861   2.335
   5.02603   5.02603   5.02603
