%VERSION  VERSION_STAMP = V0001.000  DATE = 05/20/26  23:53:29                  
%FLAG TITLE                                                                     
%FORMAT(20a4)                                                                   
bencl.xyz                                                                       
%FLAG POINTERS                                                                  
%FORMAT(10I8)                                                                   
      15       5       7       8      15       9      25      11       0       0
      69       1       8       9      11       5       7       3       5       0
       0       0       0       0       0       0       0       0      15       0
       0
%FLAG ATOM_NAME                                                                 
%FORMAT(20a4)                                                                   
C1  C2  C3  C4  C5  C6  C7  Cl1 H1  H2  H3  H4  H5  H6  H7  
%FLAG CHARGE                                                                    
%FORMAT(5E16.8)                                                                 
 -2.16845370E+00 -2.38712130E+00 -2.38712130E+00 -1.98623070E+00 -1.98623070E+00
 -1.90058589E+00  1.55436219E+00 -3.52419282E+00  2.42356590E+00  2.44178820E+00
  2.44178820E+00  2.46001050E+00  2.46001050E+00  1.27009431E+00  1.27009431E+00
%FLAG ATOMIC_NUMBER                                                             
%FORMAT(10I8)                                                                   
       6       6       6       6       6       6       6      17       1       1
       1       1       1       1       1
%FLAG MASS                                                                      
%FORMAT(5E16.8)                                                                 
  1.20100000E+01  1.20100000E+01  1.20100000E+01  1.20100000E+01  1.20100000E+01
  1.20100000E+01  1.20100000E+01  3.54500000E+01  1.00800000E+00  1.00800000E+00
  1.00800000E+00  1.00800000E+00  1.00800000E+00  1.00800000E+00  1.00800000E+00
%FLAG ATOM_TYPE_INDEX                                                           
%FORMAT(10I8)                                                                   
       1       1       1       1       1       1       2       3       4       4
       4       4       4       5       5
%FLAG NUMBER_EXCLUDED_ATOMS                                                     
%FORMAT(10I8)                                                                   
      10       9       8      10       9       8       5       2       2       1
       1       1       1       1       1
%FLAG NONBONDED_PARM_INDEX                                                      
%FORMAT(10I8)                                                                   
       1       2       4       7      11       2       3       5       8      12
       4       5       6       9      13       7       8       9      10      14
      11      12      13      14      15
%FLAG RESIDUE_LABEL                                                             
%FORMAT(20a4)                                                                   
MOL 
%FLAG RESIDUE_POINTER                                                           
%FORMAT(10I8)                                                                   
       1
%FLAG BOND_FORCE_CONSTANT                                                       
%FORMAT(5E16.8)                                                                 
  3.54250000E+02  3.60690000E+02  2.43910000E+02  1.64000000E+02  3.44220000E+02
%FLAG BOND_EQUIL_VALUE                                                          
%FORMAT(5E16.8)                                                                 
  1.39860000E+00  1.08600000E+00  1.51470000E+00  1.80920000E+00  1.09690000E+00
%FLAG ANGLE_FORCE_CONSTANT                                                      
%FORMAT(5E16.8)                                                                 
  6.36700000E+01  4.49000000E+01  6.07400000E+01  6.37400000E+01  4.38100000E+01
  4.32400000E+01  3.56400000E+01
%FLAG ANGLE_EQUIL_VALUE                                                         
%FORMAT(5E16.8)                                                                 
  2.09474507E+00  2.09230160E+00  2.10888224E+00  1.93557097E+00  1.91288168E+00
  1.86436151E+00  1.89455572E+00
%FLAG DIHEDRAL_FORCE_CONSTANT                                                   
%FORMAT(5E16.8)                                                                 
  3.62500000E+00  0.00000000E+00  1.10000000E+00
%FLAG DIHEDRAL_PERIODICITY                                                      
%FORMAT(5E16.8)                                                                 
  2.00000000E+00  2.00000000E+00  2.00000000E+00
%FLAG DIHEDRAL_PHASE                                                            
%FORMAT(5E16.8)                                                                 
  3.14159400E+00  0.00000000E+00  3.14159400E+00
%FLAG SCEE_SCALE_FACTOR                                                         
%FORMAT(5E16.8)                                                                 
  1.20000000E+00  1.20000000E+00  0.00000000E+00
%FLAG SCNB_SCALE_FACTOR                                                         
%FORMAT(5E16.8)                                                                 
  2.00000000E+00  2.00000000E+00  0.00000000E+00
%FLAG SOLTY                                                                     
%FORMAT(5E16.8)                                                                 
  0.00000000E+00  0.00000000E+00  0.00000000E+00  0.00000000E+00  0.00000000E+00
%FLAG LENNARD_JONES_ACOEF                                                       
%FORMAT(5E16.8)                                                                 
  6.96551276E+05  8.43969952E+05  1.02073671E+06  1.49062160E+06  1.80018612E+06
  3.17107030E+06  7.52549148E+04  9.27554496E+04  1.66104821E+05  6.90855956E+03
  5.63013422E+04  6.97998263E+04  1.25585106E+05  4.88692384E+03  3.39005767E+03
%FLAG LENNARD_JONES_BCOEF                                                       
%FORMAT(5E16.8)                                                                 
  5.24668528E+02  5.90251928E+02  6.63431737E+02  9.81118883E+02  1.10195051E+03
  1.82923847E+03  1.09570372E+02  1.24325688E+02  2.08087638E+02  2.10929191E+01
  1.01040256E+02  1.14981426E+02  1.92900608E+02  1.89134207E+01  1.67944276E+01
%FLAG BONDS_INC_HYDROGEN                                                        
%FORMAT(10I8)                                                                   
       0      24       2       3      27       2       6      30       2       9
      33       2      12      36       2      18      39       5      18      42
       5
%FLAG BONDS_WITHOUT_HYDROGEN                                                    
%FORMAT(10I8)                                                                   
       0       3       1       0       6       1       3       9       1       6
      12       1       9      15       1      12      15       1      15      18
       3      18      21       4
%FLAG ANGLES_INC_HYDROGEN                                                       
%FORMAT(10I8)                                                                   
       0       3      27       2       0       6      30       2       3       0
      24       2       3       9      33       2       6       0      24       2
       6      12      36       2       9       3      27       2      12       6
      30       2      15       9      33       2      15      12      36       2
      15      18      39       5      15      18      42       5      21      18
      39       6      21      18      42       6      39      18      42       7
%FLAG ANGLES_WITHOUT_HYDROGEN                                                   
%FORMAT(10I8)                                                                   
       0       3       9       1       0       6      12       1       3       0
       6       1       3       9      15       1       6      12      15       1
       9      15      12       1       9      15      18       3      12      15
      18       3      15      18      21       4
%FLAG DIHEDRALS_INC_HYDROGEN                                                    
%FORMAT(10I8)                                                                   
       0       3       9      33       1       0       6      12      36       1
       3       0       6      30       1       6       0       3      27       1
      24       0       3       9       1       9      15      12      36       1
       9      15      18      39       2       9      15      18      42       2
      24       0       6      12       1      12      15       9      33       1
      12      15      18      39       2      12      15      18      42       2
      15       9       3      27       1      15      12       6      30       1
      18      15       9      33       1      18      15      12      36       1
      24       0       3      27       1      24       0       6      30       1
      27       3       9      33       1      30       6      12      36       1
      24       0      -6      -3       3       0       9      -3     -27       3
       0      12      -6     -30       3       3      15      -9     -33       3
       6      15     -12     -36       3
%FLAG DIHEDRALS_WITHOUT_HYDROGEN                                                
%FORMAT(10I8)                                                                   
       0       3       9      15       1       0       6     -12      15       1
       3       0       6      12       1       3       9     -15      12       1
       3       9      15      18       1       6       0       3       9       1
       6      12     -15       9       1       6      12      15      18       1
       9      15      18      21       2      12      15      18      21       2
       9      12     -15     -18       3
%FLAG EXCLUDED_ATOMS_LIST                                                       
%FORMAT(10I8)                                                                   
       2       3       4       5       6       9      10      11      12      13
       3       4       5       6       7       9      10      11      12       4
       5       6       7       9      10      11      13       5       6       7
       8       9      10      12      13      14      15       6       7       8
       9      11      12      13      14      15       7       8      10      11
      12      13      14      15       8      12      13      14      15      14
      15      10      11      12      13       0       0      15       0
%FLAG HBOND_ACOEF                                                               
%FORMAT(5E16.8)                                                                 

%FLAG HBOND_BCOEF                                                               
%FORMAT(5E16.8)                                                                 

%FLAG HBCUT                                                                     
%FORMAT(5E16.8)                                                                 

%FLAG AMBER_ATOM_TYPE                                                           
%FORMAT(20a4)                                                                   
ca  ca  ca  ca  ca  ca  c3  cl  ha  ha  ha  ha  ha  h1  h1  
%FLAG TREE_CHAIN_CLASSIFICATION                                                 
%FORMAT(20a4)                                                                   
BLA BLA BLA BLA BLA BLA BLA BLA BLA BLA BLA BLA BLA BLA BLA 
%FLAG JOIN_ARRAY                                                                
%FORMAT(10I8)                                                                   
       0       0       0       0       0       0       0       0       0       0
       0       0       0       0       0
%FLAG IROTAT                                                                    
%FORMAT(10I8)                                                                   
       0       0       0       0       0       0       0       0       0       0
       0       0       0       0       0
%FLAG RADIUS_SET                                                                
%FORMAT(1a80)                                                                   
modified Bondi radii (mbondi)                                                   
%FLAG RADII                                                                     
%FORMAT(5E16.8)                                                                 
  1.70000000E+00  1.70000000E+00  1.70000000E+00  1.70000000E+00  1.70000000E+00
  1.70000000E+00  1.70000000E+00  1.70000000E+00  1.30000000E+00  1.30000000E+00
  1.30000000E+00  1.30000000E+00  1.30000000E+00  1.30000000E+00  1.30000000E+00
%FLAG SCREEN                                                                    
%FORMAT(5E16.8)                                                                 
  7.20000000E-01  7.20000000E-01  7.20000000E-01  7.20000000E-01  7.20000000E-01
  7.20000000E-01  7.20000000E-01  8.00000000E-01  8.50000000E-01  8.50000000E-01
  8.50000000E-01  8.50000000E-01  8.50000000E-01  8.50000000E-01  8.50000000E-01
%FLAG IPOL                                                                      
%FORMAT(1I8)                                                                    
       0
