; mobley_2484519_GMX_OPLS.itp created by acpype (v: 2023.10.27) on Wed May 20 23:53:29 2026

; For OPLS atomtypes manual fine tuning
; AC_at:OPLS_at:OPLScode: Possible_Alternatives (see ffoplsaa.atp and ffoplsaanb.itp)
; ca:CA:opls_145: ['166', '501', '502']
; c3:CT:opls_135: ['136', '137', '149', '157', '158', '206', '209', '210', '223B', '224B', '245', '246', '274', '283', '284', '285', '292', '292B', '293B', '296', '307', '308', '505']
; cl:x:opls_x: []
; ha:HA:opls_146: []
; h1:HC:opls_140: []

[ moleculetype ]
;name            nrexcl
 mobley_2484519   3

[ atoms ]
;   nr  type  resi  res  atom  cgnr     charge      mass       ; qtot   bond_type
     1 opls_145     1   MOL    C1    1    -0.119000     12.01100 ; qtot -0.119  CA  
     2 opls_145     1   MOL    C2    2    -0.131000     12.01100 ; qtot -0.250  CA  
     3 opls_145     1   MOL    C3    3    -0.131000     12.01100 ; qtot -0.381  CA  
     4 opls_145     1   MOL    C4    4    -0.109000     12.01100 ; qtot -0.490  CA  
     5 opls_145     1   MOL    C5    5    -0.109000     12.01100 ; qtot -0.599  CA  
     6 opls_145     1   MOL    C6    6    -0.104300     12.01100 ; qtot -0.703  CA  
     7 opls_135     1   MOL    C7    7     0.085300     12.01100 ; qtot -0.618  CT  
     8 opls_x     1   MOL   CL1    8    -0.192400      0.00000 ; qtot -0.810  x   
     9 opls_146     1   MOL    H1    9     0.133000      1.00800 ; qtot -0.677  HA  
    10 opls_146     1   MOL    H2   10     0.134000      1.00800 ; qtot -0.543  HA  
    11 opls_146     1   MOL    H3   11     0.134000      1.00800 ; qtot -0.409  HA  
    12 opls_146     1   MOL    H4   12     0.135000      1.00800 ; qtot -0.274  HA  
    13 opls_146     1   MOL    H5   13     0.135000      1.00800 ; qtot -0.139  HA  
    14 opls_140     1   MOL    H6   14     0.069700      1.00800 ; qtot -0.070  HC  
    15 opls_140     1   MOL    H7   15     0.069700      1.00800 ; qtot  0.000  HC  

[ bonds ]
;   ai     aj funct   r             k
     1      2   1 ;    1.3986e-01    2.9644e+05 ;     C1 - C2         CA - CA    
     1      3   1 ;    1.3986e-01    2.9644e+05 ;     C1 - C3         CA - CA    
     1      9   1 ;    1.0860e-01    3.0183e+05 ;     C1 - H1         CA - HA    
     2      4   1 ;    1.3986e-01    2.9644e+05 ;     C2 - C4         CA - CA    
     2     10   1 ;    1.0860e-01    3.0183e+05 ;     C2 - H2         CA - HA    
     3      5   1 ;    1.3986e-01    2.9644e+05 ;     C3 - C5         CA - CA    
     3     11   1 ;    1.0860e-01    3.0183e+05 ;     C3 - H3         CA - HA    
     4      6   1 ;    1.3986e-01    2.9644e+05 ;     C4 - C6         CA - CA    
     4     12   1 ;    1.0860e-01    3.0183e+05 ;     C4 - H4         CA - HA    
     5      6   1 ;    1.3986e-01    2.9644e+05 ;     C5 - C6         CA - CA    
     5     13   1 ;    1.0860e-01    3.0183e+05 ;     C5 - H5         CA - HA    
     6      7   1 ;    1.5147e-01    2.0410e+05 ;     C6 - C7         CA - CT    
     7      8   1 ;    1.8092e-01    1.3724e+05 ;     C7 - CL1        CT - x     
     7     14   1 ;    1.0969e-01    2.8804e+05 ;     C7 - H6         CT - HC    
     7     15   1 ;    1.0969e-01    2.8804e+05 ;     C7 - H7         CT - HC    

[ pairs ]
;   ai     aj    funct
     1      6      1 ;     C1 - C6    
     1     12      1 ;     C1 - H4    
     1     13      1 ;     C1 - H5    
     2      5      1 ;     C2 - C5    
     2      7      1 ;     C2 - C7    
     2     11      1 ;     C2 - H3    
     3      4      1 ;     C3 - C4    
     3      7      1 ;     C3 - C7    
     3     10      1 ;     C3 - H2    
     4      8      1 ;     C4 - CL1   
     4     13      1 ;     C4 - H5    
     4     14      1 ;     C4 - H6    
     4     15      1 ;     C4 - H7    
     5      8      1 ;     C5 - CL1   
     5     12      1 ;     C5 - H4    
     5     14      1 ;     C5 - H6    
     5     15      1 ;     C5 - H7    
     6     10      1 ;     C6 - H2    
     6     11      1 ;     C6 - H3    
     7     12      1 ;     C7 - H4    
     7     13      1 ;     C7 - H5    
     9      4      1 ;     H1 - C4    
     9      5      1 ;     H1 - C5    
     9     10      1 ;     H1 - H2    
     9     11      1 ;     H1 - H3    
    10     12      1 ;     H2 - H4    
    11     13      1 ;     H3 - H5    

[ angles ]
;   ai     aj     ak    funct   theta         cth
     1      2      4      1 ;    1.2002e+02    5.3279e+02 ;     C1 - C2   - C4       CA -   CA - CA  
     1      2     10      1 ;    1.1988e+02    3.7572e+02 ;     C1 - C2   - H2       CA -   CA - HA  
     1      3      5      1 ;    1.2002e+02    5.3279e+02 ;     C1 - C3   - C5       CA -   CA - CA  
     1      3     11      1 ;    1.1988e+02    3.7572e+02 ;     C1 - C3   - H3       CA -   CA - HA  
     2      1      3      1 ;    1.2002e+02    5.3279e+02 ;     C2 - C1   - C3       CA -   CA - CA  
     2      1      9      1 ;    1.1988e+02    3.7572e+02 ;     C2 - C1   - H1       CA -   CA - HA  
     2      4      6      1 ;    1.2002e+02    5.3279e+02 ;     C2 - C4   - C6       CA -   CA - CA  
     2      4     12      1 ;    1.1988e+02    3.7572e+02 ;     C2 - C4   - H4       CA -   CA - HA  
     3      1      9      1 ;    1.1988e+02    3.7572e+02 ;     C3 - C1   - H1       CA -   CA - HA  
     3      5      6      1 ;    1.2002e+02    5.3279e+02 ;     C3 - C5   - C6       CA -   CA - CA  
     3      5     13      1 ;    1.1988e+02    3.7572e+02 ;     C3 - C5   - H5       CA -   CA - HA  
     4      2     10      1 ;    1.1988e+02    3.7572e+02 ;     C4 - C2   - H2       CA -   CA - HA  
     4      6      5      1 ;    1.2002e+02    5.3279e+02 ;     C4 - C6   - C5       CA -   CA - CA  
     4      6      7      1 ;    1.2083e+02    5.0827e+02 ;     C4 - C6   - C7       CA -   CA - CT  
     5      3     11      1 ;    1.1988e+02    3.7572e+02 ;     C5 - C3   - H3       CA -   CA - HA  
     5      6      7      1 ;    1.2083e+02    5.0827e+02 ;     C5 - C6   - C7       CA -   CA - CT  
     6      4     12      1 ;    1.1988e+02    3.7572e+02 ;     C6 - C4   - H4       CA -   CA - HA  
     6      5     13      1 ;    1.1988e+02    3.7572e+02 ;     C6 - C5   - H5       CA -   CA - HA  
     6      7      8      1 ;    1.1090e+02    5.3338e+02 ;     C6 - C7   - CL1      CA -   CT - x   
     6      7     14      1 ;    1.0960e+02    3.6660e+02 ;     C6 - C7   - H6       CA -   CT - HC  
     6      7     15      1 ;    1.0960e+02    3.6660e+02 ;     C6 - C7   - H7       CA -   CT - HC  
     8      7     14      1 ;    1.0682e+02    3.6183e+02 ;    CL1 - C7   - H6        x -   CT - HC  
     8      7     15      1 ;    1.0682e+02    3.6183e+02 ;    CL1 - C7   - H7        x -   CT - HC  
    14      7     15      1 ;    1.0855e+02    2.9824e+02 ;     H6 - C7   - H7       HC -   CT - HC  

[ dihedrals ] ; propers
; for gromacs 4.5 or higher, using funct 9
;    i      j      k      l   func   phase     kd      pn
     1      2      4      6      9 ;   180.00  15.16700   2 ;     C1-    C2-    C4-    C6
     1      2      4     12      9 ;   180.00  15.16700   2 ;     C1-    C2-    C4-    H4
     1      3      5      6      9 ;   180.00  15.16700   2 ;     C1-    C3-    C5-    C6
     1      3      5     13      9 ;   180.00  15.16700   2 ;     C1-    C3-    C5-    H5
     2      1      3      5      9 ;   180.00  15.16700   2 ;     C2-    C1-    C3-    C5
     2      1      3     11      9 ;   180.00  15.16700   2 ;     C2-    C1-    C3-    H3
     2      4      6      5      9 ;   180.00  15.16700   2 ;     C2-    C4-    C6-    C5
     2      4      6      7      9 ;   180.00  15.16700   2 ;     C2-    C4-    C6-    C7
     3      1      2      4      9 ;   180.00  15.16700   2 ;     C3-    C1-    C2-    C4
     3      1      2     10      9 ;   180.00  15.16700   2 ;     C3-    C1-    C2-    H2
     3      5      6      4      9 ;   180.00  15.16700   2 ;     C3-    C5-    C6-    C4
     3      5      6      7      9 ;   180.00  15.16700   2 ;     C3-    C5-    C6-    C7
     4      6      5     13      9 ;   180.00  15.16700   2 ;     C4-    C6-    C5-    H5
     4      6      7      8      9 ;     0.00   0.00000   0 ;     C4-    C6-    C7-   CL1
     4      6      7     14      9 ;     0.00   0.00000   0 ;     C4-    C6-    C7-    H6
     4      6      7     15      9 ;     0.00   0.00000   0 ;     C4-    C6-    C7-    H7
     5      6      4     12      9 ;   180.00  15.16700   2 ;     C5-    C6-    C4-    H4
     5      6      7      8      9 ;     0.00   0.00000   0 ;     C5-    C6-    C7-   CL1
     5      6      7     14      9 ;     0.00   0.00000   0 ;     C5-    C6-    C7-    H6
     5      6      7     15      9 ;     0.00   0.00000   0 ;     C5-    C6-    C7-    H7
     6      4      2     10      9 ;   180.00  15.16700   2 ;     C6-    C4-    C2-    H2
     6      5      3     11      9 ;   180.00  15.16700   2 ;     C6-    C5-    C3-    H3
     7      6      4     12      9 ;   180.00  15.16700   2 ;     C7-    C6-    C4-    H4
     7      6      5     13      9 ;   180.00  15.16700   2 ;     C7-    C6-    C5-    H5
     9      1      2      4      9 ;   180.00  15.16700   2 ;     H1-    C1-    C2-    C4
     9      1      2     10      9 ;   180.00  15.16700   2 ;     H1-    C1-    C2-    H2
     9      1      3      5      9 ;   180.00  15.16700   2 ;     H1-    C1-    C3-    C5
     9      1      3     11      9 ;   180.00  15.16700   2 ;     H1-    C1-    C3-    H3
    10      2      4     12      9 ;   180.00  15.16700   2 ;     H2-    C2-    C4-    H4
    11      3      5     13      9 ;   180.00  15.16700   2 ;     H3-    C3-    C5-    H5

[ dihedrals ] ; impropers
; treated as propers in GROMACS to use correct AMBER analytical function
;    i      j      k      l   func   phase     kd      pn
     1      4      2     10      4 ;   180.00   4.60240   2 ;     C1-    C4-    C2-    H2
     1      5      3     11      4 ;   180.00   4.60240   2 ;     C1-    C5-    C3-    H3
     2      6      4     12      4 ;   180.00   4.60240   2 ;     C2-    C6-    C4-    H4
     3      6      5     13      4 ;   180.00   4.60240   2 ;     C3-    C6-    C5-    H5
     4      5      6      7      4 ;   180.00   4.60240   2 ;     C4-    C5-    C6-    C7
     9      1      3      2      4 ;   180.00   4.60240   2 ;     H1-    C1-    C3-    C2
