bencl.xyz
    15
  -0.0230000   2.4020000  -0.0040000   1.3640000   2.4110000  -0.0030000
  -0.7040000   1.1940000  -0.0030000   2.0660000   1.2150000   0.0000000
   0.0000000   0.0000000   0.0000000   1.3900000   0.0000000   0.0000000
   2.1520000  -1.2950000   0.0100000   2.5070000  -1.9020000  -1.6570000
  -0.5680000   3.3290000  -0.0050000   1.8980000   3.3450000  -0.0030000
  -1.7800000   1.1810000  -0.0030000   3.1420000   1.2280000  -0.0030000
  -0.5340000  -0.9340000  -0.0030000   3.1110000  -1.1890000   0.4920000
   1.5950000  -2.0810000   0.4940000
