mobley_2484519_GMX.gro created by acpype (v: 2023.10.27) on Wed May 20 23:53:29 2026
 15
    1  MOL   C1    1  -0.002   0.240  -0.000
    1  MOL   C2    2   0.136   0.241  -0.000
    1  MOL   C3    3  -0.070   0.119  -0.000
    1  MOL   C4    4   0.207   0.122   0.000
    1  MOL   C5    5   0.000   0.000   0.000
    1  MOL   C6    6   0.139   0.000   0.000
    1  MOL   C7    7   0.215  -0.130   0.001
    1  MOL  CL1    8   0.251  -0.190  -0.166
    1  MOL   H1    9  -0.057   0.333  -0.001
    1  MOL   H2   10   0.190   0.335  -0.000
    1  MOL   H3   11  -0.178   0.118  -0.000
    1  MOL   H4   12   0.314   0.123  -0.000
    1  MOL   H5   13  -0.053  -0.093  -0.000
    1  MOL   H6   14   0.311  -0.119   0.049
    1  MOL   H7   15   0.160  -0.208   0.049
    9.84400    10.85200     4.30200
