; mobley_2484519_GMX_OPLS.top created by acpype (v: 2023.10.27) on Wed May 20 23:53:29 2026

; Include forcefield parameters
#include "ffoplsaa.itp"

; Include mobley_2484519_GMX.itp topology
#include "mobley_2484519_GMX.itp"

; Ligand position restraints
#ifdef POSRES_LIG
#include "posre_mobley_2484519.itp"
#endif

[ system ]
 mobley_2484519

[ molecules ]
; Compound        nmols
 mobley_2484519   1     
