mobley_9534740_GMX.gro created by acpype (v: 2023.10.27) on Wed May 20 23:43:47 2026
   24
    1MOL     C1    1   2.247   2.303   2.459
    1MOL     C2    2   2.315   2.439   2.443
    1MOL     C3    3   2.341   2.189   2.421
    1MOL     C4    4   2.383   2.450   2.306
    1MOL     C5    5   2.409   2.215   2.287
    1MOL     C6    6   2.461   2.580   2.292
    1MOL     O1    7   2.474   2.342   2.288
    1MOL     O2    8   2.204   2.287   2.594
    1MOL     O3    9   2.218   2.542   2.456
    1MOL     O4   10   2.267   2.067   2.414
    1MOL     O5   11   2.506   2.111   2.266
    1MOL     O6   12   2.522   2.583   2.164
    1MOL     H1   13   2.155   2.299   2.398
    1MOL     H2   14   2.389   2.452   2.523
    1MOL     H3   15   2.416   2.175   2.500
    1MOL     H4   16   2.308   2.448   2.226
    1MOL     H5   17   2.337   2.210   2.204
    1MOL     H6   18   2.539   2.584   2.369
    1MOL     H7   19   2.395   2.665   2.303
    1MOL     H8   20   2.284   2.292   2.649
    1MOL     H9   21   2.153   2.528   2.386
    1MOL    H10   22   2.199   2.080   2.346
    1MOL    H11   23   2.548   2.130   2.181
    1MOL    H12   24   2.571   2.666   2.158
   4.71911   4.71911   4.71911
