%VERSION  VERSION_STAMP = V0001.000  DATE = 05/20/26  23:42:50                  
%FLAG TITLE                                                                     
%FORMAT(20a4)                                                                   
cyanobenzene                                                                    
%FLAG POINTERS                                                                  
%FORMAT(10I8)                                                                   
      13       4       5       8      10       9      21      11       0       0
      58       1       8       9      11       4       4       3       4       0
       0       0       0       0       0       0       0       0      13       0
       0
%FLAG ATOM_NAME                                                                 
%FORMAT(20a4)                                                                   
C1  C2  C3  C4  C5  C6  C7  N1  H1  H2  H3  H4  H5  
%FLAG CHARGE                                                                    
%FORMAT(5E16.8)                                                                 
  4.26037374E+00 -1.94978610E+00 -2.46001050E+00 -2.46001050E+00 -1.65822930E+00
 -1.65822930E+00 -3.46223700E-01 -6.62927274E+00  2.51467740E+00  2.55112200E+00
  2.55112200E+00  2.64223350E+00  2.64223350E+00
%FLAG ATOMIC_NUMBER                                                             
%FORMAT(10I8)                                                                   
       6       6       6       6       6       6       6       7       1       1
       1       1       1
%FLAG MASS                                                                      
%FORMAT(5E16.8)                                                                 
  1.20100000E+01  1.20100000E+01  1.20100000E+01  1.20100000E+01  1.20100000E+01
  1.20100000E+01  1.20100000E+01  1.40100000E+01  1.00800000E+00  1.00800000E+00
  1.00800000E+00  1.00800000E+00  1.00800000E+00
%FLAG ATOM_TYPE_INDEX                                                           
%FORMAT(10I8)                                                                   
       1       2       2       2       2       2       2       3       4       4
       4       4       4
%FLAG NUMBER_EXCLUDED_ATOMS                                                     
%FORMAT(10I8)                                                                   
       8      10       8       7       7       6       5       1       2       1
       1       1       1
%FLAG NONBONDED_PARM_INDEX                                                      
%FORMAT(10I8)                                                                   
       1       2       4       7       2       3       5       8       4       5
       6       9       7       8       9      10
%FLAG RESIDUE_LABEL                                                             
%FORMAT(20a4)                                                                   
MOL 
%FLAG RESIDUE_POINTER                                                           
%FORMAT(10I8)                                                                   
       1
%FLAG BOND_FORCE_CONSTANT                                                       
%FORMAT(5E16.8)                                                                 
  3.17410000E+02  7.44030000E+02  3.54250000E+02  3.60690000E+02
%FLAG BOND_EQUIL_VALUE                                                          
%FORMAT(5E16.8)                                                                 
  1.43180000E+00  1.16430000E+00  1.39860000E+00  1.08600000E+00
%FLAG ANGLE_FORCE_CONSTANT                                                      
%FORMAT(5E16.8)                                                                 
  6.28500000E+01  6.36700000E+01  4.49000000E+01  5.83000000E+01
%FLAG ANGLE_EQUIL_VALUE                                                         
%FORMAT(5E16.8)                                                                 
  2.09875933E+00  2.09474507E+00  2.09230160E+00  3.13321642E+00
%FLAG DIHEDRAL_FORCE_CONSTANT                                                   
%FORMAT(5E16.8)                                                                 
  3.62500000E+00  0.00000000E+00  1.10000000E+00
%FLAG DIHEDRAL_PERIODICITY                                                      
%FORMAT(5E16.8)                                                                 
  2.00000000E+00  2.00000000E+00  2.00000000E+00
%FLAG DIHEDRAL_PHASE                                                            
%FORMAT(5E16.8)                                                                 
  3.14159400E+00  3.14159400E+00  3.14159400E+00
%FLAG SCEE_SCALE_FACTOR                                                         
%FORMAT(5E16.8)                                                                 
  1.20000000E+00  1.20000000E+00  0.00000000E+00
%FLAG SCNB_SCALE_FACTOR                                                         
%FORMAT(5E16.8)                                                                 
  2.00000000E+00  2.00000000E+00  0.00000000E+00
%FLAG SOLTY                                                                     
%FORMAT(5E16.8)                                                                 
  0.00000000E+00  0.00000000E+00  0.00000000E+00  0.00000000E+00
%FLAG LENNARD_JONES_ACOEF                                                       
%FORMAT(5E16.8)                                                                 
  2.00671338E+06  1.18640578E+06  6.96551276E+05  1.16165080E+06  6.80770393E+05
  6.65027384E+05  1.32549375E+05  7.52549148E+04  7.29041169E+04  6.90855956E+03
%FLAG LENNARD_JONES_BCOEF                                                       
%FORMAT(5E16.8)                                                                 
  1.13185062E+03  7.71958727E+02  5.24668528E+02  7.84289859E+02  5.32561965E+02
  5.40444287E+02  1.63939471E+02  1.09570372E+02  1.10729433E+02  2.10929191E+01
%FLAG BONDS_INC_HYDROGEN                                                        
%FORMAT(10I8)                                                                   
       3      24       4       6      27       4       9      30       4      12
      33       4      15      36       4
%FLAG BONDS_WITHOUT_HYDROGEN                                                    
%FORMAT(10I8)                                                                   
       0      18       1       0      21       2       3       6       3       3
       9       3       6      12       3       9      15       3      12      18
       3      15      18       3
%FLAG ANGLES_INC_HYDROGEN                                                       
%FORMAT(10I8)                                                                   
       3       6      27       3       3       9      30       3       6       3
      24       3       6      12      33       3       9       3      24       3
       9      15      36       3      12       6      27       3      15       9
      30       3      18      12      33       3      18      15      36       3
%FLAG ANGLES_WITHOUT_HYDROGEN                                                   
%FORMAT(10I8)                                                                   
       0      18      12       1       0      18      15       1       3       6
      12       2       3       9      15       2       6       3       9       2
       6      12      18       2       9      15      18       2      12      18
      15       2      18       0      21       4
%FLAG DIHEDRALS_INC_HYDROGEN                                                    
%FORMAT(10I8)                                                                   
       0      18      12      33       1       0      18      15      36       1
       3       6      12      33       1       3       9      15      36       1
       6       3       9      30       1       9       3       6      27       1
      12       6       3      24       1      12      18      15      36       1
      15       9       3      24       1      15      18      12      33       1
      18      12       6      27       1      18      15       9      30       1
      24       3       6      27       1      24       3       9      30       1
      27       6      12      33       1      30       9      15      36       1
       6       9      -3     -24       3       3      12      -6     -27       3
       3      15      -9     -30       3       6      18     -12     -33       3
       9      18     -15     -36       3
%FLAG DIHEDRALS_WITHOUT_HYDROGEN                                                
%FORMAT(10I8)                                                                   
       0      18      12       6       1       0      18      15       9       1
       3       6      12      18       1       3       9     -15      18       1
       6       3       9      15       1       6      12     -18      15       1
       9       3       6      12       1       9      15     -18      12       1
      21       0      18      12       2      21       0      18      15       2
       0      18     -15     -12       3
%FLAG EXCLUDED_ATOMS_LIST                                                       
%FORMAT(10I8)                                                                   
       3       4       5       6       7       8      12      13       3       4
       5       6       7       9      10      11      12      13       4       5
       6       7       9      10      11      12       5       6       7       9
      10      11      13       6       7       8       9      10      12      13
       7       8       9      11      12      13       8      10      11      12
      13       0      10      11      12      13       0       0
%FLAG HBOND_ACOEF                                                               
%FORMAT(5E16.8)                                                                 

%FLAG HBOND_BCOEF                                                               
%FORMAT(5E16.8)                                                                 

%FLAG HBCUT                                                                     
%FORMAT(5E16.8)                                                                 

%FLAG AMBER_ATOM_TYPE                                                           
%FORMAT(20a4)                                                                   
cg  ca  ca  ca  ca  ca  ca  n1  ha  ha  ha  ha  ha  
%FLAG TREE_CHAIN_CLASSIFICATION                                                 
%FORMAT(20a4)                                                                   
BLA BLA BLA BLA BLA BLA BLA BLA BLA BLA BLA BLA BLA 
%FLAG JOIN_ARRAY                                                                
%FORMAT(10I8)                                                                   
       0       0       0       0       0       0       0       0       0       0
       0       0       0
%FLAG IROTAT                                                                    
%FORMAT(10I8)                                                                   
       0       0       0       0       0       0       0       0       0       0
       0       0       0
%FLAG RADIUS_SET                                                                
%FORMAT(1a80)                                                                   
modified Bondi radii (mbondi)                                                   
%FLAG RADII                                                                     
%FORMAT(5E16.8)                                                                 
  1.70000000E+00  1.70000000E+00  1.70000000E+00  1.70000000E+00  1.70000000E+00
  1.70000000E+00  1.70000000E+00  1.55000000E+00  1.30000000E+00  1.30000000E+00
  1.30000000E+00  1.30000000E+00  1.30000000E+00
%FLAG SCREEN                                                                    
%FORMAT(5E16.8)                                                                 
  7.20000000E-01  7.20000000E-01  7.20000000E-01  7.20000000E-01  7.20000000E-01
  7.20000000E-01  7.20000000E-01  7.90000000E-01  8.50000000E-01  8.50000000E-01
  8.50000000E-01  8.50000000E-01  8.50000000E-01
%FLAG IPOL                                                                      
%FORMAT(1I8)                                                                    
       0
