; mobley_2451097_GMX_OPLS.itp created by acpype (v: 2023.10.27) on Wed May 20 23:42:49 2026

; For OPLS atomtypes manual fine tuning
; AC_at:OPLS_at:OPLScode: Possible_Alternatives (see ffoplsaa.atp and ffoplsaanb.itp)
; cg:x:opls_x: []
; ca:CA:opls_145: ['166', '501', '502']
; n1:x:opls_x: []
; ha:HA:opls_146: []

[ moleculetype ]
;name            nrexcl
 mobley_2451097   3

[ atoms ]
;   nr  type  resi  res  atom  cgnr     charge      mass       ; qtot   bond_type
     1 opls_x     1   MOL    C1    1     0.233800      0.00000 ; qtot  0.234  x   
     2 opls_145     1   MOL    C2    2    -0.107000     12.01100 ; qtot  0.127  CA  
     3 opls_145     1   MOL    C3    3    -0.135000     12.01100 ; qtot -0.008  CA  
     4 opls_145     1   MOL    C4    4    -0.135000     12.01100 ; qtot -0.143  CA  
     5 opls_145     1   MOL    C5    5    -0.091000     12.01100 ; qtot -0.234  CA  
     6 opls_145     1   MOL    C6    6    -0.091000     12.01100 ; qtot -0.325  CA  
     7 opls_145     1   MOL    C7    7    -0.019000     12.01100 ; qtot -0.344  CA  
     8 opls_x     1   MOL    N1    8    -0.363800      0.00000 ; qtot -0.708  x   
     9 opls_146     1   MOL    H1    9     0.138000      1.00800 ; qtot -0.570  HA  
    10 opls_146     1   MOL    H2   10     0.140000      1.00800 ; qtot -0.430  HA  
    11 opls_146     1   MOL    H3   11     0.140000      1.00800 ; qtot -0.290  HA  
    12 opls_146     1   MOL    H4   12     0.145000      1.00800 ; qtot -0.145  HA  
    13 opls_146     1   MOL    H5   13     0.145000      1.00800 ; qtot  0.000  HA  

[ bonds ]
;   ai     aj funct   r             k
     1      7   1 ;    1.4318e-01    2.6561e+05 ;     C1 - C7          x - CA    
     1      8   1 ;    1.1643e-01    6.2260e+05 ;     C1 - N1          x - x     
     2      3   1 ;    1.3986e-01    2.9644e+05 ;     C2 - C3         CA - CA    
     2      4   1 ;    1.3986e-01    2.9644e+05 ;     C2 - C4         CA - CA    
     2      9   1 ;    1.0860e-01    3.0183e+05 ;     C2 - H1         CA - HA    
     3      5   1 ;    1.3986e-01    2.9644e+05 ;     C3 - C5         CA - CA    
     3     10   1 ;    1.0860e-01    3.0183e+05 ;     C3 - H2         CA - HA    
     4      6   1 ;    1.3986e-01    2.9644e+05 ;     C4 - C6         CA - CA    
     4     11   1 ;    1.0860e-01    3.0183e+05 ;     C4 - H3         CA - HA    
     5      7   1 ;    1.3986e-01    2.9644e+05 ;     C5 - C7         CA - CA    
     5     12   1 ;    1.0860e-01    3.0183e+05 ;     C5 - H4         CA - HA    
     6      7   1 ;    1.3986e-01    2.9644e+05 ;     C6 - C7         CA - CA    
     6     13   1 ;    1.0860e-01    3.0183e+05 ;     C6 - H5         CA - HA    

[ pairs ]
;   ai     aj    funct
     1      3      1 ;     C1 - C3    
     1      4      1 ;     C1 - C4    
     1     12      1 ;     C1 - H4    
     1     13      1 ;     C1 - H5    
     2      7      1 ;     C2 - C7    
     2     12      1 ;     C2 - H4    
     2     13      1 ;     C2 - H5    
     3      6      1 ;     C3 - C6    
     3     11      1 ;     C3 - H3    
     4      5      1 ;     C4 - C5    
     4     10      1 ;     C4 - H2    
     5      9      1 ;     C5 - H1    
     5     13      1 ;     C5 - H5    
     6      9      1 ;     C6 - H1    
     6     12      1 ;     C6 - H4    
     7     10      1 ;     C7 - H2    
     7     11      1 ;     C7 - H3    
     8      5      1 ;     N1 - C5    
     8      6      1 ;     N1 - C6    
     9     10      1 ;     H1 - H2    
     9     11      1 ;     H1 - H3    
    10     12      1 ;     H2 - H4    
    11     13      1 ;     H3 - H5    

[ angles ]
;   ai     aj     ak    funct   theta         cth
     1      7      5      1 ;    1.2025e+02    5.2593e+02 ;     C1 - C7   - C5        x -   CA - CA  
     1      7      6      1 ;    1.2025e+02    5.2593e+02 ;     C1 - C7   - C6        x -   CA - CA  
     2      3      5      1 ;    1.2002e+02    5.3279e+02 ;     C2 - C3   - C5       CA -   CA - CA  
     2      3     10      1 ;    1.1988e+02    3.7572e+02 ;     C2 - C3   - H2       CA -   CA - HA  
     2      4      6      1 ;    1.2002e+02    5.3279e+02 ;     C2 - C4   - C6       CA -   CA - CA  
     2      4     11      1 ;    1.1988e+02    3.7572e+02 ;     C2 - C4   - H3       CA -   CA - HA  
     3      2      4      1 ;    1.2002e+02    5.3279e+02 ;     C3 - C2   - C4       CA -   CA - CA  
     3      2      9      1 ;    1.1988e+02    3.7572e+02 ;     C3 - C2   - H1       CA -   CA - HA  
     3      5      7      1 ;    1.2002e+02    5.3279e+02 ;     C3 - C5   - C7       CA -   CA - CA  
     3      5     12      1 ;    1.1988e+02    3.7572e+02 ;     C3 - C5   - H4       CA -   CA - HA  
     4      2      9      1 ;    1.1988e+02    3.7572e+02 ;     C4 - C2   - H1       CA -   CA - HA  
     4      6      7      1 ;    1.2002e+02    5.3279e+02 ;     C4 - C6   - C7       CA -   CA - CA  
     4      6     13      1 ;    1.1988e+02    3.7572e+02 ;     C4 - C6   - H5       CA -   CA - HA  
     5      3     10      1 ;    1.1988e+02    3.7572e+02 ;     C5 - C3   - H2       CA -   CA - HA  
     5      7      6      1 ;    1.2002e+02    5.3279e+02 ;     C5 - C7   - C6       CA -   CA - CA  
     6      4     11      1 ;    1.1988e+02    3.7572e+02 ;     C6 - C4   - H3       CA -   CA - HA  
     7      1      8      1 ;    1.7952e+02    4.8785e+02 ;     C7 - C1   - N1       CA -    x - x   
     7      5     12      1 ;    1.1988e+02    3.7572e+02 ;     C7 - C5   - H4       CA -   CA - HA  
     7      6     13      1 ;    1.1988e+02    3.7572e+02 ;     C7 - C6   - H5       CA -   CA - HA  

[ dihedrals ] ; propers
; for gromacs 4.5 or higher, using funct 9
;    i      j      k      l   func   phase     kd      pn
     1      7      5      3      9 ;   180.00  15.16700   2 ;     C1-    C7-    C5-    C3
     1      7      5     12      9 ;   180.00  15.16700   2 ;     C1-    C7-    C5-    H4
     1      7      6      4      9 ;   180.00  15.16700   2 ;     C1-    C7-    C6-    C4
     1      7      6     13      9 ;   180.00  15.16700   2 ;     C1-    C7-    C6-    H5
     2      3      5      7      9 ;   180.00  15.16700   2 ;     C2-    C3-    C5-    C7
     2      3      5     12      9 ;   180.00  15.16700   2 ;     C2-    C3-    C5-    H4
     2      4      6      7      9 ;   180.00  15.16700   2 ;     C2-    C4-    C6-    C7
     2      4      6     13      9 ;   180.00  15.16700   2 ;     C2-    C4-    C6-    H5
     3      2      4      6      9 ;   180.00  15.16700   2 ;     C3-    C2-    C4-    C6
     3      2      4     11      9 ;   180.00  15.16700   2 ;     C3-    C2-    C4-    H3
     3      5      7      6      9 ;   180.00  15.16700   2 ;     C3-    C5-    C7-    C6
     4      2      3      5      9 ;   180.00  15.16700   2 ;     C4-    C2-    C3-    C5
     4      2      3     10      9 ;   180.00  15.16700   2 ;     C4-    C2-    C3-    H2
     4      6      7      5      9 ;   180.00  15.16700   2 ;     C4-    C6-    C7-    C5
     5      3      2      9      9 ;   180.00  15.16700   2 ;     C5-    C3-    C2-    H1
     5      7      6     13      9 ;   180.00  15.16700   2 ;     C5-    C7-    C6-    H5
     6      4      2      9      9 ;   180.00  15.16700   2 ;     C6-    C4-    C2-    H1
     6      7      5     12      9 ;   180.00  15.16700   2 ;     C6-    C7-    C5-    H4
     7      5      3     10      9 ;   180.00  15.16700   2 ;     C7-    C5-    C3-    H2
     7      6      4     11      9 ;   180.00  15.16700   2 ;     C7-    C6-    C4-    H3
     8      1      7      5      9 ;   180.00   0.00000   2 ;     N1-    C1-    C7-    C5
     8      1      7      6      9 ;   180.00   0.00000   2 ;     N1-    C1-    C7-    C6
     9      2      3     10      9 ;   180.00  15.16700   2 ;     H1-    C2-    C3-    H2
     9      2      4     11      9 ;   180.00  15.16700   2 ;     H1-    C2-    C4-    H3
    10      3      5     12      9 ;   180.00  15.16700   2 ;     H2-    C3-    C5-    H4
    11      4      6     13      9 ;   180.00  15.16700   2 ;     H3-    C4-    C6-    H5

[ dihedrals ] ; impropers
; treated as propers in GROMACS to use correct AMBER analytical function
;    i      j      k      l   func   phase     kd      pn
     1      7      6      5      4 ;   180.00   4.60240   2 ;     C1-    C7-    C6-    C5
     2      5      3     10      4 ;   180.00   4.60240   2 ;     C2-    C5-    C3-    H2
     2      6      4     11      4 ;   180.00   4.60240   2 ;     C2-    C6-    C4-    H3
     3      4      2      9      4 ;   180.00   4.60240   2 ;     C3-    C4-    C2-    H1
     3      7      5     12      4 ;   180.00   4.60240   2 ;     C3-    C7-    C5-    H4
     4      7      6     13      4 ;   180.00   4.60240   2 ;     C4-    C7-    C6-    H5
