; mobley_2451097_GMX_OPLS.top created by acpype (v: 2023.10.27) on Wed May 20 23:42:49 2026

; Include forcefield parameters
#include "ffoplsaa.itp"

; Include mobley_2451097_GMX.itp topology
#include "mobley_2451097_GMX.itp"

; Ligand position restraints
#ifdef POSRES_LIG
#include "posre_mobley_2451097.itp"
#endif

[ system ]
 mobley_2451097

[ molecules ]
; Compound        nmols
 mobley_2451097   1     
