; mobley_1615431_GMX_OPLS.top created by acpype (v: 2023.10.27) on Wed May 20 23:44:45 2026

; Include forcefield parameters
#include "ffoplsaa.itp"

; Include mobley_1615431_GMX.itp topology
#include "mobley_1615431_GMX.itp"

; Ligand position restraints
#ifdef POSRES_LIG
#include "posre_mobley_1615431.itp"
#endif

[ system ]
 mobley_1615431

[ molecules ]
; Compound        nmols
 mobley_1615431   1     
