%VERSION  VERSION_STAMP = V0001.000  DATE = 05/20/26  23:44:47                  
%FLAG TITLE                                                                     
%FORMAT(20a4)                                                                   
diisopropyl_ether                                                               
%FLAG POINTERS                                                                  
%FORMAT(10I8)                                                                   
      21       4      14       6      30       7      50      12       0       0
     101       1       6       7      12       4       7       8       4       0
       0       0       0       0       0       0       0       0      21       0
       0
%FLAG ATOM_NAME                                                                 
%FORMAT(20a4)                                                                   
C1  C2  C3  C4  C5  C6  O1  H1  H2  H3  H4  H5  H6  H7  H8  H9  H10 H11 H12 H13 
H14 
%FLAG CHARGE                                                                    
%FORMAT(5E16.8)                                                                 
 -1.96071948E+00 -1.96071948E+00 -1.96071948E+00 -1.96071948E+00  2.55294423E+00
  2.55294423E+00 -7.73718858E+00  7.65937936E-01  7.65937936E-01  7.65937936E-01
  7.65937936E-01  7.65937936E-01  7.65937936E-01  7.65937936E-01  7.65937936E-01
  7.65937936E-01  7.65937936E-01  7.65937936E-01  7.65937936E-01  6.32313810E-01
  6.32313810E-01
%FLAG ATOMIC_NUMBER                                                             
%FORMAT(10I8)                                                                   
       6       6       6       6       6       6       8       1       1       1
       1       1       1       1       1       1       1       1       1       1
       1
%FLAG MASS                                                                      
%FORMAT(5E16.8)                                                                 
  1.20100000E+01  1.20100000E+01  1.20100000E+01  1.20100000E+01  1.20100000E+01
  1.20100000E+01  1.60000000E+01  1.00800000E+00  1.00800000E+00  1.00800000E+00
  1.00800000E+00  1.00800000E+00  1.00800000E+00  1.00800000E+00  1.00800000E+00
  1.00800000E+00  1.00800000E+00  1.00800000E+00  1.00800000E+00  1.00800000E+00
  1.00800000E+00
%FLAG ATOM_TYPE_INDEX                                                           
%FORMAT(10I8)                                                                   
       1       1       1       1       1       1       2       3       3       3
       3       3       3       3       3       3       3       3       3       4
       4
%FLAG NUMBER_EXCLUDED_ATOMS                                                     
%FORMAT(10I8)                                                                   
      11      10      11      10      10       9      14       3       2       1
       3       2       1       3       2       1       3       2       1       1
       1
%FLAG NONBONDED_PARM_INDEX                                                      
%FORMAT(10I8)                                                                   
       1       2       4       7       2       3       5       8       4       5
       6       9       7       8       9      10
%FLAG RESIDUE_LABEL                                                             
%FORMAT(20a4)                                                                   
MOL 
%FLAG RESIDUE_POINTER                                                           
%FORMAT(10I8)                                                                   
       1
%FLAG BOND_FORCE_CONSTANT                                                       
%FORMAT(5E16.8)                                                                 
  2.28890000E+02  3.45250000E+02  2.82270000E+02  3.44220000E+02
%FLAG BOND_EQUIL_VALUE                                                          
%FORMAT(5E16.8)                                                                 
  1.53540000E+00  1.09620000E+00  1.42730000E+00  1.09690000E+00
%FLAG ANGLE_FORCE_CONSTANT                                                      
%FORMAT(5E16.8)                                                                 
  5.98700000E+01  7.74400000E+01  4.32800000E+01  4.32700000E+01  8.83300000E+01
  5.62000000E+01  3.58000000E+01
%FLAG ANGLE_EQUIL_VALUE                                                         
%FORMAT(5E16.8)                                                                 
  1.96576518E+00  1.87832415E+00  1.91270715E+00  1.91427794E+00  1.98269488E+00
  1.92579712E+00  1.88024401E+00
%FLAG DIHEDRAL_FORCE_CONSTANT                                                   
%FORMAT(5E16.8)                                                                 
  1.30000000E-01  8.80000000E-01  8.00000000E-02  7.50000000E-01  3.37000000E-01
  2.50000000E-01  0.00000000E+00  1.55555556E-01
%FLAG DIHEDRAL_PERIODICITY                                                      
%FORMAT(5E16.8)                                                                 
  3.00000000E+00  1.00000000E+00  2.00000000E+00  3.00000000E+00  3.00000000E+00
  1.00000000E+00  3.00000000E+00  3.00000000E+00
%FLAG DIHEDRAL_PHASE                                                            
%FORMAT(5E16.8)                                                                 
  0.00000000E+00  3.14159400E+00  0.00000000E+00  0.00000000E+00  0.00000000E+00
  0.00000000E+00  0.00000000E+00  0.00000000E+00
%FLAG SCEE_SCALE_FACTOR                                                         
%FORMAT(5E16.8)                                                                 
  1.20000000E+00  1.20000000E+00  1.20000000E+00  1.20000000E+00  1.20000000E+00
  1.20000000E+00  1.20000000E+00  1.20000000E+00
%FLAG SCNB_SCALE_FACTOR                                                         
%FORMAT(5E16.8)                                                                 
  2.00000000E+00  2.00000000E+00  2.00000000E+00  2.00000000E+00  2.00000000E+00
  2.00000000E+00  2.00000000E+00  2.00000000E+00
%FLAG SOLTY                                                                     
%FORMAT(5E16.8)                                                                 
  0.00000000E+00  0.00000000E+00  0.00000000E+00  0.00000000E+00
%FLAG LENNARD_JONES_ACOEF                                                       
%FORMAT(5E16.8)                                                                 
  1.02073671E+06  5.42502534E+05  2.83662575E+05  1.00235148E+05  5.02224902E+04
  7.94617769E+03  6.97998263E+04  3.44374471E+04  5.22955465E+03  3.39005767E+03
%FLAG LENNARD_JONES_BCOEF                                                       
%FORMAT(5E16.8)                                                                 
  6.63431737E+02  4.38146883E+02  2.87011518E+02  1.37787728E+02  8.83545880E+01
  2.57122925E+01  1.14981426E+02  7.31636661E+01  2.08590256E+01  1.67944276E+01
%FLAG BONDS_INC_HYDROGEN                                                        
%FORMAT(10I8)                                                                   
       0      21       2       0      24       2       0      27       2       3
      30       2       3      33       2       3      36       2       6      39
       2       6      42       2       6      45       2       9      48       2
       9      51       2       9      54       2      12      57       4      15
      60       4
%FLAG BONDS_WITHOUT_HYDROGEN                                                    
%FORMAT(10I8)                                                                   
       0      12       1       3      12       1       6      15       1       9
      15       1      12      18       3      15      18       3
%FLAG ANGLES_INC_HYDROGEN                                                       
%FORMAT(10I8)                                                                   
       0      12      57       3       3      12      57       3       6      15
      60       3       9      15      60       3      12       0      21       4
      12       0      24       4      12       0      27       4      12       3
      30       4      12       3      33       4      12       3      36       4
      15       6      39       4      15       6      42       4      15       6
      45       4      15       9      48       4      15       9      51       4
      15       9      54       4      18      12      57       6      18      15
      60       6      21       0      24       7      21       0      27       7
      24       0      27       7      30       3      33       7      30       3
      36       7      33       3      36       7      39       6      42       7
      39       6      45       7      42       6      45       7      48       9
      51       7      48       9      54       7      51       9      54       7
%FLAG ANGLES_WITHOUT_HYDROGEN                                                   
%FORMAT(10I8)                                                                   
       0      12       3       1       0      12      18       2       3      12
      18       2       6      15       9       1       6      15      18       2
       9      15      18       2      12      18      15       5
%FLAG DIHEDRALS_INC_HYDROGEN                                                    
%FORMAT(10I8)                                                                   
       0      12       3      30       1       0      12       3      33       1
       0      12       3      36       1      21       0      12       3       1
      24       0      12       3       1      27       0      12       3       1
       6      15       9      48       1       6      15       9      51       1
       6      15       9      54       1       9      15       6      39       1
       9      15       6      42       1       9      15       6      45       1
      12      18      15      60       5      15      18      12      57       5
      21       0      12      18       6      21       0     -12      18       7
      24       0      12      18       6      24       0     -12      18       7
      27       0      12      18       6      27       0     -12      18       7
      18      12       3      30       6      18      12      -3      30       7
      18      12       3      33       6      18      12      -3      33       7
      18      12       3      36       6      18      12      -3      36       7
      18      15       6      39       6      18      15      -6      39       7
      18      15       6      42       6      18      15      -6      42       7
      18      15       6      45       6      18      15      -6      45       7
      18      15       9      48       6      18      15      -9      48       7
      18      15       9      51       6      18      15      -9      51       7
      18      15       9      54       6      18      15      -9      54       7
      21       0      12      57       8      24       0      12      57       8
      27       0      12      57       8      30       3      12      57       8
      33       3      12      57       8      36       3      12      57       8
      39       6      15      60       8      42       6      15      60       8
      45       6      15      60       8      48       9      15      60       8
      51       9      15      60       8      54       9      15      60       8
%FLAG DIHEDRALS_WITHOUT_HYDROGEN                                                
%FORMAT(10I8)                                                                   
       0      12      18      15       2       0      12     -18      15       3
       0      12     -18      15       4       3      12      18      15       2
       3      12     -18      15       3       3      12     -18      15       4
       6      15      18      12       2       6      15     -18      12       3
       6      15     -18      12       4       9      15      18      12       2
       9      15     -18      12       3       9      15     -18      12       4
%FLAG EXCLUDED_ATOMS_LIST                                                       
%FORMAT(10I8)                                                                   
       2       5       6       7       8       9      10      11      12      13
      20       5       6       7       8       9      10      11      12      13
      20       4       5       6       7      14      15      16      17      18
      19      21       5       6       7      14      15      16      17      18
      19      21       6       7       8       9      10      11      12      13
      20      21       7      14      15      16      17      18      19      20
      21       8       9      10      11      12      13      14      15      16
      17      18      19      20      21       9      10      20      10      20
      20      12      13      20      13      20      20      15      16      21
      16      21      21      18      19      21      19      21      21       0
       0
%FLAG HBOND_ACOEF                                                               
%FORMAT(5E16.8)                                                                 

%FLAG HBOND_BCOEF                                                               
%FORMAT(5E16.8)                                                                 

%FLAG HBCUT                                                                     
%FORMAT(5E16.8)                                                                 

%FLAG AMBER_ATOM_TYPE                                                           
%FORMAT(20a4)                                                                   
c3  c3  c3  c3  c3  c3  os  hc  hc  hc  hc  hc  hc  hc  hc  hc  hc  hc  hc  h1  
h1  
%FLAG TREE_CHAIN_CLASSIFICATION                                                 
%FORMAT(20a4)                                                                   
BLA BLA BLA BLA BLA BLA BLA BLA BLA BLA BLA BLA BLA BLA BLA BLA BLA BLA BLA BLA 
BLA 
%FLAG JOIN_ARRAY                                                                
%FORMAT(10I8)                                                                   
       0       0       0       0       0       0       0       0       0       0
       0       0       0       0       0       0       0       0       0       0
       0
%FLAG IROTAT                                                                    
%FORMAT(10I8)                                                                   
       0       0       0       0       0       0       0       0       0       0
       0       0       0       0       0       0       0       0       0       0
       0
%FLAG RADIUS_SET                                                                
%FORMAT(1a80)                                                                   
modified Bondi radii (mbondi)                                                   
%FLAG RADII                                                                     
%FORMAT(5E16.8)                                                                 
  1.70000000E+00  1.70000000E+00  1.70000000E+00  1.70000000E+00  1.70000000E+00
  1.70000000E+00  1.50000000E+00  1.30000000E+00  1.30000000E+00  1.30000000E+00
  1.30000000E+00  1.30000000E+00  1.30000000E+00  1.30000000E+00  1.30000000E+00
  1.30000000E+00  1.30000000E+00  1.30000000E+00  1.30000000E+00  1.30000000E+00
  1.30000000E+00
%FLAG SCREEN                                                                    
%FORMAT(5E16.8)                                                                 
  7.20000000E-01  7.20000000E-01  7.20000000E-01  7.20000000E-01  7.20000000E-01
  7.20000000E-01  8.50000000E-01  8.50000000E-01  8.50000000E-01  8.50000000E-01
  8.50000000E-01  8.50000000E-01  8.50000000E-01  8.50000000E-01  8.50000000E-01
  8.50000000E-01  8.50000000E-01  8.50000000E-01  8.50000000E-01  8.50000000E-01
  8.50000000E-01
%FLAG IPOL                                                                      
%FORMAT(1I8)                                                                    
       0
