; mobley_1615431_GMX_OPLS.itp created by acpype (v: 2023.10.27) on Wed May 20 23:44:45 2026

; For OPLS atomtypes manual fine tuning
; AC_at:OPLS_at:OPLScode: Possible_Alternatives (see ffoplsaa.atp and ffoplsaanb.itp)
; c3:CT:opls_135: ['136', '137', '149', '157', '158', '206', '209', '210', '223B', '224B', '245', '246', '274', '283', '284', '285', '292', '292B', '293B', '296', '307', '308', '505']
; os:x:opls_x: []
; hc:HC:opls_140: []
; h1:HC:opls_140: []

[ moleculetype ]
;name            nrexcl
 mobley_1615431   3

[ atoms ]
;   nr  type  resi  res  atom  cgnr     charge      mass       ; qtot   bond_type
     1 opls_135     1   MOL    C1    1    -0.107600     12.01100 ; qtot -0.108  CT  
     2 opls_135     1   MOL    C2    2    -0.107600     12.01100 ; qtot -0.215  CT  
     3 opls_135     1   MOL    C3    3    -0.107600     12.01100 ; qtot -0.323  CT  
     4 opls_135     1   MOL    C4    4    -0.107600     12.01100 ; qtot -0.430  CT  
     5 opls_135     1   MOL    C5    5     0.140100     12.01100 ; qtot -0.290  CT  
     6 opls_135     1   MOL    C6    6     0.140100     12.01100 ; qtot -0.150  CT  
     7 opls_x     1   MOL    O1    7    -0.423596      0.00000 ; qtot -0.574  x   
     8 opls_140     1   MOL    H1    8     0.042033      1.00800 ; qtot -0.532  HC  
     9 opls_140     1   MOL    H2    9     0.042033      1.00800 ; qtot -0.490  HC  
    10 opls_140     1   MOL    H3   10     0.042033      1.00800 ; qtot -0.448  HC  
    11 opls_140     1   MOL    H4   11     0.042033      1.00800 ; qtot -0.406  HC  
    12 opls_140     1   MOL    H5   12     0.042033      1.00800 ; qtot -0.364  HC  
    13 opls_140     1   MOL    H6   13     0.042033      1.00800 ; qtot -0.322  HC  
    14 opls_140     1   MOL    H7   14     0.042033      1.00800 ; qtot -0.280  HC  
    15 opls_140     1   MOL    H8   15     0.042033      1.00800 ; qtot -0.238  HC  
    16 opls_140     1   MOL    H9   16     0.042033      1.00800 ; qtot -0.195  HC  
    17 opls_140     1   MOL   H10   17     0.042033      1.00800 ; qtot -0.153  HC  
    18 opls_140     1   MOL   H11   18     0.042033      1.00800 ; qtot -0.111  HC  
    19 opls_140     1   MOL   H12   19     0.042033      1.00800 ; qtot -0.069  HC  
    20 opls_140     1   MOL   H13   20     0.034700      1.00800 ; qtot -0.035  HC  
    21 opls_140     1   MOL   H14   21     0.034700      1.00800 ; qtot -0.000  HC  

[ bonds ]
;   ai     aj funct   r             k
     1      5   1 ;    1.5354e-01    1.9154e+05 ;     C1 - C5         CT - CT    
     1      8   1 ;    1.0962e-01    2.8891e+05 ;     C1 - H1         CT - HC    
     1      9   1 ;    1.0962e-01    2.8891e+05 ;     C1 - H2         CT - HC    
     1     10   1 ;    1.0962e-01    2.8891e+05 ;     C1 - H3         CT - HC    
     2      5   1 ;    1.5354e-01    1.9154e+05 ;     C2 - C5         CT - CT    
     2     11   1 ;    1.0962e-01    2.8891e+05 ;     C2 - H4         CT - HC    
     2     12   1 ;    1.0962e-01    2.8891e+05 ;     C2 - H5         CT - HC    
     2     13   1 ;    1.0962e-01    2.8891e+05 ;     C2 - H6         CT - HC    
     3      6   1 ;    1.5354e-01    1.9154e+05 ;     C3 - C6         CT - CT    
     3     14   1 ;    1.0962e-01    2.8891e+05 ;     C3 - H7         CT - HC    
     3     15   1 ;    1.0962e-01    2.8891e+05 ;     C3 - H8         CT - HC    
     3     16   1 ;    1.0962e-01    2.8891e+05 ;     C3 - H9         CT - HC    
     4      6   1 ;    1.5354e-01    1.9154e+05 ;     C4 - C6         CT - CT    
     4     17   1 ;    1.0962e-01    2.8891e+05 ;     C4 - H10        CT - HC    
     4     18   1 ;    1.0962e-01    2.8891e+05 ;     C4 - H11        CT - HC    
     4     19   1 ;    1.0962e-01    2.8891e+05 ;     C4 - H12        CT - HC    
     5      7   1 ;    1.4273e-01    2.3620e+05 ;     C5 - O1         CT - x     
     5     20   1 ;    1.0969e-01    2.8804e+05 ;     C5 - H13        CT - HC    
     6      7   1 ;    1.4273e-01    2.3620e+05 ;     C6 - O1         CT - x     
     6     21   1 ;    1.0969e-01    2.8804e+05 ;     C6 - H14        CT - HC    

[ pairs ]
;   ai     aj    funct
     1      6      1 ;     C1 - C6    
     1     11      1 ;     C1 - H4    
     1     12      1 ;     C1 - H5    
     1     13      1 ;     C1 - H6    
     2      6      1 ;     C2 - C6    
     3      5      1 ;     C3 - C5    
     3     17      1 ;     C3 - H10   
     3     18      1 ;     C3 - H11   
     3     19      1 ;     C3 - H12   
     4      5      1 ;     C4 - C5    
     4     14      1 ;     C4 - H7    
     4     15      1 ;     C4 - H8    
     4     16      1 ;     C4 - H9    
     5     21      1 ;     C5 - H14   
     6     20      1 ;     C6 - H13   
     7     11      1 ;     O1 - H4    
     7     12      1 ;     O1 - H5    
     7     13      1 ;     O1 - H6    
     7     14      1 ;     O1 - H7    
     7     15      1 ;     O1 - H8    
     7     16      1 ;     O1 - H9    
     7     17      1 ;     O1 - H10   
     7     18      1 ;     O1 - H11   
     7     19      1 ;     O1 - H12   
     8      2      1 ;     H1 - C2    
     8      7      1 ;     H1 - O1    
     8     20      1 ;     H1 - H13   
     9      2      1 ;     H2 - C2    
     9      7      1 ;     H2 - O1    
     9     20      1 ;     H2 - H13   
    10      2      1 ;     H3 - C2    
    10      7      1 ;     H3 - O1    
    10     20      1 ;     H3 - H13   
    11     20      1 ;     H4 - H13   
    12     20      1 ;     H5 - H13   
    13     20      1 ;     H6 - H13   
    14     21      1 ;     H7 - H14   
    15     21      1 ;     H8 - H14   
    16     21      1 ;     H9 - H14   
    17     21      1 ;    H10 - H14   
    18     21      1 ;    H11 - H14   
    19     21      1 ;    H12 - H14   

[ angles ]
;   ai     aj     ak    funct   theta         cth
     1      5      2      1 ;    1.1263e+02    5.0099e+02 ;     C1 - C5   - C2       CT -   CT - CT  
     1      5      7      1 ;    1.0762e+02    6.4802e+02 ;     C1 - C5   - O1       CT -   CT - x   
     1      5     20      1 ;    1.0959e+02    3.6217e+02 ;     C1 - C5   - H13      CT -   CT - HC  
     2      5      7      1 ;    1.0762e+02    6.4802e+02 ;     C2 - C5   - O1       CT -   CT - x   
     2      5     20      1 ;    1.0959e+02    3.6217e+02 ;     C2 - C5   - H13      CT -   CT - HC  
     3      6      4      1 ;    1.1263e+02    5.0099e+02 ;     C3 - C6   - C4       CT -   CT - CT  
     3      6      7      1 ;    1.0762e+02    6.4802e+02 ;     C3 - C6   - O1       CT -   CT - x   
     3      6     21      1 ;    1.0959e+02    3.6217e+02 ;     C3 - C6   - H14      CT -   CT - HC  
     4      6      7      1 ;    1.0762e+02    6.4802e+02 ;     C4 - C6   - O1       CT -   CT - x   
     4      6     21      1 ;    1.0959e+02    3.6217e+02 ;     C4 - C6   - H14      CT -   CT - HC  
     5      1      8      1 ;    1.0968e+02    3.6208e+02 ;     C5 - C1   - H1       CT -   CT - HC  
     5      1      9      1 ;    1.0968e+02    3.6208e+02 ;     C5 - C1   - H2       CT -   CT - HC  
     5      1     10      1 ;    1.0968e+02    3.6208e+02 ;     C5 - C1   - H3       CT -   CT - HC  
     5      2     11      1 ;    1.0968e+02    3.6208e+02 ;     C5 - C2   - H4       CT -   CT - HC  
     5      2     12      1 ;    1.0968e+02    3.6208e+02 ;     C5 - C2   - H5       CT -   CT - HC  
     5      2     13      1 ;    1.0968e+02    3.6208e+02 ;     C5 - C2   - H6       CT -   CT - HC  
     5      7      6      1 ;    1.1360e+02    7.3915e+02 ;     C5 - O1   - C6       CT -    x - CT  
     6      3     14      1 ;    1.0968e+02    3.6208e+02 ;     C6 - C3   - H7       CT -   CT - HC  
     6      3     15      1 ;    1.0968e+02    3.6208e+02 ;     C6 - C3   - H8       CT -   CT - HC  
     6      3     16      1 ;    1.0968e+02    3.6208e+02 ;     C6 - C3   - H9       CT -   CT - HC  
     6      4     17      1 ;    1.0968e+02    3.6208e+02 ;     C6 - C4   - H10      CT -   CT - HC  
     6      4     18      1 ;    1.0968e+02    3.6208e+02 ;     C6 - C4   - H11      CT -   CT - HC  
     6      4     19      1 ;    1.0968e+02    3.6208e+02 ;     C6 - C4   - H12      CT -   CT - HC  
     7      5     20      1 ;    1.1034e+02    4.7028e+02 ;     O1 - C5   - H13       x -   CT - HC  
     7      6     21      1 ;    1.1034e+02    4.7028e+02 ;     O1 - C6   - H14       x -   CT - HC  
     8      1      9      1 ;    1.0773e+02    2.9957e+02 ;     H1 - C1   - H2       HC -   CT - HC  
     8      1     10      1 ;    1.0773e+02    2.9957e+02 ;     H1 - C1   - H3       HC -   CT - HC  
     9      1     10      1 ;    1.0773e+02    2.9957e+02 ;     H2 - C1   - H3       HC -   CT - HC  
    11      2     12      1 ;    1.0773e+02    2.9957e+02 ;     H4 - C2   - H5       HC -   CT - HC  
    11      2     13      1 ;    1.0773e+02    2.9957e+02 ;     H4 - C2   - H6       HC -   CT - HC  
    12      2     13      1 ;    1.0773e+02    2.9957e+02 ;     H5 - C2   - H6       HC -   CT - HC  
    14      3     15      1 ;    1.0773e+02    2.9957e+02 ;     H7 - C3   - H8       HC -   CT - HC  
    14      3     16      1 ;    1.0773e+02    2.9957e+02 ;     H7 - C3   - H9       HC -   CT - HC  
    15      3     16      1 ;    1.0773e+02    2.9957e+02 ;     H8 - C3   - H9       HC -   CT - HC  
    17      4     18      1 ;    1.0773e+02    2.9957e+02 ;    H10 - C4   - H11      HC -   CT - HC  
    17      4     19      1 ;    1.0773e+02    2.9957e+02 ;    H10 - C4   - H12      HC -   CT - HC  
    18      4     19      1 ;    1.0773e+02    2.9957e+02 ;    H11 - C4   - H12      HC -   CT - HC  

[ dihedrals ] ; propers
; for gromacs 4.5 or higher, using funct 9
;    i      j      k      l   func   phase     kd      pn
     1      5      2     11      9 ;     0.00   0.54392   3 ;     C1-    C5-    C2-    H4
     1      5      2     12      9 ;     0.00   0.54392   3 ;     C1-    C5-    C2-    H5
     1      5      2     13      9 ;     0.00   0.54392   3 ;     C1-    C5-    C2-    H6
     1      5      7      6      9 ;     0.00   0.33472   2 ;     C1-    C5-    O1-    C6
     1      5      7      6      9 ;     0.00   3.13800   3 ;     C1-    C5-    O1-    C6
     1      5      7      6      9 ;   180.00   3.68192   1 ;     C1-    C5-    O1-    C6
     2      5      7      6      9 ;     0.00   0.33472   2 ;     C2-    C5-    O1-    C6
     2      5      7      6      9 ;     0.00   3.13800   3 ;     C2-    C5-    O1-    C6
     2      5      7      6      9 ;   180.00   3.68192   1 ;     C2-    C5-    O1-    C6
     3      6      4     17      9 ;     0.00   0.54392   3 ;     C3-    C6-    C4-   H10
     3      6      4     18      9 ;     0.00   0.54392   3 ;     C3-    C6-    C4-   H11
     3      6      4     19      9 ;     0.00   0.54392   3 ;     C3-    C6-    C4-   H12
     3      6      7      5      9 ;     0.00   0.33472   2 ;     C3-    C6-    O1-    C5
     3      6      7      5      9 ;     0.00   3.13800   3 ;     C3-    C6-    O1-    C5
     3      6      7      5      9 ;   180.00   3.68192   1 ;     C3-    C6-    O1-    C5
     4      6      3     14      9 ;     0.00   0.54392   3 ;     C4-    C6-    C3-    H7
     4      6      3     15      9 ;     0.00   0.54392   3 ;     C4-    C6-    C3-    H8
     4      6      3     16      9 ;     0.00   0.54392   3 ;     C4-    C6-    C3-    H9
     4      6      7      5      9 ;     0.00   0.33472   2 ;     C4-    C6-    O1-    C5
     4      6      7      5      9 ;     0.00   3.13800   3 ;     C4-    C6-    O1-    C5
     4      6      7      5      9 ;   180.00   3.68192   1 ;     C4-    C6-    O1-    C5
     5      7      6     21      9 ;     0.00   1.41001   3 ;     C5-    O1-    C6-   H14
     6      7      5     20      9 ;     0.00   1.41001   3 ;     C6-    O1-    C5-   H13
     7      5      2     11      9 ;     0.00   0.00000   0 ;     O1-    C5-    C2-    H4
     7      5      2     11      9 ;     0.00   1.04600   1 ;     O1-    C5-    C2-    H4
     7      5      2     12      9 ;     0.00   0.00000   0 ;     O1-    C5-    C2-    H5
     7      5      2     12      9 ;     0.00   1.04600   1 ;     O1-    C5-    C2-    H5
     7      5      2     13      9 ;     0.00   0.00000   0 ;     O1-    C5-    C2-    H6
     7      5      2     13      9 ;     0.00   1.04600   1 ;     O1-    C5-    C2-    H6
     7      6      3     14      9 ;     0.00   0.00000   0 ;     O1-    C6-    C3-    H7
     7      6      3     14      9 ;     0.00   1.04600   1 ;     O1-    C6-    C3-    H7
     7      6      3     15      9 ;     0.00   0.00000   0 ;     O1-    C6-    C3-    H8
     7      6      3     15      9 ;     0.00   1.04600   1 ;     O1-    C6-    C3-    H8
     7      6      3     16      9 ;     0.00   0.00000   0 ;     O1-    C6-    C3-    H9
     7      6      3     16      9 ;     0.00   1.04600   1 ;     O1-    C6-    C3-    H9
     7      6      4     17      9 ;     0.00   0.00000   0 ;     O1-    C6-    C4-   H10
     7      6      4     17      9 ;     0.00   1.04600   1 ;     O1-    C6-    C4-   H10
     7      6      4     18      9 ;     0.00   0.00000   0 ;     O1-    C6-    C4-   H11
     7      6      4     18      9 ;     0.00   1.04600   1 ;     O1-    C6-    C4-   H11
     7      6      4     19      9 ;     0.00   0.00000   0 ;     O1-    C6-    C4-   H12
     7      6      4     19      9 ;     0.00   1.04600   1 ;     O1-    C6-    C4-   H12
     8      1      5      2      9 ;     0.00   0.54392   3 ;     H1-    C1-    C5-    C2
     8      1      5      7      9 ;     0.00   0.00000   0 ;     H1-    C1-    C5-    O1
     8      1      5      7      9 ;     0.00   1.04600   1 ;     H1-    C1-    C5-    O1
     8      1      5     20      9 ;     0.00   0.65084   3 ;     H1-    C1-    C5-   H13
     9      1      5      2      9 ;     0.00   0.54392   3 ;     H2-    C1-    C5-    C2
     9      1      5      7      9 ;     0.00   0.00000   0 ;     H2-    C1-    C5-    O1
     9      1      5      7      9 ;     0.00   1.04600   1 ;     H2-    C1-    C5-    O1
     9      1      5     20      9 ;     0.00   0.65084   3 ;     H2-    C1-    C5-   H13
    10      1      5      2      9 ;     0.00   0.54392   3 ;     H3-    C1-    C5-    C2
    10      1      5      7      9 ;     0.00   0.00000   0 ;     H3-    C1-    C5-    O1
    10      1      5      7      9 ;     0.00   1.04600   1 ;     H3-    C1-    C5-    O1
    10      1      5     20      9 ;     0.00   0.65084   3 ;     H3-    C1-    C5-   H13
    11      2      5     20      9 ;     0.00   0.65084   3 ;     H4-    C2-    C5-   H13
    12      2      5     20      9 ;     0.00   0.65084   3 ;     H5-    C2-    C5-   H13
    13      2      5     20      9 ;     0.00   0.65084   3 ;     H6-    C2-    C5-   H13
    14      3      6     21      9 ;     0.00   0.65084   3 ;     H7-    C3-    C6-   H14
    15      3      6     21      9 ;     0.00   0.65084   3 ;     H8-    C3-    C6-   H14
    16      3      6     21      9 ;     0.00   0.65084   3 ;     H9-    C3-    C6-   H14
    17      4      6     21      9 ;     0.00   0.65084   3 ;    H10-    C4-    C6-   H14
    18      4      6     21      9 ;     0.00   0.65084   3 ;    H11-    C4-    C6-   H14
    19      4      6     21      9 ;     0.00   0.65084   3 ;    H12-    C4-    C6-   H14
