diisopropyl_ether
    21
   0.2250000  -0.0420000   1.7540000   2.1170000   0.4790000   0.1730000
   1.5260000   4.4510000   0.6850000   1.5300000   3.5650000   3.0450000
   1.3530000   0.9190000   1.4130000   1.7300000   3.2330000   1.5730000
   0.8120000   2.2180000   1.1940000   0.6070000  -1.0470000   1.9590000
  -0.3220000   0.3100000   2.6360000  -0.5020000  -0.1030000   0.9370000
   2.5710000  -0.5060000   0.3160000   2.9080000   1.1990000  -0.0620000
   1.4580000   0.4380000  -0.7010000   2.2380000   5.2450000   0.9300000
   1.6530000   4.1790000  -0.3680000   0.5100000   4.8480000   0.7870000
   2.2410000   4.3260000   3.3810000   1.6620000   2.6670000   3.6590000
   0.5140000   3.9280000   3.2320000   2.0420000   0.9900000   2.2610000
   2.7390000   2.8360000   1.4220000
